FOO
135168
    1MOL0     O    1   6.273   5.503   6.073 -0.1584  0.8534  0.4801
    1MOL0     C    2   6.356   5.432   6.131 -0.6015  0.2156 -0.6641
    1MOL0     O    3   6.325   5.325   6.209  0.1594  0.3519 -0.6605
    1MOL0     C    4   6.194   5.277   6.199 -0.3691 -0.3417 -0.2266
    1MOL0     C    5   6.130   5.254   6.081 -0.4263 -0.5479  0.1609
    1MOL0     C    6   5.999   5.198   6.077  0.8410  0.7154 -0.2690
    1MOL0     C    7   5.930   5.170   6.193  0.0937 -0.1081  0.2484
    1MOL0     O    8   5.805   5.121   6.178  0.1260  0.2961  0.4085
    1MOL0     C    9   5.704   5.228   6.210  0.2150  0.3475 -0.3712
    1MOL0     C   10   5.573   5.192   6.146  0.2937  0.4844  0.8544
    1MOL0     C   11   5.486   5.323   6.161 -0.6224 -0.1545 -1.4642
    1MOL0     C   12   5.342   5.296   6.120  0.9499 -0.1920  0.4941
    1MOL0     C   13   5.240   5.407   6.161  0.0634  0.1299  0.1174
    1MOL0     C   14   5.092   5.390   6.099  0.1072  0.6110 -0.0367
    1MOL0     C   15   5.002   5.470   6.189 -0.0283  0.6591 -0.8017
    1MOL0     C   16   5.032   5.619   6.182  0.3722 -0.4446 -0.2112
    1MOL0     N   17   4.912   5.688   6.225  0.7179  0.2079  0.3656
    1MOL0     C   18   4.808   5.713   6.145  0.4055  0.4691  0.0530
    1MOL0     C   19   4.721   5.797   6.202 -0.0248 -0.1321 -0.1992
    1MOL0     C   20   4.603   5.887   6.151 -0.0484 -0.6913 -0.5701
    1MOL0     C   21   4.467   5.821   6.162  0.0235 -0.1282 -0.1219
    1MOL0     C   22   4.444   5.688   6.092  0.0610 -0.7205  0.4502
    1MOL0     C   23   4.293   5.659   6.064  0.1934 -0.3478 -0.6134
    1MOL0     O   24   4.218   5.760   5.994 -0.0806  0.1881 -1.3312
    1MOL0     C   25   4.231   5.766   5.857  0.4940  0.5538  0.5438
    1MOL0     C   26   4.318   5.699   5.772  0.4800 -1.1190 -0.1292
    1MOL0     C   27   4.334   5.736   5.638  0.2381 -0.8775  0.5622
    1MOL0     C   28   4.262   5.846   5.589 -0.1849 -1.2183 -0.2034
    1MOL0     C   29   4.264   5.875   5.442  0.3334 -0.9397 -0.5973
    1MOL0     O   30   4.155   5.937   5.393  0.1491  0.5301 -0.1052
    1MOL0     C   31   4.160   6.023   5.285 -0.0667  0.1472 -0.1123
    1MOL0     C   32   4.273   6.093   5.233 -0.0734 -0.3097  0.3107
    1MOL0     C   33   4.257   6.173   5.118 -0.3957 -0.2660 -0.5731
    1MOL0     C   34   4.138   6.195   5.049  0.5297  1.0246  0.8516
    1MOL0     O   35   4.140   6.284   4.952 -0.6282 -0.3499 -0.1703
    1MOL0     C   36   4.035   6.276   4.858 -0.8211  0.1383 -0.8524
    1MOL0     C   37   4.052   6.384   4.748  1.3990  0.5471 -0.0452
    1MOL0     C   38   4.090   6.525   4.800  0.4020  0.0305  0.0701
    1MOL0     C   39   4.116   6.606   4.672 -0.6328  0.4946  0.0727
    1MOL0     C   40   4.171   6.750   4.679 -0.7233 -0.8983 -0.3952
    1MOL0     C   41   4.326   6.738   4.710  0.4079  0.0665 -0.6075
    1MOL0     C   42   4.401   6.863   4.701 -0.6589  0.5806 -0.1035
    1MOL0     C   43   4.439   6.882   4.552  0.7924 -0.0612  0.0141
    1MOL0    Cl   44   4.600   6.799   4.526  0.0672  0.3668  0.0929
    1MOL0     C   45   4.032   6.106   5.084 -0.0800 -0.8587  0.6264
    1MOL0     C   46   4.043   6.031   5.200 -0.1636 -0.3276  0.2239
    1MOL0     O   47   4.361   5.848   5.375 -0.2955 -0.1450  0.0789
    1MOL0     C   48   4.169   5.911   5.670  0.5695 -1.1320 -0.4095
    1MOL0     C   49   4.145   5.863   5.805 -0.2932  0.0681 -0.3887
    1MOL0     N   50   4.779   5.818   6.329  0.6535 -0.1870 -0.1716
    1MOL0     N   51   4.886   5.756   6.334  0.1619  0.5882 -0.8101
    1MOL0     C   52   5.989   5.198   6.315  0.2586 -0.0236 -0.3197
    1MOL0     C   53   6.120   5.250   6.313 -0.4727  0.8087 -0.1736
    1MOL0     C   54   6.498   5.470   6.095  0.0959 -0.2627  0.4624
    1MOL0     C   55   6.539   5.610   6.054  0.4869  0.1584 -0.5488
    1MOL0     C   56   6.676   5.638   6.036  0.6967  0.3005 -0.3309
    1MOL0     C   57   6.774   5.540   6.048  0.1033  0.0923  1.2551
    1MOL0     O   58   6.911   5.563   6.027 -0.1581  0.4167  0.2382
    1MOL0     C   59   6.948   5.601   5.888  0.8687  0.6605  0.8331
    1MOL0     C   60   7.090   5.642   5.872  0.3464 -0.4590 -0.0196
    1MOL0     C   61   7.191   5.539   5.923  0.6833  0.2534  0.2744
    1MOL0     C   62   7.331   5.592   5.893  0.1899 -1.1913  0.5451
    1MOL0     C   63   7.360   5.649   5.761  1.0365 -0.6115  0.0070
    1MOL0     C   64   7.411   5.688   5.661  0.4795 -0.7868  0.4127
    1MOL0     C   65   6.739   5.411   6.084 -0.1321  0.4111  0.9812
    1MOL0     C   66   6.602   5.376   6.124  0.7348 -0.5677  0.0047
    1MOL0     H   67   6.179   5.278   5.987  1.0345  0.1966  1.0681
    1MOL0     H   68   5.942   5.181   5.986 -2.0111  1.5085  1.2337
    1MOL0     H   69   5.740   5.326   6.177  0.7298  0.9688  1.8421
    1MOL0     H   70   5.697   5.244   6.318 -1.5014  0.0895 -0.4228
    1MOL0     H   71   5.525   5.110   6.200 -1.8909  1.3153  0.2762
    1MOL0     H   72   5.583   5.167   6.040 -1.5281  1.0206  0.5288
    1MOL0     H   73   5.522   5.401   6.093  2.3609  1.1996  1.4340
    1MOL0     H   74   5.491   5.359   6.264 -0.9925 -2.1577 -0.7141
    1MOL0     H   75   5.341   5.288   6.011  0.6093 -1.3538  0.5772
    1MOL0     H   76   5.311   5.196   6.150  1.5183 -0.7168 -0.5974
    1MOL0     H   77   5.273   5.500   6.113  0.3072  1.1673  2.2047
    1MOL0     H   78   5.243   5.412   6.270 -0.4081 -3.5756  0.4278
    1MOL0     H   79   5.054   5.287   6.105 -3.9538  2.0135  1.4611
    1MOL0     H   80   5.086   5.415   5.993  4.0593 -0.8124 -0.7482
    1MOL0     H   81   4.897   5.444   6.170  0.1416 -2.2216  1.4528
    1MOL0     H   82   5.020   5.445   6.294  0.9599 -2.6602 -1.6291
    1MOL0     H   83   5.069   5.665   6.089  0.1804  3.5679  1.4729
    1MOL0     H   84   5.107   5.651   6.254 -0.4987  1.9879 -0.2958
    1MOL0     H   85   4.794   5.661   6.051  3.7251 -0.4496 -0.0533
    1MOL0     H   86   4.615   5.910   6.044 -3.0525  0.8369 -0.6612
    1MOL0     H   87   4.605   5.984   6.201  0.8998  0.0857 -2.0210
    1MOL0     H   88   4.387   5.885   6.125  0.6760  0.9131  0.2456
    1MOL0     H   89   4.445   5.802   6.267  0.7180 -1.4477 -0.1900
    1MOL0     H   90   4.480   5.700   5.989 -1.5532 -1.2332 -0.2065
    1MOL0     H   91   4.482   5.604   6.151 -1.3445 -0.5892  1.5742
    1MOL0     H   92   4.250   5.643   6.164 -0.4658 -2.3898 -1.1859
    1MOL0     H   93   4.293   5.563   6.013  2.7778 -2.7665  3.4276
    1MOL0     H   94   4.374   5.610   5.800  0.4410 -1.7873 -2.0541
    1MOL0     H   95   4.409   5.682   5.581  0.3240  0.5773 -0.7578
    1MOL0     H   96   4.372   6.102   5.277 -1.1147  1.5666  2.5059
    1MOL0     H   97   4.338   6.238   5.088 -0.7958  0.4449 -0.1425
    1MOL0     H   98   3.940   6.283   4.911  1.6106  0.0457  4.0197
    1MOL0     H   99   4.043   6.180   4.807 -0.5676 -0.2418 -0.1130
    1MOL0     H  100   3.957   6.393   4.695  1.8021  1.1896 -0.6887
    1MOL0     H  101   4.112   6.337   4.668  2.1984  0.3236  0.6716
    1MOL0     H  102   4.186   6.517   4.851  1.1427 -0.7584 -1.3755
    1MOL0     H  103   4.016   6.574   4.863  3.0476  2.7090  1.3228
    1MOL0     H  104   4.193   6.548   4.620 -0.9516 -0.3744  0.5331
    1MOL0     H  105   4.027   6.597   4.609 -0.0848  0.8665 -0.7827
    1MOL0     H  106   4.121   6.804   4.760 -1.0996  1.4920 -2.0940
    1MOL0     H  107   4.167   6.804   4.584  3.1464  1.1954  0.4104
    1MOL0     H  108   4.372   6.657   4.653  2.1948  1.6633 -1.5529
    1MOL0     H  109   4.333   6.705   4.814  0.6024 -2.2558 -1.3036
    1MOL0     H  110   4.322   6.937   4.718 -1.2548  0.2266 -1.2382
    1MOL0     H  111   4.482   6.866   4.775 -0.4077 -1.0959 -0.2815
    1MOL0     H  112   4.443   6.987   4.522  0.3070  0.0010  0.1615
    1MOL0     H  113   4.370   6.835   4.482  0.6152  0.8444 -0.4341
    1MOL0     H  114   3.940   6.094   5.026 -0.2591 -1.3140  1.0011
    1MOL0     H  115   3.957   5.967   5.219 -1.3338  0.5704 -1.7133
    1MOL0     H  116   4.096   5.986   5.639  1.8364  1.5821  2.5645
    1MOL0     H  117   4.066   5.906   5.866 -0.0302 -2.6620  2.0669
    1MOL0     H  118   5.937   5.177   6.408 -0.1331 -1.6074 -0.8548
    1MOL0     H  119   6.170   5.276   6.406 -0.5027 -0.2603  0.1580
    1MOL0     H  120   6.462   5.685   6.037  3.6564  3.2092 -2.6223
    1MOL0     H  121   6.708   5.740   6.016 -0.5748  0.6893 -0.4304
    1MOL0     H  122   6.892   5.690   5.858  0.9415 -0.1253 -1.8890
    1MOL0     H  123   6.929   5.515   5.824 -0.3243  1.2304  0.3979
    1MOL0     H  124   7.097   5.659   5.764 -0.4454 -0.7049 -0.1181
    1MOL0     H  125   7.101   5.742   5.916 -1.9803  1.2227 -2.8031
    1MOL0     H  126   7.178   5.443   5.871  2.8548 -0.0519  0.2070
    1MOL0     H  127   7.189   5.515   6.029 -1.6641 -2.3442 -0.2235
    1MOL0     H  128   7.350   5.671   5.966 -1.7405  0.4966 -0.7031
    1MOL0     H  129   7.407   5.513   5.902  3.0307  1.2841  0.0422
    1MOL0     H  130   7.450   5.737   5.574 -0.9667 -0.7086 -0.2401
    1MOL0     H  131   6.809   5.329   6.099 -1.3512 -1.0750 -0.8684
    1MOL0     H  132   6.584   5.275   6.157 -3.2237  0.1811  0.6486
    2MOL0     O  133   9.033   8.130   8.847 -0.7659  0.1597 -0.3550
    2MOL0     C  134   9.041   8.008   8.835 -0.9692 -0.0847  0.0377
    2MOL0     O  135   8.937   7.921   8.849  0.2257 -0.1136  0.5650
    2MOL0     C  136   8.809   7.971   8.866  0.5071 -0.1923  0.7624
    2MOL0     C  137   8.775   8.052   8.981  0.4777  0.9889  0.0126
    2MOL0     C  138   8.658   8.112   9.009  1.1089  0.5461  0.0602
    2MOL0     C  139   8.559   8.109   8.899 -0.8469 -0.1940 -0.4924
    2MOL0     O  140   8.441   8.171   8.912 -0.2296 -0.4391 -0.5697
    2MOL0     C  141   8.383   8.258   8.808 -0.1633 -0.3250 -0.0282
    2MOL0     C  142   8.262   8.326   8.868 -0.3977 -0.2374  0.1296
    2MOL0     C  143   8.199   8.425   8.773 -0.3334 -0.4515  1.0306
    2MOL0     C  144   8.063   8.474   8.821  0.9749 -0.2427  0.5041
    2MOL0     C  145   8.020   8.608   8.751  1.0310  0.2664  0.2086
    2MOL0     C  146   7.875   8.637   8.787  0.5651  0.0875 -0.0584
    2MOL0     C  147   7.824   8.759   8.708  0.2591  0.9365  0.3147
    2MOL0     C  148   7.703   8.817   8.775  0.1226 -0.7249 -0.6699
    2MOL0     N  149   7.672   8.952   8.716  1.2294 -0.2276 -0.7055
    2MOL0     C  150   7.655   8.975   8.582  0.4277 -0.6291 -0.1429
    2MOL0     C  151   7.649   9.110   8.578  0.1954  0.0168  0.1347
    2MOL0     C  152   7.632   9.196   8.461 -0.6566 -0.3618  0.9353
    2MOL0     C  153   7.503   9.266   8.477 -0.3662  0.1972 -0.3433
    2MOL0     C  154   7.452   9.345   8.359  0.2905 -0.6596  0.2182
    2MOL0     C  155   7.327   9.411   8.406 -0.5242  0.7627  0.6152
    2MOL0     O  156   7.273   9.480   8.284 -0.4213 -0.8052 -0.6307
    2MOL0     C  157   7.157   9.543   8.299 -0.6452 -0.1976 -0.3479
    2MOL0     C  158   7.068   9.547   8.406 -0.3136  0.1128 -0.6675
    2MOL0     C  159   6.947   9.623   8.407  0.1629  1.2184 -0.0295
    2MOL0     C  160   6.914   9.704   8.299 -0.5843 -0.4458  0.0960
    2MOL0     C  161   6.781   9.781   8.298  0.1835  0.9673  0.3233
    2MOL0     O  162   6.676   9.721   8.378 -0.9119  0.2488 -0.3242
    2MOL0     C  163   6.552   9.764   8.357 -0.1592 -0.0183 -0.2101
    2MOL0     C  164   6.454   9.668   8.347 -0.0201  0.0885  0.0024
    2MOL0     C  165   6.317   9.700   8.343 -0.6399  0.9514  0.9528
    2MOL0     C  166   6.279   9.836   8.361  0.3265  0.6539  0.2858
    2MOL0     O  167   6.147   9.867   8.353  0.6530  0.2266 -0.0486
    2MOL0     C  168   6.111  10.004   8.335 -0.3753 -0.3896  0.3106
    2MOL0     C  169   5.964  10.014   8.289 -1.1935  0.4040 -0.0416
    2MOL0     C  170   5.876   9.987   8.410 -0.2050 -0.2104 -0.0625
    2MOL0     C  171   5.731  10.010   8.371 -0.0226 -0.1685  0.2176
    2MOL0     C  172   5.638   9.944   8.478 -0.1711 -0.1661  0.7701
    2MOL0     C  173   5.494   9.991   8.453 -0.3121 -0.4443  0.0364
    2MOL0     C  174   5.398   9.945   8.571 -0.3617 -0.1745 -0.0348
    2MOL0     C  175   5.436  10.001   8.705 -0.3307 -0.0454 -0.0267
    2MOL0    Cl  176   5.279  10.005   8.790  0.6378  0.2118 -0.7366
    2MOL0     C  177   6.381   9.926   8.390  0.4872 -0.1240  0.5844
    2MOL0     C  178   6.519   9.895   8.389 -0.0162  0.1168 -0.4250
    2MOL0     O  179   6.759   9.864   8.210  0.0604 -1.0981 -0.6627
    2MOL0     C  180   7.014   9.719   8.190 -0.7898  0.1867  0.4082
    2MOL0     C  181   7.126   9.629   8.197  0.4936  0.0338 -1.0155
    2MOL0     N  182   7.676   9.172   8.700 -0.2724 -0.2272 -0.9674
    2MOL0     N  183   7.667   9.069   8.787  0.5166 -0.7713  0.1337
    2MOL0     C  184   8.581   8.019   8.791 -0.3224  0.7061 -0.1374
    2MOL0     C  185   8.710   7.954   8.772  0.8974  0.4106  0.1920
    2MOL0     C  186   9.165   7.934   8.803  0.5073  0.2518  1.0110
    2MOL0     C  187   9.294   7.986   8.831 -0.2963  0.0642  0.5894
    2MOL0     C  188   9.411   7.925   8.792 -0.3355  0.0981 -0.1312
    2MOL0     C  189   9.407   7.794   8.744 -0.3549 -0.6567  0.6420
    2MOL0     O  190   9.530   7.737   8.704 -0.0029  0.2462 -0.0995
    2MOL0     C  191   9.545   7.627   8.607 -0.0643 -0.3719 -0.2152
    2MOL0     C  192   9.678   7.664   8.539 -0.6153 -0.5640  0.1762
    2MOL0     C  193   9.813   7.652   8.618  0.2520  0.5117 -0.1576
    2MOL0     C  194   9.842   7.775   8.698 -0.2583  0.5584  0.0497
    2MOL0     C  195   9.960   7.769   8.787  0.3518 -0.6841  0.1572
    2MOL0     C  196  10.049   7.732   8.854 -0.6363 -0.4024 -0.6505
    2MOL0     C  197   9.279   7.734   8.705 -0.7236 -0.4922  0.9140
    2MOL0     C  198   9.160   7.808   8.735  0.3933  0.2548  0.4846
    2MOL0     H  199   8.843   8.052   9.066  2.5412  2.6552 -1.5304
    2MOL0     H  200   8.633   8.154   9.106 -1.9387  1.0113 -0.8306
    2MOL0     H  201   8.371   8.191   8.723 -1.2960 -1.6550  1.1176
    2MOL0     H  202   8.455   8.333   8.774  0.9015 -2.1894 -2.1180
    2MOL0     H  203   8.296   8.375   8.960 -2.9714  1.6039  0.2190
    2MOL0     H  204   8.187   8.249   8.888  0.6353 -2.4454 -3.5139
    2MOL0     H  205   8.182   8.385   8.672 -0.3968  1.8434  0.0711
    2MOL0     H  206   8.265   8.512   8.769  0.3486 -0.9958 -2.0191
    2MOL0     H  207   7.984   8.404   8.794 -1.8760  2.4919  1.1602
    2MOL0     H  208   8.071   8.482   8.929  3.0059  0.2758  0.3577
    2MOL0     H  209   8.023   8.611   8.642 -1.3923 -1.7495  0.0054
    2MOL0     H  210   8.079   8.691   8.792 -0.4226 -0.1681  3.4877
    2MOL0     H  211   7.874   8.651   8.896  2.1460 -0.9088  0.1210
    2MOL0     H  212   7.812   8.548   8.776  0.1173  0.3408  0.4026
    2MOL0     H  213   7.896   8.841   8.698  0.2995  0.9124  0.4093
    2MOL0     H  214   7.792   8.728   8.608 -1.7245  1.4446  0.7595
    2MOL0     H  215   7.723   8.836   8.881 -1.1840  0.8755 -0.6892
    2MOL0     H  216   7.616   8.751   8.781  1.1007 -1.9303  3.7037
    2MOL0     H  217   7.647   8.906   8.499 -2.8221  1.5232 -1.8443
    2MOL0     H  218   7.639   9.138   8.368  2.6542  1.9903 -0.4853
    2MOL0     H  219   7.709   9.273   8.460  1.6951 -2.5196 -0.7557
    2MOL0     H  220   7.527   9.331   8.562 -0.2772 -1.2952  0.8131
    2MOL0     H  221   7.426   9.190   8.494 -0.8403 -0.0760 -3.1953
    2MOL0     H  222   7.528   9.422   8.341  2.2232 -2.0931  1.7559
    2MOL0     H  223   7.445   9.282   8.270  2.3667  0.9020 -1.1478
    2MOL0     H  224   7.340   9.479   8.490  3.7223 -0.4996  1.1780
    2MOL0     H  225   7.256   9.332   8.434 -0.1833  0.0108 -0.5418
    2MOL0     H  226   7.086   9.477   8.487  0.8685  1.0680 -0.0771
    2MOL0     H  227   6.880   9.612   8.491 -1.7687 -0.5636 -1.6983
    2MOL0     H  228   6.483   9.566   8.327  0.7361 -0.1073  1.9634
    2MOL0     H  229   6.247   9.619   8.323  0.1594 -0.2684  2.7494
    2MOL0     H  230   6.169  10.043   8.251 -3.8046 -0.2570 -2.1807
    2MOL0     H  231   6.134  10.060   8.427  0.3040 -1.7777  1.0178
    2MOL0     H  232   5.947   9.941   8.209 -0.3187 -2.2095  2.0173
    2MOL0     H  233   5.938  10.117   8.260 -2.9917  0.4759  1.6332
    2MOL0     H  234   5.898  10.058   8.491 -1.0240  0.9214 -0.7871
    2MOL0     H  235   5.889   9.882   8.437 -1.9447 -0.3736  0.2765
    2MOL0     H  236   5.716  10.119   8.371 -0.7360 -0.2470  1.1058
    2MOL0     H  237   5.695   9.966   8.277  0.6489  0.8218 -0.5241
    2MOL0     H  238   5.678   9.971   8.576  2.7888 -0.5408 -0.1995
    2MOL0     H  239   5.636   9.836   8.463  0.7346 -0.5614  3.1161
    2MOL0     H  240   5.456   9.969   8.353 -0.4118  1.4523 -0.3864
    2MOL0     H  241   5.496  10.099   8.439  1.5601 -0.5901 -1.2415
    2MOL0     H  242   5.312  10.010   8.552 -1.3960 -0.7285  2.3693
    2MOL0     H  243   5.386   9.837   8.558  2.4029 -0.2799 -3.1062
    2MOL0     H  244   5.474  10.103   8.707 -1.7308  0.4977  0.3265
    2MOL0     H  245   5.501   9.933   8.760 -2.4975 -1.4641  0.9383
    2MOL0     H  246   6.362  10.029   8.418  1.6708 -0.2980  2.1538
    2MOL0     H  247   6.590   9.970   8.422 -0.1728 -0.7942  2.2110
    2MOL0     H  248   6.997   9.788   8.107 -0.5532  1.1013  1.0983
    2MOL0     H  249   7.190   9.628   8.109 -1.0750 -1.8487 -2.2168
    2MOL0     H  250   8.506   7.993   8.718  2.0465  0.0937 -2.4914
    2MOL0     H  251   8.730   7.894   8.684  2.2772 -5.5277  3.9740
    2MOL0     H  252   9.300   8.088   8.868  1.6546  0.8458 -1.6174
    2MOL0     H  253   9.506   7.946   8.840 -2.6401  3.1168  3.7917
    2MOL0     H  254   9.453   7.619   8.549  0.0778  1.5058 -0.7471
    2MOL0     H  255   9.566   7.533   8.659 -1.2854 -0.7826 -0.4211
    2MOL0     H  256   9.693   7.610   8.445 -1.2372 -0.9095  0.2684
    2MOL0     H  257   9.674   7.773   8.532  1.5072 -0.0780  3.7776
    2MOL0     H  258   9.889   7.644   8.539  0.4193  2.7239 -0.2833
    2MOL0     H  259   9.816   7.561   8.679 -1.5142 -0.2573 -1.1423
    2MOL0     H  260   9.871   7.857   8.632  0.1688 -0.0395 -0.5177
    2MOL0     H  261   9.758   7.786   8.767 -1.9683 -4.1971 -0.8813
    2MOL0     H  262  10.138   7.710   8.910 -1.0383 -1.5890 -0.4608
    2MOL0     H  263   9.264   7.634   8.665 -0.2354 -0.0296 -0.4955
    2MOL0     H  264   9.063   7.773   8.701  1.2666  0.2600 -2.2379
    3MOL0     O  265   2.055   3.599   5.686  1.1200 -0.7180 -0.2315
    3MOL0     C  266   2.110   3.487   5.678 -0.1419 -0.2588  0.8347
    3MOL0     O  267   2.055   3.364   5.701  1.4826  0.0503 -0.5314
    3MOL0     C  268   1.940   3.352   5.778  0.5928 -0.2680  0.3258
    3MOL0     C  269   1.808   3.373   5.728 -0.9626  0.3921  0.3624
    3MOL0     C  270   1.701   3.342   5.810 -0.2245  0.8078 -0.1396
    3MOL0     C  271   1.717   3.281   5.932 -0.1303 -0.4043  1.1197
    3MOL0     O  272   1.621   3.270   6.034 -0.3013 -0.8637 -0.1351
    3MOL0     C  273   1.483   3.238   6.006  1.0949  0.2925 -0.1165
    3MOL0     C  274   1.387   3.276   6.121 -0.2821  1.1255  0.3480
    3MOL0     C  275   1.256   3.198   6.119 -0.7703 -0.2242  0.3451
    3MOL0     C  276   1.149   3.238   6.220  0.7007  0.0527 -0.0211
    3MOL0     C  277   1.031   3.143   6.235 -0.0477  0.0034  0.0679
    3MOL0     C  278   0.973   3.148   6.378 -0.6693  0.6270  0.2771
    3MOL0     C  279   0.826   3.109   6.387 -0.6017  0.1163 -0.9470
    3MOL0     C  280   0.806   2.961   6.389 -0.7620 -0.9886 -0.6967
    3MOL0     N  281   0.666   2.918   6.377  0.4507 -0.9093 -1.3076
    3MOL0     C  282   0.573   2.956   6.277  0.4435 -0.0490  0.1790
    3MOL0     C  283   0.448   2.916   6.322 -0.1718 -0.1698 -0.2613
    3MOL0     C  284   0.312   2.920   6.250 -0.5362 -0.4690  0.0251
    3MOL0     C  285   0.257   3.068   6.230  0.1967 -0.3434  0.8208
    3MOL0     C  286   0.124   3.065   6.149  0.7783  0.2126 -0.9276
    3MOL0     C  287   0.000   3.012   6.229  0.6860 -0.2586 -0.3350
    3MOL0     O  288  -0.120   3.021   6.148  1.0481  0.4591 -0.2119
    3MOL0     C  289  -0.238   3.000   6.218  0.4137 -0.2981  0.1122
    3MOL0     C  290  -0.355   3.024   6.140 -0.3898 -0.3601 -0.0045
    3MOL0     C  291  -0.474   2.997   6.199  0.2893  0.7418  0.0944
    3MOL0     C  292  -0.494   2.953   6.332 -0.3478 -0.1959 -0.0132
    3MOL0     C  293  -0.633   2.917   6.381  0.3123  0.4526 -0.4158
    3MOL0     O  294  -0.745   2.930   6.296  0.3131 -0.1694 -0.1571
    3MOL0     C  295  -0.868   2.904   6.353 -1.1877 -0.5733 -0.2562
    3MOL0     C  296  -0.958   3.002   6.373  0.1579 -0.1999 -0.1985
    3MOL0     C  297  -1.083   2.969   6.436 -0.5907  0.5677 -0.7509
    3MOL0     C  298  -1.107   2.839   6.481 -0.5223  0.3655  0.0370
    3MOL0     O  299  -1.218   2.788   6.541  0.3582 -0.6841 -0.1757
    3MOL0     C  300  -1.345   2.854   6.524 -0.5361  0.6326  0.6483
    3MOL0     C  301  -1.459   2.767   6.562  0.6084 -0.2105  0.5570
    3MOL0     C  302  -1.443   2.701   6.695  0.2901 -0.6752 -1.6124
    3MOL0     C  303  -1.568   2.600   6.719 -0.0307  0.2164  0.8135
    3MOL0     C  304  -1.646   2.606   6.849  0.2870 -0.1969 -0.2719
    3MOL0     C  305  -1.734   2.476   6.853 -0.2923  0.4562 -0.6348
    3MOL0     C  306  -1.796   2.446   6.991 -0.4389 -0.6400  0.1556
    3MOL0     C  307  -1.874   2.563   7.052 -0.1981  0.0397 -0.7338
    3MOL0    Cl  308  -2.010   2.609   6.951 -0.0217  0.3306 -0.1446
    3MOL0     C  309  -1.009   2.739   6.452  1.1076  0.1558  0.5314
    3MOL0     C  310  -0.896   2.768   6.376  1.2294  0.5634  0.4020
    3MOL0     O  311  -0.630   2.860   6.489  0.0493 -0.6734  0.4400
    3MOL0     C  312  -0.379   2.943   6.411 -0.4638  0.2225  0.1504
    3MOL0     C  313  -0.252   2.967   6.358 -0.3997 -0.7675  0.1032
    3MOL0     N  314   0.466   2.847   6.444 -0.3337 -0.6742 -0.0423
    3MOL0     N  315   0.594   2.859   6.481 -0.4676  0.2767 -0.6120
    3MOL0     C  316   1.840   3.240   5.973 -0.6387  0.0086  0.5133
    3MOL0     C  317   1.948   3.273   5.897 -0.1884 -0.9097  0.2393
    3MOL0     C  318   2.258   3.498   5.634  0.2653  0.7219  0.9574
    3MOL0     C  319   2.327   3.621   5.607  0.1935 -0.3042 -0.4694
    3MOL0     C  320   2.446   3.619   5.540  0.0334  0.9212 -0.1019
    3MOL0     C  321   2.509   3.499   5.507  0.3142 -0.1790 -0.0699
    3MOL0     O  322   2.640   3.501   5.462  0.0575 -0.6956  0.1165
    3MOL0     C  323   2.703   3.617   5.405 -0.1070 -0.4628 -0.0937
    3MOL0     C  324   2.844   3.576   5.364  0.9445 -0.1738 -0.6240
    3MOL0     C  325   2.913   3.686   5.291 -0.1129 -0.0154 -0.0672
    3MOL0     C  326   3.064   3.658   5.267  0.5723 -0.0907 -0.8289
    3MOL0     C  327   3.131   3.769   5.190  0.3072  0.2951 -0.0316
    3MOL0     C  328   3.188   3.857   5.125 -0.0876 -0.3384 -0.1305
    3MOL0     C  329   2.446   3.380   5.538 -0.7370 -0.2721 -0.5035
    3MOL0     C  330   2.322   3.377   5.592 -0.0178 -0.1452  0.7921
    3MOL0     H  331   1.790   3.417   5.631 -0.4666 -3.0515 -1.4468
    3MOL0     H  332   1.602   3.369   5.775 -0.1755 -0.1799 -1.0892
    3MOL0     H  333   1.466   3.131   5.993 -2.5873  0.5820  1.1347
    3MOL0     H  334   1.442   3.285   5.916  0.9984  0.9049  0.2410
    3MOL0     H  335   1.363   3.383   6.116  2.4318  1.7418 -1.8208
    3MOL0     H  336   1.443   3.249   6.211 -0.5742 -1.6661 -0.2269
    3MOL0     H  337   1.266   3.090   6.107 -0.1468 -0.0066 -1.3238
    3MOL0     H  338   1.211   3.216   6.021 -1.2117 -1.5138  0.2868
    3MOL0     H  339   1.196   3.272   6.313  1.1633  3.6492 -1.4132
    3MOL0     H  340   1.109   3.332   6.181 -0.4268  0.7257  2.5183
    3MOL0     H  341   1.049   3.038   6.206 -0.7141 -0.6035  1.7288
    3MOL0     H  342   0.956   3.178   6.164  2.1409 -0.0988 -2.4698
    3MOL0     H  343   0.974   3.248   6.424 -3.2612  0.8224  0.0975
    3MOL0     H  344   1.033   3.085   6.444  1.7463  1.3796 -1.0823
    3MOL0     H  345   0.791   3.153   6.481  3.4928 -1.2517  1.5024
    3MOL0     H  346   0.771   3.148   6.301  0.0749  0.5872 -1.1748
    3MOL0     H  347   0.853   2.918   6.478 -0.6295 -0.9556 -0.7507
    3MOL0     H  348   0.850   2.916   6.299  1.8547  5.4528 -3.2207
    3MOL0     H  349   0.591   2.997   6.178 -1.2831 -0.0792 -0.1703
    3MOL0     H  350   0.227   2.878   6.304  1.3385  0.4686  4.0640
    3MOL0     H  351   0.321   2.876   6.150 -0.3268  2.4503 -1.3790
    3MOL0     H  352   0.328   3.128   6.173 -2.9175  1.1478 -1.8481
    3MOL0     H  353   0.233   3.116   6.326 -3.3353  0.0775 -0.1179
    3MOL0     H  354   0.094   3.165   6.116  1.9402 -0.7217 -5.4471
    3MOL0     H  355   0.153   3.024   6.052  1.5438  3.4752 -2.2003
    3MOL0     H  356  -0.011   3.064   6.324 -1.2313  0.3521 -0.8422
    3MOL0     H  357   0.024   2.906   6.242  1.1281 -0.6491 -3.5534
    3MOL0     H  358  -0.338   3.052   6.036  2.0019 -2.8504 -0.4099
    3MOL0     H  359  -0.563   3.007   6.139 -0.1264  0.7876  0.7132
    3MOL0     H  360  -0.920   3.099   6.344  0.1352 -0.2077 -0.2538
    3MOL0     H  361  -1.150   3.047   6.470 -0.2210  0.7375 -0.3998
    3MOL0     H  362  -1.351   2.892   6.422  1.9580  1.4242  0.7415
    3MOL0     H  363  -1.355   2.940   6.591 -1.6436  1.1569 -0.1582
    3MOL0     H  364  -1.470   2.695   6.480  0.4267  1.7157 -1.1904
    3MOL0     H  365  -1.551   2.826   6.563  0.6157 -0.0795 -1.7167
    3MOL0     H  366  -1.437   2.773   6.776 -0.7718 -2.0393 -0.2600
    3MOL0     H  367  -1.347   2.648   6.698  2.3822  2.8704 -0.9392
    3MOL0     H  368  -1.638   2.616   6.636 -0.8129 -0.5101  1.3274
    3MOL0     H  369  -1.518   2.503   6.715  0.5641  0.5415 -1.7356
    3MOL0     H  370  -1.710   2.693   6.866 -1.6934 -1.4803 -0.9232
    3MOL0     H  371  -1.576   2.605   6.933  0.0798 -3.8825  0.0386
    3MOL0     H  372  -1.678   2.388   6.820 -1.2682  0.0341 -1.2145
    3MOL0     H  373  -1.826   2.486   6.793 -1.9542 -1.2246  1.4885
    3MOL0     H  374  -1.877   2.372   6.987  0.6126 -1.9488  1.9379
    3MOL0     H  375  -1.717   2.408   7.057 -2.1029 -0.2133  2.5489
    3MOL0     H  376  -1.812   2.652   7.065  1.6328 -0.9784 -1.9512
    3MOL0     H  377  -1.901   2.539   7.155  1.1686  0.5226 -0.2395
    3MOL0     H  378  -1.036   2.638   6.479  1.0919  0.4415  1.6253
    3MOL0     H  379  -0.830   2.690   6.337  1.9717  1.6901 -0.6686
    3MOL0     H  380  -0.388   2.915   6.516 -0.2345  4.3341  1.4487
    3MOL0     H  381  -0.168   2.945   6.424 -1.0881 -2.7715  0.3974
    3MOL0     H  382   1.855   3.178   6.061 -0.3658  0.1922  0.5948
    3MOL0     H  383   2.046   3.263   5.942 -1.0202 -3.4275  1.6233
    3MOL0     H  384   2.277   3.714   5.633 -2.9264 -1.4830 -1.7452
    3MOL0     H  385   2.494   3.710   5.507 -0.6178  1.9388  1.5860
    3MOL0     H  386   2.695   3.701   5.474  0.8727  0.0603 -0.5835
    3MOL0     H  387   2.651   3.639   5.311  1.9087  1.0194 -0.9415
    3MOL0     H  388   2.901   3.545   5.452 -0.6753 -1.9564 -0.1181
    3MOL0     H  389   2.841   3.496   5.290 -0.5150 -1.1643  0.4384
    3MOL0     H  390   2.909   3.776   5.354  4.7050 -0.7723  1.7628
    3MOL0     H  391   2.859   3.707   5.198  1.3310  1.4269 -0.6502
    3MOL0     H  392   3.111   3.652   5.365  0.9010 -1.1098 -1.0374
    3MOL0     H  393   3.077   3.557   5.227  0.4133 -1.9168  3.2223
    3MOL0     H  394   3.229   3.931   5.060 -2.6356  1.1992 -0.1148
    3MOL0     H  395   2.498   3.287   5.516 -0.7730 -0.8926  1.7025
    3MOL0     H  396   2.283   3.278   5.610 -1.0503 -0.1279 -1.1084
    4MOL0     O  397   3.673   5.172   5.033 -0.5590 -0.2109  0.0706
    4MOL0     C  398   3.698   5.272   4.968 -0.1095 -1.6249 -0.6364
    4MOL0     O  399   3.620   5.342   4.883  0.2173  0.2313 -0.2576
    4MOL0     C  400   3.494   5.294   4.853  0.4348 -0.5159 -0.4371
    4MOL0     C  401   3.481   5.162   4.805 -0.0677 -0.2654  0.0843
    4MOL0     C  402   3.352   5.116   4.759 -0.1138 -1.2222 -0.7670
    4MOL0     C  403   3.240   5.201   4.776  0.9111 -0.1478  0.1083
    4MOL0     O  404   3.112   5.176   4.733  0.3158  0.2220  0.5475
    4MOL0     C  405   3.080   5.039   4.713  0.4547  0.4416  0.9102
    4MOL0     C  406   2.929   5.012   4.746  1.0212 -0.3571 -0.7905
    4MOL0     C  407   2.891   4.874   4.701 -0.2406 -0.2703 -0.9001
    4MOL0     C  408   2.736   4.861   4.699  0.3104 -0.3163  0.4949
    4MOL0     C  409   2.687   4.712   4.670 -0.1765  0.1701 -0.9761
    4MOL0     C  410   2.551   4.674   4.716  0.2930 -0.1552 -0.0020
    4MOL0     C  411   2.443   4.751   4.640  0.0035  0.6707  0.5566
    4MOL0     C  412   2.309   4.691   4.701 -0.3551 -0.3835  0.0797
    4MOL0     N  413   2.193   4.696   4.615  0.0627 -0.0159 -0.7783
    4MOL0     C  414   2.156   4.599   4.526  0.6093 -0.3755 -0.8389
    4MOL0     C  415   2.064   4.668   4.447  0.6567 -0.0945  0.2654
    4MOL0     C  416   1.990   4.593   4.337 -1.2913  0.0382  0.0355
    4MOL0     C  417   1.842   4.586   4.376 -0.8031 -0.0850 -0.3564
    4MOL0     C  418   1.770   4.506   4.273 -0.9746 -0.2712 -0.2344
    4MOL0     C  419   1.620   4.544   4.290 -0.1312  0.0660  0.0570
    4MOL0     O  420   1.546   4.469   4.189 -0.4620 -0.1545  0.4872
    4MOL0     C  421   1.444   4.398   4.250  0.4639  0.0420  0.4526
    4MOL0     C  422   1.318   4.427   4.207  0.4996  0.4267  0.0495
    4MOL0     C  423   1.208   4.356   4.259 -0.4522  0.0062 -0.2916
    4MOL0     C  424   1.231   4.248   4.348  0.3355 -0.1001 -0.7375
    4MOL0     C  425   1.115   4.174   4.397 -0.1844 -0.3027  0.3984
    4MOL0     O  426   0.997   4.245   4.409 -0.5954 -0.2862 -0.2482
    4MOL0     C  427   0.873   4.196   4.446 -0.2334 -0.5999 -0.7154
    4MOL0     C  428   0.754   4.262   4.414  0.2505 -0.6587  0.0667
    4MOL0     C  429   0.628   4.222   4.460 -0.7753  0.6755  0.3716
    4MOL0     C  430   0.621   4.100   4.530  0.4535 -0.3758  0.0052
    4MOL0     O  431   0.495   4.057   4.550  0.8831 -0.6187  0.1910
    4MOL0     C  432   0.453   4.023   4.690  0.1726  0.8766  0.0660
    4MOL0     C  433   0.298   4.040   4.703  0.6016  1.1938  0.7325
    4MOL0     C  434   0.263   4.184   4.720  0.0697  1.3386 -0.0254
    4MOL0     C  435   0.315   4.244   4.854  0.5602 -0.0031 -0.8726
    4MOL0     C  436   0.274   4.168   4.986  0.5511 -0.7037  0.0800
    4MOL0     C  437   0.116   4.140   5.003  0.2728 -0.1655 -0.7240
    4MOL0     C  438   0.081   4.110   5.149  0.7697  0.1062 -0.5479
    4MOL0     C  439  -0.067   4.134   5.180 -0.2542  0.2574  0.6705
    4MOL0    Cl  440  -0.156   4.004   5.093 -0.2508  0.5959 -0.0478
    4MOL0     C  441   0.730   4.022   4.566  1.0965 -0.4162 -0.1927
    4MOL0     C  442   0.857   4.079   4.526  0.4160 -0.4928 -0.4257
    4MOL0     O  443   1.130   4.061   4.431 -0.4059  0.0515 -0.1335
    4MOL0     C  444   1.363   4.208   4.379  0.2711  0.2901 -0.5754
    4MOL0     C  445   1.466   4.291   4.335  0.4675  0.5747  0.0499
    4MOL0     N  446   2.033   4.792   4.511  0.3610  0.2812 -0.2538
    4MOL0     N  447   2.119   4.802   4.602 -0.4247 -0.4160  0.2189
    4MOL0     C  448   3.249   5.327   4.843  0.1045 -0.0144  0.0091
    4MOL0     C  449   3.381   5.378   4.875  1.1503  0.4054  0.5557
    4MOL0     C  450   3.836   5.331   4.981 -0.3142 -0.4381 -0.1600
    4MOL0     C  451   3.931   5.279   5.073 -0.3592  0.1961  0.1009
    4MOL0     C  452   4.065   5.333   5.075  0.7429  0.5376  0.0265
    4MOL0     C  453   4.099   5.438   4.993  0.5303 -0.7773 -0.5068
    4MOL0     O  454   4.231   5.481   4.999 -0.0931 -0.2938 -0.9123
    4MOL0     C  455   4.260   5.626   4.988 -0.2839  0.2927 -0.5517
    4MOL0     C  456   4.409   5.664   5.042  0.3166  1.3440  0.5400
    4MOL0     C  457   4.432   5.811   5.024 -0.6462 -0.8975 -0.1721
    4MOL0     C  458   4.572   5.868   5.068  0.1888  0.1811 -0.2289
    4MOL0     C  459   4.670   5.817   4.972  0.2468 -0.1386 -0.2483
    4MOL0     C  460   4.748   5.770   4.898  0.5770  0.4370 -0.3165
    4MOL0     C  461   4.003   5.498   4.912 -0.2611  0.6294  0.3140
    4MOL0     C  462   3.876   5.441   4.898  0.1263  0.3439  0.4289
    4MOL0     H  463   3.580   5.119   4.800  0.2968 -0.3192  4.1017
    4MOL0     H  464   3.350   5.019   4.709 -2.2625 -1.7160  0.1451
    4MOL0     H  465   3.133   4.978   4.787  3.8672  0.0394 -1.6581
    4MOL0     H  466   3.100   5.005   4.611  0.5646 -1.4367  1.5056
    4MOL0     H  467   2.865   5.091   4.707  3.5090  2.4214  0.4026
    4MOL0     H  468   2.919   5.012   4.855  0.4672 -0.2516 -0.8404
    4MOL0     H  469   2.926   4.801   4.775 -2.1299 -0.0137  0.3064
    4MOL0     H  470   2.923   4.850   4.599  0.7915 -0.9406 -0.4368
    4MOL0     H  471   2.714   4.888   4.802 -2.2415 -3.1083  0.8111
    4MOL0     H  472   2.691   4.931   4.629  0.9288 -1.5339 -1.1976
    4MOL0     H  473   2.759   4.638   4.706 -2.1189 -1.0674  0.5707
    4MOL0     H  474   2.685   4.694   4.562 -1.9831  2.9063 -1.5077
    4MOL0     H  475   2.542   4.697   4.823  0.8653 -3.2338  0.7799
    4MOL0     H  476   2.545   4.566   4.705 -0.5306 -0.2367  1.0514
    4MOL0     H  477   2.454   4.859   4.654 -0.9657  0.8524  0.0038
    4MOL0     H  478   2.447   4.735   4.532  1.6409  0.2805  0.6433
    4MOL0     H  479   2.280   4.751   4.788 -2.2463  1.3623 -1.6488
    4MOL0     H  480   2.331   4.589   4.736  1.1999  0.2006  0.8810
    4MOL0     H  481   2.186   4.496   4.510 -1.3847 -1.1279 -0.0616
    4MOL0     H  482   2.027   4.490   4.327 -1.9662 -0.3053  0.9634
    4MOL0     H  483   2.016   4.645   4.244 -0.2817  2.2282  1.4578
    4MOL0     H  484   1.796   4.685   4.386 -0.7154  0.0650 -1.3537
    4MOL0     H  485   1.823   4.545   4.476 -1.7546  0.3592 -0.3457
    4MOL0     H  486   1.814   4.544   4.181  1.5611  0.4813  1.1824
    4MOL0     H  487   1.799   4.401   4.285  0.9515  0.2139 -0.2545
    4MOL0     H  488   1.603   4.650   4.264  2.8739  0.3850 -1.1042
    4MOL0     H  489   1.585   4.526   4.391  2.0345  1.5053  1.1441
    4MOL0     H  490   1.298   4.500   4.130  1.7926  1.9247  1.0608
    4MOL0     H  491   1.112   4.388   4.222 -1.7038 -0.9585  1.8932
    4MOL0     H  492   0.749   4.355   4.359  0.7364  0.2243  1.4671
    4MOL0     H  493   0.533   4.269   4.437 -1.7354 -2.1881 -2.2020
    4MOL0     H  494   0.515   4.088   4.752  0.7315  0.5886 -0.1874
    4MOL0     H  495   0.477   3.918   4.709  2.1209  1.4683  1.1381
    4MOL0     H  496   0.262   3.972   4.781  2.1629  0.9179  1.2496
    4MOL0     H  497   0.245   4.010   4.613  3.3505 -1.5560 -0.1438
    4MOL0     H  498   0.155   4.189   4.703  0.1337 -2.5566 -3.2636
    4MOL0     H  499   0.301   4.245   4.638  4.0325  0.4983  0.9466
    4MOL0     H  500   0.423   4.259   4.857  0.6521  0.0571 -3.0710
    4MOL0     H  501   0.263   4.340   4.864 -0.4746 -0.3627 -2.4323
    4MOL0     H  502   0.308   4.237   5.064  1.5257 -1.2742  0.1866
    4MOL0     H  503   0.329   4.074   5.002 -1.2314 -1.9272 -0.6762
    4MOL0     H  504   0.089   4.053   4.942 -1.3247 -0.5492  0.4841
    4MOL0     H  505   0.062   4.228   4.966 -0.8474 -0.6405 -0.2760
    4MOL0     H  506   0.107   4.007   5.174  0.3626  0.2310  0.4341
    4MOL0     H  507   0.142   4.179   5.208 -0.0361  2.1921 -2.0109
    4MOL0     H  508  -0.099   4.232   5.144  0.5733  0.2924  0.0144
    4MOL0     H  509  -0.099   4.123   5.284 -2.7475  0.1632 -0.0291
    4MOL0     H  510   0.726   3.923   4.611 -1.6145  0.7691  2.5454
    4MOL0     H  511   0.941   4.019   4.560  0.5818  0.5445  1.0949
    4MOL0     H  512   1.365   4.116   4.436 -0.6870 -0.3444 -1.5451
    4MOL0     H  513   1.569   4.266   4.360 -0.4900 -3.5436  0.7447
    4MOL0     H  514   3.163   5.392   4.859  1.0713  0.9541  1.6480
    4MOL0     H  515   3.387   5.475   4.924  0.3678  1.0242 -0.5138
    4MOL0     H  516   3.908   5.207   5.150  0.0747 -1.1096 -0.9540
    4MOL0     H  517   4.146   5.300   5.138 -0.1561 -2.1133 -0.0924
    4MOL0     H  518   4.195   5.672   5.062 -1.0926 -0.7260 -0.5953
    4MOL0     H  519   4.235   5.659   4.887 -1.2267  0.0829 -0.4005
    4MOL0     H  520   4.405   5.635   5.148  1.1008 -2.5908 -0.3546
    4MOL0     H  521   4.480   5.606   4.982  0.3552  2.4379 -0.4956
    4MOL0     H  522   4.358   5.863   5.087  1.9859  1.4988  1.1607
    4MOL0     H  523   4.408   5.824   4.918 -0.6157 -2.8233 -0.4368
    4MOL0     H  524   4.579   5.977   5.081  0.6226 -0.0493  1.8646
    4MOL0     H  525   4.598   5.837   5.170  3.3238 -0.3973 -1.0820
    4MOL0     H  526   4.818   5.724   4.831  1.0227 -2.4686  1.9232
    4MOL0     H  527   4.029   5.568   4.833 -1.1419 -0.1537 -0.7027
    4MOL0     H  528   3.802   5.477   4.828 -1.9376 -2.6864  0.8912
    5MOL0     O  529   8.038   2.977   9.505 -0.6692  0.1633 -0.0768
    5MOL0     C  530   7.999   3.028   9.612  0.2696  0.1006  0.4538
    5MOL0     O  531   8.068   3.037   9.728  0.6506  0.2732 -0.1228
    5MOL0     C  532   8.209   3.020   9.741  0.0533 -0.9136 -0.4895
    5MOL0     C  533   8.299   3.016   9.631  0.4976  0.1693  0.2283
    5MOL0     C  534   8.430   2.983   9.650 -0.0375  0.0530  0.3981
    5MOL0     C  535   8.488   2.959   9.775  0.4566  1.0320 -0.1079
    5MOL0     O  536   8.621   2.945   9.783 -0.5164  0.1592  0.3552
    5MOL0     C  537   8.664   2.943   9.923  0.0534  1.2280  0.4353
    5MOL0     C  538   8.809   2.930   9.919  0.3107  0.1100 -0.4571
    5MOL0     C  539   8.887   2.932  10.054 -0.2948 -0.6727  0.4194
    5MOL0     C  540   8.866   2.815  10.147  0.6268  0.1285  0.0587
    5MOL0     C  541   8.989   2.770  10.224  0.1431  0.6653 -1.1537
    5MOL0     C  542   8.967   2.631  10.297 -0.4025  0.7208  0.2923
    5MOL0     C  543   8.828   2.610  10.377  0.5128 -0.0212  0.8373
    5MOL0     C  544   8.752   2.478  10.333  0.5456 -0.0019 -0.6175
    5MOL0     N  545   8.676   2.503  10.211 -0.0413 -0.2448 -0.1606
    5MOL0     C  546   8.737   2.484  10.089  0.2369  0.1276  0.2439
    5MOL0     C  547   8.637   2.495   9.999 -0.1990 -0.1082  0.5743
    5MOL0     C  548   8.645   2.476   9.849  0.7255 -0.7680  0.0731
    5MOL0     C  549   8.537   2.557   9.784 -0.0816 -0.1106 -0.2214
    5MOL0     C  550   8.546   2.564   9.624 -0.4957  0.1099 -0.1651
    5MOL0     C  551   8.410   2.597   9.560  0.3073 -0.6461 -0.3557
    5MOL0     O  552   8.312   2.484   9.574 -0.7179 -0.7968 -0.0923
    5MOL0     C  553   8.176   2.513   9.581 -0.0807 -0.7373  0.3236
    5MOL0     C  554   8.094   2.407   9.599  0.0984  0.3401  0.1940
    5MOL0     C  555   7.953   2.429   9.611 -0.6034  0.1879  1.1840
    5MOL0     C  556   7.898   2.564   9.605  0.2449 -0.1413 -0.2388
    5MOL0     C  557   7.763   2.597   9.647  0.7643  0.9098 -0.1082
    5MOL0     O  558   7.727   2.731   9.633  0.1048 -0.4959  0.1146
    5MOL0     C  559   7.614   2.766   9.694 -0.0995  1.3968 -0.3990
    5MOL0     C  560   7.612   2.798   9.833 -1.4225 -0.3113  0.2469
    5MOL0     C  561   7.492   2.822   9.891  1.1888  0.0925  0.0643
    5MOL0     C  562   7.369   2.833   9.818 -0.3113 -0.7462  0.3991
    5MOL0     O  563   7.254   2.849   9.894 -0.3396  0.2288 -0.3925
    5MOL0     C  564   7.136   2.848   9.824  0.0718  0.2275 -0.0135
    5MOL0     C  565   7.014   2.881   9.912  0.4496 -0.1489 -0.5151
    5MOL0     C  566   6.993   3.032   9.940 -0.5516  0.8121 -0.8249
    5MOL0     C  567   6.887   3.079  10.048 -1.0596 -0.3100  0.2671
    5MOL0     C  568   6.735   3.025  10.033 -0.5257 -0.6115 -0.0378
    5MOL0     C  569   6.663   3.099   9.910  0.2623  0.2691  0.2158
    5MOL0     C  570   6.642   3.254   9.939  0.0675  0.3961  0.7434
    5MOL0     C  571   6.542   3.278  10.049  0.1108 -0.3562 -0.5695
    5MOL0    Cl  572   6.376   3.262   9.991 -0.1370 -0.0507  0.6224
    5MOL0     C  573   7.374   2.811   9.675  0.9090 -0.4719 -0.1750
    5MOL0     C  574   7.495   2.768   9.618 -0.5374  0.2550  0.8736
    5MOL0     O  575   7.699   2.508   9.708  0.5265 -0.2983  0.2294
    5MOL0     C  576   7.979   2.672   9.569 -0.6391 -0.1666  0.3278
    5MOL0     C  577   8.121   2.644   9.563  1.0309 -0.0262  0.2221
    5MOL0     N  578   8.525   2.540  10.069  1.2001 -0.6413  0.0955
    5MOL0     N  579   8.549   2.544  10.195 -0.1489 -0.6169  0.3853
    5MOL0     C  580   8.397   2.959   9.884 -0.1752 -0.5602 -0.9200
    5MOL0     C  581   8.260   2.997   9.868  0.3301 -0.8319 -0.3705
    5MOL0     C  582   7.862   3.081   9.613 -0.1762 -0.0323  1.3210
    5MOL0     C  583   7.794   3.097   9.490  0.7129  1.1623  0.6987
    5MOL0     C  584   7.663   3.146   9.490  1.1961 -0.3517 -0.1948
    5MOL0     C  585   7.610   3.196   9.602  0.5426 -0.7009 -0.6877
    5MOL0     O  586   7.482   3.244   9.618  0.0347 -0.4221  0.3429
    5MOL0     C  587   7.387   3.201   9.521 -0.7020 -0.6586  0.5942
    5MOL0     C  588   7.255   3.196   9.601  0.0569 -0.7023 -0.7686
    5MOL0     C  589   7.129   3.218   9.509  1.2362  0.3209  0.2568
    5MOL0     C  590   7.001   3.201   9.594 -0.1164 -0.2229 -0.5891
    5MOL0     C  591   6.992   3.296   9.704  0.1177 -0.7766 -0.0325
    5MOL0     C  592   6.981   3.381   9.794  0.0299  0.0354  1.1376
    5MOL0     C  593   7.675   3.192   9.720 -0.2294 -0.7536 -0.3727
    5MOL0     C  594   7.808   3.139   9.730  0.5182  0.1595  0.0813
    5MOL0     H  595   8.267   3.033   9.529 -1.1386 -4.8431 -0.3654
    5MOL0     H  596   8.485   2.990   9.557  1.5326  1.0993  1.3641
    5MOL0     H  597   8.630   2.849   9.968  0.2219  0.7326 -0.4442
    5MOL0     H  598   8.629   3.028   9.982 -4.2578 -1.9770  3.0863
    5MOL0     H  599   8.842   3.019   9.865  3.6595 -2.1699 -2.5455
    5MOL0     H  600   8.839   2.838   9.867  3.2702  0.9668 -0.4338
    5MOL0     H  601   8.860   3.026  10.104 -0.7968  0.0673 -1.1758
    5MOL0     H  602   8.993   2.935  10.027 -0.2029 -0.6242  0.7713
    5MOL0     H  603   8.788   2.850  10.215  0.2327 -0.1762 -0.2294
    5MOL0     H  604   8.821   2.730  10.095 -1.3969  0.9331  0.3742
    5MOL0     H  605   9.012   2.836  10.308  5.6426 -2.1734  0.0962
    5MOL0     H  606   9.080   2.751  10.166  0.6874 -0.5989  0.0715
    5MOL0     H  607   9.042   2.614  10.375  0.6283 -2.2683 -1.1866
    5MOL0     H  608   8.977   2.555  10.220 -0.7058 -0.4140  1.3389
    5MOL0     H  609   8.833   2.590  10.484  0.1957 -0.7606  0.7230
    5MOL0     H  610   8.773   2.704  10.372 -0.6832 -0.7078  0.7254
    5MOL0     H  611   8.680   2.458  10.413  2.3322  0.8943  1.3230
    5MOL0     H  612   8.820   2.392  10.322  1.4153  0.4655  0.7749
    5MOL0     H  613   8.839   2.452  10.073  1.6506  2.1399  4.0588
    5MOL0     H  614   8.615   2.372   9.832 -0.1946 -0.4584 -0.2498
    5MOL0     H  615   8.739   2.511   9.804 -0.2662  2.0019 -0.0759
    5MOL0     H  616   8.530   2.662   9.815 -2.0100 -0.2424 -0.0993
    5MOL0     H  617   8.442   2.508   9.806 -0.2680  0.4780  0.3380
    5MOL0     H  618   8.617   2.641   9.591  0.8551 -0.9334  0.2248
    5MOL0     H  619   8.580   2.465   9.592  0.3074 -0.2627  1.7325
    5MOL0     H  620   8.433   2.609   9.454  4.1112 -1.6476  0.1870
    5MOL0     H  621   8.371   2.692   9.597 -1.3248 -0.4695 -2.3797
    5MOL0     H  622   8.134   2.307   9.597  0.6126  0.5396 -2.0526
    5MOL0     H  623   7.887   2.346   9.635  1.0886 -1.0716  1.6466
    5MOL0     H  624   7.697   2.784   9.899 -0.8454 -0.6876 -0.5409
    5MOL0     H  625   7.499   2.820   9.999 -0.2072 -0.0280  0.1628
    5MOL0     H  626   7.127   2.753   9.771 -0.7313  0.5943 -0.5661
    5MOL0     H  627   7.127   2.924   9.746 -0.6890 -1.4344 -1.6576
    5MOL0     H  628   7.025   2.831  10.008  0.8629 -1.3506 -1.1641
    5MOL0     H  629   6.917   2.858   9.866  0.0892  0.9443 -0.3334
    5MOL0     H  630   6.972   3.076   9.842  2.8349  0.9431 -1.6169
    5MOL0     H  631   7.090   3.063   9.977 -0.5825  1.5590 -1.3584
    5MOL0     H  632   6.931   3.041  10.140 -3.3328 -0.0623  1.5165
    5MOL0     H  633   6.890   3.185  10.074  0.6405  0.6026 -2.9998
    5MOL0     H  634   6.684   3.046  10.128  1.9106  0.9348  1.0100
    5MOL0     H  635   6.739   2.916  10.031  0.5075 -0.5960  0.7005
    5MOL0     H  636   6.569   3.049   9.889 -1.2316  1.6466  3.0109
    5MOL0     H  637   6.729   3.086   9.824  0.4748 -3.2854  0.7784
    5MOL0     H  638   6.741   3.295   9.964 -0.1639  1.9575 -0.7429
    5MOL0     H  639   6.616   3.305   9.847 -0.2433 -4.1126 -1.9925
    5MOL0     H  640   6.568   3.383  10.065  0.4598 -0.8840  3.4496
    5MOL0     H  641   6.556   3.233  10.148 -0.2487  1.8972  0.5709
    5MOL0     H  642   7.285   2.804   9.614  1.5400  0.7652 -1.2682
    5MOL0     H  643   7.496   2.751   9.511  1.8965  0.0871  0.8658
    5MOL0     H  644   7.936   2.771   9.562 -2.0659 -0.7864 -0.1423
    5MOL0     H  645   8.192   2.721   9.535  1.8629 -0.7999  0.1845
    5MOL0     H  646   8.432   2.952   9.987 -1.5993  3.1206 -0.0474
    5MOL0     H  647   8.195   2.974   9.952 -0.4600  1.2763 -0.3469
    5MOL0     H  648   7.826   3.064   9.391 -3.6109 -1.2167 -0.1379
    5MOL0     H  649   7.623   3.157   9.390  3.0485  1.2707 -0.8120
    5MOL0     H  650   7.410   3.102   9.479  1.5496  0.3191 -0.6936
    5MOL0     H  651   7.389   3.273   9.438  2.1304 -1.4204 -0.1096
    5MOL0     H  652   7.253   3.100   9.653  2.3159  0.4552  1.6630
    5MOL0     H  653   7.262   3.269   9.681  3.9551 -1.1163 -0.5637
    5MOL0     H  654   7.121   3.141   9.431 -1.1139 -0.0306  0.7800
    5MOL0     H  655   7.128   3.314   9.457 -0.6119  0.1469 -0.1178
    5MOL0     H  656   6.908   3.199   9.536 -0.1363 -0.2240 -0.5576
    5MOL0     H  657   6.999   3.103   9.643 -0.0287 -0.1734 -0.4852
    5MOL0     H  658   6.967   3.438   9.883 -0.0346  1.4540  0.2493
    5MOL0     H  659   7.632   3.226   9.814  0.5531  0.4921 -0.4351
    5MOL0     H  660   7.863   3.148   9.824  0.0127  1.0630  0.3008
    6MOL0     O  661   7.860   3.868   3.333 -0.1395 -0.3304  0.9369
    6MOL0     C  662   7.899   3.972   3.385 -0.2536  0.4641 -0.2507
    6MOL0     O  663   7.821   4.043   3.483 -0.1253  0.7597  0.0404
    6MOL0     C  664   7.698   3.990   3.508 -0.1343  0.7232 -0.9189
    6MOL0     C  665   7.671   3.942   3.636  0.0579  0.3335  0.6719
    6MOL0     C  666   7.541   3.903   3.672 -0.3450 -0.0041 -0.0098
    6MOL0     C  667   7.438   3.914   3.579 -0.6918  0.0686  1.0063
    6MOL0     O  668   7.312   3.876   3.619 -0.1758 -1.1715 -0.3498
    6MOL0     C  669   7.268   3.910   3.752 -0.2377 -0.7493 -0.1352
    6MOL0     C  670   7.124   3.953   3.758  0.3707  0.4604  0.5315
    6MOL0     C  671   7.072   3.959   3.900 -0.1230 -0.5321 -0.9789
    6MOL0     C  672   6.928   4.001   3.914  0.5842 -0.7443 -0.8855
    6MOL0     C  673   6.854   3.957   4.043 -0.9613 -0.1117 -0.2941
    6MOL0     C  674   6.702   3.973   4.016 -0.0207 -0.9401 -0.3398
    6MOL0     C  675   6.600   3.936   4.131  0.6650 -0.5154  0.0191
    6MOL0     C  676   6.464   4.011   4.113  0.2559 -0.1135  0.5918
    6MOL0     N  677   6.472   4.158   4.121  0.0348  0.0861  0.1453
    6MOL0     C  678   6.558   4.231   4.198 -0.4817  0.6684  0.0638
    6MOL0     C  679   6.487   4.346   4.215  0.3393 -0.1972 -0.0855
    6MOL0     C  680   6.531   4.466   4.301 -0.5945 -0.1940 -0.3874
    6MOL0     C  681   6.406   4.518   4.371 -0.0936 -0.0618  0.0584
    6MOL0     C  682   6.444   4.613   4.489  0.2721 -1.0051 -0.0381
    6MOL0     C  683   6.323   4.691   4.551  0.0043  0.1178 -0.4259
    6MOL0     O  684   6.227   4.594   4.592  0.2069  0.0290 -0.3757
    6MOL0     C  685   6.102   4.628   4.639 -0.2376 -0.4962  0.1236
    6MOL0     C  686   6.049   4.753   4.676 -0.8920  0.3572 -0.0444
    6MOL0     C  687   5.920   4.764   4.724 -0.4403 -0.7506 -0.6863
    6MOL0     C  688   5.838   4.657   4.726  0.4244  0.6523  0.2088
    6MOL0     C  689   5.688   4.672   4.750  0.4225  0.0605  0.4649
    6MOL0     O  690   5.611   4.561   4.720  0.1410  0.1213  0.1481
    6MOL0     C  691   5.511   4.532   4.812  0.4165  0.2835  0.2523
    6MOL0     C  692   5.378   4.542   4.759  1.1930 -0.5649 -0.0052
    6MOL0     C  693   5.264   4.515   4.834 -0.1757 -0.0317 -0.3838
    6MOL0     C  694   5.278   4.484   4.975 -0.3548 -0.5274  0.9000
    6MOL0     O  695   5.164   4.458   5.043 -0.2795  0.0695 -0.6790
    6MOL0     C  696   5.155   4.482   5.183 -0.0578  0.4465 -0.9082
    6MOL0     C  697   5.054   4.397   5.249  0.4412  0.2337  0.1173
    6MOL0     C  698   5.049   4.419   5.403  0.8361  0.2943  0.8647
    6MOL0     C  699   4.939   4.325   5.458 -0.6449 -0.0037 -0.6201
    6MOL0     C  700   4.937   4.329   5.618 -0.6040 -0.2009 -0.0346
    6MOL0     C  701   4.881   4.457   5.673 -0.2471 -0.6885  0.5552
    6MOL0     C  702   4.922   4.472   5.824  0.2171  0.2594 -0.0666
    6MOL0     C  703   4.907   4.617   5.870  0.1518  0.7440 -0.1507
    6MOL0    Cl  704   4.984   4.632   6.034  0.4769  0.2643 -0.3482
    6MOL0     C  705   5.409   4.462   5.018  0.0081  0.5088  0.1000
    6MOL0     C  706   5.528   4.485   4.943  0.0801 -0.0228 -0.5269
    6MOL0     O  707   5.653   4.767   4.815 -0.7715 -0.5508  0.0527
    6MOL0     C  708   5.893   4.528   4.703  0.6702 -1.0030  0.5032
    6MOL0     C  709   6.025   4.515   4.662  0.0400  0.2552 -0.7537
    6MOL0     N  710   6.357   4.342   4.150 -1.1367  0.1105 -0.1817
    6MOL0     N  711   6.365   4.228   4.093  0.6884 -0.0019  0.1567
    6MOL0     C  712   7.466   3.953   3.445  0.2558  0.0902  0.2530
    6MOL0     C  713   7.596   3.980   3.406  0.4852  0.5292 -0.4545
    6MOL0     C  714   8.038   4.021   3.351 -0.4385 -0.2910  0.3184
    6MOL0     C  715   8.125   3.931   3.280  0.0031 -0.0037 -0.7445
    6MOL0     C  716   8.254   3.964   3.248  0.5751 -0.1897 -0.5438
    6MOL0     C  717   8.303   4.096   3.278  0.2122  0.2043  0.5010
    6MOL0     O  718   8.422   4.153   3.245 -0.1965  0.3399 -0.2561
    6MOL0     C  719   8.526   4.084   3.159  0.7112 -0.2362 -0.5515
    6MOL0     C  720   8.513   4.152   3.028 -0.3655 -0.0158  0.7227
    6MOL0     C  721   8.633   4.100   2.947 -0.4376 -0.2273  0.1564
    6MOL0     C  722   8.621   4.150   2.796  1.0867  0.2284 -0.2154
    6MOL0     C  723   8.643   4.289   2.769  0.6296 -0.9194 -0.3139
    6MOL0     C  724   8.654   4.408   2.767  0.4996  0.2837 -0.2717
    6MOL0     C  725   8.226   4.183   3.355  0.1388  0.7809  0.2664
    6MOL0     C  726   8.096   4.143   3.390  0.6776  0.8608 -0.0502
    6MOL0     H  727   7.750   3.934   3.711 -0.4670  0.0954  1.2044
    6MOL0     H  728   7.526   3.865   3.772 -2.7519 -1.1434 -0.7207
    6MOL0     H  729   7.332   3.988   3.794 -1.5199  1.4587 -1.9801
    6MOL0     H  730   7.285   3.819   3.809 -0.1427  0.0756  1.1924
    6MOL0     H  731   7.055   3.890   3.702  2.1952 -0.0300 -1.2871
    6MOL0     H  732   7.114   4.046   3.701  0.3684 -0.6385 -1.3518
    6MOL0     H  733   7.127   4.027   3.966 -0.6369 -1.7775  0.8331
    6MOL0     H  734   7.088   3.857   3.936 -0.2548 -0.7334 -1.4791
    6MOL0     H  735   6.931   4.110   3.912 -2.7725 -0.4820  1.0103
    6MOL0     H  736   6.876   3.965   3.825 -1.3220 -0.1330 -0.0525
    6MOL0     H  737   6.882   4.014   4.132  0.6394 -0.4951 -0.5279
    6MOL0     H  738   6.870   3.851   4.066 -2.0960  0.3847  3.4704
    6MOL0     H  739   6.676   3.926   3.920  0.5065 -0.3240 -0.7950
    6MOL0     H  740   6.681   4.078   3.995 -1.3591 -1.1854 -0.2981
    6MOL0     H  741   6.596   3.826   4.131 -0.3165 -0.4909  0.8358
    6MOL0     H  742   6.646   3.961   4.227  0.7038  3.2722 -0.8438
    6MOL0     H  743   6.385   3.962   4.171  0.4784 -1.4052 -0.1716
    6MOL0     H  744   6.434   3.993   4.009  1.4934  1.1676 -0.0141
    6MOL0     H  745   6.642   4.194   4.256  1.0347 -0.1557 -2.4970
    6MOL0     H  746   6.586   4.547   4.253 -0.0391  0.7203  1.6875
    6MOL0     H  747   6.596   4.429   4.381 -0.4112 -0.0837 -0.4851
    6MOL0     H  748   6.327   4.448   4.399  0.1754 -0.1777  0.5338
    6MOL0     H  749   6.363   4.576   4.289  1.9425  0.1189 -0.9478
    6MOL0     H  750   6.503   4.566   4.568  0.1419  0.4892  0.9800
    6MOL0     H  751   6.510   4.690   4.447 -1.9249 -0.0924 -2.0454
    6MOL0     H  752   6.285   4.755   4.472  0.0551  1.5363  0.6547
    6MOL0     H  753   6.350   4.751   4.639  0.2620  0.9372 -1.0544
    6MOL0     H  754   6.119   4.834   4.660  0.0882 -0.3972  0.2735
    6MOL0     H  755   5.879   4.858   4.762 -0.7019 -0.2662 -2.0909
    6MOL0     H  756   5.352   4.577   4.660 -4.0733 -1.0625  0.9016
    6MOL0     H  757   5.162   4.524   4.799 -0.2030  2.8658  0.1468
    6MOL0     H  758   5.128   4.585   5.204  0.8820  0.1741  2.0932
    6MOL0     H  759   5.251   4.462   5.231  0.3839 -3.2297 -2.9012
    6MOL0     H  760   5.064   4.292   5.218 -0.5285 -0.1699  1.1289
    6MOL0     H  761   4.961   4.429   5.201 -0.5404 -0.9334  1.1980
    6MOL0     H  762   5.043   4.528   5.419 -0.1371  0.2977  0.5192
    6MOL0     H  763   5.146   4.390   5.445  1.3575  1.7802  0.7747
    6MOL0     H  764   4.845   4.353   5.410 -0.8333 -1.4975 -1.1649
    6MOL0     H  765   4.954   4.222   5.425 -0.2981  0.0758 -0.7191
    6MOL0     H  766   5.042   4.330   5.646  0.0915  0.2570 -2.4357
    6MOL0     H  767   4.887   4.239   5.656  1.9678 -2.5070 -1.7566
    6MOL0     H  768   4.772   4.451   5.678 -0.1285 -2.6122  2.3899
    6MOL0     H  769   4.912   4.543   5.613 -3.9934 -0.0668 -0.7554
    6MOL0     H  770   4.872   4.402   5.891  2.9961 -1.5882  0.2675
    6MOL0     H  771   5.028   4.446   5.834 -0.0502 -0.0048  2.7541
    6MOL0     H  772   4.802   4.648   5.870 -0.2617 -0.5810 -0.7827
    6MOL0     H  773   4.964   4.680   5.802  1.9284  1.5104  1.9342
    6MOL0     H  774   5.421   4.404   5.109 -1.9934  1.4713  1.0647
    6MOL0     H  775   5.629   4.464   4.975  0.0906  1.8027  0.7889
    6MOL0     H  776   5.813   4.457   4.683 -2.5192  2.0774  1.2601
    6MOL0     H  777   6.054   4.417   4.625  0.1772  0.0261 -0.0574
    6MOL0     H  778   7.383   3.960   3.375  0.6724 -0.8555 -0.3512
    6MOL0     H  779   7.607   4.002   3.300  2.8069 -1.1841 -0.6612
    6MOL0     H  780   8.072   3.837   3.268  1.4855 -1.0883  0.7332
    6MOL0     H  781   8.326   3.893   3.208  2.0565 -1.1345  3.3161
    6MOL0     H  782   8.500   3.978   3.150  0.3855 -0.3656  1.3412
    6MOL0     H  783   8.625   4.092   3.207  1.6113  0.0644 -2.3764
    6MOL0     H  784   8.415   4.122   2.990  0.4637 -0.4815 -1.1667
    6MOL0     H  785   8.505   4.260   3.042 -0.8884 -0.1397  1.4323
    6MOL0     H  786   8.637   3.991   2.954 -1.4363 -0.2875 -0.0733
    6MOL0     H  787   8.724   4.152   2.979 -0.7678 -0.0116  0.7563
    6MOL0     H  788   8.703   4.095   2.751  0.8903 -0.7555  0.5867
    6MOL0     H  789   8.527   4.108   2.757  2.2176 -1.7075 -0.9799
    6MOL0     H  790   8.674   4.513   2.762  3.3491 -0.0583  1.6016
    6MOL0     H  791   8.256   4.284   3.380 -1.5018  1.3547  0.0466
    6MOL0     H  792   8.025   4.203   3.445 -0.4364 -1.2284  0.9411
    7MOL0     O  793   8.168   3.781   9.904  0.1440 -0.0209 -0.2448
    7MOL0     C  794   8.115   3.769  10.017  0.5080  0.1596  0.6855
    7MOL0     O  795   7.979   3.763  10.047  0.1277 -0.1772  0.0749
    7MOL0     C  796   7.888   3.762   9.944 -0.2988  0.1644 -0.5743
    7MOL0     C  797   7.884   3.857   9.838  0.1446  0.5212 -0.2457
    7MOL0     C  798   7.775   3.849   9.741 -0.6643 -0.1940 -0.2435
    7MOL0     C  799   7.677   3.747   9.749  0.3074 -0.2366  0.2982
    7MOL0     O  800   7.601   3.731   9.638  1.3294  0.1489 -0.1061
    7MOL0     C  801   7.488   3.648   9.648  0.1204  0.3106  0.2239
    7MOL0     C  802   7.398   3.675   9.529  1.4136  0.2154  0.6146
    7MOL0     C  803   7.257   3.618   9.552  0.1236  0.3045 -0.0329
    7MOL0     C  804   7.154   3.684   9.464 -0.8583 -0.2795 -0.9443
    7MOL0     C  805   7.012   3.624   9.472 -0.2713  0.2467 -0.6295
    7MOL0     C  806   6.972   3.547   9.351  0.9693  0.1990  0.2135
    7MOL0     C  807   6.834   3.480   9.371 -1.0325  0.1015  0.2577
    7MOL0     C  808   6.835   3.360   9.280 -0.4164 -0.1616  0.0177
    7MOL0     N  809   6.735   3.258   9.308 -0.0255 -0.4329 -0.5746
    7MOL0     C  810   6.614   3.285   9.363  0.1471  0.6215 -1.5423
    7MOL0     C  811   6.556   3.165   9.382  0.0227  0.1255  0.3292
    7MOL0     C  812   6.429   3.135   9.446 -0.8207  1.1995 -0.2588
    7MOL0     C  813   6.321   3.227   9.382  0.4793 -0.1995  0.0562
    7MOL0     C  814   6.180   3.185   9.413 -0.6258 -0.3431 -0.1486
    7MOL0     C  815   6.131   3.228   9.549 -1.0564 -0.7006  0.3198
    7MOL0     O  816   6.022   3.141   9.564  0.2137  0.2609  0.1458
    7MOL0     C  817   6.037   3.023   9.633 -0.3326 -1.1934  0.4818
    7MOL0     C  818   6.168   2.966   9.663  0.7157 -1.3880  0.0587
    7MOL0     C  819   6.174   2.836   9.720 -0.3864 -0.0042 -0.6238
    7MOL0     C  820   6.053   2.761   9.751 -0.7238  0.5335  0.4675
    7MOL0     C  821   6.068   2.618   9.803  0.1860 -0.2747  0.4321
    7MOL0     O  822   5.955   2.542   9.815 -0.1914 -0.3678  0.2592
    7MOL0     C  823   5.963   2.421   9.894  0.3440 -1.0083  0.5983
    7MOL0     C  824   6.017   2.423  10.018  0.1822 -0.2130 -1.0520
    7MOL0     C  825   6.021   2.298  10.092  0.4929 -0.8925  0.3258
    7MOL0     C  826   5.975   2.183  10.028 -0.2107 -0.4650  0.0153
    7MOL0     O  827   5.973   2.074  10.106 -0.4105  0.1788 -0.3260
    7MOL0     C  828   6.036   1.952  10.047 -0.7170 -1.2262 -0.1799
    7MOL0     C  829   6.108   1.877  10.159  0.4065  0.0772  0.3375
    7MOL0     C  830   6.210   1.974  10.232 -0.1546  0.5807 -0.3811
    7MOL0     C  831   6.253   1.904  10.360  0.2808 -0.1031  0.1028
    7MOL0     C  832   6.358   1.989  10.433 -0.6383  0.3146  0.4086
    7MOL0     C  833   6.504   1.989  10.367 -0.0823  0.3572  0.3886
    7MOL0     C  834   6.578   1.893  10.469 -0.2451 -0.2552  0.7324
    7MOL0     C  835   6.703   1.823  10.422  0.0041 -0.1196  0.9992
    7MOL0    Cl  836   6.822   1.943  10.421  0.1871 -0.1877  0.1022
    7MOL0     C  837   5.939   2.185   9.897 -0.2923  0.2933  1.1324
    7MOL0     C  838   5.946   2.297   9.825 -0.0407 -0.9491 -0.5212
    7MOL0     O  839   6.184   2.576   9.818  0.7960 -0.1634 -0.3135
    7MOL0     C  840   5.930   2.827   9.726 -0.0470  0.6006 -0.0439
    7MOL0     C  841   5.923   2.951   9.663  0.2573  0.2785 -0.1479
    7MOL0     N  842   6.632   3.068   9.321  0.6130 -0.0643  0.9226
    7MOL0     N  843   6.736   3.127   9.273  0.1929  0.9365  0.3945
    7MOL0     C  844   7.680   3.652   9.857 -1.1048 -0.0719 -0.6818
    7MOL0     C  845   7.790   3.661   9.946  0.5945 -0.8492 -0.9488
    7MOL0     C  846   8.203   3.758  10.134 -0.0517  0.2689 -0.3456
    7MOL0     C  847   8.145   3.762  10.262  0.7926 -0.0065  0.4902
    7MOL0     C  848   8.226   3.763  10.377 -0.3641 -0.0424  0.1124
    7MOL0     C  849   8.367   3.768  10.367 -1.1290  0.5558  0.4700
    7MOL0     O  850   8.458   3.764  10.474 -0.0547 -0.7368 -0.3970
    7MOL0     C  851   8.402   3.803  10.602  0.4045 -0.1899  0.2108
    7MOL0     C  852   8.497   3.800  10.717  0.0796  0.5283 -0.7338
    7MOL0     C  853   8.612   3.903  10.709 -0.1339 -0.3247 -0.6149
    7MOL0     C  854   8.679   3.943  10.847  0.7412  0.3819 -0.7409
    7MOL0     C  855   8.776   3.847  10.901  0.4150  0.1824  0.3663
    7MOL0     C  856   8.850   3.768  10.957  0.1644 -0.3357  0.0931
    7MOL0     C  857   8.420   3.756  10.236 -0.1500  0.5545  0.0225
    7MOL0     C  858   8.341   3.756  10.118  0.6428  0.5649 -0.6097
    7MOL0     H  859   7.953   3.940   9.839  2.4249 -1.2787 -0.0576
    7MOL0     H  860   7.761   3.925   9.665 -2.4226  0.0762  0.3096
    7MOL0     H  861   7.436   3.677   9.741  3.8084  0.9456  2.2722
    7MOL0     H  862   7.517   3.544   9.662  0.3555 -0.0046 -2.2084
    7MOL0     H  863   7.441   3.634   9.438 -0.9126 -2.8247  0.7354
    7MOL0     H  864   7.391   3.783   9.514 -3.0223  0.0857  0.4852
    7MOL0     H  865   7.223   3.633   9.655  1.4590  5.3311 -0.0531
    7MOL0     H  866   7.252   3.512   9.527  3.1273 -0.9219  3.6039
    7MOL0     H  867   7.157   3.791   9.488 -0.9609  0.8777 -5.2916
    7MOL0     H  868   7.178   3.696   9.358  1.3173 -0.2257 -0.4896
    7MOL0     H  869   6.945   3.709   9.489  1.1241  0.8654  2.3617
    7MOL0     H  870   7.007   3.569   9.566  0.7311 -0.1648 -0.7996
    7MOL0     H  871   7.052   3.474   9.334  0.4701 -0.4244  0.4865
    7MOL0     H  872   6.964   3.607   9.260  2.3370  0.0261 -0.0472
    7MOL0     H  873   6.822   3.453   9.476  1.0747 -1.4007  0.1806
    7MOL0     H  874   6.751   3.549   9.352  1.4295  2.6830 -2.0045
    7MOL0     H  875   6.932   3.310   9.274 -0.7940 -0.8663 -0.2671
    7MOL0     H  876   6.818   3.388   9.175  0.3475 -0.3329 -0.1608
    7MOL0     H  877   6.568   3.379   9.390 -3.4697 -0.4859 -3.0880
    7MOL0     H  878   6.451   3.155   9.551 -0.5876 -0.0143 -0.0612
    7MOL0     H  879   6.402   3.030   9.436 -1.1656  1.1106  1.3621
    7MOL0     H  880   6.336   3.246   9.275  0.1412 -1.0966 -0.1620
    7MOL0     H  881   6.328   3.326   9.427 -0.4844  0.9228 -2.0613
    7MOL0     H  882   6.107   3.224   9.341 -2.4876  0.5011  2.0898
    7MOL0     H  883   6.165   3.077   9.417 -1.0593 -0.2329  2.2515
    7MOL0     H  884   6.095   3.331   9.548  0.3952 -0.1083 -2.6934
    7MOL0     H  885   6.205   3.214   9.628 -0.2260 -2.1299 -0.6549
    7MOL0     H  886   6.257   3.018   9.630 -1.5687  0.8094 -3.1918
    7MOL0     H  887   6.269   2.787   9.738  1.0906  2.5998 -0.8405
    7MOL0     H  888   6.046   2.518  10.061  2.1151 -0.8267 -0.9419
    7MOL0     H  889   6.056   2.298  10.195  3.2291 -1.7716 -0.5229
    7MOL0     H  890   6.111   1.988   9.976 -2.7630  2.5780 -0.6475
    7MOL0     H  891   5.957   1.900   9.992 -0.5835 -0.1338 -1.4404
    7MOL0     H  892   6.154   1.786  10.119 -0.4095  0.1978 -0.9249
    7MOL0     H  893   6.037   1.839  10.234  1.8839  0.6717  2.1219
    7MOL0     H  894   6.158   2.068  10.254  0.0423  0.4369  0.7331
    7MOL0     H  895   6.297   1.986  10.168 -0.0610 -0.0325 -0.3784
    7MOL0     H  896   6.165   1.873  10.417 -0.4663  1.2790 -0.2821
    7MOL0     H  897   6.312   1.813  10.341  3.4556  1.7677  0.2529
    7MOL0     H  898   6.356   1.959  10.538 -4.0408  0.1133  0.4017
    7MOL0     H  899   6.322   2.092  10.443  1.4910  1.1057  0.4186
    7MOL0     H  900   6.547   2.089  10.375  0.8694 -0.1542  2.3852
    7MOL0     H  901   6.506   1.959  10.261  3.4389  0.9129  0.1817
    7MOL0     H  902   6.592   1.931  10.570 -0.8260  1.0243  0.3494
    7MOL0     H  903   6.511   1.808  10.487  1.2752 -1.7626 -0.3014
    7MOL0     H  904   6.690   1.771  10.327  2.1183  2.2342 -0.7143
    7MOL0     H  905   6.738   1.751  10.496  0.1643 -0.9096  0.1695
    7MOL0     H  906   5.918   2.085   9.861 -0.0888  0.4951  0.4394
    7MOL0     H  907   5.913   2.289   9.722 -1.4297 -1.1520 -0.0872
    7MOL0     H  908   5.836   2.773   9.735  1.7876 -2.6711  1.2213
    7MOL0     H  909   5.831   2.996   9.627 -0.9846 -0.6117  1.7672
    7MOL0     H  910   7.616   3.565   9.862  0.8206 -1.5661 -0.6808
    7MOL0     H  911   7.796   3.593  10.031  2.1395  0.6600  0.2289
    7MOL0     H  912   8.037   3.764  10.270  0.8251  0.5825  0.8509
    7MOL0     H  913   8.178   3.778  10.473  3.3271 -3.5491  2.8784
    7MOL0     H  914   8.321   3.736  10.632 -0.2065  0.9134  1.0753
    7MOL0     H  915   8.361   3.904  10.591  1.3100 -0.0775 -4.8912
    7MOL0     H  916   8.429   3.814  10.802 -4.2706 -3.7400 -2.9417
    7MOL0     H  917   8.541   3.701  10.734 -0.9716  0.3853  1.7230
    7MOL0     H  918   8.582   4.002  10.673  1.1256  0.1564 -0.3844
    7MOL0     H  919   8.681   3.867  10.633 -0.5429 -0.1851 -1.0552
    7MOL0     H  920   8.722   4.043  10.843 -0.7751  1.2180  1.7662
    7MOL0     H  921   8.601   3.950  10.924 -0.2313  0.3570 -1.6938
    7MOL0     H  922   8.913   3.696  11.005  1.0346  1.0760  1.1320
    7MOL0     H  923   8.528   3.751  10.233 -0.1301  0.6772 -3.1952
    7MOL0     H  924   8.390   3.756  10.020  0.8090  2.9117 -0.5976
    8MOL0     O  925   9.850   0.031   1.539  0.2411 -0.0620  0.4225
    8MOL0     C  926   9.887   0.013   1.654 -0.6044  0.4932 -0.0745
    8MOL0     O  927   9.813  -0.033   1.759 -0.5990  0.3936 -0.2786
    8MOL0     C  928   9.680  -0.071   1.739 -1.2135 -0.8338  0.1645
    8MOL0     C  929   9.582  -0.011   1.826  0.9547  0.6920 -0.0829
    8MOL0     C  930   9.445  -0.038   1.799  0.4060  0.4995  0.0540
    8MOL0     C  931   9.403  -0.122   1.700  0.0842 -0.2456 -0.6481
    8MOL0     O  932   9.278  -0.142   1.656  0.2593 -1.0588 -0.1149
    8MOL0     C  933   9.178  -0.111   1.758  0.4326  0.9101 -0.2433
    8MOL0     C  934   9.041  -0.142   1.713  0.4724  0.1915 -0.6872
    8MOL0     C  935   9.008  -0.291   1.711  0.1864 -0.4465 -1.2926
    8MOL0     C  936   9.027  -0.355   1.844 -0.4213  0.8890 -0.6222
    8MOL0     C  937   8.935  -0.477   1.868  0.1130  0.0660  0.4737
    8MOL0     C  938   8.785  -0.452   1.850  0.8050 -0.4878 -0.8245
    8MOL0     C  939   8.703  -0.348   1.937  0.4946  0.4369  0.2476
    8MOL0     C  940   8.732  -0.348   2.090 -0.5637 -0.0500  0.3559
    8MOL0     N  941   8.615  -0.298   2.163 -0.1361 -0.0017  0.8355
    8MOL0     C  942   8.547  -0.189   2.125  0.0097 -0.2010 -0.0724
    8MOL0     C  943   8.437  -0.174   2.208  0.2740  0.2371  0.1588
    8MOL0     C  944   8.346  -0.058   2.195  0.7692 -0.6610  0.1141
    8MOL0     C  945   8.191  -0.082   2.214 -0.9629  0.9797  0.4725
    8MOL0     C  946   8.119  -0.179   2.114 -0.6070 -0.4778 -0.0479
    8MOL0     C  947   7.973  -0.159   2.138 -0.4638  0.2031  0.3631
    8MOL0     O  948   7.909  -0.239   2.033 -0.2994 -0.3000 -0.1187
    8MOL0     C  949   7.776  -0.261   2.045  0.2890 -0.0849 -0.7956
    8MOL0     C  950   7.690  -0.214   2.152  0.5214 -0.5280 -0.0542
    8MOL0     C  951   7.548  -0.243   2.146 -0.1305 -0.3605 -0.3051
    8MOL0     C  952   7.497  -0.321   2.041  0.5370  0.2111  0.4631
    8MOL0     C  953   7.352  -0.347   2.029  0.1444  0.3337 -1.0140
    8MOL0     O  954   7.271  -0.280   2.120  0.2205 -0.2141 -0.2480
    8MOL0     C  955   7.142  -0.318   2.128 -0.0294 -0.4326 -0.8950
    8MOL0     C  956   7.041  -0.219   2.121 -0.0885  0.0738  0.9702
    8MOL0     C  957   6.907  -0.255   2.118  0.5447  0.6513 -0.6801
    8MOL0     C  958   6.866  -0.383   2.146  0.5917 -0.1656 -0.4552
    8MOL0     O  959   6.732  -0.401   2.159 -0.3831  0.6141 -0.4045
    8MOL0     C  960   6.689  -0.537   2.143 -0.1077 -0.3550 -0.1667
    8MOL0     C  961   6.535  -0.514   2.142 -0.5154 -0.4668 -0.9815
    8MOL0     C  962   6.482  -0.405   2.248 -0.1114  0.5899 -0.4356
    8MOL0     C  963   6.328  -0.415   2.238  0.2860  0.1378  0.2295
    8MOL0     C  964   6.262  -0.460   2.370  0.3232  0.2720  0.3169
    8MOL0     C  965   6.111  -0.426   2.372 -0.2964 -0.9556 -0.7802
    8MOL0     C  966   6.065  -0.433   2.523 -0.0099  0.3864  0.2638
    8MOL0     C  967   6.020  -0.588   2.553  0.5916 -0.2295  0.1564
    8MOL0    Cl  968   5.908  -0.571   2.688 -0.4173 -0.3853 -0.3858
    8MOL0     C  969   6.958  -0.483   2.172 -0.6802  0.1493  0.2768
    8MOL0     C  970   7.098  -0.452   2.162 -0.1761 -0.6150 -0.1876
    8MOL0     O  971   7.314  -0.423   1.943 -0.0248  0.2808  0.0293
    8MOL0     C  972   7.587  -0.368   1.939  0.1552 -2.2658 -0.1209
    8MOL0     C  973   7.724  -0.340   1.937 -0.3417 -1.5045 -0.3079
    8MOL0     N  974   8.450  -0.282   2.299 -0.1182 -0.6167  0.5426
    8MOL0     N  975   8.556  -0.356   2.270 -0.7913 -0.6492 -0.6453
    8MOL0     C  976   9.503  -0.188   1.630 -0.7199  0.6562  0.6662
    8MOL0     C  977   9.638  -0.163   1.639 -0.2319 -0.5856 -0.3589
    8MOL0     C  978  10.036   0.031   1.681 -0.8429 -0.4834 -0.1922
    8MOL0     C  979  10.131   0.049   1.583 -0.5760  0.2009  0.3671
    8MOL0     C  980  10.260   0.087   1.606  0.2331 -0.3853 -0.8710
    8MOL0     C  981  10.310   0.091   1.734  0.1101  0.7427  0.6820
    8MOL0     O  982  10.442   0.113   1.739 -0.9170  0.1728  0.3037
    8MOL0     C  983  10.485   0.206   1.837  0.4035 -0.4005 -0.8965
    8MOL0     C  984  10.636   0.202   1.878  0.5778 -0.0261  0.1010
    8MOL0     C  985  10.726   0.246   1.763 -0.6993  0.3334  0.8256
    8MOL0     C  986  10.868   0.257   1.804 -0.5960  0.9932 -1.3503
    8MOL0     C  987  10.946   0.318   1.700  0.0739 -1.5734  0.0138
    8MOL0     C  988  11.026   0.352   1.614  1.3048  0.5208 -0.6681
    8MOL0     C  989  10.223   0.061   1.838  0.3150  0.9776 -0.0835
    8MOL0     C  990  10.084   0.038   1.809 -0.2997  0.4061 -0.2963
    8MOL0     H  991   9.607   0.067   1.899  1.8427 -1.4257  2.0098
    8MOL0     H  992   9.380   0.014   1.869 -1.1297  0.8671 -1.5717
    8MOL0     H  993   9.179  -0.004   1.782  0.8670  0.4101  2.2952
    8MOL0     H  994   9.202  -0.167   1.849 -2.2250  1.3122  0.8181
    8MOL0     H  995   9.029  -0.084   1.621 -0.3501  0.0064 -0.7017
    8MOL0     H  996   8.971  -0.096   1.784  0.1778 -0.2238 -0.7029
    8MOL0     H  997   9.071  -0.344   1.639  2.6505 -0.0802  0.4535
    8MOL0     H  998   8.908  -0.290   1.668  0.3446 -1.3821 -1.7271
    8MOL0     H  999   9.127  -0.394   1.860 -0.4243  1.9011  2.7102
    8MOL0     H 1000   9.005  -0.295   1.933 -1.0035 -2.1775  1.4678
    8MOL0     H 1001   8.966  -0.502   1.970  2.7145 -0.6621 -0.3988
    8MOL0     H 1002   8.966  -0.560   1.804 -1.2128  0.5796 -0.9034
    8MOL0     H 1003   8.733  -0.547   1.860 -1.4305  0.8088  0.8584
    8MOL0     H 1004   8.771  -0.419   1.747  0.9967 -0.8992 -0.9831
    8MOL0     H 1005   8.719  -0.247   1.899  3.1623 -0.8849 -2.5991
    8MOL0     H 1006   8.595  -0.367   1.934  0.2411  1.7717  0.5478
    8MOL0     H 1007   8.812  -0.278   2.117 -1.5395  1.1784  0.1566
    8MOL0     H 1008   8.752  -0.450   2.125  1.6156  0.6808  1.4680
    8MOL0     H 1009   8.568  -0.118   2.046  2.4153 -1.5867 -0.7947
    8MOL0     H 1010   8.357  -0.000   2.104  1.5439 -1.8018 -0.5410
    8MOL0     H 1011   8.385   0.011   2.271 -0.9456  1.0660 -0.5099
    8MOL0     H 1012   8.149   0.017   2.198  0.3891  1.8138  1.8556
    8MOL0     H 1013   8.160  -0.096   2.318 -3.3167 -0.6052 -0.3324
    8MOL0     H 1014   8.147  -0.149   2.013 -0.7565 -1.5543 -0.4221
    8MOL0     H 1015   8.146  -0.283   2.130  0.5331 -0.0097  1.3062
    8MOL0     H 1016   7.941  -0.055   2.146 -0.2366  0.3032  0.0179
    8MOL0     H 1017   7.951  -0.213   2.230  0.0245 -0.9998 -0.1976
    8MOL0     H 1018   7.730  -0.154   2.234 -0.8070  1.4065 -0.7316
    8MOL0     H 1019   7.476  -0.201   2.215  0.6076 -0.3883  0.4962
    8MOL0     H 1020   7.073  -0.119   2.094 -1.9399  0.2204 -0.9774
    8MOL0     H 1021   6.825  -0.185   2.102 -0.7167 -0.9589 -1.6283
    8MOL0     H 1022   6.721  -0.606   2.222  1.4520 -1.4738 -1.6930
    8MOL0     H 1023   6.716  -0.574   2.043  0.4049  1.2297 -0.6449
    8MOL0     H 1024   6.489  -0.611   2.163  0.3214 -1.0789 -1.8669
    8MOL0     H 1025   6.494  -0.484   2.045 -2.1984 -1.8827 -0.7524
    8MOL0     H 1026   6.519  -0.305   2.222  1.6680 -0.2500 -1.3176
    8MOL0     H 1027   6.508  -0.436   2.350  0.2382  0.2347 -0.6308
    8MOL0     H 1028   6.288  -0.315   2.217  0.8988  0.1821 -0.7784
    8MOL0     H 1029   6.288  -0.483   2.163 -1.3619  0.4075  0.8130
    8MOL0     H 1030   6.306  -0.415   2.459 -2.6509  1.6687  1.2408
    8MOL0     H 1031   6.267  -0.569   2.380 -2.5599 -0.0042 -0.3427
    8MOL0     H 1032   6.047  -0.496   2.317 -3.2194 -0.6525  1.8721
    8MOL0     H 1033   6.085  -0.329   2.329 -1.7775 -0.3882  1.2191
    8MOL0     H 1034   6.141  -0.400   2.595  1.2805 -0.8554 -0.4697
    8MOL0     H 1035   5.976  -0.373   2.541 -0.2260 -0.1365  1.0232
    8MOL0     H 1036   6.109  -0.643   2.586  0.8906  1.0024  1.5103
    8MOL0     H 1037   5.971  -0.638   2.469 -2.3404  0.4680  1.3153
    8MOL0     H 1038   6.927  -0.584   2.197 -1.2664  0.3546  0.3976
    8MOL0     H 1039   7.167  -0.535   2.171  0.7521  0.3046  1.7979
    8MOL0     H 1040   7.554  -0.427   1.853  3.9932 -1.1728 -2.6139
    8MOL0     H 1041   7.782  -0.368   1.849 -1.2996 -0.9548 -1.1372
    8MOL0     H 1042   9.466  -0.265   1.563 -0.8287 -0.5785  2.0976
    8MOL0     H 1043   9.711  -0.207   1.572  0.6158  0.7118 -0.3269
    8MOL0     H 1044  10.095   0.030   1.482 -1.4408 -1.3744  0.9379
    8MOL0     H 1045  10.328   0.100   1.522 -0.4741 -0.8236 -1.5331
    8MOL0     H 1046  10.432   0.185   1.930  0.2628 -2.0196 -1.2990
    8MOL0     H 1047  10.458   0.307   1.804  1.9970  0.6259  0.7894
    8MOL0     H 1048  10.659   0.262   1.967 -2.0488  2.1687 -0.5698
    8MOL0     H 1049  10.672   0.104   1.911 -1.3988 -0.2739  1.7161
    8MOL0     H 1050  10.698   0.343   1.721 -2.5717 -1.1013 -1.5426
    8MOL0     H 1051  10.716   0.171   1.683  0.4375 -0.9688  1.8650
    8MOL0     H 1052  10.880   0.319   1.893 -1.3983  0.2349 -0.6933
    8MOL0     H 1053  10.914   0.162   1.833  2.0989  2.8289  0.9428
    8MOL0     H 1054  11.073   0.375   1.521  0.2124 -1.6815 -1.8395
    8MOL0     H 1055  10.258   0.078   1.939  1.3881  1.0942 -0.4613
    8MOL0     H 1056  10.017   0.028   1.894  1.0744 -2.3941  0.5729
    9MOL0     O 1057   8.003  10.660   7.450 -0.2187  0.1352  0.1670
    9MOL0     C 1058   8.011  10.720   7.342 -0.4498  0.1562  0.4918
    9MOL0     O 1059   8.121  10.722   7.261  0.6388  0.6103  0.0885
    9MOL0     C 1060   8.219  10.640   7.298 -0.2607 -0.8527 -0.7449
    9MOL0     C 1061   8.286  10.672   7.426  0.0709 -0.0960 -0.0837
    9MOL0     C 1062   8.401  10.594   7.457  0.5505 -0.6218  0.2324
    9MOL0     C 1063   8.446  10.488   7.379  0.5483 -0.3019 -0.2969
    9MOL0     O 1064   8.556  10.415   7.418  0.3709 -0.0489  0.0934
    9MOL0     C 1065   8.563  10.277   7.362  0.1104  0.6028 -0.4442
    9MOL0     C 1066   8.640  10.188   7.463  0.4321 -0.7638  0.5140
    9MOL0     C 1067   8.778  10.255   7.504 -0.7803 -0.4829  0.4555
    9MOL0     C 1068   8.830  10.177   7.629 -1.4511 -0.0635 -0.6989
    9MOL0     C 1069   8.982  10.191   7.676 -1.2021  0.4025 -0.5535
    9MOL0     C 1070   9.007  10.134   7.818 -0.3107 -0.1379  0.4816
    9MOL0     C 1071   9.156  10.118   7.831 -0.8537 -0.5350  0.0192
    9MOL0     C 1072   9.214  10.183   7.954  0.6200  0.1992  0.3089
    9MOL0     N 1073   9.343  10.134   7.996 -0.6266  0.2341  0.6109
    9MOL0     C 1074   9.456  10.201   7.967 -0.1403 -0.2398  0.0156
    9MOL0     C 1075   9.555  10.174   8.057 -0.1056 -0.5990  0.6100
    9MOL0     C 1076   9.701  10.218   8.048 -0.4148  0.4909 -0.7527
    9MOL0     C 1077   9.772  10.144   7.930 -0.0846  0.8430 -0.5689
    9MOL0     C 1078   9.758  10.232   7.811  0.6292  0.0022  0.2236
    9MOL0     C 1079   9.791  10.173   7.677 -0.6149  0.6248  0.2096
    9MOL0     O 1080   9.763  10.277   7.579  0.0815 -0.2594 -0.2478
    9MOL0     C 1081   9.632  10.299   7.542  0.3797  0.2193 -1.5425
    9MOL0     C 1082   9.520  10.230   7.581  0.5565  0.2170  0.1755
    9MOL0     C 1083   9.394  10.244   7.520 -0.4769 -0.2390  0.6896
    9MOL0     C 1084   9.377  10.352   7.426 -0.0850  0.5384 -0.0650
    9MOL0     C 1085   9.243  10.360   7.347 -0.1726  0.0534  0.1308
    9MOL0     O 1086   9.231  10.448   7.247 -0.4986  0.4829  0.9098
    9MOL0     C 1087   9.117  10.456   7.166  0.4911 -0.3621  0.0544
    9MOL0     C 1088   8.990  10.430   7.218 -0.2836 -0.3600 -0.0202
    9MOL0     C 1089   8.868  10.449   7.144 -0.0753 -0.3943  0.8288
    9MOL0     C 1090   8.868  10.513   7.014 -0.5360 -0.4761  0.7761
    9MOL0     O 1091   8.760  10.530   6.929 -0.3694 -1.0700  0.0528
    9MOL0     C 1092   8.631  10.506   6.983 -1.0021  0.3161  1.0344
    9MOL0     C 1093   8.523  10.550   6.883  0.9633 -0.3623 -0.9675
    9MOL0     C 1094   8.531  10.481   6.750 -0.7160  0.2403 -0.0854
    9MOL0     C 1095   8.421  10.505   6.657  0.1232 -0.3457 -0.1477
    9MOL0     C 1096   8.470  10.458   6.519  0.6166  0.0697 -0.3541
    9MOL0     C 1097   8.376  10.535   6.418  0.4046  0.1856  0.5054
    9MOL0     C 1098   8.228  10.482   6.417  0.3948  0.2383  0.5934
    9MOL0     C 1099   8.134  10.565   6.321 -0.4088 -0.7277 -0.5106
    9MOL0    Cl 1100   8.199  10.565   6.152  0.2284  0.0359  0.4348
    9MOL0     C 1101   8.994  10.548   6.968 -0.8861  0.2727  0.3083
    9MOL0     C 1102   9.113  10.521   7.042  0.5528 -0.2610 -0.0875
    9MOL0     O 1103   9.154  10.280   7.387 -0.1220  0.5668 -0.6465
    9MOL0     C 1104   9.484  10.427   7.386 -0.4427  0.3850 -0.3223
    9MOL0     C 1105   9.610  10.405   7.442 -0.2164  0.1361 -0.5543
    9MOL0     N 1106   9.495  10.090   8.141 -0.8992  0.7704 -0.3424
    9MOL0     N 1107   9.378  10.064   8.109  0.0888 -0.4828  0.1503
    9MOL0     C 1108   8.389  10.467   7.253 -0.6071 -0.3543 -0.0765
    9MOL0     C 1109   8.275  10.542   7.212 -1.2320  0.5184  0.0713
    9MOL0     C 1110   7.898  10.817   7.313 -0.7426  0.1595  0.4777
    9MOL0     C 1111   7.890  10.873   7.187  0.5523 -0.2517  0.1191
    9MOL0     C 1112   7.787  10.963   7.155 -1.2445 -0.6026 -0.5712
    9MOL0     C 1113   7.691  10.998   7.258 -0.1555 -0.1767  0.3013
    9MOL0     O 1114   7.587  11.088   7.241 -0.2589 -0.3647  0.7139
    9MOL0     C 1115   7.587  11.174   7.127 -0.0842  1.0925  0.4160
    9MOL0     C 1116   7.469  11.259   7.118  0.2904  0.4824 -0.1736
    9MOL0     C 1117   7.345  11.168   7.085 -0.5268 -0.0797 -1.5582
    9MOL0     C 1118   7.216  11.250   7.083  0.4434  0.5788  0.0536
    9MOL0     C 1119   7.102  11.169   7.023  0.4326  1.1565 -0.3742
    9MOL0     C 1120   7.003  11.102   7.001 -0.5875 -0.5867 -0.8717
    9MOL0     C 1121   7.697  10.930   7.384 -0.0228  0.0110  0.3609
    9MOL0     C 1122   7.803  10.839   7.414 -0.0187  0.3814  1.3752
    9MOL0     H 1123   8.241  10.741   7.497  1.0824  1.8160 -1.2059
    9MOL0     H 1124   8.444  10.622   7.552  1.7684 -1.3293 -0.0970
    9MOL0     H 1125   8.612  10.280   7.264 -0.4592 -0.4873 -0.7874
    9MOL0     H 1126   8.466  10.228   7.348  0.4079  0.4670 -2.2412
    9MOL0     H 1127   8.664  10.089   7.423  1.0457 -0.5876  0.4345
    9MOL0     H 1128   8.569  10.183   7.546 -2.2172 -0.9963 -1.6415
    9MOL0     H 1129   8.764  10.361   7.524 -1.8899  0.1168 -2.9147
    9MOL0     H 1130   8.836  10.227   7.415  1.1756 -3.0576  2.3696
    9MOL0     H 1131   8.768  10.193   7.719 -2.0321  3.3500 -1.5585
    9MOL0     H 1132   8.822  10.071   7.605 -1.0404 -0.2617  0.0030
    9MOL0     H 1133   9.027  10.291   7.670  0.6486 -0.2791  0.7098
    9MOL0     H 1134   9.038  10.125   7.610  0.6119  1.0779  0.2129
    9MOL0     H 1135   8.969  10.032   7.829 -1.9385  0.3318 -0.3712
    9MOL0     H 1136   8.968  10.199   7.896  2.0784  0.9541  0.8561
    9MOL0     H 1137   9.184  10.012   7.835 -0.5175 -0.4270  2.7148
    9MOL0     H 1138   9.210  10.157   7.745 -1.2227  0.4249  0.2054
    9MOL0     H 1139   9.132  10.177   8.026  0.4989 -0.7874  0.1004
    9MOL0     H 1140   9.223  10.290   7.929  0.1590  1.0043  3.2423
    9MOL0     H 1141   9.458  10.280   7.891 -0.6294 -1.2666 -1.1028
    9MOL0     H 1142   9.749  10.193   8.142 -1.7435  1.2567  0.1721
    9MOL0     H 1143   9.710  10.327   8.038 -1.0193  0.9640  2.6541
    9MOL0     H 1144   9.737  10.041   7.922 -0.3837  1.0311 -1.8956
    9MOL0     H 1145   9.881  10.146   7.940 -0.0248 -1.3325 -0.3787
    9MOL0     H 1146   9.653  10.260   7.802  0.6313 -0.3507 -1.2201
    9MOL0     H 1147   9.821  10.322   7.812 -1.1817  1.4936 -2.9015
    9MOL0     H 1148   9.739  10.078   7.665 -0.0261 -0.0241  2.4118
    9MOL0     H 1149   9.899  10.154   7.672 -0.6739 -0.2553  1.7386
    9MOL0     H 1150   9.543  10.155   7.656  1.4171  1.9051  1.6793
    9MOL0     H 1151   9.322  10.165   7.537  0.8577 -2.0170 -1.4102
    9MOL0     H 1152   8.967  10.395   7.318 -2.5705  1.6867  0.2606
    9MOL0     H 1153   8.775  10.420   7.193 -0.3256 -0.8042  0.1216
    9MOL0     H 1154   8.624  10.563   7.076  2.0039  2.0206  0.3279
    9MOL0     H 1155   8.635  10.398   7.003  3.8929 -0.2759 -1.6501
    9MOL0     H 1156   8.542  10.657   6.870  0.4784 -0.0662  0.5420
    9MOL0     H 1157   8.425  10.522   6.923  0.9418  0.2875 -0.5559
    9MOL0     H 1158   8.539  10.374   6.769 -1.2094 -0.1047 -1.6760
    9MOL0     H 1159   8.616  10.519   6.692  0.0519 -2.5513 -0.9154
    9MOL0     H 1160   8.328  10.454   6.683  0.4219 -0.7004  0.2324
    9MOL0     H 1161   8.416  10.614   6.668 -0.9142 -0.4563  0.6187
    9MOL0     H 1162   8.470  10.348   6.511 -0.5581 -0.0951  1.3782
    9MOL0     H 1163   8.565  10.502   6.488 -0.6232  1.6687 -2.1579
    9MOL0     H 1164   8.420  10.530   6.317 -1.6251 -3.0039 -0.3680
    9MOL0     H 1165   8.374  10.640   6.447 -0.1723  0.6026 -0.9575
    9MOL0     H 1166   8.226  10.379   6.382 -0.2592  0.7856 -1.1250
    9MOL0     H 1167   8.192  10.490   6.520  1.5434  1.1922  0.9378
    9MOL0     H 1168   8.117  10.663   6.366  2.4393 -0.0334 -0.7583
    9MOL0     H 1169   8.040  10.510   6.308 -0.8431 -0.2233  0.4031
    9MOL0     H 1170   8.990  10.601   6.874 -0.5241 -1.8300 -0.9368
    9MOL0     H 1171   9.206  10.564   7.005 -1.7955  2.7560 -3.1627
    9MOL0     H 1172   9.480  10.499   7.304  0.4002  0.0692 -0.6579
    9MOL0     H 1173   9.695  10.464   7.409 -0.5056 -0.1108 -1.8017
    9MOL0     H 1174   8.432  10.398   7.180 -4.0438  0.2066 -2.9476
    9MOL0     H 1175   8.239  10.531   7.111  2.6754 -2.3641 -1.2697
    9MOL0     H 1176   7.960  10.845   7.109  0.6230 -0.2137  0.1676
    9MOL0     H 1177   7.772  10.996   7.053 -2.2279  0.6044 -0.0483
    9MOL0     H 1178   7.575  11.105   7.043  0.3447  0.0476  1.1899
    9MOL0     H 1179   7.678  11.235   7.126  0.7155 -0.0878  0.2785
    9MOL0     H 1180   7.455  11.310   7.213 -0.7707 -0.3853  0.1611
    9MOL0     H 1181   7.484  11.340   7.046  1.8843  0.5149  0.1681
    9MOL0     H 1182   7.351  11.095   7.166  0.3602  0.7312 -0.8692
    9MOL0     H 1183   7.360  11.123   6.986  1.4843  1.0592 -1.8274
    9MOL0     H 1184   7.180  11.288   7.180  0.4237 -0.5445  0.5001
    9MOL0     H 1185   7.227  11.336   7.016 -0.4838  0.1951 -0.6050
    9MOL0     H 1186   6.912  11.046   6.990 -1.2146  0.4368 -1.0192
    9MOL0     H 1187   7.614  10.937   7.455  1.0182 -0.7319  1.6903
    9MOL0     H 1188   7.808  10.797   7.514 -0.7402 -2.7493  0.2071
   10MOL0     O 1189   0.670   7.312   7.198 -0.1113 -0.5617 -0.4446
   10MOL0     C 1190   0.637   7.413   7.265  0.2271 -0.1668  0.2909
   10MOL0     O 1191   0.501   7.468   7.266  0.0242 -0.8092 -1.3498
   10MOL0     C 1192   0.413   7.418   7.174 -0.3704  0.4813 -0.8118
   10MOL0     C 1193   0.421   7.423   7.034 -0.7754  0.1738  0.0031
   10MOL0     C 1194   0.326   7.354   6.958  0.3834 -0.0702  0.9774
   10MOL0     C 1195   0.230   7.269   7.017 -0.5180  0.7147  0.0080
   10MOL0     O 1196   0.164   7.189   6.933 -1.0654  0.4063 -0.2265
   10MOL0     C 1197   0.035   7.143   6.964  0.2283  0.0492 -0.7672
   10MOL0     C 1198  -0.025   7.088   6.838 -0.3894 -0.1553  0.0542
   10MOL0     C 1199  -0.153   7.002   6.859 -0.0864 -0.7026  0.3558
   10MOL0     C 1200  -0.240   6.990   6.739 -0.1823  0.0689  0.2164
   10MOL0     C 1201  -0.178   6.915   6.620 -0.5257 -0.2093  0.5801
   10MOL0     C 1202  -0.272   6.913   6.488 -0.7876 -0.2901 -0.0711
   10MOL0     C 1203  -0.407   6.871   6.522 -0.3175 -0.5853 -0.5652
   10MOL0     C 1204  -0.485   6.815   6.404  0.3669 -0.0917 -1.1897
   10MOL0     N 1205  -0.621   6.778   6.450  0.6966 -0.7452  1.1476
   10MOL0     C 1206  -0.645   6.680   6.547  0.0191 -0.4147  0.5291
   10MOL0     C 1207  -0.775   6.700   6.576  1.0924 -0.4220  1.0334
   10MOL0     C 1208  -0.861   6.602   6.639 -0.6943  0.4852 -0.0065
   10MOL0     C 1209  -0.971   6.672   6.726  0.0191  0.9502  0.3544
   10MOL0     C 1210  -1.070   6.572   6.792 -0.0074  0.0929  0.9333
   10MOL0     C 1211  -1.132   6.634   6.915  0.0709  0.0172  0.2951
   10MOL0     O 1212  -1.214   6.538   6.985  0.4845  0.7585 -0.0099
   10MOL0     C 1213  -1.327   6.478   6.930 -0.2256 -0.2672 -0.7090
   10MOL0     C 1214  -1.408   6.535   6.834  0.4620  0.5916 -0.6315
   10MOL0     C 1215  -1.519   6.461   6.787 -0.2438 -0.0004 -0.5590
   10MOL0     C 1216  -1.546   6.329   6.836  0.0948 -0.3132 -0.2050
   10MOL0     C 1217  -1.663   6.254   6.788 -0.2176 -0.5420 -0.2403
   10MOL0     O 1218  -1.696   6.144   6.858 -0.6753  0.6270 -0.0280
   10MOL0     C 1219  -1.826   6.096   6.840 -0.5081 -0.5937 -0.4718
   10MOL0     C 1220  -1.861   5.968   6.851 -0.1139  0.2725 -0.6253
   10MOL0     C 1221  -1.986   5.918   6.820  0.5322  0.7060 -0.0459
   10MOL0     C 1222  -2.091   6.005   6.779 -0.4952 -0.1636  1.4488
   10MOL0     O 1223  -2.211   5.956   6.735  0.0832 -0.0706 -0.8870
   10MOL0     C 1224  -2.319   6.000   6.815  0.6916 -0.8303  0.1875
   10MOL0     C 1225  -2.391   5.875   6.866  0.6295 -0.1444 -0.5166
   10MOL0     C 1226  -2.442   5.796   6.752  0.2162  0.3181 -0.1157
   10MOL0     C 1227  -2.471   5.651   6.784 -0.4419  0.1511 -0.1582
   10MOL0     C 1228  -2.501   5.560   6.665  0.8613  0.0389 -0.2539
   10MOL0     C 1229  -2.559   5.627   6.536  0.4653  0.0128 -0.2253
   10MOL0     C 1230  -2.706   5.676   6.553  0.2651 -0.0702 -0.3626
   10MOL0     C 1231  -2.813   5.577   6.571  0.1595  0.4746 -0.5956
   10MOL0    Cl 1232  -2.850   5.501   6.423  0.0033 -0.0298 -0.3566
   10MOL0     C 1233  -2.061   6.139   6.771 -0.5807 -0.9159 -0.7608
   10MOL0     C 1234  -1.934   6.189   6.806 -0.6353 -0.1228 -0.5662
   10MOL0     O 1235  -1.700   6.283   6.676 -0.0146  0.4507 -0.2637
   10MOL0     C 1236  -1.467   6.277   6.938 -0.4663 -0.9445  0.2047
   10MOL0     C 1237  -1.355   6.350   6.981  0.0190  0.4755 -0.3491
   10MOL0     N 1238  -0.824   6.812   6.514 -0.1351 -0.7005 -0.5939
   10MOL0     N 1239  -0.738   6.854   6.435  0.6934 -0.5117 -0.1192
   10MOL0     C 1240   0.229   7.259   7.159 -0.3921  0.1915  0.3656
   10MOL0     C 1241   0.317   7.330   7.234  0.0034 -0.7882  0.1584
   10MOL0     C 1242   0.735   7.495   7.341  0.2993  0.6104  0.7211
   10MOL0     C 1243   0.692   7.608   7.403  0.5482 -0.4275  0.9052
   10MOL0     C 1244   0.779   7.692   7.464  0.0483  0.3975 -0.0357
   10MOL0     C 1245   0.918   7.672   7.463 -0.0956 -0.9674  0.5260
   10MOL0     O 1246   0.976   7.770   7.542 -0.1573 -0.2581  0.7372
   10MOL0     C 1247   1.119   7.777   7.543  0.5365 -0.1354 -0.2118
   10MOL0     C 1248   1.156   7.912   7.602  0.0466 -0.4484 -0.5588
   10MOL0     C 1249   1.304   7.947   7.573 -0.2239  0.4281 -0.9095
   10MOL0     C 1250   1.400   7.853   7.653  0.8480 -0.5769 -0.5653
   10MOL0     C 1251   1.536   7.881   7.612 -1.0850  0.2045  0.7700
   10MOL0     C 1252   1.651   7.891   7.569  0.3686 -0.0525 -0.2474
   10MOL0     C 1253   0.967   7.553   7.396  0.4184 -0.2470 -0.0998
   10MOL0     C 1254   0.870   7.467   7.340  0.2437 -0.2379 -0.1454
   10MOL0     H 1255   0.507   7.475   6.993 -0.1905 -1.8759 -1.5137
   10MOL0     H 1256   0.314   7.362   6.851  2.8169  2.5299  0.8073
   10MOL0     H 1257  -0.017   7.225   7.015 -0.4147 -0.1009 -1.1709
   10MOL0     H 1258   0.028   7.056   7.030  0.8296  0.2241 -0.4694
   10MOL0     H 1259   0.049   7.026   6.787  1.1576 -0.8164  2.9436
   10MOL0     H 1260  -0.052   7.171   6.771 -4.3798 -1.8369 -0.6971
   10MOL0     H 1261  -0.209   7.051   6.939 -1.5535  0.9858 -1.6021
   10MOL0     H 1262  -0.122   6.900   6.883  2.3216 -0.0574  0.2427
   10MOL0     H 1263  -0.318   6.921   6.774  2.0990 -1.6349  2.3551
   10MOL0     H 1264  -0.273   7.090   6.711  0.0602  0.2280  0.4952
   10MOL0     H 1265  -0.152   6.814   6.654  1.4194 -0.2317 -0.8234
   10MOL0     H 1266  -0.091   6.976   6.598 -0.3592 -0.5403  0.3091
   10MOL0     H 1267  -0.220   6.836   6.430 -1.0901 -1.2281  0.8722
   10MOL0     H 1268  -0.283   7.007   6.434  2.3959 -0.1489 -0.6911
   10MOL0     H 1269  -0.395   6.791   6.595  1.7995  0.0534 -0.1454
   10MOL0     H 1270  -0.459   6.962   6.553  1.5296 -0.1729  1.5973
   10MOL0     H 1271  -0.431   6.728   6.365 -3.0835 -1.8844 -2.4231
   10MOL0     H 1272  -0.490   6.892   6.327  0.7021  2.3058  1.0460
   10MOL0     H 1273  -0.587   6.590   6.567 -1.0007 -1.1497  0.2656
   10MOL0     H 1274  -0.801   6.533   6.699 -0.1913  1.7014  0.9330
   10MOL0     H 1275  -0.920   6.551   6.562 -1.7027  2.5080 -0.6440
   10MOL0     H 1276  -1.036   6.725   6.655 -3.1002 -0.6724  1.7516
   10MOL0     H 1277  -0.915   6.726   6.802  1.8488  3.4226 -2.5064
   10MOL0     H 1278  -1.143   6.526   6.725 -0.2527  0.0467  1.2277
   10MOL0     H 1279  -1.021   6.486   6.838 -4.9007 -2.6300  1.7337
   10MOL0     H 1280  -1.191   6.723   6.892  1.5960  0.5974 -1.6375
   10MOL0     H 1281  -1.052   6.664   6.983 -1.1081  0.1410  1.6769
   10MOL0     H 1282  -1.396   6.630   6.782  1.3282 -0.6020 -2.7553
   10MOL0     H 1283  -1.574   6.511   6.708 -0.6562 -0.1285 -0.3518
   10MOL0     H 1284  -1.788   5.890   6.871 -0.7666  0.1875  1.8361
   10MOL0     H 1285  -2.010   5.812   6.815 -0.5948  0.9371  0.1454
   10MOL0     H 1286  -2.373   6.072   6.754  1.1399 -2.2041 -1.9351
   10MOL0     H 1287  -2.289   6.050   6.907 -1.8352 -2.1007  1.8472
   10MOL0     H 1288  -2.475   5.892   6.933 -1.2547  0.0907 -2.8329
   10MOL0     H 1289  -2.312   5.823   6.922  1.0882  1.9731  0.8957
   10MOL0     H 1290  -2.370   5.787   6.670  0.5197  0.9636  0.0659
   10MOL0     H 1291  -2.533   5.847   6.718 -0.2282 -2.4156 -3.5854
   10MOL0     H 1292  -2.392   5.602   6.842 -2.2366 -0.5221  1.8770
   10MOL0     H 1293  -2.550   5.646   6.860 -0.8877  1.5792 -0.5057
   10MOL0     H 1294  -2.562   5.472   6.688 -0.4694  1.0558  0.2509
   10MOL0     H 1295  -2.405   5.519   6.634  0.0062 -0.7470 -1.9930
   10MOL0     H 1296  -2.557   5.554   6.454 -0.6957 -3.1951  2.3883
   10MOL0     H 1297  -2.490   5.707   6.505 -0.7492  2.0431  1.9605
   10MOL0     H 1298  -2.714   5.748   6.634 -0.0026  0.1985 -0.6227
   10MOL0     H 1299  -2.737   5.729   6.462 -3.8054 -0.0435  0.8393
   10MOL0     H 1300  -2.903   5.628   6.606 -0.2015  0.5164 -1.5620
   10MOL0     H 1301  -2.788   5.506   6.650 -3.0542 -2.5586 -2.0480
   10MOL0     H 1302  -2.126   6.217   6.733  0.1855  0.6363  0.9372
   10MOL0     H 1303  -1.924   6.297   6.797  3.8389 -0.1217  1.3621
   10MOL0     H 1304  -1.494   6.181   6.982 -2.5466 -0.8930 -0.8565
   10MOL0     H 1305  -1.292   6.310   7.059  0.1822 -0.1741 -0.8089
   10MOL0     H 1306   0.171   7.184   7.211  1.6766 -2.6108 -1.1422
   10MOL0     H 1307   0.308   7.340   7.342 -2.0537 -2.4039  0.2083
   10MOL0     H 1308   0.589   7.642   7.404  1.0104  1.1123  2.3139
   10MOL0     H 1309   0.745   7.787   7.505  3.3501  1.7548 -0.0756
   10MOL0     H 1310   1.164   7.774   7.443  1.6968 -0.9691  0.3051
   10MOL0     H 1311   1.158   7.694   7.603 -0.7738 -0.1311  0.6727
   10MOL0     H 1312   1.089   7.992   7.571 -3.2404 -1.3031  3.5383
   10MOL0     H 1313   1.140   7.905   7.710  2.2722  1.2096 -0.0346
   10MOL0     H 1314   1.328   8.048   7.606  2.4252  0.1890 -1.8347
   10MOL0     H 1315   1.321   7.943   7.465  2.6618 -0.4465 -0.5205
   10MOL0     H 1316   1.392   7.868   7.761  1.7357 -1.0849 -0.4095
   10MOL0     H 1317   1.381   7.747   7.631 -0.1153 -0.4622 -0.2955
   10MOL0     H 1318   1.752   7.902   7.536  0.4741 -1.3916 -0.4032
   10MOL0     H 1319   1.071   7.523   7.391  0.8230  1.3149 -2.0886
   10MOL0     H 1320   0.893   7.374   7.289 -0.2301 -0.1699 -0.4872
   11MOL0     O 1321   1.667  10.865   1.781  0.1413 -0.4335 -0.5952
   11MOL0     C 1322   1.629  10.767   1.718  0.3583  0.0114 -0.1345
   11MOL0     O 1323   1.499  10.750   1.671 -0.2463 -0.3771  0.2765
   11MOL0     C 1324   1.418  10.860   1.677  0.1807  0.6859 -0.5203
   11MOL0     C 1325   1.446  10.969   1.602 -0.4587 -0.5012  0.3198
   11MOL0     C 1326   1.354  11.081   1.602  0.4019 -0.1672  0.0210
   11MOL0     C 1327   1.232  11.079   1.666 -0.6621  0.9202  0.1835
   11MOL0     O 1328   1.142  11.178   1.645  0.1642 -0.0969 -0.7849
   11MOL0     C 1329   1.010  11.145   1.686  0.4052  0.1485  0.7857
   11MOL0     C 1330   0.907  11.243   1.623 -0.4232 -0.1421  0.1230
   11MOL0     C 1331   0.790  11.212   1.711 -0.2544  0.2070 -0.1273
   11MOL0     C 1332   0.668  11.292   1.659  0.2001  0.5922  0.0406
   11MOL0     C 1333   0.542  11.275   1.748  0.5004  0.6036 -0.1159
   11MOL0     C 1334   0.478  11.135   1.719 -0.2357 -0.4132 -0.0821
   11MOL0     C 1335   0.342  11.114   1.787  0.4814  0.3415  0.5884
   11MOL0     C 1336   0.282  10.975   1.761 -0.5164  0.2769 -0.3124
   11MOL0     N 1337   0.154  10.983   1.830 -0.6073  0.0915  0.1587
   11MOL0     C 1338   0.046  10.966   1.753  0.4019  0.3099 -0.3478
   11MOL0     C 1339  -0.059  10.958   1.842  0.2257  0.5088 -0.3626
   11MOL0     C 1340  -0.201  10.933   1.788  0.1602  0.2129  0.0193
   11MOL0     C 1341  -0.298  10.865   1.879 -0.0416  0.0166  0.9675
   11MOL0     C 1342  -0.320  10.909   2.022  0.0816  0.0791  0.3496
   11MOL0     C 1343  -0.358  11.062   2.036  0.5879 -0.4449 -0.4987
   11MOL0     O 1344  -0.486  11.097   1.972 -0.4428  0.3192  0.1014
   11MOL0     C 1345  -0.605  11.070   2.036 -0.2211 -0.0279  0.1908
   11MOL0     C 1346  -0.625  11.010   2.164  1.0532  0.7762 -0.1649
   11MOL0     C 1347  -0.755  11.005   2.225  0.3053 -0.3928  0.0260
   11MOL0     C 1348  -0.872  11.048   2.154  0.6253  0.2691  0.8144
   11MOL0     C 1349  -1.008  11.063   2.211 -0.2313  0.2293  0.1801
   11MOL0     O 1350  -1.092  11.134   2.137 -0.0185  0.1784  0.0557
   11MOL0     C 1351  -1.219  11.154   2.181 -0.4450 -0.3909  0.3555
   11MOL0     C 1352  -1.308  11.058   2.164 -0.4659 -0.3801  0.2228
   11MOL0     C 1353  -1.440  11.072   2.208 -0.0653 -0.1694  0.2079
   11MOL0     C 1354  -1.487  11.195   2.261 -0.3412 -0.0693 -0.4368
   11MOL0     O 1355  -1.612  11.228   2.292  0.5907 -0.1385 -0.0804
   11MOL0     C 1356  -1.685  11.130   2.368  0.1217  0.1336 -0.1476
   11MOL0     C 1357  -1.832  11.172   2.373 -0.7293  0.5798 -1.1928
   11MOL0     C 1358  -1.904  11.203   2.242 -0.1602 -0.0142 -0.4820
   11MOL0     C 1359  -2.040  11.280   2.256 -0.2149  0.4204 -0.3543
   11MOL0     C 1360  -2.107  11.312   2.127 -0.4354  0.1046  0.4076
   11MOL0     C 1361  -2.255  11.342   2.162 -0.5213 -0.3464 -0.0207
   11MOL0     C 1362  -2.343  11.331   2.039  0.6730  0.0197  0.2089
   11MOL0     C 1363  -2.473  11.405   2.058  0.5250  0.6957 -0.3127
   11MOL0    Cl 1364  -2.567  11.343   2.205  0.0450 -0.3225  0.2272
   11MOL0     C 1365  -1.386  11.297   2.273 -0.1105  0.0032  0.2094
   11MOL0     C 1366  -1.252  11.271   2.237  0.0858  0.1197 -0.3016
   11MOL0     O 1367  -1.034  11.002   2.316 -0.4395 -0.8340  0.2452
   11MOL0     C 1368  -0.850  11.095   2.022  0.4011  0.1219 -0.1694
   11MOL0     C 1369  -0.722  11.114   1.967  0.3093  0.5480 -0.0251
   11MOL0     N 1370  -0.009  10.966   1.973 -0.2788  0.4985 -0.1489
   11MOL0     N 1371   0.124  10.980   1.963 -0.3543  0.2539 -0.8078
   11MOL0     C 1372   1.220  10.966   1.758  0.5160 -0.6945 -0.2152
   11MOL0     C 1373   1.304  10.854   1.751 -0.5243 -0.4207  1.1301
   11MOL0     C 1374   1.726  10.657   1.711 -0.3013  0.3224  0.5821
   11MOL0     C 1375   1.683  10.523   1.716  0.8120 -0.3658  0.6157
   11MOL0     C 1376   1.772  10.411   1.715  0.1138 -0.1867 -0.1128
   11MOL0     C 1377   1.908  10.437   1.705 -0.5542 -1.1435  0.1850
   11MOL0     O 1378   1.991  10.330   1.682  0.0348  0.6682  0.4755
   11MOL0     C 1379   2.091  10.291   1.782  0.7311 -0.1957  0.6145
   11MOL0     C 1380   2.017  10.243   1.910 -0.1615 -0.1973 -0.2450
   11MOL0     C 1381   2.112  10.199   2.015 -0.5525  0.3059  0.2153
   11MOL0     C 1382   2.162  10.061   1.994 -0.6734 -0.8321 -0.4347
   11MOL0     C 1383   2.251  10.026   2.101 -0.6506  1.0059 -0.1302
   11MOL0     C 1384   2.324  10.018   2.202  0.5045  0.0643  0.8302
   11MOL0     C 1385   1.955  10.576   1.703 -0.3565  0.1243 -0.3126
   11MOL0     C 1386   1.864  10.679   1.708 -0.7366  0.1204  0.8853
   11MOL0     H 1387   1.537  10.978   1.543 -0.2376 -1.4576  0.4926
   11MOL0     H 1388   1.368  11.172   1.544 -3.4574  1.6435  1.5663
   11MOL0     H 1389   1.006  11.138   1.795 -0.1054  0.4475  0.7876
   11MOL0     H 1390   0.999  11.045   1.644  0.7896  0.5208 -0.2279
   11MOL0     H 1391   0.889  11.229   1.516  0.3921  1.0681 -0.1977
   11MOL0     H 1392   0.947  11.344   1.614 -1.6935  0.2817 -1.0810
   11MOL0     H 1393   0.805  11.240   1.816  1.0003  4.2761 -1.1775
   11MOL0     H 1394   0.779  11.104   1.710 -0.6938  0.2517 -1.2287
   11MOL0     H 1395   0.706  11.394   1.668  1.9664  0.1277 -1.5072
   11MOL0     H 1396   0.642  11.274   1.554  0.5960  1.1661 -0.1604
   11MOL0     H 1397   0.461  11.347   1.731  0.5430  0.6728 -0.0300
   11MOL0     H 1398   0.565  11.272   1.855 -2.0196  2.3046  0.5855
   11MOL0     H 1399   0.535  11.049   1.754 -2.0708 -1.1144  1.3749
   11MOL0     H 1400   0.454  11.140   1.613  0.8539  0.8690 -0.3010
   11MOL0     H 1401   0.369  11.117   1.893  2.8413  1.1575  0.0135
   11MOL0     H 1402   0.264  11.187   1.762  1.0577  0.9802  0.6238
   11MOL0     H 1403   0.343  10.899   1.811 -0.4381  1.0318  0.7742
   11MOL0     H 1404   0.294  10.959   1.653  2.4444 -0.0453 -0.0209
   11MOL0     H 1405   0.052  10.968   1.645  3.5648  0.8746 -0.2573
   11MOL0     H 1406  -0.200  10.879   1.693  0.5472 -1.3678  0.8813
   11MOL0     H 1407  -0.241  11.034   1.773 -4.2224 -1.1573  1.0043
   11MOL0     H 1408  -0.272  10.759   1.876 -2.7802 -0.7035 -0.7874
   11MOL0     H 1409  -0.399  10.866   1.838 -0.3112 -0.3310  1.6028
   11MOL0     H 1410  -0.404  10.857   2.069 -0.0164  0.9433  1.1539
   11MOL0     H 1411  -0.234  10.876   2.080  0.9175 -1.2193 -1.5138
   11MOL0     H 1412  -0.275  11.122   1.999 -1.2166  2.7666  0.2730
   11MOL0     H 1413  -0.366  11.089   2.142 -2.8731 -2.0655 -0.2111
   11MOL0     H 1414  -0.548  10.979   2.234  1.9070  0.7468 -1.1038
   11MOL0     H 1415  -0.771  10.980   2.329  0.0012  0.8361  0.2894
   11MOL0     H 1416  -1.287  10.956   2.134 -1.8751 -0.3805 -0.8807
   11MOL0     H 1417  -1.508  10.988   2.202  1.6709 -1.6391  0.2225
   11MOL0     H 1418  -1.630  11.126   2.462  0.5029  1.0790 -0.3215
   11MOL0     H 1419  -1.690  11.028   2.329 -1.0859 -0.3282  1.1289
   11MOL0     H 1420  -1.827  11.265   2.431 -0.0887 -0.7906  1.0994
   11MOL0     H 1421  -1.894  11.103   2.432 -1.1771  0.6154 -1.6222
   11MOL0     H 1422  -1.916  11.109   2.187  0.1496  1.8605 -3.9912
   11MOL0     H 1423  -1.850  11.272   2.177 -0.5498  0.1187 -0.6708
   11MOL0     H 1424  -2.105  11.217   2.317 -1.6262  1.7219 -0.4638
   11MOL0     H 1425  -2.022  11.377   2.305 -0.3797  0.8422 -1.1101
   11MOL0     H 1426  -2.092  11.222   2.066 -2.1887  0.9151 -1.3248
   11MOL0     H 1427  -2.057  11.387   2.065  3.2139 -1.8393  0.7220
   11MOL0     H 1428  -2.263  11.436   2.219  2.1904 -0.6138  0.9346
   11MOL0     H 1429  -2.279  11.254   2.222  1.9544 -0.2493  1.2117
   11MOL0     H 1430  -2.295  11.362   1.945 -0.9072  0.1040 -0.6165
   11MOL0     H 1431  -2.355  11.224   2.021  0.5415 -0.4869  2.9434
   11MOL0     H 1432  -2.533  11.384   1.969 -2.4296  2.5507  1.1007
   11MOL0     H 1433  -2.457  11.513   2.066 -0.6406  1.0963 -2.4825
   11MOL0     H 1434  -1.419  11.393   2.313  0.3856  0.1687  0.2192
   11MOL0     H 1435  -1.178  11.348   2.256 -1.0541  1.2883 -0.4465
   11MOL0     H 1436  -0.925  11.137   1.956  2.7149  1.0416 -2.4301
   11MOL0     H 1437  -0.715  11.170   1.875 -1.9055 -0.1046 -0.6586
   11MOL0     H 1438   1.128  10.950   1.812  0.9596  0.8604  1.1086
   11MOL0     H 1439   1.284  10.764   1.808 -2.6857 -1.7519 -1.5030
   11MOL0     H 1440   1.577  10.507   1.737  0.4176 -1.6624 -1.9351
   11MOL0     H 1441   1.739  10.311   1.743 -1.3794  0.5362  0.8629
   11MOL0     H 1442   2.156  10.376   1.806 -0.5684  1.3145 -0.9855
   11MOL0     H 1443   2.149  10.216   1.728  2.8679  1.8575 -0.1345
   11MOL0     H 1444   1.961  10.327   1.951  0.8911  0.5883 -0.3760
   11MOL0     H 1445   1.951  10.159   1.888 -1.6880  0.7251  0.6147
   11MOL0     H 1446   2.068  10.189   2.115 -0.3717  2.2526  0.5228
   11MOL0     H 1447   2.190  10.274   2.029 -0.8841  0.3911  1.8824
   11MOL0     H 1448   2.077   9.994   2.003 -0.3763 -1.4265 -1.7431
   11MOL0     H 1449   2.216  10.052   1.899  1.3443 -2.3107  0.7732
   11MOL0     H 1450   2.373  10.024   2.298 -1.4793  0.3376  1.8655
   11MOL0     H 1451   2.060  10.603   1.693 -0.7316  0.7765 -3.5056
   11MOL0     H 1452   1.900  10.779   1.690  0.4357 -0.9351 -4.7890
   12MOL0     O 1453   6.978   5.344   7.963  0.3710 -0.1316  0.4552
   12MOL0     C 1454   7.040   5.445   8.004 -1.0379  1.0596  0.2666
   12MOL0     O 1455   6.996   5.533   8.094 -0.0180 -0.0018 -0.4602
   12MOL0     C 1456   6.863   5.535   8.122 -0.6082  0.5200  0.4644
   12MOL0     C 1457   6.772   5.547   8.019  0.4706 -0.0573 -0.1995
   12MOL0     C 1458   6.638   5.577   8.050  0.5584 -0.1389 -0.1124
   12MOL0     C 1459   6.588   5.570   8.188 -0.5409  0.0691  0.4917
   12MOL0     O 1460   6.473   5.604   8.248  0.2774 -0.3200  0.5658
   12MOL0     C 1461   6.365   5.644   8.166 -0.0921 -0.4001  0.2865
   12MOL0     C 1462   6.251   5.692   8.245  0.3945 -0.0662  0.2541
   12MOL0     C 1463   6.169   5.597   8.328 -0.1351  0.6067  0.0672
   12MOL0     C 1464   6.067   5.685   8.404 -0.1114 -0.7545 -0.3780
   12MOL0     C 1465   6.001   5.602   8.516  0.0894 -0.0693  0.5060
   12MOL0     C 1466   5.922   5.684   8.621  0.2440 -0.7990 -0.0658
   12MOL0     C 1467   5.811   5.775   8.557 -0.4025  0.1856 -0.3345
   12MOL0     C 1468   5.732   5.836   8.674  0.7039 -0.5089  0.8408
   12MOL0     N 1469   5.625   5.923   8.621  0.5408 -0.3586  0.4957
   12MOL0     C 1470   5.582   5.925   8.491 -0.0499 -0.3715 -0.0617
   12MOL0     C 1471   5.491   6.022   8.479 -0.8389  0.7684 -0.6232
   12MOL0     C 1472   5.405   6.043   8.363 -0.1430 -0.7969  0.3418
   12MOL0     C 1473   5.264   6.003   8.369 -0.4568 -0.0371  0.6318
   12MOL0     C 1474   5.191   6.075   8.254 -0.5969  0.4643  0.2312
   12MOL0     C 1475   5.054   6.023   8.252 -0.0753 -0.4622  0.1306
   12MOL0     O 1476   4.964   6.114   8.179 -0.1821 -0.0101 -0.1938
   12MOL0     C 1477   4.824   6.081   8.175  0.1373 -0.7623 -0.7786
   12MOL0     C 1478   4.765   5.966   8.225  0.9897  0.3121  0.4610
   12MOL0     C 1479   4.628   5.941   8.215 -0.1426 -0.2825 -0.2315
   12MOL0     C 1480   4.541   6.029   8.139  0.5001 -0.3545  0.2415
   12MOL0     C 1481   4.394   6.009   8.139 -0.5353 -0.6827  0.7189
   12MOL0     O 1482   4.354   5.885   8.175 -0.2379 -0.1077  0.5360
   12MOL0     C 1483   4.221   5.867   8.177  0.0371  0.4587  0.3678
   12MOL0     C 1484   4.149   5.841   8.061 -0.0871  0.1918 -0.7538
   12MOL0     C 1485   4.010   5.817   8.069  0.4108  0.5142 -0.2835
   12MOL0     C 1486   3.942   5.827   8.188  0.1670  0.9946 -0.4546
   12MOL0     O 1487   3.809   5.797   8.202  0.0929  0.2784  0.6898
   12MOL0     C 1488   3.722   5.759   8.096  1.4153 -0.1504  0.0312
   12MOL0     C 1489   3.743   5.611   8.064  0.6850 -0.0890 -0.2412
   12MOL0     C 1490   3.634   5.551   7.967  0.9679  1.1224  0.0286
   12MOL0     C 1491   3.642   5.401   7.961 -0.9517  0.9447  0.0750
   12MOL0     C 1492   3.757   5.337   7.883 -0.9366 -0.8932 -0.1824
   12MOL0     C 1493   3.824   5.220   7.958 -0.2934  0.1957  0.8032
   12MOL0     C 1494   3.950   5.173   7.885  0.4434 -0.6901 -0.3140
   12MOL0     C 1495   3.917   5.096   7.758 -0.4870 -0.5064 -0.5548
   12MOL0    Cl 1496   3.866   4.938   7.801  0.9732 -0.1542 -0.0924
   12MOL0     C 1497   4.009   5.867   8.298  0.3213  0.0678 -0.5576
   12MOL0     C 1498   4.143   5.879   8.299  0.2473 -0.3914  0.2466
   12MOL0     O 1499   4.322   6.105   8.113  0.1820  0.0587  0.2916
   12MOL0     C 1500   4.601   6.149   8.087  0.3434 -0.3163 -0.2846
   12MOL0     C 1501   4.744   6.174   8.108 -0.1404  0.0137  0.5383
   12MOL0     N 1502   5.468   6.079   8.607  0.2989 -0.3613 -0.2002
   12MOL0     N 1503   5.560   6.027   8.687  0.0479 -0.6557 -0.2438
   12MOL0     C 1504   6.691   5.550   8.284 -0.1892  0.2835  0.4920
   12MOL0     C 1505   6.829   5.541   8.255 -0.4257 -0.2412 -0.2911
   12MOL0     C 1506   7.180   5.454   7.949  0.0026  0.3004 -0.4389
   12MOL0     C 1507   7.225   5.384   7.835 -1.1803 -0.2254  0.1597
   12MOL0     C 1508   7.361   5.395   7.797  0.8886 -0.1252  0.9801
   12MOL0     C 1509   7.446   5.473   7.866  0.8987  0.1932 -0.3524
   12MOL0     O 1510   7.580   5.487   7.831 -0.2962 -0.7266  0.4982
   12MOL0     C 1511   7.623   5.436   7.701 -1.3866 -0.0780  0.5980
   12MOL0     C 1512   7.769   5.462   7.675 -0.1646  0.3778  0.5450
   12MOL0     C 1513   7.863   5.391   7.776  0.2576  0.1839 -0.6303
   12MOL0     C 1514   8.009   5.429   7.749  0.5388  0.1264 -0.3909
   12MOL0     C 1515   8.028   5.568   7.774 -0.3818 -0.2778 -0.8811
   12MOL0     C 1516   8.021   5.686   7.818 -0.2918 -0.0208 -0.5095
   12MOL0     C 1517   7.408   5.545   7.977  0.6908  0.5663 -0.3893
   12MOL0     C 1518   7.269   5.540   8.018  0.0602  0.8702 -0.9290
   12MOL0     H 1519   6.805   5.553   7.916  1.7712 -0.6071  0.1790
   12MOL0     H 1520   6.579   5.587   7.959  2.3104  1.4130 -1.1240
   12MOL0     H 1521   6.345   5.554   8.106  1.1959 -0.3597 -0.2406
   12MOL0     H 1522   6.392   5.720   8.092 -1.9999  0.1963  0.1544
   12MOL0     H 1523   6.177   5.733   8.175 -0.8723 -2.4349  0.1156
   12MOL0     H 1524   6.285   5.776   8.306 -0.7327 -0.4175  1.4175
   12MOL0     H 1525   6.223   5.526   8.392 -5.2186 -3.7888  0.2434
   12MOL0     H 1526   6.116   5.539   8.252  1.0255 -0.8505  0.3092
   12MOL0     H 1527   6.123   5.769   8.447 -1.2030 -1.3816  2.5093
   12MOL0     H 1528   5.986   5.733   8.349 -0.5459  0.5672  1.3259
   12MOL0     H 1529   6.082   5.552   8.570 -0.9361 -1.1225  1.1100
   12MOL0     H 1530   5.931   5.527   8.478  2.5697 -0.9642 -2.8349
   12MOL0     H 1531   5.990   5.729   8.694  0.4877 -2.6955  0.9398
   12MOL0     H 1532   5.872   5.605   8.678 -2.4635  0.2140 -0.9065
   12MOL0     H 1533   5.858   5.845   8.488  0.5133  2.6000  2.4982
   12MOL0     H 1534   5.750   5.698   8.508 -0.1209 -1.6040  1.9225
   12MOL0     H 1535   5.796   5.906   8.728 -1.7292  2.8321 -0.3007
   12MOL0     H 1536   5.688   5.764   8.744  2.8829 -1.1664  1.6109
   12MOL0     H 1537   5.603   5.846   8.420  0.5240  0.2794 -0.6241
   12MOL0     H 1538   5.454   6.005   8.273  1.0764  0.7575  0.3135
   12MOL0     H 1539   5.405   6.151   8.348 -1.8543 -0.6713  0.9642
   12MOL0     H 1540   5.222   6.029   8.467  1.4736 -0.3856  1.5956
   12MOL0     H 1541   5.259   5.894   8.363  4.5333 -0.3879 -1.3998
   12MOL0     H 1542   5.204   6.181   8.276  1.2867 -0.0528  1.9908
   12MOL0     H 1543   5.227   6.042   8.156 -1.0278 -1.4066  0.6464
   12MOL0     H 1544   5.020   6.026   8.356 -2.0064 -0.4343 -0.4673
   12MOL0     H 1545   5.072   5.919   8.224  4.1636 -0.6487  2.6720
   12MOL0     H 1546   4.836   5.896   8.269 -0.3658 -2.4568 -1.4708
   12MOL0     H 1547   4.595   5.849   8.261 -0.6484 -0.5726 -1.1515
   12MOL0     H 1548   4.196   5.844   7.963  1.2812  2.4791 -0.1104
   12MOL0     H 1549   3.952   5.779   7.985  2.1946  1.4934 -2.0417
   12MOL0     H 1550   3.731   5.825   8.009  2.9697  1.4564  1.3391
   12MOL0     H 1551   3.624   5.782   8.140  1.5516  2.0036 -0.6702
   12MOL0     H 1552   3.739   5.556   8.158 -3.9827  1.4471  0.7368
   12MOL0     H 1553   3.841   5.608   8.016  1.0388  2.8551  0.1064
   12MOL0     H 1554   3.640   5.594   7.867 -0.9146 -0.0932 -0.6607
   12MOL0     H 1555   3.532   5.576   7.997 -0.8015 -2.0819 -2.6148
   12MOL0     H 1556   3.636   5.359   8.062 -0.0599  0.9778  0.1515
   12MOL0     H 1557   3.566   5.357   7.897  1.4749 -3.8485  0.0234
   12MOL0     H 1558   3.831   5.418   7.878 -0.6598 -0.8623  2.8449
   12MOL0     H 1559   3.728   5.316   7.779 -0.5830 -0.7809 -0.3064
   12MOL0     H 1560   3.746   5.145   7.977 -1.3581  0.7222 -1.1188
   12MOL0     H 1561   3.855   5.267   8.051  0.3534  1.1794  0.1164
   12MOL0     H 1562   4.022   5.253   7.867  1.5187 -1.9192 -1.6975
   12MOL0     H 1563   4.005   5.108   7.953 -0.3042 -0.0305  0.9633
   12MOL0     H 1564   4.014   5.085   7.708  0.1565 -0.7268  0.7011
   12MOL0     H 1565   3.851   5.159   7.697  2.9554  1.7972 -2.2759
   12MOL0     H 1566   3.959   5.899   8.389  1.7064 -0.1324  0.3037
   12MOL0     H 1567   4.194   5.902   8.392 -0.6729  0.9081  0.4626
   12MOL0     H 1568   4.533   6.222   8.045 -2.0142 -1.6517  1.0087
   12MOL0     H 1569   4.805   6.257   8.075  3.5135 -2.6479 -0.0483
   12MOL0     H 1570   6.670   5.546   8.390  0.3777  2.1948  0.7200
   12MOL0     H 1571   6.909   5.556   8.327 -0.2985  2.6093 -0.9321
   12MOL0     H 1572   7.166   5.311   7.779 -0.1592 -0.3242 -0.8123
   12MOL0     H 1573   7.396   5.347   7.706  2.4030  3.0028 -0.2464
   12MOL0     H 1574   7.568   5.489   7.623 -0.9347  1.6034  1.3689
   12MOL0     H 1575   7.612   5.328   7.712  1.6172 -0.6407 -0.7469
   12MOL0     H 1576   7.793   5.417   7.577 -1.2499  0.0035  0.4370
   12MOL0     H 1577   7.796   5.568   7.672  1.8940 -0.1147 -0.6113
   12MOL0     H 1578   7.851   5.283   7.760  1.0399  0.4177 -3.3404
   12MOL0     H 1579   7.836   5.422   7.877  0.7087 -0.4296 -0.3108
   12MOL0     H 1580   8.065   5.360   7.813 -1.7855 -1.9375 -0.4266
   12MOL0     H 1581   8.038   5.397   7.648  0.5053 -0.3469 -0.2542
   12MOL0     H 1582   8.022   5.786   7.856 -0.7528  0.3927 -1.5470
   12MOL0     H 1583   7.483   5.606   8.027  2.1906 -2.1184  0.8375
   12MOL0     H 1584   7.243   5.576   8.117 -0.8573 -0.7979 -0.5232
   13MOL0     O 1585   4.959   1.542   4.881 -0.7601 -0.5825  0.2992
   13MOL0     C 1586   4.943   1.646   4.815 -0.7384 -0.2729 -0.7465
   13MOL0     O 1587   4.821   1.702   4.782 -0.6619 -0.4382  0.5981
   13MOL0     C 1588   4.699   1.648   4.805 -0.7002  1.1417  0.7731
   13MOL0     C 1589   4.599   1.688   4.722 -0.7232 -0.2131  0.2022
   13MOL0     C 1590   4.471   1.653   4.743 -0.3541  0.1435  0.1060
   13MOL0     C 1591   4.431   1.566   4.838 -0.3348  0.3020 -0.0164
   13MOL0     O 1592   4.304   1.541   4.856  0.6126  0.0530 -0.0943
   13MOL0     C 1593   4.262   1.438   4.944 -0.3644  0.7403  0.3756
   13MOL0     C 1594   4.116   1.423   4.950 -0.2931 -0.3053  0.3921
   13MOL0     C 1595   4.053   1.309   5.031  0.4798  0.2806 -0.2351
   13MOL0     C 1596   3.899   1.312   5.040 -0.7923 -0.9351 -0.9020
   13MOL0     C 1597   3.872   1.224   5.172 -0.4209 -0.9768 -0.3015
   13MOL0     C 1598   3.727   1.216   5.217 -0.1103 -0.0493  0.2459
   13MOL0     C 1599   3.699   1.324   5.325  0.6305 -0.4974  1.0450
   13MOL0     C 1600   3.557   1.317   5.396  0.6561 -0.6979 -0.6033
   13MOL0     N 1601   3.548   1.183   5.467  0.1058  0.2934  0.0775
   13MOL0     C 1602   3.636   1.134   5.566  0.5775 -0.1930  0.4574
   13MOL0     C 1603   3.579   1.023   5.619  0.1024 -0.8141  0.0654
   13MOL0     C 1604   3.628   0.935   5.734 -0.9931 -0.0516  0.3808
   13MOL0     C 1605   3.710   0.820   5.678  0.3810 -0.3712  0.0529
   13MOL0     C 1606   3.804   0.749   5.773  0.5330 -0.1888 -0.3607
   13MOL0     C 1607   3.904   0.658   5.691 -0.0646 -0.1385 -0.5858
   13MOL0     O 1608   3.843   0.589   5.576 -1.0849 -0.3818 -0.2658
   13MOL0     C 1609   3.768   0.470   5.600 -0.1560 -0.8828 -1.1443
   13MOL0     C 1610   3.719   0.410   5.484  0.4192 -0.3296 -0.2869
   13MOL0     C 1611   3.643   0.290   5.489 -0.5047 -0.1030  0.0339
   13MOL0     C 1612   3.601   0.238   5.618 -0.5256  0.1251  0.2509
   13MOL0     C 1613   3.514   0.120   5.635  0.1381  0.5324 -0.3706
   13MOL0     O 1614   3.475   0.062   5.521  0.5137 -0.0005  0.4320
   13MOL0     C 1615   3.425  -0.062   5.542 -0.6039  0.9988  0.0740
   13MOL0     C 1616   3.287  -0.071   5.559  1.2740 -0.1620 -0.1709
   13MOL0     C 1617   3.234  -0.194   5.601 -0.7840  0.4662 -0.2431
   13MOL0     C 1618   3.315  -0.300   5.613  0.0408  0.4210  0.3751
   13MOL0     O 1619   3.251  -0.414   5.657 -0.5348 -1.1245 -0.0111
   13MOL0     C 1620   3.311  -0.548   5.656  0.0062 -0.3916 -0.0662
   13MOL0     C 1621   3.221  -0.660   5.704 -0.1666 -0.0886 -0.3279
   13MOL0     C 1622   3.082  -0.650   5.638 -1.6247 -0.0426 -0.2750
   13MOL0     C 1623   2.983  -0.746   5.696  1.0445  0.5305  0.1631
   13MOL0     C 1624   2.849  -0.726   5.627 -1.4012  0.3194  0.0939
   13MOL0     C 1625   2.751  -0.832   5.660  0.5012  1.0608  0.2620
   13MOL0     C 1626   2.605  -0.785   5.636  0.5006 -1.3243 -0.0938
   13MOL0     C 1627   2.505  -0.893   5.621 -0.4113  0.5455  0.3094
   13MOL0    Cl 1628   2.328  -0.846   5.635  0.3383 -0.3646 -0.2471
   13MOL0     C 1629   3.455  -0.302   5.589 -0.0379 -0.2347 -1.2283
   13MOL0     C 1630   3.507  -0.181   5.550  0.1845  0.0676  0.1874
   13MOL0     O 1631   3.486   0.081   5.745  0.6247  0.2402  0.3285
   13MOL0     C 1632   3.643   0.306   5.735  0.5252 -0.3069 -0.6834
   13MOL0     C 1633   3.730   0.418   5.726 -1.1676 -0.5583 -0.1160
   13MOL0     N 1634   3.458   1.006   5.554  0.3963  0.1159  0.3797
   13MOL0     N 1635   3.441   1.098   5.469  0.8170 -0.2866 -0.3920
   13MOL0     C 1636   4.533   1.518   4.920 -0.6176 -0.4451 -0.0162
   13MOL0     C 1637   4.669   1.558   4.907  1.0805 -0.3943  0.2487
   13MOL0     C 1638   5.065   1.704   4.757 -0.1680  0.0340 -0.4678
   13MOL0     C 1639   5.191   1.632   4.760 -0.0198  0.1558  0.8185
   13MOL0     C 1640   5.300   1.693   4.697 -0.0640 -0.6597 -0.7776
   13MOL0     C 1641   5.293   1.816   4.631  0.3679 -0.2743 -0.5564
   13MOL0     O 1642   5.397   1.863   4.544 -0.2670  0.7370  0.0032
   13MOL0     C 1643   5.374   1.809   4.415 -0.9838  0.8529  0.7091
   13MOL0     C 1644   5.407   1.913   4.307  0.5407 -0.5327  0.6479
   13MOL0     C 1645   5.281   1.983   4.249 -0.3189 -0.1325  0.0869
   13MOL0     C 1646   5.304   2.094   4.148  0.3614  0.3720  0.4316
   13MOL0     C 1647   5.347   2.218   4.211 -0.5553 -0.2676 -1.3224
   13MOL0     C 1648   5.391   2.322   4.252  0.0443  0.2878 -0.5478
   13MOL0     C 1649   5.171   1.889   4.632  1.1577  0.2775 -0.5010
   13MOL0     C 1650   5.060   1.836   4.697 -0.4208  0.1040  0.3318
   13MOL0     H 1651   4.630   1.758   4.645 -1.4809 -1.3183 -1.1396
   13MOL0     H 1652   4.399   1.707   4.682  0.7015 -0.4560 -1.7730
   13MOL0     H 1653   4.303   1.447   5.045 -0.1344 -0.5737  0.4147
   13MOL0     H 1654   4.294   1.336   4.923 -2.8053 -0.3298  1.3958
   13MOL0     H 1655   4.087   1.405   4.846 -0.0559  1.3802 -0.0064
   13MOL0     H 1656   4.073   1.518   4.983 -0.3529  0.7719 -2.5392
   13MOL0     H 1657   4.099   1.315   5.130  0.4863  1.6231 -0.3075
   13MOL0     H 1658   4.082   1.217   4.979 -2.4023 -0.9330  0.0909
   13MOL0     H 1659   3.868   1.415   5.054 -1.3781 -0.9172 -2.2188
   13MOL0     H 1660   3.857   1.271   4.948 -1.4722  2.5093 -2.2408
   13MOL0     H 1661   3.924   1.280   5.250 -0.5204  0.5703 -1.2882
   13MOL0     H 1662   3.907   1.121   5.162 -3.9413 -2.3053 -0.4171
   13MOL0     H 1663   3.697   1.117   5.251 -2.9249  0.1215 -1.4317
   13MOL0     H 1664   3.660   1.234   5.132  1.7103  0.4186 -1.1328
   13MOL0     H 1665   3.772   1.306   5.404 -1.8809 -3.2351  2.9754
   13MOL0     H 1666   3.724   1.422   5.282  1.9787 -0.0973  2.6743
   13MOL0     H 1667   3.471   1.315   5.328  0.7089 -2.3134 -0.6597
   13MOL0     H 1668   3.539   1.403   5.462 -0.6300 -1.0967 -0.3990
   13MOL0     H 1669   3.720   1.198   5.594  0.8558  1.8627 -4.0975
   13MOL0     H 1670   3.540   0.902   5.790 -0.6602  1.1331  1.6539
   13MOL0     H 1671   3.688   1.007   5.790 -2.0259  2.0445 -1.0493
   13MOL0     H 1672   3.763   0.854   5.588 -1.9741  2.2265 -0.4787
   13MOL0     H 1673   3.646   0.745   5.632  2.7164 -0.5224 -3.3325
   13MOL0     H 1674   3.865   0.821   5.829  1.1270 -0.0338 -1.1808
   13MOL0     H 1675   3.735   0.698   5.840  0.5878  0.3307  0.0996
   13MOL0     H 1676   3.952   0.579   5.749 -1.2291  0.5530  1.4199
   13MOL0     H 1677   3.989   0.721   5.664  0.8156 -1.6818 -1.5744
   13MOL0     H 1678   3.747   0.450   5.387  1.2688 -1.1995 -0.4221
   13MOL0     H 1679   3.596   0.248   5.400 -0.9161  2.3710 -0.9993
   13MOL0     H 1680   3.222   0.011   5.531  1.0351 -0.7476 -1.4040
   13MOL0     H 1681   3.128  -0.201   5.624 -0.8413 -2.5847 -0.9775
   13MOL0     H 1682   3.397  -0.534   5.723 -1.4688  1.8438  1.4871
   13MOL0     H 1683   3.343  -0.569   5.553 -0.3469  0.5987 -0.3930
   13MOL0     H 1684   3.193  -0.652   5.809  1.1994  0.0121  0.0453
   13MOL0     H 1685   3.280  -0.750   5.685  2.4553  0.9757  2.1114
   13MOL0     H 1686   3.102  -0.684   5.536  0.3116  2.2809 -0.7485
   13MOL0     H 1687   3.047  -0.546   5.636 -0.1984  0.4698  0.1256
   13MOL0     H 1688   3.017  -0.848   5.673  2.1883  1.5463 -3.1747
   13MOL0     H 1689   2.970  -0.735   5.804 -1.8149  0.6796 -0.1165
   13MOL0     H 1690   2.867  -0.722   5.519  1.1984  2.3676  0.5038
   13MOL0     H 1691   2.830  -0.622   5.655  2.6336  0.0908  5.2127
   13MOL0     H 1692   2.767  -0.862   5.764  0.2741 -1.2721 -0.3279
   13MOL0     H 1693   2.776  -0.925   5.607 -0.3240  0.6755  0.5351
   13MOL0     H 1694   2.567  -0.713   5.709  1.1529 -2.1635  1.1069
   13MOL0     H 1695   2.614  -0.738   5.537 -1.7067  2.4611  1.2987
   13MOL0     H 1696   2.519  -0.963   5.704 -3.9271 -1.9299 -0.8820
   13MOL0     H 1697   2.521  -0.948   5.527  0.0083 -0.5719  1.0137
   13MOL0     H 1698   3.501  -0.400   5.602 -5.3686 -3.1309 -1.2219
   13MOL0     H 1699   3.615  -0.171   5.555 -0.0003  2.2407  0.9932
   13MOL0     H 1700   3.614   0.264   5.831 -1.3477 -1.7829 -1.8222
   13MOL0     H 1701   3.755   0.470   5.818  2.0752 -1.6483 -0.2835
   13MOL0     H 1702   4.515   1.460   5.010 -1.6228  0.1628  0.1809
   13MOL0     H 1703   4.740   1.527   4.983  0.9417 -1.8500 -0.1791
   13MOL0     H 1704   5.191   1.532   4.802  0.5594 -1.8322 -3.4083
   13MOL0     H 1705   5.398   1.653   4.677 -0.2050 -1.4789  0.1142
   13MOL0     H 1706   5.273   1.768   4.403 -0.7417  0.6534 -0.8082
   13MOL0     H 1707   5.443   1.725   4.400 -0.1646  1.2457  2.1058
   13MOL0     H 1708   5.465   1.998   4.344 -1.7722  0.9908  1.0433
   13MOL0     H 1709   5.454   1.863   4.222 -1.1980 -2.4339  0.7321
   13MOL0     H 1710   5.231   2.017   4.340  2.4679 -3.1303  3.0214
   13MOL0     H 1711   5.226   1.896   4.212  1.7676 -2.5329  2.2932
   13MOL0     H 1712   5.379   2.060   4.075 -0.2597 -1.2061  0.4789
   13MOL0     H 1713   5.205   2.114   4.106  0.4996 -1.1733 -0.7482
   13MOL0     H 1714   5.446   2.409   4.282 -0.5742  0.9845 -1.3876
   13MOL0     H 1715   5.170   1.970   4.560  0.7849  1.4409  0.7601
   13MOL0     H 1716   4.966   1.889   4.689 -0.0183  0.8552  0.5186
   14MOL0     O 1717   8.487   1.819  10.982  0.2339 -1.1023 -0.7749
   14MOL0     C 1718   8.512   1.873  10.874 -0.3640 -0.6568  0.2911
   14MOL0     O 1719   8.421   1.924  10.787  0.3952 -0.6992 -0.1657
   14MOL0     C 1720   8.286   1.900  10.808 -0.4607 -0.1150 -0.3873
   14MOL0     C 1721   8.196   2.004  10.826  0.5670  0.5302  0.2657
   14MOL0     C 1722   8.064   1.969  10.849  0.3983  0.0646  0.5245
   14MOL0     C 1723   8.014   1.831  10.847 -0.6082 -0.9163 -0.2254
   14MOL0     O 1724   7.892   1.789  10.874 -0.4238  0.1475 -0.3008
   14MOL0     C 1725   7.791   1.821  10.770  0.0850  0.3210 -0.9589
   14MOL0     C 1726   7.654   1.755  10.815 -0.3623  0.6611  1.0756
   14MOL0     C 1727   7.659   1.606  10.854 -0.2158  0.8865 -0.1182
   14MOL0     C 1728   7.531   1.532  10.818 -0.5853  0.7295  0.7438
   14MOL0     C 1729   7.542   1.394  10.879 -0.3843 -0.5407  0.2783
   14MOL0     C 1730   7.421   1.294  10.856 -0.2651  0.4260  0.1483
   14MOL0     C 1731   7.308   1.328  10.951  0.3066  0.5262  0.7974
   14MOL0     C 1732   7.197   1.395  10.869 -0.0151  0.2368 -0.0595
   14MOL0     N 1733   7.079   1.430  10.947 -0.7174  0.2416 -0.4061
   14MOL0     C 1734   7.010   1.338  11.012  0.2724 -0.8232 -0.2919
   14MOL0     C 1735   6.909   1.417  11.072 -0.4726 -1.1302  0.3067
   14MOL0     C 1736   6.790   1.376  11.154 -0.2436 -0.1014 -0.1932
   14MOL0     C 1737   6.658   1.408  11.087  0.1219  0.0319  0.6586
   14MOL0     C 1738   6.539   1.386  11.181 -0.5783  0.1180 -0.0489
   14MOL0     C 1739   6.400   1.415  11.126 -0.3371  0.2771  0.5909
   14MOL0     O 1740   6.399   1.346  11.006 -0.4935 -0.0164 -0.6620
   14MOL0     C 1741   6.275   1.314  10.948 -0.3805  0.3414  0.4915
   14MOL0     C 1742   6.280   1.217  10.847  0.5897  0.5668  0.4450
   14MOL0     C 1743   6.159   1.183  10.789 -0.1789  0.6735  0.1366
   14MOL0     C 1744   6.027   1.241  10.821  0.2564  0.5380 -1.1896
   14MOL0     C 1745   5.907   1.188  10.767  0.4943 -0.3219  0.5282
   14MOL0     O 1746   5.787   1.228  10.816 -0.0816  0.3043 -0.4809
   14MOL0     C 1747   5.662   1.193  10.769 -0.9769  0.7466 -0.0130
   14MOL0     C 1748   5.631   1.122  10.652 -0.4524 -1.1463 -0.8309
   14MOL0     C 1749   5.505   1.067  10.642  0.3264 -0.2746 -0.1067
   14MOL0     C 1750   5.406   1.091  10.737 -0.6911 -0.3554  0.3220
   14MOL0     O 1751   5.279   1.043  10.722 -0.3061 -0.7973  0.2887
   14MOL0     C 1752   5.230   1.022  10.589  0.5028  0.8056  0.6082
   14MOL0     C 1753   5.084   0.968  10.610 -0.2178  0.0857 -0.2797
   14MOL0     C 1754   4.991   1.093  10.617 -0.0536  0.0681  0.6244
   14MOL0     C 1755   4.841   1.045  10.642 -0.6820 -0.6969 -0.8855
   14MOL0     C 1756   4.774   0.992  10.520  0.0697  0.7183  0.0325
   14MOL0     C 1757   4.654   0.906  10.555  0.1585 -0.3922 -0.3021
   14MOL0     C 1758   4.548   0.986  10.648  0.0458  0.8817  0.2424
   14MOL0     C 1759   4.416   0.909  10.664 -0.8613 -0.2805 -0.3847
   14MOL0    Cl 1760   4.310   0.934  10.528 -0.1023  0.0765 -0.2149
   14MOL0     C 1761   5.438   1.176  10.844  0.6624  0.0179  0.2866
   14MOL0     C 1762   5.566   1.210  10.869 -0.0594 -0.6918 -0.2502
   14MOL0     O 1763   5.918   1.111  10.673 -0.0250 -0.3480 -0.5711
   14MOL0     C 1764   6.027   1.336  10.925 -0.1695 -0.4359  0.1390
   14MOL0     C 1765   6.152   1.366  10.986  0.3785 -0.7343 -0.9775
   14MOL0     N 1766   6.932   1.551  11.038 -0.2693 -0.0082  1.0483
   14MOL0     N 1767   7.036   1.558  10.968 -0.1852 -0.1519 -0.7320
   14MOL0     C 1768   8.104   1.733  10.809  0.5127 -0.1723  0.3211
   14MOL0     C 1769   8.242   1.771  10.793 -0.8502 -0.2104 -0.7890
   14MOL0     C 1770   8.651   1.871  10.827 -1.3252  0.1606  0.1228
   14MOL0     C 1771   8.700   1.947  10.720  0.6884  0.4741  0.3599
   14MOL0     C 1772   8.836   1.949  10.695 -0.6593  0.2064 -0.4104
   14MOL0     C 1773   8.931   1.879  10.771 -0.1914  0.6906 -0.4418
   14MOL0     O 1774   9.067   1.889  10.748  0.3285 -0.1223  0.9910
   14MOL0     C 1775   9.167   1.805  10.806  0.7071  1.2038  0.3589
   14MOL0     C 1776   9.213   1.835  10.949  0.2921  0.0102  0.6027
   14MOL0     C 1777   9.343   1.757  10.994 -0.7291 -0.9280  0.0374
   14MOL0     C 1778   9.391   1.840  11.118 -0.2715 -0.3535  0.5772
   14MOL0     C 1779   9.517   1.784  11.170 -0.3912  0.0090  0.6736
   14MOL0     C 1780   9.616   1.742  11.214  0.1245  0.1842  0.0378
   14MOL0     C 1781   8.876   1.778  10.862 -1.0293 -0.4002  0.0877
   14MOL0     C 1782   8.743   1.786  10.894  0.8623 -0.2863  0.2916
   14MOL0     H 1783   8.228   2.106  10.844 -1.5546  1.2161  0.4307
   14MOL0     H 1784   8.002   2.054  10.877  1.9120  1.5274 -0.3966
   14MOL0     H 1785   7.825   1.777  10.676  2.8605 -1.5803  0.7636
   14MOL0     H 1786   7.772   1.928  10.755 -0.2277  0.2343 -1.1814
   14MOL0     H 1787   7.581   1.766  10.734 -0.8015 -0.2078  1.3500
   14MOL0     H 1788   7.606   1.810  10.897 -2.1532  1.4694 -0.4219
   14MOL0     H 1789   7.688   1.593  10.959  0.1635  1.5408 -0.1378
   14MOL0     H 1790   7.731   1.555  10.789  0.1377  1.7173 -0.3884
   14MOL0     H 1791   7.449   1.578  10.875 -0.7597  0.4756  0.6989
   14MOL0     H 1792   7.509   1.519  10.712  1.5980  1.0362  0.2090
   14MOL0     H 1793   7.560   1.398  10.987  0.9736 -2.3115  0.1659
   14MOL0     H 1794   7.638   1.356  10.844  0.7970  1.5710  1.0180
   14MOL0     H 1795   7.448   1.188  10.858 -2.3109 -0.2616 -2.4606
   14MOL0     H 1796   7.380   1.308  10.756 -0.0510 -1.4101 -0.2348
   14MOL0     H 1797   7.263   1.240  10.997 -0.7105  1.5291  1.7900
   14MOL0     H 1798   7.337   1.409  11.019 -0.7694  3.6194 -2.1388
   14MOL0     H 1799   7.162   1.346  10.777 -1.1050 -2.1179  1.5010
   14MOL0     H 1800   7.239   1.487  10.827  0.2541 -0.1178 -0.5789
   14MOL0     H 1801   7.029   1.232  11.006 -0.5324 -1.0269  0.4567
   14MOL0     H 1802   6.797   1.422  11.253 -0.1778  2.5356 -1.3362
   14MOL0     H 1803   6.793   1.267  11.149  0.7202 -0.0954 -0.0276
   14MOL0     H 1804   6.652   1.346  10.997  1.7127 -1.0942  1.2842
   14MOL0     H 1805   6.648   1.513  11.058  3.5846  0.2576 -0.1775
   14MOL0     H 1806   6.548   1.278  11.195 -1.4768 -0.0433 -0.6778
   14MOL0     H 1807   6.542   1.440  11.276 -2.5513 -1.4293  0.9671
   14MOL0     H 1808   6.393   1.522  11.105  1.1438  1.0564  3.4983
   14MOL0     H 1809   6.329   1.369  11.196  0.8318  0.5556  2.0197
   14MOL0     H 1810   6.365   1.154  10.825 -0.4170 -0.8620  0.4964
   14MOL0     H 1811   6.151   1.108  10.711  1.6440 -0.0844  0.6359
   14MOL0     H 1812   5.689   1.097  10.564  1.0096 -2.3697  0.4273
   14MOL0     H 1813   5.482   0.999  10.560 -6.0391 -0.8518  1.6171
   14MOL0     H 1814   5.288   0.940  10.545  0.4212  0.8792  0.3636
   14MOL0     H 1815   5.238   1.109  10.524  2.9954  0.7400  0.7213
   14MOL0     H 1816   5.080   0.889  10.686  0.1917 -2.9493 -3.1907
   14MOL0     H 1817   5.066   0.906  10.521 -1.5223 -1.9127  1.2738
   14MOL0     H 1818   4.991   1.150  10.523 -0.2791 -0.2000  0.4605
   14MOL0     H 1819   5.028   1.153  10.700  4.3405 -1.1474 -0.1848
   14MOL0     H 1820   4.854   0.958  10.707  1.3355  0.2347  0.0615
   14MOL0     H 1821   4.787   1.126  10.692  1.0088  1.0683 -1.7724
   14MOL0     H 1822   4.841   0.925  10.465  0.9867  0.0121  1.9423
   14MOL0     H 1823   4.730   1.075  10.464 -3.2343 -1.2469 -0.5680
   14MOL0     H 1824   4.690   0.811  10.593  1.1349 -0.6454 -1.7921
   14MOL0     H 1825   4.605   0.897  10.457 -0.2059  5.1813 -0.9690
   14MOL0     H 1826   4.582   0.988  10.752 -1.7768  2.7606  0.8694
   14MOL0     H 1827   4.525   1.088  10.616  1.6207  0.6590 -1.7986
   14MOL0     H 1828   4.370   0.936  10.759  0.7357  1.7542 -0.1160
   14MOL0     H 1829   4.437   0.803  10.681  0.8700  0.4169  2.6852
   14MOL0     H 1830   5.354   1.207  10.905  1.8159  0.2020  1.8498
   14MOL0     H 1831   5.578   1.274  10.956 -1.0439  2.3554 -2.1873
   14MOL0     H 1832   5.929   1.380  10.941 -0.7233 -0.7209 -2.1132
   14MOL0     H 1833   6.141   1.434  11.070  0.2439 -2.8351  0.7953
   14MOL0     H 1834   8.073   1.630  10.819  3.2051 -0.9864  1.0072
   14MOL0     H 1835   8.317   1.698  10.764 -1.7891 -1.1087 -1.0646
   14MOL0     H 1836   8.631   2.016  10.673  0.6100 -0.2564 -0.6171
   14MOL0     H 1837   8.873   2.016  10.618 -2.4555  1.4365 -0.2462
   14MOL0     H 1838   9.252   1.814  10.738 -0.6509  1.5707 -1.3603
   14MOL0     H 1839   9.137   1.700  10.797 -1.7807  1.9126 -0.2098
   14MOL0     H 1840   9.230   1.942  10.962  1.3958  0.1093 -1.2009
   14MOL0     H 1841   9.132   1.796  11.010 -0.0726  1.2783  0.9533
   14MOL0     H 1842   9.409   1.749  10.908 -1.3782 -0.8757 -0.4770
   14MOL0     H 1843   9.335   1.657  11.036 -0.3438 -1.1248 -0.3545
   14MOL0     H 1844   9.412   1.943  11.086 -2.9502  0.1906  0.3764
   14MOL0     H 1845   9.310   1.842  11.192 -1.9234 -0.8978 -1.1458
   14MOL0     H 1846   9.694   1.686  11.261  1.7855  0.9548 -1.6789
   14MOL0     H 1847   8.947   1.708  10.905  0.1134  0.3030 -0.6020
   14MOL0     H 1848   8.708   1.708  10.961 -0.4374 -1.2229 -1.3983
   15MOL0     O 1849   0.548   6.447   4.571  0.6105  0.2786  0.0605
   15MOL0     C 1850   0.594   6.338   4.548 -0.7493 -0.2972  0.2752
   15MOL0     O 1851   0.642   6.301   4.429  0.3347 -0.2031  0.3099
   15MOL0     C 1852   0.609   6.381   4.321 -0.3380  0.4152  0.0799
   15MOL0     C 1853   0.678   6.498   4.299  0.1441  0.0231 -0.3199
   15MOL0     C 1854   0.644   6.586   4.198 -0.5686  0.0010  0.0210
   15MOL0     C 1855   0.549   6.543   4.109  0.2112 -0.0951 -0.0690
   15MOL0     O 1856   0.507   6.605   3.994  0.6334 -0.2554 -0.5310
   15MOL0     C 1857   0.569   6.723   3.941 -0.8654 -0.1364 -0.1684
   15MOL0     C 1858   0.594   6.702   3.798  0.9497  0.6093 -0.2798
   15MOL0     C 1859   0.655   6.828   3.741  0.2020 -0.0195  0.7782
   15MOL0     C 1860   0.574   6.886   3.629 -0.4188  1.2328 -0.1754
   15MOL0     C 1861   0.454   6.956   3.682  0.0616 -0.0442 -0.5723
   15MOL0     C 1862   0.399   7.060   3.588 -0.3344 -0.7376  0.2257
   15MOL0     C 1863   0.365   7.021   3.451  0.0655  0.0577 -0.7085
   15MOL0     C 1864   0.278   7.129   3.376 -0.2635  0.0187  0.3209
   15MOL0     N 1865   0.236   7.096   3.244  0.0729 -0.1306  0.4805
   15MOL0     C 1866   0.305   7.083   3.129  0.1678  0.8961  0.6939
   15MOL0     C 1867   0.216   7.033   3.037  0.4696  1.1915 -0.0392
   15MOL0     C 1868   0.255   7.014   2.895 -0.1840  0.0841  0.1065
   15MOL0     C 1869   0.245   7.153   2.836 -0.9215 -0.4880  0.3640
   15MOL0     C 1870   0.102   7.193   2.829  0.3842 -0.4230  0.2753
   15MOL0     C 1871   0.090   7.327   2.750 -0.3634 -0.1017 -0.5363
   15MOL0     O 1872   0.011   7.329   2.631 -0.1813  0.2021 -0.4024
   15MOL0     C 1873  -0.122   7.338   2.646 -0.4653  0.3609  0.4501
   15MOL0     C 1874  -0.191   7.349   2.528 -0.2063  0.3205 -0.4558
   15MOL0     C 1875  -0.329   7.371   2.533  0.5371 -0.0414  0.2237
   15MOL0     C 1876  -0.396   7.383   2.654 -0.6915 -0.3044  1.0022
   15MOL0     C 1877  -0.539   7.406   2.649  0.1374 -0.5450 -1.3297
   15MOL0     O 1878  -0.605   7.430   2.773  0.4300 -0.1325  0.0337
   15MOL0     C 1879  -0.734   7.472   2.751 -0.1883 -0.3218  0.0129
   15MOL0     C 1880  -0.842   7.392   2.766  0.3367  0.5383 -0.1927
   15MOL0     C 1881  -0.975   7.436   2.752  0.2980  0.2324 -0.4672
   15MOL0     C 1882  -0.995   7.578   2.735 -0.3818  0.1091  0.4713
   15MOL0     O 1883  -1.117   7.629   2.702  0.0496  0.0321  0.6509
   15MOL0     C 1884  -1.241   7.599   2.783 -0.1811  0.2222  0.8036
   15MOL0     C 1885  -1.234   7.666   2.919 -0.3793 -0.5178 -0.0055
   15MOL0     C 1886  -1.221   7.819   2.908  0.1359 -0.0162  0.2149
   15MOL0     C 1887  -1.226   7.890   3.042 -1.1202 -0.2457  0.2534
   15MOL0     C 1888  -1.138   7.832   3.157  0.0973  0.8841 -0.3640
   15MOL0     C 1889  -1.107   7.938   3.262  0.2874 -0.1127 -1.2430
   15MOL0     C 1890  -1.001   7.900   3.372  0.0111  0.2932 -0.1247
   15MOL0     C 1891  -0.877   7.840   3.318  1.0441  0.6213 -0.3089
   15MOL0    Cl 1892  -0.744   7.871   3.438 -0.1558  0.1383 -0.0628
   15MOL0     C 1893  -0.888   7.666   2.730 -0.1248  0.0495  0.5664
   15MOL0     C 1894  -0.758   7.609   2.734  0.0806  0.6099  0.4933
   15MOL0     O 1895  -0.593   7.401   2.539 -0.4054 -0.6038 -0.9609
   15MOL0     C 1896  -0.324   7.366   2.769 -0.7375 -0.1852 -1.1077
   15MOL0     C 1897  -0.189   7.345   2.768 -0.6579 -0.8535  0.1135
   15MOL0     N 1898   0.096   7.017   3.100 -0.6740 -0.4155  0.3505
   15MOL0     N 1899   0.115   7.052   3.224 -1.0526 -0.7449 -0.2083
   15MOL0     C 1900   0.485   6.423   4.123 -0.4513  1.0409 -0.5883
   15MOL0     C 1901   0.514   6.345   4.237  0.4459 -0.1761 -0.0091
   15MOL0     C 1902   0.620   6.241   4.662  0.7694 -0.6103  0.5521
   15MOL0     C 1903   0.628   6.105   4.636  0.7072 -1.2767 -0.4638
   15MOL0     C 1904   0.648   6.014   4.738  0.1051 -0.4660 -0.6084
   15MOL0     C 1905   0.661   6.065   4.864  0.2247  0.0844  0.1302
   15MOL0     O 1906   0.702   5.993   4.973  0.3395  1.2948 -0.7155
   15MOL0     C 1907   0.725   5.855   4.950  0.5919  0.1914  0.5687
   15MOL0     C 1908   0.770   5.777   5.071 -0.6433  0.5382  0.3239
   15MOL0     C 1909   0.662   5.770   5.176 -0.3098  0.4189 -0.8769
   15MOL0     C 1910   0.603   5.901   5.223  0.5030  0.7074 -0.1831
   15MOL0     C 1911   0.501   5.895   5.328 -0.8187  0.6449  0.0096
   15MOL0     C 1912   0.416   5.888   5.412  0.7181 -0.0717 -0.7243
   15MOL0     C 1913   0.658   6.200   4.890  1.1925  0.1412 -0.1185
   15MOL0     C 1914   0.625   6.293   4.788 -0.0150 -0.5130  0.4617
   15MOL0     H 1915   0.751   6.529   4.373 -2.0012  1.3808  1.3877
   15MOL0     H 1916   0.697   6.679   4.179  0.6410  0.0441  3.1054
   15MOL0     H 1917   0.661   6.734   3.999 -0.2040  0.5184 -1.3067
   15MOL0     H 1918   0.513   6.816   3.945 -0.3193  0.4119 -3.0770
   15MOL0     H 1919   0.497   6.687   3.751  0.7410  2.1648 -0.4024
   15MOL0     H 1920   0.650   6.616   3.760 -1.5975 -0.3847 -2.0673
   15MOL0     H 1921   0.756   6.799   3.711 -0.3261 -3.3683  1.9003
   15MOL0     H 1922   0.671   6.905   3.818  0.5837  0.3609  0.3262
   15MOL0     H 1923   0.641   6.953   3.574  1.3732 -2.3126 -2.6802
   15MOL0     H 1924   0.548   6.807   3.559  1.7322 -0.9030  1.2703
   15MOL0     H 1925   0.474   7.005   3.778 -1.6377 -0.5122  0.0643
   15MOL0     H 1926   0.371   6.886   3.697 -1.2726  1.5376 -0.2573
   15MOL0     H 1927   0.472   7.140   3.575 -0.9908  0.5483  3.3898
   15MOL0     H 1928   0.303   7.092   3.631  0.1792  0.9628  0.1790
   15MOL0     H 1929   0.458   7.011   3.395 -0.2294 -2.2912 -0.8637
   15MOL0     H 1930   0.319   6.922   3.452  1.5835 -0.6826  0.3396
   15MOL0     H 1931   0.340   7.219   3.365  0.3950 -0.4825 -0.1864
   15MOL0     H 1932   0.189   7.147   3.435  0.0805  2.2855  0.2340
   15MOL0     H 1933   0.402   7.126   3.104  0.2923  1.2949  1.8023
   15MOL0     H 1934   0.191   6.938   2.849  1.6185  0.5278 -3.4532
   15MOL0     H 1935   0.354   6.971   2.882  0.1442  1.1866 -1.2161
   15MOL0     H 1936   0.279   7.156   2.732  0.0472 -1.1605  0.6437
   15MOL0     H 1937   0.311   7.225   2.885  0.7593 -0.5541 -1.6441
   15MOL0     H 1938   0.043   7.125   2.767 -0.2568 -0.2613  0.6977
   15MOL0     H 1939   0.058   7.207   2.928  0.6558 -0.7387  0.4404
   15MOL0     H 1940   0.192   7.358   2.728  0.2800 -0.9796  1.1064
   15MOL0     H 1941   0.051   7.397   2.825 -0.7742 -0.3734 -0.4930
   15MOL0     H 1942  -0.139   7.339   2.433  2.2481 -2.0001  1.0236
   15MOL0     H 1943  -0.375   7.392   2.437  0.3781  0.0638  0.3213
   15MOL0     H 1944  -0.828   7.289   2.798  3.5308  1.1023  0.6413
   15MOL0     H 1945  -1.064   7.373   2.752 -0.7693  1.6445  1.1115
   15MOL0     H 1946  -1.248   7.491   2.772  1.4578  0.1998 -0.5362
   15MOL0     H 1947  -1.326   7.630   2.723 -0.0057  1.6371  1.2314
   15MOL0     H 1948  -1.146   7.631   2.973 -0.1770 -0.6253 -0.4013
   15MOL0     H 1949  -1.325   7.649   2.978 -1.4111 -2.2329 -1.9350
   15MOL0     H 1950  -1.294   7.867   2.842  1.3967  3.2032  0.9940
   15MOL0     H 1951  -1.125   7.835   2.858  0.7431 -0.0915  1.3456
   15MOL0     H 1952  -1.191   7.991   3.020  0.0757 -0.6489  0.2591
   15MOL0     H 1953  -1.329   7.899   3.079 -1.7131  0.9746 -1.5808
   15MOL0     H 1954  -1.044   7.792   3.116 -0.1681 -0.8404  0.6363
   15MOL0     H 1955  -1.198   7.747   3.191  0.1899  0.6207 -0.8457
   15MOL0     H 1956  -1.202   7.969   3.308  0.3986  1.7042 -2.1477
   15MOL0     H 1957  -1.063   8.025   3.213 -0.5263 -0.1044 -1.9745
   15MOL0     H 1958  -0.960   7.994   3.412  1.8651 -0.7157  0.4717
   15MOL0     H 1959  -1.049   7.842   3.451  1.6109  0.9845  1.4254
   15MOL0     H 1960  -0.856   7.893   3.224  0.3636  1.3923 -0.0353
   15MOL0     H 1961  -0.894   7.732   3.309  0.2339  0.4785  2.2267
   15MOL0     H 1962  -0.896   7.772   2.708  2.7242  0.0392 -1.0414
   15MOL0     H 1963  -0.673   7.676   2.726  1.2124 -0.7532  0.8985
   15MOL0     H 1964  -0.373   7.374   2.865 -2.9768  2.7498 -2.3306
   15MOL0     H 1965  -0.149   7.340   2.868 -3.0681 -2.7437  1.0882
   15MOL0     H 1966   0.403   6.391   4.060 -1.4266  0.2643  1.0331
   15MOL0     H 1967   0.457   6.254   4.252 -0.8451  0.4003 -1.1048
   15MOL0     H 1968   0.628   6.064   4.536  1.8889 -0.2312 -0.9143
   15MOL0     H 1969   0.651   5.909   4.712 -1.1977 -0.8944  0.8476
   15MOL0     H 1970   0.797   5.855   4.868 -2.0142  1.1423 -1.8728
   15MOL0     H 1971   0.630   5.810   4.921  1.2205 -1.9423  1.6366
   15MOL0     H 1972   0.779   5.674   5.035  0.1666  0.9247 -0.6437
   15MOL0     H 1973   0.864   5.814   5.113  1.0661 -0.6714 -2.1585
   15MOL0     H 1974   0.697   5.725   5.269  0.4961  2.1779 -0.2965
   15MOL0     H 1975   0.577   5.717   5.130 -0.0518  0.2453 -1.1581
   15MOL0     H 1976   0.678   5.977   5.244 -1.5629  3.4831 -2.1071
   15MOL0     H 1977   0.545   5.936   5.137 -0.5163  2.4985  1.1599
   15MOL0     H 1978   0.349   5.888   5.496 -0.7666  0.8209 -1.8528
   15MOL0     H 1979   0.682   6.226   4.993 -0.7658 -1.1489  0.7281
   15MOL0     H 1980   0.614   6.400   4.794 -0.4739 -0.4703 -0.8673
   16MOL0     O 1981  10.446   9.829   0.344  0.2382  0.2444 -0.4050
   16MOL0     C 1982  10.417   9.914   0.265  0.0333 -0.1282 -0.8121
   16MOL0     O 1983  10.493   9.939   0.158  0.3353 -0.5292  0.1656
   16MOL0     C 1984  10.601   9.856   0.131  0.0374 -0.4838  0.0069
   16MOL0     C 1985  10.593   9.718   0.103 -0.1562  0.2594 -0.2363
   16MOL0     C 1986  10.705   9.645   0.067  0.0841 -0.5728  0.0824
   16MOL0     C 1987  10.836   9.701   0.046  0.9172 -0.3241  0.0389
   16MOL0     O 1988  10.951   9.636   0.013  0.1789 -0.5598 -0.2738
   16MOL0     C 1989  10.968   9.578  -0.115 -0.2739 -0.2818 -0.3808
   16MOL0     C 1990  11.114   9.549  -0.136  0.1994  0.6209  0.0877
   16MOL0     C 1991  11.134   9.429  -0.231 -0.0746 -0.2051  0.5453
   16MOL0     C 1992  11.266   9.356  -0.196  0.3968 -0.1264  0.5748
   16MOL0     C 1993  11.318   9.272  -0.307  0.5651 -0.8256  0.4530
   16MOL0     C 1994  11.445   9.199  -0.287  0.4573 -0.1018 -0.4178
   16MOL0     C 1995  11.456   9.137  -0.145  0.4935  0.0533  0.4611
   16MOL0     C 1996  11.587   9.050  -0.126  0.2573 -0.8837 -0.0741
   16MOL0     N 1997  11.600   9.015   0.019  0.4907  0.3872  0.6681
   16MOL0     C 1998  11.570   8.889   0.074 -0.8039 -0.0503 -0.3205
   16MOL0     C 1999  11.593   8.910   0.207  0.3725 -0.7712 -0.2355
   16MOL0     C 2000  11.578   8.794   0.295 -0.3285 -0.0317 -0.0954
   16MOL0     C 2001  11.518   8.836   0.432 -0.7438 -1.4158 -0.2149
   16MOL0     C 2002  11.506   8.720   0.533 -0.5099  0.0836 -0.4104
   16MOL0     C 2003  11.649   8.691   0.591 -0.3336  0.2792  0.3132
   16MOL0     O 2004  11.650   8.571   0.674 -0.1623  0.3202  0.0418
   16MOL0     C 2005  11.611   8.452   0.612  0.6042 -0.4654  0.0357
   16MOL0     C 2006  11.550   8.357   0.687 -0.1564  0.2352  0.4144
   16MOL0     C 2007  11.503   8.239   0.637  0.0576 -0.6232  0.0964
   16MOL0     C 2008  11.540   8.207   0.505  0.5671 -0.4381  0.5383
   16MOL0     C 2009  11.511   8.071   0.460  0.2657  0.3563  0.7073
   16MOL0     O 2010  11.543   8.045   0.327 -0.6462 -0.2157  0.0348
   16MOL0     C 2011  11.558   7.922   0.281 -0.6997  0.7802  0.2260
   16MOL0     C 2012  11.500   7.891   0.159  0.1674 -0.4250 -0.2892
   16MOL0     C 2013  11.505   7.760   0.107 -0.4312  0.0384 -0.1781
   16MOL0     C 2014  11.563   7.659   0.185 -0.3141 -0.2812 -0.7863
   16MOL0     O 2015  11.572   7.530   0.151  0.7685  0.1128 -0.2726
   16MOL0     C 2016  11.498   7.483   0.041 -0.0379  0.2414  0.8428
   16MOL0     C 2017  11.573   7.493  -0.087 -0.4561  0.4243  0.6042
   16MOL0     C 2018  11.709   7.425  -0.061  0.1267 -0.1563 -0.1717
   16MOL0     C 2019  11.770   7.398  -0.195  0.5250 -0.3697 -0.0894
   16MOL0     C 2020  11.922   7.362  -0.184  0.1435  0.1512  0.1944
   16MOL0     C 2021  12.022   7.465  -0.154  0.5270 -0.9484  0.2176
   16MOL0     C 2022  12.172   7.407  -0.169 -0.8012 -0.1167  0.0483
   16MOL0     C 2023  12.272   7.529  -0.155 -0.0994 -0.3191 -0.4537
   16MOL0    Cl 2024  12.233   7.648  -0.016  0.0327  0.0260  0.2573
   16MOL0     C 2025  11.614   7.690   0.314  0.3051 -0.4792 -0.3276
   16MOL0     C 2026  11.612   7.818   0.357 -0.4217  0.2269 -0.5585
   16MOL0     O 2027  11.463   7.989   0.544  0.0060 -0.3146  0.6316
   16MOL0     C 2028  11.617   8.298   0.433  0.3717 -0.3034  0.8718
   16MOL0     C 2029  11.650   8.423   0.477 -0.4274  0.7252  0.4896
   16MOL0     N 2030  11.650   9.037   0.233 -0.2632  0.3512 -0.3114
   16MOL0     N 2031  11.656   9.099   0.117 -0.3797  0.5419 -0.4182
   16MOL0     C 2032  10.832   9.845   0.051 -0.0556  0.4635  1.1805
   16MOL0     C 2033  10.721   9.917   0.093  0.0228 -0.6825  0.0123
   16MOL0     C 2034  10.286   9.990   0.291 -0.7048  0.3178  0.3620
   16MOL0     C 2035  10.196   9.958   0.394 -0.6085  0.1323 -0.5009
   16MOL0     C 2036  10.081  10.031   0.405  0.4362 -0.1008  1.0544
   16MOL0     C 2037  10.042  10.133   0.317  0.3883 -0.5924 -0.3387
   16MOL0     O 2038   9.945  10.232   0.337 -0.0625 -0.3260 -0.0311
   16MOL0     C 2039   9.820  10.198   0.398  0.4960  0.2779 -0.1976
   16MOL0     C 2040   9.736  10.096   0.314 -0.5633 -0.4858 -0.6297
   16MOL0     C 2041   9.641  10.156   0.217  0.3047  0.2506  0.2538
   16MOL0     C 2042   9.708  10.220   0.096  0.0445 -0.1489  0.0477
   16MOL0     C 2043   9.609  10.256  -0.005 -1.2233 -0.2717 -0.0139
   16MOL0     C 2044   9.522  10.283  -0.082  0.3798 -0.5737  0.2978
   16MOL0     C 2045  10.135  10.165   0.220 -0.3794 -0.4323 -0.3704
   16MOL0     C 2046  10.254  10.093   0.203  1.3068  0.3272 -0.7765
   16MOL0     H 2047  10.505   9.658   0.127 -0.0397 -0.5343 -1.6615
   16MOL0     H 2048  10.700   9.539   0.046 -1.5038  0.0785 -3.7287
   16MOL0     H 2049  10.950   9.649  -0.197  0.2355  1.4733  0.9618
   16MOL0     H 2050  10.917   9.481  -0.116  3.2287 -2.2882 -1.4170
   16MOL0     H 2051  11.147   9.515  -0.037  2.2766 -1.6027 -1.2580
   16MOL0     H 2052  11.182   9.630  -0.162  2.8819 -1.1027  1.3816
   16MOL0     H 2053  11.149   9.474  -0.329  2.8785 -2.3376 -0.1290
   16MOL0     H 2054  11.051   9.358  -0.229 -1.1548  0.9528  4.3541
   16MOL0     H 2055  11.351   9.422  -0.177 -0.3968  1.1833 -0.2709
   16MOL0     H 2056  11.248   9.292  -0.109  2.3542  0.0045  1.1322
   16MOL0     H 2057  11.327   9.334  -0.397  2.8053 -1.5009  0.1465
   16MOL0     H 2058  11.243   9.195  -0.324 -0.2839  0.4595 -2.1808
   16MOL0     H 2059  11.530   9.265  -0.306 -0.9790  2.3570  1.1839
   16MOL0     H 2060  11.461   9.118  -0.359 -0.3363 -0.6785  0.0328
   16MOL0     H 2061  11.461   9.219  -0.072  2.3670 -1.0333  1.6061
   16MOL0     H 2062  11.364   9.081  -0.127  0.1442  1.1351  2.2620
   16MOL0     H 2063  11.680   9.097  -0.158  0.1084 -1.4518 -1.3976
   16MOL0     H 2064  11.584   8.957  -0.184  2.9858 -0.5977 -0.8353
   16MOL0     H 2065  11.533   8.801   0.023 -0.0077 -1.2300  1.0625
   16MOL0     H 2066  11.677   8.748   0.302  0.4322  1.5981  0.2773
   16MOL0     H 2067  11.515   8.718   0.248 -0.5007  1.9406 -3.3115
   16MOL0     H 2068  11.424   8.887   0.407  0.1852  0.7033  0.3921
   16MOL0     H 2069  11.585   8.911   0.474 -0.7595 -1.4735 -0.0848
   16MOL0     H 2070  11.437   8.749   0.613 -0.8933  4.1408 -1.9684
   16MOL0     H 2071  11.463   8.634   0.482  2.8504 -1.5008 -0.8878
   16MOL0     H 2072  11.681   8.776   0.652  3.5661 -0.5832 -0.2493
   16MOL0     H 2073  11.729   8.694   0.516 -0.1451 -0.8797  0.4455
   16MOL0     H 2074  11.521   8.393   0.786  0.8710  2.5674 -0.0686
   16MOL0     H 2075  11.444   8.165   0.691  1.5971 -2.2037 -0.2631
   16MOL0     H 2076  11.459   7.970   0.097 -2.8910 -0.6203  1.2692
   16MOL0     H 2077  11.471   7.733   0.008  0.5162 -5.8134  0.7163
   16MOL0     H 2078  11.406   7.543   0.040  0.0436  0.4547 -2.3543
   16MOL0     H 2079  11.469   7.379   0.060 -2.0133  0.0896 -2.2849
   16MOL0     H 2080  11.584   7.596  -0.123  2.2143 -0.2065 -0.6275
   16MOL0     H 2081  11.533   7.431  -0.168  2.6004 -0.0562 -0.6696
   16MOL0     H 2082  11.707   7.331  -0.005  3.2863  1.1029  2.4492
   16MOL0     H 2083  11.761   7.503  -0.004 -3.7616  1.7334  1.1348
   16MOL0     H 2084  11.716   7.318  -0.246 -0.6326  0.2299  0.1831
   16MOL0     H 2085  11.778   7.488  -0.256  2.7377 -0.0719  0.5233
   16MOL0     H 2086  11.956   7.321  -0.279 -0.4764 -0.2970  0.1621
   16MOL0     H 2087  11.928   7.273  -0.120  1.4043  0.4737  0.5498
   16MOL0     H 2088  11.994   7.494  -0.052  0.6242 -1.7817  0.4907
   16MOL0     H 2089  12.012   7.554  -0.217  5.4706  1.6457  2.4893
   16MOL0     H 2090  12.198   7.336  -0.090 -2.5809 -0.2874  0.5344
   16MOL0     H 2091  12.195   7.366  -0.267  0.6571 -1.6110  0.9711
   16MOL0     H 2092  12.281   7.596  -0.241  2.5484  1.4567  1.0330
   16MOL0     H 2093  12.366   7.478  -0.135  0.0795  1.3086  3.8111
   16MOL0     H 2094  11.655   7.610   0.374 -0.2368 -1.3041 -1.0269
   16MOL0     H 2095  11.642   7.847   0.458 -0.2166 -0.5003 -0.4017
   16MOL0     H 2096  11.661   8.275   0.336  0.7696  1.2007  0.6761
   16MOL0     H 2097  11.712   8.480   0.408 -1.0495  1.0316  0.1799
   16MOL0     H 2098  10.926   9.891   0.021 -1.6770  0.9637 -4.1114
   16MOL0     H 2099  10.730  10.023   0.117 -0.9117 -1.2779  3.5793
   16MOL0     H 2100  10.225   9.879   0.462  0.3756 -1.4044 -2.5955
   16MOL0     H 2101  10.021  10.000   0.489  3.1206 -3.6070  1.9146
   16MOL0     H 2102   9.765  10.293   0.400 -3.1598 -1.6265 -0.7758
   16MOL0     H 2103   9.835  10.162   0.500 -0.2349  0.8950  0.1396
   16MOL0     H 2104   9.799  10.029   0.254 -1.3603  1.2814 -3.7000
   16MOL0     H 2105   9.696  10.025   0.386  2.3155 -1.2470  0.3599
   16MOL0     H 2106   9.576  10.232   0.262 -1.8788 -0.2443 -1.8654
   16MOL0     H 2107   9.570  10.076   0.194 -3.6249  3.4116  0.2733
   16MOL0     H 2108   9.763  10.310   0.124 -0.6229 -0.2957  1.9182
   16MOL0     H 2109   9.788  10.157   0.056 -0.0895 -0.8256  0.8246
   16MOL0     H 2110   9.446  10.294  -0.157  1.4409  1.6246 -0.5437
   16MOL0     H 2111  10.119  10.248   0.152  1.2150 -1.2581 -1.8224
   16MOL0     H 2112  10.305  10.105   0.108 -0.8234  1.8081 -1.8315
   17MOL0     O 2113   5.966   9.425   6.362 -0.2582 -0.3171  0.4915
   17MOL0     C 2114   6.067   9.480   6.313 -0.0397 -0.9764 -0.4754
   17MOL0     O 2115   6.073   9.577   6.214  0.7550 -0.1718 -0.3826
   17MOL0     C 2116   5.962   9.589   6.126  0.0382  0.7649 -0.3154
   17MOL0     C 2117   5.974   9.578   5.993  0.8390  0.2448  1.0193
   17MOL0     C 2118   5.867   9.592   5.906  0.4154  0.6382  0.0778
   17MOL0     C 2119   5.746   9.638   5.961 -0.4242  0.1421  0.6574
   17MOL0     O 2120   5.652   9.678   5.877  0.2767 -0.1216  0.4826
   17MOL0     C 2121   5.541   9.748   5.925 -1.2502 -0.5534 -0.2409
   17MOL0     C 2122   5.463   9.792   5.801 -0.0314 -0.0590 -0.2866
   17MOL0     C 2123   5.314   9.818   5.849  1.1866  0.6860 -0.0134
   17MOL0     C 2124   5.215   9.852   5.731  0.0032  0.1626  0.3245
   17MOL0     C 2125   5.202   9.737   5.631  0.0192 -0.4653  0.0813
   17MOL0     C 2126   5.096   9.767   5.522  0.6169  0.0134  0.5433
   17MOL0     C 2127   5.108   9.668   5.403  0.0081 -0.4924 -0.0768
   17MOL0     C 2128   5.020   9.698   5.282  0.5371  0.0017  0.5602
   17MOL0     N 2129   4.921   9.591   5.265  0.0281 -0.4832  0.1205
   17MOL0     C 2130   4.882   9.515   5.161 -0.6104 -0.0173  0.7413
   17MOL0     C 2131   4.769   9.447   5.201 -0.2965 -0.2923  0.1128
   17MOL0     C 2132   4.703   9.325   5.126  0.3088  0.0025  0.0647
   17MOL0     C 2133   4.557   9.341   5.073  0.2083  0.2431  0.7320
   17MOL0     C 2134   4.442   9.322   5.184 -0.7458  0.7452 -0.1161
   17MOL0     C 2135   4.305   9.328   5.119  0.5460 -0.3935 -0.5972
   17MOL0     O 2136   4.197   9.367   5.216 -0.3570  0.1572 -0.2239
   17MOL0     C 2137   4.064   9.333   5.193  0.4541 -0.2006  0.7697
   17MOL0     C 2138   3.977   9.396   5.278 -0.3192  0.4140  0.7203
   17MOL0     C 2139   3.838   9.379   5.251  0.3007 -1.1369 -0.4639
   17MOL0     C 2140   3.783   9.295   5.156  0.2308  1.1648 -0.3246
   17MOL0     C 2141   3.635   9.261   5.138  0.0013 -0.7565  0.3561
   17MOL0     O 2142   3.597   9.196   5.028  0.2201 -0.1154 -0.5059
   17MOL0     C 2143   3.467   9.180   4.980 -0.0966 -0.6900 -0.2525
   17MOL0     C 2144   3.464   9.138   4.847  0.4331 -0.3071 -0.1756
   17MOL0     C 2145   3.336   9.123   4.779 -0.2753  0.1001  0.1023
   17MOL0     C 2146   3.222   9.147   4.848 -0.6994  0.3388  0.1095
   17MOL0     O 2147   3.098   9.140   4.797  0.5001  0.5432 -0.0459
   17MOL0     C 2148   3.058   9.024   4.715 -0.3323 -0.7467 -0.1360
   17MOL0     C 2149   3.058   8.897   4.801 -0.5526  0.4022 -0.5619
   17MOL0     C 2150   3.011   8.767   4.734  0.0803  0.1306 -0.2205
   17MOL0     C 2151   2.866   8.780   4.691  0.3110  0.9807  0.9589
   17MOL0     C 2152   2.762   8.782   4.791  0.0404  0.0685 -0.4739
   17MOL0     C 2153   2.622   8.744   4.733  0.1787  0.0782  0.0459
   17MOL0     C 2154   2.517   8.786   4.836 -0.7971  0.2149  0.9216
   17MOL0     C 2155   2.376   8.741   4.780  0.0474  0.6900  0.4390
   17MOL0    Cl 2156   2.357   8.578   4.736 -0.1743  0.0610  0.1330
   17MOL0     C 2157   3.226   9.181   4.983 -0.2850  0.2627  0.3137
   17MOL0     C 2158   3.347   9.188   5.045  0.3653  0.6966 -0.3619
   17MOL0     O 2159   3.561   9.299   5.228  0.6947 -0.0111  1.2824
   17MOL0     C 2160   3.877   9.242   5.066 -0.5000 -0.3547  0.3077
   17MOL0     C 2161   4.018   9.261   5.088 -0.0163  0.4227  0.0829
   17MOL0     N 2162   4.734   9.494   5.328  0.6725  0.0387  0.6548
   17MOL0     N 2163   4.817   9.584   5.354 -0.3167 -0.9980 -0.0238
   17MOL0     C 2164   5.736   9.646   6.101  0.1825  0.4857 -1.5763
   17MOL0     C 2165   5.843   9.615   6.185  0.3844 -1.2354 -0.6642
   17MOL0     C 2166   6.196   9.433   6.365 -0.0209  0.5634  0.8626
   17MOL0     C 2167   6.201   9.348   6.481 -0.2546 -0.7285 -1.0082
   17MOL0     C 2168   6.316   9.278   6.516 -0.1217  0.3124  0.0205
   17MOL0     C 2169   6.429   9.287   6.438  0.5063  0.3041 -0.9487
   17MOL0     O 2170   6.535   9.215   6.481 -0.4642 -0.6893 -0.0497
   17MOL0     C 2171   6.651   9.231   6.413 -0.8432 -0.8825  0.0109
   17MOL0     C 2172   6.769   9.143   6.471  0.3241  0.1420 -0.0828
   17MOL0     C 2173   6.910   9.151   6.390 -1.0555 -0.7430  0.3134
   17MOL0     C 2174   7.014   9.248   6.451 -0.6472  0.5276  0.0596
   17MOL0     C 2175   7.134   9.236   6.366  0.5088 -0.3494  0.3141
   17MOL0     C 2176   7.229   9.219   6.288 -0.2028 -0.7892 -0.3110
   17MOL0     C 2177   6.426   9.373   6.325  0.1993 -0.2666 -0.0998
   17MOL0     C 2178   6.309   9.446   6.297 -0.4277 -0.4221  0.2345
   17MOL0     H 2179   6.076   9.549   5.969 -0.1379 -2.3138 -0.4496
   17MOL0     H 2180   5.890   9.586   5.800  1.6146  2.2890  0.2126
   17MOL0     H 2181   5.566   9.833   5.990 -0.7113  0.1159 -1.2933
   17MOL0     H 2182   5.488   9.684   5.996 -1.2194  2.5071  2.8641
   17MOL0     H 2183   5.471   9.717   5.722  0.2291  0.8052 -1.1043
   17MOL0     H 2184   5.512   9.875   5.750  0.7810 -0.1720  0.2856
   17MOL0     H 2185   5.311   9.903   5.918  1.5219 -1.5340  2.9011
   17MOL0     H 2186   5.284   9.728   5.903 -0.9284  2.2098  1.5106
   17MOL0     H 2187   5.121   9.892   5.770  0.3723  1.1319  0.2495
   17MOL0     H 2188   5.254   9.938   5.676 -0.7471  3.5330  4.5625
   17MOL0     H 2189   5.179   9.643   5.681 -0.4107 -0.1627  0.4628
   17MOL0     H 2190   5.302   9.731   5.587  0.5224  1.1116  0.9576
   17MOL0     H 2191   5.095   9.870   5.484 -1.8001  0.3313  1.2653
   17MOL0     H 2192   4.998   9.761   5.571 -0.3840 -0.8555 -1.4613
   17MOL0     H 2193   5.213   9.667   5.370 -0.2131  0.0807 -0.8296
   17MOL0     H 2194   5.080   9.570   5.442 -0.9858 -0.3358 -0.3884
   17MOL0     H 2195   5.082   9.713   5.193 -2.1407  0.0218 -1.4412
   17MOL0     H 2196   4.963   9.791   5.288 -0.8915 -0.5068 -2.8319
   17MOL0     H 2197   4.934   9.486   5.070  3.0600 -0.1122  2.7035
   17MOL0     H 2198   4.691   9.243   5.197 -0.3135 -0.5296 -0.6373
   17MOL0     H 2199   4.760   9.303   5.035 -0.2915 -0.2358 -0.2607
   17MOL0     H 2200   4.545   9.259   5.001  0.2166 -1.1577  2.2651
   17MOL0     H 2201   4.542   9.437   5.023  1.4727  0.6167  1.0428
   17MOL0     H 2202   4.454   9.228   5.239 -0.6915  0.3254 -0.8353
   17MOL0     H 2203   4.451   9.403   5.258 -0.5212  0.4268  0.2078
   17MOL0     H 2204   4.276   9.228   5.084 -1.0573 -0.8729  1.8747
   17MOL0     H 2205   4.301   9.399   5.035 -1.6770 -2.2349 -2.1905
   17MOL0     H 2206   4.022   9.470   5.344 -0.4719  1.0133  0.1546
   17MOL0     H 2207   3.769   9.431   5.316 -2.1490  0.6183 -4.0974
   17MOL0     H 2208   3.554   9.112   4.792 -0.3588 -2.8132 -0.4392
   17MOL0     H 2209   3.334   9.090   4.675 -1.2058 -1.1933  0.5071
   17MOL0     H 2210   3.120   9.003   4.627 -2.5046 -3.4968 -1.1375
   17MOL0     H 2211   2.962   9.053   4.672  0.8085  0.6864 -1.8514
   17MOL0     H 2212   3.007   8.917   4.896 -2.6179  1.8784 -1.8968
   17MOL0     H 2213   3.162   8.874   4.825 -1.1051 -0.3428  1.2789
   17MOL0     H 2214   3.022   8.682   4.801  0.8321  0.1819 -0.2671
   17MOL0     H 2215   3.081   8.750   4.651 -0.5361 -2.1252 -0.3452
   17MOL0     H 2216   2.842   8.864   4.625 -2.1611  0.7993  1.5007
   17MOL0     H 2217   2.842   8.683   4.645  0.6498  1.4009 -0.1341
   17MOL0     H 2218   2.751   8.883   4.832 -1.1146  0.8335 -2.4885
   17MOL0     H 2219   2.796   8.711   4.867  2.9211  2.0398  0.2550
   17MOL0     H 2220   2.606   8.636   4.731 -2.6290  0.3780  1.5970
   17MOL0     H 2221   2.608   8.793   4.636 -3.1702 -0.7314  0.0093
   17MOL0     H 2222   2.527   8.729   4.929 -1.0490  2.0780  2.1362
   17MOL0     H 2223   2.524   8.891   4.867 -0.6771  0.3638  0.4040
   17MOL0     H 2224   2.355   8.801   4.692  1.3409  3.0703  1.6246
   17MOL0     H 2225   2.292   8.760   4.847  1.5397  4.3422  1.5383
   17MOL0     H 2226   3.133   9.204   5.034 -1.2208  0.1433 -1.2881
   17MOL0     H 2227   3.359   9.210   5.150 -0.1648  0.7568 -0.3112
   17MOL0     H 2228   3.841   9.185   4.981 -2.0722  1.3032 -0.2021
   17MOL0     H 2229   4.095   9.238   5.015  1.8355  3.3144  0.9638
   17MOL0     H 2230   5.650   9.681   6.156  0.1624 -1.6025 -0.1455
   17MOL0     H 2231   5.834   9.616   6.293 -0.1797 -0.1868 -0.7178
   17MOL0     H 2232   6.106   9.345   6.534  1.1915  2.7199  2.2995
   17MOL0     H 2233   6.320   9.213   6.602  2.3920  0.7671  0.3189
   17MOL0     H 2234   6.682   9.336   6.422 -0.8470 -0.3244 -4.1491
   17MOL0     H 2235   6.632   9.208   6.308  0.6198  2.2508 -1.0855
   17MOL0     H 2236   6.777   9.179   6.574 -1.5837 -1.7464  0.8108
   17MOL0     H 2237   6.726   9.042   6.468 -3.3042  1.5951 -1.6300
   17MOL0     H 2238   6.889   9.183   6.287 -1.9241 -0.8368  0.4500
   17MOL0     H 2239   6.968   9.059   6.386  0.7774  0.4196 -0.9000
   17MOL0     H 2240   6.968   9.347   6.446 -2.1193 -0.2065 -1.9177
   17MOL0     H 2241   7.047   9.210   6.549 -0.6769  0.7564  0.1576
   17MOL0     H 2242   7.314   9.197   6.226  0.5288  0.0415  0.3671
   17MOL0     H 2243   6.502   9.377   6.248  0.2457  2.0782 -0.0001
   17MOL0     H 2244   6.311   9.507   6.207 -1.2765  1.0927  1.2104
   18MOL0     O 2245   2.930   1.491   0.228  0.0957 -0.4691 -0.6259
   18MOL0     C 2246   2.867   1.555   0.148 -0.5281 -0.1546  0.3349
   18MOL0     O 2247   2.739   1.590   0.141  0.5584  0.7864  0.0165
   18MOL0     C 2248   2.653   1.542   0.243  0.6499 -0.2205  0.6064
   18MOL0     C 2249   2.660   1.419   0.321  0.0948  0.3999  0.3307
   18MOL0     C 2250   2.554   1.375   0.407  0.8048  0.5084  0.2809
   18MOL0     C 2251   2.440   1.455   0.419  0.1880 -0.2493  0.4906
   18MOL0     O 2252   2.334   1.409   0.505 -0.2858 -0.0232  0.2759
   18MOL0     C 2253   2.267   1.495   0.594  1.6076  0.3294 -0.7172
   18MOL0     C 2254   2.194   1.399   0.696 -0.0343  0.6095 -0.1197
   18MOL0     C 2255   2.133   1.468   0.809  0.2887 -0.1552 -0.5805
   18MOL0     C 2256   2.012   1.391   0.871 -0.2923 -0.1456  0.9214
   18MOL0     C 2257   1.906   1.472   0.949  0.2755 -0.7808 -1.0592
   18MOL0     C 2258   1.842   1.399   1.067 -0.7159 -0.3378  0.6223
   18MOL0     C 2259   1.743   1.491   1.136  0.1586  0.3957 -0.2273
   18MOL0     C 2260   1.669   1.422   1.245  0.5711 -0.2362 -0.0867
   18MOL0     N 2261   1.614   1.508   1.348  0.6891  0.0815 -0.5156
   18MOL0     C 2262   1.543   1.626   1.321 -0.0871 -0.7708 -0.7785
   18MOL0     C 2263   1.505   1.670   1.437  0.2460 -0.0975  0.1249
   18MOL0     C 2264   1.422   1.786   1.455 -1.0474 -0.4860  0.3457
   18MOL0     C 2265   1.274   1.767   1.465  1.5853 -0.2409  0.1163
   18MOL0     C 2266   1.219   1.744   1.323  0.0557 -0.4655 -0.0450
   18MOL0     C 2267   1.061   1.735   1.328 -0.9166  0.2904 -0.0613
   18MOL0     O 2268   1.015   1.711   1.193 -0.3642 -0.0995 -0.4953
   18MOL0     C 2269   0.877   1.694   1.181  0.4035 -0.0427  1.0584
   18MOL0     C 2270   0.829   1.665   1.052 -0.2993  0.2888 -0.3817
   18MOL0     C 2271   0.691   1.658   1.025 -0.3867  0.3492 -0.1559
   18MOL0     C 2272   0.597   1.665   1.132 -0.2847 -0.0836  0.8883
   18MOL0     C 2273   0.455   1.647   1.095  0.1529  0.3364 -1.3254
   18MOL0     O 2274   0.421   1.648   0.962  0.4177 -0.4007 -0.4479
   18MOL0     C 2275   0.297   1.621   0.914  0.2586 -0.7592 -0.5314
   18MOL0     C 2276   0.240   1.696   0.804 -0.5631 -0.4826 -1.2599
   18MOL0     C 2277   0.114   1.657   0.752  0.4767 -0.2263  0.0645
   18MOL0     C 2278   0.057   1.534   0.791  0.3170 -0.2383 -0.5486
   18MOL0     O 2279  -0.055   1.483   0.746  1.0068 -0.2175  1.1400
   18MOL0     C 2280  -0.153   1.568   0.689 -0.7323  0.0961  0.3514
   18MOL0     C 2281  -0.205   1.665   0.789 -0.4544  0.1369 -0.2624
   18MOL0     C 2282  -0.303   1.771   0.739  0.6156 -0.4657 -0.0551
   18MOL0     C 2283  -0.428   1.720   0.685  0.2836  0.6435  0.9407
   18MOL0     C 2284  -0.539   1.821   0.672 -0.0896 -0.0137 -0.3055
   18MOL0     C 2285  -0.675   1.771   0.628  0.0337 -0.1994 -0.0178
   18MOL0     C 2286  -0.765   1.893   0.625 -0.1791 -1.3160 -0.5922
   18MOL0     C 2287  -0.857   1.893   0.743  0.5286  0.2003  1.2959
   18MOL0    Cl 2288  -0.972   1.747   0.737  0.2845  0.3994  0.1315
   18MOL0     C 2289   0.113   1.468   0.905  0.5344 -0.2785  0.3049
   18MOL0     C 2290   0.230   1.514   0.961 -0.4562  1.2105  1.4081
   18MOL0     O 2291   0.369   1.652   1.191 -0.1754 -0.1181 -0.3699
   18MOL0     C 2292   0.647   1.702   1.253  0.1724 -0.2840  0.0252
   18MOL0     C 2293   0.781   1.725   1.279 -0.4010 -1.0941  0.0542
   18MOL0     N 2294   1.557   1.594   1.537 -1.0993 -0.6584 -0.5336
   18MOL0     N 2295   1.627   1.502   1.486 -0.2012 -0.2954  0.8194
   18MOL0     C 2296   2.438   1.580   0.356 -0.1521 -0.3675 -0.6830
   18MOL0     C 2297   2.539   1.615   0.262  0.1091 -1.0107  0.4221
   18MOL0     C 2298   2.943   1.607   0.037 -0.6575  0.8139  0.1337
   18MOL0     C 2299   3.088   1.612   0.048  0.3572 -0.1280 -0.6046
   18MOL0     C 2300   3.156   1.687  -0.050 -1.3222  0.6977 -0.3924
   18MOL0     C 2301   3.093   1.754  -0.152  0.6860  0.4078 -0.3761
   18MOL0     O 2302   3.173   1.824  -0.233 -0.6535  0.3868 -0.7211
   18MOL0     C 2303   3.129   1.963  -0.254  0.3289  0.8187  0.8047
   18MOL0     C 2304   3.200   2.042  -0.365 -0.5991  0.5757  0.1991
   18MOL0     C 2305   3.135   2.028  -0.503 -0.4991  0.1035 -0.3226
   18MOL0     C 2306   3.141   1.890  -0.574 -0.6702 -0.4898  0.3434
   18MOL0     C 2307   3.015   1.822  -0.565  0.0793  0.3871 -0.7174
   18MOL0     C 2308   2.901   1.782  -0.545 -0.4436  0.2836  0.0410
   18MOL0     C 2309   2.960   1.737  -0.167 -0.2574  0.1164  0.3161
   18MOL0     C 2310   2.883   1.658  -0.075  0.5100 -0.0636  0.5360
   18MOL0     H 2311   2.748   1.357   0.307 -0.9140 -0.7859 -1.0661
   18MOL0     H 2312   2.558   1.284   0.466  1.2074  0.5700  0.3566
   18MOL0     H 2313   2.189   1.543   0.533 -0.7801 -3.6171 -1.0722
   18MOL0     H 2314   2.323   1.566   0.656  0.4322 -0.3120  1.1421
   18MOL0     H 2315   2.276   1.339   0.736  0.1954  1.2056  0.3064
   18MOL0     H 2316   2.126   1.334   0.640  1.0213 -1.3526  0.7839
   18MOL0     H 2317   2.109   1.570   0.775 -0.3303  0.2106  0.8706
   18MOL0     H 2318   2.205   1.469   0.891 -0.0514 -3.0512 -0.1392
   18MOL0     H 2319   1.958   1.345   0.788  1.5454 -0.2606 -0.2480
   18MOL0     H 2320   2.052   1.316   0.940  0.0588  0.8831  1.8738
   18MOL0     H 2321   1.825   1.498   0.880 -0.4586 -0.5101 -0.1206
   18MOL0     H 2322   1.946   1.562   0.997 -2.0183  0.5833 -1.5555
   18MOL0     H 2323   1.914   1.374   1.146 -0.6658 -1.0259  0.3593
   18MOL0     H 2324   1.780   1.314   1.039 -0.0070  0.2793 -3.4733
   18MOL0     H 2325   1.789   1.584   1.171  4.7004 -1.4365 -0.5986
   18MOL0     H 2326   1.674   1.524   1.057  1.0890  1.5655 -0.5804
   18MOL0     H 2327   1.753   1.362   1.282  2.6176  1.8407 -1.1056
   18MOL0     H 2328   1.591   1.354   1.209  2.3611 -1.6395 -1.4828
   18MOL0     H 2329   1.506   1.661   1.225  0.0655 -2.0924 -1.3481
   18MOL0     H 2330   1.449   1.848   1.368 -1.9127 -0.6868 -0.0746
   18MOL0     H 2331   1.443   1.830   1.552 -5.2873  1.7670  0.4668
   18MOL0     H 2332   1.226   1.857   1.504  2.2000  0.2480 -0.2394
   18MOL0     H 2333   1.258   1.695   1.546  4.0005  0.2510  1.1124
   18MOL0     H 2334   1.256   1.831   1.269  2.4389 -2.0642 -1.1460
   18MOL0     H 2335   1.267   1.654   1.285  0.7133 -1.1052  2.1396
   18MOL0     H 2336   1.014   1.830   1.352 -2.5774 -0.3340 -0.7143
   18MOL0     H 2337   1.032   1.652   1.394  1.6561 -0.1987  0.5992
   18MOL0     H 2338   0.911   1.663   0.981  2.3976 -1.6976  2.5030
   18MOL0     H 2339   0.662   1.639   0.922  0.6385  1.8719 -0.7755
   18MOL0     H 2340   0.292   1.780   0.759 -2.3305  1.6926  0.5166
   18MOL0     H 2341   0.075   1.710   0.665  0.4772 -0.3637 -0.0204
   18MOL0     H 2342  -0.239   1.519   0.641 -0.6791  1.1532 -0.8786
   18MOL0     H 2343  -0.100   1.615   0.606  0.4411 -2.8172 -0.6920
   18MOL0     H 2344  -0.125   1.721   0.837 -1.0826 -0.2928  1.3417
   18MOL0     H 2345  -0.243   1.602   0.870 -0.6308  1.4815  0.7160
   18MOL0     H 2346  -0.244   1.820   0.661  0.8531  0.6389  0.7917
   18MOL0     H 2347  -0.326   1.832   0.827  2.0990 -2.0829  1.5311
   18MOL0     H 2348  -0.393   1.669   0.595 -1.1146  1.6040 -0.2105
   18MOL0     H 2349  -0.455   1.627   0.734  1.7479 -0.7166 -0.6979
   18MOL0     H 2350  -0.514   1.903   0.604 -1.2570  0.6147 -0.0105
   18MOL0     H 2351  -0.551   1.874   0.767  0.5948 -3.0780  1.6448
   18MOL0     H 2352  -0.716   1.704   0.703 -1.2518  1.6522  1.0101
   18MOL0     H 2353  -0.673   1.721   0.531  0.2302 -0.3640  0.0686
   18MOL0     H 2354  -0.702   1.981   0.613 -0.5927 -1.1640 -1.8046
   18MOL0     H 2355  -0.826   1.897   0.534 -0.8183 -0.4631 -0.1497
   18MOL0     H 2356  -0.929   1.974   0.753  1.0790  0.8031  0.5058
   18MOL0     H 2357  -0.797   1.895   0.835 -2.0813  0.9369  3.0793
   18MOL0     H 2358   0.047   1.388   0.939  0.3192 -1.1268 -1.9418
   18MOL0     H 2359   0.280   1.463   1.042 -2.9805 -0.7994  1.8024
   18MOL0     H 2360   0.566   1.711   1.324  1.4706 -1.2131  1.6897
   18MOL0     H 2361   0.814   1.762   1.375  2.4822  2.1625 -1.9409
   18MOL0     H 2362   2.354   1.645   0.377  3.3117  4.3308  0.2278
   18MOL0     H 2363   2.539   1.702   0.197 -0.5500 -0.5179  1.0647
   18MOL0     H 2364   3.147   1.579   0.133 -2.1305 -0.6999  1.0205
   18MOL0     H 2365   3.264   1.701  -0.046 -1.3697  1.0565 -0.3520
   18MOL0     H 2366   3.157   2.013  -0.161  2.5634 -0.9784  1.2164
   18MOL0     H 2367   3.020   1.968  -0.261  0.2169 -0.9890  0.8575
   18MOL0     H 2368   3.212   2.148  -0.343 -1.8121  0.4402  1.5971
   18MOL0     H 2369   3.300   1.998  -0.376 -1.8060 -1.7052 -4.4677
   18MOL0     H 2370   3.182   2.099  -0.571 -1.1219 -1.2505 -2.2381
   18MOL0     H 2371   3.034   2.069  -0.488 -0.3966  0.6244 -1.0199
   18MOL0     H 2372   3.174   1.903  -0.678 -1.2830 -1.5136  0.0010
   18MOL0     H 2373   3.213   1.821  -0.529  0.1923  1.7789  2.6992
   18MOL0     H 2374   2.808   1.729  -0.535  0.5410 -1.4544  0.3682
   18MOL0     H 2375   2.907   1.775  -0.254  0.0474  3.4485  1.4536
   18MOL0     H 2376   2.777   1.638  -0.092  1.2787 -1.4266 -4.0817
   19MOL0     O 2377   8.208   8.193  10.148  0.7483  0.0334  0.1712
   19MOL0     C 2378   8.221   8.114  10.243  0.0596  0.1301  0.9670
   19MOL0     O 2379   8.343   8.072  10.286 -0.8493 -0.0712 -0.0775
   19MOL0     C 2380   8.452   8.149  10.262 -1.4352 -0.7837 -0.1789
   19MOL0     C 2381   8.455   8.288  10.300  0.4711  0.1927  0.2120
   19MOL0     C 2382   8.560   8.373  10.272 -0.0006 -0.1830 -0.0164
   19MOL0     C 2383   8.676   8.331  10.210  0.9449  0.1826  0.9071
   19MOL0     O 2384   8.790   8.404  10.203  0.5655  0.0451 -0.2155
   19MOL0     C 2385   8.868   8.380  10.320  0.1214 -0.5353  0.4909
   19MOL0     C 2386   9.017   8.348  10.289  0.0664 -0.2115  0.4532
   19MOL0     C 2387   9.110   8.371  10.409  0.2715  0.5041  0.5265
   19MOL0     C 2388   9.060   8.331  10.542 -0.5135  0.4617 -0.8885
   19MOL0     C 2389   9.047   8.178  10.571 -0.3783 -0.1083  0.3900
   19MOL0     C 2390   8.997   8.143  10.714  1.1267  0.2468 -0.0064
   19MOL0     C 2391   8.951   8.001  10.729 -0.1985  0.3084  0.0216
   19MOL0     C 2392   8.918   7.977  10.876  0.1638  0.5002 -0.1877
   19MOL0     N 2393   8.810   7.878  10.897  0.3455  0.3609  0.7302
   19MOL0     C 2394   8.801   7.768  10.816 -0.8803 -1.0238  0.1960
   19MOL0     C 2395   8.686   7.709  10.850  0.3442  0.2994 -0.3010
   19MOL0     C 2396   8.648   7.583  10.782 -0.1223  0.2169 -0.9752
   19MOL0     C 2397   8.511   7.533  10.839 -0.5275  0.0593  0.5206
   19MOL0     C 2398   8.492   7.385  10.834  0.3985  0.4687  0.3118
   19MOL0     C 2399   8.476   7.329  10.690  0.1746  0.0341 -0.6906
   19MOL0     O 2400   8.350   7.372  10.633 -0.3460 -0.2134  0.7475
   19MOL0     C 2401   8.243   7.285  10.648  0.6736 -0.5909 -0.2691
   19MOL0     C 2402   8.229   7.164  10.731 -0.8339 -0.4803  0.1935
   19MOL0     C 2403   8.109   7.092  10.728  0.8242 -1.6158  0.9824
   19MOL0     C 2404   8.002   7.133  10.645  0.3990 -0.5142  0.4036
   19MOL0     C 2405   7.876   7.060  10.662  1.2218  0.6706 -0.1803
   19MOL0     O 2406   7.770   7.118  10.596 -0.2032 -1.1713 -0.0853
   19MOL0     C 2407   7.646   7.063  10.589  0.7710  0.1779  0.8681
   19MOL0     C 2408   7.568   7.140  10.499 -0.5449  0.7414 -1.2235
   19MOL0     C 2409   7.433   7.110  10.462 -0.7463 -0.5158  0.8028
   19MOL0     C 2410   7.379   7.015  10.548  0.6696 -0.2257 -0.0869
   19MOL0     O 2411   7.247   6.990  10.569  0.1823 -0.1351 -0.3803
   19MOL0     C 2412   7.149   7.071  10.500 -0.0586 -0.4311 -0.0131
   19MOL0     C 2413   7.154   7.225  10.531 -0.2951  0.1540 -0.1168
   19MOL0     C 2414   7.025   7.299  10.512  0.5849 -0.1287 -0.3611
   19MOL0     C 2415   6.971   7.312  10.368 -0.1939 -0.2966 -0.3943
   19MOL0     C 2416   7.058   7.393  10.277  0.5143 -0.1594 -0.3605
   19MOL0     C 2417   6.987   7.436  10.149  0.2180 -0.6721  1.0127
   19MOL0     C 2418   7.075   7.509  10.054 -0.1980  0.2835  0.8335
   19MOL0     C 2419   7.004   7.547   9.925 -0.7105 -0.2236 -0.2887
   19MOL0    Cl 2420   7.121   7.537   9.782  0.1960  0.1557 -0.1360
   19MOL0     C 2421   7.456   6.929  10.628  0.0858  0.0978 -0.3816
   19MOL0     C 2422   7.584   6.955  10.656  0.6010 -0.2770 -0.3143
   19MOL0     O 2423   7.865   6.955  10.730 -0.5555  0.0397  0.5311
   19MOL0     C 2424   8.017   7.253  10.568 -0.3002  0.4651  0.3090
   19MOL0     C 2425   8.134   7.328  10.573  0.7524 -1.0154 -0.5243
   19MOL0     N 2426   8.619   7.786  10.950 -0.8692 -0.1388 -0.7981
   19MOL0     N 2427   8.695   7.893  10.978  1.0816  0.3151 -0.2459
   19MOL0     C 2428   8.675   8.191  10.177  1.0337 -0.8492 -0.3259
   19MOL0     C 2429   8.567   8.106  10.201  0.0504  0.8574 -0.6103
   19MOL0     C 2430   8.097   8.053  10.296  0.4196 -0.1571 -0.1160
   19MOL0     C 2431   7.973   8.093  10.254  0.4462  0.3421  0.0568
   19MOL0     C 2432   7.852   8.042  10.311  0.0382 -0.0496 -0.4132
   19MOL0     C 2433   7.868   7.947  10.415 -0.6697  0.1029  0.2965
   19MOL0     O 2434   7.763   7.882  10.477  0.0012  0.1688  0.0226
   19MOL0     C 2435   7.639   7.949  10.499  0.8250  0.0199 -0.3750
   19MOL0     C 2436   7.549   7.883  10.599  0.9967  0.4003 -0.9442
   19MOL0     C 2437   7.408   7.951  10.605  0.2466  0.2029 -0.0428
   19MOL0     C 2438   7.412   8.103  10.655  1.1391  0.6123  0.1766
   19MOL0     C 2439   7.301   8.175  10.607  0.8263 -0.4120 -1.0655
   19MOL0     C 2440   7.202   8.230  10.558  0.5793  0.0707  0.4150
   19MOL0     C 2441   7.991   7.905  10.455  0.3101 -0.1778 -0.4339
   19MOL0     C 2442   8.104   7.958  10.398 -0.4216 -0.3809 -0.3047
   19MOL0     H 2443   8.363   8.333  10.338  1.7653  3.2499 -0.0123
   19MOL0     H 2444   8.560   8.472  10.317  1.1263  1.3844 -3.1817
   19MOL0     H 2445   8.828   8.300  10.383 -0.2272 -0.1942  0.7091
   19MOL0     H 2446   8.849   8.471  10.378  2.0685 -0.7374  1.5227
   19MOL0     H 2447   9.040   8.402  10.196  1.1788 -1.8437 -0.2841
   19MOL0     H 2448   9.029   8.244  10.256  2.2687  0.0797  0.2088
   19MOL0     H 2449   9.128   8.478  10.400 -0.3469  0.4901 -1.3068
   19MOL0     H 2450   9.203   8.322  10.379 -1.0178 -1.2758 -0.8123
   19MOL0     H 2451   9.127   8.375  10.616 -2.1645 -0.1788  1.0722
   19MOL0     H 2452   8.967   8.382  10.570  0.5472  0.9872  2.0717
   19MOL0     H 2453   9.144   8.128  10.560 -0.5627 -0.1674 -1.2082
   19MOL0     H 2454   8.983   8.134  10.493  2.0926  0.9175 -2.4159
   19MOL0     H 2455   8.916   8.207  10.750 -0.5030 -0.2252 -2.5739
   19MOL0     H 2456   9.083   8.158  10.781  2.4033 -1.2652 -1.2175
   19MOL0     H 2457   8.873   7.975  10.657  2.1663  0.2376 -2.6872
   19MOL0     H 2458   9.039   7.945  10.696 -0.1940  0.9357 -1.0938
   19MOL0     H 2459   8.890   8.072  10.922  1.0812 -0.2443  2.0759
   19MOL0     H 2460   9.015   7.952  10.921  1.9870  2.3482 -2.7583
   19MOL0     H 2461   8.882   7.735  10.751  3.2538  4.2235  1.9547
   19MOL0     H 2462   8.732   7.516  10.800 -0.1023  0.6295  0.6189
   19MOL0     H 2463   8.640   7.594  10.673 -1.3114  0.1918 -0.9058
   19MOL0     H 2464   8.427   7.577  10.784 -0.5383 -2.6765 -1.9081
   19MOL0     H 2465   8.496   7.552  10.945 -1.2599  0.4539  0.3522
   19MOL0     H 2466   8.573   7.331  10.884 -0.5471  0.2088  1.6132
   19MOL0     H 2467   8.403   7.363  10.893  1.5156  0.4980  2.0572
   19MOL0     H 2468   8.491   7.221  10.699 -1.5138 -0.1650 -0.0016
   19MOL0     H 2469   8.561   7.373  10.637 -0.7721  2.6491 -0.1944
   19MOL0     H 2470   8.321   7.136  10.780  0.5163  1.2897 -1.1641
   19MOL0     H 2471   8.092   7.011  10.799  0.9814 -2.1223  0.4517
   19MOL0     H 2472   7.618   7.232  10.468  0.2996  0.8285  0.3288
   19MOL0     H 2473   7.384   7.174  10.389 -0.2846  3.2340  3.4778
   19MOL0     H 2474   7.050   7.041  10.536 -1.3758  1.4534 -1.8390
   19MOL0     H 2475   7.147   7.055  10.392  0.2717  1.0180 -0.2547
   19MOL0     H 2476   7.227   7.268  10.462 -1.6982  0.6523 -1.3254
   19MOL0     H 2477   7.189   7.233  10.634 -0.2288  2.4247 -0.2782
   19MOL0     H 2478   7.043   7.402  10.543  2.1048 -0.0751 -1.3621
   19MOL0     H 2479   6.945   7.243  10.561 -1.9468  3.7021  0.3273
   19MOL0     H 2480   6.968   7.208  10.334  1.5667 -1.3548  2.3440
   19MOL0     H 2481   6.866   7.343  10.364 -0.1652  0.3084  1.9710
   19MOL0     H 2482   7.150   7.336  10.259  1.5840  2.1515 -2.7634
   19MOL0     H 2483   7.080   7.488  10.326  1.2157 -0.5991  0.2071
   19MOL0     H 2484   6.898   7.498  10.167  1.2197  0.3315  2.7491
   19MOL0     H 2485   6.955   7.350  10.088  1.3243  0.6719 -1.6023
   19MOL0     H 2486   7.106   7.603  10.101 -1.3501  0.2068  1.7951
   19MOL0     H 2487   7.168   7.455  10.034  0.6708  1.0613  2.5387
   19MOL0     H 2488   6.968   7.651   9.923 -0.6470 -0.1611  0.9119
   19MOL0     H 2489   6.922   7.477   9.911 -0.7492 -0.7759  2.2407
   19MOL0     H 2490   7.403   6.861  10.694  2.8437  0.4855  2.4354
   19MOL0     H 2491   7.627   6.887  10.727 -1.8373 -1.0602  0.5224
   19MOL0     H 2492   7.944   7.302  10.504  1.6022  1.5259 -1.1304
   19MOL0     H 2493   8.145   7.406  10.498 -1.7963 -0.3178 -0.2716
   19MOL0     H 2494   8.770   8.148  10.146  2.2411 -1.0840  3.1876
   19MOL0     H 2495   8.570   8.005  10.161 -2.6510  0.6204 -0.3897
   19MOL0     H 2496   7.979   8.164  10.172  1.7930  1.5042  1.1274
   19MOL0     H 2497   7.755   8.052  10.263  0.9628  1.3983 -2.1147
   19MOL0     H 2498   7.581   7.956  10.407 -0.7675 -1.8892  0.4373
   19MOL0     H 2499   7.676   8.049  10.526  0.0788  0.4908 -1.0465
   19MOL0     H 2500   7.527   7.779  10.571 -1.0679 -0.6643  3.7170
   19MOL0     H 2501   7.583   7.884  10.702 -2.2352  0.3399  0.2475
   19MOL0     H 2502   7.342   7.897  10.674  1.3579 -1.2613 -0.0874
   19MOL0     H 2503   7.357   7.950  10.508  1.8554  0.1895 -0.9174
   19MOL0     H 2504   7.405   8.104  10.764 -2.8999  1.0870  0.0432
   19MOL0     H 2505   7.508   8.146  10.625  0.9433  2.6293  2.1775
   19MOL0     H 2506   7.111   8.271  10.520  1.5545  2.3237  0.3473
   19MOL0     H 2507   8.001   7.829  10.531  1.7055  0.3588 -0.0448
   19MOL0     H 2508   8.206   7.932  10.426 -1.2579 -3.9540 -0.1363
   20MOL0     O 2509   8.436   5.913   8.311  0.1202 -0.4273 -0.2140
   20MOL0     C 2510   8.476   5.941   8.429  0.0238  0.6297  0.1657
   20MOL0     O 2511   8.397   5.989   8.530 -0.1693  0.4400 -0.0441
   20MOL0     C 2512   8.264   6.029   8.520 -0.3620 -0.3599  0.0136
   20MOL0     C 2513   8.184   6.027   8.636 -0.3311  0.6099  0.0835
   20MOL0     C 2514   8.060   6.075   8.643  0.5697  0.8061 -0.3488
   20MOL0     C 2515   7.995   6.128   8.533  0.5850 -0.0001 -0.4205
   20MOL0     O 2516   7.871   6.174   8.541 -0.3783  1.0748  0.0886
   20MOL0     C 2517   7.788   6.107   8.454 -0.2868  0.1400  0.4873
   20MOL0     C 2518   7.642   6.122   8.505 -0.4181  0.1506  1.3367
   20MOL0     C 2519   7.609   6.270   8.525 -0.2190 -0.1325 -0.2284
   20MOL0     C 2520   7.470   6.309   8.488  0.2712  0.2047  0.3761
   20MOL0     C 2521   7.452   6.460   8.517  1.5505  0.1124 -0.1881
   20MOL0     C 2522   7.319   6.519   8.458  0.4054  0.5114  0.2592
   20MOL0     C 2523   7.193   6.481   8.549 -0.2147 -0.2845 -0.3631
   20MOL0     C 2524   7.206   6.435   8.693  0.8341  0.5251 -0.1845
   20MOL0     N 2525   7.074   6.423   8.760 -1.0042  0.0828  0.2723
   20MOL0     C 2526   7.042   6.318   8.846  0.1829  0.5567  0.1143
   20MOL0     C 2527   6.919   6.350   8.891  0.5472  0.0923  0.9980
   20MOL0     C 2528   6.835   6.259   8.978  0.3790 -0.9560 -0.3154
   20MOL0     C 2529   6.852   6.113   8.950 -0.3060  0.4184  0.0953
   20MOL0     C 2530   6.798   6.025   9.058 -0.4339  0.0722 -0.0261
   20MOL0     C 2531   6.651   6.046   9.083  0.3777  0.4349 -0.2144
   20MOL0     O 2532   6.568   6.035   8.969  0.3102 -0.9749  0.2575
   20MOL0     C 2533   6.434   6.014   8.995  0.0178 -0.3262  0.5169
   20MOL0     C 2534   6.349   5.990   8.885  0.0931 -0.0853 -0.9841
   20MOL0     C 2535   6.213   5.953   8.897 -0.5544 -0.8087 -0.4163
   20MOL0     C 2536   6.153   5.952   9.023  0.8468 -0.6750  0.0440
   20MOL0     C 2537   6.008   5.935   9.028  0.5334  0.1591 -0.4696
   20MOL0     O 2538   5.945   5.916   9.153  0.2251  0.5779  0.0104
   20MOL0     C 2539   5.826   5.858   9.150  0.2705 -0.5029  1.2710
   20MOL0     C 2540   5.723   5.919   9.077 -0.0565  0.8699 -0.1279
   20MOL0     C 2541   5.594   5.870   9.081 -0.1762  0.0500 -1.1828
   20MOL0     C 2542   5.562   5.755   9.159  0.2360  0.6293  0.2428
   20MOL0     O 2543   5.436   5.694   9.160  0.4281 -0.2641 -0.5570
   20MOL0     C 2544   5.325   5.765   9.101 -0.0696 -0.3425 -0.4464
   20MOL0     C 2545   5.197   5.679   9.097 -0.4729 -0.3182 -0.9649
   20MOL0     C 2546   5.077   5.768   9.062  0.2720 -0.4678  0.1232
   20MOL0     C 2547   4.954   5.730   9.133 -0.5587  0.3392 -0.1188
   20MOL0     C 2548   4.918   5.578   9.111  0.4604 -0.2032 -0.7944
   20MOL0     C 2549   4.907   5.524   8.965  0.0179  0.3558  0.4858
   20MOL0     C 2550   4.852   5.381   8.964 -0.9494  0.4367  0.9808
   20MOL0     C 2551   4.775   5.330   8.833 -0.5188  0.1680  0.4082
   20MOL0    Cl 2552   4.891   5.269   8.710  0.0313  0.0916  0.0934
   20MOL0     C 2553   5.665   5.708   9.240 -0.6728  0.7547 -0.2900
   20MOL0     C 2554   5.798   5.757   9.236 -0.8432 -0.4945  0.4149
   20MOL0     O 2555   5.953   5.923   8.919 -0.2939  0.3177  0.1629
   20MOL0     C 2556   6.229   5.993   9.132  0.1662  0.4343 -0.1647
   20MOL0     C 2557   6.370   6.015   9.121 -0.0063 -0.4948  0.4751
   20MOL0     N 2558   6.884   6.473   8.836 -0.0311 -0.3534 -0.3686
   20MOL0     N 2559   6.979   6.514   8.758  0.2801  0.4223  0.9646
   20MOL0     C 2560   8.071   6.125   8.413  0.8581  0.1254 -0.1829
   20MOL0     C 2561   8.208   6.089   8.405 -0.3667  0.2652 -0.4746
   20MOL0     C 2562   8.621   5.923   8.454 -0.4895  0.5098  0.2230
   20MOL0     C 2563   8.709   5.855   8.360  0.4736  0.1046  0.6993
   20MOL0     C 2564   8.849   5.833   8.381 -0.5379 -0.4209 -0.0594
   20MOL0     C 2565   8.899   5.866   8.509 -0.0970  0.4507  0.5160
   20MOL0     O 2566   9.030   5.844   8.552 -0.3391  0.1108  0.0675
   20MOL0     C 2567   9.107   5.750   8.482  0.1080  0.5055  0.0991
   20MOL0     C 2568   9.200   5.691   8.592  0.3380  0.1249 -0.7879
   20MOL0     C 2569   9.310   5.619   8.520 -0.3449  0.4766  0.3232
   20MOL0     C 2570   9.393   5.546   8.621 -0.8756 -0.1959 -0.1739
   20MOL0     C 2571   9.503   5.470   8.555 -0.5286  0.1322 -0.2276
   20MOL0     C 2572   9.597   5.409   8.508  0.0231  0.1759 -0.1605
   20MOL0     C 2573   8.814   5.922   8.600 -0.2574 -0.4948 -0.4666
   20MOL0     C 2574   8.679   5.957   8.574 -0.1357 -0.6219 -0.7202
   20MOL0     H 2575   8.221   5.983   8.728  1.7552  2.8866  0.4314
   20MOL0     H 2576   8.009   6.078   8.739  1.4625 -1.7591  0.3107
   20MOL0     H 2577   7.809   6.000   8.448 -2.3494 -0.2511 -0.5879
   20MOL0     H 2578   7.807   6.153   8.357  0.1771  0.9336  0.9407
   20MOL0     H 2579   7.628   6.068   8.600 -0.2511  0.9393  1.8249
   20MOL0     H 2580   7.584   6.067   8.431  0.2584  1.0509  0.1203
   20MOL0     H 2581   7.686   6.333   8.479 -1.6047  1.3856 -0.5649
   20MOL0     H 2582   7.630   6.279   8.632  1.9772 -0.6118 -0.5564
   20MOL0     H 2583   7.452   6.293   8.381  0.2950  0.9731  0.2515
   20MOL0     H 2584   7.392   6.253   8.541 -2.1842 -0.3127 -3.4249
   20MOL0     H 2585   7.534   6.515   8.469  1.7578 -0.0022  0.0340
   20MOL0     H 2586   7.465   6.483   8.623 -0.9262 -0.5383  0.3026
   20MOL0     H 2587   7.297   6.487   8.356 -3.4646 -1.5076  1.5377
   20MOL0     H 2588   7.334   6.628   8.456  0.4400  0.5156  0.6251
   20MOL0     H 2589   7.126   6.567   8.548 -2.3106 -1.6045  3.6516
   20MOL0     H 2590   7.147   6.393   8.502 -1.3006 -1.0248  1.9196
   20MOL0     H 2591   7.270   6.508   8.743  0.5809  1.2814 -0.9345
   20MOL0     H 2592   7.255   6.338   8.688 -0.7284 -0.3529  0.7523
   20MOL0     H 2593   7.110   6.234   8.861  1.5789  1.4509 -0.8682
   20MOL0     H 2594   6.731   6.290   8.962  1.0197  1.2858 -0.5234
   20MOL0     H 2595   6.860   6.284   9.082  1.0226 -1.1966 -0.4058
   20MOL0     H 2596   6.959   6.089   8.948  0.3989  3.1233 -1.5886
   20MOL0     H 2597   6.810   6.081   8.854 -0.7405  0.1486  0.3689
   20MOL0     H 2598   6.814   5.923   9.021 -1.3937 -0.5111  1.0830
   20MOL0     H 2599   6.857   6.044   9.148 -0.0446 -1.2126  0.0081
   20MOL0     H 2600   6.635   6.138   9.139  0.9833  0.7957 -0.6256
   20MOL0     H 2601   6.630   5.960   9.148 -0.5678  1.4097  0.7919
   20MOL0     H 2602   6.388   6.009   8.786  1.9882  2.1782  0.1057
   20MOL0     H 2603   6.148   5.947   8.810 -2.0150 -2.5607  0.7070
   20MOL0     H 2604   5.752   6.004   9.016  0.8030 -0.1407 -1.1500
   20MOL0     H 2605   5.520   5.929   9.029 -0.3133  0.5613 -0.4331
   20MOL0     H 2606   5.351   5.783   8.997  1.9767 -2.3433 -0.3559
   20MOL0     H 2607   5.298   5.862   9.145 -0.7000 -0.6513 -0.1340
   20MOL0     H 2608   5.189   5.629   9.193  1.4890 -1.8967 -1.5554
   20MOL0     H 2609   5.207   5.597   9.025 -1.7831  0.1682 -1.7456
   20MOL0     H 2610   5.064   5.762   8.953 -4.0756  0.0030  0.4455
   20MOL0     H 2611   5.103   5.873   9.078  0.3852 -0.5139  0.2355
   20MOL0     H 2612   4.966   5.736   9.242 -3.0371 -3.6769  0.6124
   20MOL0     H 2613   4.872   5.797   9.106 -1.6349 -1.1440 -0.6859
   20MOL0     H 2614   4.822   5.572   9.164  0.8809  1.2586  0.1992
   20MOL0     H 2615   4.990   5.522   9.171  0.7567  0.5087 -0.4781
   20MOL0     H 2616   5.008   5.525   8.923 -0.0736 -0.6072  0.2268
   20MOL0     H 2617   4.846   5.593   8.905  2.8943 -0.0135 -3.2801
   20MOL0     H 2618   4.940   5.316   8.968 -1.9654 -1.0352  0.6713
   20MOL0     H 2619   4.787   5.368   9.051 -3.1186  0.0240 -0.6139
   20MOL0     H 2620   4.704   5.399   8.787  0.7100  0.9195 -0.4285
   20MOL0     H 2621   4.710   5.247   8.861 -1.9461 -0.9407 -4.9481
   20MOL0     H 2622   5.640   5.631   9.312 -0.6421  0.7820 -0.2499
   20MOL0     H 2623   5.883   5.723   9.294 -1.5562 -1.8999  0.6882
   20MOL0     H 2624   6.180   6.012   9.227 -2.8338 -0.7074 -1.3693
   20MOL0     H 2625   6.428   6.062   9.200  1.3867  1.0452 -1.3816
   20MOL0     H 2626   8.020   6.170   8.328 -3.4526  2.2649  3.1375
   20MOL0     H 2627   8.272   6.096   8.317 -1.2099  3.5606 -0.9466
   20MOL0     H 2628   8.649   5.817   8.278 -0.1853 -2.2941  2.1882
   20MOL0     H 2629   8.920   5.795   8.308 -0.4445  0.2934 -0.3519
   20MOL0     H 2630   9.163   5.805   8.406 -3.1799  0.5007 -2.5369
   20MOL0     H 2631   9.057   5.668   8.431  0.9960  0.1733 -0.2522
   20MOL0     H 2632   9.228   5.784   8.643 -0.2923  0.7221 -1.5021
   20MOL0     H 2633   9.148   5.631   8.666  0.0079  0.9425 -0.3460
   20MOL0     H 2634   9.377   5.687   8.466  3.6247 -2.2303  1.3656
   20MOL0     H 2635   9.260   5.545   8.458  0.6421 -0.2885  0.4213
   20MOL0     H 2636   9.433   5.622   8.688  0.6902  2.6562 -3.9714
   20MOL0     H 2637   9.319   5.480   8.669 -2.9155  2.6950  0.9395
   20MOL0     H 2638   9.688   5.359   8.483 -1.4899 -1.9768 -1.7455
   20MOL0     H 2639   8.850   5.952   8.697  1.5520  1.3599 -1.6446
   20MOL0     H 2640   8.628   6.000   8.661  1.2490 -1.8620  0.7720
   21MOL0     O 2641   0.892   6.975   9.058  0.2673  0.2708 -0.5902
   21MOL0     C 2642   0.927   6.965   8.942 -0.4996 -0.3804  0.4750
   21MOL0     O 2643   0.853   6.954   8.836  0.6786 -0.1648  0.7051
   21MOL0     C 2644   0.717   6.953   8.858  0.6947  0.8442 -0.0817
   21MOL0     C 2645   0.651   7.056   8.921  0.3390  0.1880  0.2222
   21MOL0     C 2646   0.512   7.060   8.918 -0.4222 -0.1025 -0.2967
   21MOL0     C 2647   0.435   6.952   8.868 -0.0058  0.8926 -0.4836
   21MOL0     O 2648   0.299   6.968   8.873  0.1632  0.1829  0.1455
   21MOL0     C 2649   0.217   6.871   8.798 -0.2737  0.3984 -0.9355
   21MOL0     C 2650   0.077   6.904   8.814  1.3777  0.4699  0.0796
   21MOL0     C 2651  -0.010   6.866   8.699  0.2436  0.0798 -0.8295
   21MOL0     C 2652  -0.014   6.714   8.687 -0.1141  0.5739 -0.7087
   21MOL0     C 2653  -0.160   6.659   8.671 -0.4819 -0.1203 -0.3925
   21MOL0     C 2654  -0.150   6.504   8.668  0.5372 -0.2782  0.4991
   21MOL0     C 2655  -0.284   6.427   8.674 -0.0099  1.1217  0.3685
   21MOL0     C 2656  -0.363   6.437   8.542  0.2315 -0.0869  0.4238
   21MOL0     N 2657  -0.506   6.417   8.568 -0.1686 -0.2208 -0.6554
   21MOL0     C 2658  -0.554   6.308   8.626  0.2178  0.7621 -0.1907
   21MOL0     C 2659  -0.686   6.312   8.629  0.3193  0.4427 -0.4772
   21MOL0     C 2660  -0.783   6.214   8.692 -0.9932  0.1050  0.6239
   21MOL0     C 2661  -0.909   6.276   8.743  0.7837  0.4597 -0.1947
   21MOL0     C 2662  -1.010   6.305   8.632  0.5489 -0.2436  0.5080
   21MOL0     C 2663  -1.141   6.371   8.675  0.0286  0.2352 -0.2369
   21MOL0     O 2664  -1.222   6.266   8.734 -0.4307  0.4348 -0.2100
   21MOL0     C 2665  -1.350   6.298   8.770  0.1329  0.0246 -0.1015
   21MOL0     C 2666  -1.360   6.387   8.883 -0.2528  0.5768  0.6687
   21MOL0     C 2667  -1.482   6.419   8.925 -0.2822  1.2287  0.9115
   21MOL0     C 2668  -1.594   6.353   8.890 -0.5868  0.5160  0.0986
   21MOL0     C 2669  -1.723   6.385   8.955  0.0825 -0.0132  0.3893
   21MOL0     O 2670  -1.838   6.371   8.875 -0.5650 -0.4584 -0.2564
   21MOL0     C 2671  -1.956   6.410   8.927 -1.3316  0.0001  0.7181
   21MOL0     C 2672  -2.008   6.528   8.867 -0.6690  0.4254  0.7341
   21MOL0     C 2673  -2.135   6.577   8.906 -0.7531 -0.3124 -0.3420
   21MOL0     C 2674  -2.212   6.493   8.979  0.2901  0.8385  0.0837
   21MOL0     O 2675  -2.341   6.542   9.012  0.6342 -0.6528  0.5762
   21MOL0     C 2676  -2.453   6.456   8.984 -0.2864  0.6887  0.3155
   21MOL0     C 2677  -2.587   6.512   9.038  0.7933  1.4422 -1.3819
   21MOL0     C 2678  -2.641   6.623   8.958 -0.4368  0.3896  0.1250
   21MOL0     C 2679  -2.771   6.675   9.001  0.2275 -0.1947  0.8579
   21MOL0     C 2680  -2.825   6.790   8.905 -0.3239  0.7796  0.3057
   21MOL0     C 2681  -2.935   6.867   8.955  0.0181 -0.4019 -0.5433
   21MOL0     C 2682  -3.054   6.784   8.971  0.5999  0.5773  0.4326
   21MOL0     C 2683  -3.177   6.874   8.972  0.1257 -0.3394  0.2702
   21MOL0    Cl 2684  -3.321   6.760   8.946 -0.1714  0.0432 -0.4350
   21MOL0     C 2685  -2.175   6.365   9.022 -0.7235  0.4832 -0.3492
   21MOL0     C 2686  -2.045   6.330   8.993  0.9042 -0.2406 -0.4568
   21MOL0     O 2687  -1.722   6.416   9.075 -0.5166  0.5347  0.1768
   21MOL0     C 2688  -1.590   6.260   8.788 -0.3304 -0.3465  0.3553
   21MOL0     C 2689  -1.465   6.238   8.718  0.5209  0.9471 -0.3186
   21MOL0     N 2690  -0.715   6.433   8.566  0.5608  0.0672  0.0641
   21MOL0     N 2691  -0.610   6.494   8.527 -0.1373  0.2012 -0.4724
   21MOL0     C 2692   0.500   6.842   8.813 -1.4592  0.8807 -0.3277
   21MOL0     C 2693   0.639   6.847   8.805  0.4794 -0.6431 -1.1022
   21MOL0     C 2694   1.077   6.967   8.910 -0.3168  0.1557 -0.5393
   21MOL0     C 2695   1.123   7.020   8.788 -0.3937  0.2779  0.0919
   21MOL0     C 2696   1.255   7.031   8.755  0.4644  0.3185 -0.5180
   21MOL0     C 2697   1.348   6.979   8.845  1.4701  0.8895  0.7010
   21MOL0     O 2698   1.479   7.001   8.808 -0.4816 -0.9102 -0.4601
   21MOL0     C 2699   1.569   6.944   8.903 -0.6160 -0.1750 -1.1127
   21MOL0     C 2700   1.709   6.943   8.835  0.7622  0.4536 -0.0259
   21MOL0     C 2701   1.713   6.841   8.712  0.3077  0.4688 -0.1825
   21MOL0     C 2702   1.670   6.697   8.757  0.6850  0.7853  0.0664
   21MOL0     C 2703   1.750   6.650   8.871  0.3149 -0.6083  0.2237
   21MOL0     C 2704   1.799   6.600   8.969 -0.0062  0.5637  0.0356
   21MOL0     C 2705   1.300   6.919   8.964  0.0406  0.9339 -0.2560
   21MOL0     C 2706   1.165   6.910   8.996  0.2223  0.8869  0.0233
   21MOL0     H 2707   0.708   7.141   8.959 -2.1372  1.5314  1.1604
   21MOL0     H 2708   0.469   7.153   8.953  1.3936  1.0268 -0.9499
   21MOL0     H 2709   0.232   6.769   8.833 -0.5143  0.3105 -1.0814
   21MOL0     H 2710   0.248   6.887   8.694  2.9509  2.1723  0.1413
   21MOL0     H 2711   0.069   7.013   8.819 -2.6427  0.4070 -0.9882
   21MOL0     H 2712   0.034   6.871   8.909 -0.7167 -0.2916 -1.0751
   21MOL0     H 2713   0.013   6.919   8.606 -1.4518 -0.8876 -1.8636
   21MOL0     H 2714  -0.112   6.906   8.702  0.5575  0.9666 -1.4980
   21MOL0     H 2715   0.038   6.675   8.599  1.4321  1.1353 -0.0757
   21MOL0     H 2716   0.037   6.666   8.771 -1.2178 -0.7513 -0.7558
   21MOL0     H 2717  -0.203   6.702   8.580  1.3177  1.1871 -0.6845
   21MOL0     H 2718  -0.216   6.696   8.757  2.2589  2.5001  0.4284
   21MOL0     H 2719  -0.094   6.492   8.761  2.4671 -0.9440 -0.6822
   21MOL0     H 2720  -0.077   6.472   8.593  2.2344  0.9228  1.5658
   21MOL0     H 2721  -0.280   6.320   8.695 -1.6067  1.2334  1.4495
   21MOL0     H 2722  -0.342   6.474   8.755 -0.7377  2.2612 -0.7713
   21MOL0     H 2723  -0.334   6.368   8.463 -1.7473  1.8603 -2.1883
   21MOL0     H 2724  -0.349   6.533   8.491  1.4408 -0.1005  0.6991
   21MOL0     H 2725  -0.513   6.217   8.669 -1.4260  0.5803  1.1316
   21MOL0     H 2726  -0.731   6.159   8.770 -2.5524 -2.4659 -0.0372
   21MOL0     H 2727  -0.805   6.143   8.611  0.0613  0.7364 -0.2546
   21MOL0     H 2728  -0.888   6.369   8.797  0.9171  0.9731 -1.1081
   21MOL0     H 2729  -0.937   6.195   8.811  2.9939  0.6136  1.0058
   21MOL0     H 2730  -0.968   6.373   8.557 -0.9192  3.1737  2.5846
   21MOL0     H 2731  -1.025   6.209   8.581  0.1437  0.4443 -0.7313
   21MOL0     H 2732  -1.185   6.426   8.591 -2.0078  0.2674  0.7725
   21MOL0     H 2733  -1.123   6.452   8.746  2.3135  0.4869 -1.0368
   21MOL0     H 2734  -1.276   6.434   8.934  0.2192  2.5603 -1.7671
   21MOL0     H 2735  -1.493   6.508   8.986  0.3475  0.0201  2.8694
   21MOL0     H 2736  -1.947   6.577   8.791 -1.3362 -1.6707 -1.2431
   21MOL0     H 2737  -2.176   6.671   8.870  0.1952 -0.1574 -1.0740
   21MOL0     H 2738  -2.435   6.366   9.043 -1.5544  1.0116  1.2339
   21MOL0     H 2739  -2.476   6.425   8.882  1.7594  0.8986 -0.2467
   21MOL0     H 2740  -2.573   6.545   9.141  2.6547  2.8007 -2.0292
   21MOL0     H 2741  -2.658   6.429   9.028 -0.2461  2.4615 -2.7745
   21MOL0     H 2742  -2.645   6.585   8.855 -1.1466  1.7846 -0.3804
   21MOL0     H 2743  -2.575   6.710   8.965 -0.4626  0.2635  3.0603
   21MOL0     H 2744  -2.849   6.601   9.020 -0.1172  0.1841  0.9386
   21MOL0     H 2745  -2.750   6.722   9.098 -0.1298  0.5513  0.5888
   21MOL0     H 2746  -2.866   6.741   8.817 -0.9868 -0.9025  1.4957
   21MOL0     H 2747  -2.735   6.848   8.881  0.7434 -0.8027  0.2826
   21MOL0     H 2748  -2.954   6.942   8.878 -2.5661 -1.9402 -1.5537
   21MOL0     H 2749  -2.913   6.920   9.048 -0.3355 -0.6096 -0.3355
   21MOL0     H 2750  -3.063   6.714   8.887  1.6561 -2.3727  2.6054
   21MOL0     H 2751  -3.052   6.722   9.061 -1.3308 -0.1120  0.0378
   21MOL0     H 2752  -3.174   6.959   8.904 -0.5434  1.8252  2.8051
   21MOL0     H 2753  -3.178   6.926   9.068  0.4752  0.6384 -0.2497
   21MOL0     H 2754  -2.252   6.303   9.069 -1.3095  0.0164 -1.8613
   21MOL0     H 2755  -2.018   6.228   9.018  2.6434  0.2508 -0.1612
   21MOL0     H 2756  -1.682   6.210   8.757 -1.5835  2.2347 -0.3783
   21MOL0     H 2757  -1.460   6.164   8.638 -1.7846  0.7150 -0.3217
   21MOL0     H 2758   0.444   6.760   8.767 -0.7422  0.6311 -0.7615
   21MOL0     H 2759   0.703   6.770   8.764  0.5644 -2.2006  1.7538
   21MOL0     H 2760   1.048   7.062   8.722 -1.8258 -1.6502  0.3927
   21MOL0     H 2761   1.286   7.082   8.665 -0.6604  0.0299 -1.0970
   21MOL0     H 2762   1.549   6.839   8.926  2.0028 -0.8641 -1.7326
   21MOL0     H 2763   1.570   7.002   8.996  0.1008 -1.4634 -0.2941
   21MOL0     H 2764   1.741   7.043   8.804  1.5409  0.2917  0.2405
   21MOL0     H 2765   1.796   6.927   8.898 -0.7088 -2.8631  1.3498
   21MOL0     H 2766   1.819   6.833   8.689  0.6482  0.6337  1.2065
   21MOL0     H 2767   1.650   6.875   8.629 -0.8097 -0.5639  0.2204
   21MOL0     H 2768   1.562   6.687   8.770  0.7322 -1.6622 -0.9088
   21MOL0     H 2769   1.688   6.631   8.671 -0.5197  1.0651 -0.4276
   21MOL0     H 2770   1.819   6.544   9.058  0.2423  0.4232 -0.1104
   21MOL0     H 2771   1.368   6.871   9.033 -0.4227 -1.4861 -1.3912
   21MOL0     H 2772   1.129   6.864   9.088  1.2691 -0.8808 -0.4035
   22MOL0     O 2773   3.143  11.041   4.021  0.5485  0.2954 -0.0570
   22MOL0     C 2774   3.218  11.094   4.109 -0.3257 -0.2892 -0.1128
   22MOL0     O 2775   3.177  11.114   4.242  0.0504  0.0892  0.1870
   22MOL0     C 2776   3.053  11.066   4.276 -0.5534 -0.6439 -0.2812
   22MOL0     C 2777   3.045  10.944   4.341  0.3453  0.6449  0.6752
   22MOL0     C 2778   2.922  10.878   4.363  0.9050  0.5995 -0.5999
   22MOL0     C 2779   2.802  10.945   4.317  0.4597  0.7612  0.5759
   22MOL0     O 2780   2.680  10.887   4.342 -0.4164 -0.0330 -0.6793
   22MOL0     C 2781   2.566  10.967   4.338 -0.1653 -0.1748 -0.2744
   22MOL0     C 2782   2.445  10.885   4.365  0.0420  0.7049 -0.0095
   22MOL0     C 2783   2.326  10.975   4.365 -0.0295  0.9210 -0.3999
   22MOL0     C 2784   2.192  10.900   4.381  0.8016  0.2644 -0.7979
   22MOL0     C 2785   2.068  10.992   4.356 -0.0130 -0.3698  0.5500
   22MOL0     C 2786   1.943  10.909   4.329 -0.8134  0.2501  0.0337
   22MOL0     C 2787   1.903  10.809   4.449  0.1850  0.1239 -0.8778
   22MOL0     C 2788   1.764  10.753   4.432  0.0163 -0.2250 -0.3170
   22MOL0     N 2789   1.651  10.848   4.441  0.7995  0.1560  0.3198
   22MOL0     C 2790   1.625  10.919   4.551  0.7938  0.1748 -0.0953
   22MOL0     C 2791   1.530  11.010   4.530 -0.2615 -0.5421 -0.4962
   22MOL0     C 2792   1.480  11.117   4.618  0.1258  0.7354  0.5782
   22MOL0     C 2793   1.318  11.111   4.615 -0.0225  0.2215 -0.1782
   22MOL0     C 2794   1.260  11.213   4.508  0.2696 -0.1103 -0.2795
   22MOL0     C 2795   1.114  11.243   4.521 -0.1027  0.0610  0.7249
   22MOL0     O 2796   1.087  11.315   4.642  0.2985 -0.0489  0.0234
   22MOL0     C 2797   0.961  11.366   4.660 -0.0066  0.1566 -0.6317
   22MOL0     C 2798   0.947  11.433   4.782  0.1006 -0.7586 -0.6937
   22MOL0     C 2799   0.830  11.502   4.802  0.1089 -0.4993  1.2511
   22MOL0     C 2800   0.722  11.506   4.705  0.5339 -0.2003  0.0704
   22MOL0     C 2801   0.603  11.578   4.725 -0.1998  0.2016 -0.7814
   22MOL0     O 2802   0.494  11.553   4.644 -0.5484  0.0529 -0.7150
   22MOL0     C 2803   0.368  11.594   4.679  0.4715  0.5845 -1.1378
   22MOL0     C 2804   0.309  11.715   4.630  0.9871 -0.3944  0.3474
   22MOL0     C 2805   0.178  11.742   4.656  0.7665  0.3111 -0.4289
   22MOL0     C 2806   0.111  11.653   4.755 -0.0682  0.0555  0.1424
   22MOL0     O 2807  -0.017  11.665   4.788  0.6745  0.0152 -1.0912
   22MOL0     C 2808  -0.118  11.669   4.694  0.2657 -0.3371 -0.2663
   22MOL0     C 2809  -0.237  11.715   4.772 -0.2347 -0.4610  0.0992
   22MOL0     C 2810  -0.361  11.723   4.680  0.9691  0.7964  0.2001
   22MOL0     C 2811  -0.487  11.758   4.759 -0.1433  0.0099  0.5967
   22MOL0     C 2812  -0.598  11.786   4.655  0.5926 -0.0963  0.5920
   22MOL0     C 2813  -0.728  11.858   4.701 -1.3159 -0.8998  0.0560
   22MOL0     C 2814  -0.709  12.014   4.726 -0.5468  0.5054  0.3808
   22MOL0     C 2815  -0.857  12.066   4.762 -0.6012  0.1751  0.0726
   22MOL0    Cl 2816  -0.963  12.099   4.623 -0.0498 -0.0838  0.2063
   22MOL0     C 2817   0.172  11.542   4.797 -0.5661  0.4298 -0.2701
   22MOL0     C 2818   0.300  11.506   4.768 -0.4525  0.1631  0.0284
   22MOL0     O 2819   0.606  11.653   4.822  0.3340 -0.7525 -1.6707
   22MOL0     C 2820   0.740  11.427   4.585 -0.2977  0.3608  0.0378
   22MOL0     C 2821   0.853  11.357   4.565 -0.7295  0.5683 -0.0140
   22MOL0     N 2822   1.492  10.986   4.402 -0.6793  1.2684  0.1247
   22MOL0     N 2823   1.568  10.890   4.346  0.5077  0.6890 -0.3560
   22MOL0     C 2824   2.812  11.066   4.256 -0.6605  1.0332  0.4317
   22MOL0     C 2825   2.934  11.128   4.234  0.3189  0.4708 -0.3488
   22MOL0     C 2826   3.354  11.140   4.072  0.0123 -0.4655  0.4935
   22MOL0     C 2827   3.447  11.175   4.175  0.7378 -0.2121 -0.1271
   22MOL0     C 2828   3.579  11.210   4.139 -0.2802 -0.2166 -0.0943
   22MOL0     C 2829   3.619  11.226   4.004 -0.5532  0.0105 -0.6212
   22MOL0     O 2830   3.742  11.280   3.987 -0.7838 -0.7041 -0.3036
   22MOL0     C 2831   3.767  11.342   3.855  0.4686  0.1567 -0.1944
   22MOL0     C 2832   3.887  11.430   3.883  0.9182  0.6581 -0.4241
   22MOL0     C 2833   3.929  11.518   3.760 -0.4272 -0.4270 -0.0243
   22MOL0     C 2834   3.982  11.428   3.644  0.3862  0.1312  0.7182
   22MOL0     C 2835   4.024  11.518   3.535 -0.0703 -0.2311  0.7928
   22MOL0     C 2836   4.061  11.587   3.441 -0.4688  1.6058 -0.3147
   22MOL0     C 2837   3.528  11.185   3.909  0.5304 -0.0256  0.8948
   22MOL0     C 2838   3.395  11.156   3.941  0.8052 -0.7090  0.1251
   22MOL0     H 2839   3.136  10.903   4.385  0.8899  1.3974  0.2659
   22MOL0     H 2840   2.902  10.785   4.415  1.0165  0.1029 -1.4415
   22MOL0     H 2841   2.557  11.012   4.239 -3.6442  1.9371  0.8592
   22MOL0     H 2842   2.575  11.044   4.415 -2.1902  1.4567 -1.5791
   22MOL0     H 2843   2.466  10.849   4.466  1.6045 -1.3262 -1.0039
   22MOL0     H 2844   2.440  10.798   4.299  2.8480  0.5248 -0.0785
   22MOL0     H 2845   2.315  11.025   4.268  0.1464  0.0742 -0.8665
   22MOL0     H 2846   2.333  11.052   4.442 -2.0461  2.3237 -1.5353
   22MOL0     H 2847   2.208  10.821   4.307 -0.4663  0.6356 -1.5006
   22MOL0     H 2848   2.180  10.853   4.479  1.3650  1.2415 -0.2432
   22MOL0     H 2849   2.089  11.045   4.263 -2.9525 -1.2716 -0.7265
   22MOL0     H 2850   2.051  11.065   4.436 -1.1236 -0.3383  0.2987
   22MOL0     H 2851   1.966  10.865   4.232 -0.1916  0.4835  0.0746
   22MOL0     H 2852   1.855  10.970   4.304 -2.0782 -2.2040 -1.8702
   22MOL0     H 2853   1.973  10.725   4.453 -1.1682 -1.0200 -0.6493
   22MOL0     H 2854   1.907  10.861   4.546  1.3036 -3.7671  1.3829
   22MOL0     H 2855   1.750  10.684   4.516 -0.5940 -0.1609 -0.3638
   22MOL0     H 2856   1.762  10.699   4.336  1.9272  0.8209 -0.9903
   22MOL0     H 2857   1.679  10.903   4.644 -1.2905 -3.0604  0.7461
   22MOL0     H 2858   1.530  11.209   4.585  2.8889 -0.1665  1.9980
   22MOL0     H 2859   1.517  11.089   4.717  2.8444 -0.6221 -0.6980
   22MOL0     H 2860   1.290  11.162   4.708 -1.5088  1.6280 -1.3178
   22MOL0     H 2861   1.268  11.014   4.619  1.1055 -0.3212  2.2057
   22MOL0     H 2862   1.311  11.306   4.535  0.0272  0.4357 -1.6481
   22MOL0     H 2863   1.282  11.177   4.407  0.3098 -1.8327  0.3073
   22MOL0     H 2864   1.058  11.150   4.505  1.7583 -0.6908 -2.1745
   22MOL0     H 2865   1.094  11.313   4.439 -0.9543  0.3877  1.1901
   22MOL0     H 2866   1.034  11.433   4.848 -0.1801 -1.3015 -0.3110
   22MOL0     H 2867   0.820  11.565   4.890  3.1604  3.6926 -1.0455
   22MOL0     H 2868   0.370  11.776   4.565  3.8712 -1.5705  1.7515
   22MOL0     H 2869   0.129  11.832   4.619  1.2043  1.6006  1.8963
   22MOL0     H 2870  -0.128  11.570   4.649 -0.5507 -0.2433 -0.2929
   22MOL0     H 2871  -0.084  11.745   4.622 -1.8627  1.2785  0.3299
   22MOL0     H 2872  -0.212  11.812   4.817  4.4252 -1.7107  0.7279
   22MOL0     H 2873  -0.245  11.646   4.856 -1.1812  0.0530  0.4388
   22MOL0     H 2874  -0.363  11.624   4.635  2.7314  0.9190 -0.2241
   22MOL0     H 2875  -0.358  11.798   4.600 -1.0696 -0.6721 -1.3626
   22MOL0     H 2876  -0.525  11.679   4.824  0.8353 -1.1174 -0.1472
   22MOL0     H 2877  -0.477  11.851   4.815  2.6108  1.0836 -1.4615
   22MOL0     H 2878  -0.621  11.689   4.610  2.5221 -0.4607  0.2948
   22MOL0     H 2879  -0.556  11.849   4.577  0.1254 -0.1663  0.2829
   22MOL0     H 2880  -0.763  11.798   4.786 -0.3077 -1.8374 -0.1688
   22MOL0     H 2881  -0.807  11.857   4.625 -0.8590  1.0721 -0.4900
   22MOL0     H 2882  -0.646  12.041   4.811  0.4562 -1.8631  0.4700
   22MOL0     H 2883  -0.667  12.063   4.638 -0.9365 -1.2800 -0.8483
   22MOL0     H 2884  -0.834  12.162   4.809  2.1163  0.8532 -2.2937
   22MOL0     H 2885  -0.916  12.013   4.836  0.7538  3.1869  3.5949
   22MOL0     H 2886   0.110  11.472   4.853  0.1933 -0.5683 -0.6479
   22MOL0     H 2887   0.348  11.416   4.804  0.1121  0.8223  0.9596
   22MOL0     H 2888   0.658  11.409   4.517 -1.2048  1.9180  0.6600
   22MOL0     H 2889   0.854  11.293   4.477 -2.0680 -2.1549  1.7913
   22MOL0     H 2890   2.730  11.110   4.200 -1.6344 -1.3924 -0.1457
   22MOL0     H 2891   2.944  11.217   4.172  2.7361  0.6302  0.1519
   22MOL0     H 2892   3.424  11.172   4.281  3.0379  0.7002  0.4547
   22MOL0     H 2893   3.635  11.241   4.226  0.1298  1.2477 -0.8513
   22MOL0     H 2894   3.688  11.404   3.812 -0.4281  0.0188  1.1990
   22MOL0     H 2895   3.801  11.266   3.784 -1.4019 -1.4228  0.5073
   22MOL0     H 2896   3.848  11.490   3.966 -2.6268 -0.4313 -1.1513
   22MOL0     H 2897   3.973  11.374   3.920  0.0208  0.3001  1.2294
   22MOL0     H 2898   4.005  11.592   3.786  0.8536 -1.4536 -0.7248
   22MOL0     H 2899   3.838  11.565   3.722 -0.3346 -1.9167 -2.3171
   22MOL0     H 2900   4.066  11.373   3.686 -1.6378 -3.8600  0.0536
   22MOL0     H 2901   3.916  11.350   3.603  0.5332  1.6702 -2.8628
   22MOL0     H 2902   4.100  11.639   3.357  0.4862  2.7715  0.8101
   22MOL0     H 2903   3.551  11.184   3.804 -0.0656  1.8219  0.6983
   22MOL0     H 2904   3.328  11.140   3.857  1.4916 -0.0346 -0.5703
   23MOL0     O 2905   8.198   7.646   6.032  0.6297  0.5087  0.8097
   23MOL0     C 2906   8.249   7.595   5.932 -0.2742  0.2288 -0.2578
   23MOL0     O 2907   8.190   7.504   5.843 -0.0063  0.4419 -0.6388
   23MOL0     C 2908   8.051   7.484   5.851 -0.4575 -0.4857 -0.4433
   23MOL0     C 2909   7.999   7.350   5.844 -0.3313  0.0514 -0.4477
   23MOL0     C 2910   7.857   7.325   5.847 -0.2480 -0.8973  0.6845
   23MOL0     C 2911   7.766   7.438   5.855 -0.1847  0.8290 -0.3861
   23MOL0     O 2912   7.631   7.421   5.858  0.1288  0.1159  0.8144
   23MOL0     C 2913   7.552   7.523   5.919 -1.3198  0.1826  1.0639
   23MOL0     C 2914   7.411   7.472   5.940 -0.3034 -0.7657  0.3029
   23MOL0     C 2915   7.338   7.588   6.015 -1.5322  0.7969  0.1060
   23MOL0     C 2916   7.198   7.544   6.025 -0.8819  0.4191  0.5632
   23MOL0     C 2917   7.115   7.652   6.094 -0.4266 -1.0779  0.4205
   23MOL0     C 2918   6.970   7.615   6.079 -0.6105  0.7538 -0.3873
   23MOL0     C 2919   6.890   7.745   6.092  0.5862  0.6934  0.0032
   23MOL0     C 2920   6.738   7.712   6.098 -0.9232 -0.0970  0.1912
   23MOL0     N 2921   6.659   7.831   6.065 -0.3603  0.3581 -1.0661
   23MOL0     C 2922   6.663   7.953   6.132 -0.0662  0.4050 -0.1305
   23MOL0     C 2923   6.603   8.039   6.051  0.3689  0.2983  0.0613
   23MOL0     C 2924   6.583   8.183   6.087 -0.9787  0.3006  0.4461
   23MOL0     C 2925   6.440   8.225   6.075  1.2391 -0.0882  0.7550
   23MOL0     C 2926   6.413   8.352   6.153  0.7736  0.2816  0.5858
   23MOL0     C 2927   6.277   8.410   6.108 -0.4123  0.6535 -0.8918
   23MOL0     O 2928   6.253   8.434   5.967 -1.1583 -0.2165  0.0785
   23MOL0     C 2929   6.123   8.459   5.927 -0.4666 -0.1891 -0.7689
   23MOL0     C 2930   6.023   8.513   6.012 -1.3371  0.0689  0.1616
   23MOL0     C 2931   5.895   8.549   5.967 -0.6156  0.0964 -0.5787
   23MOL0     C 2932   5.863   8.536   5.828 -0.0574  0.6475  0.6654
   23MOL0     C 2933   5.734   8.582   5.781 -0.5262 -0.2044 -0.7548
   23MOL0     O 2934   5.652   8.640   5.870  0.3619 -0.1227  0.7499
   23MOL0     C 2935   5.518   8.688   5.834  0.6618 -0.4586 -0.4663
   23MOL0     C 2936   5.418   8.609   5.764  0.5097  0.0061 -0.3139
   23MOL0     C 2937   5.292   8.656   5.723  0.0665 -0.2481 -0.0162
   23MOL0     C 2938   5.260   8.785   5.753  0.1035 -0.4783  0.4576
   23MOL0     O 2939   5.140   8.850   5.730  0.5015 -0.3505  1.1424
   23MOL0     C 2940   5.018   8.769   5.739  0.3703  0.5332  0.3375
   23MOL0     C 2941   4.898   8.861   5.734  0.3599 -0.6958  0.5414
   23MOL0     C 2942   4.778   8.781   5.768  0.9215  0.4626 -0.6673
   23MOL0     C 2943   4.659   8.888   5.795 -0.0937  0.2227  0.0777
   23MOL0     C 2944   4.524   8.824   5.841  0.4624 -0.3318 -0.6818
   23MOL0     C 2945   4.531   8.746   5.973 -0.1627  0.1910 -0.0269
   23MOL0     C 2946   4.500   8.826   6.098  0.0987 -0.4486  0.2958
   23MOL0     C 2947   4.351   8.858   6.117  0.5148  0.1868 -0.3880
   23MOL0    Cl 2948   4.265   8.692   6.110 -0.1910 -0.1058  0.3849
   23MOL0     C 2949   5.356   8.864   5.820  0.4533 -0.8388 -0.0036
   23MOL0     C 2950   5.483   8.819   5.856  0.2169  0.2902 -0.1162
   23MOL0     O 2951   5.700   8.562   5.669  0.2375 -0.1278  0.1817
   23MOL0     C 2952   5.969   8.484   5.744  0.3418  1.5738  0.3435
   23MOL0     C 2953   6.095   8.454   5.794  0.3364  0.2395  0.1393
   23MOL0     N 2954   6.551   7.972   5.943  0.4105  0.6607  0.1216
   23MOL0     N 2955   6.584   7.842   5.949 -0.0009  0.0368  0.4797
   23MOL0     C 2956   7.822   7.567   5.855 -0.3885  0.4200  0.4940
   23MOL0     C 2957   7.959   7.590   5.855 -0.5764  0.7589 -0.2474
   23MOL0     C 2958   8.394   7.617   5.916 -0.0149 -0.6310  0.4875
   23MOL0     C 2959   8.461   7.708   6.005 -0.7672 -0.2660 -0.5388
   23MOL0     C 2960   8.601   7.735   5.982 -0.3473 -0.9288 -0.4840
   23MOL0     C 2961   8.672   7.680   5.873 -0.1333  0.1628 -0.5339
   23MOL0     O 2962   8.809   7.694   5.875 -0.3041  0.4197  0.1969
   23MOL0     C 2963   8.884   7.597   5.809 -0.2043  0.8306  0.2983
   23MOL0     C 2964   9.028   7.619   5.851 -1.0023  0.7212 -0.3807
   23MOL0     C 2965   9.121   7.502   5.795  0.9609 -0.0179  0.5764
   23MOL0     C 2966   9.269   7.511   5.852 -0.8189 -0.0936 -0.4392
   23MOL0     C 2967   9.284   7.503   5.997 -0.8409  0.5330 -0.7323
   23MOL0     C 2968   9.283   7.508   6.117 -0.4206 -1.0929 -0.5577
   23MOL0     C 2969   8.594   7.604   5.782  0.0233  0.7157  0.4924
   23MOL0     C 2970   8.467   7.570   5.802  0.0892  0.1359  0.1056
   23MOL0     H 2971   8.070   7.271   5.824  0.1224 -0.3128  2.2032
   23MOL0     H 2972   7.825   7.221   5.852 -1.7925 -0.3991  2.0133
   23MOL0     H 2973   7.560   7.617   5.862  3.9786 -0.0879  0.8872
   23MOL0     H 2974   7.590   7.552   6.017  0.3045 -0.1123  0.5482
   23MOL0     H 2975   7.416   7.385   6.005  2.6544  1.3162  3.1423
   23MOL0     H 2976   7.365   7.448   5.843  1.9175  2.4204 -1.7550
   23MOL0     H 2977   7.357   7.683   5.964  0.3497 -1.3581 -3.6582
   23MOL0     H 2978   7.379   7.595   6.116  0.4076 -2.5653 -0.3062
   23MOL0     H 2979   7.160   7.537   5.922 -0.9233 -3.4563  0.7079
   23MOL0     H 2980   7.198   7.446   6.074  1.5813  0.6336  1.1097
   23MOL0     H 2981   7.132   7.749   6.048 -2.8275 -0.8278 -0.0701
   23MOL0     H 2982   7.142   7.668   6.199 -1.1862  1.4416  0.2897
   23MOL0     H 2983   6.954   7.540   6.157  3.2699 -0.8762 -0.9539
   23MOL0     H 2984   6.948   7.576   5.980 -0.1793 -1.5648  0.3700
   23MOL0     H 2985   6.899   7.798   6.187 -1.0614 -1.3637  1.4180
   23MOL0     H 2986   6.907   7.813   6.008  0.6057 -0.4712 -0.9739
   23MOL0     H 2987   6.715   7.674   6.198  2.8631  1.4925  1.8441
   23MOL0     H 2988   6.704   7.626   6.039 -0.2140 -0.4146  0.2351
   23MOL0     H 2989   6.710   7.973   6.228 -1.9454  0.2406  0.8823
   23MOL0     H 2990   6.657   8.249   6.043 -2.0557  2.1599  1.3158
   23MOL0     H 2991   6.618   8.185   6.190 -0.9019 -1.0996  0.4736
   23MOL0     H 2992   6.373   8.146   6.111  0.4956 -0.6888 -1.6852
   23MOL0     H 2993   6.416   8.232   5.968 -0.7573 -3.6438  0.7968
   23MOL0     H 2994   6.416   8.330   6.260 -3.0679  1.5250  1.1099
   23MOL0     H 2995   6.500   8.413   6.129  1.2387 -1.3951 -2.5312
   23MOL0     H 2996   6.254   8.502   6.162 -1.4671 -0.1691  0.0923
   23MOL0     H 2997   6.208   8.334   6.145  0.1159  1.1675  1.2798
   23MOL0     H 2998   6.041   8.529   6.118 -0.3026 -1.3405  0.2250
   23MOL0     H 2999   5.817   8.584   6.034  0.4799  2.0360 -0.2285
   23MOL0     H 3000   5.435   8.505   5.737 -2.6360 -1.3986  2.3684
   23MOL0     H 3001   5.213   8.602   5.671 -2.2332  1.5637  1.4025
   23MOL0     H 3002   5.018   8.729   5.841 -0.1966  3.8005  1.7624
   23MOL0     H 3003   5.005   8.699   5.657  1.0472  0.7550  0.0329
   23MOL0     H 3004   4.882   8.904   5.635 -0.3724 -0.9554  0.5399
   23MOL0     H 3005   4.911   8.949   5.798  2.0077 -0.3585 -0.2126
   23MOL0     H 3006   4.807   8.735   5.862  0.4597 -0.0616 -0.7816
   23MOL0     H 3007   4.742   8.703   5.700 -0.8894  0.4402  0.2580
   23MOL0     H 3008   4.689   8.977   5.851  0.6773 -1.3826  2.3803
   23MOL0     H 3009   4.627   8.924   5.697  0.3128 -1.7780 -0.8386
   23MOL0     H 3010   4.491   8.756   5.762  0.1405 -0.6825 -0.2534
   23MOL0     H 3011   4.448   8.902   5.848  0.5765 -0.2328 -0.5456
   23MOL0     H 3012   4.631   8.704   5.981 -1.3257 -2.3180  3.9758
   23MOL0     H 3013   4.460   8.664   5.958 -1.0068  1.3261 -3.2563
   23MOL0     H 3014   4.524   8.766   6.186  0.8344  1.4909  1.4990
   23MOL0     H 3015   4.573   8.906   6.111 -0.3729  0.0322  0.0273
   23MOL0     H 3016   4.320   8.927   6.039  0.3676 -1.2618 -1.6523
   23MOL0     H 3017   4.330   8.894   6.219 -3.1655  3.2548 -1.9949
   23MOL0     H 3018   5.327   8.969   5.821  0.7073 -0.6635 -2.6209
   23MOL0     H 3019   5.554   8.880   5.910 -1.2415 -1.0938  3.7446
   23MOL0     H 3020   5.944   8.486   5.639 -2.7066  0.4520  0.9486
   23MOL0     H 3021   6.168   8.412   5.725 -0.4662 -1.2379  0.1590
   23MOL0     H 3022   7.762   7.657   5.855  1.2239  1.5345  1.8418
   23MOL0     H 3023   8.005   7.688   5.843  1.8146 -0.0876  1.3136
   23MOL0     H 3024   8.413   7.763   6.085  0.7705 -0.8646  0.8615
   23MOL0     H 3025   8.658   7.802   6.046 -1.0916 -2.0397  1.4491
   23MOL0     H 3026   8.875   7.592   5.700  0.2166 -2.9295  0.3020
   23MOL0     H 3027   8.852   7.499   5.846 -0.3316  0.8954  0.3587
   23MOL0     H 3028   9.067   7.717   5.822  1.0563 -0.0687 -0.4661
   23MOL0     H 3029   9.025   7.616   5.961  1.7566  1.8705 -0.1909
   23MOL0     H 3030   9.118   7.516   5.687 -0.2710  2.9598  0.8992
   23MOL0     H 3031   9.085   7.399   5.803  1.5843 -0.3265 -0.4366
   23MOL0     H 3032   9.328   7.427   5.813  0.7158 -0.0191  1.5146
   23MOL0     H 3033   9.318   7.603   5.818 -0.9442 -0.1520 -0.7800
   23MOL0     H 3034   9.263   7.513   6.222  0.5191 -3.1601 -0.2306
   23MOL0     H 3035   8.644   7.566   5.694  2.1437  1.3824  1.3460
   23MOL0     H 3036   8.413   7.519   5.723 -0.7271  0.4374  0.4563
   24MOL0     O 3037   0.291   9.737   2.487  0.2922 -0.2827 -0.3658
   24MOL0     C 3038   0.389   9.666   2.459 -0.4744 -0.1363  0.4169
   24MOL0     O 3039   0.522   9.720   2.442  0.1381  0.2695 -0.3041
   24MOL0     C 3040   0.552   9.842   2.499  0.1358 -0.3759  0.3834
   24MOL0     C 3041   0.525   9.858   2.641  0.0152  0.2136  0.9578
   24MOL0     C 3042   0.560   9.986   2.698  0.8329 -0.5057 -0.8108
   24MOL0     C 3043   0.625  10.084   2.618  0.6845 -0.3691 -0.9150
   24MOL0     O 3044   0.655  10.206   2.656 -0.2159 -0.3493 -0.0697
   24MOL0     C 3045   0.644  10.255   2.795 -0.4214  0.3234 -0.2166
   24MOL0     C 3046   0.505  10.289   2.836 -0.4846 -0.1498 -0.7473
   24MOL0     C 3047   0.465  10.413   2.746  0.3693 -0.3770  0.2869
   24MOL0     C 3048   0.333  10.476   2.817 -0.9221 -0.1916  0.0389
   24MOL0     C 3049   0.279  10.603   2.769  0.5311 -0.4056  0.7054
   24MOL0     C 3050   0.185  10.657   2.870  0.2572  0.1086  0.1879
   24MOL0     C 3051   0.125  10.798   2.844  0.3965 -0.4943 -0.7415
   24MOL0     C 3052   0.077  10.834   2.701  0.2522  0.4653 -1.0939
   24MOL0     N 3053   0.007  10.964   2.698 -0.1711 -0.1753 -0.5927
   24MOL0     C 3054  -0.133  10.977   2.690  1.2564  0.7517  0.1784
   24MOL0     C 3055  -0.150  11.115   2.688  0.2074 -0.2356  0.3005
   24MOL0     C 3056  -0.288  11.178   2.701  0.4138 -0.5211  0.7711
   24MOL0     C 3057  -0.303  11.254   2.832 -0.2055 -0.2078  0.5030
   24MOL0     C 3058  -0.310  11.165   2.956  0.4480 -0.7082  0.1929
   24MOL0     C 3059  -0.281  11.238   3.086  0.1483 -0.2978 -0.3772
   24MOL0     O 3060  -0.197  11.168   3.182 -0.8657  0.1330  0.6753
   24MOL0     C 3061  -0.066  11.131   3.157  0.7175 -0.1786  0.9368
   24MOL0     C 3062  -0.003  11.061   3.258 -0.1268  0.4530  0.6206
   24MOL0     C 3063   0.129  11.019   3.256 -0.0552  0.5382 -0.4086
   24MOL0     C 3064   0.201  11.043   3.142 -0.5966  0.7338 -0.3480
   24MOL0     C 3065   0.340  10.993   3.128 -0.0597  0.6774 -0.3059
   24MOL0     O 3066   0.385  10.984   3.005  0.5079  0.6576  0.1255
   24MOL0     C 3067   0.491  10.904   2.971 -0.0232  0.0358 -0.2106
   24MOL0     C 3068   0.602  10.963   2.913  0.1339 -0.4911 -0.2423
   24MOL0     C 3069   0.714  10.892   2.890 -0.9110 -0.0041  1.1472
   24MOL0     C 3070   0.729  10.753   2.928  0.4651 -0.1133  0.9131
   24MOL0     O 3071   0.848  10.685   2.917  0.0524 -0.4401  0.1995
   24MOL0     C 3072   0.937  10.728   2.818  0.4796  0.7485  0.5231
   24MOL0     C 3073   1.039  10.611   2.804 -0.0852 -0.1134 -0.3799
   24MOL0     C 3074   1.132  10.657   2.687  0.7445  0.0636 -0.4982
   24MOL0     C 3075   1.242  10.560   2.653  0.2140 -0.1114  0.4441
   24MOL0     C 3076   1.351  10.617   2.563 -0.1349  0.6785 -0.4174
   24MOL0     C 3077   1.454  10.508   2.541  0.3885 -0.2400 -0.5390
   24MOL0     C 3078   1.575  10.562   2.461  0.6040 -0.4165  0.7160
   24MOL0     C 3079   1.681  10.451   2.439  0.4770 -0.3636 -0.2848
   24MOL0    Cl 3080   1.807  10.513   2.326 -0.0567 -0.2763 -0.2793
   24MOL0     C 3081   0.615  10.687   2.970  0.2346  0.1375  1.2355
   24MOL0     C 3082   0.502  10.769   3.007  0.3402 -0.3071  0.0583
   24MOL0     O 3083   0.399  10.963   3.233  0.9168 -0.1918  0.0869
   24MOL0     C 3084   0.142  11.111   3.042 -0.0456 -1.5085 -0.0276
   24MOL0     C 3085   0.010  11.157   3.039 -0.0595 -0.3946  0.2085
   24MOL0     N 3086  -0.023  11.173   2.686 -1.1498 -0.1891 -0.8979
   24MOL0     N 3087   0.074  11.086   2.691  0.5487 -0.4461 -0.6633
   24MOL0     C 3088   0.655  10.058   2.487  0.5684  1.1741 -0.8767
   24MOL0     C 3089   0.622   9.933   2.429  0.9112 -0.7837 -0.3515
   24MOL0     C 3090   0.372   9.526   2.431  1.1333  0.0262  0.5900
   24MOL0     C 3091   0.238   9.469   2.416  0.3909  0.8135  0.2436
   24MOL0     C 3092   0.220   9.329   2.390 -0.1406 -0.3206 -0.4639
   24MOL0     C 3093   0.329   9.248   2.387  0.4512 -0.1780 -0.1614
   24MOL0     O 3094   0.309   9.111   2.388  0.4419 -0.6231  0.0351
   24MOL0     C 3095   0.416   9.020   2.386  0.4573  1.1435 -0.6414
   24MOL0     C 3096   0.444   8.964   2.522 -0.0897 -0.4757  1.0395
   24MOL0     C 3097   0.593   8.929   2.548 -0.6289 -0.0984  0.5322
   24MOL0     C 3098   0.590   8.803   2.636 -0.5075 -0.3691 -0.4187
   24MOL0     C 3099   0.721   8.774   2.695  0.7223  0.1270  0.1955
   24MOL0     C 3100   0.823   8.742   2.746 -0.6845 -0.5095 -0.6020
   24MOL0     C 3101   0.458   9.306   2.391 -0.0141 -0.5366  0.2140
   24MOL0     C 3102   0.472   9.441   2.410 -0.0629  0.1507  0.2841
   24MOL0     H 3103   0.479   9.778   2.699  1.3006  0.4344  2.3681
   24MOL0     H 3104   0.542   9.997   2.804  4.1513 -0.9999 -0.1041
   24MOL0     H 3105   0.706  10.344   2.811  1.5024 -0.7853 -1.1196
   24MOL0     H 3106   0.689  10.192   2.872 -0.2080  0.2546 -0.3951
   24MOL0     H 3107   0.507  10.323   2.941  1.5689  0.3695 -0.9128
   24MOL0     H 3108   0.437  10.203   2.828 -0.6742 -0.2301  1.1524
   24MOL0     H 3109   0.442  10.385   2.643  1.1465  0.0268 -0.0012
   24MOL0     H 3110   0.544  10.488   2.748 -0.0213  0.2269 -2.7778
   24MOL0     H 3111   0.253  10.404   2.834 -0.8912  0.0381  1.2379
   24MOL0     H 3112   0.380  10.497   2.914 -0.6335  0.3824 -0.2169
   24MOL0     H 3113   0.216  10.578   2.683 -0.5524 -0.6208  1.5339
   24MOL0     H 3114   0.358  10.674   2.742  0.2270  0.5527  2.1829
   24MOL0     H 3115   0.229  10.660   2.970  1.7074  1.8385 -0.4576
   24MOL0     H 3116   0.097  10.594   2.880  0.2238  0.1759  0.3203
   24MOL0     H 3117   0.037  10.816   2.906  1.3915  2.0414  0.0612
   24MOL0     H 3118   0.189  10.880   2.878 -0.8751  0.0313  0.4669
   24MOL0     H 3119   0.001  10.763   2.667  0.0457 -2.2126  3.9811
   24MOL0     H 3120   0.167  10.832   2.638  0.5523  0.9176 -0.6784
   24MOL0     H 3121  -0.210  10.901   2.699 -2.2450  4.1463  1.2530
   24MOL0     H 3122  -0.368  11.104   2.701 -0.5755  0.5123  1.4480
   24MOL0     H 3123  -0.304  11.244   2.615  1.1752  0.0589  1.0546
   24MOL0     H 3124  -0.394  11.314   2.821 -0.4372 -0.7646 -0.7636
   24MOL0     H 3125  -0.218  11.322   2.847  0.8804 -1.5586  0.6030
   24MOL0     H 3126  -0.412  11.127   2.960 -0.8670  1.9743 -3.1866
   24MOL0     H 3127  -0.249  11.076   2.941  1.1541 -0.1493 -0.3406
   24MOL0     H 3128  -0.372  11.274   3.133  0.6907  2.3650 -1.2011
   24MOL0     H 3129  -0.221  11.325   3.056  2.8226 -1.4291  1.3026
   24MOL0     H 3130  -0.057  11.042   3.351 -0.0807  0.0621  0.5700
   24MOL0     H 3131   0.167  10.958   3.338  1.8886  1.4486 -0.5610
   24MOL0     H 3132   0.607  11.067   2.882  1.9706 -0.7844 -1.0765
   24MOL0     H 3133   0.794  10.951   2.846  0.7043 -1.9263  1.3410
   24MOL0     H 3134   0.990  10.823   2.825  2.7717 -0.3735 -0.6760
   24MOL0     H 3135   0.875  10.731   2.727  0.3506  3.6260  0.5991
   24MOL0     H 3136   0.983  10.519   2.786 -2.0228  0.6253  1.4147
   24MOL0     H 3137   1.094  10.603   2.898  0.7219  2.2393 -0.5772
   24MOL0     H 3138   1.176  10.749   2.725 -1.5853 -0.0540  2.9035
   24MOL0     H 3139   1.079  10.674   2.593 -2.0665 -3.4083  0.2171
   24MOL0     H 3140   1.292  10.534   2.747  0.3821  0.6642  0.5752
   24MOL0     H 3141   1.213  10.464   2.610  0.9821 -0.5132  0.8142
   24MOL0     H 3142   1.388  10.706   2.615  0.5883  0.9816 -1.4173
   24MOL0     H 3143   1.298  10.655   2.475 -2.2798 -0.2756  0.3894
   24MOL0     H 3144   1.402  10.432   2.482 -2.0976  0.8274  0.1337
   24MOL0     H 3145   1.483  10.463   2.636  4.5327  1.3535 -0.8645
   24MOL0     H 3146   1.533  10.588   2.364 -1.4902 -3.8920  0.5158
   24MOL0     H 3147   1.621  10.650   2.506 -0.1523 -1.0143  2.7594
   24MOL0     H 3148   1.637  10.368   2.383  0.0894  1.2458 -2.5346
   24MOL0     H 3149   1.723  10.408   2.530  0.7834 -1.8080 -1.0888
   24MOL0     H 3150   0.622  10.580   2.991  1.0268  0.0546  0.5905
   24MOL0     H 3151   0.418  10.731   3.065  2.1363 -1.1666  2.2257
   24MOL0     H 3152   0.200  11.130   2.952  0.9537 -3.3395  0.1738
   24MOL0     H 3153  -0.009  11.215   2.949 -0.6780 -0.4859  0.2784
   24MOL0     H 3154   0.688  10.132   2.416  0.7242 -0.9763 -3.1952
   24MOL0     H 3155   0.639   9.916   2.323 -0.2087  0.8745 -0.8366
   24MOL0     H 3156   0.150   9.531   2.422 -1.3953 -1.4659 -0.8983
   24MOL0     H 3157   0.122   9.287   2.370  0.7305 -0.7145 -4.7789
   24MOL0     H 3158   0.501   9.063   2.332 -0.5760  1.4764 -2.0738
   24MOL0     H 3159   0.383   8.934   2.325 -1.2407  0.2208  1.4404
   24MOL0     H 3160   0.416   9.040   2.595  1.2988  3.0788 -1.8466
   24MOL0     H 3161   0.377   8.878   2.535 -1.8878  0.4577 -1.4290
   24MOL0     H 3162   0.639   9.008   2.609 -2.7069  0.6906  1.1952
   24MOL0     H 3163   0.645   8.910   2.454 -0.7347 -0.0071  0.4545
   24MOL0     H 3164   0.519   8.811   2.718  0.7689 -0.3674  0.7143
   24MOL0     H 3165   0.557   8.716   2.578 -0.8419 -3.0526  3.4312
   24MOL0     H 3166   0.917   8.731   2.795  0.3713  1.1894 -2.1075
   24MOL0     H 3167   0.547   9.249   2.368  1.1828  2.4259 -3.4187
   24MOL0     H 3168   0.575   9.477   2.404  0.1393 -0.5051 -0.3523
   25MOL0     O 3169   6.517  10.758  11.214 -0.2269 -0.1821 -0.4692
   25MOL0     C 3170   6.514  10.879  11.229  1.1329  0.1260  0.1011
   25MOL0     O 3171   6.398  10.954  11.262  0.7146  0.0733  0.9149
   25MOL0     C 3172   6.275  10.894  11.275  0.0056 -0.5926  0.9797
   25MOL0     C 3173   6.193  10.939  11.377 -0.1993 -0.0060  0.2812
   25MOL0     C 3174   6.053  10.925  11.360 -0.0709  0.8670  0.0197
   25MOL0     C 3175   5.996  10.844  11.268 -0.4709 -0.3397  0.1131
   25MOL0     O 3176   5.862  10.834  11.279  0.4931 -0.1712 -0.0952
   25MOL0     C 3177   5.792  10.782  11.167  0.2035  0.4425  0.2354
   25MOL0     C 3178   5.641  10.787  11.209  0.5972 -0.4748 -0.0034
   25MOL0     C 3179   5.575  10.668  11.131 -0.0267  1.1871 -0.5848
   25MOL0     C 3180   5.423  10.699  11.103 -0.7432 -0.8234  0.2223
   25MOL0     C 3181   5.346  10.570  11.071  0.3186 -0.8727  0.0769
   25MOL0     C 3182   5.202  10.607  11.023 -0.0069 -0.2155  0.6223
   25MOL0     C 3183   5.102  10.495  11.014  0.0351 -0.1333 -0.6332
   25MOL0     C 3184   4.967  10.536  10.961 -0.0738  0.3226 -0.2733
   25MOL0     N 3185   4.878  10.421  10.916 -0.0386  0.3162  0.3323
   25MOL0     C 3186   4.915  10.288  10.925  0.0920  0.2164  0.3401
   25MOL0     C 3187   4.808  10.225  10.870  0.4356  0.4193  0.3372
   25MOL0     C 3188   4.790  10.076  10.846 -0.0814  0.8750  0.2024
   25MOL0     C 3189   4.642  10.040  10.866  0.5922 -0.2457 -0.1337
   25MOL0     C 3190   4.627   9.893  10.887  0.1309  0.4095  0.7961
   25MOL0     C 3191   4.660   9.812  10.769 -0.2582  0.7709  0.0329
   25MOL0     O 3192   4.591   9.683  10.753 -0.2897  0.4420  0.5263
   25MOL0     C 3193   4.463   9.681  10.717 -0.1010 -0.4617 -0.1019
   25MOL0     C 3194   4.392   9.562  10.731 -0.0738 -0.3392 -0.0142
   25MOL0     C 3195   4.258   9.546  10.702  1.1154  0.5833  0.2245
   25MOL0     C 3196   4.186   9.643  10.633 -0.1185  0.0858  0.1969
   25MOL0     C 3197   4.047   9.621  10.597 -0.5865 -0.2351  0.2031
   25MOL0     O 3198   3.984   9.502  10.651 -0.6286  0.2366 -0.1237
   25MOL0     C 3199   3.858   9.477  10.601 -0.0979 -0.4751 -0.2993
   25MOL0     C 3200   3.751   9.565  10.631 -0.0643 -0.3345 -0.3302
   25MOL0     C 3201   3.623   9.528  10.577  0.5507  0.0403 -0.4149
   25MOL0     C 3202   3.600   9.412  10.499 -0.2063 -0.2935 -0.0388
   25MOL0     O 3203   3.481   9.362  10.441 -0.4352  0.7907  0.2144
   25MOL0     C 3204   3.357   9.436  10.468 -0.3244  0.0205 -0.6299
   25MOL0     C 3205   3.267   9.409  10.353  0.6109 -0.9697 -0.2242
   25MOL0     C 3206   3.115   9.380  10.382  0.0981 -0.3338 -0.0054
   25MOL0     C 3207   3.033   9.327  10.268 -0.3940  0.7079 -0.4820
   25MOL0     C 3208   2.878   9.329  10.295  0.3989 -0.9026 -0.5322
   25MOL0     C 3209   2.793   9.277  10.181 -1.0800  0.0581  0.2270
   25MOL0     C 3210   2.642   9.294  10.198  1.2340  0.4162  0.8153
   25MOL0     C 3211   2.556   9.263  10.064 -1.3757  0.6686  0.4736
   25MOL0    Cl 3212   2.391   9.352  10.079 -0.2294 -0.1517 -0.6835
   25MOL0     C 3213   3.711   9.329  10.484 -0.6914  0.0438 -0.5917
   25MOL0     C 3214   3.840   9.364  10.525 -0.9207  0.2968  0.8591
   25MOL0     O 3215   3.993   9.709  10.529  0.5895  0.2447  1.0406
   25MOL0     C 3216   4.261   9.761  10.604 -0.4847 -0.0454  0.3240
   25MOL0     C 3217   4.394   9.781  10.651 -0.1239  0.0499  0.2853
   25MOL0     N 3218   4.717  10.315  10.827 -0.0124 -0.5234 -0.1285
   25MOL0     N 3219   4.769  10.433  10.844  0.1686 -0.1537 -0.5582
   25MOL0     C 3220   6.087  10.779  11.176 -0.3998  0.1910  0.3802
   25MOL0     C 3221   6.221  10.814  11.171  0.3624 -0.5044 -0.2492
   25MOL0     C 3222   6.637  10.953  11.232 -0.3490  0.0198 -0.7677
   25MOL0     C 3223   6.750  10.936  11.152 -0.2514  0.1762 -0.6145
   25MOL0     C 3224   6.871  11.009  11.153 -0.5373 -0.0691  0.8144
   25MOL0     C 3225   6.883  11.110  11.249  0.3367  0.7045  0.2002
   25MOL0     O 3226   6.983  11.202  11.263 -0.7539  0.6593  0.0495
   25MOL0     C 3227   7.074  11.224  11.160  0.0671  0.2292  0.2054
   25MOL0     C 3228   7.145  11.360  11.198  0.2254  0.5163 -0.1750
   25MOL0     C 3229   7.244  11.418  11.102 -0.1196 -0.3583 -0.6170
   25MOL0     C 3230   7.360  11.326  11.071 -0.1097 -0.5369  0.3408
   25MOL0     C 3231   7.470  11.393  10.998 -0.1983  0.1572 -0.4190
   25MOL0     C 3232   7.554  11.459  10.946  0.1411  0.1308  0.1295
   25MOL0     C 3233   6.776  11.126  11.338  0.3463  0.4580 -0.2695
   25MOL0     C 3234   6.664  11.044  11.339  1.1198  0.0824 -0.1980
   25MOL0     H 3235   6.240  10.991  11.460  0.3327 -4.3267  2.9850
   25MOL0     H 3236   5.983  10.976  11.426 -0.5414  0.8668 -0.4719
   25MOL0     H 3237   5.820  10.677  11.155 -4.1233 -0.8125 -0.7530
   25MOL0     H 3238   5.815  10.854  11.088 -1.7036  2.1227  1.1167
   25MOL0     H 3239   5.598  10.885  11.183  1.1684 -0.9234 -2.9923
   25MOL0     H 3240   5.622  10.780  11.317 -0.3575 -0.4547 -0.1572
   25MOL0     H 3241   5.589  10.581  11.197  0.6454  2.6639  1.3244
   25MOL0     H 3242   5.625  10.642  11.038 -0.4565 -2.4422  0.0459
   25MOL0     H 3243   5.375  10.748  11.188 -2.9208 -3.7540  0.8622
   25MOL0     H 3244   5.431  10.770  11.020 -2.2376 -0.6951  0.1629
   25MOL0     H 3245   5.355  10.499  11.154  0.3918  0.4869  1.2641
   25MOL0     H 3246   5.383  10.523  10.979 -3.5993 -1.4935 -1.4034
   25MOL0     H 3247   5.212  10.666  10.931 -0.6783 -2.1929 -0.7891
   25MOL0     H 3248   5.167  10.686  11.089  1.6233  2.3306 -1.3800
   25MOL0     H 3249   5.142  10.414  10.952  1.3781 -1.2959  1.6444
   25MOL0     H 3250   5.084  10.458  11.115  0.1963 -0.3163 -0.6710
   25MOL0     H 3251   4.970  10.589  10.865 -1.2684 -3.0095 -2.3139
   25MOL0     H 3252   4.908  10.600  11.028 -0.4309 -2.4037  2.2236
   25MOL0     H 3253   5.006  10.241  10.960 -0.2362 -2.3180 -1.8758
   25MOL0     H 3254   4.858  10.033  10.920  0.8927  0.4111 -0.9257
   25MOL0     H 3255   4.821  10.056  10.743 -2.7909  1.5336 -0.8204
   25MOL0     H 3256   4.572  10.089  10.797  0.3451  1.0150  0.9728
   25MOL0     H 3257   4.610  10.077  10.964  2.1217 -0.9236  0.6730
   25MOL0     H 3258   4.692   9.866  10.971  0.6815  1.1391  0.6106
   25MOL0     H 3259   4.523   9.873  10.915  0.0564 -1.5447 -0.6125
   25MOL0     H 3260   4.768   9.796  10.769 -0.2483  0.5846 -2.2255
   25MOL0     H 3261   4.649   9.877  10.682  3.2060 -0.2337 -1.3183
   25MOL0     H 3262   4.454   9.485  10.775  2.3438  1.1420 -0.6321
   25MOL0     H 3263   4.213   9.448  10.704  1.2352  0.3553 -3.0342
   25MOL0     H 3264   3.772   9.653  10.692  0.6043 -1.4394  1.1022
   25MOL0     H 3265   3.551   9.609  10.587  1.1646  0.9094 -2.3591
   25MOL0     H 3266   3.367   9.545  10.470  0.3369 -0.0415 -0.2623
   25MOL0     H 3267   3.301   9.397  10.553 -1.2548 -0.9194 -1.6320
   25MOL0     H 3268   3.318   9.330  10.298 -0.0199 -1.4163 -0.1858
   25MOL0     H 3269   3.264   9.501  10.293  0.9034 -0.0605  1.1190
   25MOL0     H 3270   3.068   9.470  10.424  2.6610  0.8868  0.4266
   25MOL0     H 3271   3.106   9.307  10.463  1.3273  1.5742  1.9446
   25MOL0     H 3272   3.047   9.393  10.182  0.3813  0.0787 -0.8499
   25MOL0     H 3273   3.083   9.234  10.242  4.2053  2.6847  0.2315
   25MOL0     H 3274   2.845   9.430  10.324 -2.7170 -2.0517  0.3574
   25MOL0     H 3275   2.870   9.258  10.378 -1.9654 -1.5599 -1.2238
   25MOL0     H 3276   2.817   9.170  10.174  0.2395  0.3452  0.2057
   25MOL0     H 3277   2.823   9.333  10.092  0.9539  1.0572  1.4631
   25MOL0     H 3278   2.609   9.225  10.276  0.5197 -0.0943  0.0820
   25MOL0     H 3279   2.614   9.397  10.219 -2.5188 -0.1191 -0.7544
   25MOL0     H 3280   2.559   9.157  10.037 -0.3954  1.3968 -2.6821
   25MOL0     H 3281   2.608   9.311   9.980 -0.4140 -0.0726  0.6226
   25MOL0     H 3282   3.688   9.239  10.429 -1.0177 -0.4570  0.3550
   25MOL0     H 3283   3.927   9.300  10.513 -2.2129 -1.1206 -1.5907
   25MOL0     H 3284   4.210   9.838  10.547 -2.2653 -0.1775  1.6367
   25MOL0     H 3285   4.436   9.875  10.618 -2.2976  0.9982  0.0389
   25MOL0     H 3286   6.054  10.701  11.108  0.5075  1.2526 -1.3379
   25MOL0     H 3287   6.291  10.773  11.099  0.6190 -2.4006  1.0231
   25MOL0     H 3288   6.761  10.858  11.076 -0.6457  0.9178 -1.4574
   25MOL0     H 3289   6.951  10.992  11.082 -2.3817 -0.7007 -1.1915
   25MOL0     H 3290   7.010  11.258  11.077  0.4001 -2.7268 -1.3821
   25MOL0     H 3291   7.130  11.141  11.117  0.4988  1.8761 -2.6921
   25MOL0     H 3292   7.076  11.439  11.227  0.6734  1.3910 -1.4432
   25MOL0     H 3293   7.196  11.331  11.291  0.3273 -0.7967 -0.6178
   25MOL0     H 3294   7.282  11.515  11.135  2.2090 -0.8873 -1.5270
   25MOL0     H 3295   7.189  11.440  11.010  2.7697  4.2967 -1.5528
   25MOL0     H 3296   7.391  11.275  11.162 -1.0315  0.4386  1.2334
   25MOL0     H 3297   7.330  11.258  10.991 -1.5078  2.7693 -2.1921
   25MOL0     H 3298   7.631  11.517  10.900 -0.4467  1.4010  0.7213
   25MOL0     H 3299   6.784  11.207  11.410  0.8672  0.3004 -0.1458
   25MOL0     H 3300   6.584  11.044  11.413 -0.0728 -0.0890 -1.4333
   26MOL0     O 3301   0.276   4.854   1.333  0.8826  0.1290 -0.3556
   26MOL0     C 3302   0.274   4.889   1.450  0.3532  0.0606 -0.2125
   26MOL0     O 3303   0.344   4.823   1.549  1.0802  1.2405  0.0246
   26MOL0     C 3304   0.449   4.741   1.511 -0.2603 -0.1285  0.3725
   26MOL0     C 3305   0.458   4.618   1.576  0.5148 -0.4800 -0.4391
   26MOL0     C 3306   0.565   4.531   1.546  0.1236 -0.2538  0.1051
   26MOL0     C 3307   0.665   4.578   1.454 -0.2883 -0.6991  0.0678
   26MOL0     O 3308   0.764   4.488   1.438 -0.0393  0.6699 -0.2332
   26MOL0     C 3309   0.886   4.509   1.363 -0.6156  0.1518  0.9442
   26MOL0     C 3310   0.984   4.599   1.448  0.2901 -0.2625 -0.0070
   26MOL0     C 3311   1.123   4.623   1.399  0.2099 -0.0922  0.3382
   26MOL0     C 3312   1.206   4.675   1.518 -0.1598 -0.8726 -0.6359
   26MOL0     C 3313   1.339   4.741   1.471 -0.5912 -0.8323  0.0432
   26MOL0     C 3314   1.438   4.635   1.416 -0.2053  0.2684 -0.5345
   26MOL0     C 3315   1.563   4.711   1.373 -0.0481 -0.1469 -0.1216
   26MOL0     C 3316   1.688   4.640   1.400  0.0070  0.3013  0.3498
   26MOL0     N 3317   1.805   4.722   1.368 -0.2899 -0.3721  0.1398
   26MOL0     C 3318   1.932   4.665   1.364  0.6118  1.0213  0.2531
   26MOL0     C 3319   2.013   4.758   1.307 -0.2394 -0.3338 -0.2026
   26MOL0     C 3320   2.157   4.753   1.274 -0.0765 -0.2710 -0.4426
   26MOL0     C 3321   2.251   4.738   1.404 -0.0545  0.3803 -1.2230
   26MOL0     C 3322   2.387   4.802   1.381  0.4448  0.6768  0.0779
   26MOL0     C 3323   2.472   4.777   1.497 -0.2971  0.0023 -0.5142
   26MOL0     O 3324   2.422   4.845   1.610  0.1653  0.2897 -0.3992
   26MOL0     C 3325   2.506   4.877   1.701  0.6124  0.1668 -0.8938
   26MOL0     C 3326   2.632   4.816   1.732 -0.3355 -0.6110 -0.4942
   26MOL0     C 3327   2.713   4.866   1.838 -0.0233 -1.1011 -0.1124
   26MOL0     C 3328   2.665   4.981   1.912 -0.6418  0.1189  1.5369
   26MOL0     C 3329   2.742   5.042   2.023 -0.0729 -0.0062  0.5001
   26MOL0     O 3330   2.701   5.160   2.080 -0.8134 -0.2224  0.3094
   26MOL0     C 3331   2.775   5.214   2.180  0.2674  0.0872 -0.3488
   26MOL0     C 3332   2.881   5.291   2.140  0.9766 -0.2814 -0.0179
   26MOL0     C 3333   2.976   5.327   2.236  0.0882  0.7245 -1.0184
   26MOL0     C 3334   2.966   5.282   2.373  0.4509 -0.3553 -0.2053
   26MOL0     O 3335   3.059   5.311   2.466 -0.3517  0.3698 -0.5314
   26MOL0     C 3336   3.198   5.350   2.444 -0.2653 -1.0399  0.7901
   26MOL0     C 3337   3.277   5.368   2.574 -0.6667  0.5279 -0.2411
   26MOL0     C 3338   3.413   5.450   2.555  0.6221  0.1804  0.2282
   26MOL0     C 3339   3.499   5.483   2.681  0.0188 -0.3950  0.5386
   26MOL0     C 3340   3.601   5.597   2.652  0.5516  0.5677 -0.0688
   26MOL0     C 3341   3.678   5.574   2.518  1.6239  0.5620 -0.6227
   26MOL0     C 3342   3.785   5.680   2.490  0.2261  0.9395 -1.0549
   26MOL0     C 3343   3.919   5.645   2.571  0.5210  0.3638  0.2244
   26MOL0    Cl 3344   4.031   5.775   2.533  0.2729 -0.2146  0.2756
   26MOL0     C 3345   2.858   5.203   2.406 -0.6278  0.0384 -0.4716
   26MOL0     C 3346   2.769   5.173   2.307 -0.1787  1.4306 -0.1583
   26MOL0     O 3347   2.851   4.981   2.047 -0.1091  0.6197  0.2661
   26MOL0     C 3348   2.543   5.044   1.878 -0.0436 -0.3575  1.0713
   26MOL0     C 3349   2.462   4.987   1.777 -0.3094 -0.5045 -0.7627
   26MOL0     N 3350   1.935   4.872   1.288  0.1335  0.4061 -0.2204
   26MOL0     N 3351   1.815   4.851   1.318 -1.0872  0.4180 -0.0607
   26MOL0     C 3352   0.660   4.702   1.390 -0.4321  0.0396  0.3847
   26MOL0     C 3353   0.553   4.789   1.416  0.8352  1.2897 -0.2548
   26MOL0     C 3354   0.181   4.994   1.495 -0.9828  0.4284 -0.8270
   26MOL0     C 3355   0.051   5.002   1.450  0.4025  0.2788 -0.4726
   26MOL0     C 3356  -0.033   5.105   1.492 -0.2550  0.6918  0.3393
   26MOL0     C 3357   0.014   5.202   1.582 -0.8134 -0.7467 -0.0705
   26MOL0     O 3358  -0.074   5.303   1.611  0.4337 -0.2706 -0.3703
   26MOL0     C 3359  -0.166   5.259   1.716 -0.5781 -0.5738  0.5195
   26MOL0     C 3360  -0.269   5.367   1.745 -0.4781 -0.9941 -0.2639
   26MOL0     C 3361  -0.343   5.334   1.875 -0.0086  0.6113 -0.4316
   26MOL0     C 3362  -0.490   5.382   1.877 -0.6375 -1.0393  0.3244
   26MOL0     C 3363  -0.574   5.337   1.765 -0.4679 -0.0177 -0.7967
   26MOL0     C 3364  -0.631   5.281   1.671 -0.2465 -0.9123 -0.4264
   26MOL0     C 3365   0.149   5.200   1.622 -0.1151 -0.4802 -0.3862
   26MOL0     C 3366   0.230   5.093   1.579  0.9582 -1.1306 -0.1735
   26MOL0     H 3367   0.379   4.593   1.645  2.2481  0.0403  1.8961
   26MOL0     H 3368   0.566   4.433   1.593 -0.1410  0.4219  1.5812
   26MOL0     H 3369   0.878   4.560   1.266  0.1144 -0.7312  0.4001
   26MOL0     H 3370   0.930   4.411   1.343  2.0961  1.0738  1.9977
   26MOL0     H 3371   0.992   4.539   1.539 -0.1970 -1.8110 -0.9411
   26MOL0     H 3372   0.942   4.694   1.480 -0.3367 -0.5376 -0.0006
   26MOL0     H 3373   1.122   4.686   1.310  1.8741  2.6132  2.1217
   26MOL0     H 3374   1.172   4.527   1.379  0.4377 -0.0387  0.6466
   26MOL0     H 3375   1.154   4.754   1.573  1.0394 -1.7670  1.9663
   26MOL0     H 3376   1.228   4.599   1.594  0.3385  1.0218  1.1962
   26MOL0     H 3377   1.376   4.810   1.546 -3.5467  1.1442 -0.1455
   26MOL0     H 3378   1.308   4.816   1.397 -1.5727  1.2199  2.4039
   26MOL0     H 3379   1.384   4.577   1.341 -1.2758  1.6661 -0.8809
   26MOL0     H 3380   1.456   4.576   1.506 -2.1606  0.1652 -0.1772
   26MOL0     H 3381   1.554   4.750   1.272 -1.2004  2.3132  0.8475
   26MOL0     H 3382   1.583   4.799   1.435  2.9129 -1.4387  0.9414
   26MOL0     H 3383   1.694   4.546   1.344  2.3446  0.2461  0.6166
   26MOL0     H 3384   1.703   4.616   1.506  2.3253  2.5442  0.6119
   26MOL0     H 3385   1.963   4.563   1.382  0.2009  0.1328 -3.2755
   26MOL0     H 3386   2.181   4.846   1.223 -0.5538  1.4898  2.3389
   26MOL0     H 3387   2.170   4.675   1.198 -4.7167  0.8367 -2.7863
   26MOL0     H 3388   2.264   4.633   1.434 -0.1583  0.8203  0.4241
   26MOL0     H 3389   2.210   4.791   1.490 -0.2056 -1.2956 -0.2238
   26MOL0     H 3390   2.421   4.750   1.291 -1.8318 -2.4025  0.8302
   26MOL0     H 3391   2.381   4.909   1.361  0.2940  0.8740  1.0999
   26MOL0     H 3392   2.567   4.821   1.465 -0.5561  1.6404  0.8732
   26MOL0     H 3393   2.485   4.673   1.528 -1.5904 -0.0191  0.0185
   26MOL0     H 3394   2.676   4.749   1.658  1.7943 -0.5593  0.6257
   26MOL0     H 3395   2.810   4.819   1.849  0.1084 -0.7676  0.1477
   26MOL0     H 3396   2.893   5.318   2.035 -0.2458  0.5546  0.0478
   26MOL0     H 3397   3.074   5.358   2.201  0.5325  1.2602  0.6302
   26MOL0     H 3398   3.191   5.443   2.388 -0.3221 -2.6823 -2.0991
   26MOL0     H 3399   3.251   5.282   2.377  0.5643 -2.1484  2.5085
   26MOL0     H 3400   3.297   5.275   2.628  2.1658  2.2351  1.9610
   26MOL0     H 3401   3.215   5.419   2.650 -2.4050 -0.7682 -0.7171
   26MOL0     H 3402   3.393   5.543   2.501  1.7251 -0.3030 -1.0733
   26MOL0     H 3403   3.467   5.388   2.483 -4.1735 -4.3226 -0.1554
   26MOL0     H 3404   3.431   5.518   2.760  0.4182  1.1133  0.2474
   26MOL0     H 3405   3.560   5.400   2.718  0.1895 -0.3846  0.2827
   26MOL0     H 3406   3.674   5.603   2.733 -0.7885  2.0281  1.0747
   26MOL0     H 3407   3.549   5.693   2.653  0.8732  0.7356  1.0965
   26MOL0     H 3408   3.601   5.596   2.443  1.1964  1.5394  0.0849
   26MOL0     H 3409   3.723   5.476   2.500 -0.2327 -0.5063  0.2390
   26MOL0     H 3410   3.805   5.682   2.382 -1.1475 -0.6411 -1.3690
   26MOL0     H 3411   3.764   5.783   2.522  1.3955  0.6026  0.9604
   26MOL0     H 3412   3.954   5.547   2.538  0.5562  0.6865 -0.7186
   26MOL0     H 3413   3.903   5.651   2.679 -0.6249 -0.5784  0.1347
   26MOL0     H 3414   2.856   5.162   2.506 -1.9289 -2.6118 -1.4906
   26MOL0     H 3415   2.677   5.125   2.339  0.8417 -2.1067 -2.0081
   26MOL0     H 3416   2.497   5.120   1.940 -2.0641 -0.7400  0.1281
   26MOL0     H 3417   2.367   5.037   1.763  0.3050  0.6453 -0.9617
   26MOL0     H 3418   0.732   4.727   1.312  1.4265  0.1665  2.0516
   26MOL0     H 3419   0.535   4.888   1.376 -2.4877  0.7983 -0.2620
   26MOL0     H 3420   0.019   4.937   1.370 -2.8404  1.2752 -0.1099
   26MOL0     H 3421  -0.132   5.117   1.449 -0.8741  1.1341  1.8471
   26MOL0     H 3422  -0.109   5.245   1.808 -1.5762  0.4129  1.2971
   26MOL0     H 3423  -0.218   5.167   1.685  0.9152 -1.0560 -0.7223
   26MOL0     H 3424  -0.219   5.463   1.761  0.6689 -1.7118  0.6214
   26MOL0     H 3425  -0.344   5.365   1.666 -1.0854 -2.6124  0.3171
   26MOL0     H 3426  -0.295   5.380   1.962 -0.8831 -0.5549  0.7100
   26MOL0     H 3427  -0.349   5.226   1.892  0.9265  0.2287 -2.2928
   26MOL0     H 3428  -0.522   5.351   1.977 -0.3295 -0.7525  0.5110
   26MOL0     H 3429  -0.492   5.491   1.877 -1.8373 -1.0518  0.2919
   26MOL0     H 3430  -0.686   5.252   1.584  2.1692  0.3159 -2.4861
   26MOL0     H 3431   0.183   5.278   1.689 -1.6847 -1.3749  1.5572
   26MOL0     H 3432   0.333   5.101   1.612  1.6835 -1.4611 -2.1964
   27MOL0     O 3433  11.185   0.992   6.578 -0.4716 -0.2357 -0.3626
   27MOL0     C 3434  11.163   1.117   6.601  0.0438  0.0560  0.3225
   27MOL0     O 3435  11.064   1.166   6.681  0.5044  0.9931 -0.0838
   27MOL0     C 3436  10.979   1.081   6.750 -0.5268  0.5295  0.3920
   27MOL0     C 3437  10.946   0.947   6.725 -0.2364  0.4737  0.1921
   27MOL0     C 3438  10.862   0.864   6.801 -0.6452  0.4878  0.7161
   27MOL0     C 3439  10.792   0.924   6.905 -0.7050  0.1139 -0.7824
   27MOL0     O 3440  10.698   0.863   6.992 -0.3207  0.2148  0.1212
   27MOL0     C 3441  10.651   0.737   6.955 -0.7797 -0.4590 -0.5489
   27MOL0     C 3442  10.514   0.688   7.013  0.6890 -0.6259  0.0531
   27MOL0     C 3443  10.410   0.793   7.051  0.0122  0.6337  1.2308
   27MOL0     C 3444  10.355   0.859   6.927 -0.1237 -0.1743  0.6810
   27MOL0     C 3445  10.234   0.946   6.973 -0.3379  1.1087 -0.2180
   27MOL0     C 3446  10.100   0.877   6.951 -0.5996 -0.6911  0.3299
   27MOL0     C 3447   9.981   0.936   7.023  0.2054  0.4854 -0.4295
   27MOL0     C 3448   9.957   1.079   6.996  0.1474 -0.3181  0.4497
   27MOL0     N 3449   9.811   1.114   7.010  0.3125 -0.0564 -0.2415
   27MOL0     C 3450   9.749   1.142   7.129 -0.3238 -0.8213 -0.4039
   27MOL0     C 3451   9.632   1.207   7.104  0.3061  0.0136  0.2486
   27MOL0     C 3452   9.531   1.266   7.203  0.1571  0.5171  0.8850
   27MOL0     C 3453   9.417   1.356   7.135  1.1736 -0.2112  0.4014
   27MOL0     C 3454   9.283   1.274   7.096 -1.0448 -0.9716 -0.3945
   27MOL0     C 3455   9.288   1.192   6.968  0.7329 -0.0915 -0.0690
   27MOL0     O 3456   9.166   1.116   6.955 -0.1473  0.5894 -0.0302
   27MOL0     C 3457   9.076   1.190   6.888  0.1456  0.2360  0.7695
   27MOL0     C 3458   9.089   1.205   6.753  0.3593  0.0876 -0.7427
   27MOL0     C 3459   9.009   1.284   6.672  0.0176 -0.2601 -0.6003
   27MOL0     C 3460   8.910   1.363   6.734 -0.2076 -0.4147  0.5154
   27MOL0     C 3461   8.817   1.436   6.648  0.3622  0.4410  0.1172
   27MOL0     O 3462   8.693   1.460   6.713 -0.3968 -0.2289 -0.1255
   27MOL0     C 3463   8.588   1.503   6.638  0.2206 -0.6404 -0.3759
   27MOL0     C 3464   8.595   1.624   6.559 -0.2424  0.4877 -0.2692
   27MOL0     C 3465   8.479   1.667   6.497  1.5459  0.1855 -0.7547
   27MOL0     C 3466   8.354   1.600   6.522  0.6638 -0.1501  0.2843
   27MOL0     O 3467   8.233   1.619   6.464  1.3630  0.0310 -0.9346
   27MOL0     C 3468   8.191   1.754   6.459  0.1753 -0.6819  0.2485
   27MOL0     C 3469   8.047   1.756   6.412 -0.1651 -0.7120  1.0690
   27MOL0     C 3470   7.931   1.684   6.477 -0.7073  0.3176 -0.0377
   27MOL0     C 3471   7.906   1.746   6.615 -0.1188 -0.4038  0.3084
   27MOL0     C 3472   7.769   1.704   6.681 -0.3075  0.2421  0.3498
   27MOL0     C 3473   7.741   1.735   6.823  0.0064 -0.0805  0.3892
   27MOL0     C 3474   7.735   1.882   6.860 -0.2118  1.1416 -0.3861
   27MOL0     C 3475   7.673   1.902   6.993  0.1003 -0.2740 -0.5651
   27MOL0    Cl 3476   7.777   1.840   7.124  0.1689  0.2460 -0.1283
   27MOL0     C 3477   8.355   1.498   6.610  0.2817 -0.0355  0.0467
   27MOL0     C 3478   8.469   1.444   6.662 -0.0151  0.0141 -0.0392
   27MOL0     O 3479   8.837   1.459   6.533 -0.0264 -0.8595 -0.1323
   27MOL0     C 3480   8.898   1.350   6.873  0.5132  0.1373 -1.0076
   27MOL0     C 3481   8.982   1.269   6.949  0.5676 -0.1246  0.8222
   27MOL0     N 3482   9.627   1.228   6.971 -0.1058  0.3446  0.1819
   27MOL0     N 3483   9.735   1.177   6.913 -0.0365 -0.4748 -0.4527
   27MOL0     C 3484  10.827   1.056   6.941  0.6514  0.7839  0.2384
   27MOL0     C 3485  10.918   1.137   6.861  0.4634 -0.3869 -0.0522
   27MOL0     C 3486  11.265   1.196   6.562 -0.1950 -0.0763  0.7118
   27MOL0     C 3487  11.396   1.150   6.538  0.3571 -0.3177  0.0422
   27MOL0     C 3488  11.505   1.231   6.485 -0.1496 -0.1846 -0.3579
   27MOL0     C 3489  11.480   1.367   6.466 -0.2344  0.1793 -0.5074
   27MOL0     O 3490  11.590   1.441   6.418 -0.1347  0.6952 -0.6346
   27MOL0     C 3491  11.589   1.582   6.430 -0.5486  0.4038 -0.4214
   27MOL0     C 3492  11.724   1.634   6.376 -0.3750 -0.0984 -0.0626
   27MOL0     C 3493  11.735   1.781   6.391  0.3418  0.4208 -0.0003
   27MOL0     C 3494  11.863   1.834   6.335 -1.0216  0.8241  0.8600
   27MOL0     C 3495  11.915   1.948   6.419  0.0407 -0.7785 -0.2095
   27MOL0     C 3496  11.965   2.041   6.476 -0.2887 -0.1933 -0.3011
   27MOL0     C 3497  11.356   1.419   6.497  0.0536  0.6230  0.6985
   27MOL0     C 3498  11.243   1.340   6.536 -0.8806 -0.1942 -0.0175
   27MOL0     H 3499  10.980   0.900   6.634  1.2885  2.3293 -0.2779
   27MOL0     H 3500  10.843   0.762   6.768  2.1000 -0.0095  0.4405
   27MOL0     H 3501  10.717   0.652   6.974 -1.4068 -0.4322  2.1665
   27MOL0     H 3502  10.634   0.747   6.847 -1.0005  0.2393 -0.4543
   27MOL0     H 3503  10.535   0.630   7.103  1.4509 -2.2517 -1.1261
   27MOL0     H 3504  10.465   0.621   6.942 -1.1060 -0.4419  1.0584
   27MOL0     H 3505  10.469   0.865   7.109  0.5270  0.9185  0.3706
   27MOL0     H 3506  10.331   0.742   7.107  0.0901  1.2043  1.8742
   27MOL0     H 3507  10.426   0.925   6.877  1.5394 -2.8956 -0.7796
   27MOL0     H 3508  10.337   0.781   6.852 -0.0017 -0.1357  0.6104
   27MOL0     H 3509  10.234   1.028   6.901 -2.0452 -0.6607 -2.3952
   27MOL0     H 3510  10.228   0.977   7.078  1.1912  2.8324 -0.5884
   27MOL0     H 3511  10.112   0.775   6.988 -5.0795 -1.4360  0.3542
   27MOL0     H 3512  10.081   0.868   6.843  0.1809 -2.9997  0.3250
   27MOL0     H 3513   9.895   0.877   6.989 -0.1763  0.3782  0.7000
   27MOL0     H 3514   9.978   0.915   7.130  3.4487  0.2443 -0.2956
   27MOL0     H 3515   9.988   1.111   6.896 -1.3057  1.1105  0.4113
   27MOL0     H 3516  10.018   1.140   7.063 -0.0650 -1.6367  1.8824
   27MOL0     H 3517   9.799   1.119   7.222 -0.9505  1.0595  0.4459
   27MOL0     H 3518   9.598   1.324   7.268  0.2573  1.2689  0.1373
   27MOL0     H 3519   9.498   1.184   7.267  0.3991 -0.5351 -0.2936
   27MOL0     H 3520   9.461   1.404   7.047 -0.4838 -1.9103 -1.4838
   27MOL0     H 3521   9.398   1.437   7.206  0.8311 -0.0937  0.1790
   27MOL0     H 3522   9.244   1.217   7.181  1.3256 -0.9702  0.7595
   27MOL0     H 3523   9.206   1.349   7.075 -0.9046 -0.9298 -0.7633
   27MOL0     H 3524   9.379   1.133   6.974  1.0793  0.4416  0.0219
   27MOL0     H 3525   9.305   1.264   6.887  0.1493  0.9361  0.6965
   27MOL0     H 3526   9.169   1.146   6.711  0.0190 -0.2850 -0.8707
   27MOL0     H 3527   9.022   1.298   6.565 -0.3226  3.4156 -0.2772
   27MOL0     H 3528   8.697   1.657   6.545 -0.6510  1.7880 -0.3893
   27MOL0     H 3529   8.475   1.762   6.445 -0.3481  0.9946  0.7106
   27MOL0     H 3530   8.263   1.812   6.401 -2.5213  2.1117 -0.5961
   27MOL0     H 3531   8.188   1.801   6.558 -0.0130 -0.2716  0.0493
   27MOL0     H 3532   8.052   1.715   6.311 -0.4604  0.8136  0.4063
   27MOL0     H 3533   8.019   1.862   6.406  0.0835 -0.6127  1.6157
   27MOL0     H 3534   7.957   1.579   6.492  0.2791  0.3165 -1.4986
   27MOL0     H 3535   7.835   1.694   6.425 -1.8021  0.6708  1.9890
   27MOL0     H 3536   7.985   1.720   6.686  0.3908 -1.3144 -0.5723
   27MOL0     H 3537   7.901   1.855   6.604 -1.3425 -0.4079  0.7203
   27MOL0     H 3538   7.764   1.595   6.668 -2.4327  0.1915  1.1054
   27MOL0     H 3539   7.685   1.746   6.626 -0.1830  0.0179 -0.0131
   27MOL0     H 3540   7.821   1.690   6.882 -1.2794  1.4483  3.5354
   27MOL0     H 3541   7.647   1.694   6.860 -0.1780  1.0681  1.2259
   27MOL0     H 3542   7.835   1.927   6.865  0.1218  0.6407 -2.1096
   27MOL0     H 3543   7.675   1.930   6.783 -0.9500  0.1068 -0.4697
   27MOL0     H 3544   7.574   1.857   6.987 -1.1329  2.2568 -0.4232
   27MOL0     H 3545   7.657   2.009   7.010  1.8119  0.8831 -4.9702
   27MOL0     H 3546   8.266   1.447   6.647  1.8322 -1.2864  2.2775
   27MOL0     H 3547   8.458   1.348   6.713 -0.3134  0.6032  1.0355
   27MOL0     H 3548   8.818   1.397   6.929  0.1146  1.7217 -2.8179
   27MOL0     H 3549   8.972   1.267   7.058 -2.3155 -0.6939  0.6242
   27MOL0     H 3550  10.789   1.104   7.031  0.4489 -1.8915  1.6673
   27MOL0     H 3551  10.951   1.238   6.883  0.6570 -0.6489  0.8980
   27MOL0     H 3552  11.417   1.043   6.534  1.8536  0.0037 -2.2473
   27MOL0     H 3553  11.599   1.180   6.466 -0.4980 -1.7626  1.8404
   27MOL0     H 3554  11.577   1.604   6.536  2.2338  1.9094 -0.3340
   27MOL0     H 3555  11.515   1.635   6.369  0.2774 -0.1532 -1.9614
   27MOL0     H 3556  11.789   1.582   6.447 -1.9773 -1.5770  0.3891
   27MOL0     H 3557  11.749   1.607   6.273  0.1899  1.4745 -0.3712
   27MOL0     H 3558  11.720   1.790   6.499 -5.9223  0.7580 -0.5703
   27MOL0     H 3559  11.655   1.837   6.343  2.1074  1.9418 -1.3644
   27MOL0     H 3560  11.939   1.756   6.328 -1.1825  0.7955 -0.9125
   27MOL0     H 3561  11.864   1.876   6.234  1.9953 -0.7272  0.1142
   27MOL0     H 3562  12.030   2.107   6.529 -0.0568  0.5969 -1.5519
   27MOL0     H 3563  11.346   1.525   6.474  0.1090  1.0333  2.4051
   27MOL0     H 3564  11.142   1.381   6.539 -1.4417 -1.4569 -0.7512
   28MOL0     O 3565   9.657   4.278   6.995 -0.1650 -0.3075 -0.0055
   28MOL0     C 3566   9.689   4.341   6.897 -0.3554 -0.1746  0.4347
   28MOL0     O 3567   9.608   4.376   6.798 -0.0888  0.5751 -0.4949
   28MOL0     C 3568   9.487   4.322   6.782 -0.1373  0.3498 -0.1914
   28MOL0     C 3569   9.389   4.418   6.742  0.0695  0.3446 -0.4111
   28MOL0     C 3570   9.258   4.371   6.722 -0.1967 -1.7071 -0.3014
   28MOL0     C 3571   9.221   4.236   6.726 -1.2693  0.1244 -0.1181
   28MOL0     O 3572   9.098   4.187   6.706  0.2536 -0.6259 -0.5024
   28MOL0     C 3573   8.983   4.278   6.695 -0.1339 -0.8477  0.1655
   28MOL0     C 3574   8.858   4.206   6.691 -0.0132 -0.1363  0.3967
   28MOL0     C 3575   8.827   4.159   6.824  0.0277 -0.2557 -0.1809
   28MOL0     C 3576   8.695   4.081   6.821  0.6199  0.4726 -0.3082
   28MOL0     C 3577   8.585   4.188   6.823  0.0007 -0.0073 -0.9990
   28MOL0     C 3578   8.443   4.143   6.832  0.1654 -0.4659 -0.4916
   28MOL0     C 3579   8.356   4.263   6.851  0.4006 -0.2898  0.4591
   28MOL0     C 3580   8.213   4.215   6.889 -0.5321 -0.2054  0.6961
   28MOL0     N 3581   8.137   4.340   6.902  0.3612  1.3808  0.3214
   28MOL0     C 3582   8.056   4.385   6.805  0.4592  0.3315  0.9991
   28MOL0     C 3583   7.987   4.490   6.860 -0.6605  0.0652 -0.2477
   28MOL0     C 3584   7.875   4.570   6.787  0.1654  0.5361  0.5207
   28MOL0     C 3585   7.906   4.720   6.772 -0.3918  0.2286  0.6948
   28MOL0     C 3586   8.015   4.751   6.671 -0.0169 -0.4406  0.6614
   28MOL0     C 3587   7.997   4.659   6.546 -0.1711  0.2431 -0.2146
   28MOL0     O 3588   8.092   4.705   6.452  0.5651  0.1977  0.5737
   28MOL0     C 3589   8.221   4.675   6.469 -0.9879 -1.1407 -0.5912
   28MOL0     C 3590   8.314   4.753   6.403  1.2278  0.1071 -0.0651
   28MOL0     C 3591   8.449   4.736   6.399  0.0022 -0.5069 -0.5372
   28MOL0     C 3592   8.499   4.635   6.489 -0.4651  0.0944 -0.3990
   28MOL0     C 3593   8.647   4.610   6.504 -0.7349  0.0035 -0.6956
   28MOL0     O 3594   8.734   4.697   6.437  0.5451 -0.2851 -0.7431
   28MOL0     C 3595   8.870   4.686   6.456 -0.0765 -0.1990  0.8780
   28MOL0     C 3596   8.929   4.682   6.580  0.2482 -0.1076  0.0201
   28MOL0     C 3597   9.068   4.660   6.595  0.3155  0.4193  0.8980
   28MOL0     C 3598   9.147   4.649   6.484 -0.2034  0.6126 -1.0503
   28MOL0     O 3599   9.278   4.669   6.508 -0.5262 -0.2078 -0.8971
   28MOL0     C 3600   9.370   4.640   6.402 -0.8750 -0.3671  0.5726
   28MOL0     C 3601   9.510   4.591   6.450  0.8537  0.2249  0.0425
   28MOL0     C 3602   9.613   4.584   6.330 -0.0957 -0.3860  0.0985
   28MOL0     C 3603   9.741   4.523   6.376 -0.0625 -0.5784  0.0122
   28MOL0     C 3604   9.832   4.487   6.255  0.8126  0.3382 -0.1103
   28MOL0     C 3605   9.969   4.443   6.306  0.7154 -0.1914 -0.1709
   28MOL0     C 3606  10.042   4.369   6.196 -0.8268  0.1149  0.5869
   28MOL0     C 3607  10.185   4.360   6.239  0.0013  0.5561 -0.1107
   28MOL0    Cl 3608  10.281   4.289   6.117 -0.6030 -0.0227 -0.1150
   28MOL0     C 3609   9.090   4.661   6.358  0.1552  0.8974 -0.2242
   28MOL0     C 3610   8.953   4.683   6.347 -0.5375 -0.1482  0.1531
   28MOL0     O 3611   8.684   4.518   6.571  0.6312  0.1461 -0.2042
   28MOL0     C 3612   8.409   4.552   6.556 -1.0407  0.5946  0.1021
   28MOL0     C 3613   8.277   4.575   6.547  0.8821  0.4987  0.0956
   28MOL0     N 3614   8.036   4.515   6.985 -0.9631 -0.8271  0.2578
   28MOL0     N 3615   8.120   4.419   7.008  0.6561  0.5116  0.4797
   28MOL0     C 3616   9.319   4.146   6.758 -0.4342  0.1588  0.2486
   28MOL0     C 3617   9.449   4.191   6.785  0.0544 -0.3807 -0.4690
   28MOL0     C 3618   9.828   4.387   6.886  0.1788 -0.4634  0.5627
   28MOL0     C 3619   9.913   4.389   6.993 -0.7088 -0.9020 -0.0156
   28MOL0     C 3620  10.049   4.421   6.975  0.2943 -0.5822 -0.8007
   28MOL0     C 3621  10.104   4.451   6.853  0.9972 -0.5447 -1.0294
   28MOL0     O 3622  10.230   4.473   6.820  0.8082 -0.0612 -0.2105
   28MOL0     C 3623  10.319   4.387   6.881 -0.3167  0.7223 -0.4400
   28MOL0     C 3624  10.462   4.417   6.851  0.3260 -0.0033  0.7747
   28MOL0     C 3625  10.490   4.387   6.709 -0.4946  1.6365  0.8627
   28MOL0     C 3626  10.474   4.509   6.614  0.9153  0.0218  0.6199
   28MOL0     C 3627  10.489   4.461   6.480  0.0534  0.6585  0.1345
   28MOL0     C 3628  10.496   4.414   6.371  0.0078  0.0766  0.0787
   28MOL0     C 3629  10.009   4.461   6.751 -0.4524 -0.0670 -0.1766
   28MOL0     C 3630   9.874   4.435   6.766 -0.2093 -0.6007 -0.0461
   28MOL0     H 3631   9.409   4.525   6.737  2.1029  0.0049 -0.5567
   28MOL0     H 3632   9.182   4.444   6.698  0.4028 -0.9203  0.1391
   28MOL0     H 3633   8.996   4.349   6.612 -1.6983 -0.5598  0.1268
   28MOL0     H 3634   8.981   4.341   6.784 -0.5393 -0.6388  0.0127
   28MOL0     H 3635   8.870   4.127   6.616 -0.3063 -0.9712  1.2026
   28MOL0     H 3636   8.783   4.276   6.655 -0.1016 -0.4150  0.0390
   28MOL0     H 3637   8.818   4.249   6.886 -2.7033  1.4393 -2.7567
   28MOL0     H 3638   8.909   4.095   6.858 -1.8701 -1.7282  1.8245
   28MOL0     H 3639   8.682   4.005   6.744 -1.9146 -0.1185  0.6154
   28MOL0     H 3640   8.692   4.029   6.917 -2.1527  1.5684  0.3049
   28MOL0     H 3641   8.601   4.241   6.729  1.8528  1.2281 -0.0705
   28MOL0     H 3642   8.592   4.257   6.908 -1.9923 -0.4996 -0.3832
   28MOL0     H 3643   8.439   4.072   6.915  4.1567 -1.1076 -0.6552
   28MOL0     H 3644   8.413   4.086   6.744 -1.7237 -1.7714  0.9208
   28MOL0     H 3645   8.390   4.335   6.926 -1.5721  0.0428  1.0881
   28MOL0     H 3646   8.338   4.318   6.758 -1.5078  1.0486  1.5413
   28MOL0     H 3647   8.203   4.155   6.980  0.7950 -1.3021  0.1424
   28MOL0     H 3648   8.163   4.159   6.809 -2.5849 -1.7220  2.8952
   28MOL0     H 3649   8.037   4.336   6.711  2.3362 -0.3373  0.9446
   28MOL0     H 3650   7.780   4.559   6.840 -1.2556  1.6526 -1.6522
   28MOL0     H 3651   7.865   4.511   6.696  0.8976 -1.8605  1.8991
   28MOL0     H 3652   7.930   4.741   6.877 -1.3100 -2.2417  1.4762
   28MOL0     H 3653   7.815   4.765   6.732  0.5280 -1.1279 -3.3596
   28MOL0     H 3654   8.016   4.858   6.647 -1.1607 -0.4163  0.6731
   28MOL0     H 3655   8.109   4.738   6.726 -1.1776 -0.8006  2.6277
   28MOL0     H 3656   7.896   4.673   6.507  0.1246 -2.0312 -2.0265
   28MOL0     H 3657   8.013   4.552   6.562  0.8135 -0.0174 -2.4955
   28MOL0     H 3658   8.271   4.841   6.356  1.4105  1.0813  1.5150
   28MOL0     H 3659   8.511   4.812   6.353 -0.6098  0.4073  0.1189
   28MOL0     H 3660   8.862   4.698   6.664 -1.5968 -1.6526 -1.0732
   28MOL0     H 3661   9.105   4.671   6.696 -1.0165  1.2058  1.3253
   28MOL0     H 3662   9.381   4.723   6.332  1.3300 -0.4121  0.8038
   28MOL0     H 3663   9.336   4.550   6.350  0.5883  0.4933 -2.0803
   28MOL0     H 3664   9.498   4.492   6.495  2.4533  1.4663  3.5009
   28MOL0     H 3665   9.551   4.666   6.518  0.1878 -0.6048  1.4106
   28MOL0     H 3666   9.640   4.680   6.284 -1.0671 -1.4494 -2.9478
   28MOL0     H 3667   9.570   4.521   6.252 -0.3187 -0.7049  0.4721
   28MOL0     H 3668   9.788   4.596   6.442  0.9555 -0.6713 -0.5941
   28MOL0     H 3669   9.718   4.434   6.435  1.4951 -0.4297  0.8876
   28MOL0     H 3670   9.839   4.577   6.193  0.0058  1.0077  0.7309
   28MOL0     H 3671   9.780   4.409   6.198 -1.0422 -1.0357  3.1360
   28MOL0     H 3672   9.956   4.378   6.393 -0.2645 -0.9432 -0.8597
   28MOL0     H 3673  10.015   4.535   6.343 -1.3294  0.4458  0.9169
   28MOL0     H 3674   9.988   4.277   6.172 -0.6945 -0.2623  1.6690
   28MOL0     H 3675  10.028   4.427   6.104 -1.6814 -1.0226 -0.0231
   28MOL0     H 3676  10.210   4.299   6.326 -0.0002  2.0938  1.0226
   28MOL0     H 3677  10.229   4.456   6.269 -0.7510  0.8403  0.1195
   28MOL0     H 3678   9.141   4.656   6.262 -1.0636 -1.4374 -0.8243
   28MOL0     H 3679   8.899   4.704   6.255  1.7499 -0.9891 -1.4559
   28MOL0     H 3680   8.442   4.472   6.621 -1.5221  1.9636  2.1351
   28MOL0     H 3681   8.209   4.506   6.595 -0.6892  3.0572  1.7874
   28MOL0     H 3682   9.284   4.046   6.781 -1.2640  1.0948  3.5205
   28MOL0     H 3683   9.530   4.121   6.805 -0.5632 -1.1807 -0.7050
   28MOL0     H 3684   9.878   4.353   7.089 -1.1612 -2.7305 -0.8244
   28MOL0     H 3685  10.110   4.419   7.065  0.9815  0.0326 -1.2331
   28MOL0     H 3686  10.294   4.287   6.843 -3.6001  1.7307 -1.3076
   28MOL0     H 3687  10.318   4.390   6.990 -0.3435  0.5878 -0.4357
   28MOL0     H 3688  10.489   4.521   6.871 -1.1771  0.3489  1.0876
   28MOL0     H 3689  10.524   4.347   6.909  1.6274  0.2877 -0.2076
   28MOL0     H 3690  10.437   4.298   6.673  3.7140 -0.0688 -1.7640
   28MOL0     H 3691  10.596   4.364   6.704 -0.5805  1.5692 -1.4331
   28MOL0     H 3692  10.369   4.540   6.618  0.8951 -0.1626  1.6458
   28MOL0     H 3693  10.545   4.590   6.637  2.3424 -1.6290  2.3898
   28MOL0     H 3694  10.510   4.369   6.274 -0.0138  1.3577 -0.5299
   28MOL0     H 3695  10.050   4.497   6.657  1.2173  1.2070  0.9830
   28MOL0     H 3696   9.816   4.439   6.674 -0.3837 -0.2939  0.0778
   29MOL0     O 3697   7.038   5.265   6.920 -0.1531  0.0855 -0.2020
   29MOL0     C 3698   6.997   5.178   6.845 -0.0559  1.0916  0.0676
   29MOL0     O 3699   6.890   5.104   6.876 -0.2629 -0.0195 -0.1092
   29MOL0     C 3700   6.792   5.124   6.967 -0.3698 -0.0992  0.1663
   29MOL0     C 3701   6.665   5.086   6.921 -1.0980 -0.3424 -0.1365
   29MOL0     C 3702   6.558   5.067   7.006 -0.6376  0.4035 -0.8754
   29MOL0     C 3703   6.572   5.115   7.142 -0.2330 -0.1095 -0.7950
   29MOL0     O 3704   6.465   5.133   7.231  0.1850 -0.0315  0.1682
   29MOL0     C 3705   6.337   5.066   7.204  0.4012 -0.1033  0.1307
   29MOL0     C 3706   6.238   5.091   7.317 -0.0855 -0.0093 -0.0673
   29MOL0     C 3707   6.095   5.040   7.294  0.0964  1.5193 -0.1936
   29MOL0     C 3708   5.987   5.115   7.371  0.1899 -0.3645  0.1600
   29MOL0     C 3709   5.872   5.030   7.397 -0.8473 -0.9612 -0.5121
   29MOL0     C 3710   5.754   5.097   7.460 -0.2568 -1.0877 -0.0870
   29MOL0     C 3711   5.688   5.208   7.379  0.5127  0.0721  0.1273
   29MOL0     C 3712   5.641   5.184   7.235 -0.3998 -0.1124 -0.8317
   29MOL0     N 3713   5.555   5.060   7.239  0.7130 -0.1320 -0.7360
   29MOL0     C 3714   5.435   5.043   7.304 -0.7457  0.2516 -1.4092
   29MOL0     C 3715   5.399   4.915   7.278 -0.1619 -0.2842  0.2858
   29MOL0     C 3716   5.279   4.856   7.344 -0.0717  0.0783  0.3225
   29MOL0     C 3717   5.240   4.721   7.289 -0.3927 -0.3073 -0.1560
   29MOL0     C 3718   5.224   4.709   7.133 -0.2298 -0.3618 -0.3394
   29MOL0     C 3719   5.249   4.556   7.105  0.3537 -0.1080  0.5022
   29MOL0     O 3720   5.144   4.472   7.163  0.3254 -0.0117 -0.2413
   29MOL0     C 3721   5.048   4.422   7.080  0.7575  0.0823 -0.6401
   29MOL0     C 3722   4.993   4.482   6.966  0.4243  0.7544 -0.4670
   29MOL0     C 3723   4.877   4.434   6.903  1.3771 -0.1812 -0.4519
   29MOL0     C 3724   4.802   4.323   6.949  0.1510 -0.6176  0.0086
   29MOL0     C 3725   4.678   4.272   6.890 -0.6338  0.4059 -0.1480
   29MOL0     O 3726   4.637   4.157   6.939 -0.0958 -0.6477  0.4818
   29MOL0     C 3727   4.512   4.100   6.926  0.4427  0.2045 -0.4481
   29MOL0     C 3728   4.398   4.183   6.923 -0.1639 -0.0637 -0.3542
   29MOL0     C 3729   4.265   4.130   6.938  0.8526 -0.2204  0.9596
   29MOL0     C 3730   4.256   3.994   6.956  0.2663 -0.2470  1.1280
   29MOL0     O 3731   4.133   3.937   6.959  0.8061  0.6372  1.2550
   29MOL0     C 3732   4.095   3.852   7.073 -0.4645 -0.3364 -0.3233
   29MOL0     C 3733   3.941   3.849   7.084  0.3948  0.8640  0.4576
   29MOL0     C 3734   3.888   3.977   7.152  0.2183  0.1182  0.2414
   29MOL0     C 3735   3.866   3.990   7.310  0.3120 -0.8936  0.0598
   29MOL0     C 3736   3.970   3.930   7.405 -0.1651 -0.3973  0.0652
   29MOL0     C 3737   4.104   4.013   7.401  0.0225  0.4145  0.5025
   29MOL0     C 3738   4.094   4.137   7.485 -0.0171  0.5960 -0.0701
   29MOL0     C 3739   4.218   4.226   7.482  0.1138  0.5723  0.2632
   29MOL0    Cl 3740   4.347   4.158   7.585 -0.1343  0.0260  0.2879
   29MOL0     C 3741   4.364   3.911   6.976  0.6238  0.3354  0.8572
   29MOL0     C 3742   4.489   3.965   6.956 -0.0354 -0.0418  0.1294
   29MOL0     O 3743   4.629   4.337   6.799 -0.8108  0.6494  0.0287
   29MOL0     C 3744   4.860   4.260   7.063  0.0186  0.0467 -0.7726
   29MOL0     C 3745   4.975   4.313   7.124 -0.1894 -0.3821 -0.5768
   29MOL0     N 3746   5.496   4.857   7.199  0.1732  0.3573 -0.3904
   29MOL0     N 3747   5.590   4.944   7.174  0.0934  0.2224 -0.6263
   29MOL0     C 3748   6.701   5.157   7.184  0.7315 -0.9654 -0.2490
   29MOL0     C 3749   6.806   5.163   7.099 -0.1741 -0.3406 -0.0995
   29MOL0     C 3750   7.085   5.131   6.738  0.5325 -0.2006 -0.1719
   29MOL0     C 3751   7.049   5.024   6.662 -0.2837 -0.9409  0.5662
   29MOL0     C 3752   7.131   4.956   6.570 -0.2261 -0.5068 -0.0718
   29MOL0     C 3753   7.253   5.012   6.547 -0.0276 -0.4471 -0.1902
   29MOL0     O 3754   7.329   4.952   6.444  0.2320 -0.4258  0.0188
   29MOL0     C 3755   7.426   4.852   6.487  0.0350  0.0813 -0.7900
   29MOL0     C 3756   7.571   4.899   6.515  1.2811  0.3478  0.1109
   29MOL0     C 3757   7.631   4.964   6.393 -0.5314 -0.1079 -0.9307
   29MOL0     C 3758   7.790   4.955   6.401  1.1959 -0.1356  0.1588
   29MOL0     C 3759   7.840   5.044   6.502  0.5160 -0.9127 -0.3010
   29MOL0     C 3760   7.871   5.143   6.567 -0.4827 -0.7100  0.1689
   29MOL0     C 3761   7.298   5.130   6.609  0.4525 -0.4771 -0.1093
   29MOL0     C 3762   7.206   5.192   6.704  0.4747 -0.0328 -0.2876
   29MOL0     H 3763   6.665   5.078   6.813  2.7346  1.5037 -0.4614
   29MOL0     H 3764   6.460   5.027   6.979 -0.0873 -2.1580  0.5492
   29MOL0     H 3765   6.346   4.957   7.197  1.0859 -0.0012 -0.7235
   29MOL0     H 3766   6.296   5.095   7.108  0.4488  0.0354  0.1519
   29MOL0     H 3767   6.231   5.201   7.318 -3.3480 -0.1111  1.2064
   29MOL0     H 3768   6.280   5.063   7.414  0.3770  1.5692  0.2324
   29MOL0     H 3769   6.092   4.933   7.318  0.6916  1.4879 -0.2487
   29MOL0     H 3770   6.062   5.048   7.190 -0.7063 -0.0484 -0.0920
   29MOL0     H 3771   6.028   5.145   7.468 -2.4319  0.0924  1.2022
   29MOL0     H 3772   5.960   5.206   7.316 -0.2673 -0.6442 -0.0766
   29MOL0     H 3773   5.910   4.957   7.470 -3.6450 -0.5483  1.5067
   29MOL0     H 3774   5.837   4.977   7.308 -0.3757 -0.5297 -0.9591
   29MOL0     H 3775   5.776   5.156   7.549  0.6328  1.7178 -2.0354
   29MOL0     H 3776   5.680   5.023   7.493 -0.3126  0.5050  3.8423
   29MOL0     H 3777   5.597   5.245   7.427 -0.3554 -2.8829  0.9807
   29MOL0     H 3778   5.756   5.293   7.370  0.6262 -0.0583 -0.2666
   29MOL0     H 3779   5.728   5.160   7.174  1.4887 -0.2392  1.7373
   29MOL0     H 3780   5.604   5.275   7.187 -0.5408  0.9546  1.1740
   29MOL0     H 3781   5.381   5.117   7.363  1.0987  0.5880 -0.0563
   29MOL0     H 3782   5.197   4.929   7.342  0.4885  0.7535  1.2600
   29MOL0     H 3783   5.304   4.847   7.450  1.9524 -1.5016 -0.2264
   29MOL0     H 3784   5.145   4.690   7.334 -1.8818  1.2618 -2.0442
   29MOL0     H 3785   5.319   4.654   7.322 -0.1252  0.7124  1.3986
   29MOL0     H 3786   5.121   4.740   7.112 -0.7230  1.0033  3.2848
   29MOL0     H 3787   5.291   4.765   7.067 -3.1045  0.9048 -2.3888
   29MOL0     H 3788   5.348   4.531   7.145  0.6562  1.2915  0.6579
   29MOL0     H 3789   5.256   4.543   6.997  1.5917 -2.0232  0.7522
   29MOL0     H 3790   5.042   4.571   6.930 -0.5205  1.3325 -0.3659
   29MOL0     H 3791   4.845   4.486   6.814  0.5638  2.5014  1.2672
   29MOL0     H 3792   4.397   4.289   6.896 -3.0546  0.2678  0.6296
   29MOL0     H 3793   4.186   4.200   6.911  0.7152 -0.1012  1.6527
   29MOL0     H 3794   4.137   3.887   7.168  0.1263 -0.8485 -0.3958
   29MOL0     H 3795   4.133   3.752   7.054 -0.7723 -0.6063  0.4560
   29MOL0     H 3796   3.918   3.755   7.134  1.9775 -0.0098 -0.3846
   29MOL0     H 3797   3.906   3.859   6.981  0.2804  1.4189  0.5439
   29MOL0     H 3798   3.782   3.980   7.125  1.0107 -1.0041 -3.5240
   29MOL0     H 3799   3.950   4.061   7.122  0.1221 -0.7002 -2.5285
   29MOL0     H 3800   3.860   4.097   7.333  0.0141 -1.2285  1.6715
   29MOL0     H 3801   3.768   3.947   7.333  0.1630 -0.1526  0.8399
   29MOL0     H 3802   3.996   3.830   7.368  1.2259  0.5526 -1.6485
   29MOL0     H 3803   3.934   3.922   7.508  2.6336 -1.8111  1.0426
   29MOL0     H 3804   4.121   4.042   7.297  1.1598 -0.8771  0.2989
   29MOL0     H 3805   4.193   3.965   7.443  1.0002  2.6993  1.2098
   29MOL0     H 3806   4.018   4.206   7.446 -1.2933 -0.6379  0.1327
   29MOL0     H 3807   4.049   4.119   7.583  1.1688  3.4155  1.1104
   29MOL0     H 3808   4.202   4.328   7.517  0.4381 -0.0397  2.3523
   29MOL0     H 3809   4.253   4.227   7.379 -0.4051  0.0206  0.0779
   29MOL0     H 3810   4.342   3.809   7.008 -2.6315 -0.0313 -1.9371
   29MOL0     H 3811   4.571   3.894   6.963  1.8070  2.0746  1.3463
   29MOL0     H 3812   4.820   4.164   7.096  0.7100 -0.6861 -1.9774
   29MOL0     H 3813   5.012   4.257   7.209 -2.4582 -1.6385 -0.3548
   29MOL0     H 3814   6.724   5.187   7.286  0.8463  1.2406 -0.8614
   29MOL0     H 3815   6.903   5.191   7.139 -0.7518  2.3163 -0.3529
   29MOL0     H 3816   6.950   4.988   6.686 -0.8286 -2.9384 -3.6134
   29MOL0     H 3817   7.112   4.867   6.511 -1.8655 -1.4605  1.7768
   29MOL0     H 3818   7.431   4.767   6.418 -0.9689 -0.0791 -0.6767
   29MOL0     H 3819   7.387   4.806   6.578 -0.5448 -2.5498 -2.2495
   29MOL0     H 3820   7.566   4.967   6.601 -2.7898  2.3172 -1.3953
   29MOL0     H 3821   7.631   4.810   6.536 -1.3274 -1.6147 -0.2457
   29MOL0     H 3822   7.614   5.072   6.388  1.9989  0.3779 -0.5177
   29MOL0     H 3823   7.587   4.933   6.297 -3.0907  0.9461 -0.1836
   29MOL0     H 3824   7.823   4.852   6.419  0.2007 -0.2428  1.5947
   29MOL0     H 3825   7.833   4.995   6.310  0.4657 -0.4959 -0.3555
   29MOL0     H 3826   7.890   5.240   6.607  0.8713  0.7263 -3.5419
   29MOL0     H 3827   7.384   5.193   6.589 -0.5560  1.4280  1.2573
   29MOL0     H 3828   7.244   5.281   6.753  0.0745 -0.9944  1.9281
   30MOL0     O 3829  10.743   2.464   6.642  0.1441  0.4192  0.6308
   30MOL0     C 3830  10.791   2.498   6.536  0.2142 -0.8768  1.0573
   30MOL0     O 3831  10.726   2.480   6.415 -0.3491 -0.0365  0.2822
   30MOL0     C 3832  10.594   2.427   6.412 -0.3253  0.5792  0.1424
   30MOL0     C 3833  10.490   2.429   6.515 -0.4732  0.9297  0.6244
   30MOL0     C 3834  10.365   2.377   6.488 -0.9667 -0.1335 -0.2450
   30MOL0     C 3835  10.335   2.338   6.355  1.4532  0.1851  0.2747
   30MOL0     O 3836  10.211   2.299   6.320 -0.4828 -0.3981  0.2417
   30MOL0     C 3837  10.111   2.385   6.382 -1.1635 -0.1529  0.4017
   30MOL0     C 3838   9.973   2.315   6.359 -0.9843  0.3696  0.2278
   30MOL0     C 3839   9.855   2.395   6.415 -0.3584  0.6969 -0.3282
   30MOL0     C 3840   9.720   2.319   6.381 -0.3455 -0.4931 -0.3599
   30MOL0     C 3841   9.610   2.407   6.326 -0.5112  0.3333  0.4108
   30MOL0     C 3842   9.493   2.315   6.278 -0.5990  0.3676 -0.8809
   30MOL0     C 3843   9.371   2.391   6.227  1.1994  0.1964 -1.6401
   30MOL0     C 3844   9.300   2.480   6.336 -0.4437 -0.0291  1.0471
   30MOL0     N 3845   9.172   2.520   6.266 -0.0971 -0.6165 -0.1342
   30MOL0     C 3846   9.054   2.452   6.261  0.4123  0.6575  0.3678
   30MOL0     C 3847   8.969   2.528   6.196 -0.9303 -0.6560  0.3989
   30MOL0     C 3848   8.830   2.494   6.148 -1.0427 -1.5192 -0.4543
   30MOL0     C 3849   8.731   2.604   6.120  0.0029  0.1284  0.3514
   30MOL0     C 3850   8.687   2.676   6.251 -0.0385 -0.5311 -0.4685
   30MOL0     C 3851   8.577   2.783   6.231 -1.0374 -0.5286  0.8986
   30MOL0     O 3852   8.536   2.850   6.352  0.1656 -0.1768  0.5242
   30MOL0     C 3853   8.417   2.912   6.341 -0.3587 -0.4296 -0.3002
   30MOL0     C 3854   8.369   2.996   6.242 -0.3550  0.0398  0.0289
   30MOL0     C 3855   8.248   3.067   6.262 -0.9195  1.1177 -0.1335
   30MOL0     C 3856   8.166   3.044   6.372  0.0746  0.1233  0.6443
   30MOL0     C 3857   8.030   3.101   6.380  0.3738 -0.0403  0.3152
   30MOL0     O 3858   8.002   3.196   6.282  0.2630  0.2166  0.6213
   30MOL0     C 3859   7.882   3.264   6.278  0.0809  0.0135  0.1770
   30MOL0     C 3860   7.784   3.284   6.378  0.2955 -0.4063  0.0151
   30MOL0     C 3861   7.663   3.362   6.356 -0.3755 -0.0015  0.3314
   30MOL0     C 3862   7.638   3.414   6.239  0.0319  1.0851  0.5018
   30MOL0     O 3863   7.520   3.475   6.230  0.1374 -0.2761  0.6569
   30MOL0     C 3864   7.485   3.541   6.105 -0.4356  0.1844 -0.3903
   30MOL0     C 3865   7.397   3.434   6.037  0.0848  0.3924  0.3688
   30MOL0     C 3866   7.338   3.469   5.900  0.0452 -0.6490 -0.2840
   30MOL0     C 3867   7.316   3.349   5.796 -0.3382  0.0861  0.6238
   30MOL0     C 3868   7.442   3.270   5.753 -0.5146  1.6798 -0.3399
   30MOL0     C 3869   7.473   3.287   5.595  0.7367  0.0380  0.3451
   30MOL0     C 3870   7.521   3.419   5.541  0.3333 -0.2624 -1.3353
   30MOL0     C 3871   7.659   3.478   5.576  0.2842  0.4602  0.1835
   30MOL0    Cl 3872   7.662   3.548   5.743 -0.5570  0.0180 -0.1345
   30MOL0     C 3873   7.733   3.400   6.135  0.2740 -0.6306  0.9966
   30MOL0     C 3874   7.859   3.338   6.156 -0.2178  0.8645 -0.2914
   30MOL0     O 3875   7.954   3.063   6.471  0.5752 -0.3022  0.1582
   30MOL0     C 3876   8.217   2.956   6.469 -0.1943  0.7050 -0.9323
   30MOL0     C 3877   8.347   2.898   6.457  1.1598 -0.2228  0.1969
   30MOL0     N 3878   9.033   2.649   6.154  0.0707  0.8463 -0.4127
   30MOL0     N 3879   9.154   2.642   6.206 -0.4437  0.9205 -0.2512
   30MOL0     C 3880  10.430   2.347   6.252  0.2140 -0.3281  0.6919
   30MOL0     C 3881  10.559   2.395   6.280  0.6571  0.3276 -0.1845
   30MOL0     C 3882  10.927   2.550   6.530  0.1335  0.2683 -0.0715
   30MOL0     C 3883  10.991   2.570   6.410  0.2555  0.1269  0.4452
   30MOL0     C 3884  11.123   2.626   6.406  0.4644  0.5496 -1.1336
   30MOL0     C 3885  11.183   2.681   6.518  0.1296  0.5869 -0.2569
   30MOL0     O 3886  11.301   2.743   6.495  0.2497  0.6974  0.1010
   30MOL0     C 3887  11.365   2.788   6.617  0.3716  0.2007 -0.2448
   30MOL0     C 3888  11.459   2.684   6.689  0.5842 -0.0444 -0.1722
   30MOL0     C 3889  11.498   2.764   6.816 -0.3276  0.4655  0.1274
   30MOL0     C 3890  11.596   2.686   6.915  0.1284 -0.0019 -0.3092
   30MOL0     C 3891  11.632   2.789   7.009 -0.2383  0.2403 -0.5797
   30MOL0     C 3892  11.654   2.878   7.094 -0.3177  1.3786 -0.3800
   30MOL0     C 3893  11.114   2.676   6.637  1.3776  0.6035  0.2962
   30MOL0     C 3894  10.987   2.605   6.646 -0.3985 -0.4484  0.4170
   30MOL0     H 3895  10.506   2.479   6.611  1.6009  3.0058 -0.6951
   30MOL0     H 3896  10.302   2.365   6.575 -0.5505 -1.3409 -0.0907
   30MOL0     H 3897  10.117   2.480   6.329 -1.0195  0.2840  1.1719
   30MOL0     H 3898  10.109   2.404   6.490 -1.2991  0.7716  0.2398
   30MOL0     H 3899   9.968   2.213   6.399  0.4218 -0.1182 -0.7648
   30MOL0     H 3900   9.963   2.301   6.251  0.6246  0.3250  0.0594
   30MOL0     H 3901   9.843   2.496   6.373 -1.5667 -0.3885 -2.8620
   30MOL0     H 3902   9.860   2.395   6.524  0.0028  0.5476 -0.3448
   30MOL0     H 3903   9.745   2.237   6.313  0.5797 -0.5084 -0.0148
   30MOL0     H 3904   9.673   2.276   6.470 -1.9362 -0.2318 -1.0352
   30MOL0     H 3905   9.645   2.448   6.231  0.9120 -1.7388 -0.0099
   30MOL0     H 3906   9.576   2.483   6.398  0.1668  1.0949 -0.0604
   30MOL0     H 3907   9.473   2.246   6.361 -1.5399  1.6046 -0.0471
   30MOL0     H 3908   9.523   2.248   6.197 -2.1011 -1.7057  0.1582
   30MOL0     H 3909   9.416   2.452   6.148  2.7519  2.0046  0.5273
   30MOL0     H 3910   9.297   2.322   6.185 -0.2741  0.5405  0.2838
   30MOL0     H 3911   9.356   2.572   6.356 -1.5530  0.5055  1.8213
   30MOL0     H 3912   9.280   2.428   6.430 -2.6322 -1.0268  0.0908
   30MOL0     H 3913   9.050   2.348   6.293  0.2836  1.0313  1.5993
   30MOL0     H 3914   8.784   2.434   6.228 -0.6324 -0.5823  0.5157
   30MOL0     H 3915   8.856   2.437   6.059  1.6608  1.1018 -1.4960
   30MOL0     H 3916   8.642   2.567   6.068  1.0656 -1.1712 -0.6127
   30MOL0     H 3917   8.781   2.676   6.056  2.8524  0.8322  3.0867
   30MOL0     H 3918   8.668   2.607   6.333  3.2236  0.1238  1.0032
   30MOL0     H 3919   8.776   2.729   6.287 -1.1083  0.4655  0.8049
   30MOL0     H 3920   8.495   2.731   6.181  1.6074 -2.2843 -2.0098
   30MOL0     H 3921   8.621   2.855   6.161  0.3713 -1.0752  1.1911
   30MOL0     H 3922   8.422   3.015   6.150  0.1729  0.0229  0.3224
   30MOL0     H 3923   8.218   3.139   6.186  0.4626 -0.8047 -2.6883
   30MOL0     H 3924   7.796   3.248   6.479  0.1278 -0.3545  0.0535
   30MOL0     H 3925   7.595   3.374   6.440  1.2436 -1.7646  1.9842
   30MOL0     H 3926   7.570   3.584   6.051 -1.6908  0.0868 -2.5510
   30MOL0     H 3927   7.420   3.627   6.124 -0.6202  0.0364 -0.3491
   30MOL0     H 3928   7.309   3.409   6.097 -1.5860  2.7535 -0.8985
   30MOL0     H 3929   7.456   3.342   6.027 -0.4699  0.0304  0.3384
   30MOL0     H 3930   7.400   3.545   5.850 -2.0242  0.7079 -0.9316
   30MOL0     H 3931   7.235   3.506   5.908 -0.7019 -2.4482 -1.0397
   30MOL0     H 3932   7.252   3.281   5.853 -0.5192 -0.9564 -0.7860
   30MOL0     H 3933   7.269   3.390   5.707  0.7271  3.7048  1.5857
   30MOL0     H 3934   7.421   3.165   5.774  2.4816  1.2475  0.9737
   30MOL0     H 3935   7.529   3.297   5.814  0.6790  0.7987 -1.5808
   30MOL0     H 3936   7.373   3.264   5.557  1.3648 -1.5848 -0.4015
   30MOL0     H 3937   7.547   3.211   5.570  0.4569 -0.8625  2.1137
   30MOL0     H 3938   7.510   3.419   5.432 -1.1831 -2.1759 -1.2314
   30MOL0     H 3939   7.452   3.496   5.579  0.8156 -0.9587  1.1299
   30MOL0     H 3940   7.674   3.567   5.514  4.4028 -0.2100 -0.0346
   30MOL0     H 3941   7.743   3.411   5.557  1.3524  1.7095  0.3864
   30MOL0     H 3942   7.718   3.435   6.033  1.4363 -1.0524  0.6681
   30MOL0     H 3943   7.936   3.343   6.080 -1.5001 -2.7428 -2.1046
   30MOL0     H 3944   8.168   2.941   6.565  0.9481 -0.2217 -0.4779
   30MOL0     H 3945   8.384   2.834   6.537  2.2949  0.8251  0.5531
   30MOL0     H 3946  10.419   2.313   6.150 -0.8739  1.7371  0.0614
   30MOL0     H 3947  10.639   2.394   6.207  2.5011  1.8307  1.6954
   30MOL0     H 3948  10.939   2.531   6.323  0.3552 -0.1454  0.5066
   30MOL0     H 3949  11.159   2.611   6.305  0.5914  0.3800 -1.0628
   30MOL0     H 3950  11.294   2.828   6.690  1.7773  0.4682  1.0320
   30MOL0     H 3951  11.426   2.875   6.590  1.4618  0.2940  2.2108
   30MOL0     H 3952  11.407   2.592   6.716  0.3174  0.3435  0.6753
   30MOL0     H 3953  11.550   2.654   6.636 -0.2040 -0.5137 -1.2979
   30MOL0     H 3954  11.414   2.816   6.865 -2.1132 -2.0057 -0.1187
   30MOL0     H 3955  11.567   2.846   6.795  1.3138 -0.3933  1.8423
   30MOL0     H 3956  11.540   2.598   6.946 -1.5173  0.6853 -1.1886
   30MOL0     H 3957  11.684   2.646   6.863  0.0119 -0.2073 -0.3475
   30MOL0     H 3958  11.683   2.933   7.181  2.9482 -1.7975  0.8357
   30MOL0     H 3959  11.150   2.700   6.736 -1.4704  0.8458  1.3813
   30MOL0     H 3960  10.941   2.608   6.744 -0.5897  2.2029  0.3018
   31MOL0     O 3961   2.149   8.934   5.679 -0.5257  0.3900  0.6528
   31MOL0     C 3962   2.173   9.048   5.653 -0.5911 -0.1105  1.0805
   31MOL0     O 3963   2.291   9.115   5.652 -0.4166 -0.1151  0.1442
   31MOL0     C 3964   2.415   9.053   5.681  0.3593 -0.6787 -0.1049
   31MOL0     C 3965   2.446   8.949   5.755  0.2091  0.8754 -0.8557
   31MOL0     C 3966   2.584   8.904   5.777 -0.0914  0.4591 -0.2205
   31MOL0     C 3967   2.692   8.980   5.726  0.3022  0.5629 -0.7075
   31MOL0     O 3968   2.817   8.943   5.755  0.2452 -0.4397  0.0374
   31MOL0     C 3969   2.913   9.041   5.759  0.0754 -0.3423 -0.5804
   31MOL0     C 3970   3.037   8.981   5.822 -0.3261  0.3120  0.4505
   31MOL0     C 3971   3.165   9.055   5.776 -1.0471  0.1637 -0.1458
   31MOL0     C 3972   3.286   8.973   5.812  0.1599  0.1702  0.1946
   31MOL0     C 3973   3.424   9.049   5.794  0.2871 -0.5971  0.2200
   31MOL0     C 3974   3.544   8.973   5.863  0.4385 -0.0192 -0.3262
   31MOL0     C 3975   3.685   9.012   5.832  0.9887  0.6534  0.1846
   31MOL0     C 3976   3.786   8.900   5.856 -0.4492  0.4907 -0.0011
   31MOL0     N 3977   3.819   8.873   5.996  0.1507  0.2563 -0.0867
   31MOL0     C 3978   3.905   8.946   6.080  0.0716 -0.6002 -0.5960
   31MOL0     C 3979   3.912   8.866   6.195  0.6068 -1.4446 -0.3284
   31MOL0     C 3980   3.983   8.908   6.326 -0.4512  0.0272  0.3437
   31MOL0     C 3981   3.883   8.928   6.443  0.9348 -0.9043  0.0617
   31MOL0     C 3982   3.823   9.072   6.440 -0.5206 -0.5235 -0.8142
   31MOL0     C 3983   3.693   9.073   6.509 -0.0308  1.2365  0.3790
   31MOL0     O 3984   3.633   9.196   6.496 -0.2034  0.0854  0.5819
   31MOL0     C 3985   3.508   9.213   6.538  0.1201  0.4041 -0.1818
   31MOL0     C 3986   3.452   9.336   6.508  0.2945  0.2588  0.4238
   31MOL0     C 3987   3.322   9.372   6.555 -0.3089  0.3659 -0.1061
   31MOL0     C 3988   3.236   9.273   6.616 -0.2237 -0.1677  0.4855
   31MOL0     C 3989   3.096   9.304   6.656  0.4584  0.8656  0.4423
   31MOL0     O 3990   3.049   9.433   6.652 -0.7433  0.4146 -0.3527
   31MOL0     C 3991   2.918   9.476   6.666  0.7694 -0.1087  0.0929
   31MOL0     C 3992   2.803   9.411   6.612 -0.0554 -0.3123  0.2137
   31MOL0     C 3993   2.672   9.458   6.628 -0.3202  0.2314 -0.0807
   31MOL0     C 3994   2.651   9.568   6.711  0.3607  0.4483  0.2777
   31MOL0     O 3995   2.526   9.619   6.742  0.4697  0.3645 -0.5836
   31MOL0     C 3996   2.428   9.516   6.762  0.4019 -0.8764 -0.6792
   31MOL0     C 3997   2.302   9.572   6.837  0.3087 -0.6395 -0.1180
   31MOL0     C 3998   2.175   9.502   6.805  0.6303  0.4137 -0.0458
   31MOL0     C 3999   2.045   9.590   6.847 -0.0115  0.2937  0.9726
   31MOL0     C 4000   1.901   9.519   6.832  1.0110 -1.1245  0.1374
   31MOL0     C 4001   1.791   9.608   6.902 -0.0570 -0.9483 -0.7527
   31MOL0     C 4002   1.652   9.569   6.863 -0.2475  0.7460  0.5232
   31MOL0     C 4003   1.559   9.661   6.946 -1.8305  0.4408 -0.4739
   31MOL0    Cl 4004   1.388   9.613   6.925  0.0411 -0.4336  0.1136
   31MOL0     C 4005   2.759   9.630   6.774 -0.6207 -0.0708  0.0641
   31MOL0     C 4006   2.886   9.591   6.749 -0.4720  0.7329  0.6842
   31MOL0     O 4007   3.027   9.205   6.671  0.9299 -0.4090 -0.3546
   31MOL0     C 4008   3.291   9.144   6.633 -1.2615  0.9236  0.0181
   31MOL0     C 4009   3.426   9.120   6.603  0.0019  0.5041 -0.1702
   31MOL0     N 4010   3.818   8.771   6.184  0.5044 -0.4107  0.0909
   31MOL0     N 4011   3.769   8.769   6.068  1.1100  0.3494 -0.8849
   31MOL0     C 4012   2.659   9.100   5.655  0.1865  0.1135 -0.1550
   31MOL0     C 4013   2.528   9.127   5.637  0.1066 -0.4256 -1.1406
   31MOL0     C 4014   2.047   9.131   5.624  0.1214 -0.1438  0.2130
   31MOL0     C 4015   2.064   9.260   5.565  0.2628  0.3217 -0.7108
   31MOL0     C 4016   1.952   9.341   5.524 -0.8197  0.3405 -0.5728
   31MOL0     C 4017   1.823   9.292   5.547 -0.3110  0.8109  0.1323
   31MOL0     O 4018   1.711   9.353   5.512 -0.4469 -0.1459 -0.2972
   31MOL0     C 4019   1.709   9.488   5.456  0.5090 -1.0021  0.0654
   31MOL0     C 4020   1.768   9.496   5.308 -0.5688 -0.5748 -0.7330
   31MOL0     C 4021   1.863   9.608   5.282  0.0465  0.5863 -0.0896
   31MOL0     C 4022   1.950   9.621   5.159  0.2819  0.7280 -0.7804
   31MOL0     C 4023   1.866   9.637   5.038  0.3904 -1.1280 -0.5797
   31MOL0     C 4024   1.795   9.641   4.940  0.2993  0.1049  0.0150
   31MOL0     C 4025   1.812   9.158   5.594 -0.6336 -0.8483 -0.2313
   31MOL0     C 4026   1.919   9.080   5.632  0.2583 -0.5150  0.0822
   31MOL0     H 4027   2.364   8.893   5.799 -0.4709  2.1198 -0.5132
   31MOL0     H 4028   2.610   8.817   5.836 -2.1392  0.1562  0.2821
   31MOL0     H 4029   2.884   9.128   5.817 -0.6826  0.2246 -1.7771
   31MOL0     H 4030   2.934   9.074   5.657  4.8348 -3.9134 -1.1017
   31MOL0     H 4031   3.051   8.874   5.803 -0.6951 -0.5676  4.2898
   31MOL0     H 4032   3.015   9.000   5.927 -0.0849  2.6509  0.1381
   31MOL0     H 4033   3.172   9.148   5.832  0.7854 -0.2796  0.4170
   31MOL0     H 4034   3.171   9.061   5.667 -0.3002 -0.0379 -0.1220
   31MOL0     H 4035   3.282   8.941   5.917 -0.4750 -0.8408 -0.1310
   31MOL0     H 4036   3.284   8.884   5.748  1.9093  1.4342 -1.7335
   31MOL0     H 4037   3.431   9.149   5.840  2.7349  0.0204 -1.2912
   31MOL0     H 4038   3.442   9.061   5.687  2.8283  0.3395  0.6771
   31MOL0     H 4039   3.536   8.863   5.861  1.0080 -0.1266  1.7785
   31MOL0     H 4040   3.545   9.000   5.968  3.3555  0.2794 -0.3388
   31MOL0     H 4041   3.691   9.047   5.728 -2.5435 -1.5315 -0.9531
   31MOL0     H 4042   3.713   9.100   5.890  0.2965  1.1696 -0.2515
   31MOL0     H 4043   3.879   8.943   5.818 -0.1116  0.7750  1.1003
   31MOL0     H 4044   3.755   8.808   5.805  0.6163 -0.5702  1.1858
   31MOL0     H 4045   3.957   9.037   6.052  0.4993 -0.2080  1.3345
   31MOL0     H 4046   4.024   9.009   6.313 -0.5014 -0.1651 -1.5049
   31MOL0     H 4047   4.066   8.842   6.355 -0.4277 -0.2460 -0.3395
   31MOL0     H 4048   3.945   8.933   6.532  2.2767  2.2308 -0.9058
   31MOL0     H 4049   3.810   8.847   6.444  1.2449 -1.2011 -0.6013
   31MOL0     H 4050   3.894   9.132   6.499 -0.5308 -1.1784 -0.1192
   31MOL0     H 4051   3.819   9.121   6.343 -0.0291  2.8062  0.7209
   31MOL0     H 4052   3.709   9.045   6.613 -1.1716  1.8118  0.7355
   31MOL0     H 4053   3.630   8.998   6.461  1.7655  0.5440 -1.0376
   31MOL0     H 4054   3.520   9.403   6.456 -0.8472  0.6486 -0.6156
   31MOL0     H 4055   3.290   9.475   6.546 -0.3510  0.2222 -2.0945
   31MOL0     H 4056   2.821   9.327   6.544 -0.7685  2.0191 -3.1047
   31MOL0     H 4057   2.593   9.407   6.574 -0.6637  1.6919 -1.0279
   31MOL0     H 4058   2.458   9.445   6.840  0.7518  1.0146  0.9914
   31MOL0     H 4059   2.395   9.479   6.664  0.8848 -0.4725 -0.9947
   31MOL0     H 4060   2.296   9.676   6.802 -2.0136 -0.9129 -0.6773
   31MOL0     H 4061   2.316   9.554   6.944  0.0215 -1.7016 -0.2530
   31MOL0     H 4062   2.185   9.409   6.860  0.8588 -0.7578 -1.9827
   31MOL0     H 4063   2.169   9.486   6.697  1.1202 -2.3292  0.2827
   31MOL0     H 4064   2.053   9.615   6.953  0.1288  0.5507  0.9006
   31MOL0     H 4065   2.054   9.679   6.784 -0.6314 -1.1219 -1.2761
   31MOL0     H 4066   1.906   9.427   6.891 -2.2238 -1.6863 -0.2989
   31MOL0     H 4067   1.875   9.509   6.726  2.6496 -2.1120 -0.2112
   31MOL0     H 4068   1.804   9.709   6.862  0.9721 -0.7243  0.0983
   31MOL0     H 4069   1.804   9.608   7.010 -1.3786  1.7547 -0.5075
   31MOL0     H 4070   1.640   9.594   6.757 -0.2876 -1.3856 -0.0330
   31MOL0     H 4071   1.638   9.461   6.879  0.6259  0.7477  1.3802
   31MOL0     H 4072   1.562   9.764   6.909 -1.6795  0.6320  0.0482
   31MOL0     H 4073   1.584   9.661   7.053 -0.4335  0.3422 -0.7740
   31MOL0     H 4074   2.763   9.713   6.844  0.1677  0.0482 -0.1096
   31MOL0     H 4075   2.968   9.638   6.802  0.5251 -1.3417  1.0911
   31MOL0     H 4076   3.232   9.064   6.676 -2.4394  1.0924 -1.2065
   31MOL0     H 4077   3.467   9.021   6.626 -1.5881 -0.3749 -0.9645
   31MOL0     H 4078   2.732   9.170   5.616 -1.2205  0.8065 -1.6652
   31MOL0     H 4079   2.509   9.220   5.584  0.7309  1.5600  1.8695
   31MOL0     H 4080   2.165   9.299   5.564  1.4354 -2.3870  1.3037
   31MOL0     H 4081   1.973   9.446   5.508  1.6023  0.2771  1.5028
   31MOL0     H 4082   1.763   9.561   5.517  1.3187 -0.4572 -1.2615
   31MOL0     H 4083   1.607   9.526   5.453  0.6111 -0.7184  0.1710
   31MOL0     H 4084   1.817   9.402   5.280  1.3284  0.9588 -2.9200
   31MOL0     H 4085   1.693   9.490   5.228  0.6170 -0.0782 -1.9100
   31MOL0     H 4086   1.943   9.600   5.357  0.8388 -1.1303 -1.0686
   31MOL0     H 4087   1.808   9.700   5.304 -0.3966  0.4496 -0.6088
   31MOL0     H 4088   2.012   9.709   5.176  0.3746  0.5979 -0.4351
   31MOL0     H 4089   2.016   9.533   5.160 -0.2500  0.3011  1.0974
   31MOL0     H 4090   1.731   9.621   4.857 -3.5799  3.2427  1.9425
   31MOL0     H 4091   1.719   9.103   5.590 -1.1389 -0.1166  0.7993
   31MOL0     H 4092   1.902   8.977   5.663  1.1605 -2.0396 -3.8715
   32MOL0     O 4093   2.310   9.031   8.048  0.8679 -0.3077 -0.3056
   32MOL0     C 4094   2.319   9.152   8.076  0.2865 -1.3173  0.1377
   32MOL0     O 4095   2.216   9.223   8.121 -0.0236 -0.1478  0.0115
   32MOL0     C 4096   2.101   9.153   8.148  0.2780 -0.2227  0.7723
   32MOL0     C 4097   2.037   9.176   8.269  0.0476 -0.8030  0.6470
   32MOL0     C 4098   1.908   9.131   8.286 -0.2775 -0.1310  0.6330
   32MOL0     C 4099   1.843   9.043   8.196 -0.1974 -0.9378 -0.2478
   32MOL0     O 4100   1.723   8.976   8.224 -0.7492 -0.9435 -0.3844
   32MOL0     C 4101   1.667   8.986   8.355  0.6116  0.8547 -0.4772
   32MOL0     C 4102   1.525   8.930   8.359 -0.3388  0.1831  0.5305
   32MOL0     C 4103   1.483   8.905   8.509  0.2744  0.8062 -0.0876
   32MOL0     C 4104   1.341   8.841   8.509 -0.2741 -0.2168 -0.3002
   32MOL0     C 4105   1.245   8.962   8.501 -0.2085 -0.1495 -0.2149
   32MOL0     C 4106   1.103   8.913   8.502  0.7800 -0.0892  0.9906
   32MOL0     C 4107   0.994   9.027   8.509  0.3471  0.4060  0.2637
   32MOL0     C 4108   0.987   9.088   8.650  0.9516  0.2652  0.2977
   32MOL0     N 4109   0.862   9.159   8.688  0.0106  1.0456 -0.5473
   32MOL0     C 4110   0.775   9.093   8.784  0.4641  0.0090  0.9004
   32MOL0     C 4111   0.651   9.153   8.775  0.1634 -0.0623  0.1329
   32MOL0     C 4112   0.531   9.125   8.853  0.5092  0.1538 -0.1609
   32MOL0     C 4113   0.438   9.049   8.758 -0.3194  0.3046 -0.1744
   32MOL0     C 4114   0.319   8.988   8.827 -0.6532 -0.8912 -0.3859
   32MOL0     C 4115   0.227   9.098   8.877  0.3834  0.4268 -0.7015
   32MOL0     O 4116   0.115   9.034   8.951 -0.2240 -0.2625 -0.2266
   32MOL0     C 4117   0.031   9.118   9.021 -0.6518  1.0040 -0.8336
   32MOL0     C 4118  -0.071   9.045   9.082 -0.2058 -0.0639  0.5917
   32MOL0     C 4119  -0.182   9.099   9.142  0.1147 -0.3324  0.2042
   32MOL0     C 4120  -0.192   9.250   9.142 -0.5754  0.8894  0.0517
   32MOL0     C 4121  -0.313   9.315   9.199 -0.0217 -0.1205  0.1502
   32MOL0     O 4122  -0.430   9.244   9.224  0.0483 -0.3441  0.8670
   32MOL0     C 4123  -0.535   9.308   9.289 -0.1370 -0.0852  0.4368
   32MOL0     C 4124  -0.564   9.267   9.422 -0.0293 -0.5734  0.7115
   32MOL0     C 4125  -0.675   9.331   9.480 -0.6088  1.5900  0.0732
   32MOL0     C 4126  -0.765   9.417   9.415 -0.3714  1.1164  0.2734
   32MOL0     O 4127  -0.872   9.465   9.486  0.0163  0.2980  0.3773
   32MOL0     C 4128  -0.970   9.538   9.411 -0.1819  0.6332  0.1687
   32MOL0     C 4129  -1.053   9.602   9.514  1.0965 -0.2701  0.8172
   32MOL0     C 4130  -1.185   9.636   9.451  0.6852  0.2568 -0.3390
   32MOL0     C 4131  -1.181   9.785   9.394 -0.2287  0.7234  0.1193
   32MOL0     C 4132  -1.313   9.848   9.350  1.7246  0.6347  0.6026
   32MOL0     C 4133  -1.378   9.784   9.223  0.2437  0.8221 -0.6439
   32MOL0     C 4134  -1.505   9.857   9.167  0.9289 -0.5208  0.6892
   32MOL0     C 4135  -1.484   9.986   9.085  0.9585 -0.0288  0.4754
   32MOL0    Cl 4136  -1.633   9.997   8.988 -0.6542 -0.3542  0.0433
   32MOL0     C 4137  -0.740   9.447   9.279 -0.2150 -0.1735 -0.1449
   32MOL0     C 4138  -0.626   9.392   9.224  0.0723 -0.2311  0.3537
   32MOL0     O 4139  -0.302   9.441   9.215  0.6532  0.2603  0.0536
   32MOL0     C 4140  -0.083   9.324   9.088  0.5952 -0.0235  0.5101
   32MOL0     C 4141   0.023   9.257   9.018  0.6970  0.2896 -0.0762
   32MOL0     N 4142   0.674   9.250   8.674 -0.5501 -0.2680  0.3864
   32MOL0     N 4143   0.793   9.244   8.608 -0.3851 -0.0520 -1.1138
   32MOL0     C 4144   1.904   9.012   8.078  0.0299  0.6037 -0.1032
   32MOL0     C 4145   2.031   9.076   8.053  1.6733  0.4888 -0.4252
   32MOL0     C 4146   2.443   9.233   8.057 -0.6653 -0.7204  0.6778
   32MOL0     C 4147   2.457   9.371   8.085 -0.2010  0.8146  0.7872
   32MOL0     C 4148   2.579   9.434   8.069  0.5766  0.6401  0.3760
   32MOL0     C 4149   2.687   9.372   8.009  0.5879  0.6437 -0.8596
   32MOL0     O 4150   2.806   9.439   8.001  0.0326 -1.2288  0.0583
   32MOL0     C 4151   2.881   9.409   7.882  1.3908 -0.4159 -0.6376
   32MOL0     C 4152   2.968   9.534   7.853  1.1954  0.6447  0.4629
   32MOL0     C 4153   2.875   9.657   7.819 -0.3826  0.0798  0.7302
   32MOL0     C 4154   2.954   9.764   7.735 -0.3661  0.4475 -0.3402
   32MOL0     C 4155   3.013   9.712   7.608 -1.2390 -0.1222  0.1927
   32MOL0     C 4156   3.055   9.698   7.492  0.2853  0.6988  0.2050
   32MOL0     C 4157   2.674   9.233   7.981  0.4192 -0.2043  0.3403
   32MOL0     C 4158   2.557   9.168   7.999  0.1048  0.3913  0.1492
   32MOL0     H 4159   2.080   9.245   8.340 -2.8695  2.7879 -0.7551
   32MOL0     H 4160   1.862   9.169   8.376  2.9999  2.5842  1.3669
   32MOL0     H 4161   1.669   9.085   8.400  2.0459  1.2402 -1.3116
   32MOL0     H 4162   1.729   8.920   8.417 -0.5821 -0.2839 -0.4358
   32MOL0     H 4163   1.524   8.834   8.306 -1.6999 -0.1021  1.0094
   32MOL0     H 4164   1.456   9.000   8.311  1.4770  1.2000 -0.6813
   32MOL0     H 4165   1.482   8.994   8.572  0.4386 -0.4055  1.7117
   32MOL0     H 4166   1.552   8.837   8.561 -0.8453  1.6414  2.6731
   32MOL0     H 4167   1.328   8.768   8.428 -0.2045 -0.9583  0.3393
   32MOL0     H 4168   1.322   8.786   8.602  0.1512  1.7192  0.9775
   32MOL0     H 4169   1.268   9.021   8.411 -1.6137 -1.9910 -1.8749
   32MOL0     H 4170   1.272   9.029   8.583  0.3330 -1.7819  0.9742
   32MOL0     H 4171   1.098   8.843   8.586 -0.0788 -0.0174  1.0091
   32MOL0     H 4172   1.081   8.863   8.408  1.8795  2.9520 -1.0587
   32MOL0     H 4173   1.016   9.114   8.446  0.5789  1.0267  1.1875
   32MOL0     H 4174   0.899   8.980   8.480  1.0089 -0.6407 -0.2510
   32MOL0     H 4175   1.068   9.161   8.660 -0.0994  1.7670 -1.6565
   32MOL0     H 4176   1.008   9.015   8.729  2.0152  3.6300  3.4180
   32MOL0     H 4177   0.797   9.004   8.843  1.5325 -2.1523 -2.4677
   32MOL0     H 4178   0.483   9.221   8.876  0.3363  0.0323 -0.0043
   32MOL0     H 4179   0.547   9.071   8.947 -2.1856 -0.8597 -0.1742
   32MOL0     H 4180   0.494   8.967   8.712 -1.1244  0.3456 -1.2788
   32MOL0     H 4181   0.403   9.114   8.677 -4.1839 -0.2892  0.8589
   32MOL0     H 4182   0.267   8.925   8.754  0.8650 -1.6807 -0.8419
   32MOL0     H 4183   0.362   8.928   8.907 -0.8571 -0.2705  0.2009
   32MOL0     H 4184   0.187   9.150   8.789 -3.6229  0.9367  1.2122
   32MOL0     H 4185   0.289   9.161   8.940  1.9504 -0.6522 -1.0989
   32MOL0     H 4186  -0.068   8.937   9.071 -1.0205 -0.2250  1.7438
   32MOL0     H 4187  -0.267   9.042   9.178  1.1908 -2.2441 -0.1550
   32MOL0     H 4188  -0.496   9.193   9.465 -0.8455 -0.6367  1.9715
   32MOL0     H 4189  -0.691   9.300   9.583 -2.4926 -2.2276 -1.1812
   32MOL0     H 4190  -1.024   9.466   9.350  3.1956 -0.8189 -1.3542
   32MOL0     H 4191  -0.932   9.610   9.339  1.6012 -1.5296 -1.1931
   32MOL0     H 4192  -1.004   9.690   9.556  1.8541  1.9104 -4.0007
   32MOL0     H 4193  -1.069   9.534   9.598  2.6586  0.0917  1.4482
   32MOL0     H 4194  -1.259   9.621   9.531  1.4924 -1.4349  0.1400
   32MOL0     H 4195  -1.216   9.569   9.371  2.4440  0.7704 -1.5015
   32MOL0     H 4196  -1.148   9.854   9.473  1.3539  1.8775 -1.4647
   32MOL0     H 4197  -1.102   9.794   9.319  0.8639 -4.0538  0.3753
   32MOL0     H 4198  -1.303   9.957   9.339 -1.8128  1.2629  2.0963
   32MOL0     H 4199  -1.382   9.834   9.433  3.1575 -1.1785  1.5449
   32MOL0     H 4200  -1.417   9.685   9.248 -0.4021  0.9468 -1.1118
   32MOL0     H 4201  -1.304   9.769   9.144  2.2659 -0.6885  1.3993
   32MOL0     H 4202  -1.557   9.786   9.101 -2.6268  2.3251  0.1263
   32MOL0     H 4203  -1.574   9.892   9.244 -1.1626 -1.9704 -0.4059
   32MOL0     H 4204  -1.401   9.979   9.013 -0.9633 -0.2694 -1.8315
   32MOL0     H 4205  -1.469  10.071   9.153  0.3687 -0.0425  0.6244
   32MOL0     H 4206  -0.815   9.496   9.217  1.4946  0.5740 -1.7391
   32MOL0     H 4207  -0.607   9.420   9.121 -0.7274 -0.5493  0.1113
   32MOL0     H 4208  -0.087   9.433   9.091 -2.7721 -0.0354  0.0544
   32MOL0     H 4209   0.098   9.313   8.963  1.0825  0.2072  0.3617
   32MOL0     H 4210   1.850   8.947   8.010 -3.2329  3.0657 -0.1804
   32MOL0     H 4211   2.076   9.071   7.954  0.9434 -1.0526 -0.7092
   32MOL0     H 4212   2.363   9.422   8.102  0.1418  1.6462  0.2784
   32MOL0     H 4213   2.578   9.539   8.096  1.8575  0.4226  1.3865
   32MOL0     H 4214   2.816   9.378   7.799  0.6683 -0.0863 -0.1993
   32MOL0     H 4215   2.958   9.337   7.912  1.8330  0.8849  1.5516
   32MOL0     H 4216   3.025   9.541   7.947  0.9312  0.9586  0.5994
   32MOL0     H 4217   3.047   9.516   7.779  2.8923  2.5268  1.7181
   32MOL0     H 4218   2.850   9.706   7.913  2.3462  3.8510 -0.2315
   32MOL0     H 4219   2.778   9.634   7.774 -0.6554  2.3127  0.0334
   32MOL0     H 4220   2.875   9.831   7.699  0.9047  1.1111 -2.0570
   32MOL0     H 4221   3.021   9.817   7.803 -2.4964  2.6347  0.1823
   32MOL0     H 4222   3.098   9.696   7.394  2.9732 -0.1568  1.2922
   32MOL0     H 4223   2.754   9.175   7.935 -1.3807 -1.4769 -1.3871
   32MOL0     H 4224   2.548   9.064   7.972  0.9109  0.5930 -0.9579
   33MOL0     O 4225   8.574   2.516   5.479 -0.5470  0.7741 -0.4473
   33MOL0     C 4226   8.648   2.451   5.548 -0.4767 -0.0682 -0.5586
   33MOL0     O 4227   8.673   2.480   5.688  0.3934  0.5192  0.7871
   33MOL0     C 4228   8.617   2.604   5.742 -0.1044 -0.0090  0.4195
   33MOL0     C 4229   8.493   2.605   5.793  0.5435 -0.8396 -0.3673
   33MOL0     C 4230   8.427   2.723   5.836  0.0129 -0.5808  0.6839
   33MOL0     C 4231   8.499   2.841   5.850  0.1017  0.2949  0.3148
   33MOL0     O 4232   8.434   2.942   5.914 -0.3189  0.6742  0.2575
   33MOL0     C 4233   8.467   3.078   5.876 -1.1041  0.0086  0.0395
   33MOL0     C 4234   8.457   3.108   5.723 -0.2986  0.4451  0.0057
   33MOL0     C 4235   8.447   3.253   5.689  0.2580 -0.0448  0.2274
   33MOL0     C 4236   8.567   3.326   5.729 -0.4798  0.1007 -0.4122
   33MOL0     C 4237   8.693   3.303   5.640  0.3017  0.7718 -0.2749
   33MOL0     C 4238   8.824   3.359   5.719 -0.2760  0.8405 -0.6461
   33MOL0     C 4239   8.957   3.358   5.632  0.2417 -0.9916  0.5447
   33MOL0     C 4240   9.090   3.388   5.710 -0.1704 -0.1602  0.1127
   33MOL0     N 4241   9.075   3.500   5.801  0.4404  0.1837  0.7372
   33MOL0     C 4242   9.093   3.638   5.768  0.1824 -0.5872 -0.3767
   33MOL0     C 4243   9.045   3.706   5.877 -0.0936 -0.8934  0.4792
   33MOL0     C 4244   9.040   3.861   5.886  0.3784  0.5816 -0.0325
   33MOL0     C 4245   8.908   3.919   5.926 -0.1365  0.3770 -1.0694
   33MOL0     C 4246   8.790   3.862   5.852 -0.0014 -0.4797 -0.2631
   33MOL0     C 4247   8.662   3.910   5.921 -0.2318 -0.1302 -0.6654
   33MOL0     O 4248   8.553   3.906   5.828 -0.8208  0.4082 -0.3343
   33MOL0     C 4249   8.441   3.980   5.851 -0.0529 -0.0472 -0.0639
   33MOL0     C 4250   8.425   4.049   5.974 -0.2547 -0.2879 -0.2069
   33MOL0     C 4251   8.306   4.121   5.995 -0.2245 -1.1156  0.0962
   33MOL0     C 4252   8.207   4.134   5.894  0.1355  0.0284 -0.4191
   33MOL0     C 4253   8.080   4.211   5.921 -0.1100  0.7297  0.1312
   33MOL0     O 4254   7.993   4.227   5.821  0.1445 -0.2921  0.2240
   33MOL0     C 4255   7.858   4.269   5.828 -1.2328  0.6737 -0.7614
   33MOL0     C 4256   7.807   4.350   5.933 -0.1473  0.3202 -0.1554
   33MOL0     C 4257   7.676   4.401   5.933 -0.2684  0.8287  0.2674
   33MOL0     C 4258   7.580   4.351   5.839 -0.9520  0.4512  0.8207
   33MOL0     O 4259   7.448   4.389   5.873 -0.8963 -0.3777  0.7951
   33MOL0     C 4260   7.338   4.315   5.813 -0.0063 -0.4292 -0.6996
   33MOL0     C 4261   7.210   4.375   5.866  0.3957  0.1761  0.6003
   33MOL0     C 4262   7.096   4.281   5.838 -0.6914 -0.0093 -0.0014
   33MOL0     C 4263   6.961   4.340   5.859  0.4087  1.0672  1.2325
   33MOL0     C 4264   6.848   4.238   5.826 -0.0153  0.7470 -0.0111
   33MOL0     C 4265   6.724   4.324   5.822 -0.2420 -0.0837  0.0031
   33MOL0     C 4266   6.585   4.251   5.840 -0.5181  0.0069  0.0783
   33MOL0     C 4267   6.476   4.317   5.747  0.1775  0.0441  0.6964
   33MOL0    Cl 4268   6.327   4.225   5.740 -0.1338 -0.1965 -0.0498
   33MOL0     C 4269   7.627   4.266   5.736 -0.6967  0.2370 -0.1643
   33MOL0     C 4270   7.769   4.224   5.733  0.3719  0.2381 -0.1073
   33MOL0     O 4271   8.056   4.229   6.036  0.2953 -0.3188  0.0672
   33MOL0     C 4272   8.229   4.078   5.768 -0.5362 -0.6035 -0.4609
   33MOL0     C 4273   8.347   3.995   5.751 -0.1170 -0.3837 -0.5921
   33MOL0     N 4274   8.999   3.607   5.963 -0.2308 -0.3853  0.7036
   33MOL0     N 4275   9.022   3.486   5.926 -0.2986  0.3025 -0.0988
   33MOL0     C 4276   8.632   2.836   5.798  0.5316  0.4578 -0.7920
   33MOL0     C 4277   8.694   2.722   5.752  0.2022 -0.1617 -0.4820
   33MOL0     C 4278   8.731   2.345   5.473 -0.0809 -1.1433  0.0039
   33MOL0     C 4279   8.688   2.294   5.351  0.3829 -0.4310  0.0487
   33MOL0     C 4280   8.745   2.185   5.295  0.1653  0.9925 -0.1378
   33MOL0     C 4281   8.844   2.110   5.363  0.1346 -0.6406 -1.4370
   33MOL0     O 4282   8.898   1.991   5.303 -0.0695 -0.4082  0.2063
   33MOL0     C 4283   9.041   1.969   5.322 -0.4521  0.4639 -0.3202
   33MOL0     C 4284   9.083   1.855   5.238  0.6828  0.6067  0.1742
   33MOL0     C 4285   9.220   1.811   5.283  0.9905 -0.5120 -0.4586
   33MOL0     C 4286   9.329   1.857   5.195 -0.2229 -0.3751  0.2537
   33MOL0     C 4287   9.395   1.992   5.221 -0.2071  0.6751 -0.2383
   33MOL0     C 4288   9.444   2.099   5.244  0.2715  0.4174 -0.2417
   33MOL0     C 4289   8.888   2.155   5.491  0.3630 -0.6853  0.1997
   33MOL0     C 4290   8.834   2.271   5.541 -0.0814  1.4334 -0.7665
   33MOL0     H 4291   8.430   2.517   5.796 -1.3505  0.3759 -1.8235
   33MOL0     H 4292   8.325   2.727   5.875  0.2688 -1.2649  1.4464
   33MOL0     H 4293   8.570   3.094   5.908 -1.9672  2.9081  1.7560
   33MOL0     H 4294   8.406   3.156   5.922  0.1022  2.4389 -2.1948
   33MOL0     H 4295   8.370   3.062   5.676 -2.3406  1.7628  2.2354
   33MOL0     H 4296   8.548   3.068   5.678  0.0621  0.4888  0.6833
   33MOL0     H 4297   8.358   3.294   5.737 -0.9406 -1.1711 -0.9379
   33MOL0     H 4298   8.432   3.255   5.580  0.6923 -1.3300  0.1202
   33MOL0     H 4299   8.549   3.434   5.739 -0.0144  0.1408  0.0778
   33MOL0     H 4300   8.597   3.295   5.830 -1.6909  1.7106  0.4992
   33MOL0     H 4301   8.670   3.366   5.553  0.3323  1.1498 -0.0102
   33MOL0     H 4302   8.725   3.199   5.628  1.2832  0.9978  0.2771
   33MOL0     H 4303   8.840   3.287   5.799  0.0311  0.2666 -1.2126
   33MOL0     H 4304   8.817   3.457   5.767  0.1930 -1.1463  3.9999
   33MOL0     H 4305   8.966   3.272   5.566 -2.3775 -0.1043 -1.1338
   33MOL0     H 4306   8.938   3.442   5.564  0.1638 -1.1419  0.3824
   33MOL0     H 4307   9.171   3.419   5.643  0.0396 -0.4379  0.2360
   33MOL0     H 4308   9.128   3.292   5.747  2.0672  1.2761  1.8489
   33MOL0     H 4309   9.133   3.685   5.679 -0.1370  1.3469  0.4322
   33MOL0     H 4310   9.082   3.907   5.796  0.6439  2.9716  1.2248
   33MOL0     H 4311   9.106   3.897   5.965  0.0755  1.2865 -0.0920
   33MOL0     H 4312   8.917   4.026   5.904  0.8892  0.2395 -1.3384
   33MOL0     H 4313   8.898   3.910   6.034 -0.5169  0.0656 -1.1267
   33MOL0     H 4314   8.777   3.895   5.748 -1.1391  0.7314  0.2372
   33MOL0     H 4315   8.792   3.753   5.849  1.4308 -0.4504 -2.2097
   33MOL0     H 4316   8.676   4.015   5.949 -1.8440  1.3274 -4.6083
   33MOL0     H 4317   8.641   3.860   6.015  0.7146  0.7883  0.0641
   33MOL0     H 4318   8.492   4.036   6.058  0.5326 -1.4004 -0.9784
   33MOL0     H 4319   8.298   4.161   6.095 -1.0823  0.6623 -0.6302
   33MOL0     H 4320   7.864   4.399   6.011 -0.9877  0.7968  0.1644
   33MOL0     H 4321   7.642   4.470   6.009 -1.3062 -2.0365  2.6246
   33MOL0     H 4322   7.351   4.216   5.856  1.1057  1.2465  3.3037
   33MOL0     H 4323   7.330   4.315   5.703 -1.2885 -3.1011 -0.6700
   33MOL0     H 4324   7.198   4.472   5.817  2.1110  1.6619  2.9538
   33MOL0     H 4325   7.223   4.399   5.971 -0.0382 -1.1731  0.9883
   33MOL0     H 4326   7.126   4.199   5.904  1.6285 -0.8346 -1.8944
   33MOL0     H 4327   7.119   4.241   5.739  2.5319  1.4480  0.0237
   33MOL0     H 4328   6.952   4.375   5.963 -0.3977 -2.0895  2.3515
   33MOL0     H 4329   6.958   4.425   5.790  3.7905 -0.1970 -0.6845
   33MOL0     H 4330   6.850   4.163   5.906 -0.6943  1.0828  0.3342
   33MOL0     H 4331   6.860   4.195   5.726 -2.5348  0.6017 -0.3133
   33MOL0     H 4332   6.727   4.368   5.722  1.4673 -1.2558 -0.4933
   33MOL0     H 4333   6.736   4.401   5.899  3.8184 -1.8973  1.4292
   33MOL0     H 4334   6.577   4.143   5.821 -0.1669 -0.1984  1.0125
   33MOL0     H 4335   6.550   4.268   5.942  1.4821 -3.6530  1.5815
   33MOL0     H 4336   6.522   4.325   5.648 -1.5235  1.6261 -0.0192
   33MOL0     H 4337   6.454   4.421   5.771 -2.2258 -0.1113 -0.5592
   33MOL0     H 4338   7.562   4.218   5.664  2.7342 -4.8597 -0.3824
   33MOL0     H 4339   7.797   4.152   5.657  1.7981 -0.2278  0.8318
   33MOL0     H 4340   8.155   4.098   5.691 -2.0008 -1.9770  0.5241
   33MOL0     H 4341   8.366   3.946   5.656 -1.1021 -1.0110 -0.4771
   33MOL0     H 4342   8.701   2.918   5.816 -1.0946  2.4098 -2.8893
   33MOL0     H 4343   8.799   2.732   5.726 -0.2459  0.6918 -2.0691
   33MOL0     H 4344   8.597   2.330   5.304 -1.8500 -5.0338  0.2594
   33MOL0     H 4345   8.719   2.163   5.192  0.7977  2.6351 -0.6808
   33MOL0     H 4346   9.060   1.950   5.428 -1.0605  0.4020 -0.2207
   33MOL0     H 4347   9.091   2.061   5.289  2.9929 -0.6118  1.3506
   33MOL0     H 4348   9.020   1.769   5.261  1.6384  0.0551  0.8011
   33MOL0     H 4349   9.086   1.879   5.131  2.9885  0.4311  0.1324
   33MOL0     H 4350   9.227   1.702   5.288  1.5124 -0.4473  0.2706
   33MOL0     H 4351   9.232   1.846   5.386 -0.6440 -2.6534  0.5414
   33MOL0     H 4352   9.409   1.783   5.205 -1.4912 -1.8250  0.0386
   33MOL0     H 4353   9.290   1.858   5.093 -1.7493  2.2315  0.7647
   33MOL0     H 4354   9.488   2.188   5.285 -2.0970  2.2967 -1.5699
   33MOL0     H 4355   8.958   2.100   5.553 -1.5228 -1.2650  1.9291
   33MOL0     H 4356   8.866   2.296   5.641 -0.6219 -0.1349 -0.1632
   34MOL0     O 4357  10.650   2.092  10.070 -0.2207 -0.0555 -0.0516
   34MOL0     C 4358  10.668   2.204  10.117  0.7635 -0.2143 -0.2720
   34MOL0     O 4359  10.565   2.290  10.130  0.1540  0.4189  0.6992
   34MOL0     C 4360  10.451   2.269  10.056 -0.0175 -0.6093  0.1277
   34MOL0     C 4361  10.453   2.237   9.920  0.4324  0.5610  0.5978
   34MOL0     C 4362  10.331   2.256   9.846  0.7623 -0.0029 -0.0600
   34MOL0     C 4363  10.210   2.293   9.902  0.2267  0.2470 -0.1967
   34MOL0     O 4364  10.093   2.286   9.842  0.6467 -0.1126  0.3092
   34MOL0     C 4365  10.054   2.163   9.771  0.2052  0.6952  0.3002
   34MOL0     C 4366   9.900   2.173   9.771 -0.2733 -0.0354  0.6490
   34MOL0     C 4367   9.833   2.068   9.675  0.6213 -0.1526 -0.4050
   34MOL0     C 4368   9.692   2.114   9.646 -0.7964  0.0255  0.3808
   34MOL0     C 4369   9.597   2.116   9.764 -0.0453 -0.4626  0.2175
   34MOL0     C 4370   9.444   2.107   9.719 -0.1267  0.4872 -0.3522
   34MOL0     C 4371   9.349   2.124   9.833  0.0059  0.8053 -0.5844
   34MOL0     C 4372   9.202   2.114   9.776  0.3661  0.3882  0.0253
   34MOL0     N 4373   9.109   2.140   9.893 -0.7207 -0.4430 -0.2311
   34MOL0     C 4374   9.082   2.055   9.996 -0.0247  0.1565 -0.1671
   34MOL0     C 4375   9.026   2.128  10.087  0.3378 -0.6688 -0.6920
   34MOL0     C 4376   8.974   2.079  10.223 -0.1262 -0.2302  0.1897
   34MOL0     C 4377   8.840   2.010  10.214 -1.3744 -0.3764 -0.8031
   34MOL0     C 4378   8.723   2.100  10.205  0.6418 -0.1918 -0.7809
   34MOL0     C 4379   8.590   2.025  10.214  0.6327 -0.1740 -0.2891
   34MOL0     O 4380   8.546   2.005  10.349  0.6660  0.6463 -0.0148
   34MOL0     C 4381   8.438   1.918  10.362  0.1234 -0.8981 -0.2928
   34MOL0     C 4382   8.318   1.962  10.411 -0.5557  0.1324  0.4669
   34MOL0     C 4383   8.209   1.879  10.441 -0.0247 -0.5708  0.0402
   34MOL0     C 4384   8.221   1.743  10.436  0.7347  0.4259  0.9099
   34MOL0     C 4385   8.094   1.661  10.452  1.2039  0.1349  0.6369
   34MOL0     O 4386   8.094   1.530  10.411  0.5753  0.5314 -1.1457
   34MOL0     C 4387   7.991   1.438  10.428 -0.4172 -0.2300  0.2562
   34MOL0     C 4388   8.026   1.308  10.418  0.6601 -0.8479 -1.1654
   34MOL0     C 4389   7.931   1.202  10.437  0.3241 -0.3864  0.2848
   34MOL0     C 4390   7.803   1.229  10.478 -1.1538  0.5932 -0.2365
   34MOL0     O 4391   7.719   1.123  10.511 -0.6572  0.2009  0.4078
   34MOL0     C 4392   7.567   1.143  10.504 -0.8948  0.2865  0.8676
   34MOL0     C 4393   7.506   1.002  10.481 -0.2209 -0.4025  0.0901
   34MOL0     C 4394   7.355   0.982  10.487  0.2729  0.5732  0.9507
   34MOL0     C 4395   7.313   1.003  10.636 -0.4840  0.4107  0.5340
   34MOL0     C 4396   7.169   1.045  10.635  0.3366 -0.2852 -0.1168
   34MOL0     C 4397   7.099   1.071  10.774 -0.4759  0.6391 -0.5303
   34MOL0     C 4398   7.041   0.937  10.838 -0.0950 -0.3835 -0.4694
   34MOL0     C 4399   6.985   0.946  10.976 -0.1552 -0.2623 -0.2937
   34MOL0    Cl 4400   6.824   1.048  10.998  0.1026  0.3223 -0.2817
   34MOL0     C 4401   7.763   1.366  10.484 -0.8095  0.1402  0.3022
   34MOL0     C 4402   7.854   1.471  10.468 -0.4256 -0.5391  0.5368
   34MOL0     O 4403   7.994   1.718  10.500  0.0071 -0.6349 -0.4164
   34MOL0     C 4404   8.349   1.695  10.389 -0.6030 -0.5081  0.4887
   34MOL0     C 4405   8.449   1.774  10.351 -0.1865 -0.4932  0.6226
   34MOL0     N 4406   9.012   2.256  10.046  0.2868 -0.7222  0.1248
   34MOL0     N 4407   9.065   2.263   9.929  0.0954 -0.2788 -0.0916
   34MOL0     C 4408  10.205   2.333  10.033 -0.5297  1.1081 -0.3324
   34MOL0     C 4409  10.322   2.320  10.114 -0.0751  0.0834  0.4460
   34MOL0     C 4410  10.807   2.248  10.158 -0.0908  0.5857 -0.1887
   34MOL0     C 4411  10.906   2.151  10.162  0.2856 -0.1681  0.2170
   34MOL0     C 4412  11.046   2.179  10.175 -0.5417  0.5797 -0.6156
   34MOL0     C 4413  11.087   2.314  10.204 -1.1126  0.0863 -0.3891
   34MOL0     O 4414  11.213   2.347  10.244  0.1354 -0.1285 -0.1845
   34MOL0     C 4415  11.318   2.261  10.220 -0.3927 -0.1673 -0.2900
   34MOL0     C 4416  11.456   2.309  10.277 -0.4045 -0.8517  0.8376
   34MOL0     C 4417  11.564   2.203  10.280  1.2726  0.4814  0.4209
   34MOL0     C 4418  11.691   2.251  10.342 -1.0625  0.1520 -0.1449
   34MOL0     C 4419  11.798   2.157  10.347 -0.4695  0.1358 -0.4367
   34MOL0     C 4420  11.874   2.068  10.336 -0.2919 -0.1085 -0.9017
   34MOL0     C 4421  10.983   2.414  10.215 -0.0342  0.1405  0.1193
   34MOL0     C 4422  10.853   2.379  10.188  0.5186 -0.8370  0.2542
   34MOL0     H 4423  10.541   2.209   9.862  0.8286  0.8386  1.0621
   34MOL0     H 4424  10.342   2.219   9.745  1.8989  1.7349 -0.6216
   34MOL0     H 4425  10.088   2.078   9.830 -0.1040  0.1345 -0.3133
   34MOL0     H 4426  10.097   2.142   9.673 -0.9537  2.1101 -0.5560
   34MOL0     H 4427   9.874   2.273   9.734  0.9705 -0.5950 -2.0273
   34MOL0     H 4428   9.864   2.148   9.871 -3.3999  0.0952 -0.3579
   34MOL0     H 4429   9.834   1.970   9.723  0.2253  0.2524  0.4481
   34MOL0     H 4430   9.889   2.047   9.583  2.7849 -1.3894  1.1111
   34MOL0     H 4431   9.694   2.211   9.596 -0.2446  1.4227  2.9424
   34MOL0     H 4432   9.642   2.051   9.573 -1.9895  0.9199  0.4002
   34MOL0     H 4433   9.615   2.208   9.820  1.8939  0.5624 -1.9187
   34MOL0     H 4434   9.617   2.022   9.818 -1.0284 -3.6184 -4.2814
   34MOL0     H 4435   9.426   2.011   9.671 -1.7598 -0.6039  2.2125
   34MOL0     H 4436   9.423   2.184   9.644 -0.3607 -0.3734 -1.1852
   34MOL0     H 4437   9.372   2.041   9.901  1.7234  0.6963 -1.2566
   34MOL0     H 4438   9.362   2.221   9.883  0.4399 -0.5686  2.1844
   34MOL0     H 4439   9.175   2.019   9.729  0.8944  0.1637  0.1618
   34MOL0     H 4440   9.190   2.194   9.703  1.1490  0.3493 -0.1572
   34MOL0     H 4441   9.105   1.950  10.012 -0.7863 -0.0785 -0.5810
   34MOL0     H 4442   8.958   2.166  10.288  3.4986  0.5773  0.2314
   34MOL0     H 4443   9.041   2.014  10.280 -0.5304 -1.0229 -0.2335
   34MOL0     H 4444   8.832   1.943  10.300  0.9314 -0.4361 -0.5844
   34MOL0     H 4445   8.849   1.952  10.122 -2.1476 -1.5372 -0.1850
   34MOL0     H 4446   8.729   2.172  10.287 -0.1316 -1.4953  0.4694
   34MOL0     H 4447   8.736   2.153  10.110 -2.1472  1.7525 -0.2044
   34MOL0     H 4448   8.611   1.932  10.162  0.9701 -1.7163  2.4320
   34MOL0     H 4449   8.511   2.080  10.160  0.0110  0.7444  1.4659
   34MOL0     H 4450   8.309   2.070  10.421 -0.3400  0.0913  1.1695
   34MOL0     H 4451   8.114   1.923  10.471  0.4975  0.2098  0.5730
   34MOL0     H 4452   8.130   1.281  10.401  0.5130 -2.0757 -0.2563
   34MOL0     H 4453   7.960   1.098  10.427 -1.2610 -0.7244 -1.2414
   34MOL0     H 4454   7.530   1.209  10.425 -2.0433 -0.0340  1.1200
   34MOL0     H 4455   7.535   1.198  10.593  0.8488 -0.2724  1.8902
   34MOL0     H 4456   7.561   0.929  10.540  1.9721 -0.6715 -2.1255
   34MOL0     H 4457   7.539   0.958  10.387  1.5639 -2.2189  1.4807
   34MOL0     H 4458   7.321   0.883  10.455  0.9332  0.4193  0.7086
   34MOL0     H 4459   7.308   1.060  10.427  1.2845  2.0330  1.9860
   34MOL0     H 4460   7.318   0.910  10.694 -1.1109  0.1950  0.2467
   34MOL0     H 4461   7.364   1.082  10.692 -0.8129 -0.6705  2.4712
   34MOL0     H 4462   7.103   0.970  10.590 -1.4987  0.7207  0.7960
   34MOL0     H 4463   7.154   1.134  10.573 -0.3169 -0.4913 -0.2629
   34MOL0     H 4464   7.018   1.144  10.770  0.1899  1.6694  2.2108
   34MOL0     H 4465   7.174   1.114  10.842 -1.6070  0.7295  0.6939
   34MOL0     H 4466   6.958   0.900  10.777 -2.3762  0.4817  1.9325
   34MOL0     H 4467   7.122   0.863  10.840  0.7206  0.4898  0.8649
   34MOL0     H 4468   7.059   0.994  11.042 -1.0632  2.0653 -0.8761
   34MOL0     H 4469   6.951   0.848  11.011 -1.7306  0.2056 -0.4362
   34MOL0     H 4470   7.662   1.394  10.512 -2.0348 -1.3781 -2.1688
   34MOL0     H 4471   7.813   1.571  10.477  0.0609 -0.2958  0.0297
   34MOL0     H 4472   8.363   1.588  10.374 -1.5373 -0.4298 -1.1601
   34MOL0     H 4473   8.538   1.734  10.303 -0.6734 -1.6919  0.6861
   34MOL0     H 4474  10.111   2.376  10.066 -0.1202 -1.5051  5.7401
   34MOL0     H 4475  10.313   2.343  10.220 -2.6953 -2.4822  0.9225
   34MOL0     H 4476  10.866   2.051  10.153 -0.3926  0.1419 -0.3423
   34MOL0     H 4477  11.115   2.097  10.192 -3.2542 -1.8378 -0.4305
   34MOL0     H 4478  11.333   2.255  10.112  0.8573 -0.3402 -0.1284
   34MOL0     H 4479  11.305   2.160  10.259  2.5413 -0.1576  1.0260
   34MOL0     H 4480  11.497   2.395  10.224 -0.9111  0.3674  2.3542
   34MOL0     H 4481  11.434   2.343  10.379 -3.3948 -0.3466  0.1240
   34MOL0     H 4482  11.593   2.176  10.178  2.9704  1.2590  0.6665
   34MOL0     H 4483  11.540   2.109  10.332  3.0407  0.7397  1.7731
   34MOL0     H 4484  11.738   2.340  10.297  0.7603 -1.0850 -0.8031
   34MOL0     H 4485  11.673   2.270  10.448  0.8216  2.4548 -0.1452
   34MOL0     H 4486  11.934   1.981  10.354 -2.2250 -0.8397  3.3517
   34MOL0     H 4487  11.031   2.511  10.230 -0.5171  0.2063  1.3000
   34MOL0     H 4488  10.775   2.453  10.183 -0.7282 -2.1833 -1.4219
   35MOL0     O 4489   0.325   4.954   6.240 -0.2600 -0.0777 -0.4699
   35MOL0     C 4490   0.355   4.841   6.209  0.1498 -0.1149  0.8708
   35MOL0     O 4491   0.292   4.771   6.106 -0.3244 -0.5869 -0.4828
   35MOL0     C 4492   0.167   4.810   6.060 -0.3743 -0.3345 -0.7107
   35MOL0     C 4493   0.085   4.920   6.101 -0.0364 -0.4475  0.3585
   35MOL0     C 4494  -0.037   4.936   6.047  0.6716 -0.7226  0.6991
   35MOL0     C 4495  -0.081   4.863   5.949 -0.1753 -0.5836  0.7732
   35MOL0     O 4496  -0.200   4.882   5.885  0.1006 -0.2711  0.3590
   35MOL0     C 4497  -0.313   4.937   5.946  0.0302  0.1126  0.4606
   35MOL0     C 4498  -0.439   4.937   5.858 -0.3827 -0.0776 -0.4353
   35MOL0     C 4499  -0.543   5.045   5.901 -0.6657 -0.3574 -0.5402
   35MOL0     C 4500  -0.661   5.020   5.820  0.2139  0.4212 -0.2444
   35MOL0     C 4501  -0.753   5.136   5.844  0.4732  0.9517 -0.0653
   35MOL0     C 4502  -0.891   5.118   5.769 -0.4797 -0.4148  0.9852
   35MOL0     C 4503  -0.990   5.232   5.792 -0.4877  0.7477 -0.6899
   35MOL0     C 4504  -1.097   5.247   5.683  0.1460  0.0336 -0.4931
   35MOL0     N 4505  -1.135   5.393   5.691 -0.1068  0.2460 -0.2278
   35MOL0     C 4506  -1.241   5.437   5.777  0.7928 -0.5958  0.0069
   35MOL0     C 4507  -1.232   5.571   5.764 -0.8613 -0.4131 -0.2443
   35MOL0     C 4508  -1.318   5.666   5.852  0.6892  0.2607 -0.2679
   35MOL0     C 4509  -1.458   5.670   5.786 -0.1221 -0.7447  0.7561
   35MOL0     C 4510  -1.493   5.806   5.707  0.0168  0.6020 -0.3124
   35MOL0     C 4511  -1.642   5.808   5.675 -0.1685  0.0936 -0.3405
   35MOL0     O 4512  -1.680   5.917   5.592 -0.3414 -0.8620 -1.2495
   35MOL0     C 4513  -1.812   5.945   5.575  0.4681 -0.4241 -0.6526
   35MOL0     C 4514  -1.853   6.073   5.541 -0.0805 -0.8674  0.3389
   35MOL0     C 4515  -1.986   6.109   5.527 -0.6648 -0.0274  0.1195
   35MOL0     C 4516  -2.087   6.016   5.544  0.1149  0.4225  0.8148
   35MOL0     C 4517  -2.222   6.058   5.532  0.4768 -0.5630  0.7809
   35MOL0     O 4518  -2.314   5.954   5.555 -0.0036  0.0774 -0.0213
   35MOL0     C 4519  -2.450   5.977   5.538 -0.2937  0.1828  0.5157
   35MOL0     C 4520  -2.538   5.948   5.640 -0.6480  0.4601 -0.2062
   35MOL0     C 4521  -2.675   5.960   5.614 -0.3788  0.1172  0.5014
   35MOL0     C 4522  -2.720   5.987   5.482 -0.0940 -0.0192  0.9342
   35MOL0     O 4523  -2.855   5.997   5.440 -0.3803 -0.1001 -0.3886
   35MOL0     C 4524  -2.948   5.911   5.509 -0.2186  0.8061 -0.5834
   35MOL0     C 4525  -3.060   5.883   5.407  0.7588  0.1145  1.2902
   35MOL0     C 4526  -3.143   5.992   5.345  0.4035 -0.3260 -0.1140
   35MOL0     C 4527  -3.228   5.930   5.234 -0.4563 -0.7037  0.2169
   35MOL0     C 4528  -3.302   6.036   5.139 -0.2937 -0.2814 -0.2324
   35MOL0     C 4529  -3.394   5.951   5.046  0.1559  0.4095 -0.4287
   35MOL0     C 4530  -3.427   6.036   4.924 -0.5492 -0.5352 -0.0977
   35MOL0     C 4531  -3.511   5.956   4.816  0.1187 -0.4632 -0.3969
   35MOL0    Cl 4532  -3.513   6.036   4.663  0.1985 -0.1937  0.2336
   35MOL0     C 4533  -2.629   6.013   5.376  0.0204 -0.4332 -0.7393
   35MOL0     C 4534  -2.495   6.008   5.407 -0.2078  0.5609  0.4078
   35MOL0     O 4535  -2.252   6.169   5.501  0.3651  0.6600  0.2547
   35MOL0     C 4536  -2.049   5.881   5.584  0.4512 -0.5739  0.1863
   35MOL0     C 4537  -1.911   5.844   5.595 -0.3420 -0.0596  0.2532
   35MOL0     N 4538  -1.128   5.610   5.689 -0.0803  0.0827 -0.2910
   35MOL0     N 4539  -1.074   5.502   5.634  0.1152 -0.4641 -0.1331
   35MOL0     C 4540  -0.002   4.753   5.910 -0.2956 -0.8773 -0.0272
   35MOL0     C 4541   0.122   4.727   5.957  0.3344 -0.1410  0.4155
   35MOL0     C 4542   0.458   4.767   6.287 -1.0845  0.0816 -0.1415
   35MOL0     C 4543   0.495   4.639   6.248 -0.6581  0.0634  0.6112
   35MOL0     C 4544   0.589   4.566   6.316  0.1771 -0.0934  0.0223
   35MOL0     C 4545   0.649   4.622   6.429  0.4978 -0.5372  0.0888
   35MOL0     O 4546   0.747   4.540   6.477  0.2156 -0.1474 -0.0610
   35MOL0     C 4547   0.826   4.588   6.586  0.0238 -0.5330 -0.0880
   35MOL0     C 4548   0.972   4.528   6.593  0.1846 -0.0693  0.4163
   35MOL0     C 4549   0.956   4.379   6.591 -1.1588  0.5910  0.3052
   35MOL0     C 4550   1.088   4.303   6.592  0.4849  0.5818  1.2048
   35MOL0     C 4551   1.164   4.348   6.475  0.0701  0.0156 -0.4849
   35MOL0     C 4552   1.223   4.391   6.377 -0.1793 -0.4597  0.7104
   35MOL0     C 4553   0.598   4.746   6.480 -0.6564 -0.1177  0.0098
   35MOL0     C 4554   0.507   4.820   6.401 -0.1987 -1.2942 -1.0932
   35MOL0     H 4555   0.094   4.986   6.187  0.3704 -1.8070  1.3918
   35MOL0     H 4556  -0.090   5.027   6.074  0.5914 -0.5610 -0.0002
   35MOL0     H 4557  -0.297   5.041   5.974  1.5419  0.2059 -0.5950
   35MOL0     H 4558  -0.336   4.871   6.030  2.6173  1.1167  2.0722
   35MOL0     H 4559  -0.493   4.842   5.863  0.4334 -0.6289 -1.7497
   35MOL0     H 4560  -0.406   4.961   5.757  0.4842  4.1861  0.6592
   35MOL0     H 4561  -0.498   5.139   5.868 -1.4599  1.0241  2.0790
   35MOL0     H 4562  -0.563   5.036   6.008 -1.4551 -2.9869 -0.8405
   35MOL0     H 4563  -0.640   5.016   5.713 -1.6062  4.7337 -0.9506
   35MOL0     H 4564  -0.721   4.934   5.850 -1.2382  2.0684  1.8635
   35MOL0     H 4565  -0.705   5.229   5.814 -0.5810  0.9959 -1.7567
   35MOL0     H 4566  -0.783   5.147   5.949  1.3777 -1.4316  0.5036
   35MOL0     H 4567  -0.918   5.015   5.792  0.2248 -0.6478  0.7819
   35MOL0     H 4568  -0.866   5.133   5.663 -2.0705 -0.1173  0.6240
   35MOL0     H 4569  -1.039   5.212   5.888 -0.7304 -0.7904 -1.1043
   35MOL0     H 4570  -0.923   5.318   5.799 -3.0393  2.7568  1.0986
   35MOL0     H 4571  -1.189   5.192   5.707  0.6720 -0.6698 -0.0593
   35MOL0     H 4572  -1.055   5.216   5.587  0.6088  1.4703 -0.7702
   35MOL0     H 4573  -1.325   5.399   5.834 -0.0724  0.0900 -0.7741
   35MOL0     H 4574  -1.268   5.763   5.859  2.7890 -0.8866  2.7109
   35MOL0     H 4575  -1.325   5.630   5.955 -1.0938 -0.8308 -0.7334
   35MOL0     H 4576  -1.532   5.650   5.864  0.4973  0.7981  1.7834
   35MOL0     H 4577  -1.462   5.590   5.712  2.3408 -1.3131  1.1580
   35MOL0     H 4578  -1.474   5.896   5.768  0.0785  0.6008 -0.3296
   35MOL0     H 4579  -1.420   5.812   5.626  1.1322  1.3088  0.6884
   35MOL0     H 4580  -1.691   5.819   5.772 -0.9113 -1.4038 -0.5186
   35MOL0     H 4581  -1.664   5.711   5.629  1.9524  0.3326 -2.0136
   35MOL0     H 4582  -1.782   6.155   5.540 -0.1181 -0.8316  0.4716
   35MOL0     H 4583  -2.010   6.214   5.518 -0.3689  0.0160 -0.1994
   35MOL0     H 4584  -2.488   5.920   5.733  0.9555  0.3937 -1.0590
   35MOL0     H 4585  -2.736   5.925   5.696 -3.2973 -1.3640 -2.1383
   35MOL0     H 4586  -2.984   5.954   5.603  0.2243 -0.7586  0.3381
   35MOL0     H 4587  -2.908   5.811   5.531 -3.8420 -0.5996  0.4284
   35MOL0     H 4588  -3.136   5.823   5.458 -1.1036  0.4722 -0.8922
   35MOL0     H 4589  -3.010   5.825   5.329  2.7505  0.7135  2.0798
   35MOL0     H 4590  -3.076   6.066   5.301  2.2532 -1.0508  1.3528
   35MOL0     H 4591  -3.202   6.039   5.424  2.8607  2.5773  0.1971
   35MOL0     H 4592  -3.161   5.872   5.170 -0.7036 -3.3219  2.1393
   35MOL0     H 4593  -3.296   5.856   5.277  1.4282 -1.3732  2.2611
   35MOL0     H 4594  -3.221   6.087   5.087  1.2079 -0.4263  1.8067
   35MOL0     H 4595  -3.371   6.096   5.200  2.3004 -0.8022  3.5488
   35MOL0     H 4596  -3.483   5.917   5.100 -0.2482  2.0424 -0.0105
   35MOL0     H 4597  -3.335   5.870   5.003  1.0160 -0.1496  1.7115
   35MOL0     H 4598  -3.482   6.128   4.944 -1.6587 -1.6264  2.3018
   35MOL0     H 4599  -3.333   6.065   4.876 -0.0190  2.5784  2.5055
   35MOL0     H 4600  -3.617   5.955   4.844 -0.2012 -2.0522 -1.4772
   35MOL0     H 4601  -3.475   5.852   4.815 -3.0334 -1.7847  2.5185
   35MOL0     H 4602  -2.678   6.024   5.280 -0.9399  0.8012 -0.1353
   35MOL0     H 4603  -2.425   6.022   5.325 -1.6849  2.4087 -0.6386
   35MOL0     H 4604  -2.126   5.807   5.601 -0.8362  0.5869 -0.4092
   35MOL0     H 4605  -1.887   5.744   5.627  2.3217  0.1915 -0.7481
   35MOL0     H 4606  -0.055   4.688   5.841  1.6902 -0.8262 -1.7185
   35MOL0     H 4607   0.191   4.650   5.924  1.4695  0.5661  1.0771
   35MOL0     H 4608   0.469   4.595   6.152  0.9971 -1.5080  0.8199
   35MOL0     H 4609   0.632   4.470   6.291 -0.0246  0.0954 -1.0844
   35MOL0     H 4610   0.782   4.577   6.686  2.9302  1.1511  1.5294
   35MOL0     H 4611   0.836   4.697   6.585 -2.5043 -0.2096  1.4174
   35MOL0     H 4612   1.040   4.566   6.516 -0.5175  0.2636 -0.0511
   35MOL0     H 4613   1.015   4.564   6.687  0.1853  3.1998 -0.6840
   35MOL0     H 4614   0.910   4.345   6.498 -1.7171  0.0762  0.7600
   35MOL0     H 4615   0.882   4.356   6.669 -0.7125  0.2567  0.6405
   35MOL0     H 4616   1.149   4.308   6.682 -0.4410 -2.0837  2.0940
   35MOL0     H 4617   1.061   4.197   6.584  0.4318  0.6987 -0.5126
   35MOL0     H 4618   1.273   4.427   6.289 -2.3237  1.8970  0.3426
   35MOL0     H 4619   0.625   4.781   6.579 -2.0403  1.1649 -0.0309
   35MOL0     H 4620   0.480   4.919   6.438  3.5477 -0.5884  0.3037
   36MOL0     O 4621  10.522   2.805   0.871  0.7540  0.3664 -0.0212
   36MOL0     C 4622  10.546   2.780   0.991  0.4738  0.4262  0.1704
   36MOL0     O 4623  10.468   2.815   1.092 -0.3373  0.4033 -0.5684
   36MOL0     C 4624  10.346   2.880   1.076  0.4668  0.6870  0.6664
   36MOL0     C 4625  10.302   2.947   1.184  0.0614 -0.5851  0.1252
   36MOL0     C 4626  10.172   3.005   1.188 -0.7260 -1.1813  0.6939
   36MOL0     C 4627  10.083   2.997   1.076  0.6420 -0.3430  0.0604
   36MOL0     O 4628   9.955   3.047   1.071  0.3218  0.3455  0.3702
   36MOL0     C 4629   9.898   3.121   1.178 -0.2446  0.2689 -1.0168
   36MOL0     C 4630   9.767   3.179   1.131 -0.1752 -0.0803  0.3653
   36MOL0     C 4631   9.660   3.088   1.079 -0.8802  0.6366 -0.5474
   36MOL0     C 4632   9.536   3.183   1.049  0.1624  0.5266  0.3850
   36MOL0     C 4633   9.417   3.091   1.018 -0.8840 -0.7754 -0.6619
   36MOL0     C 4634   9.301   3.168   0.955  0.1865  0.3482  0.4577
   36MOL0     C 4635   9.189   3.094   0.884  0.2574 -0.5682  0.7984
   36MOL0     C 4636   9.083   3.173   0.798 -0.6429 -0.1555 -0.1975
   36MOL0     N 4637   9.137   3.281   0.711  0.3050  0.1358 -0.4577
   36MOL0     C 4638   9.253   3.279   0.638  0.8880 -0.2418 -0.9448
   36MOL0     C 4639   9.264   3.402   0.594 -0.1792 -0.4204  0.0302
   36MOL0     C 4640   9.368   3.443   0.496 -0.1483  0.2918 -0.6059
   36MOL0     C 4641   9.522   3.420   0.531 -0.2920 -0.1424  0.9835
   36MOL0     C 4642   9.563   3.483   0.671 -0.7631 -0.9200 -0.2794
   36MOL0     C 4643   9.723   3.482   0.689 -0.4826 -0.0064 -0.7978
   36MOL0     O 4644   9.794   3.556   0.578 -0.2219  0.0089 -0.5422
   36MOL0     C 4645   9.921   3.607   0.592 -0.3261  0.7604 -0.5826
   36MOL0     C 4646   9.986   3.690   0.495 -0.4832  0.3501 -0.1061
   36MOL0     C 4647  10.127   3.711   0.503 -0.4347  1.2618 -0.1244
   36MOL0     C 4648  10.192   3.685   0.626 -0.9212 -0.1546  0.4935
   36MOL0     C 4649  10.339   3.710   0.642 -0.9467 -0.1610 -0.2067
   36MOL0     O 4650  10.403   3.668   0.754  0.0008 -0.0995 -0.2696
   36MOL0     C 4651  10.534   3.699   0.763  0.2447  0.3984  0.3264
   36MOL0     C 4652  10.626   3.597   0.796  0.0068  0.4985  0.4041
   36MOL0     C 4653  10.767   3.627   0.817  0.0558  0.4894 -0.6845
   36MOL0     C 4654  10.812   3.759   0.811  0.2749 -0.6185  0.2222
   36MOL0     O 4655  10.937   3.769   0.844  0.3942  0.3545  0.0626
   36MOL0     C 4656  11.003   3.892   0.825  0.0091 -0.8195 -0.3747
   36MOL0     C 4657  11.144   3.867   0.885 -0.8254 -0.1372  0.1234
   36MOL0     C 4658  11.224   3.753   0.821 -0.8012  0.1736 -0.1650
   36MOL0     C 4659  11.361   3.738   0.890  0.7225 -0.6891 -0.0736
   36MOL0     C 4660  11.430   3.609   0.841 -0.4694  0.5851 -1.5464
   36MOL0     C 4661  11.351   3.479   0.857  0.0880  0.4044 -0.0047
   36MOL0     C 4662  11.440   3.361   0.859  1.0223  0.2378 -0.0422
   36MOL0     C 4663  11.359   3.232   0.825  0.5186  0.5459  0.0993
   36MOL0    Cl 4664  11.469   3.098   0.870 -0.1912 -0.2038  0.1477
   36MOL0     C 4665  10.724   3.866   0.773  0.3084  0.7016  0.4186
   36MOL0     C 4666  10.587   3.830   0.744  0.7445  0.7052 -0.1084
   36MOL0     O 4667  10.396   3.775   0.548  0.2403  0.6541 -0.6270
   36MOL0     C 4668  10.124   3.619   0.722  0.9350  0.1933  0.8085
   36MOL0     C 4669   9.996   3.571   0.710 -0.0058  0.2573  0.3777
   36MOL0     N 4670   9.163   3.485   0.623  0.4338 -0.3184  0.1213
   36MOL0     N 4671   9.087   3.415   0.696  0.1685 -0.2877  0.1218
   36MOL0     C 4672  10.128   2.926   0.964  0.4494 -0.3868  0.0860
   36MOL0     C 4673  10.257   2.866   0.955  0.5551 -0.6639 -0.9327
   36MOL0     C 4674  10.666   2.700   1.022  0.1570 -0.1832  0.4292
   36MOL0     C 4675  10.681   2.631   1.148 -0.3934 -0.9266 -0.7540
   36MOL0     C 4676  10.807   2.583   1.176  0.1528 -0.1651 -0.6928
   36MOL0     C 4677  10.918   2.574   1.086 -0.6170  0.3766 -0.0894
   36MOL0     O 4678  11.042   2.520   1.115  0.5646 -0.3751  0.0052
   36MOL0     C 4679  11.068   2.449   1.240 -0.2628 -0.3863  1.1241
   36MOL0     C 4680  11.194   2.369   1.237  0.1106  0.3229 -0.8212
   36MOL0     C 4681  11.296   2.417   1.348  0.4950  0.0534 -0.9320
   36MOL0     C 4682  11.430   2.341   1.332  0.9936 -0.0772  0.2948
   36MOL0     C 4683  11.517   2.339   1.445 -0.3164  0.4888  0.0043
   36MOL0     C 4684  11.583   2.332   1.552 -0.7787  0.2545 -0.3306
   36MOL0     C 4685  10.893   2.622   0.960  0.8723  0.1780 -0.5490
   36MOL0     C 4686  10.770   2.685   0.927 -0.2172 -0.1179 -0.0521
   36MOL0     H 4687  10.375   2.970   1.261 -0.0174  1.1508 -0.2796
   36MOL0     H 4688  10.140   3.071   1.267  2.4191  1.2448  0.1618
   36MOL0     H 4689   9.963   3.203   1.209  1.2626 -1.1273 -0.3330
   36MOL0     H 4690   9.889   3.052   1.261 -2.5401  1.6323 -0.0281
   36MOL0     H 4691   9.797   3.237   1.043  0.3714  0.1315  0.6844
   36MOL0     H 4692   9.727   3.246   1.208  1.5865  0.1999  1.0773
   36MOL0     H 4693   9.638   3.017   1.160  3.5962  0.8644  1.1537
   36MOL0     H 4694   9.694   3.043   0.985 -0.0841  0.1923 -0.0585
   36MOL0     H 4695   9.522   3.263   1.123  0.2129  0.0499  0.9232
   36MOL0     H 4696   9.568   3.232   0.957  1.0200 -0.5464  0.1043
   36MOL0     H 4697   9.384   3.038   1.108 -1.3987  2.7765  1.4269
   36MOL0     H 4698   9.451   3.014   0.948 -0.6234 -0.5535 -0.7819
   36MOL0     H 4699   9.350   3.227   0.877  1.2829 -1.6369 -0.4214
   36MOL0     H 4700   9.254   3.236   1.027 -0.2044  1.3940 -0.7385
   36MOL0     H 4701   9.240   3.025   0.817  1.2345  0.6203  0.2730
   36MOL0     H 4702   9.126   3.042   0.957 -3.7494  1.8644 -0.5907
   36MOL0     H 4703   9.021   3.218   0.876  4.4740  4.3772  1.9386
   36MOL0     H 4704   9.018   3.110   0.737  2.1871 -2.4303 -1.0758
   36MOL0     H 4705   9.304   3.184   0.625 -4.0298 -3.3218 -0.6456
   36MOL0     H 4706   9.358   3.546   0.462  0.9360  0.4353 -0.5138
   36MOL0     H 4707   9.362   3.375   0.411 -0.6802 -1.4517  0.7646
   36MOL0     H 4708   9.574   3.471   0.450 -1.7379 -1.7739 -1.0901
   36MOL0     H 4709   9.552   3.315   0.532  2.6888  0.5942 -0.1134
   36MOL0     H 4710   9.529   3.587   0.662  1.1735 -0.3640 -1.9421
   36MOL0     H 4711   9.521   3.444   0.764  1.5949  0.9051  1.6774
   36MOL0     H 4712   9.758   3.378   0.699 -0.5466  0.0786  0.4910
   36MOL0     H 4713   9.738   3.539   0.781 -0.3766  1.0319 -1.4462
   36MOL0     H 4714   9.939   3.730   0.406  0.0059 -0.9971 -0.9961
   36MOL0     H 4715  10.183   3.761   0.425  2.2150 -0.9994  0.1838
   36MOL0     H 4716  10.592   3.494   0.800  0.9415  0.0366 -1.9274
   36MOL0     H 4717  10.832   3.541   0.823 -2.4251 -1.4431  2.9638
   36MOL0     H 4718  10.960   3.973   0.885 -0.6926 -0.7474 -0.9723
   36MOL0     H 4719  11.016   3.923   0.721  1.3679 -0.0231 -0.0029
   36MOL0     H 4720  11.150   3.840   0.991 -0.7287 -6.0896 -1.0400
   36MOL0     H 4721  11.202   3.957   0.861  1.5815 -2.2119 -2.5850
   36MOL0     H 4722  11.238   3.761   0.713  2.2042 -0.6010  0.0793
   36MOL0     H 4723  11.171   3.659   0.839  1.1203 -1.5626 -2.8472
   36MOL0     H 4724  11.424   3.826   0.876 -0.4714  0.5542  1.9018
   36MOL0     H 4725  11.341   3.735   0.998  1.4849 -0.0961  0.0947
   36MOL0     H 4726  11.524   3.590   0.895 -2.0348 -1.0011  0.8006
   36MOL0     H 4727  11.466   3.624   0.738  0.0126 -2.7928 -2.0098
   36MOL0     H 4728  11.279   3.469   0.776  0.1363 -1.9467  0.1788
   36MOL0     H 4729  11.305   3.482   0.956  1.1798  0.5329  0.5232
   36MOL0     H 4730  11.534   3.376   0.806  0.6425  1.9230 -0.2991
   36MOL0     H 4731  11.475   3.341   0.961  0.6341 -2.2195 -0.3365
   36MOL0     H 4732  11.334   3.226   0.719  0.2736  0.9661  0.1308
   36MOL0     H 4733  11.270   3.232   0.889 -1.2862 -1.9297 -2.1855
   36MOL0     H 4734  10.759   3.967   0.756  2.6938 -0.3139 -1.3355
   36MOL0     H 4735  10.512   3.907   0.734  0.1205  0.1338  0.1276
   36MOL0     H 4736  10.168   3.584   0.815  0.9827  0.1789  0.7808
   36MOL0     H 4737   9.957   3.505   0.787  0.1515  1.4977  1.5473
   36MOL0     H 4738  10.061   2.918   0.880 -0.0734 -0.0315  0.4643
   36MOL0     H 4739  10.286   2.807   0.869  3.0230 -0.3251 -0.4105
   36MOL0     H 4740  10.606   2.648   1.225  2.8348  2.4599  2.0124
   36MOL0     H 4741  10.812   2.539   1.276 -1.2093  2.1829  0.4900
   36MOL0     H 4742  10.978   2.388   1.252 -1.5621  0.7649 -1.5913
   36MOL0     H 4743  11.065   2.516   1.327 -0.1813  2.8512 -1.1653
   36MOL0     H 4744  11.172   2.262   1.244 -0.8064  0.5568 -0.0345
   36MOL0     H 4745  11.233   2.365   1.135 -0.6447 -0.1663 -1.0977
   36MOL0     H 4746  11.252   2.393   1.446  0.7157 -2.0930 -1.3039
   36MOL0     H 4747  11.318   2.523   1.338 -1.1972  0.4392 -0.8323
   36MOL0     H 4748  11.418   2.237   1.302 -0.4018  0.9210 -3.1926
   36MOL0     H 4749  11.481   2.397   1.253  1.0160  0.5034  0.7113
   36MOL0     H 4750  11.639   2.329   1.642 -2.0070  3.6933  0.7071
   36MOL0     H 4751  10.970   2.615   0.884 -0.9667  0.9879 -2.5987
   36MOL0     H 4752  10.756   2.721   0.826  0.1916 -1.0503 -0.4602
   37MOL0     O 4753   1.846   6.189   3.314 -0.1854  0.4660 -0.1561
   37MOL0     C 4754   1.897   6.246   3.407 -1.1101 -0.7265  0.0608
   37MOL0     O 4755   1.856   6.262   3.535  0.3762  0.7474 -0.4702
   37MOL0     C 4756   1.735   6.199   3.573  0.4695  0.2477  0.1960
   37MOL0     C 4757   1.640   6.280   3.636  0.7654  0.2285 -0.8176
   37MOL0     C 4758   1.517   6.227   3.670  0.1156 -0.4260  0.1861
   37MOL0     C 4759   1.488   6.091   3.652  0.4968  0.1318 -1.0736
   37MOL0     O 4760   1.367   6.035   3.705  0.3113 -0.8398 -0.1940
   37MOL0     C 4761   1.265   6.051   3.605 -0.0212  0.5650 -0.8202
   37MOL0     C 4762   1.135   5.985   3.641  0.0708  0.3220  0.3688
   37MOL0     C 4763   1.056   5.962   3.505  0.0790  0.1485 -0.3389
   37MOL0     C 4764   0.907   5.926   3.519  0.5101  0.1165  1.4402
   37MOL0     C 4765   0.822   6.054   3.525  0.8762  1.1703 -0.0026
   37MOL0     C 4766   0.676   6.025   3.579  0.4815 -0.0340 -0.9721
   37MOL0     C 4767   0.650   6.034   3.728  0.0862  0.4135  0.0189
   37MOL0     C 4768   0.523   5.964   3.771  0.4131 -0.2524  0.0107
   37MOL0     N 4769   0.496   5.964   3.916  0.1014  0.3648 -0.5329
   37MOL0     C 4770   0.593   5.936   4.001  0.7754 -0.1952 -0.0457
   37MOL0     C 4771   0.541   5.971   4.123  0.6023  0.1554  0.2771
   37MOL0     C 4772   0.601   5.962   4.259 -0.0812  0.1613  0.1311
   37MOL0     C 4773   0.751   5.927   4.259 -1.3099 -1.5335 -0.2338
   37MOL0     C 4774   0.848   6.049   4.258  0.4923  0.7207 -0.5302
   37MOL0     C 4775   0.830   6.143   4.145  1.0190  0.4118  0.0768
   37MOL0     O 4776   0.913   6.259   4.165  0.3798 -0.1758 -0.0591
   37MOL0     C 4777   0.934   6.324   4.053  0.1206  0.0316 -0.2646
   37MOL0     C 4778   0.861   6.318   3.930 -0.3148  0.2356 -0.0819
   37MOL0     C 4779   0.901   6.386   3.822  0.3485  0.1670  0.4464
   37MOL0     C 4780   1.007   6.474   3.824  0.5795 -0.5484 -1.0702
   37MOL0     C 4781   1.054   6.529   3.701 -0.3356  0.5418  0.2899
   37MOL0     O 4782   1.188   6.528   3.687 -0.2016 -0.5323  0.3138
   37MOL0     C 4783   1.246   6.644   3.644 -0.8836  0.4600  0.7166
   37MOL0     C 4784   1.192   6.766   3.618 -0.0242 -1.0862 -1.0131
   37MOL0     C 4785   1.260   6.881   3.590  0.0571  0.6350 -0.3982
   37MOL0     C 4786   1.401   6.878   3.571 -1.8508 -0.5844  0.1577
   37MOL0     O 4787   1.465   6.998   3.545 -0.0318 -0.2076  0.4064
   37MOL0     C 4788   1.606   6.992   3.541  0.4888  0.3963 -0.4727
   37MOL0     C 4789   1.658   7.133   3.525  0.6534  0.1686  0.3972
   37MOL0     C 4790   1.692   7.204   3.659 -0.0283 -0.5498 -0.0457
   37MOL0     C 4791   1.752   7.342   3.638  1.2345  0.4342  0.2289
   37MOL0     C 4792   1.651   7.452   3.665 -0.4518  0.7324  0.5673
   37MOL0     C 4793   1.687   7.581   3.607  0.2801  0.0522 -0.3794
   37MOL0     C 4794   1.814   7.651   3.656  0.1798  0.1130  0.0408
   37MOL0     C 4795   1.809   7.797   3.636  0.7648  0.5677 -0.1638
   37MOL0    Cl 4796   1.798   7.839   3.458  0.1598  0.1105 -0.0910
   37MOL0     C 4797   1.458   6.747   3.584  0.0042  0.4637  0.1836
   37MOL0     C 4798   1.376   6.637   3.618 -0.2907 -0.3570  0.5867
   37MOL0     O 4799   0.973   6.576   3.617 -0.5758 -0.0256 -0.1948
   37MOL0     C 4800   1.068   6.499   3.950  0.0961  0.7036  0.2445
   37MOL0     C 4801   1.029   6.425   4.063 -0.0207 -0.7086 -0.2086
   37MOL0     N 4802   0.406   6.001   4.107 -0.3497 -0.1615  0.4430
   37MOL0     N 4803   0.383   6.014   3.975  1.1901  0.2325 -1.1700
   37MOL0     C 4804   1.580   5.999   3.597 -0.7739  0.1880  0.4464
   37MOL0     C 4805   1.699   6.059   3.552 -0.1394 -0.2794 -0.2546
   37MOL0     C 4806   2.032   6.301   3.378  0.2004 -0.1503  0.4612
   37MOL0     C 4807   2.114   6.253   3.273 -0.4987  0.4057  0.3670
   37MOL0     C 4808   2.236   6.312   3.249  0.1205 -0.1894 -0.8519
   37MOL0     C 4809   2.290   6.417   3.327 -0.1362  1.1097 -0.6011
   37MOL0     O 4810   2.412   6.473   3.309 -0.1321  0.7550  0.2080
   37MOL0     C 4811   2.459   6.472   3.169  0.5307  0.4948 -0.6032
   37MOL0     C 4812   2.567   6.577   3.162 -0.1972 -0.1996  0.2403
   37MOL0     C 4813   2.697   6.536   3.227 -0.4739 -1.2384  0.3516
   37MOL0     C 4814   2.753   6.391   3.197  0.0367  0.0969 -0.0157
   37MOL0     C 4815   2.897   6.374   3.217  0.1976  0.6088  1.2299
   37MOL0     C 4816   3.017   6.367   3.217 -0.2922 -0.1757 -0.1832
   37MOL0     C 4817   2.205   6.466   3.436 -0.0780 -0.4919  0.6874
   37MOL0     C 4818   2.080   6.409   3.460  0.1892  0.8610 -0.4269
   37MOL0     H 4819   1.650   6.387   3.648 -0.6111  0.2026  0.8219
   37MOL0     H 4820   1.435   6.291   3.702 -0.5067 -0.9345 -0.3562
   37MOL0     H 4821   1.302   6.016   3.508  0.0570  2.5062 -1.5354
   37MOL0     H 4822   1.242   6.153   3.575  0.7813  1.2284  0.7475
   37MOL0     H 4823   1.079   6.042   3.716 -2.2902  0.6212 -1.5112
   37MOL0     H 4824   1.152   5.884   3.680 -1.4654  0.9980  3.0195
   37MOL0     H 4825   1.115   5.892   3.446  0.1117  0.6182 -0.8769
   37MOL0     H 4826   1.052   6.053   3.444  0.8558 -0.9614 -2.1119
   37MOL0     H 4827   0.885   5.856   3.437  0.0084  0.9987  0.8096
   37MOL0     H 4828   0.894   5.881   3.618  0.0019  0.9835  1.7786
   37MOL0     H 4829   0.810   6.083   3.421  0.8729 -3.0050 -1.3353
   37MOL0     H 4830   0.878   6.126   3.585  3.3597 -0.8039  0.2255
   37MOL0     H 4831   0.645   5.928   3.540  0.8560 -0.3937 -0.4038
   37MOL0     H 4832   0.611   6.096   3.528 -0.2716 -0.1528 -0.1996
   37MOL0     H 4833   0.737   5.991   3.778  0.5148  0.8967 -0.3093
   37MOL0     H 4834   0.639   6.140   3.751 -2.0799  0.3395 -0.4549
   37MOL0     H 4835   0.532   5.860   3.740  0.9491 -0.4195  0.7035
   37MOL0     H 4836   0.438   6.006   3.717  1.8852  0.8838 -1.5154
   37MOL0     H 4837   0.696   5.902   3.988 -0.3632 -3.7970 -0.8333
   37MOL0     H 4838   0.543   5.887   4.315  1.4212 -0.9479  0.2815
   37MOL0     H 4839   0.588   6.057   4.312 -0.9333 -0.2636  0.7198
   37MOL0     H 4840   0.778   5.869   4.170  1.3933  0.8771 -1.1352
   37MOL0     H 4841   0.779   5.876   4.351  3.1807 -0.0979 -0.6076
   37MOL0     H 4842   0.843   6.100   4.355  1.3279  1.5518 -0.9058
   37MOL0     H 4843   0.948   6.005   4.264 -0.2213 -1.0013 -0.6982
   37MOL0     H 4844   0.725   6.171   4.152  0.8414 -0.3625  0.6038
   37MOL0     H 4845   0.856   6.089   4.054 -0.8510 -0.2972 -0.0658
   37MOL0     H 4846   0.782   6.246   3.911  1.3079 -1.3940 -0.9679
   37MOL0     H 4847   0.856   6.367   3.724  1.1160  3.8517 -0.7601
   37MOL0     H 4848   1.084   6.761   3.623  0.0890 -2.9372  2.0871
   37MOL0     H 4849   1.212   6.978   3.580 -0.4166  0.4705  0.2413
   37MOL0     H 4850   1.633   6.939   3.449 -0.8587  1.2808 -1.4106
   37MOL0     H 4851   1.654   6.943   3.626 -0.6428  0.0407 -0.0226
   37MOL0     H 4852   1.588   7.196   3.469  1.1045  1.5063  1.2768
   37MOL0     H 4853   1.747   7.137   3.461  1.8723  1.1538  2.0738
   37MOL0     H 4854   1.765   7.148   3.718  2.1777  1.4728 -0.7369
   37MOL0     H 4855   1.602   7.216   3.720 -1.0958 -1.2430 -1.4317
   37MOL0     H 4856   1.838   7.351   3.706  1.8776 -0.9509 -0.3585
   37MOL0     H 4857   1.803   7.351   3.542  2.1360 -0.2379  0.6286
   37MOL0     H 4858   1.638   7.461   3.773 -1.6265 -1.3418  0.6519
   37MOL0     H 4859   1.556   7.419   3.622 -0.0213  2.4766 -1.9230
   37MOL0     H 4860   1.608   7.653   3.632 -0.8314 -1.4632  0.7305
   37MOL0     H 4861   1.681   7.569   3.499  0.9360  0.0465 -0.4174
   37MOL0     H 4862   1.841   7.636   3.761 -0.2680  2.0768  0.4795
   37MOL0     H 4863   1.895   7.608   3.597 -1.1956 -3.1262  0.2847
   37MOL0     H 4864   1.901   7.843   3.672  1.5556  0.1492 -1.5948
   37MOL0     H 4865   1.728   7.838   3.697  0.4067  1.0351 -0.9521
   37MOL0     H 4866   1.563   6.721   3.570 -0.1565 -0.3365  0.4119
   37MOL0     H 4867   1.416   6.536   3.622  3.7736  0.9593 -0.9582
   37MOL0     H 4868   1.153   6.566   3.951  0.2197  0.5867 -1.0981
   37MOL0     H 4869   1.087   6.438   4.154 -0.6851  3.3363 -0.1896
   37MOL0     H 4870   1.554   5.894   3.582  1.1705  0.1232 -4.8145
   37MOL0     H 4871   1.775   5.996   3.507 -0.9425 -2.4331  1.2293
   37MOL0     H 4872   2.091   6.168   3.210  0.7429  0.4355 -0.1577
   37MOL0     H 4873   2.285   6.255   3.171  2.6054 -1.2102  1.2760
   37MOL0     H 4874   2.372   6.496   3.107 -1.2393  1.2780  2.0325
   37MOL0     H 4875   2.503   6.377   3.139  2.1612  0.2197  2.3231
   37MOL0     H 4876   2.583   6.612   3.060  1.9822  1.2890  1.0208
   37MOL0     H 4877   2.526   6.666   3.212 -1.5038  0.0240 -1.1577
   37MOL0     H 4878   2.686   6.554   3.335 -1.4469  1.6287 -0.1396
   37MOL0     H 4879   2.780   6.605   3.206 -0.9085 -0.8904 -0.2536
   37MOL0     H 4880   2.704   6.327   3.272 -0.9032  0.8791  0.0568
   37MOL0     H 4881   2.730   6.365   3.093  1.0240  0.0107 -0.2184
   37MOL0     H 4882   3.122   6.350   3.226 -0.6946 -1.4363  3.8396
   37MOL0     H 4883   2.252   6.537   3.504  2.6632 -0.8807 -0.6583
   37MOL0     H 4884   2.029   6.440   3.550 -0.4326 -1.0930 -0.0590
   38MOL0     O 4885   7.629   6.246   7.496  0.4455 -0.1845 -0.1065
   38MOL0     C 4886   7.546   6.310   7.431 -0.4228  0.3100 -0.3437
   38MOL0     O 4887   7.567   6.420   7.360  0.4148 -0.0023 -0.1782
   38MOL0     C 4888   7.688   6.493   7.369  0.4093  0.5742  0.6804
   38MOL0     C 4889   7.699   6.610   7.445 -0.2805  0.1358 -0.3390
   38MOL0     C 4890   7.820   6.678   7.436 -0.7902 -0.2244  0.3255
   38MOL0     C 4891   7.918   6.663   7.348  0.7789  0.3083  0.0137
   38MOL0     O 4892   8.031   6.741   7.358 -0.3061 -0.6460 -0.4267
   38MOL0     C 4893   8.141   6.742   7.258  0.0319  0.2782 -0.0328
   38MOL0     C 4894   8.216   6.871   7.279  0.1496 -0.0682  0.7238
   38MOL0     C 4895   8.296   6.908   7.149 -0.2349 -0.3435 -0.6751
   38MOL0     C 4896   8.365   7.040   7.179 -0.2338  0.3163 -0.0646
   38MOL0     C 4897   8.486   7.019   7.266 -0.0113  0.6709 -0.2626
   38MOL0     C 4898   8.603   6.933   7.215  0.5174  0.4229 -0.4146
   38MOL0     C 4899   8.723   6.973   7.291 -0.3877  0.3092 -0.0992
   38MOL0     C 4900   8.806   7.100   7.246 -0.2000  1.6619  0.0779
   38MOL0     N 4901   8.873   7.071   7.117  0.1477  0.8364  0.6378
   38MOL0     C 4902   8.995   6.992   7.098  0.0292 -0.6363  0.8102
   38MOL0     C 4903   9.068   7.048   7.002  0.3552 -0.8657  0.3900
   38MOL0     C 4904   9.215   7.030   6.960 -0.4638 -0.5193  0.3833
   38MOL0     C 4905   9.321   7.126   7.013  0.2217  1.0187 -0.7875
   38MOL0     C 4906   9.316   7.138   7.172  0.3910 -0.4893 -0.6196
   38MOL0     C 4907   9.382   7.015   7.247  0.9164 -0.1450  0.2960
   38MOL0     O 4908   9.304   6.900   7.225 -0.2174 -0.2825  0.3371
   38MOL0     C 4909   9.216   6.858   7.328 -0.6499  0.3973  0.0885
   38MOL0     C 4910   9.165   6.726   7.332 -0.8162  0.4885 -0.9909
   38MOL0     C 4911   9.060   6.688   7.419 -0.6675 -0.3665  0.7407
   38MOL0     C 4912   9.000   6.789   7.501 -0.6860  0.3445 -0.4432
   38MOL0     C 4913   8.877   6.757   7.581 -0.2950  0.9470  0.0762
   38MOL0     O 4914   8.870   6.819   7.704  1.4826 -0.8430  0.2345
   38MOL0     C 4915   8.747   6.798   7.759 -0.5785 -0.3247  0.0160
   38MOL0     C 4916   8.645   6.883   7.725  0.5854  0.6257 -0.4497
   38MOL0     C 4917   8.512   6.865   7.760  0.2797  0.5687  0.3535
   38MOL0     C 4918   8.482   6.761   7.853  0.1290 -0.0679  0.6382
   38MOL0     O 4919   8.354   6.729   7.893 -0.5480 -0.2192  0.3628
   38MOL0     C 4920   8.255   6.757   7.786  0.3868 -0.1066 -0.4732
   38MOL0     C 4921   8.132   6.678   7.829  0.3317 -0.9262 -0.4947
   38MOL0     C 4922   8.020   6.686   7.727 -0.9063 -0.0246 -0.2529
   38MOL0     C 4923   7.888   6.618   7.774  0.3279 -0.2524  0.5412
   38MOL0     C 4924   7.806   6.700   7.873 -0.9520  0.2556 -0.0911
   38MOL0     C 4925   7.671   6.632   7.899 -0.6651  0.0035 -0.0537
   38MOL0     C 4926   7.606   6.730   8.006  0.2509 -0.1445 -0.2137
   38MOL0     C 4927   7.507   6.652   8.098 -0.0465  0.2133  0.5139
   38MOL0    Cl 4928   7.355   6.623   8.009 -0.4582  0.1372 -0.2487
   38MOL0     C 4929   8.586   6.669   7.892  0.4850 -0.2906  0.0863
   38MOL0     C 4930   8.716   6.688   7.834  0.5973 -0.1683 -0.5925
   38MOL0     O 4931   8.798   6.685   7.524  0.0797  0.1301  0.3156
   38MOL0     C 4932   9.054   6.921   7.503  0.2220  0.3815 -0.1020
   38MOL0     C 4933   9.159   6.954   7.412 -0.8051  0.0190  0.1951
   38MOL0     N 4934   8.984   7.152   6.952  0.4353  0.3400  0.6562
   38MOL0     N 4935   8.877   7.160   7.012 -0.4804 -0.3102  0.1995
   38MOL0     C 4936   7.905   6.549   7.263 -0.5243  0.3656 -0.1559
   38MOL0     C 4937   7.792   6.458   7.281 -1.0400  0.4151  0.2420
   38MOL0     C 4938   7.396   6.282   7.444  0.1527  0.0705  0.1308
   38MOL0     C 4939   7.293   6.363   7.395  0.6656 -0.0195 -1.2193
   38MOL0     C 4940   7.153   6.334   7.409  0.1120  0.7217 -0.7620
   38MOL0     C 4941   7.110   6.210   7.467 -1.2710 -0.5792  0.4217
   38MOL0     O 4942   6.975   6.181   7.472  0.1846 -0.4391  0.5024
   38MOL0     C 4943   6.880   6.271   7.412 -0.9819  0.2590 -0.0162
   38MOL0     C 4944   6.759   6.187   7.373 -0.3895  0.4231  0.8690
   38MOL0     C 4945   6.698   6.115   7.500 -0.4109 -0.0908  0.7339
   38MOL0     C 4946   6.547   6.087   7.481 -0.3272 -0.0855  0.3077
   38MOL0     C 4947   6.530   5.997   7.370  0.2372  0.2677 -0.3480
   38MOL0     C 4948   6.526   5.914   7.276  0.4282  0.4980 -0.4225
   38MOL0     C 4949   7.202   6.141   7.525 -1.0355 -0.8441  0.0101
   38MOL0     C 4950   7.344   6.181   7.519  0.1412 -0.4371  0.3209
   38MOL0     H 4951   7.626   6.645   7.518 -1.4336 -0.6302 -1.0935
   38MOL0     H 4952   7.836   6.759   7.507 -3.6642  2.2907 -1.6174
   38MOL0     H 4953   8.099   6.743   7.156  0.2210  0.2891 -0.1105
   38MOL0     H 4954   8.211   6.659   7.271  3.4573  3.0764  0.9841
   38MOL0     H 4955   8.284   6.856   7.363 -2.3938  1.6631  3.2686
   38MOL0     H 4956   8.149   6.956   7.298 -0.0975  0.1655 -1.0282
   38MOL0     H 4957   8.221   6.917   7.071 -1.2496  1.0246  0.4186
   38MOL0     H 4958   8.369   6.833   7.118  1.9329  2.9719 -4.4282
   38MOL0     H 4959   8.398   7.076   7.081  0.1095 -1.0663 -0.4919
   38MOL0     H 4960   8.296   7.109   7.227 -2.0732 -1.1453 -0.5047
   38MOL0     H 4961   8.456   6.995   7.368 -1.5377 -2.6407 -1.3811
   38MOL0     H 4962   8.527   7.121   7.274 -0.0524  0.6491  0.2528
   38MOL0     H 4963   8.631   6.934   7.109  1.9639  1.3542 -0.0493
   38MOL0     H 4964   8.581   6.828   7.237 -0.2891  0.7869  0.5850
   38MOL0     H 4965   8.704   6.980   7.399 -0.3609  2.4677 -0.1980
   38MOL0     H 4966   8.794   6.890   7.287 -2.3864 -1.4404 -2.2619
   38MOL0     H 4967   8.881   7.139   7.315  1.8336  2.2100 -2.3137
   38MOL0     H 4968   8.742   7.187   7.231  0.2663  2.0069  0.0851
   38MOL0     H 4969   9.038   6.919   7.166  0.8159 -0.2884  0.7039
   38MOL0     H 4970   9.194   7.040   6.853 -1.1214  1.6132  0.6693
   38MOL0     H 4971   9.245   6.926   6.974  0.4508 -0.7755 -2.7025
   38MOL0     H 4972   9.319   7.227   6.970 -1.9575  2.5885  2.5310
   38MOL0     H 4973   9.414   7.073   6.991 -1.3593 -2.4172  0.1481
   38MOL0     H 4974   9.384   7.218   7.204  0.4561 -1.2188  1.1311
   38MOL0     H 4975   9.215   7.159   7.209  0.9628 -3.1961  2.9294
   38MOL0     H 4976   9.398   7.034   7.354 -0.6012  1.2190  0.3115
   38MOL0     H 4977   9.478   6.994   7.198  0.4501 -1.8229  0.0649
   38MOL0     H 4978   9.211   6.647   7.274 -1.5011  1.0777 -2.3695
   38MOL0     H 4979   9.028   6.584   7.415  1.5239 -1.0442 -2.0512
   38MOL0     H 4980   8.666   6.964   7.656 -0.3594  0.3912 -1.0358
   38MOL0     H 4981   8.429   6.924   7.723 -1.1775 -0.1972  2.2185
   38MOL0     H 4982   8.291   6.733   7.685  1.0801  0.6734 -0.4118
   38MOL0     H 4983   8.228   6.863   7.787  0.1153 -0.1779 -0.1801
   38MOL0     H 4984   8.091   6.713   7.925 -1.1895  1.0534 -1.8006
   38MOL0     H 4985   8.168   6.576   7.849 -1.6329 -1.3158  1.5391
   38MOL0     H 4986   8.058   6.659   7.628  0.1288 -0.7704  0.3189
   38MOL0     H 4987   7.996   6.793   7.717 -3.5692 -0.6747 -1.7496
   38MOL0     H 4988   7.830   6.604   7.682 -1.0741 -0.6556  1.4544
   38MOL0     H 4989   7.916   6.517   7.806  0.7479 -0.3433 -0.1050
   38MOL0     H 4990   7.799   6.802   7.835 -3.6759  0.2281  0.1406
   38MOL0     H 4991   7.876   6.698   7.957  0.8172 -1.2952 -1.5220
   38MOL0     H 4992   7.691   6.531   7.937  1.6220  0.3382 -0.2420
   38MOL0     H 4993   7.614   6.632   7.806 -0.1969  1.4395 -0.3658
   38MOL0     H 4994   7.686   6.774   8.067  0.1234 -0.0868 -0.0857
   38MOL0     H 4995   7.559   6.816   7.958  2.1296  1.6531  0.9859
   38MOL0     H 4996   7.483   6.717   8.183 -3.9982  2.1244 -1.7743
   38MOL0     H 4997   7.550   6.558   8.134 -0.3152  0.7668  2.3781
   38MOL0     H 4998   8.571   6.584   7.958  3.2884 -0.3821  0.7641
   38MOL0     H 4999   8.801   6.622   7.850  3.2048  2.6837 -1.7315
   38MOL0     H 5000   9.012   7.000   7.566 -1.9864  0.4273 -1.5127
   38MOL0     H 5001   9.176   7.060   7.395 -0.6118 -0.0071  0.2213
   38MOL0     H 5002   7.985   6.514   7.198 -1.0660 -0.1030 -0.5794
   38MOL0     H 5003   7.798   6.366   7.223 -0.1168 -1.9147  3.7287
   38MOL0     H 5004   7.318   6.455   7.344  3.1756 -1.0808 -2.0810
   38MOL0     H 5005   7.084   6.405   7.366  1.6895  2.2551 -0.8658
   38MOL0     H 5006   6.908   6.317   7.316 -2.6118 -2.0890 -1.7562
   38MOL0     H 5007   6.857   6.350   7.484  0.4200  0.8289 -0.1714
   38MOL0     H 5008   6.687   6.249   7.319  1.6105 -0.1735 -2.8453
   38MOL0     H 5009   6.796   6.119   7.296  0.0204  2.6423 -1.0241
   38MOL0     H 5010   6.699   6.182   7.586 -0.6606 -0.9528  1.4270
   38MOL0     H 5011   6.764   6.030   7.519 -0.0942 -0.4175 -1.5414
   38MOL0     H 5012   6.505   6.032   7.566 -2.1108  3.7046  2.1158
   38MOL0     H 5013   6.498   6.183   7.467 -0.4446 -0.3740 -1.5269
   38MOL0     H 5014   6.552   5.836   7.207  2.0127 -1.4482  2.2158
   38MOL0     H 5015   7.179   6.052   7.582 -1.2898 -0.0197  1.2290
   38MOL0     H 5016   7.398   6.105   7.575  0.4606 -1.1676 -0.9202
   39MOL0     O 5017   6.643   8.517   9.576 -0.3233 -0.2837  0.1713
   39MOL0     C 5018   6.732   8.547   9.496  0.0900  0.3411 -0.1021
   39MOL0     O 5019   6.721   8.546   9.353  0.2798  0.9089 -0.5017
   39MOL0     C 5020   6.590   8.525   9.302 -0.3919  0.1458  0.1812
   39MOL0     C 5021   6.546   8.410   9.237 -1.0844  0.2535 -0.2925
   39MOL0     C 5022   6.419   8.388   9.193 -0.6684 -0.4344  0.5196
   39MOL0     C 5023   6.318   8.489   9.208 -0.5703 -0.0028  0.0082
   39MOL0     O 5024   6.189   8.462   9.177 -0.1275  0.2327 -0.0536
   39MOL0     C 5025   6.118   8.430   9.302  0.1126 -0.1843 -0.6697
   39MOL0     C 5026   5.966   8.462   9.288 -0.2425  0.0877 -0.2725
   39MOL0     C 5027   5.943   8.614   9.262 -1.2237 -0.0311  0.1102
   39MOL0     C 5028   5.806   8.653   9.225  0.0305 -1.0828  0.5739
   39MOL0     C 5029   5.695   8.565   9.307 -0.2949 -0.9544  0.1413
   39MOL0     C 5030   5.564   8.641   9.281  0.3850  0.2261  0.0096
   39MOL0     C 5031   5.455   8.547   9.344  0.5905  0.3789 -0.2501
   39MOL0     C 5032   5.314   8.591   9.311  0.6177 -0.0121  0.0554
   39MOL0     N 5033   5.271   8.699   9.402  0.0980 -0.4458  0.4007
   39MOL0     C 5034   5.200   8.681   9.520 -0.0984 -0.3946 -0.0915
   39MOL0     C 5035   5.185   8.808   9.563  0.3138 -0.1718 -1.2627
   39MOL0     C 5036   5.109   8.845   9.693 -0.0234  0.3520 -0.3654
   39MOL0     C 5037   4.958   8.877   9.678  0.2133  0.1222  0.1867
   39MOL0     C 5038   4.900   8.765   9.585 -0.5691  0.1623  0.3318
   39MOL0     C 5039   4.746   8.776   9.602 -0.0243 -0.3545 -0.0435
   39MOL0     O 5040   4.671   8.662   9.568  0.0199  1.0532  0.0715
   39MOL0     C 5041   4.537   8.693   9.562 -0.0296 -0.0639  0.0191
   39MOL0     C 5042   4.481   8.721   9.438 -1.2769  0.6911  0.7169
   39MOL0     C 5043   4.346   8.740   9.419 -0.2004  0.1334  0.2083
   39MOL0     C 5044   4.260   8.726   9.527 -0.0849 -1.0961  0.1957
   39MOL0     C 5045   4.114   8.721   9.503 -0.1236 -0.1993 -0.3911
   39MOL0     O 5046   4.021   8.698   9.601 -0.0890  0.1582  0.0499
   39MOL0     C 5047   3.885   8.680   9.572 -0.1015  0.0871  0.8427
   39MOL0     C 5048   3.785   8.757   9.635  0.2432  0.1097  0.5377
   39MOL0     C 5049   3.653   8.740   9.600  0.2914  1.0240  0.3320
   39MOL0     C 5050   3.622   8.628   9.514  0.5742 -0.0196 -0.7855
   39MOL0     O 5051   3.492   8.600   9.475  0.2443 -0.0869 -0.2486
   39MOL0     C 5052   3.381   8.679   9.523 -0.7447  0.4928  0.1448
   39MOL0     C 5053   3.331   8.634   9.655  0.2300  0.5543  0.1803
   39MOL0     C 5054   3.186   8.658   9.673 -0.0298 -0.8330  0.6569
   39MOL0     C 5055   3.108   8.564   9.580 -0.2318 -0.3864  0.1739
   39MOL0     C 5056   2.972   8.520   9.632  0.3670 -0.2194 -0.7189
   39MOL0     C 5057   2.881   8.448   9.533  0.2334  0.3380  0.2703
   39MOL0     C 5058   2.764   8.380   9.602 -1.1246  0.3498  0.6126
   39MOL0     C 5059   2.653   8.484   9.643  0.3976 -0.8282 -0.2856
   39MOL0    Cl 5060   2.515   8.400   9.720 -0.4947  0.2636 -0.5476
   39MOL0     C 5061   3.720   8.547   9.464 -0.3839 -0.0876  0.3925
   39MOL0     C 5062   3.855   8.573   9.486 -0.3926  0.1872  0.7836
   39MOL0     O 5063   4.087   8.743   9.386  0.1571  0.7679 -0.2184
   39MOL0     C 5064   4.315   8.697   9.658  0.2637  0.4266  0.3581
   39MOL0     C 5065   4.457   8.693   9.678 -0.7060  0.1901 -0.3705
   39MOL0     N 5066   5.244   8.897   9.475  1.3648  0.4815 -0.1251
   39MOL0     N 5067   5.292   8.831   9.387  0.4742 -0.4725  0.6310
   39MOL0     C 5068   6.367   8.613   9.261 -0.0954  0.0961  0.0043
   39MOL0     C 5069   6.497   8.631   9.309  0.4023  0.8547  0.2116
   39MOL0     C 5070   6.870   8.565   9.550  0.0294 -0.1636  0.3333
   39MOL0     C 5071   6.973   8.618   9.460  1.0488  0.2525  0.1148
   39MOL0     C 5072   7.102   8.656   9.508 -0.0763  0.4434 -0.0828
   39MOL0     C 5073   7.129   8.650   9.644  0.1045  0.3804 -0.7154
   39MOL0     O 5074   7.249   8.677   9.705  0.8101 -0.3590 -0.7188
   39MOL0     C 5075   7.366   8.718   9.625 -0.0129 -0.0438  0.0623
   39MOL0     C 5076   7.487   8.744   9.724  0.5720 -0.4067 -0.6335
   39MOL0     C 5077   7.523   8.612   9.806  0.0149  0.2725  0.0451
   39MOL0     C 5078   7.537   8.643   9.951  0.0630 -0.1379  0.5598
   39MOL0     C 5079   7.644   8.743   9.971 -0.5795  0.4518  0.4406
   39MOL0     C 5080   7.728   8.828   9.979 -0.6681  0.9057  0.1536
   39MOL0     C 5081   7.023   8.605   9.724 -1.1696 -0.1437  0.3428
   39MOL0     C 5082   6.895   8.571   9.682 -0.0892  0.1779  0.0876
   39MOL0     H 5083   6.618   8.328   9.236  1.2396  2.2021 -1.0568
   39MOL0     H 5084   6.380   8.289   9.171 -3.5758  0.4407  1.3517
   39MOL0     H 5085   6.150   8.486   9.390  0.2912  0.5679 -1.2117
   39MOL0     H 5086   6.130   8.322   9.317  0.5290  0.1345  1.6235
   39MOL0     H 5087   5.907   8.429   9.374  1.6414  0.7266  1.3230
   39MOL0     H 5088   5.929   8.402   9.204 -2.5425  0.3383  0.4770
   39MOL0     H 5089   6.025   8.649   9.198  0.3658 -1.7110  1.1176
   39MOL0     H 5090   5.971   8.664   9.355 -0.0113  3.0422 -1.7406
   39MOL0     H 5091   5.792   8.761   9.236 -0.1806 -1.0375 -0.0338
   39MOL0     H 5092   5.788   8.620   9.122  0.6095 -0.4830  0.2781
   39MOL0     H 5093   5.717   8.559   9.414 -0.3243  2.2356  0.4430
   39MOL0     H 5094   5.689   8.468   9.257 -2.9011 -1.3523  1.0988
   39MOL0     H 5095   5.539   8.650   9.175  1.1755  2.1679 -0.0609
   39MOL0     H 5096   5.563   8.736   9.335  2.9064  0.1722  0.2490
   39MOL0     H 5097   5.479   8.442   9.330  1.7254  0.2872  1.9218
   39MOL0     H 5098   5.466   8.550   9.453 -1.5322  1.0738 -0.0052
   39MOL0     H 5099   5.243   8.508   9.306 -0.2163  0.7516 -1.0413
   39MOL0     H 5100   5.318   8.631   9.209  0.8100  0.9765  0.4353
   39MOL0     H 5101   5.159   8.592   9.565  0.0612 -0.7570 -0.6513
   39MOL0     H 5102   5.157   8.922   9.755 -2.8748  0.4771  1.9456
   39MOL0     H 5103   5.112   8.761   9.763  1.7829  0.9909  0.3914
   39MOL0     H 5104   4.942   8.979   9.641 -2.4327  0.3078  1.5750
   39MOL0     H 5105   4.914   8.869   9.778 -0.0679 -3.5856 -0.0884
   39MOL0     H 5106   4.928   8.780   9.481  2.9431  3.0166  1.4875
   39MOL0     H 5107   4.929   8.667   9.626  0.2067  1.2543  2.5930
   39MOL0     H 5108   4.726   8.867   9.544  0.2262  0.4150  1.0578
   39MOL0     H 5109   4.724   8.796   9.707  4.9359  0.9654  1.0341
   39MOL0     H 5110   4.529   8.745   9.343 -1.6224  1.4385  0.7239
   39MOL0     H 5111   4.316   8.778   9.322  0.7917  4.6708  1.3993
   39MOL0     H 5112   3.827   8.833   9.700  0.0237 -2.3177  3.7826
   39MOL0     H 5113   3.570   8.797   9.639 -2.3328 -0.3400 -2.8081
   39MOL0     H 5114   3.298   8.675   9.452  0.4463  1.4947 -1.3603
   39MOL0     H 5115   3.398   8.787   9.522 -0.8482  0.5882  2.3718
   39MOL0     H 5116   3.381   8.685   9.738 -0.2426 -0.8987  1.3874
   39MOL0     H 5117   3.356   8.528   9.659  2.1732  0.9044 -1.3181
   39MOL0     H 5118   3.166   8.765   9.663  1.9271 -0.6016 -1.3582
   39MOL0     H 5119   3.161   8.639   9.778  0.0759 -0.5339  0.7375
   39MOL0     H 5120   3.097   8.607   9.480  0.1466 -0.3426  0.1511
   39MOL0     H 5121   3.159   8.470   9.554 -2.5577 -2.0371  1.2315
   39MOL0     H 5122   2.923   8.606   9.677 -0.2139 -0.7880 -0.2487
   39MOL0     H 5123   2.979   8.441   9.707 -2.9834 -2.1250 -2.1706
   39MOL0     H 5124   2.937   8.376   9.472 -0.1551 -1.6372  2.1236
   39MOL0     H 5125   2.839   8.522   9.464 -0.0456  2.2012  2.3597
   39MOL0     H 5126   2.725   8.307   9.531  1.8185 -1.6767  0.9146
   39MOL0     H 5127   2.801   8.324   9.688  0.1316 -0.5800 -0.4959
   39MOL0     H 5128   2.631   8.538   9.550  0.0700  0.4446  0.5026
   39MOL0     H 5129   2.693   8.557   9.715 -1.2119 -2.8044  2.8017
   39MOL0     H 5130   3.714   8.468   9.390  4.8848 -0.1476 -0.3868
   39MOL0     H 5131   3.924   8.491   9.468 -1.7199 -0.4932 -1.6897
   39MOL0     H 5132   4.246   8.689   9.741 -0.1368 -2.2401 -0.1242
   39MOL0     H 5133   4.499   8.682   9.777 -2.4577 -0.4593  0.3421
   39MOL0     H 5134   6.302   8.700   9.268 -1.3292 -0.9325  3.3150
   39MOL0     H 5135   6.537   8.722   9.353  2.4291  0.9966 -1.7114
   39MOL0     H 5136   6.971   8.625   9.352  2.0483 -0.3497  0.0465
   39MOL0     H 5137   7.171   8.705   9.439 -1.5817  1.5831 -0.8297
   39MOL0     H 5138   7.342   8.804   9.562 -0.0456  0.0051  0.1416
   39MOL0     H 5139   7.394   8.631   9.563 -2.9624  0.8372 -2.8127
   39MOL0     H 5140   7.572   8.779   9.665  0.6048  1.2021  0.3019
   39MOL0     H 5141   7.458   8.822   9.796  0.3314  1.6425 -2.8118
   39MOL0     H 5142   7.612   8.561   9.768 -0.9968 -0.7605 -1.0667
   39MOL0     H 5143   7.439   8.543   9.790 -0.3095  1.1909 -2.7430
   39MOL0     H 5144   7.442   8.674   9.995 -0.3309 -0.1000 -0.3074
   39MOL0     H 5145   7.573   8.552   9.999  2.5672  0.2040 -0.4966
   39MOL0     H 5146   7.818   8.885   9.969  2.0100 -3.1640 -1.4511
   39MOL0     H 5147   7.056   8.602   9.827  0.0376  1.1042  0.0291
   39MOL0     H 5148   6.818   8.534   9.749 -1.1071  1.0143 -0.5912
   40MOL0     O 5149   6.499   9.936   6.647  0.1585 -0.7444  0.3671
   40MOL0     C 5150   6.433   9.837   6.601 -0.6125  1.1682 -0.1539
   40MOL0     O 5151   6.485   9.738   6.529  0.2893 -0.0357  0.7212
   40MOL0     C 5152   6.622   9.736   6.502 -0.0674 -0.2952  0.0248
   40MOL0     C 5153   6.701   9.622   6.535  0.2965  0.2403  0.8104
   40MOL0     C 5154   6.844   9.622   6.521 -0.1512 -0.4396  0.4143
   40MOL0     C 5155   6.903   9.734   6.452  0.8632  1.0091 -0.4006
   40MOL0     O 5156   7.041   9.730   6.424  0.5120 -0.0449  0.2313
   40MOL0     C 5157   7.095   9.643   6.328 -0.2527 -0.6868 -0.2246
   40MOL0     C 5158   7.245   9.634   6.331 -0.7258 -0.3703 -0.0555
   40MOL0     C 5159   7.322   9.775   6.311 -0.4856  1.0776 -0.1418
   40MOL0     C 5160   7.299   9.850   6.183  0.8154  0.8129 -0.6880
   40MOL0     C 5161   7.426   9.916   6.133  0.5654  1.1112  0.3671
   40MOL0     C 5162   7.380  10.010   6.016  0.6852  0.1826  0.0525
   40MOL0     C 5163   7.486  10.107   5.956  0.4689 -1.4608 -0.3966
   40MOL0     C 5164   7.513  10.235   6.039  0.5021 -1.1113  0.6571
   40MOL0     N 5165   7.397  10.326   6.059  0.9189 -0.2973  0.3545
   40MOL0     C 5166   7.330  10.386   5.959  0.0925 -0.0529  0.3486
   40MOL0     C 5167   7.220  10.444   6.018 -0.3450  0.0356 -0.2597
   40MOL0     C 5168   7.111  10.493   5.931  1.2472  0.1162 -0.1756
   40MOL0     C 5169   7.007  10.375   5.923 -0.2112 -0.0345  0.1407
   40MOL0     C 5170   7.025  10.290   5.792 -0.4245  0.3957 -0.6094
   40MOL0     C 5171   6.935  10.168   5.800 -0.4320 -0.3793  0.0151
   40MOL0     O 5172   6.931  10.105   5.668  0.4437  0.3628  0.0033
   40MOL0     C 5173   6.804  10.058   5.649 -0.1588 -0.0246  0.4578
   40MOL0     C 5174   6.775   9.925   5.677 -0.0539  0.2923 -0.0407
   40MOL0     C 5175   6.643   9.882   5.673 -0.6667 -0.5602  0.1805
   40MOL0     C 5176   6.537   9.971   5.643  0.8472 -0.4533 -0.6912
   40MOL0     C 5177   6.399   9.922   5.627  0.4982 -0.2316  0.0431
   40MOL0     O 5178   6.302  10.016   5.611  0.5105 -0.3453 -0.4194
   40MOL0     C 5179   6.179   9.967   5.580  0.1260  0.1145 -0.3199
   40MOL0     C 5180   6.100   9.909   5.680 -1.0967 -0.2384 -0.3088
   40MOL0     C 5181   5.972   9.866   5.659  0.6069  0.1068 -0.2676
   40MOL0     C 5182   5.913   9.889   5.533  0.0358 -0.0286 -0.4693
   40MOL0     O 5183   5.787   9.853   5.525  0.5720 -0.4391  0.4991
   40MOL0     C 5184   5.709   9.865   5.398 -0.6418 -0.6246 -0.2906
   40MOL0     C 5185   5.572   9.811   5.425  0.4478 -0.2744  1.5686
   40MOL0     C 5186   5.467   9.859   5.326  0.3915  0.0136 -0.0927
   40MOL0     C 5187   5.469   9.758   5.203 -0.3545  0.2385 -0.4911
   40MOL0     C 5188   5.378   9.811   5.098 -0.0511  0.2692 -0.1672
   40MOL0     C 5189   5.382   9.708   4.977 -0.1733 -0.9673  0.5572
   40MOL0     C 5190   5.306   9.772   4.859 -0.6641 -0.0690 -0.4651
   40MOL0     C 5191   5.168   9.822   4.888  0.0523  0.3903 -0.4538
   40MOL0    Cl 5192   5.067   9.674   4.902 -0.1531 -0.0527 -0.3387
   40MOL0     C 5193   5.982   9.947   5.427 -0.0090 -0.2143  0.2815
   40MOL0     C 5194   6.121   9.985   5.454  0.6622  1.1466  0.5271
   40MOL0     O 5195   6.383   9.804   5.650 -0.1962  0.1456 -0.2645
   40MOL0     C 5196   6.571  10.097   5.600  1.0469 -1.2041 -0.8264
   40MOL0     C 5197   6.701  10.141   5.598 -0.0990  0.4641 -1.0196
   40MOL0     N 5198   7.228  10.434   6.155  0.4860  0.1582 -0.3216
   40MOL0     N 5199   7.330  10.358   6.171 -0.9596 -0.2796 -0.9926
   40MOL0     C 5200   6.830   9.846   6.429  0.2046 -0.2523  0.0598
   40MOL0     C 5201   6.694   9.846   6.452 -0.1265 -0.5847 -0.4009
   40MOL0     C 5202   6.290   9.827   6.628 -0.0001  0.2774 -0.1348
   40MOL0     C 5203   6.212   9.929   6.695 -0.2308  0.3862 -0.4915
   40MOL0     C 5204   6.075   9.906   6.714 -0.8530  0.1155 -0.3457
   40MOL0     C 5205   6.007   9.787   6.684 -0.3694 -0.0327  0.2786
   40MOL0     O 5206   5.872   9.774   6.696  0.0980  0.2613  0.3626
   40MOL0     C 5207   5.836   9.686   6.805  0.6033 -0.3600  0.1042
   40MOL0     C 5208   5.830   9.749   6.944 -0.6030 -0.7192 -0.2410
   40MOL0     C 5209   5.777   9.894   6.945  0.1117  0.0353 -0.3195
   40MOL0     C 5210   5.639   9.922   6.878  0.7914  0.8175 -0.1808
   40MOL0     C 5211   5.527   9.863   6.965 -1.0745 -0.2496  1.0534
   40MOL0     C 5212   5.435   9.818   7.033  0.1352  0.5031  0.2733
   40MOL0     C 5213   6.087   9.685   6.639 -0.2196  0.3133  0.2928
   40MOL0     C 5214   6.220   9.705   6.606  0.4420  0.1722 -0.1572
   40MOL0     H 5215   6.651   9.534   6.574  0.6803  0.0633  0.9073
   40MOL0     H 5216   6.909   9.541   6.553  0.6176 -0.2018 -0.4873
   40MOL0     H 5217   7.068   9.668   6.225 -0.3463  1.4308  0.2749
   40MOL0     H 5218   7.055   9.543   6.346 -1.1662 -0.2042  0.4701
   40MOL0     H 5219   7.286   9.563   6.259  3.5010  2.6250 -1.0210
   40MOL0     H 5220   7.280   9.588   6.423  0.5325  1.5808  0.4946
   40MOL0     H 5221   7.429   9.753   6.315 -0.4149  0.9941 -1.8836
   40MOL0     H 5222   7.301   9.846   6.391 -0.6903  0.2472  0.5681
   40MOL0     H 5223   7.276   9.777   6.105  3.4105 -1.2155  0.3178
   40MOL0     H 5224   7.211   9.915   6.182 -0.0227 -0.1895 -3.5330
   40MOL0     H 5225   7.485   9.831   6.098  0.2270  1.1869 -0.4076
   40MOL0     H 5226   7.464   9.986   6.208 -0.4943  2.2863 -0.1539
   40MOL0     H 5227   7.297  10.079   6.030  0.5607  0.6597 -2.6006
   40MOL0     H 5228   7.352   9.935   5.941 -1.4297  1.2180 -0.2401
   40MOL0     H 5229   7.578  10.055   5.930  1.4582  1.0092 -2.2666
   40MOL0     H 5230   7.450  10.131   5.855 -1.0398 -1.1719  0.1896
   40MOL0     H 5231   7.599  10.284   5.993  0.0428  0.0805  1.0534
   40MOL0     H 5232   7.545  10.196   6.136 -0.1458 -0.5843  1.0936
   40MOL0     H 5233   7.335  10.394   5.851 -0.4317 -2.0734  0.1343
   40MOL0     H 5234   7.155  10.523   5.836 -0.2426  1.3844 -0.5077
   40MOL0     H 5235   7.052  10.567   5.986 -0.8816 -1.5253 -0.1169
   40MOL0     H 5236   6.906  10.416   5.920 -0.0332  0.3709 -1.0736
   40MOL0     H 5237   7.019  10.319   6.016  0.8087  0.3679  0.2698
   40MOL0     H 5238   7.012  10.364   5.712  3.4288  0.8700 -0.9815
   40MOL0     H 5239   7.126  10.248   5.794 -0.9819 -1.0192  1.7746
   40MOL0     H 5240   6.840  10.217   5.821  0.4541  0.7837  1.4958
   40MOL0     H 5241   6.971  10.092   5.870  0.1434  2.2984  2.8279
   40MOL0     H 5242   6.850   9.847   5.689 -2.5451 -2.0412  1.3916
   40MOL0     H 5243   6.622   9.779   5.701  2.9157 -1.3368  0.5979
   40MOL0     H 5244   6.136   9.885   5.780 -0.5563  3.4527  0.5091
   40MOL0     H 5245   5.919   9.814   5.739 -1.6254 -0.1696 -1.8380
   40MOL0     H 5246   5.763   9.801   5.327  1.9201  2.8493 -1.7592
   40MOL0     H 5247   5.686   9.967   5.369 -6.0559 -0.8537  2.0579
   40MOL0     H 5248   5.531   9.849   5.519  0.7967  2.0197  0.8395
   40MOL0     H 5249   5.569   9.701   5.424  1.1056 -0.3048  2.1189
   40MOL0     H 5250   5.476   9.960   5.285 -0.7013  1.2141  2.3855
   40MOL0     H 5251   5.370   9.856   5.377 -0.2179  1.7754 -1.0644
   40MOL0     H 5252   5.572   9.738   5.172  0.4794 -0.5297  2.4414
   40MOL0     H 5253   5.434   9.656   5.227  1.1307 -0.2072 -0.1247
   40MOL0     H 5254   5.406   9.908   5.058  2.0905 -0.0471  0.4695
   40MOL0     H 5255   5.275   9.828   5.133  0.3609 -1.1158  1.8958
   40MOL0     H 5256   5.326   9.615   4.991 -1.5205 -0.5736 -1.7180
   40MOL0     H 5257   5.487   9.685   4.956  1.0625  2.6036  1.9928
   40MOL0     H 5258   5.359   9.861   4.824 -0.2049  0.0552  0.5156
   40MOL0     H 5259   5.300   9.703   4.774  0.7107 -0.3529 -0.3606
   40MOL0     H 5260   5.143   9.882   4.800  0.8213 -1.5090 -2.0656
   40MOL0     H 5261   5.164   9.887   4.975  0.7360 -2.5774  1.9583
   40MOL0     H 5262   5.936   9.960   5.330 -0.7952 -1.5819  0.4515
   40MOL0     H 5263   6.191  10.031   5.385  2.9190  2.2245  3.2972
   40MOL0     H 5264   6.494  10.170   5.574  0.6101 -0.9415  1.0251
   40MOL0     H 5265   6.721  10.242   5.565  4.2463 -0.7618 -2.9699
   40MOL0     H 5266   6.883   9.933   6.392  0.3459 -0.2668  0.2290
   40MOL0     H 5267   6.638   9.933   6.419  0.1099 -0.6256 -0.9265
   40MOL0     H 5268   6.256  10.025   6.722 -2.1460  0.2536  4.0397
   40MOL0     H 5269   6.023   9.999   6.736 -0.9036 -0.6425  3.2619
   40MOL0     H 5270   5.913   9.611   6.825  0.2424 -0.5304  0.8949
   40MOL0     H 5271   5.740   9.638   6.783 -0.0688  1.2408 -0.6031
   40MOL0     H 5272   5.775   9.680   7.009  2.0607 -3.4595 -0.6793
   40MOL0     H 5273   5.934   9.749   6.980 -0.7733 -1.8877  0.2661
   40MOL0     H 5274   5.850   9.948   6.884  1.4634 -1.1776  0.1898
   40MOL0     H 5275   5.772   9.921   7.051 -1.4902  3.1002 -1.0550
   40MOL0     H 5276   5.622  10.030   6.872 -1.3581  0.4706 -1.6152
   40MOL0     H 5277   5.637   9.889   6.773 -0.2872 -0.1788  0.1241
   40MOL0     H 5278   5.361   9.790   7.105  1.0538  3.2401  2.4660
   40MOL0     H 5279   6.037   9.595   6.604 -1.0927  1.7396 -2.4490
   40MOL0     H 5280   6.288   9.630   6.569  0.3957  1.8405 -4.1421
   41MOL0     O 5281  10.156   8.182   6.771  0.3861 -0.6110  0.1716
   41MOL0     C 5282  10.116   8.269   6.850 -0.2721  0.6403  0.5555
   41MOL0     O 5283  10.001   8.246   6.924  0.1878 -0.7023  0.2556
   41MOL0     C 5284   9.915   8.141   6.900  0.6739  0.2224  0.4654
   41MOL0     C 5285   9.905   8.046   6.790 -0.0834 -1.6603 -0.6023
   41MOL0     C 5286   9.809   7.945   6.793 -0.0040 -0.1052 -0.5441
   41MOL0     C 5287   9.725   7.929   6.898  0.6173  0.6206 -0.1469
   41MOL0     O 5288   9.657   7.814   6.903  0.7704 -0.4452 -0.6796
   41MOL0     C 5289   9.580   7.788   7.019  0.8548  0.3411  0.6047
   41MOL0     C 5290   9.482   7.678   6.992 -0.4192 -0.1722 -0.1757
   41MOL0     C 5291   9.365   7.686   7.090  0.1359 -0.8345 -0.3733
   41MOL0     C 5292   9.267   7.573   7.084 -0.5555 -0.0574 -0.2038
   41MOL0     C 5293   9.153   7.582   7.181 -0.2482 -0.5922  0.5540
   41MOL0     C 5294   9.069   7.460   7.148 -0.1472 -0.5385  0.4751
   41MOL0     C 5295   8.967   7.439   7.259 -0.8602 -0.2743 -0.4566
   41MOL0     C 5296   9.033   7.383   7.399 -0.9369  0.6747  0.6618
   41MOL0     N 5297   8.933   7.351   7.503 -0.7191  0.6586  0.5019
   41MOL0     C 5298   8.821   7.423   7.526 -0.2958  0.6794  0.0722
   41MOL0     C 5299   8.746   7.339   7.604 -0.7963  0.0140 -0.5116
   41MOL0     C 5300   8.607   7.355   7.659  0.1140 -0.5189 -0.0741
   41MOL0     C 5301   8.517   7.242   7.622 -0.4049 -0.8676 -0.3822
   41MOL0     C 5302   8.372   7.297   7.620 -0.1122 -0.2492 -0.1143
   41MOL0     C 5303   8.273   7.198   7.568  0.6093  0.1000 -0.3671
   41MOL0     O 5304   8.138   7.256   7.579 -0.6994  0.0947  0.6294
   41MOL0     C 5305   8.036   7.174   7.540  0.4169 -0.5518 -0.1449
   41MOL0     C 5306   8.003   7.148   7.409  0.0740 -0.0572 -0.3961
   41MOL0     C 5307   7.888   7.088   7.376 -0.4701  0.8039 -0.5010
   41MOL0     C 5308   7.797   7.049   7.471 -1.0299 -0.0932 -1.3016
   41MOL0     C 5309   7.664   6.983   7.445 -0.6458 -0.4404 -0.5133
   41MOL0     O 5310   7.589   6.943   7.550 -0.3855  0.5537  0.3152
   41MOL0     C 5311   7.473   6.877   7.545  0.6615 -0.5324 -0.4290
   41MOL0     C 5312   7.394   6.886   7.665  0.1613 -1.3205 -0.2359
   41MOL0     C 5313   7.275   6.826   7.674 -0.3120  0.1542 -0.1456
   41MOL0     C 5314   7.223   6.755   7.561  0.0514 -0.7116 -0.7103
   41MOL0     O 5315   7.096   6.698   7.562  0.3645  0.0259 -0.2889
   41MOL0     C 5316   6.994   6.730   7.660 -0.6908 -0.6131  0.1346
   41MOL0     C 5317   7.004   6.652   7.786 -0.1661  0.4030  0.0887
   41MOL0     C 5318   6.864   6.612   7.829  0.6310 -0.5400 -0.9647
   41MOL0     C 5319   6.774   6.733   7.871 -0.1188 -0.4495 -0.4083
   41MOL0     C 5320   6.651   6.683   7.935  0.1781  0.4636  0.4508
   41MOL0     C 5321   6.549   6.789   7.963 -0.4954 -0.6782 -0.0412
   41MOL0     C 5322   6.410   6.734   7.998  0.8474  0.4028 -0.7792
   41MOL0     C 5323   6.309   6.850   8.001  0.1050  0.0050  0.1682
   41MOL0    Cl 5324   6.368   6.983   8.106  0.0080 -0.0542  0.3551
   41MOL0     C 5325   7.303   6.735   7.445  0.0269 -0.2440 -0.5168
   41MOL0     C 5326   7.429   6.800   7.431 -0.5996 -0.0792 -0.3944
   41MOL0     O 5327   7.624   6.983   7.327 -0.1580 -0.1860 -0.0762
   41MOL0     C 5328   7.824   7.089   7.606 -0.5554 -0.9684 -0.3148
   41MOL0     C 5329   7.949   7.141   7.638  0.3717 -0.4091  0.0886
   41MOL0     N 5330   8.816   7.224   7.631  0.1483  0.0796  0.2228
   41MOL0     N 5331   8.923   7.229   7.560 -0.4760 -0.3219  0.2134
   41MOL0     C 5332   9.727   8.027   7.003  0.3922  0.0073  0.2083
   41MOL0     C 5333   9.831   8.124   7.010  0.6438  0.6044  0.3555
   41MOL0     C 5334  10.199   8.400   6.857 -0.3046 -0.7439  0.3065
   41MOL0     C 5335  10.328   8.400   6.792  0.5325  0.3497 -0.1094
   41MOL0     C 5336  10.395   8.524   6.800 -0.0931  0.4008  0.0372
   41MOL0     C 5337  10.359   8.630   6.878  0.9222 -0.0921 -0.2232
   41MOL0     O 5338  10.443   8.735   6.883  0.4337  0.0502  0.4581
   41MOL0     C 5339  10.390   8.867   6.872 -0.3688 -0.2502  0.3647
   41MOL0     C 5340  10.478   8.926   6.766  0.1644 -0.1512 -0.2426
   41MOL0     C 5341  10.428   8.902   6.616 -0.1503 -0.8962 -0.5344
   41MOL0     C 5342  10.488   9.002   6.520 -0.5051  0.0977 -0.1396
   41MOL0     C 5343  10.637   9.005   6.523 -0.8136  0.2068  0.2382
   41MOL0     C 5344  10.762   9.012   6.530  0.4645  0.3277 -0.1990
   41MOL0     C 5345  10.228   8.625   6.932 -0.1938  0.1788  0.2262
   41MOL0     C 5346  10.148   8.511   6.924 -0.0411 -0.0101 -0.9419
   41MOL0     H 5347   9.967   8.055   6.701  0.6142 -0.6926 -0.0369
   41MOL0     H 5348   9.804   7.873   6.712 -1.2908 -1.3230  0.5577
   41MOL0     H 5349   9.520   7.878   7.030  0.0768 -0.1129  0.1853
   41MOL0     H 5350   9.648   7.771   7.103  0.2608  1.2508  1.2771
   41MOL0     H 5351   9.534   7.581   6.988 -0.8567 -0.3724 -2.3399
   41MOL0     H 5352   9.441   7.691   6.891 -0.2433 -1.1628 -0.3817
   41MOL0     H 5353   9.307   7.776   7.073 -1.7984 -1.1582  3.4556
   41MOL0     H 5354   9.401   7.687   7.193  0.3441 -3.8595 -0.3157
   41MOL0     H 5355   9.222   7.582   6.985  1.3519  0.5486 -1.0565
   41MOL0     H 5356   9.318   7.478   7.099  1.0808  0.7857 -0.2525
   41MOL0     H 5357   9.096   7.673   7.155  0.3869 -0.8160 -1.9473
   41MOL0     H 5358   9.189   7.581   7.284 -1.3362 -1.0782  0.9474
   41MOL0     H 5359   9.131   7.370   7.140 -0.2475 -0.4664 -1.9917
   41MOL0     H 5360   9.019   7.466   7.051  3.3803  1.0342 -1.4329
   41MOL0     H 5361   8.924   7.539   7.278 -1.0135 -0.1143 -1.5967
   41MOL0     H 5362   8.888   7.372   7.225 -2.0733  1.0077 -0.2749
   41MOL0     H 5363   9.104   7.453   7.443  1.1777 -1.4342  0.7677
   41MOL0     H 5364   9.092   7.298   7.365 -0.9648  0.9727 -0.1739
   41MOL0     H 5365   8.792   7.522   7.490  3.0449  1.0863 -1.9548
   41MOL0     H 5366   8.567   7.449   7.620 -1.6183 -1.9042 -1.8101
   41MOL0     H 5367   8.615   7.365   7.768  3.7797 -0.1058 -0.2669
   41MOL0     H 5368   8.520   7.170   7.704  1.4081 -0.2668  0.1184
   41MOL0     H 5369   8.536   7.200   7.522 -0.3206  0.3949 -0.9160
   41MOL0     H 5370   8.335   7.324   7.720  1.2804  2.1913 -0.1777
   41MOL0     H 5371   8.363   7.386   7.557 -1.4598 -1.7919 -2.1995
   41MOL0     H 5372   8.271   7.097   7.610  0.1734 -0.1102 -0.8848
   41MOL0     H 5373   8.292   7.194   7.460 -0.5372  2.8200 -0.7387
   41MOL0     H 5374   8.066   7.187   7.329  0.8706  0.2481  0.3714
   41MOL0     H 5375   7.874   7.059   7.272  0.4985 -3.3618  0.3423
   41MOL0     H 5376   7.449   6.924   7.750 -0.0109 -3.1402  0.7411
   41MOL0     H 5377   7.226   6.826   7.771 -1.4703 -1.4671 -0.6955
   41MOL0     H 5378   6.892   6.720   7.622 -0.6895 -0.6361  0.1368
   41MOL0     H 5379   7.013   6.835   7.683  0.5004 -0.8491  0.2909
   41MOL0     H 5380   7.061   6.709   7.859 -2.0558  0.1168  1.8986
   41MOL0     H 5381   7.050   6.553   7.786 -1.5902 -0.2861  0.5426
   41MOL0     H 5382   6.874   6.565   7.927  1.4950 -3.6874 -2.4187
   41MOL0     H 5383   6.809   6.543   7.765 -3.7566  1.1385  0.6014
   41MOL0     H 5384   6.837   6.800   7.932 -1.2345  1.2625 -1.0655
   41MOL0     H 5385   6.739   6.787   7.783  1.1628  0.8207 -0.1872
   41MOL0     H 5386   6.686   6.632   8.026  0.9394  0.9764  0.4550
   41MOL0     H 5387   6.609   6.600   7.877 -0.1996  2.6683 -2.6514
   41MOL0     H 5388   6.538   6.848   7.872  1.3312 -0.5825 -0.2421
   41MOL0     H 5389   6.578   6.858   8.042  1.9285  0.9109 -2.1329
   41MOL0     H 5390   6.377   6.657   7.927 -1.0313 -0.6525  1.1365
   41MOL0     H 5391   6.417   6.670   8.087  0.0712  0.1014 -0.9294
   41MOL0     H 5392   6.218   6.818   8.052  1.3683  0.9004  3.2504
   41MOL0     H 5393   6.286   6.889   7.902  2.4114  0.2333 -0.3447
   41MOL0     H 5394   7.259   6.686   7.358  0.2506  1.8164 -1.8565
   41MOL0     H 5395   7.483   6.796   7.338  2.9370 -0.7246  1.5106
   41MOL0     H 5396   7.751   7.080   7.686  1.1299  0.2318  1.4538
   41MOL0     H 5397   7.964   7.173   7.740 -2.2240 -3.1873  1.5212
   41MOL0     H 5398   9.655   8.031   7.084  1.4608 -2.3455  1.3530
   41MOL0     H 5399   9.828   8.188   7.098  1.0728 -3.1497  3.3433
   41MOL0     H 5400  10.366   8.316   6.734 -2.5831 -1.7570  0.6709
   41MOL0     H 5401  10.481   8.544   6.737  0.4421  0.3079  0.7357
   41MOL0     H 5402  10.410   8.925   6.963  1.0775 -1.4689  0.8649
   41MOL0     H 5403  10.286   8.872   6.840 -0.0790  1.4556 -0.4298
   41MOL0     H 5404  10.487   9.033   6.788 -0.1602 -0.2651  0.4708
   41MOL0     H 5405  10.582   8.894   6.778 -0.0261 -0.5453  0.3985
   41MOL0     H 5406  10.319   8.916   6.614  0.1280  3.0809  1.6671
   41MOL0     H 5407  10.451   8.803   6.577 -0.2167 -1.3844  0.6315
   41MOL0     H 5408  10.452   8.995   6.417 -1.3688 -0.1911  0.1646
   41MOL0     H 5409  10.458   9.103   6.550  0.6841 -0.1569  2.1090
   41MOL0     H 5410  10.869   9.021   6.538  0.2371  3.3478  0.4165
   41MOL0     H 5411  10.200   8.702   7.004  1.4444  1.3706 -0.3556
   41MOL0     H 5412  10.052   8.503   6.974  0.6807  0.0368  0.5028
   42MOL0     O 5413   0.672   6.003   8.408 -0.9128 -0.3150 -0.4522
   42MOL0     C 5414   0.710   5.997   8.528 -0.4639 -0.5457 -0.6537
   42MOL0     O 5415   0.662   5.915   8.630 -0.1746  0.4208 -0.3427
   42MOL0     C 5416   0.563   5.819   8.614 -1.1715  0.3783  0.2935
   42MOL0     C 5417   0.455   5.822   8.523  0.0646  0.0823 -0.1374
   42MOL0     C 5418   0.357   5.712   8.512  0.1700  0.3076  0.0643
   42MOL0     C 5419   0.363   5.607   8.599  1.1430 -0.9565  0.5560
   42MOL0     O 5420   0.254   5.524   8.600 -0.2268  0.3631  0.6263
   42MOL0     C 5421   0.286   5.382   8.622  0.3820  0.4371 -0.2842
   42MOL0     C 5422   0.164   5.289   8.600  0.6031 -0.6776 -0.1854
   42MOL0     C 5423   0.140   5.245   8.456 -0.5316  0.4298  0.0872
   42MOL0     C 5424   0.013   5.150   8.440  0.3586  0.4346  0.3495
   42MOL0     C 5425  -0.124   5.216   8.482  0.6914  0.0885  0.1197
   42MOL0     C 5426  -0.164   5.334   8.399  0.1715  0.4005  0.4636
   42MOL0     C 5427  -0.313   5.373   8.410 -0.5623 -0.1595 -0.0922
   42MOL0     C 5428  -0.400   5.277   8.313 -1.0233  0.0567 -0.1607
   42MOL0     N 5429  -0.541   5.290   8.337 -0.0153 -0.4565  0.3055
   42MOL0     C 5430  -0.624   5.187   8.324  0.1297  0.0051  0.3501
   42MOL0     C 5431  -0.744   5.240   8.360  0.1985 -0.2418 -0.1048
   42MOL0     C 5432  -0.873   5.172   8.372  0.2289  0.1769  0.5689
   42MOL0     C 5433  -0.952   5.188   8.236 -0.5332 -0.4449 -0.0432
   42MOL0     C 5434  -0.984   5.333   8.198 -0.0921 -0.2747 -0.1101
   42MOL0     C 5435  -1.070   5.399   8.307 -0.8685  0.6380 -0.7726
   42MOL0     O 5436  -1.170   5.314   8.351  0.3550 -0.4653 -0.4263
   42MOL0     C 5437  -1.289   5.334   8.284 -0.7261  0.6843  0.6198
   42MOL0     C 5438  -1.361   5.459   8.290  0.5747  0.0222 -0.1627
   42MOL0     C 5439  -1.481   5.478   8.223  0.5140  0.6288  0.3153
   42MOL0     C 5440  -1.531   5.369   8.151 -0.2266  0.8519 -0.1902
   42MOL0     C 5441  -1.659   5.363   8.087 -0.6885  0.2661  0.6123
   42MOL0     O 5442  -1.726   5.474   8.107 -0.3053 -0.4085 -0.1361
   42MOL0     C 5443  -1.858   5.481   8.085  0.8745 -0.6254  0.2408
   42MOL0     C 5444  -1.956   5.424   8.168 -0.8060 -0.6081  0.0210
   42MOL0     C 5445  -2.085   5.425   8.132  0.3614 -0.0191 -0.0630
   42MOL0     C 5446  -2.124   5.501   8.020 -0.7394  0.0421 -0.5929
   42MOL0     O 5447  -2.252   5.489   7.979 -0.5209 -0.6657  0.2906
   42MOL0     C 5448  -2.322   5.618   7.984  1.0598  0.1098 -0.7467
   42MOL0     C 5449  -2.469   5.583   7.974  0.3034 -0.0295  0.1615
   42MOL0     C 5450  -2.570   5.703   7.999 -0.3287  0.4208  1.0700
   42MOL0     C 5451  -2.701   5.646   8.052  0.2304  1.6444  0.1653
   42MOL0     C 5452  -2.817   5.742   8.022 -0.0472 -0.9057  0.3577
   42MOL0     C 5453  -2.833   5.787   7.875  0.0230  0.2166  0.5989
   42MOL0     C 5454  -2.835   5.671   7.768  0.7027  0.6233 -0.1756
   42MOL0     C 5455  -2.816   5.729   7.630  0.9028  0.5560  0.2847
   42MOL0    Cl 5456  -2.945   5.850   7.590 -0.0957 -0.2481 -0.1866
   42MOL0     C 5457  -2.032   5.567   7.950 -0.3184 -1.1588 -0.0285
   42MOL0     C 5458  -1.901   5.563   7.980 -0.5860 -0.8567  0.1641
   42MOL0     O 5459  -1.706   5.259   8.037 -0.1758  0.5845  0.3307
   42MOL0     C 5460  -1.460   5.242   8.153 -0.3111 -0.2730  1.2823
   42MOL0     C 5461  -1.344   5.227   8.219 -1.3471 -0.0315 -0.0712
   42MOL0     N 5462  -0.722   5.362   8.400  1.7577 -0.6780 -0.5676
   42MOL0     N 5463  -0.599   5.404   8.389 -0.4511  0.6599  0.0532
   42MOL0     C 5464   0.463   5.605   8.700  0.8261 -0.6139  0.1620
   42MOL0     C 5465   0.564   5.705   8.701 -0.2314  0.1413 -0.2193
   42MOL0     C 5466   0.837   6.057   8.567  0.1147 -0.2473  0.1410
   42MOL0     C 5467   0.949   6.031   8.486  1.1738 -0.3258 -0.3838
   42MOL0     C 5468   1.067   6.093   8.524 -0.1894  0.1138 -0.3232
   42MOL0     C 5469   1.078   6.173   8.636 -0.2346 -0.5830  0.2132
   42MOL0     O 5470   1.203   6.226   8.660  0.4279 -0.1095 -0.0957
   42MOL0     C 5471   1.227   6.302   8.779 -0.2252  0.7030 -0.6726
   42MOL0     C 5472   1.367   6.366   8.766 -0.0160  0.7314  0.0710
   42MOL0     C 5473   1.425   6.430   8.899  0.2282  0.1575 -0.6358
   42MOL0     C 5474   1.345   6.559   8.943 -0.5824  0.0970  0.6091
   42MOL0     C 5475   1.416   6.596   9.057 -0.8597  0.3644 -1.2381
   42MOL0     C 5476   1.476   6.633   9.156 -0.6968  0.9870 -0.3464
   42MOL0     C 5477   0.972   6.177   8.729  0.6258 -0.7015 -0.2968
   42MOL0     C 5478   0.849   6.129   8.690 -0.3678  0.2346  0.6526
   42MOL0     H 5479   0.442   5.901   8.450  0.7703 -0.9319 -1.3955
   42MOL0     H 5480   0.279   5.704   8.438 -0.4591 -1.6748  0.8795
   42MOL0     H 5481   0.326   5.361   8.722 -0.4811 -1.9437 -0.3684
   42MOL0     H 5482   0.360   5.348   8.549 -0.7046 -0.0505 -1.1687
   42MOL0     H 5483   0.077   5.342   8.639  2.3437  0.6056  2.1706
   42MOL0     H 5484   0.179   5.205   8.668  0.6542 -1.7462 -1.4691
   42MOL0     H 5485   0.229   5.189   8.427  0.4962 -0.1217  3.8387
   42MOL0     H 5486   0.135   5.336   8.395  0.9282  0.9257  0.6739
   42MOL0     H 5487   0.002   5.104   8.341 -1.1379 -1.7494  1.4629
   42MOL0     H 5488   0.032   5.069   8.510 -2.8441 -2.0601 -1.3994
   42MOL0     H 5489  -0.117   5.245   8.587  1.2461 -1.2880  0.4916
   42MOL0     H 5490  -0.204   5.144   8.463  1.9601 -0.5768 -3.5834
   42MOL0     H 5491  -0.146   5.313   8.293  1.3722 -0.7767  0.8752
   42MOL0     H 5492  -0.098   5.412   8.439  0.4867 -0.1529  1.0297
   42MOL0     H 5493  -0.333   5.372   8.518  4.1738  1.1101  1.0313
   42MOL0     H 5494  -0.318   5.480   8.388  0.3714 -0.3707 -1.4420
   42MOL0     H 5495  -0.372   5.172   8.325  1.9323  0.9277  1.5560
   42MOL0     H 5496  -0.373   5.300   8.209 -1.5012  0.9630 -0.0899
   42MOL0     H 5497  -0.603   5.087   8.289  1.1754  1.7743 -4.8786
   42MOL0     H 5498  -0.936   5.202   8.456 -1.9705  0.3112 -1.0349
   42MOL0     H 5499  -0.842   5.067   8.384 -0.0037  0.3857  4.1155
   42MOL0     H 5500  -1.051   5.145   8.252 -1.6315  1.5768 -1.1126
   42MOL0     H 5501  -0.897   5.140   8.155  1.1099  1.7116 -0.2936
   42MOL0     H 5502  -0.891   5.389   8.184 -0.1367  0.4097  2.0217
   42MOL0     H 5503  -1.035   5.344   8.102 -1.3854 -0.3346  0.5451
   42MOL0     H 5504  -1.109   5.492   8.263 -0.4844  1.1395 -0.0815
   42MOL0     H 5505  -1.012   5.430   8.395  0.1989  0.3128 -1.3558
   42MOL0     H 5506  -1.324   5.545   8.344  2.7010 -0.6646 -0.4362
   42MOL0     H 5507  -1.541   5.568   8.224 -0.2118  0.1804 -0.6363
   42MOL0     H 5508  -1.913   5.367   8.249 -1.4675 -3.4253 -1.4853
   42MOL0     H 5509  -2.155   5.380   8.201 -0.8902 -0.3888 -1.5237
   42MOL0     H 5510  -2.301   5.691   7.905 -0.7211  0.7488 -0.6776
   42MOL0     H 5511  -2.307   5.664   8.082 -2.7298 -0.3111  0.2155
   42MOL0     H 5512  -2.482   5.503   8.047  0.8135  1.7095  2.2785
   42MOL0     H 5513  -2.482   5.550   7.871  1.9568  0.5441 -0.2628
   42MOL0     H 5514  -2.579   5.757   7.904 -2.2568  1.3423  1.7397
   42MOL0     H 5515  -2.530   5.767   8.078  3.9559  1.1701 -1.3442
   42MOL0     H 5516  -2.720   5.547   8.010  1.8724  0.5910  1.7531
   42MOL0     H 5517  -2.696   5.634   8.160  1.6777 -0.7973 -0.0904
   42MOL0     H 5518  -2.804   5.831   8.085  1.5606 -0.9068  0.0869
   42MOL0     H 5519  -2.912   5.692   8.043  0.0560 -1.5245 -0.5745
   42MOL0     H 5520  -2.755   5.856   7.844  0.2557 -0.5627 -0.6152
   42MOL0     H 5521  -2.931   5.834   7.866  0.0740 -0.0379 -1.8858
   42MOL0     H 5522  -2.760   5.602   7.807  0.8221  2.1585  2.4921
   42MOL0     H 5523  -2.926   5.611   7.778  0.3745  1.3848  2.0118
   42MOL0     H 5524  -2.821   5.653   7.552 -0.7877  1.9030 -0.9976
   42MOL0     H 5525  -2.717   5.771   7.610  0.8690  0.1421 -0.8010
   42MOL0     H 5526  -2.079   5.645   7.891 -2.0115 -0.8218  1.6405
   42MOL0     H 5527  -1.825   5.620   7.929 -0.6315 -0.0417  0.9839
   42MOL0     H 5528  -1.496   5.145   8.122  1.2143  0.0013 -1.6290
   42MOL0     H 5529  -1.282   5.138   8.204 -1.2536  0.2131 -1.2073
   42MOL0     H 5530   0.465   5.532   8.781  1.1193  1.7529  2.4265
   42MOL0     H 5531   0.643   5.699   8.775  1.9901 -2.4667 -2.5537
   42MOL0     H 5532   0.933   5.961   8.404 -2.5768  2.3687 -2.2554
   42MOL0     H 5533   1.159   6.078   8.469  1.7683  2.2163  2.0851
   42MOL0     H 5534   1.222   6.233   8.864  1.3264 -2.3607 -2.8912
   42MOL0     H 5535   1.152   6.381   8.789 -0.5172  0.6819 -2.4456
   42MOL0     H 5536   1.433   6.284   8.737 -2.3877 -1.1071 -0.3379
   42MOL0     H 5537   1.367   6.442   8.687 -0.6048 -0.5084 -1.1474
   42MOL0     H 5538   1.532   6.454   8.894  0.2119  0.3663 -0.0755
   42MOL0     H 5539   1.413   6.356   8.978  2.9266  1.8369  1.5494
   42MOL0     H 5540   1.358   6.633   8.863  0.5657 -3.1405 -2.4711
   42MOL0     H 5541   1.240   6.529   8.955 -0.9457  0.9442 -0.2956
   42MOL0     H 5542   1.546   6.662   9.232 -2.7222  0.3617  1.8685
   42MOL0     H 5543   0.984   6.224   8.826  0.6859  0.7115 -0.9607
   42MOL0     H 5544   0.757   6.152   8.743 -0.3123  0.1131  0.8044
   43MOL0     O 5545   5.201  10.362   0.042 -0.4142  0.1570 -0.1248
   43MOL0     C 5546   5.201  10.377   0.165  0.2113 -0.4033  0.1201
   43MOL0     O 5547   5.133  10.292   0.261  0.5191  0.2302 -0.1428
   43MOL0     C 5548   5.052  10.181   0.220  0.0647 -0.6992 -0.8164
   43MOL0     C 5549   4.993  10.118   0.333  0.4621  0.4103  0.2387
   43MOL0     C 5550   4.909  10.008   0.317  0.1239  0.6386  0.0792
   43MOL0     C 5551   4.880   9.959   0.187 -0.2368  0.2916  0.1967
   43MOL0     O 5552   4.808   9.847   0.175  0.3974 -0.0721  0.1981
   43MOL0     C 5553   4.742   9.811   0.048 -0.6226  0.8551 -0.7040
   43MOL0     C 5554   4.601   9.862   0.039  0.1514  0.5060 -1.2167
   43MOL0     C 5555   4.520   9.780  -0.056 -0.9820  0.2150  0.6321
   43MOL0     C 5556   4.377   9.827  -0.053 -0.6747  0.0249  0.0597
   43MOL0     C 5557   4.272   9.736  -0.116 -0.3138  0.4283  0.1889
   43MOL0     C 5558   4.255   9.604  -0.042  0.2792 -0.4761  0.2204
   43MOL0     C 5559   4.131   9.522  -0.087  0.7130 -0.2187  0.3023
   43MOL0     C 5560   4.124   9.484  -0.240  0.7862  0.1896  0.4497
   43MOL0     N 5561   4.011   9.387  -0.273  0.5218 -0.3264 -0.2355
   43MOL0     C 5562   3.884   9.414  -0.320 -0.8588  0.2119  0.2344
   43MOL0     C 5563   3.833   9.290  -0.342  0.4030  0.1255  0.0302
   43MOL0     C 5564   3.691   9.273  -0.395  0.5675  0.2417  1.1747
   43MOL0     C 5565   3.593   9.206  -0.303  0.3187  0.0219  0.9055
   43MOL0     C 5566   3.457   9.219  -0.365 -0.1930 -0.1670  0.5415
   43MOL0     C 5567   3.368   9.107  -0.301  0.6997  0.4785  0.0680
   43MOL0     O 5568   3.269   9.073  -0.408 -0.6014  0.6314 -0.7626
   43MOL0     C 5569   3.160   9.146  -0.448  0.1480  0.2070  0.2762
   43MOL0     C 5570   3.078   9.089  -0.553 -0.1562 -1.0764 -0.4612
   43MOL0     C 5571   2.966   9.165  -0.595 -0.4012 -0.4400  0.1539
   43MOL0     C 5572   2.922   9.295  -0.530 -0.0672  1.2425  0.7262
   43MOL0     C 5573   2.795   9.366  -0.566  0.5073 -0.2974  0.0890
   43MOL0     O 5574   2.716   9.310  -0.661  0.3423  0.4101 -0.3454
   43MOL0     C 5575   2.595   9.366  -0.695  0.0225 -0.5472  0.3654
   43MOL0     C 5576   2.605   9.491  -0.769  0.2764  0.0159  0.6203
   43MOL0     C 5577   2.489   9.561  -0.814  0.0006  0.1516  1.0101
   43MOL0     C 5578   2.366   9.496  -0.793 -0.6059 -0.1706  0.3686
   43MOL0     O 5579   2.245   9.562  -0.831 -0.2041  0.1348  0.4997
   43MOL0     C 5580   2.228   9.707  -0.856  0.3418 -0.6188 -0.2502
   43MOL0     C 5581   2.087   9.757  -0.875  0.8873  0.4456  0.0051
   43MOL0     C 5582   2.020   9.677  -0.988  0.0849  0.8462  0.0967
   43MOL0     C 5583   1.887   9.735  -1.019  0.9037  0.8322  0.0515
   43MOL0     C 5584   1.820   9.639  -1.132  1.0458 -0.1238 -0.0884
   43MOL0     C 5585   1.667   9.655  -1.160 -0.8309  1.3494  0.5105
   43MOL0     C 5586   1.576   9.638  -1.035 -0.1827  0.3382 -0.1961
   43MOL0     C 5587   1.446   9.581  -1.058 -0.4545 -0.8819  0.8697
   43MOL0    Cl 5588   1.370   9.552  -0.904  0.0968 -0.1123 -0.6200
   43MOL0     C 5589   2.357   9.363  -0.748  0.9163 -0.7573  0.4905
   43MOL0     C 5590   2.473   9.298  -0.698 -0.6329  0.1091 -0.8674
   43MOL0     O 5591   2.754   9.461  -0.493 -0.0127  0.6615 -0.1098
   43MOL0     C 5592   3.004   9.337  -0.428 -0.5149  0.3965 -0.3610
   43MOL0     C 5593   3.125   9.272  -0.388  0.0399  0.5447 -0.6398
   43MOL0     N 5594   3.921   9.191  -0.312  0.8003  0.2734 -0.1196
   43MOL0     N 5595   4.027   9.254  -0.283 -0.8451 -0.4929  0.1956
   43MOL0     C 5596   4.930  10.032   0.072  0.0385  0.3766 -0.5133
   43MOL0     C 5597   5.020  10.140   0.092  0.6584 -0.1361 -0.1111
   43MOL0     C 5598   5.265  10.495   0.225 -0.4866 -0.7089  0.5842
   43MOL0     C 5599   5.281  10.502   0.367  0.0678 -0.8863  0.5224
   43MOL0     C 5600   5.341  10.616   0.415 -0.0249 -0.4812 -0.7588
   43MOL0     C 5601   5.388  10.722   0.335  0.2597  0.0293  0.1767
   43MOL0     O 5602   5.439  10.839   0.379 -0.1098  0.4064  0.0650
   43MOL0     C 5603   5.565  10.848   0.441  1.2209  0.1628  0.8134
   43MOL0     C 5604   5.671  10.857   0.325  0.3298  0.0534 -0.1540
   43MOL0     C 5605   5.795  10.925   0.383 -0.2414 -0.8271 -0.3291
   43MOL0     C 5606   5.788  11.080   0.385 -0.0384  0.1962 -0.4318
   43MOL0     C 5607   5.918  11.137   0.397  0.8308  1.0656  0.4600
   43MOL0     C 5608   6.034  11.162   0.415  0.0351 -0.7829 -0.3300
   43MOL0     C 5609   5.365  10.713   0.199  0.1972  0.1913  0.3224
   43MOL0     C 5610   5.308  10.606   0.147  0.6643  0.4501 -0.0166
   43MOL0     H 5611   5.026  10.133   0.436  0.1973 -2.6357  0.8591
   43MOL0     H 5612   4.863   9.959   0.402 -0.7151 -3.3142 -2.3996
   43MOL0     H 5613   4.731   9.702   0.049  0.7016  0.6719  1.4346
   43MOL0     H 5614   4.791   9.839  -0.046  0.2211 -2.4213 -1.3562
   43MOL0     H 5615   4.602   9.966   0.005 -0.0232  0.0267 -2.7814
   43MOL0     H 5616   4.561   9.844   0.139 -1.0142 -0.9233 -1.9099
   43MOL0     H 5617   4.540   9.675  -0.035  0.1490  0.5330  1.2515
   43MOL0     H 5618   4.547   9.811  -0.158 -1.5473  1.4544  0.8327
   43MOL0     H 5619   4.345   9.851   0.049  1.7262 -1.5366  1.2778
   43MOL0     H 5620   4.375   9.924  -0.103 -1.3514  0.4702  0.9357
   43MOL0     H 5621   4.309   9.717  -0.217 -0.7101  0.4548  0.0350
   43MOL0     H 5622   4.178   9.792  -0.120 -0.1020  1.0204  2.3506
   43MOL0     H 5623   4.227   9.631   0.061 -2.7651 -0.1307 -0.6137
   43MOL0     H 5624   4.343   9.541  -0.031  0.7486  0.0365 -0.5060
   43MOL0     H 5625   4.119   9.430  -0.030 -1.0813 -0.0118  0.3311
   43MOL0     H 5626   4.040   9.581  -0.069  0.5514 -0.3899  0.0593
   43MOL0     H 5627   4.219   9.434  -0.263 -0.5831 -2.3382 -0.1457
   43MOL0     H 5628   4.127   9.574  -0.302  0.5410  1.2570  1.9364
   43MOL0     H 5629   3.841   9.509  -0.351  0.8139  1.6211  1.9723
   43MOL0     H 5630   3.707   9.211  -0.484 -1.2313 -1.4934  1.9847
   43MOL0     H 5631   3.647   9.362  -0.441 -0.6609 -1.9268 -2.2615
   43MOL0     H 5632   3.602   9.257  -0.207  2.3065  1.3882  0.0683
   43MOL0     H 5633   3.626   9.102  -0.293  1.5346  0.5192  2.5140
   43MOL0     H 5634   3.429   9.323  -0.344 -1.7486 -0.7382  1.4627
   43MOL0     H 5635   3.462   9.207  -0.473 -0.5585 -0.3201  0.5407
   43MOL0     H 5636   3.315   9.129  -0.207  0.8905  0.6675  0.1321
   43MOL0     H 5637   3.426   9.015  -0.291  0.1634  0.2106  0.9071
   43MOL0     H 5638   3.117   8.997  -0.594  2.6806 -0.0844 -0.2285
   43MOL0     H 5639   2.896   9.113  -0.659 -0.4856 -1.8651  1.3501
   43MOL0     H 5640   2.698   9.531  -0.807  0.6906 -1.6767 -0.2462
   43MOL0     H 5641   2.502   9.654  -0.869 -1.3654  0.8598  1.8225
   43MOL0     H 5642   2.288   9.743  -0.940  1.3769  3.0097  1.8445
   43MOL0     H 5643   2.274   9.762  -0.773  1.0686 -1.2762 -0.1960
   43MOL0     H 5644   2.090   9.864  -0.894  2.4263  0.5352  0.6045
   43MOL0     H 5645   2.042   9.729  -0.779  1.2327 -1.4131 -0.3250
   43MOL0     H 5646   2.008   9.574  -0.955  0.8572  0.2514 -1.3764
   43MOL0     H 5647   2.083   9.672  -1.078  2.8703  0.6476  1.9581
   43MOL0     H 5648   1.837   9.715  -0.924 -0.8507 -0.7406 -1.1150
   43MOL0     H 5649   1.880   9.840  -1.049  2.0344  0.6190 -1.0610
   43MOL0     H 5650   1.847   9.535  -1.112  2.1660 -0.0902 -1.3441
   43MOL0     H 5651   1.869   9.651  -1.229 -0.0219  0.2965 -0.5957
   43MOL0     H 5652   1.642   9.571  -1.225  1.5545 -0.6489  2.0341
   43MOL0     H 5653   1.651   9.754  -1.204  0.4932  0.8013 -1.3395
   43MOL0     H 5654   1.614   9.567  -0.960 -0.2191 -0.3861 -0.8488
   43MOL0     H 5655   1.571   9.734  -0.984  0.7925 -0.5960  1.7659
   43MOL0     H 5656   1.458   9.484  -1.107 -0.7649 -1.0951  1.2147
   43MOL0     H 5657   1.390   9.656  -1.117  1.8559 -0.2623 -0.6638
   43MOL0     H 5658   2.257   9.320  -0.747  0.9845 -0.9148  0.5845
   43MOL0     H 5659   2.476   9.193  -0.667  0.8141  0.9149  2.1179
   43MOL0     H 5660   2.980   9.431  -0.378 -1.8791 -0.0126 -0.2271
   43MOL0     H 5661   3.182   9.306  -0.302 -1.5947 -3.3574  2.3135
   43MOL0     H 5662   4.901  10.019  -0.032 -2.1593 -2.4286  0.3240
   43MOL0     H 5663   5.060  10.185   0.002  2.4703 -2.4742 -0.5949
   43MOL0     H 5664   5.234  10.429   0.432 -3.7902  1.7421  1.0367
   43MOL0     H 5665   5.339  10.633   0.523 -0.3297  1.5539 -1.0456
   43MOL0     H 5666   5.594  10.768   0.509  0.5573  1.3960  2.6099
   43MOL0     H 5667   5.564  10.942   0.497 -3.1330  0.8453 -0.0687
   43MOL0     H 5668   5.690  10.761   0.277 -0.6079 -1.0619  1.6305
   43MOL0     H 5669   5.630  10.920   0.245 -0.2197  1.0615  0.8792
   43MOL0     H 5670   5.874  10.916   0.308  0.9546  0.9197  0.6451
   43MOL0     H 5671   5.821  10.887   0.482  1.1515 -0.6415 -0.6024
   43MOL0     H 5672   5.749  11.113   0.289 -3.4216  0.2484  0.8266
   43MOL0     H 5673   5.729  11.110   0.473 -3.5022 -2.3780 -1.6580
   43MOL0     H 5674   6.139  11.183   0.420 -0.3524  1.2047  0.8558
   43MOL0     H 5675   5.385  10.790   0.126  1.1548 -1.1546 -0.9034
   43MOL0     H 5676   5.278  10.617   0.043 -0.3121 -2.6938 -0.1767
   44MOL0     O 5677   5.284   3.685   4.125 -0.3749  0.2493 -1.0671
   44MOL0     C 5678   5.337   3.589   4.188 -0.0898  0.3762 -0.3814
   44MOL0     O 5679   5.261   3.488   4.256  0.3176 -0.0581  0.6034
   44MOL0     C 5680   5.127   3.482   4.247  0.5050 -1.0341  0.6515
   44MOL0     C 5681   5.071   3.441   4.131  0.5264  0.6942 -0.4670
   44MOL0     C 5682   4.931   3.427   4.116 -0.4203 -0.0101  0.5696
   44MOL0     C 5683   4.850   3.463   4.228  0.5363  0.3845  0.5229
   44MOL0     O 5684   4.717   3.429   4.220 -0.1863  0.4396  0.3170
   44MOL0     C 5685   4.632   3.474   4.324  0.8117  0.6612  0.5231
   44MOL0     C 5686   4.498   3.478   4.259 -0.4834  0.6461  1.4542
   44MOL0     C 5687   4.369   3.459   4.347 -1.6604  0.1540 -0.1800
   44MOL0     C 5688   4.249   3.510   4.276  0.3702  0.6558 -0.5778
   44MOL0     C 5689   4.125   3.511   4.366 -0.2836 -0.8422  0.3819
   44MOL0     C 5690   4.004   3.576   4.295  0.3589  0.8329  0.1516
   44MOL0     C 5691   3.962   3.500   4.165 -0.6968 -0.3254 -0.7519
   44MOL0     C 5692   3.832   3.528   4.098  1.2271 -0.1880  0.5984
   44MOL0     N 5693   3.804   3.465   3.969  0.7463 -0.2708  0.0096
   44MOL0     C 5694   3.755   3.339   3.942 -0.2953  0.0434 -0.5359
   44MOL0     C 5695   3.759   3.322   3.804 -0.4349  0.2063 -0.5399
   44MOL0     C 5696   3.727   3.199   3.727 -0.2610  0.1598  0.6048
   44MOL0     C 5697   3.606   3.119   3.788  1.1958  1.1015 -0.1482
   44MOL0     C 5698   3.471   3.201   3.796 -0.0654  0.3570 -0.9451
   44MOL0     C 5699   3.352   3.109   3.828 -1.2780 -0.5704 -0.2268
   44MOL0     O 5700   3.226   3.171   3.796 -0.5460  0.1315 -0.2310
   44MOL0     C 5701   3.112   3.092   3.806  0.7362  0.8031 -0.9424
   44MOL0     C 5702   3.094   2.999   3.909 -0.4541 -0.9000 -0.2073
   44MOL0     C 5703   2.966   2.954   3.933 -0.2357 -0.2653  0.8351
   44MOL0     C 5704   2.849   2.991   3.857  0.3357 -0.2627  0.4332
   44MOL0     C 5705   2.707   2.948   3.894  0.6832  0.3143  0.5463
   44MOL0     O 5706   2.698   2.891   4.020 -0.0093  0.4916  0.5137
   44MOL0     C 5707   2.577   2.882   4.088  0.6945 -1.2458 -0.0962
   44MOL0     C 5708   2.554   2.971   4.193 -0.3845 -0.5067 -0.2828
   44MOL0     C 5709   2.432   2.967   4.258 -0.7180 -0.5713  0.6988
   44MOL0     C 5710   2.322   2.883   4.225 -0.1178  0.3477 -0.3456
   44MOL0     O 5711   2.194   2.886   4.288  0.1462  0.3360 -0.1133
   44MOL0     C 5712   2.191   2.947   4.414 -0.1968 -0.1157  0.6212
   44MOL0     C 5713   2.051   2.929   4.479  0.5606 -0.8246  0.1410
   44MOL0     C 5714   2.019   3.042   4.584  0.1176  0.4882 -0.5028
   44MOL0     C 5715   1.882   3.017   4.650  0.5384  0.3358  0.3752
   44MOL0     C 5716   1.853   3.120   4.765  0.2184  0.5711  0.2989
   44MOL0     C 5717   1.704   3.125   4.794 -0.1534 -0.9699  0.2905
   44MOL0     C 5718   1.625   3.218   4.704  0.0720  0.5711 -0.0646
   44MOL0     C 5719   1.523   3.295   4.790  0.1781 -0.0154  0.0522
   44MOL0    Cl 5720   1.616   3.430   4.877 -0.4882 -0.1204  0.1798
   44MOL0     C 5721   2.353   2.797   4.111  0.3333 -0.2715  0.5662
   44MOL0     C 5722   2.473   2.801   4.046 -0.3553 -0.1065 -0.1399
   44MOL0     O 5723   2.617   2.967   3.818  0.1771 -0.1098 -0.1075
   44MOL0     C 5724   2.879   3.067   3.744 -0.4236  0.3453  0.0587
   44MOL0     C 5725   3.002   3.125   3.724  1.2029  0.0583  0.3324
   44MOL0     N 5726   3.827   3.438   3.760 -0.7675  0.5197  0.5208
   44MOL0     N 5727   3.849   3.518   3.858  0.6095 -0.0576  0.5759
   44MOL0     C 5728   4.909   3.508   4.345 -0.3603  0.0538 -0.3430
   44MOL0     C 5729   5.046   3.516   4.353 -0.0263 -0.0026  0.1560
   44MOL0     C 5730   5.485   3.583   4.199 -0.3990 -0.5828  0.1095
   44MOL0     C 5731   5.550   3.471   4.244  0.1268  0.1216 -0.2508
   44MOL0     C 5732   5.687   3.457   4.240  0.2232  0.2616  0.6504
   44MOL0     C 5733   5.770   3.555   4.184 -0.3465 -0.0674 -0.4636
   44MOL0     O 5734   5.908   3.551   4.179  0.7054 -0.8446 -0.0589
   44MOL0     C 5735   5.983   3.447   4.235  0.1866  0.1870  0.0636
   44MOL0     C 5736   6.131   3.479   4.224 -0.1448  0.4063  0.5961
   44MOL0     C 5737   6.174   3.628   4.267 -0.0431 -0.6301  0.0434
   44MOL0     C 5738   6.329   3.650   4.256  0.4511 -0.4201  0.4572
   44MOL0     C 5739   6.405   3.569   4.350  0.0313 -0.3058 -0.5375
   44MOL0     C 5740   6.476   3.514   4.428 -0.5300 -0.1138  0.4738
   44MOL0     C 5741   5.706   3.676   4.149  0.1524  0.1596 -0.1552
   44MOL0     C 5742   5.569   3.692   4.166 -0.0903  0.2185 -0.2181
   44MOL0     H 5743   5.141   3.408   4.055  1.8002 -1.3980  1.4911
   44MOL0     H 5744   4.889   3.389   4.023  1.4914  1.5916 -1.0378
   44MOL0     H 5745   4.656   3.573   4.365  0.3246  0.8645  0.3287
   44MOL0     H 5746   4.614   3.393   4.395  1.7833  0.1490  0.2029
   44MOL0     H 5747   4.507   3.401   4.183  0.2270  1.2026  0.9588
   44MOL0     H 5748   4.490   3.572   4.204 -0.8961  0.2803  0.8773
   44MOL0     H 5749   4.384   3.521   4.436  1.7007 -2.4759  1.2987
   44MOL0     H 5750   4.356   3.354   4.373 -2.8735 -0.0935 -1.6314
   44MOL0     H 5751   4.269   3.605   4.225  3.0094 -0.7205 -2.3325
   44MOL0     H 5752   4.237   3.443   4.191  2.3923  0.2928 -0.6195
   44MOL0     H 5753   4.145   3.579   4.449  1.8892  1.3616 -1.7914
   44MOL0     H 5754   4.111   3.407   4.396 -0.2836 -0.9982 -0.1374
   44MOL0     H 5755   4.031   3.674   4.254 -1.2522  1.2006 -0.0952
   44MOL0     H 5756   3.916   3.587   4.361  2.3055  2.3413  2.7117
   44MOL0     H 5757   4.038   3.522   4.089 -0.6195 -0.9674 -0.8716
   44MOL0     H 5758   3.960   3.391   4.173  1.0752 -0.3054  0.5510
   44MOL0     H 5759   3.835   3.634   4.071 -0.8423 -0.2021  0.1305
   44MOL0     H 5760   3.758   3.496   4.171  1.6926 -2.0925  0.3069
   44MOL0     H 5761   3.714   3.267   4.013  1.5929  0.4057  1.0146
   44MOL0     H 5762   3.810   3.128   3.728 -1.1064 -0.8834 -0.7335
   44MOL0     H 5763   3.698   3.224   3.625 -0.2974  2.0522  1.0255
   44MOL0     H 5764   3.624   3.089   3.891  0.1045 -0.1128 -0.2787
   44MOL0     H 5765   3.597   3.027   3.729 -0.8163  1.0474  0.1752
   44MOL0     H 5766   3.465   3.280   3.872 -2.0849 -0.3541 -0.2977
   44MOL0     H 5767   3.457   3.245   3.697  2.1315 -0.2701 -1.5966
   44MOL0     H 5768   3.369   3.083   3.933  3.0242 -4.4285 -1.5363
   44MOL0     H 5769   3.356   3.009   3.783  0.6675 -0.7009  0.1224
   44MOL0     H 5770   3.181   2.967   3.965  0.2100  1.1611  0.0275
   44MOL0     H 5771   2.961   2.878   4.010  0.2588 -1.3068 -0.1286
   44MOL0     H 5772   2.636   3.034   4.224 -1.4494 -0.2231  2.2507
   44MOL0     H 5773   2.424   3.037   4.341  2.0098  1.6193 -0.7394
   44MOL0     H 5774   2.203   3.053   4.389 -2.4611 -0.0637 -0.4270
   44MOL0     H 5775   2.265   2.920   4.490 -0.6131  0.5348  1.2735
   44MOL0     H 5776   2.040   2.826   4.514 -0.8006 -0.4483  0.8911
   44MOL0     H 5777   1.959   2.943   4.421 -0.2005  1.1784  1.6917
   44MOL0     H 5778   2.013   3.140   4.535 -1.0037  0.4264 -0.5213
   44MOL0     H 5779   2.094   3.046   4.663 -0.6108  0.6712  0.2035
   44MOL0     H 5780   1.804   3.028   4.575  1.0968  1.0297 -0.1160
   44MOL0     H 5781   1.880   2.914   4.686 -1.7106  0.1507 -0.1453
   44MOL0     H 5782   1.893   3.221   4.751  1.0856  0.2817  0.6131
   44MOL0     H 5783   1.900   3.095   4.860 -1.2621 -1.2199  0.6170
   44MOL0     H 5784   1.703   3.166   4.895 -0.0257 -0.8342  0.2371
   44MOL0     H 5785   1.665   3.023   4.794  1.2583 -1.5600  2.0987
   44MOL0     H 5786   1.687   3.281   4.639 -1.3074  0.7946 -1.2083
   44MOL0     H 5787   1.566   3.158   4.635 -0.0874  1.2765 -0.5510
   44MOL0     H 5788   1.472   3.230   4.862 -0.1895 -1.6168 -1.5726
   44MOL0     H 5789   1.436   3.322   4.729 -0.1274  0.1250  0.5509
   44MOL0     H 5790   2.284   2.725   4.069 -1.2555  2.0674 -1.0490
   44MOL0     H 5791   2.486   2.736   3.959  2.3828  0.6843 -0.4199
   44MOL0     H 5792   2.798   3.100   3.680  1.2119  0.7769 -1.8838
   44MOL0     H 5793   3.022   3.189   3.639  1.5834 -0.7481 -0.2062
   44MOL0     H 5794   4.862   3.526   4.441  1.3338 -2.6610  1.1035
   44MOL0     H 5795   5.086   3.554   4.446 -0.8283 -1.3710  1.0848
   44MOL0     H 5796   5.485   3.395   4.286  1.0178 -1.2044 -1.2001
   44MOL0     H 5797   5.734   3.376   4.296  1.3664 -0.9025 -1.8280
   44MOL0     H 5798   5.949   3.357   4.184  0.5444 -0.6034  1.1866
   44MOL0     H 5799   5.961   3.440   4.342 -1.0038  1.5245 -0.0596
   44MOL0     H 5800   6.183   3.405   4.286 -2.1868  0.0649  1.9844
   44MOL0     H 5801   6.149   3.478   4.116 -2.9731  1.0740  0.0358
   44MOL0     H 5802   6.136   3.654   4.366 -0.5096  2.8478 -0.9220
   44MOL0     H 5803   6.119   3.699   4.205 -1.5970 -1.0769  0.8539
   44MOL0     H 5804   6.343   3.624   4.151  3.1474 -1.2884  0.9358
   44MOL0     H 5805   6.350   3.756   4.272 -2.4050 -0.0368  2.3438
   44MOL0     H 5806   6.541   3.450   4.483  0.3815  0.6723  0.3423
   44MOL0     H 5807   5.766   3.757   4.109  3.2034 -1.6794  0.3760
   44MOL0     H 5808   5.524   3.784   4.130 -0.0178 -0.5895 -2.5011
   45MOL0     O 5809   4.504   0.501   7.514 -0.9234 -0.3165  0.1528
   45MOL0     C 5810   4.506   0.580   7.423 -0.2727 -0.7085 -0.2275
   45MOL0     O 5811   4.414   0.589   7.325 -0.5859  0.5686  0.2256
   45MOL0     C 5812   4.301   0.505   7.334 -0.1819 -0.2393  0.0072
   45MOL0     C 5813   4.288   0.399   7.252  0.0606 -0.5276 -0.3448
   45MOL0     C 5814   4.171   0.318   7.243 -0.6762  0.1364  0.1767
   45MOL0     C 5815   4.063   0.354   7.315  1.2648 -0.2321 -0.2957
   45MOL0     O 5816   3.940   0.291   7.318 -0.6413  0.6276 -0.4169
   45MOL0     C 5817   3.891   0.239   7.195  0.9710  0.1664  0.2374
   45MOL0     C 5818   3.837   0.365   7.124  0.8473 -0.3542 -0.6814
   45MOL0     C 5819   3.736   0.326   7.015  0.2846 -1.1522 -1.0229
   45MOL0     C 5820   3.596   0.291   7.064  0.4186 -0.3925 -0.5438
   45MOL0     C 5821   3.503   0.278   6.934 -0.5916 -0.0937 -0.0730
   45MOL0     C 5822   3.356   0.313   6.959  0.3421 -0.3961 -0.3605
   45MOL0     C 5823   3.288   0.228   7.068  0.1358  0.0594  0.6017
   45MOL0     C 5824   3.296   0.077   7.044 -0.0946  0.3582 -1.0070
   45MOL0     N 5825   3.251   0.052   6.907 -0.0707  1.0794 -0.4820
   45MOL0     C 5826   3.135   0.095   6.844  0.1430  0.6148 -0.8503
   45MOL0     C 5827   3.149   0.088   6.708 -0.7908  0.3043 -0.1433
   45MOL0     C 5828   3.036   0.113   6.606 -1.2785  0.4097  1.3552
   45MOL0     C 5829   2.926  -0.005   6.600 -0.1876  0.5522 -0.0656
   45MOL0     C 5830   2.820   0.026   6.495 -0.1105 -0.3874  0.3014
   45MOL0     C 5831   2.717  -0.092   6.471  0.2706 -0.5373 -0.3594
   45MOL0     O 5832   2.684  -0.169   6.586 -0.2437  0.5804  0.2420
   45MOL0     C 5833   2.587  -0.265   6.579  0.2119  0.2542  0.3274
   45MOL0     C 5834   2.483  -0.268   6.488 -0.4217 -0.3173  0.8064
   45MOL0     C 5835   2.370  -0.349   6.505  0.1198 -0.6821 -0.8584
   45MOL0     C 5836   2.349  -0.433   6.607 -0.8382  0.3189 -0.2064
   45MOL0     C 5837   2.229  -0.522   6.609  0.2327  0.0977 -0.0307
   45MOL0     O 5838   2.154  -0.543   6.496  0.2608  0.4611 -0.9875
   45MOL0     C 5839   2.030  -0.608   6.521 -0.6491  0.2879 -0.4007
   45MOL0     C 5840   1.910  -0.541   6.535  0.0957  0.0146 -0.2790
   45MOL0     C 5841   1.797  -0.613   6.549 -0.3309  0.7993  0.0139
   45MOL0     C 5842   1.796  -0.755   6.551  1.1917 -0.8091  0.5343
   45MOL0     O 5843   1.690  -0.835   6.558 -0.5679  0.6797  0.4221
   45MOL0     C 5844   1.569  -0.798   6.483  0.0648  0.5640  0.0837
   45MOL0     C 5845   1.475  -0.924   6.468  0.5858  0.3009 -0.2675
   45MOL0     C 5846   1.347  -0.892   6.382 -0.5181  0.0352  0.0321
   45MOL0     C 5847   1.230  -0.824   6.454  0.1506  0.1350  0.0237
   45MOL0     C 5848   1.116  -0.823   6.361  0.7914  0.1112  0.3304
   45MOL0     C 5849   0.990  -0.750   6.422  0.7788  0.7663 -0.6926
   45MOL0     C 5850   0.898  -0.694   6.300 -0.6150  0.5878 -1.1281
   45MOL0     C 5851   0.839  -0.804   6.218 -0.3854  0.6706  0.6369
   45MOL0    Cl 5852   0.711  -0.892   6.306  0.4328  0.2135 -0.0713
   45MOL0     C 5853   1.917  -0.822   6.559  0.3443 -0.7247 -0.1376
   45MOL0     C 5854   2.038  -0.750   6.541  0.2124  0.1529  0.0665
   45MOL0     O 5855   2.198  -0.555   6.725 -0.1988 -0.2172 -0.6346
   45MOL0     C 5856   2.448  -0.432   6.709  0.1226 -0.1441 -0.0663
   45MOL0     C 5857   2.565  -0.347   6.693  0.1313  0.2370 -0.1703
   45MOL0     N 5858   3.281   0.038   6.689  0.5516  0.0518  0.5482
   45MOL0     N 5859   3.324   0.010   6.807 -0.6200  0.4344 -0.2650
   45MOL0     C 5860   4.073   0.477   7.392  0.3761  0.7531  0.1031
   45MOL0     C 5861   4.190   0.555   7.404  0.0862  0.6936 -0.0143
   45MOL0     C 5862   4.613   0.680   7.414  0.6409  0.0205  0.4763
   45MOL0     C 5863   4.704   0.705   7.516  0.1885  0.0552  1.4985
   45MOL0     C 5864   4.816   0.786   7.502 -0.2999 -1.0890 -0.1694
   45MOL0     C 5865   4.834   0.860   7.378  0.1703 -0.4044 -0.7469
   45MOL0     O 5866   4.935   0.950   7.385 -0.0639  0.2044 -0.5047
   45MOL0     C 5867   4.955   1.026   7.261  0.9950 -1.0876 -0.1340
   45MOL0     C 5868   5.061   1.127   7.282 -0.5094 -0.2339  0.1173
   45MOL0     C 5869   5.095   1.189   7.150  0.2014  0.3425  0.9101
   45MOL0     C 5870   5.173   1.314   7.167 -0.2801 -0.3261 -0.2336
   45MOL0     C 5871   5.308   1.282   7.210 -0.9883 -0.0648 -0.9163
   45MOL0     C 5872   5.415   1.254   7.261 -0.6961 -0.4633  1.0522
   45MOL0     C 5873   4.737   0.843   7.279  0.4835  0.5792 -1.3254
   45MOL0     C 5874   4.630   0.755   7.296  0.2594 -0.6427  0.0935
   45MOL0     H 5875   4.363   0.376   7.177  1.0089 -3.1475  1.2469
   45MOL0     H 5876   4.158   0.231   7.179 -0.5194  1.5011 -1.7949
   45MOL0     H 5877   3.808   0.173   7.222  0.2028  1.5004  1.2737
   45MOL0     H 5878   3.955   0.179   7.130 -0.7061  0.6313 -1.9681
   45MOL0     H 5879   3.925   0.417   7.086 -1.0788  2.0301 -2.1464
   45MOL0     H 5880   3.790   0.428   7.200  0.6134 -0.6583 -0.5673
   45MOL0     H 5881   3.779   0.246   6.954  0.4368 -1.9173  0.0657
   45MOL0     H 5882   3.726   0.409   6.944 -1.7754 -2.5179 -2.4348
   45MOL0     H 5883   3.598   0.212   7.139 -0.4371 -0.6680 -0.7941
   45MOL0     H 5884   3.562   0.386   7.109  0.6766  0.2303 -1.6248
   45MOL0     H 5885   3.505   0.171   6.910 -0.2182 -0.0903 -0.0547
   45MOL0     H 5886   3.549   0.337   6.854  0.4358  1.4833  1.5878
   45MOL0     H 5887   3.308   0.306   6.861 -0.5785 -1.1801  0.1340
   45MOL0     H 5888   3.349   0.418   6.990 -0.2320 -0.4246 -0.3750
   45MOL0     H 5889   3.329   0.248   7.167 -2.0372  0.5076  1.4816
   45MOL0     H 5890   3.185   0.265   7.073 -0.6300 -1.8500  0.1638
   45MOL0     H 5891   3.219   0.028   7.105  1.0219 -2.4609 -1.7164
   45MOL0     H 5892   3.397   0.039   7.063  0.7632  2.8741 -0.1216
   45MOL0     H 5893   3.055   0.119   6.914  2.4408  1.2310  1.7439
   45MOL0     H 5894   3.076   0.123   6.505 -0.2271 -2.4268  1.4078
   45MOL0     H 5895   2.979   0.201   6.637 -3.8610 -0.4762 -0.4992
   45MOL0     H 5896   2.880  -0.019   6.699  2.3696  1.3979  1.3450
   45MOL0     H 5897   2.964  -0.105   6.578 -0.4562  0.7631 -1.6129
   45MOL0     H 5898   2.772   0.120   6.526 -0.8456 -0.6110 -0.1245
   45MOL0     H 5899   2.874   0.059   6.405  1.3168  2.3503  2.0223
   45MOL0     H 5900   2.759  -0.157   6.393 -2.7634 -0.7074 -1.9880
   45MOL0     H 5901   2.632  -0.041   6.425  0.9676  0.3213 -0.7257
   45MOL0     H 5902   2.474  -0.209   6.397 -2.5517  0.8305  1.6914
   45MOL0     H 5903   2.299  -0.342   6.423  1.1598 -1.7008 -1.8873
   45MOL0     H 5904   1.902  -0.433   6.542 -1.6509 -0.1893  2.1363
   45MOL0     H 5905   1.701  -0.563   6.559 -1.6702 -1.7367  0.6798
   45MOL0     H 5906   1.579  -0.739   6.391  0.0568  0.6543  0.1410
   45MOL0     H 5907   1.515  -0.734   6.553  2.0709 -0.2588  2.5304
   45MOL0     H 5908   1.459  -0.971   6.566  0.0010 -0.0090 -0.5104
   45MOL0     H 5909   1.532  -0.992   6.403  1.9488  0.7832  0.3871
   45MOL0     H 5910   1.314  -0.989   6.345  1.1783 -0.8680  0.7928
   45MOL0     H 5911   1.382  -0.831   6.298  3.0374 -2.2811 -0.3759
   45MOL0     H 5912   1.212  -0.869   6.552  0.6755  0.5662  0.3240
   45MOL0     H 5913   1.262  -0.721   6.476  1.7886  0.1490 -2.0378
   45MOL0     H 5914   1.090  -0.924   6.329  1.1249 -0.7076  2.4769
   45MOL0     H 5915   1.145  -0.768   6.271 -0.2355  0.3790  0.1487
   45MOL0     H 5916   1.023  -0.661   6.477 -1.5087  2.3339 -1.6778
   45MOL0     H 5917   0.939  -0.817   6.491  1.0282 -0.0447 -1.2783
   45MOL0     H 5918   0.814  -0.638   6.343 -0.8352 -0.1849 -0.5220
   45MOL0     H 5919   0.956  -0.626   6.237 -1.2648  4.4046  1.9938
   45MOL0     H 5920   0.908  -0.878   6.175 -0.7857  1.3860 -1.3312
   45MOL0     H 5921   0.804  -0.750   6.130  3.2979  0.5338 -1.0945
   45MOL0     H 5922   1.916  -0.928   6.584 -1.7405 -0.7042  0.0116
   45MOL0     H 5923   2.139  -0.790   6.536  0.6380  1.2508 -0.2480
   45MOL0     H 5924   2.439  -0.494   6.798  3.2529 -0.2829  0.2659
   45MOL0     H 5925   2.648  -0.334   6.763  0.4089  3.3433 -0.9245
   45MOL0     H 5926   3.984   0.513   7.442  0.8946  2.2145  0.0070
   45MOL0     H 5927   4.193   0.631   7.482  0.7368 -1.1635  1.8698
   45MOL0     H 5928   4.708   0.644   7.605  3.6614 -1.6785  0.3257
   45MOL0     H 5929   4.877   0.809   7.588 -1.6413 -2.7263  1.3176
   45MOL0     H 5930   4.861   1.076   7.237  0.5532 -1.9813 -0.2996
   45MOL0     H 5931   4.973   0.956   7.179  3.1175 -1.1683  0.3456
   45MOL0     H 5932   5.034   1.199   7.359  0.8582 -0.6364  1.0232
   45MOL0     H 5933   5.153   1.085   7.324  0.1710 -0.1358 -1.2321
   45MOL0     H 5934   5.006   1.201   7.087  1.1681  0.8897 -0.3970
   45MOL0     H 5935   5.160   1.121   7.095 -2.4136 -2.4306  1.0202
   45MOL0     H 5936   5.177   1.370   7.073  2.0880  1.4836  0.8373
   45MOL0     H 5937   5.124   1.379   7.240 -0.4562 -1.8039  1.0022
   45MOL0     H 5938   5.511   1.223   7.297 -0.1881  0.8270  0.8694
   45MOL0     H 5939   4.749   0.898   7.186  1.6168  2.0763 -0.3310
   45MOL0     H 5940   4.554   0.761   7.219  0.5896 -1.1910 -0.2851
   46MOL0     O 5941  10.662   8.329   9.187 -0.3352  0.2842 -0.7552
   46MOL0     C 5942  10.648   8.400   9.284  0.6654  0.6058  0.2899
   46MOL0     O 5943  10.755   8.459   9.343  0.3306  0.1122 -0.2092
   46MOL0     C 5944  10.885   8.434   9.298  0.5550  0.0305 -0.5599
   46MOL0     C 5945  10.943   8.314   9.313 -0.5745  0.1976  0.2619
   46MOL0     C 5946  11.081   8.293   9.272  0.4547  0.2367  0.0876
   46MOL0     C 5947  11.150   8.405   9.230 -0.3598  0.2764 -0.5568
   46MOL0     O 5948  11.286   8.398   9.210 -0.1081 -0.3631  0.5829
   46MOL0     C 5949  11.350   8.491   9.127  0.3905 -0.1971  0.6099
   46MOL0     C 5950  11.495   8.438   9.110  0.2420  0.4979 -0.0794
   46MOL0     C 5951  11.569   8.521   9.000 -1.1062  0.4066 -0.4134
   46MOL0     C 5952  11.716   8.480   8.997 -0.3434  0.6671 -0.3719
   46MOL0     C 5953  11.792   8.569   8.899 -0.4996  0.7823  0.5873
   46MOL0     C 5954  11.743   8.556   8.755  0.2397  0.4267  0.5693
   46MOL0     C 5955  11.841   8.641   8.668  0.5817  0.3852  0.7060
   46MOL0     C 5956  11.797   8.632   8.521 -0.0279  0.4691  0.6135
   46MOL0     N 5957  11.710   8.745   8.472  0.3779  0.0971 -0.0348
   46MOL0     C 5958  11.576   8.748   8.500  0.2034 -0.0036  0.2631
   46MOL0     C 5959  11.524   8.852   8.431 -0.8893  0.3807  0.7838
   46MOL0     C 5960  11.382   8.890   8.423  0.3371 -0.3057 -0.8655
   46MOL0     C 5961  11.286   8.777   8.360 -0.5451 -0.9861 -0.0776
   46MOL0     C 5962  11.143   8.817   8.389  0.3421 -0.2946 -0.3486
   46MOL0     C 5963  11.037   8.713   8.338 -0.1202  0.2954 -0.1777
   46MOL0     O 5964  10.908   8.747   8.397 -0.3412 -0.2207  0.3342
   46MOL0     C 5965  10.786   8.696   8.363 -0.0923 -0.0983 -0.4229
   46MOL0     C 5966  10.766   8.573   8.305 -0.0412  0.2970  0.6043
   46MOL0     C 5967  10.636   8.533   8.258  0.5404  0.1951 -0.9319
   46MOL0     C 5968  10.525   8.615   8.276  0.1717  0.1591 -0.8060
   46MOL0     C 5969  10.383   8.579   8.222 -1.2555 -0.2949  0.6036
   46MOL0     O 5970  10.282   8.672   8.213 -1.1395  0.8150 -0.0782
   46MOL0     C 5971  10.153   8.622   8.209 -0.5889  0.1175  0.4141
   46MOL0     C 5972  10.102   8.550   8.316  0.5360 -0.4993 -0.1131
   46MOL0     C 5973   9.970   8.508   8.321 -0.4684 -0.6280  0.2025
   46MOL0     C 5974   9.889   8.526   8.213 -0.5445 -0.9323  0.7644
   46MOL0     O 5975   9.770   8.469   8.217 -0.4614 -0.6083 -0.7247
   46MOL0     C 5976   9.662   8.548   8.177 -0.2102 -0.2457  0.3506
   46MOL0     C 5977   9.549   8.496   8.259 -0.0315  0.2841 -0.9534
   46MOL0     C 5978   9.506   8.348   8.219  0.5054  0.3236 -0.6688
   46MOL0     C 5979   9.387   8.293   8.301 -0.7470 -0.2330 -0.6577
   46MOL0     C 5980   9.428   8.243   8.441  0.5127  0.0828 -0.7825
   46MOL0     C 5981   9.298   8.253   8.535 -0.3593  0.0083  0.5254
   46MOL0     C 5982   9.163   8.211   8.473  0.6222  0.9814 -0.0313
   46MOL0     C 5983   9.165   8.063   8.440 -0.2760  0.0668 -0.5525
   46MOL0    Cl 5984   8.996   8.006   8.387 -0.2758  0.0371  0.0485
   46MOL0     C 5985   9.947   8.582   8.102  0.2735 -0.8764  0.9389
   46MOL0     C 5986  10.071   8.638   8.099 -0.3057  0.3195  0.7388
   46MOL0     O 5987  10.373   8.462   8.180 -0.3589 -0.3129 -0.1760
   46MOL0     C 5988  10.546   8.743   8.331 -0.2374  0.8159 -0.3444
   46MOL0     C 5989  10.674   8.778   8.372  0.3678 -0.0233 -1.1477
   46MOL0     N 5990  11.627   8.920   8.360 -0.2965 -0.0693 -0.1616
   46MOL0     N 5991  11.735   8.847   8.385  0.8362 -0.3949 -0.7339
   46MOL0     C 5992  11.086   8.531   9.215  0.3995 -0.8742  0.2563
   46MOL0     C 5993  10.960   8.537   9.252 -0.0372 -0.8729 -0.1064
   46MOL0     C 5994  10.516   8.428   9.344  0.3201  1.1451  1.6386
   46MOL0     C 5995  10.499   8.486   9.471 -0.1520  0.6666 -0.7325
   46MOL0     C 5996  10.376   8.501   9.529  0.9157  0.1298  0.8399
   46MOL0     C 5997  10.256   8.469   9.455  0.0844  0.2377 -1.4871
   46MOL0     O 5998  10.132   8.488   9.519  0.8769  0.3449  0.5665
   46MOL0     C 5999  10.125   8.557   9.638  0.5376 -0.1625 -0.7687
   46MOL0     C 6000   9.984   8.571   9.699  0.4882  0.1651  0.4126
   46MOL0     C 6001   9.907   8.689   9.642  0.7806  0.2907 -0.6316
   46MOL0     C 6002   9.765   8.709   9.688 -0.4140  0.9425 -0.2355
   46MOL0     C 6003   9.712   8.835   9.629  0.1188  0.0755 -0.2649
   46MOL0     C 6004   9.666   8.939   9.584 -0.1402  0.4717  0.2076
   46MOL0     C 6005  10.272   8.424   9.320  1.1053 -0.7578 -0.3559
   46MOL0     C 6006  10.394   8.401   9.271 -0.2966 -0.0366  0.6223
   46MOL0     H 6007  10.873   8.239   9.345 -1.1262  0.7166  0.2857
   46MOL0     H 6008  11.119   8.191   9.269 -3.2947 -1.3153 -0.3528
   46MOL0     H 6009  11.358   8.592   9.167  0.3500  0.8245 -1.7800
   46MOL0     H 6010  11.295   8.500   9.032 -0.5668 -0.7280  1.0981
   46MOL0     H 6011  11.497   8.337   9.068  3.7401  1.4032 -2.4824
   46MOL0     H 6012  11.551   8.422   9.202 -0.7672 -0.0535  0.4621
   46MOL0     H 6013  11.567   8.626   9.031 -1.9362  0.5665 -0.9741
   46MOL0     H 6014  11.514   8.503   8.907  0.2627 -1.4570 -0.9176
   46MOL0     H 6015  11.760   8.485   9.096 -0.7641  1.4352 -0.2180
   46MOL0     H 6016  11.733   8.375   8.971  1.0929  0.5265  0.9999
   46MOL0     H 6017  11.896   8.536   8.895 -0.5078  0.8470 -2.9531
   46MOL0     H 6018  11.785   8.669   8.943 -1.5376  1.2181 -0.5078
   46MOL0     H 6019  11.640   8.588   8.739  0.6897  0.9644 -1.5778
   46MOL0     H 6020  11.752   8.450   8.731 -0.9055  0.3259  0.5552
   46MOL0     H 6021  11.849   8.742   8.709  2.3445  0.2754  0.7049
   46MOL0     H 6022  11.936   8.589   8.665  0.5390  0.3606 -1.3873
   46MOL0     H 6023  11.748   8.537   8.499  1.9759 -0.9700  2.0855
   46MOL0     H 6024  11.887   8.621   8.460  1.3179 -2.4113  2.9075
   46MOL0     H 6025  11.516   8.670   8.545 -0.7947 -1.3941 -3.2269
   46MOL0     H 6026  11.368   8.989   8.378 -0.8654  0.2351  0.6024
   46MOL0     H 6027  11.353   8.907   8.527  1.4593 -0.6131 -0.4817
   46MOL0     H 6028  11.304   8.677   8.402  2.8867 -0.4291  0.0377
   46MOL0     H 6029  11.311   8.767   8.254 -0.7881  0.7718 -0.3271
   46MOL0     H 6030  11.138   8.818   8.498 -0.6117  0.2236 -0.3910
   46MOL0     H 6031  11.112   8.915   8.351 -1.5104 -0.8740 -0.4333
   46MOL0     H 6032  11.068   8.611   8.361  0.5583  0.8001  1.2877
   46MOL0     H 6033  11.015   8.722   8.231 -1.1051  1.5054  0.1003
   46MOL0     H 6034  10.845   8.498   8.302 -0.1205  0.2472 -0.6042
   46MOL0     H 6035  10.621   8.434   8.218  1.2010  0.2374 -1.3013
   46MOL0     H 6036  10.172   8.540   8.399 -0.3052 -1.5367  0.4996
   46MOL0     H 6037   9.938   8.444   8.403 -1.0655 -1.6476 -0.7941
   46MOL0     H 6038   9.644   8.536   8.070  2.2910 -0.4283 -0.1125
   46MOL0     H 6039   9.674   8.656   8.191  1.8756 -0.6843  2.5952
   46MOL0     H 6040   9.466   8.564   8.237  1.7632  2.0382 -2.6606
   46MOL0     H 6041   9.579   8.492   8.364 -0.2401 -3.8571 -0.8794
   46MOL0     H 6042   9.590   8.278   8.226  1.6243  1.6946  0.0665
   46MOL0     H 6043   9.475   8.356   8.115 -0.9721 -0.8157 -0.3484
   46MOL0     H 6044   9.316   8.373   8.324  2.4175  2.1945  1.4946
   46MOL0     H 6045   9.345   8.217   8.234 -0.2452 -0.0934 -1.1327
   46MOL0     H 6046   9.515   8.299   8.478  0.1290  1.0517 -1.3073
   46MOL0     H 6047   9.458   8.138   8.446 -1.5591 -0.6331 -2.2141
   46MOL0     H 6048   9.283   8.359   8.560  1.0536 -0.2513  2.7107
   46MOL0     H 6049   9.319   8.205   8.630 -3.2092 -1.7482  0.3721
   46MOL0     H 6050   9.074   8.229   8.534 -0.9788 -0.7624 -1.7183
   46MOL0     H 6051   9.146   8.272   8.384 -1.3327  1.3857  0.5744
   46MOL0     H 6052   9.195   8.005   8.528 -0.0481  0.9812 -0.0060
   46MOL0     H 6053   9.240   8.032   8.367  0.0841 -3.6008  1.1414
   46MOL0     H 6054   9.880   8.567   8.018 -0.2262 -0.0365  1.1769
   46MOL0     H 6055  10.106   8.680   8.005 -2.6286 -1.1132 -0.8973
   46MOL0     H 6056  10.471   8.818   8.352 -0.7991  0.3139 -0.5400
   46MOL0     H 6057  10.687   8.878   8.413  0.4607 -0.2405 -0.6382
   46MOL0     H 6058  11.145   8.617   9.187 -0.8679 -0.1448 -0.2395
   46MOL0     H 6059  10.902   8.629   9.257  0.2527 -0.7496  1.4470
   46MOL0     H 6060  10.586   8.507   9.533 -1.8596  1.1882  1.6407
   46MOL0     H 6061  10.372   8.557   9.622 -1.5117  3.6273 -1.1026
   46MOL0     H 6062  10.170   8.656   9.620 -2.6233  1.7520  0.9136
   46MOL0     H 6063  10.192   8.516   9.714 -0.4467  3.0449  2.0982
   46MOL0     H 6064   9.929   8.477   9.684 -1.1447  1.4474 -2.5729
   46MOL0     H 6065  10.001   8.587   9.806  4.9725  3.4343 -0.4902
   46MOL0     H 6066   9.897   8.672   9.534  0.3422 -0.4859 -0.4741
   46MOL0     H 6067   9.967   8.777   9.668 -0.1291  1.1032 -1.1951
   46MOL0     H 6068   9.707   8.620   9.663  1.6013  0.3538 -3.3648
   46MOL0     H 6069   9.771   8.723   9.796  2.3147  0.7754 -0.2885
   46MOL0     H 6070   9.631   9.030   9.540  0.4422  0.8557  0.5246
   46MOL0     H 6071  10.189   8.396   9.255  0.4197 -1.8023  0.9040
   46MOL0     H 6072  10.408   8.366   9.170  0.4548 -2.0790  1.3934
   47MOL0     O 6073   9.101  10.820   6.190  0.2079 -0.0764 -0.3787
   47MOL0     C 6074   9.163  10.859   6.090  0.8407  0.5502  0.3381
   47MOL0     O 6075   9.108  10.903   5.972  1.5216 -0.3111 -0.1427
   47MOL0     C 6076   8.967  10.900   5.944 -1.1317  0.1261 -0.1858
   47MOL0     C 6077   8.941  10.975   5.824  1.2341 -0.2500 -0.7715
   47MOL0     C 6078   8.809  10.962   5.780  0.8707  0.0717 -0.1683
   47MOL0     C 6079   8.708  10.879   5.845 -1.3663 -0.4446  0.0866
   47MOL0     O 6080   8.578  10.865   5.803  0.3799 -0.2126  0.2234
   47MOL0     C 6081   8.534  10.903   5.668 -0.6169 -1.1377  0.6868
   47MOL0     C 6082   8.390  10.858   5.627 -0.7450  0.4744  0.3285
   47MOL0     C 6083   8.292  10.938   5.716  0.7393 -0.8206 -0.2599
   47MOL0     C 6084   8.254  11.076   5.665 -1.1151 -0.0968  0.9818
   47MOL0     C 6085   8.194  11.172   5.767  0.4633 -0.1641  0.8186
   47MOL0     C 6086   8.145  11.299   5.703  0.0515 -0.0697 -0.7892
   47MOL0     C 6087   8.083  11.388   5.812 -0.4428 -0.8843 -0.2420
   47MOL0     C 6088   7.943  11.351   5.865 -0.2120  0.0580 -0.0341
   47MOL0     N 6089   7.843  11.350   5.756  0.1355 -0.2415  0.6884
   47MOL0     C 6090   7.770  11.460   5.706 -0.0331 -1.1128  0.3667
   47MOL0     C 6091   7.688  11.402   5.612  0.4529 -0.1714  0.6923
   47MOL0     C 6092   7.578  11.476   5.531  0.7023  0.0341 -0.6497
   47MOL0     C 6093   7.625  11.527   5.393  0.5298  0.6096 -0.5060
   47MOL0     C 6094   7.648  11.413   5.296 -0.3848  0.3204 -0.6277
   47MOL0     C 6095   7.702  11.454   5.155 -0.2419  0.7859 -0.4236
   47MOL0     O 6096   7.826  11.521   5.166  0.0438  0.0860 -0.9862
   47MOL0     C 6097   7.937  11.466   5.219 -0.0248 -0.0226  0.0148
   47MOL0     C 6098   8.046  11.552   5.224  0.2528 -0.4934  0.0622
   47MOL0     C 6099   8.167  11.518   5.286 -0.3873 -0.9921  0.0024
   47MOL0     C 6100   8.190  11.390   5.330 -0.4418  0.1348  0.8794
   47MOL0     C 6101   8.317  11.337   5.383 -1.2012  0.5449 -0.1225
   47MOL0     O 6102   8.412  11.434   5.406  0.0277  0.4533 -0.8310
   47MOL0     C 6103   8.534  11.388   5.448  0.1992 -0.7149  0.9328
   47MOL0     C 6104   8.550  11.335   5.575 -0.1464 -0.2025  0.2593
   47MOL0     C 6105   8.677  11.310   5.641  0.7047  0.1863 -0.7936
   47MOL0     C 6106   8.789  11.355   5.576  0.7619 -0.0214 -0.4319
   47MOL0     O 6107   8.908  11.321   5.640  0.3268  0.9472 -0.4364
   47MOL0     C 6108   8.960  11.421   5.717  0.1135  0.0528 -0.0432
   47MOL0     C 6109   9.050  11.356   5.822 -0.1267  0.3558 -0.6673
   47MOL0     C 6110   9.095  11.443   5.937 -0.7783  0.8373 -1.0016
   47MOL0     C 6111   9.195  11.353   6.008  1.4037 -1.0020 -0.5856
   47MOL0     C 6112   9.336  11.369   5.948 -0.8728  0.5032 -0.7134
   47MOL0     C 6113   9.419  11.252   6.008 -0.2012 -0.4887  0.3045
   47MOL0     C 6114   9.577  11.268   5.991  0.1173  0.0469  0.0387
   47MOL0     C 6115   9.674  11.201   6.092 -0.0546 -0.2806 -0.2114
   47MOL0    Cl 6116   9.829  11.278   6.061 -0.4113 -0.0011  0.2003
   47MOL0     C 6117   8.780  11.402   5.441 -0.5911 -0.7961 -0.5273
   47MOL0     C 6118   8.653  11.424   5.380 -0.6975 -0.1023 -0.0925
   47MOL0     O 6119   8.328  11.213   5.408 -0.0622  0.6961  0.0938
   47MOL0     C 6120   8.086  11.296   5.313  0.1602 -0.6115 -1.0976
   47MOL0     C 6121   7.965  11.335   5.256  0.2803  0.4104  0.0398
   47MOL0     N 6122   7.723  11.273   5.578 -0.8719 -0.6068 -0.2204
   47MOL0     N 6123   7.810  11.243   5.674 -0.0880  0.1405 -0.3027
   47MOL0     C 6124   8.746  10.810   5.964 -0.1749 -0.4115  0.8794
   47MOL0     C 6125   8.874  10.826   6.009 -0.0344  0.1240  0.2055
   47MOL0     C 6126   9.313  10.847   6.086  0.5442 -0.1856  0.3133
   47MOL0     C 6127   9.383  10.803   6.195 -1.2061  0.2464 -0.5160
   47MOL0     C 6128   9.522  10.805   6.202  1.0531  0.3125  0.5968
   47MOL0     C 6129   9.595  10.849   6.096 -0.3704 -0.5786  0.1561
   47MOL0     O 6130   9.733  10.859   6.089  0.0910 -0.0837  0.3106
   47MOL0     C 6131   9.794  10.868   6.215  0.2906 -0.0233  0.5898
   47MOL0     C 6132   9.939  10.907   6.208 -0.0969  0.5263  0.4444
   47MOL0     C 6133  10.005  10.907   6.354 -0.2745 -0.7044  0.3962
   47MOL0     C 6134  10.153  10.917   6.368 -1.3217 -0.7212  0.7862
   47MOL0     C 6135  10.212  10.828   6.466 -0.6049  0.0281 -0.6384
   47MOL0     C 6136  10.266  10.745   6.541  0.2912  0.3785 -0.5942
   47MOL0     C 6137   9.535  10.869   5.970  0.3989 -0.2870 -0.2175
   47MOL0     C 6138   9.395  10.877   5.968 -0.3304 -0.7650 -0.4462
   47MOL0     H 6139   9.023  11.029   5.778  3.1555 -1.5027  0.9715
   47MOL0     H 6140   8.788  11.003   5.682  1.1582 -1.5810 -0.9703
   47MOL0     H 6141   8.611  10.873   5.596  0.3601 -1.5860  1.8816
   47MOL0     H 6142   8.528  11.012   5.668  0.2067 -1.0732 -0.7120
   47MOL0     H 6143   8.376  10.750   5.637 -2.5311  0.7387  1.2242
   47MOL0     H 6144   8.373  10.882   5.522  0.5848  0.4047  0.0871
   47MOL0     H 6145   8.317  10.948   5.822 -3.4199  1.2870  0.7521
   47MOL0     H 6146   8.203  10.876   5.725  0.6924 -1.2701 -2.8546
   47MOL0     H 6147   8.352  11.111   5.634  0.5641 -5.1575 -0.4188
   47MOL0     H 6148   8.179  11.066   5.586 -0.5251  2.8604 -0.0905
   47MOL0     H 6149   8.252  11.177   5.860  1.0339 -2.3607  0.6520
   47MOL0     H 6150   8.109  11.124   5.817 -0.6976  2.1845  1.2321
   47MOL0     H 6151   8.065  11.284   5.629 -1.0652  3.4215 -0.4811
   47MOL0     H 6152   8.233  11.348   5.661  0.0115  1.7005  1.0597
   47MOL0     H 6153   8.144  11.395   5.903 -1.4063  1.4905  0.2915
   47MOL0     H 6154   8.090  11.490   5.773  2.9882 -2.1666 -3.6158
   47MOL0     H 6155   7.915  11.424   5.941 -0.9625 -1.0083  0.7451
   47MOL0     H 6156   7.947  11.253   5.914 -0.0486 -1.4371 -2.8350
   47MOL0     H 6157   7.765  11.560   5.748 -0.8328 -0.0488 -2.0668
   47MOL0     H 6158   7.553  11.556   5.602  1.3374  0.2984 -0.7194
   47MOL0     H 6159   7.488  11.414   5.518  1.5730 -1.3656 -0.2204
   47MOL0     H 6160   7.718  11.582   5.408  1.3897 -1.0566  0.5880
   47MOL0     H 6161   7.546  11.591   5.351 -3.5523 -1.4385  3.2659
   47MOL0     H 6162   7.722  11.339   5.331 -1.7047 -1.1637 -0.8617
   47MOL0     H 6163   7.552  11.362   5.282 -1.0947  0.7608  2.1713
   47MOL0     H 6164   7.626  11.520   5.110 -0.6414  1.3083  0.9604
   47MOL0     H 6165   7.711  11.366   5.091  2.6926  0.9961 -0.4181
   47MOL0     H 6166   8.036  11.650   5.178 -1.9681 -0.9061 -0.4545
   47MOL0     H 6167   8.251  11.587   5.296 -0.8815  0.0697 -2.4162
   47MOL0     H 6168   8.464  11.315   5.637  0.2332 -1.5034  0.3998
   47MOL0     H 6169   8.675  11.249   5.731 -0.7421 -2.6487 -2.6083
   47MOL0     H 6170   8.882  11.479   5.768  2.8829  2.8088  1.4392
   47MOL0     H 6171   9.020  11.493   5.660  0.2917 -0.4485 -0.4902
   47MOL0     H 6172   9.137  11.310   5.774 -2.0794 -2.6274 -1.6493
   47MOL0     H 6173   8.990  11.277   5.867  1.8943 -0.4691  0.7232
   47MOL0     H 6174   9.016  11.477   6.005  2.3475  1.6049  2.6088
   47MOL0     H 6175   9.157  11.526   5.903  0.7256  0.3800  0.5275
   47MOL0     H 6176   9.201  11.370   6.116  0.6613  0.2069 -0.7196
   47MOL0     H 6177   9.160  11.249   6.019  1.2200 -0.7504  1.7679
   47MOL0     H 6178   9.368  11.469   5.979 -1.3599  0.4786 -0.1132
   47MOL0     H 6179   9.332  11.376   5.839  0.2734  3.3208 -0.6595
   47MOL0     H 6180   9.386  11.157   5.965  2.1794 -0.3305 -2.1210
   47MOL0     H 6181   9.400  11.245   6.115 -0.5929 -0.6498  0.2272
   47MOL0     H 6182   9.609  11.228   5.894 -1.4442 -1.7161  0.1911
   47MOL0     H 6183   9.607  11.373   5.997  2.2403 -0.5879  1.7159
   47MOL0     H 6184   9.685  11.093   6.090  2.0160 -0.1311  0.1435
   47MOL0     H 6185   9.645  11.224   6.195  0.9580 -0.1992  0.0726
   47MOL0     H 6186   8.875  11.414   5.389  1.1063 -5.0088  1.1367
   47MOL0     H 6187   8.649  11.480   5.287  0.2885 -0.1134 -0.1488
   47MOL0     H 6188   8.091  11.188   5.326 -1.6204 -0.6320 -0.3880
   47MOL0     H 6189   7.901  11.249   5.238  1.9072 -0.2206 -3.6448
   47MOL0     H 6190   8.669  10.756   6.019 -2.0367  0.1537 -1.0656
   47MOL0     H 6191   8.892  10.776   6.104 -0.9087 -2.1600 -0.7647
   47MOL0     H 6192   9.334  10.788   6.291  1.2386 -0.7442  0.6957
   47MOL0     H 6193   9.563  10.774   6.298  1.1929  1.9173  1.0822
   47MOL0     H 6194   9.799  10.769   6.260  2.2084 -0.2178  0.0390
   47MOL0     H 6195   9.754  10.957   6.266  0.0263  1.3590 -1.8538
   47MOL0     H 6196   9.992  10.834   6.147 -2.5119 -3.2150  2.4412
   47MOL0     H 6197   9.952  11.006   6.164  0.2390  0.9010  1.3572
   47MOL0     H 6198   9.976  10.815   6.407  1.2488 -2.1236 -1.0965
   47MOL0     H 6199   9.955  10.986   6.411  1.2149 -1.0391  2.2359
   47MOL0     H 6200  10.199  10.894   6.272  0.5691  1.1966  1.1506
   47MOL0     H 6201  10.167  11.022   6.395  1.2150  0.0518 -2.7831
   47MOL0     H 6202  10.316  10.669   6.597 -1.9160  1.0690  2.6295
   47MOL0     H 6203   9.584  10.897   5.877 -2.2566  1.2294 -1.2630
   47MOL0     H 6204   9.349  10.916   5.878 -3.4947 -0.2993  1.2131
   48MOL0     O 6205  10.214   5.649   3.667  0.2470 -0.3789  0.2125
   48MOL0     C 6206  10.192   5.742   3.588 -0.0832 -0.2954 -0.3990
   48MOL0     O 6207  10.277   5.846   3.560 -0.3376  0.7219  0.1150
   48MOL0     C 6208  10.410   5.822   3.573 -0.3960 -0.3526  0.2768
   48MOL0     C 6209  10.490   5.796   3.461 -0.6907 -0.6625  0.4913
   48MOL0     C 6210  10.622   5.770   3.478  0.7504  0.8961  0.1070
   48MOL0     C 6211  10.679   5.764   3.614  0.1235 -0.1196 -0.2936
   48MOL0     O 6212  10.814   5.746   3.636  0.8212  0.0828 -0.4016
   48MOL0     C 6213  10.882   5.668   3.537 -1.0092 -0.0295 -0.4919
   48MOL0     C 6214  11.021   5.637   3.598 -0.0032  1.0659  0.0351
   48MOL0     C 6215  11.011   5.528   3.703  0.7009  0.3825 -0.6314
   48MOL0     C 6216  11.146   5.491   3.756  0.4884 -0.3598 -0.1412
   48MOL0     C 6217  11.129   5.379   3.853  0.3965  0.9093  0.6954
   48MOL0     C 6218  11.113   5.411   3.997  0.4482 -0.0725 -0.3049
   48MOL0     C 6219  11.232   5.486   4.048  0.3568 -0.6466 -0.0521
   48MOL0     C 6220  11.216   5.516   4.195  0.3415 -0.0960 -0.1876
   48MOL0     N 6221  11.266   5.651   4.226 -0.4954 -0.3103 -0.9463
   48MOL0     C 6222  11.192   5.765   4.209 -0.2290  0.6683 -0.6824
   48MOL0     C 6223  11.260   5.859   4.270 -0.2624  0.2041 -0.2216
   48MOL0     C 6224  11.225   6.006   4.281 -0.2587 -0.2524  0.1852
   48MOL0     C 6225  11.299   6.091   4.171 -0.4281  0.6039  0.5808
   48MOL0     C 6226  11.256   6.238   4.177 -0.5884 -1.0009 -0.2476
   48MOL0     C 6227  11.357   6.317   4.090  0.6737 -0.1927  0.5633
   48MOL0     O 6228  11.409   6.418   4.171  0.3300 -0.0818  0.6362
   48MOL0     C 6229  11.367   6.544   4.150 -1.1433 -0.4339 -0.3287
   48MOL0     C 6230  11.462   6.641   4.170 -0.4321  0.1242  0.5760
   48MOL0     C 6231  11.431   6.776   4.140 -0.0376 -0.2776  0.3634
   48MOL0     C 6232  11.295   6.815   4.130 -0.3393 -0.3902 -0.4542
   48MOL0     C 6233  11.259   6.956   4.114 -0.4272 -0.4594  0.5630
   48MOL0     O 6234  11.134   6.990   4.093  0.1342  0.2976 -0.5289
   48MOL0     C 6235  11.101   7.120   4.083  1.1213 -0.7626 -1.0203
   48MOL0     C 6236  11.062   7.195   4.198  0.7387  0.0648 -0.8578
   48MOL0     C 6237  11.026   7.325   4.191 -0.6283 -0.5994 -0.3196
   48MOL0     C 6238  11.043   7.390   4.065 -0.2311 -0.6861 -0.1386
   48MOL0     O 6239  11.009   7.524   4.051  0.8130 -0.2330  0.6331
   48MOL0     C 6240  11.027   7.599   3.926 -0.7833  0.5114 -0.2613
   48MOL0     C 6241  10.911   7.586   3.823 -0.5847 -0.4270  0.0844
   48MOL0     C 6242  10.775   7.637   3.871 -0.5519  0.7433  0.2438
   48MOL0     C 6243  10.660   7.632   3.767  0.0688 -0.1163 -0.3972
   48MOL0     C 6244  10.612   7.490   3.732 -0.1695  0.2690  0.1117
   48MOL0     C 6245  10.539   7.415   3.848 -0.5430 -0.0100  0.2257
   48MOL0     C 6246  10.613   7.279   3.883  0.3978 -0.4452 -0.2995
   48MOL0     C 6247  10.719   7.296   3.990  0.6913  0.6387  0.0791
   48MOL0    Cl 6248  10.770   7.137   4.051  0.4377  0.0798 -0.0455
   48MOL0     C 6249  11.091   7.316   3.954  0.2971 -0.2787 -0.6044
   48MOL0     C 6250  11.121   7.181   3.963  0.0040 -0.3637 -0.2840
   48MOL0     O 6251  11.353   7.034   4.106  0.1002  0.3915  0.6202
   48MOL0     C 6252  11.198   6.718   4.109 -0.4542  0.0538 -0.7903
   48MOL0     C 6253  11.237   6.587   4.118  0.5382 -0.7673 -0.8242
   48MOL0     N 6254  11.365   5.808   4.339 -0.3289  0.2188 -0.2749
   48MOL0     N 6255  11.371   5.682   4.317  0.4655 -0.2809  0.1886
   48MOL0     C 6256  10.597   5.802   3.723 -0.1891 -0.2881  1.1031
   48MOL0     C 6257  10.464   5.825   3.701  0.1535  0.2238  0.2386
   48MOL0     C 6258  10.059   5.761   3.532  0.5969 -0.0589 -0.0235
   48MOL0     C 6259  10.028   5.872   3.443 -0.2694  0.1624  0.2802
   48MOL0     C 6260   9.898   5.890   3.412  0.7490  0.2340 -0.4359
   48MOL0     C 6261   9.795   5.820   3.475 -0.1584 -0.5335  0.0651
   48MOL0     O 6262   9.660   5.848   3.469 -0.2051 -0.0829 -0.0376
   48MOL0     C 6263   9.619   5.983   3.494 -0.1027  0.4525 -0.4562
   48MOL0     C 6264   9.567   6.050   3.366 -0.4164  0.1783  0.3394
   48MOL0     C 6265   9.465   5.955   3.295 -0.8215  0.0775 -0.5831
   48MOL0     C 6266   9.335   5.912   3.361 -0.0725  0.6404 -0.0813
   48MOL0     C 6267   9.262   6.026   3.408 -0.6488  0.0265  0.2170
   48MOL0     C 6268   9.190   6.114   3.453 -0.1356  1.0300  0.8285
   48MOL0     C 6269   9.829   5.706   3.547  0.5777 -0.2886 -0.0420
   48MOL0     C 6270   9.955   5.669   3.568 -0.1892 -0.5726 -0.0330
   48MOL0     H 6271  10.438   5.798   3.366  0.7195 -2.7210 -0.3812
   48MOL0     H 6272  10.684   5.765   3.389 -3.4296 -2.1448 -3.0366
   48MOL0     H 6273  10.898   5.721   3.442  1.7024 -1.6299 -1.0639
   48MOL0     H 6274  10.841   5.569   3.515 -1.3512  0.4645 -2.2567
   48MOL0     H 6275  11.054   5.722   3.657  0.3787  0.6253  0.4563
   48MOL0     H 6276  11.089   5.603   3.519 -2.5866 -1.0523 -1.4759
   48MOL0     H 6277  10.963   5.447   3.646 -1.6289  2.3552 -1.6640
   48MOL0     H 6278  10.941   5.555   3.783  0.2954 -0.2100 -0.7790
   48MOL0     H 6279  11.216   5.452   3.682 -0.7107 -1.8901 -0.5396
   48MOL0     H 6280  11.194   5.583   3.791  2.3023  0.2974 -3.8619
   48MOL0     H 6281  11.224   5.324   3.853 -0.8404 -1.3738 -0.4528
   48MOL0     H 6282  11.045   5.313   3.831  0.6748  0.7452  0.0949
   48MOL0     H 6283  11.101   5.317   4.052  0.0375 -1.1940 -2.2271
   48MOL0     H 6284  11.019   5.465   4.014 -0.2540 -0.9683 -1.2244
   48MOL0     H 6285  11.322   5.429   4.025  1.3080  1.1689 -1.0842
   48MOL0     H 6286  11.252   5.585   4.005 -0.4594 -0.6124 -0.3771
   48MOL0     H 6287  11.275   5.454   4.264  2.1175  0.8867 -0.7573
   48MOL0     H 6288  11.109   5.508   4.216  0.1050 -1.9139 -1.7594
   48MOL0     H 6289  11.094   5.781   4.166 -0.9117  1.7432  1.1773
   48MOL0     H 6290  11.259   6.042   4.379 -0.8820  1.4154 -0.1779
   48MOL0     H 6291  11.119   6.030   4.265  0.2275  0.0511 -3.2836
   48MOL0     H 6292  11.301   6.054   4.068  0.5431  2.3125 -0.0594
   48MOL0     H 6293  11.406   6.089   4.196  0.5641 -0.2282 -3.1056
   48MOL0     H 6294  11.154   6.258   4.141 -0.6689  3.1550  1.7513
   48MOL0     H 6295  11.270   6.282   4.276  0.2149  2.6889 -1.8475
   48MOL0     H 6296  11.311   6.361   4.001  0.1717  0.5534  1.1736
   48MOL0     H 6297  11.433   6.246   4.057  2.2885  2.1197 -1.0112
   48MOL0     H 6298  11.562   6.602   4.187 -0.5475 -1.6262 -2.1553
   48MOL0     H 6299  11.513   6.846   4.143  0.1153 -0.3285 -1.5719
   48MOL0     H 6300  11.040   7.154   4.296  1.4156 -0.8578 -1.0810
   48MOL0     H 6301  10.994   7.382   4.278 -1.5379 -1.4298 -0.0948
   48MOL0     H 6302  11.114   7.560   3.872 -0.9619 -1.0478  0.5386
   48MOL0     H 6303  11.056   7.701   3.955  3.5588 -0.4083 -0.5757
   48MOL0     H 6304  10.916   7.482   3.788  0.9311 -0.0262 -0.9937
   48MOL0     H 6305  10.933   7.650   3.737 -0.0099 -0.6701  0.0441
   48MOL0     H 6306  10.790   7.743   3.894  1.0832  0.5684  0.1208
   48MOL0     H 6307  10.755   7.587   3.967 -1.8839 -0.6025 -0.6962
   48MOL0     H 6308  10.580   7.690   3.814  0.3430 -1.6011  2.1119
   48MOL0     H 6309  10.707   7.679   3.680 -0.8695 -0.0655 -0.8904
   48MOL0     H 6310  10.694   7.431   3.689  0.7739 -0.3280  2.5223
   48MOL0     H 6311  10.549   7.507   3.645  3.9849  4.7197 -2.5680
   48MOL0     H 6312  10.434   7.401   3.820 -1.9610  2.3606  3.7290
   48MOL0     H 6313  10.522   7.475   3.937 -1.0799 -0.3445  0.3554
   48MOL0     H 6314  10.537   7.212   3.923  1.8582 -0.9100  1.8154
   48MOL0     H 6315  10.659   7.236   3.793 -0.0938  0.5386 -1.0482
   48MOL0     H 6316  10.682   7.343   4.082  1.3237 -0.8575  1.1517
   48MOL0     H 6317  10.807   7.345   3.948 -0.5999  3.3455  0.3385
   48MOL0     H 6318  11.098   7.372   3.861  1.6613  0.3102 -0.1779
   48MOL0     H 6319  11.157   7.125   3.877  0.6073 -1.6719  0.7956
   48MOL0     H 6320  11.094   6.744   4.091 -0.3705  0.8903 -0.1148
   48MOL0     H 6321  11.147   6.528   4.100 -2.7899  2.9205  1.7453
   48MOL0     H 6322  10.635   5.800   3.825  0.8306  0.6452  0.7540
   48MOL0     H 6323  10.400   5.856   3.783  0.3569  1.1347  0.0655
   48MOL0     H 6324  10.108   5.935   3.405 -0.8974  1.3745  0.8867
   48MOL0     H 6325   9.887   5.976   3.346  4.2186  0.3097 -1.0969
   48MOL0     H 6326   9.697   6.043   3.543 -0.5106  0.0399  0.7405
   48MOL0     H 6327   9.530   5.964   3.555 -0.6385 -0.8999 -1.5964
   48MOL0     H 6328   9.530   6.152   3.383 -0.4498  0.4843 -1.3863
   48MOL0     H 6329   9.657   6.075   3.309 -0.8132  2.1216  0.4698
   48MOL0     H 6330   9.512   5.862   3.262  0.7044  0.5008  0.2937
   48MOL0     H 6331   9.444   6.004   3.199  1.3501  0.8724 -0.7167
   48MOL0     H 6332   9.277   5.866   3.281  0.3000 -0.5593  0.3262
   48MOL0     H 6333   9.329   5.851   3.451 -0.3934  2.5424  1.2359
   48MOL0     H 6334   9.142   6.197   3.500  2.6137  2.6643  0.9312
   48MOL0     H 6335   9.761   5.635   3.591 -0.7814  0.0106 -1.5845
   48MOL0     H 6336   9.977   5.582   3.629  1.5855  0.6734  1.2224
   49MOL0     O 6337   7.114   6.670   3.089  0.6240  0.0007  0.0047
   49MOL0     C 6338   7.159   6.666   2.976  0.1255 -0.6526 -0.3118
   49MOL0     O 6339   7.090   6.683   2.855  0.2022 -0.5060  0.6786
   49MOL0     C 6340   6.952   6.699   2.850  0.6115  0.7830 -0.7222
   49MOL0     C 6341   6.866   6.610   2.925 -0.9409  0.1201  0.0455
   49MOL0     C 6342   6.729   6.611   2.906  0.2727 -0.0065  0.2426
   49MOL0     C 6343   6.677   6.720   2.829 -0.0688  0.6235  0.4026
   49MOL0     O 6344   6.539   6.718   2.809 -0.3738 -0.0129 -0.7363
   49MOL0     C 6345   6.487   6.843   2.752  0.3659 -0.1964 -0.0993
   49MOL0     C 6346   6.339   6.849   2.726 -0.5835  0.2537 -0.9006
   49MOL0     C 6347   6.248   6.852   2.855 -0.0182  0.4695  0.5546
   49MOL0     C 6348   6.101   6.835   2.802 -1.0657  0.1086 -0.3200
   49MOL0     C 6349   5.998   6.861   2.911 -0.1441 -0.9285 -0.4444
   49MOL0     C 6350   5.850   6.829   2.873 -0.2758 -0.4846  0.3457
   49MOL0     C 6351   5.759   6.834   2.997 -0.6236 -0.1831 -0.2890
   49MOL0     C 6352   5.624   6.778   2.965  0.3453  0.5424  0.4797
   49MOL0     N 6353   5.504   6.855   2.984  0.0303 -0.2483 -0.4119
   49MOL0     C 6354   5.469   6.934   3.096 -1.5850 -0.0694 -0.3706
   49MOL0     C 6355   5.339   6.965   3.075 -0.2292 -0.5896  0.2361
   49MOL0     C 6356   5.239   7.046   3.159 -0.7310  0.2622 -0.0875
   49MOL0     C 6357   5.160   6.963   3.261  0.1137  0.2428 -0.5522
   49MOL0     C 6358   5.073   7.049   3.353 -0.7323 -0.2545 -0.3461
   49MOL0     C 6359   4.941   7.101   3.289 -0.3305  0.0078  0.6450
   49MOL0     O 6360   4.874   7.184   3.379  0.4107  0.0405  0.2265
   49MOL0     C 6361   4.738   7.201   3.377 -0.9180 -0.3714  0.4071
   49MOL0     C 6362   4.645   7.151   3.293  1.0702  0.4397 -0.1439
   49MOL0     C 6363   4.503   7.172   3.299 -0.3506  0.6214 -0.0900
   49MOL0     C 6364   4.456   7.260   3.399  0.7705 -0.2735 -0.4040
   49MOL0     C 6365   4.315   7.297   3.395 -0.1487 -0.6044  0.7709
   49MOL0     O 6366   4.266   7.378   3.495 -1.0448 -0.1053  0.4937
   49MOL0     C 6367   4.134   7.422   3.499 -0.1262 -0.7036  0.0954
   49MOL0     C 6368   4.083   7.432   3.622 -0.3127 -0.8630  0.6339
   49MOL0     C 6369   3.955   7.470   3.646  0.3594 -0.5905  0.5628
   49MOL0     C 6370   3.866   7.496   3.541  0.0790  1.0962 -0.0203
   49MOL0     O 6371   3.740   7.556   3.563 -0.5710  0.7839  0.2784
   49MOL0     C 6372   3.617   7.485   3.574 -0.1632 -0.0779 -0.2286
   49MOL0     C 6373   3.618   7.350   3.502  0.1419  0.3697  0.1697
   49MOL0     C 6374   3.478   7.324   3.451 -0.3634  0.9804 -0.7159
   49MOL0     C 6375   3.463   7.178   3.392 -0.9358  0.1115  0.5663
   49MOL0     C 6376   3.323   7.128   3.342 -0.4732 -0.4093 -0.1953
   49MOL0     C 6377   3.255   7.239   3.257  0.1268 -0.0204 -0.4877
   49MOL0     C 6378   3.126   7.187   3.188  0.7358  0.9644  0.4419
   49MOL0     C 6379   3.010   7.163   3.284 -0.0842 -0.2354  0.3710
   49MOL0    Cl 6380   2.911   7.013   3.251  0.0710 -0.0185 -0.2054
   49MOL0     C 6381   3.925   7.488   3.410  0.1371 -0.8225  0.2390
   49MOL0     C 6382   4.058   7.460   3.389  0.4523  0.0264  0.2736
   49MOL0     O 6383   4.251   7.257   3.299  0.3528  0.1593  0.0743
   49MOL0     C 6384   4.557   7.319   3.484  0.4526 -0.0194  0.5554
   49MOL0     C 6385   4.695   7.288   3.477  0.3628 -0.1566 -0.2466
   49MOL0     N 6386   5.308   6.922   2.943  1.0302 -0.1549 -0.0508
   49MOL0     N 6387   5.411   6.885   2.890  0.4770  1.0507 -0.3379
   49MOL0     C 6388   6.765   6.813   2.769  0.1514 -0.1415 -0.2156
   49MOL0     C 6389   6.902   6.798   2.777  0.5651 -0.6238  0.1535
   49MOL0     C 6390   7.311   6.660   2.977 -0.5900 -0.2013  0.1652
   49MOL0     C 6391   7.382   6.644   2.862  0.7780 -0.9827  0.6229
   49MOL0     C 6392   7.515   6.631   2.855 -1.1709  0.1130  0.0909
   49MOL0     C 6393   7.590   6.640   2.966 -0.2863 -0.3965 -1.1991
   49MOL0     O 6394   7.721   6.603   2.953  0.1146  0.3134 -0.3029
   49MOL0     C 6395   7.810   6.661   3.053 -0.5604  0.0997 -0.2452
   49MOL0     C 6396   7.855   6.797   3.013 -0.1174  0.3488  0.4322
   49MOL0     C 6397   7.744   6.898   3.009 -0.4018 -0.6124  0.7629
   49MOL0     C 6398   7.801   7.048   2.983 -0.4087  0.6828  0.0967
   49MOL0     C 6399   7.903   7.098   3.085  0.6854 -0.1384  0.0113
   49MOL0     C 6400   7.985   7.118   3.169 -0.0193 -0.3986  0.4265
   49MOL0     C 6401   7.528   6.651   3.090  0.4998 -0.4755 -0.0210
   49MOL0     C 6402   7.390   6.657   3.092 -0.2966  0.9256 -1.4117
   49MOL0     H 6403   6.911   6.534   2.987 -0.8360  1.7974  2.1401
   49MOL0     H 6404   6.662   6.537   2.948 -0.0752 -1.1380 -2.1764
   49MOL0     H 6405   6.531   6.860   2.653 -1.4095 -0.5325 -0.9858
   49MOL0     H 6406   6.502   6.927   2.820 -1.9336  0.9028 -0.8174
   49MOL0     H 6407   6.309   6.768   2.658  0.6146  1.4217 -2.9435
   49MOL0     H 6408   6.327   6.943   2.671  3.1992  0.7242 -1.1928
   49MOL0     H 6409   6.251   6.947   2.909 -0.7847  1.6210 -1.3162
   49MOL0     H 6410   6.264   6.779   2.935 -3.1506  1.3876  2.1825
   49MOL0     H 6411   6.081   6.916   2.731 -0.4661  0.1058 -0.4977
   49MOL0     H 6412   6.098   6.732   2.766 -2.8674 -0.1697  0.5468
   49MOL0     H 6413   5.998   6.968   2.936 -1.2790 -0.1477 -3.3724
   49MOL0     H 6414   6.024   6.794   2.993  0.5694 -0.5485 -0.3527
   49MOL0     H 6415   5.840   6.725   2.840 -2.0219 -0.4313  0.6306
   49MOL0     H 6416   5.825   6.898   2.792  1.8828 -0.2464 -0.1763
   49MOL0     H 6417   5.811   6.777   3.074 -0.7900 -2.4232 -1.7393
   49MOL0     H 6418   5.753   6.939   3.028 -0.2795 -0.1471 -0.3341
   49MOL0     H 6419   5.609   6.686   3.021 -0.5364 -0.7146 -1.7047
   49MOL0     H 6420   5.622   6.745   2.861  4.0599  0.7515  0.2060
   49MOL0     H 6421   5.530   6.954   3.183 -0.9158  1.3073 -1.1349
   49MOL0     H 6422   5.181   7.091   3.078 -2.5454 -2.3458 -0.3778
   49MOL0     H 6423   5.302   7.117   3.212  0.0690  0.4675 -1.2724
   49MOL0     H 6424   5.236   6.924   3.330  0.3651  3.0979  0.9460
   49MOL0     H 6425   5.109   6.880   3.212  1.0714  0.5352 -2.1193
   49MOL0     H 6426   5.044   6.982   3.435  3.1814 -1.2191  0.4901
   49MOL0     H 6427   5.127   7.133   3.397 -0.3340 -0.5635 -0.2361
   49MOL0     H 6428   4.880   7.014   3.263  1.3594 -1.2301  0.5983
   49MOL0     H 6429   4.960   7.164   3.202  0.0613 -0.3462  0.4700
   49MOL0     H 6430   4.672   7.081   3.215 -0.7653  0.4945 -0.8666
   49MOL0     H 6431   4.435   7.121   3.232  0.2857 -0.9912  0.4318
   49MOL0     H 6432   4.145   7.407   3.708  0.6232 -2.0547 -0.3429
   49MOL0     H 6433   3.914   7.483   3.746  1.8171 -1.5458  1.3253
   49MOL0     H 6434   3.542   7.547   3.524 -0.5269 -2.3987 -2.8443
   49MOL0     H 6435   3.596   7.464   3.679  1.2808  1.1834  0.3450
   49MOL0     H 6436   3.655   7.283   3.580 -0.5082  0.6237  0.7006
   49MOL0     H 6437   3.687   7.348   3.417  0.4855  0.5537  0.4383
   49MOL0     H 6438   3.448   7.394   3.373 -0.1702 -0.8543 -2.5180
   49MOL0     H 6439   3.397   7.320   3.525  0.7337 -2.1832  0.4655
   49MOL0     H 6440   3.534   7.179   3.309  0.4747  2.2342  1.6850
   49MOL0     H 6441   3.505   7.115   3.471 -0.3139  0.6815  0.6952
   49MOL0     H 6442   3.254   7.110   3.424 -1.1340  1.1531 -0.3839
   49MOL0     H 6443   3.340   7.037   3.284 -3.3965  0.8128 -3.3097
   49MOL0     H 6444   3.328   7.268   3.182  0.5443 -0.0432 -0.0943
   49MOL0     H 6445   3.227   7.328   3.314  0.3714  1.0774 -2.0300
   49MOL0     H 6446   3.090   7.257   3.112 -2.4613  0.4626  1.3657
   49MOL0     H 6447   3.145   7.092   3.136 -1.5659  0.5122  0.3349
   49MOL0     H 6448   2.947   7.252   3.278  0.8195  0.4835  1.1836
   49MOL0     H 6449   3.044   7.160   3.388  0.4245  0.3603  0.2294
   49MOL0     H 6450   3.871   7.515   3.319  1.4113  1.7020  0.1370
   49MOL0     H 6451   4.104   7.452   3.291  0.0433 -1.5185  0.1718
   49MOL0     H 6452   4.538   7.394   3.560  0.9190 -1.4271  2.1226
   49MOL0     H 6453   4.761   7.343   3.543  0.6403 -0.1009 -0.5717
   49MOL0     H 6454   6.726   6.900   2.717 -1.4842 -1.1501 -0.7673
   49MOL0     H 6455   6.969   6.870   2.731 -3.1739  3.2409  0.1331
   49MOL0     H 6456   7.327   6.640   2.768 -0.9738  1.9006  1.4044
   49MOL0     H 6457   7.562   6.613   2.759 -2.8376 -0.0537 -0.7352
   49MOL0     H 6458   7.895   6.594   3.072  0.7622  2.4921  3.1813
   49MOL0     H 6459   7.770   6.660   3.155 -0.7018 -0.3281 -0.2997
   49MOL0     H 6460   7.931   6.832   3.083  1.0148  2.9817 -1.9251
   49MOL0     H 6461   7.881   6.781   2.908 -1.7573 -2.8635  0.3822
   49MOL0     H 6462   7.684   6.902   3.100 -2.1803  3.4647 -0.3875
   49MOL0     H 6463   7.675   6.878   2.927 -0.9773  0.8767  0.8647
   49MOL0     H 6464   7.847   7.059   2.884  0.2663 -1.5991  0.1123
   49MOL0     H 6465   7.717   7.119   2.991  0.2389  1.2654  2.4290
   49MOL0     H 6466   8.071   7.135   3.231  1.3968 -1.1111 -1.2638
   49MOL0     H 6467   7.560   6.628   3.191  2.3529 -0.2705 -0.5182
   49MOL0     H 6468   7.341   6.659   3.189 -0.7704  3.5382 -1.6324
   50MOL0     O 6469   8.974   6.222   3.883  0.3157 -0.0490  0.3482
   50MOL0     C 6470   9.032   6.154   3.800  0.0515  0.9083 -0.3265
   50MOL0     O 6471   8.962   6.102   3.688  0.0288 -0.0975  0.2487
   50MOL0     C 6472   8.831   6.128   3.685  0.2148  0.7485  0.3029
   50MOL0     C 6473   8.794   6.250   3.621  0.0862 -0.1194  0.1120
   50MOL0     C 6474   8.655   6.282   3.600  0.0986 -0.0831  0.7047
   50MOL0     C 6475   8.559   6.184   3.649 -0.4353  0.5226  0.6120
   50MOL0     O 6476   8.424   6.195   3.647 -0.6759  0.1668  0.0213
   50MOL0     C 6477   8.368   6.329   3.612 -0.2141 -0.1830 -0.0479
   50MOL0     C 6478   8.238   6.358   3.675 -0.4975 -1.4111  0.8625
   50MOL0     C 6479   8.141   6.248   3.649  0.5555 -0.6851  0.2230
   50MOL0     C 6480   7.995   6.286   3.610 -0.6936  0.0047 -0.4589
   50MOL0     C 6481   7.887   6.205   3.663 -0.9005 -0.3660 -0.7417
   50MOL0     C 6482   7.752   6.262   3.618  0.7886 -0.4269  0.1298
   50MOL0     C 6483   7.634   6.187   3.674 -0.9612 -0.1780 -0.1997
   50MOL0     C 6484   7.518   6.249   3.603 -0.0708  0.1720 -0.4089
   50MOL0     N 6485   7.390   6.215   3.671  0.8971 -0.1824 -0.9025
   50MOL0     C 6486   7.334   6.290   3.776  0.2983 -0.4937  0.5047
   50MOL0     C 6487   7.216   6.226   3.802  0.6657  0.2224  1.1695
   50MOL0     C 6488   7.132   6.258   3.919 -0.1968 -0.9948  0.8370
   50MOL0     C 6489   6.978   6.226   3.916  0.2288  0.4441  0.4388
   50MOL0     C 6490   6.949   6.072   3.936 -0.6172  0.3706 -0.5491
   50MOL0     C 6491   6.797   6.038   3.948 -0.1425  0.4340  0.1790
   50MOL0     O 6492   6.734   6.104   4.062  0.2924  0.0432 -0.2054
   50MOL0     C 6493   6.598   6.090   4.085 -0.6359  0.4550 -0.4939
   50MOL0     C 6494   6.551   6.175   4.186 -0.0747  0.2456  0.3749
   50MOL0     C 6495   6.419   6.161   4.236  0.1781 -1.3414 -0.2966
   50MOL0     C 6496   6.334   6.058   4.183  0.5617 -0.0807  0.9331
   50MOL0     C 6497   6.196   6.042   4.224  0.4424  0.1172  1.3662
   50MOL0     O 6498   6.109   5.961   4.159 -0.8520  0.5402 -0.2502
   50MOL0     C 6499   5.979   5.945   4.205  0.3291  0.5107 -0.0551
   50MOL0     C 6500   5.877   5.988   4.127 -0.2341 -0.2949  0.0059
   50MOL0     C 6501   5.741   5.981   4.169  0.6225  0.4100  0.0056
   50MOL0     C 6502   5.706   5.913   4.289  0.3850  0.9405 -0.7897
   50MOL0     O 6503   5.578   5.884   4.324 -0.3422  0.2317  0.1000
   50MOL0     C 6504   5.540   5.748   4.297 -0.0480 -0.1414  0.3549
   50MOL0     C 6505   5.391   5.714   4.326  0.3244  0.0674  0.7642
   50MOL0     C 6506   5.358   5.570   4.270  0.8510 -0.9485 -0.5753
   50MOL0     C 6507   5.208   5.557   4.311 -0.1541 -0.4397  0.5009
   50MOL0     C 6508   5.160   5.439   4.222 -0.6649 -0.9184  0.0290
   50MOL0     C 6509   5.008   5.399   4.237  0.2872  0.0436  0.4164
   50MOL0     C 6510   4.924   5.492   4.145 -0.0228  0.4895  0.1674
   50MOL0     C 6511   4.772   5.484   4.176 -0.8655  1.1270 -0.5304
   50MOL0    Cl 6512   4.690   5.618   4.084 -0.4393 -0.2406 -0.0650
   50MOL0     C 6513   5.811   5.858   4.376  0.7547 -0.7974  0.2150
   50MOL0     C 6514   5.943   5.875   4.330  0.6095 -0.2310  1.0936
   50MOL0     O 6515   6.167   6.106   4.323 -0.4113  0.0640 -0.1256
   50MOL0     C 6516   6.380   5.986   4.076 -0.4839  0.1475  0.2742
   50MOL0     C 6517   6.517   5.990   4.033 -0.3673  0.7318  0.2654
   50MOL0     N 6518   7.209   6.109   3.729 -0.6806  0.1679  0.0065
   50MOL0     N 6519   7.314   6.101   3.655 -1.0298  0.5309 -0.0302
   50MOL0     C 6520   8.602   6.059   3.707 -0.7159 -0.2791 -0.2997
   50MOL0     C 6521   8.734   6.037   3.726 -0.7342  0.2879  0.3319
   50MOL0     C 6522   9.170   6.102   3.830 -0.1708  0.2180  0.4018
   50MOL0     C 6523   9.227   6.008   3.755 -0.6482  0.5790  0.1444
   50MOL0     C 6524   9.359   5.946   3.775  0.5815 -0.4525 -0.6672
   50MOL0     C 6525   9.436   5.997   3.883 -0.0924 -0.0227  0.3305
   50MOL0     O 6526   9.559   5.944   3.890 -0.5266 -0.3136  0.1674
   50MOL0     C 6527   9.657   6.022   3.965 -0.3659 -0.0810  0.1108
   50MOL0     C 6528   9.788   5.940   3.974  0.1996 -0.6445  0.7370
   50MOL0     C 6529   9.923   6.010   3.999  0.8514  0.0933  0.5184
   50MOL0     C 6530  10.050   5.924   3.993 -0.1083 -0.0167  0.3333
   50MOL0     C 6531  10.031   5.805   4.075 -0.2616 -0.0765 -0.7059
   50MOL0     C 6532  10.035   5.709   4.145  0.2884  0.3053 -0.0508
   50MOL0     C 6533   9.375   6.093   3.967  0.3193  0.5366  0.1028
   50MOL0     C 6534   9.244   6.138   3.939  1.4229  0.0649 -0.0472
   50MOL0     H 6535   8.868   6.322   3.587  0.4000 -0.4407  0.1103
   50MOL0     H 6536   8.633   6.376   3.550  0.5469  0.6188  1.7888
   50MOL0     H 6537   8.359   6.332   3.503  2.6396 -2.4482 -0.4708
   50MOL0     H 6538   8.437   6.409   3.641 -1.3032  1.9992 -2.9713
   50MOL0     H 6539   8.193   6.456   3.653 -0.0781 -0.4712  3.7383
   50MOL0     H 6540   8.249   6.363   3.784 -0.5547 -2.1551  0.9058
   50MOL0     H 6541   8.120   6.196   3.743  0.1428 -1.5144 -0.3290
   50MOL0     H 6542   8.185   6.178   3.578  0.0502  0.3376 -1.1273
   50MOL0     H 6543   7.971   6.389   3.638  0.2194 -0.1138  0.8594
   50MOL0     H 6544   7.983   6.289   3.501 -2.9920  1.8556 -0.2293
   50MOL0     H 6545   7.893   6.219   3.771 -2.8426 -3.6721 -0.0859
   50MOL0     H 6546   7.907   6.099   3.643 -0.6900 -0.7223  1.1792
   50MOL0     H 6547   7.751   6.252   3.510  0.1691 -2.1623  0.2659
   50MOL0     H 6548   7.751   6.368   3.646  1.3599 -0.4788  0.3578
   50MOL0     H 6549   7.643   6.083   3.639 -1.4325  0.0684 -1.0703
   50MOL0     H 6550   7.631   6.191   3.783  1.8604  1.1313 -0.0879
   50MOL0     H 6551   7.507   6.214   3.500 -2.4569  1.1505 -0.5689
   50MOL0     H 6552   7.520   6.358   3.614 -0.1177  0.3215 -1.7540
   50MOL0     H 6553   7.381   6.375   3.826  0.6135  0.0440 -0.6684
   50MOL0     H 6554   7.149   6.365   3.934 -0.0679 -1.2496  2.7682
   50MOL0     H 6555   7.173   6.199   4.001  1.4894 -0.3858  0.4732
   50MOL0     H 6556   6.928   6.253   3.822 -2.2100 -2.9213  0.5675
   50MOL0     H 6557   6.937   6.281   4.001  2.6781 -0.0817  2.0625
   50MOL0     H 6558   6.994   6.016   3.854 -1.6390 -0.5178 -0.5239
   50MOL0     H 6559   6.998   6.029   4.024 -2.1992 -2.3468 -0.8979
   50MOL0     H 6560   6.790   5.931   3.965  0.8064  0.4107  0.5026
   50MOL0     H 6561   6.745   6.057   3.854 -2.3133  1.4951  1.5118
   50MOL0     H 6562   6.617   6.246   4.235 -0.9917  0.5255  1.2593
   50MOL0     H 6563   6.392   6.226   4.319  1.7097 -1.9422  0.7371
   50MOL0     H 6564   5.892   6.039   4.033  0.0006 -1.0169 -0.3528
   50MOL0     H 6565   5.662   6.015   4.103  1.7258  1.5671 -0.7854
   50MOL0     H 6566   5.601   5.673   4.349  2.5711  1.1341 -0.7012
   50MOL0     H 6567   5.559   5.729   4.191  2.4287 -2.3795  1.0890
   50MOL0     H 6568   5.335   5.795   4.279  0.6250  0.5147  1.1673
   50MOL0     H 6569   5.391   5.716   4.435  0.3459 -0.3760  0.7752
   50MOL0     H 6570   5.421   5.490   4.308  1.7879 -0.8092 -1.7920
   50MOL0     H 6571   5.354   5.574   4.161 -0.1302 -2.9426 -0.6454
   50MOL0     H 6572   5.210   5.540   4.419  2.1299 -1.6426  0.3146
   50MOL0     H 6573   5.155   5.648   4.279 -1.9082 -2.2957 -2.2917
   50MOL0     H 6574   5.214   5.349   4.252  2.6134  1.2832  1.3917
   50MOL0     H 6575   5.176   5.455   4.115 -0.1039 -2.7891 -0.1984
   50MOL0     H 6576   4.974   5.400   4.341 -0.8658 -0.0346  0.0529
   50MOL0     H 6577   4.993   5.301   4.192 -0.1876 -0.4097  1.5364
   50MOL0     H 6578   4.965   5.593   4.158  3.5545 -0.9242  0.7645
   50MOL0     H 6579   4.940   5.461   4.041  5.4246 -1.5224  1.3064
   50MOL0     H 6580   4.761   5.512   4.281  2.1631 -0.2513  0.2605
   50MOL0     H 6581   4.738   5.384   4.149  3.2376 -1.4201  2.4654
   50MOL0     H 6582   5.789   5.813   4.473 -0.3951  4.2376  2.5945
   50MOL0     H 6583   6.024   5.839   4.392  2.1689 -3.0461 -2.2870
   50MOL0     H 6584   6.318   5.910   4.028  0.1954 -0.1557 -0.1469
   50MOL0     H 6585   6.561   5.941   3.947 -0.2621 -0.7223  1.1369
   50MOL0     H 6586   8.527   5.986   3.737 -0.5076  0.2874  1.7346
   50MOL0     H 6587   8.771   5.945   3.769 -0.3321  0.6397  0.7552
   50MOL0     H 6588   9.165   5.964   3.678 -1.2436  1.2273  0.2513
   50MOL0     H 6589   9.403   5.863   3.720  1.5164 -0.1192 -0.4429
   50MOL0     H 6590   9.625   6.055   4.065  0.0252 -1.2950  0.6594
   50MOL0     H 6591   9.671   6.113   3.908 -1.5849 -0.4319 -0.7983
   50MOL0     H 6592   9.784   5.849   4.036  1.0304 -1.6004 -0.5776
   50MOL0     H 6593   9.807   5.894   3.877 -1.2359 -1.6686  0.9115
   50MOL0     H 6594   9.924   6.062   4.095 -2.2449 -0.6688  1.0818
   50MOL0     H 6595   9.937   6.082   3.917  1.4611 -0.0080  0.5291
   50MOL0     H 6596  10.074   5.886   3.893 -2.1975 -0.5148 -0.0169
   50MOL0     H 6597  10.130   5.994   4.019 -3.1301  3.6345  0.6388
   50MOL0     H 6598  10.059   5.631   4.215  0.3790 -0.9677 -1.4553
   50MOL0     H 6599   9.430   6.135   4.050  1.7382 -1.7353  0.4189
   50MOL0     H 6600   9.206   6.209   4.012 -1.7418 -1.2726 -0.2473
   51MOL0     O 6601   9.655  10.147   1.848  0.2174  0.3739  0.5743
   51MOL0     C 6602   9.738  10.223   1.906  0.0794 -0.2548  0.6004
   51MOL0     O 6603   9.716  10.300   2.019  0.4045  0.0148 -0.1826
   51MOL0     C 6604   9.589  10.322   2.070  0.0199  0.2516  0.3707
   51MOL0     C 6605   9.570  10.305   2.204 -0.0642 -0.3188 -0.5530
   51MOL0     C 6606   9.445  10.334   2.254 -0.8422 -0.6639 -0.5321
   51MOL0     C 6607   9.335  10.381   2.173  0.2129 -0.0206 -0.2344
   51MOL0     O 6608   9.213  10.417   2.232 -0.8299  0.2129  0.2019
   51MOL0     C 6609   9.115  10.465   2.145  0.8576 -0.5952  0.5563
   51MOL0     C 6610   8.993  10.475   2.234 -0.6949  0.0445  0.1937
   51MOL0     C 6611   8.867  10.480   2.143  1.0510 -0.2318  0.7339
   51MOL0     C 6612   8.738  10.494   2.229 -0.4545  0.5471  0.5004
   51MOL0     C 6613   8.619  10.511   2.143  0.3733 -0.4178  0.1859
   51MOL0     C 6614   8.506  10.544   2.242 -0.4675 -0.7836 -0.5855
   51MOL0     C 6615   8.373  10.548   2.175 -0.1670 -0.4206  0.8674
   51MOL0     C 6616   8.256  10.578   2.275 -0.5807 -0.0480  0.2256
   51MOL0     N 6617   8.125  10.526   2.234 -0.1894  0.1796 -0.1828
   51MOL0     C 6618   8.008  10.599   2.236 -0.6099  0.5834 -0.1557
   51MOL0     C 6619   7.907  10.517   2.218 -0.1418  0.2736  0.9942
   51MOL0     C 6620   7.756  10.535   2.211  0.2182 -0.5786  0.3812
   51MOL0     C 6621   7.695  10.607   2.330 -0.5988 -0.1552  0.4695
   51MOL0     C 6622   7.567  10.683   2.281  0.0784 -0.6097 -0.1822
   51MOL0     C 6623   7.452  10.582   2.261 -0.7136  0.1529 -1.6884
   51MOL0     O 6624   7.434  10.504   2.377 -0.4179 -0.1375  0.5810
   51MOL0     C 6625   7.302  10.478   2.409 -0.5881 -0.2020 -0.5810
   51MOL0     C 6626   7.201  10.454   2.309 -0.0684  0.3175 -0.1008
   51MOL0     C 6627   7.060  10.450   2.348 -0.3092 -0.7083 -0.5633
   51MOL0     C 6628   7.028  10.457   2.483  0.5959 -0.2618  0.0116
   51MOL0     C 6629   6.887  10.445   2.523 -0.4529  0.1261  0.5635
   51MOL0     O 6630   6.801  10.414   2.422  0.2364 -0.3529 -0.4561
   51MOL0     C 6631   6.671  10.378   2.449 -0.7744 -0.1301  0.0392
   51MOL0     C 6632   6.630  10.265   2.530 -0.4610  0.2067 -0.4966
   51MOL0     C 6633   6.494  10.244   2.562 -0.0868  1.0394  0.2987
   51MOL0     C 6634   6.394  10.325   2.510 -0.1549  0.6902  0.4256
   51MOL0     O 6635   6.260  10.310   2.533  0.5139 -0.5672 -0.2594
   51MOL0     C 6636   6.207  10.182   2.559  0.3906 -0.1786 -0.3640
   51MOL0     C 6637   6.063  10.176   2.507 -0.7748 -0.8510 -0.9374
   51MOL0     C 6638   5.983  10.295   2.577  0.7843 -0.1384 -0.0669
   51MOL0     C 6639   5.824  10.277   2.563  0.0434 -0.1086  0.5283
   51MOL0     C 6640   5.747  10.388   2.639  0.0306  0.3461  0.8026
   51MOL0     C 6641   5.593  10.370   2.670 -1.1402 -0.1553 -0.1459
   51MOL0     C 6642   5.525  10.484   2.744 -0.5703 -0.3112  0.6628
   51MOL0     C 6643   5.372  10.494   2.726  0.4067 -0.6040 -0.3031
   51MOL0    Cl 6644   5.287  10.339   2.763  0.3152 -0.2227  0.4948
   51MOL0     C 6645   6.431  10.433   2.431  0.5926  0.2774 -0.1498
   51MOL0     C 6646   6.566  10.459   2.405 -0.5574 -0.4634  1.2049
   51MOL0     O 6647   6.857  10.474   2.639 -0.1246 -0.4255  0.0736
   51MOL0     C 6648   7.128  10.491   2.578 -0.3416 -0.5230  0.1203
   51MOL0     C 6649   7.264  10.490   2.542 -0.8331  0.4781  0.2301
   51MOL0     N 6650   7.960  10.390   2.207  0.2689 -0.1463  0.2548
   51MOL0     N 6651   8.090  10.398   2.211  0.3437 -0.2496  0.3446
   51MOL0     C 6652   9.355  10.391   2.039 -0.9405 -0.7898 -0.5655
   51MOL0     C 6653   9.481  10.359   1.982  0.5566 -0.9129 -0.2196
   51MOL0     C 6654   9.866  10.227   1.835  0.1256  0.1854  0.7929
   51MOL0     C 6655   9.886  10.148   1.719 -0.0065  0.4720  0.5738
   51MOL0     C 6656  10.021  10.151   1.667  0.3978 -0.5466  0.5232
   51MOL0     C 6657  10.126  10.217   1.719 -0.3481 -0.2947  0.0481
   51MOL0     O 6658  10.248  10.216   1.641  0.5250  0.2529  0.0780
   51MOL0     C 6659  10.349  10.306   1.687  0.4492  0.6542  0.3369
   51MOL0     C 6660  10.475  10.297   1.608 -0.3102 -0.4636  0.0798
   51MOL0     C 6661  10.579  10.406   1.639 -1.0010 -0.5748 -0.7647
   51MOL0     C 6662  10.692  10.400   1.535 -0.1498  0.6453 -0.2867
   51MOL0     C 6663  10.804  10.488   1.584  0.4176 -0.7005  0.5714
   51MOL0     C 6664  10.893  10.571   1.616 -0.6755 -0.7671 -0.3437
   51MOL0     C 6665  10.104  10.288   1.833  0.6446  0.2289  0.4258
   51MOL0     C 6666   9.976  10.286   1.893  0.4671  0.7965  0.3932
   51MOL0     H 6667   9.654  10.272   2.265  0.3778 -1.5915 -1.8090
   51MOL0     H 6668   9.440  10.326   2.362 -0.8413  2.1564 -0.2526
   51MOL0     H 6669   9.088  10.385   2.074 -1.5395 -0.4688  1.2488
   51MOL0     H 6670   9.144  10.549   2.082  2.2484 -2.3550 -1.3219
   51MOL0     H 6671   9.001  10.568   2.292 -1.5793  0.4545 -0.3195
   51MOL0     H 6672   8.987  10.387   2.298 -1.7696  1.8541  2.7891
   51MOL0     H 6673   8.855  10.390   2.082 -0.2416  1.7305 -2.1213
   51MOL0     H 6674   8.873  10.563   2.073 -2.5647 -0.5879 -0.2076
   51MOL0     H 6675   8.734  10.402   2.288 -0.5127 -0.1058 -0.4996
   51MOL0     H 6676   8.749  10.582   2.293  3.8192 -0.2132  1.1433
   51MOL0     H 6677   8.605  10.421   2.082  0.8336 -1.9363  2.2339
   51MOL0     H 6678   8.626  10.593   2.070 -1.8666  1.4669  1.9154
   51MOL0     H 6679   8.527  10.649   2.264  1.8221 -1.1271 -0.8741
   51MOL0     H 6680   8.515  10.488   2.335 -0.2555 -0.1100 -0.1951
   51MOL0     H 6681   8.376  10.627   2.100 -0.9552 -0.3632  0.8834
   51MOL0     H 6682   8.352  10.457   2.120 -1.5202 -0.8892  2.0846
   51MOL0     H 6683   8.259  10.686   2.297 -0.1430 -0.1315  0.6091
   51MOL0     H 6684   8.282  10.532   2.371 -4.2445 -0.4229  1.1712
   51MOL0     H 6685   8.008  10.708   2.244  2.3990  0.7846 -1.5507
   51MOL0     H 6686   7.708  10.437   2.208 -3.4288  1.0392 -1.9243
   51MOL0     H 6687   7.745  10.587   2.115  1.4901  3.4130  2.1728
   51MOL0     H 6688   7.759  10.691   2.360 -0.1665  0.2133 -1.3586
   51MOL0     H 6689   7.678  10.545   2.419  0.7152 -2.1089 -0.5775
   51MOL0     H 6690   7.537  10.755   2.358 -0.5265 -1.3325  0.2651
   51MOL0     H 6691   7.587  10.742   2.191 -0.3933 -0.2877 -0.0772
   51MOL0     H 6692   7.475  10.522   2.172  1.8910  0.5066 -1.3278
   51MOL0     H 6693   7.364  10.643   2.237 -3.4705 -2.6653  0.4165
   51MOL0     H 6694   7.213  10.430   2.204 -0.2878 -0.4901  0.0532
   51MOL0     H 6695   6.985  10.430   2.272  0.7118  0.7072 -1.9879
   51MOL0     H 6696   6.709  10.206   2.575 -1.1337 -0.8646 -0.6675
   51MOL0     H 6697   6.477  10.158   2.626  3.4916 -1.7306 -2.0409
   51MOL0     H 6698   6.213  10.156   2.665 -0.6031  1.9120  0.2534
   51MOL0     H 6699   6.267  10.106   2.508 -0.2364 -0.6060 -0.4644
   51MOL0     H 6700   6.019  10.088   2.555 -0.2666  1.1527  3.7670
   51MOL0     H 6701   6.052  10.171   2.399  1.0899 -2.6025 -1.1097
   51MOL0     H 6702   6.017  10.392   2.538  2.3462 -0.9438 -0.7920
   51MOL0     H 6703   6.004  10.303   2.683 -1.4387  2.3356  0.2935
   51MOL0     H 6704   5.814  10.288   2.455  2.3838 -0.8823  0.1839
   51MOL0     H 6705   5.791  10.184   2.609 -2.2823  1.2124  1.7557
   51MOL0     H 6706   5.757  10.487   2.594 -1.0305  1.7020  3.3236
   51MOL0     H 6707   5.809  10.400   2.729 -1.5280  0.4481  1.8923
   51MOL0     H 6708   5.586  10.279   2.730  3.4073  0.9905  2.5802
   51MOL0     H 6709   5.545  10.354   2.572 -4.8459 -3.2969  1.8725
   51MOL0     H 6710   5.544  10.469   2.851 -0.5739  0.0676  0.7193
   51MOL0     H 6711   5.576  10.579   2.722 -2.9313  0.6959 -0.8223
   51MOL0     H 6712   5.369  10.519   2.620 -0.1080 -1.0975 -0.4088
   51MOL0     H 6713   5.319  10.569   2.785  1.8418 -1.6818  2.5612
   51MOL0     H 6714   6.355  10.505   2.402 -1.6256 -1.3942  1.1978
   51MOL0     H 6715   6.585  10.560   2.368 -1.6305 -0.6152  0.1745
   51MOL0     H 6716   7.103  10.526   2.677  0.3224  1.3466 -0.3253
   51MOL0     H 6717   7.345  10.525   2.606 -0.4153  0.9811 -0.5504
   51MOL0     H 6718   9.283  10.431   1.967  1.1064  0.8052 -1.8344
   51MOL0     H 6719   9.501  10.376   1.877  0.2618  1.3657  0.0307
   51MOL0     H 6720   9.815  10.098   1.654 -0.3561  2.4782 -0.6927
   51MOL0     H 6721  10.033  10.096   1.574 -1.9297 -0.8121  0.3069
   51MOL0     H 6722  10.375  10.271   1.788 -0.8087  1.8859  1.1219
   51MOL0     H 6723  10.307  10.406   1.699 -1.0828  0.2267 -1.1610
   51MOL0     H 6724  10.513  10.196   1.624  0.3322 -0.5040 -1.4854
   51MOL0     H 6725  10.443  10.309   1.504 -1.8995  1.5413  0.7265
   51MOL0     H 6726  10.619  10.390   1.739 -1.1832  0.3682 -0.5300
   51MOL0     H 6727  10.529  10.503   1.631  0.4731  0.1520 -1.5921
   51MOL0     H 6728  10.742  10.303   1.534 -0.7404  0.3408 -1.4345
   51MOL0     H 6729  10.651  10.429   1.438 -0.2042 -2.2370 -1.2059
   51MOL0     H 6730  10.968  10.637   1.654 -1.1639 -1.1600  1.3698
   51MOL0     H 6731  10.183  10.353   1.870  2.3172 -1.1296 -0.6494
   51MOL0     H 6732   9.956  10.334   1.989 -1.9867 -2.6861  1.8070
   52MOL0     O 6733   4.839   3.162   9.069 -0.1418 -0.9696  0.0809
   52MOL0     C 6734   4.809   3.148   8.952  0.3653 -0.5741 -0.4584
   52MOL0     O 6735   4.681   3.141   8.910 -0.0959 -0.6510 -0.4414
   52MOL0     C 6736   4.587   3.141   9.010 -0.1296  1.2347  0.3089
   52MOL0     C 6737   4.536   3.011   9.049  1.1933 -0.3977 -0.3305
   52MOL0     C 6738   4.432   3.008   9.141 -0.9565  0.2231 -0.3166
   52MOL0     C 6739   4.383   3.124   9.205 -0.7783  0.2464 -0.5245
   52MOL0     O 6740   4.275   3.108   9.290  0.2148  0.0723  0.1195
   52MOL0     C 6741   4.227   3.218   9.374  0.2635 -0.4942  0.5678
   52MOL0     C 6742   4.083   3.190   9.420  0.8154 -0.9862  0.1265
   52MOL0     C 6743   4.075   3.079   9.526 -0.8526 -0.4896  0.0895
   52MOL0     C 6744   3.943   3.014   9.536  0.1784  0.0337  0.1522
   52MOL0     C 6745   3.928   2.902   9.636 -0.7497  0.2264 -0.5330
   52MOL0     C 6746   3.798   2.822   9.612 -0.6142 -0.6524  0.8316
   52MOL0     C 6747   3.669   2.906   9.633 -1.3092 -0.6106  0.0811
   52MOL0     C 6748   3.654   2.939   9.786 -0.1079  0.2727 -0.1193
   52MOL0     N 6749   3.524   3.005   9.823 -0.3597  0.0571  0.2499
   52MOL0     C 6750   3.417   2.946   9.897 -0.7534  0.1858  0.8901
   52MOL0     C 6751   3.343   3.052   9.933  0.4052 -0.3376  0.0510
   52MOL0     C 6752   3.207   3.052  10.001 -0.6019  0.7414  0.2494
   52MOL0     C 6753   3.098   3.034   9.890  0.1959 -0.3182  0.1929
   52MOL0     C 6754   3.052   3.167   9.822  0.1320 -0.0494 -0.5015
   52MOL0     C 6755   2.971   3.141   9.698  0.1821  0.0338  0.5820
   52MOL0     O 6756   2.887   3.259   9.686  0.3923 -0.2566 -0.0745
   52MOL0     C 6757   2.755   3.242   9.725 -0.0762  0.1550 -1.2340
   52MOL0     C 6758   2.662   3.328   9.663  0.7559 -0.1415 -0.4278
   52MOL0     C 6759   2.531   3.335   9.713  0.5197  0.3597  0.5980
   52MOL0     C 6760   2.486   3.246   9.813  0.4707  0.0031 -0.2473
   52MOL0     C 6761   2.356   3.256   9.865  0.5430 -0.0969 -0.4980
   52MOL0     O 6762   2.339   3.232   9.999  0.0937  0.0156 -0.1152
   52MOL0     C 6763   2.221   3.202  10.050  0.4191 -0.0955 -0.2092
   52MOL0     C 6764   2.192   3.242  10.184  0.9335  0.4410  0.6178
   52MOL0     C 6765   2.075   3.187  10.244 -0.6789 -0.3510  0.2937
   52MOL0     C 6766   1.990   3.103  10.183  0.5986  0.2879 -0.9313
   52MOL0     O 6767   1.888   3.031  10.246 -0.7015 -0.0091  0.0234
   52MOL0     C 6768   1.932   2.928  10.334  0.6695 -0.1399  0.4507
   52MOL0     C 6769   1.814   2.847  10.397  0.6176 -0.5413  0.4698
   52MOL0     C 6770   1.871   2.769  10.516 -0.3413 -0.3298 -0.4588
   52MOL0     C 6771   1.778   2.681  10.596  0.6552  0.2460  0.0201
   52MOL0     C 6772   1.847   2.606  10.700  0.0616 -0.6132 -0.6346
   52MOL0     C 6773   1.756   2.497  10.760 -0.2516 -0.3604  0.3587
   52MOL0     C 6774   1.831   2.401  10.860  0.0974  0.8235  0.1146
   52MOL0     C 6775   1.730   2.293  10.900  0.5107 -0.0947  0.5115
   52MOL0    Cl 6776   1.730   2.178  10.767  0.4949  0.2419 -0.4268
   52MOL0     C 6777   2.012   3.068  10.051  0.0320  0.4134 -0.2470
   52MOL0     C 6778   2.134   3.111   9.984  0.4341 -0.0940 -1.0123
   52MOL0     O 6779   2.264   3.289   9.790 -0.4192  0.2890  0.2986
   52MOL0     C 6780   2.578   3.158   9.865  0.2601 -0.4733 -0.1178
   52MOL0     C 6781   2.708   3.154   9.821  0.2317 -0.0676  0.3349
   52MOL0     N 6782   3.408   3.173   9.908 -0.1519 -0.1611  0.0918
   52MOL0     N 6783   3.508   3.141   9.834  0.3664  0.1877  0.2972
   52MOL0     C 6784   4.447   3.247   9.178  0.0083  0.0104  0.3973
   52MOL0     C 6785   4.549   3.251   9.083  0.4369  0.1707  0.1240
   52MOL0     C 6786   4.918   3.158   8.855  0.8327 -0.0643  0.2426
   52MOL0     C 6787   5.046   3.216   8.877  0.1734 -0.0063 -0.7831
   52MOL0     C 6788   5.139   3.222   8.771 -0.5009  0.5043 -0.3048
   52MOL0     C 6789   5.104   3.171   8.648  1.1347 -0.4333  0.3480
   52MOL0     O 6790   5.200   3.180   8.553  0.4109 -0.1161  0.3201
   52MOL0     C 6791   5.278   3.065   8.543 -0.4487  0.8383  0.2102
   52MOL0     C 6792   5.423   3.112   8.550 -0.8315  0.3827 -0.5272
   52MOL0     C 6793   5.532   3.002   8.551 -0.2393  0.3478  0.5598
   52MOL0     C 6794   5.547   2.940   8.407  0.6894  0.1575  0.0762
   52MOL0     C 6795   5.674   2.883   8.375 -0.0143 -0.2450  0.0517
   52MOL0     C 6796   5.789   2.846   8.355  0.3453 -0.0730 -0.8051
   52MOL0     C 6797   4.977   3.108   8.629 -0.7546  0.2420 -0.2973
   52MOL0     C 6798   4.894   3.095   8.738 -0.0635 -0.7002 -0.2022
   52MOL0     H 6799   4.569   2.919   9.000  1.8486 -0.0797 -0.4969
   52MOL0     H 6800   4.385   2.910   9.153  0.3139 -0.3724 -0.0629
   52MOL0     H 6801   4.213   3.299   9.302  0.8269 -1.2579 -0.4309
   52MOL0     H 6802   4.287   3.254   9.457  0.6011  2.9023 -0.9680
   52MOL0     H 6803   4.023   3.160   9.334  0.8469 -1.7324  0.3606
   52MOL0     H 6804   4.055   3.286   9.465  4.3300 -0.3972  1.4060
   52MOL0     H 6805   4.105   3.106   9.627 -2.8049 -2.7075  1.3619
   52MOL0     H 6806   4.146   2.999   9.499  0.8310  1.2834 -1.0166
   52MOL0     H 6807   3.873   3.090   9.571  0.2767  0.2342 -0.0829
   52MOL0     H 6808   3.927   2.978   9.434  0.3441  0.3019  0.0311
   52MOL0     H 6809   3.942   2.935   9.740 -1.0258  1.2731 -0.8159
   52MOL0     H 6810   4.007   2.827   9.622 -0.8704  0.2045 -1.0980
   52MOL0     H 6811   3.806   2.729   9.669 -0.4288  0.4438  2.6547
   52MOL0     H 6812   3.797   2.791   9.507  0.1224 -3.0425  1.4841
   52MOL0     H 6813   3.675   3.003   9.583 -2.5351  0.8251  2.5393
   52MOL0     H 6814   3.585   2.848   9.595 -0.0265 -1.9447 -0.8206
   52MOL0     H 6815   3.736   3.001   9.825  0.3356 -0.4041  0.0393
   52MOL0     H 6816   3.667   2.846   9.842  0.2180  0.6320  0.4256
   52MOL0     H 6817   3.397   2.840   9.907  0.2244  0.1023  2.3207
   52MOL0     H 6818   3.175   3.147  10.045  0.9060  2.4725 -2.1162
   52MOL0     H 6819   3.198   2.968  10.070 -0.0554 -0.0322 -0.5879
   52MOL0     H 6820   3.015   2.995   9.950  0.8702  0.3124  1.5896
   52MOL0     H 6821   3.119   2.963   9.810 -0.1489  1.1199 -1.2248
   52MOL0     H 6822   2.991   3.219   9.897 -1.1499 -3.0390  0.6785
   52MOL0     H 6823   3.141   3.225   9.793  0.3501 -1.5435 -3.0647
   52MOL0     H 6824   2.903   3.055   9.700  1.0907 -0.6971  0.5361
   52MOL0     H 6825   3.047   3.131   9.620  1.9425  2.8856  1.7508
   52MOL0     H 6826   2.709   3.401   9.598  1.7689  1.5731  2.0882
   52MOL0     H 6827   2.465   3.410   9.670  0.2734 -0.9976 -1.5090
   52MOL0     H 6828   2.259   3.300  10.246  0.3603  1.9692 -0.1346
   52MOL0     H 6829   2.062   3.209  10.349 -1.0682 -0.8986  0.3655
   52MOL0     H 6830   1.991   2.974  10.413  1.4248  0.5510 -0.4856
   52MOL0     H 6831   2.012   2.870  10.286 -0.5544 -1.7840  0.3014
   52MOL0     H 6832   1.772   2.776  10.325  0.4207 -1.5845  1.5785
   52MOL0     H 6833   1.730   2.910  10.427  1.5929  1.1338 -0.1624
   52MOL0     H 6834   1.910   2.845  10.585 -2.1541  0.2300 -0.0136
   52MOL0     H 6835   1.958   2.710  10.483  1.7016 -0.1793  3.8668
   52MOL0     H 6836   1.702   2.747  10.640 -1.2291  0.1041 -2.7576
   52MOL0     H 6837   1.721   2.618  10.527  0.6014 -2.7391  2.5826
   52MOL0     H 6838   1.886   2.669  10.780  1.2417 -3.4703  1.2323
   52MOL0     H 6839   1.933   2.551  10.660  2.7580  2.5571  0.3170
   52MOL0     H 6840   1.706   2.436  10.685 -0.6175 -0.4378  0.6610
   52MOL0     H 6841   1.663   2.534  10.803 -2.4107 -4.1819 -0.5384
   52MOL0     H 6842   1.926   2.356  10.831 -0.0689 -0.4776  1.4624
   52MOL0     H 6843   1.851   2.461  10.949  1.2483  0.8379 -0.1373
   52MOL0     H 6844   1.629   2.336  10.907  0.7404  0.2043  2.2214
   52MOL0     H 6845   1.767   2.246  10.991 -2.1338 -2.2205  0.6048
   52MOL0     H 6846   1.941   3.001  10.003  0.1048  1.2334 -1.5684
   52MOL0     H 6847   2.156   3.064   9.888 -2.6940 -0.7321 -1.5183
   52MOL0     H 6848   2.551   3.078   9.933  0.0980 -3.2499 -3.2081
   52MOL0     H 6849   2.771   3.073   9.858 -0.3198 -1.4633 -1.5891
   52MOL0     H 6850   4.415   3.340   9.223 -0.5846 -0.4399  0.9251
   52MOL0     H 6851   4.590   3.349   9.060 -1.5219  1.4663  1.7694
   52MOL0     H 6852   5.056   3.269   8.972 -1.9772 -1.9981  0.6705
   52MOL0     H 6853   5.239   3.263   8.781  0.5931 -2.0431 -0.2487
   52MOL0     H 6854   5.277   3.015   8.446  2.7686 -4.1788  2.3291
   52MOL0     H 6855   5.260   2.989   8.619 -3.2466  1.1898  0.0096
   52MOL0     H 6856   5.455   3.180   8.471 -0.3954  2.3803  1.2742
   52MOL0     H 6857   5.428   3.165   8.646 -1.6636 -1.1776  0.4308
   52MOL0     H 6858   5.510   2.920   8.620 -3.3378 -2.0853 -2.9367
   52MOL0     H 6859   5.632   3.040   8.575 -0.6393  1.9673 -0.2298
   52MOL0     H 6860   5.460   2.873   8.403 -0.6437  1.8633 -1.5940
   52MOL0     H 6861   5.534   3.012   8.326 -2.5643 -1.4977 -1.0873
   52MOL0     H 6862   5.892   2.813   8.358  0.1581 -0.6245  1.6660
   52MOL0     H 6863   4.962   3.057   8.534  1.4485  1.0980 -1.1772
   52MOL0     H 6864   4.797   3.052   8.716 -0.1171 -1.6450  1.6847
   53MOL0     O 6865  10.922   7.992   5.147  0.0950  0.0571  0.8200
   53MOL0     C 6866  11.047   8.000   5.160  0.3390 -0.6309 -0.2052
   53MOL0     O 6867  11.117   8.114   5.195  0.4179  0.3019  0.6510
   53MOL0     C 6868  11.045   8.232   5.208 -0.1962  0.2210 -0.5033
   53MOL0     C 6869  11.041   8.316   5.322  0.2450 -0.4901 -0.2262
   53MOL0     C 6870  10.973   8.436   5.329 -0.0810 -0.6548 -0.2778
   53MOL0     C 6871  10.903   8.476   5.215  0.8638 -0.3720 -0.2197
   53MOL0     O 6872  10.817   8.583   5.219  0.5115 -0.4486  0.8332
   53MOL0     C 6873  10.722   8.577   5.317  0.8297  0.1694 -0.1396
   53MOL0     C 6874  10.646   8.705   5.311  0.5490  0.5427  0.6715
   53MOL0     C 6875  10.547   8.715   5.436 -0.3015 -0.3584  0.1455
   53MOL0     C 6876  10.462   8.842   5.439 -0.8606  0.8853 -0.8743
   53MOL0     C 6877  10.350   8.839   5.552  0.1539 -0.9411  0.3154
   53MOL0     C 6878  10.240   8.734   5.541  0.4350 -0.1160 -0.1044
   53MOL0     C 6879  10.098   8.769   5.571  0.8084  1.1623  0.0009
   53MOL0     C 6880  10.078   8.763   5.724  0.4239  0.2745  0.0350
   53MOL0     N 6881   9.948   8.816   5.760 -0.6556 -0.1311 -0.2246
   53MOL0     C 6882   9.823   8.756   5.755  0.0404 -0.8389 -0.1561
   53MOL0     C 6883   9.740   8.861   5.781 -0.1724  0.2070 -0.3927
   53MOL0     C 6884   9.591   8.857   5.782 -0.7704  0.4607 -0.4329
   53MOL0     C 6885   9.541   8.866   5.929  0.3283 -0.9718  0.4226
   53MOL0     C 6886   9.471   8.997   5.958 -0.0301  0.5356 -0.2556
   53MOL0     C 6887   9.333   9.005   5.899 -0.0122 -0.7076 -0.3161
   53MOL0     O 6888   9.258   8.901   5.966 -0.0285  0.2539  0.1416
   53MOL0     C 6889   9.125   8.899   5.956  0.6995 -1.0150 -1.5576
   53MOL0     C 6890   9.045   8.989   5.886  0.7320 -0.2412  1.8340
   53MOL0     C 6891   8.903   8.978   5.887 -0.4358  0.3191  0.4042
   53MOL0     C 6892   8.840   8.884   5.962  0.2894  0.6503 -0.3293
   53MOL0     C 6893   8.690   8.883   5.981  0.3643  0.6114  0.2483
   53MOL0     O 6894   8.625   9.001   5.959 -0.0552  0.6055 -0.0439
   53MOL0     C 6895   8.494   8.996   5.978 -0.7666 -0.6984 -0.1614
   53MOL0     C 6896   8.440   9.038   6.102 -0.2945  0.3563  0.0766
   53MOL0     C 6897   8.302   9.051   6.124 -0.7278  0.2630  0.5240
   53MOL0     C 6898   8.216   9.008   6.023 -0.5036 -1.0231 -0.5322
   53MOL0     O 6899   8.078   9.021   6.040  0.7971 -0.5334  0.4344
   53MOL0     C 6900   8.002   8.920   5.973 -0.6997  0.7902  0.3179
   53MOL0     C 6901   7.856   8.966   6.008  0.3785 -0.2916  0.0371
   53MOL0     C 6902   7.821   8.956   6.156  0.8566 -1.0949 -0.2718
   53MOL0     C 6903   7.672   8.912   6.160  0.5211  0.4439  0.2704
   53MOL0     C 6904   7.612   8.869   6.294  0.1931  0.1694  0.2931
   53MOL0     C 6905   7.617   8.970   6.401  0.1764 -0.1723 -0.6008
   53MOL0     C 6906   7.570   8.925   6.535  0.5415  0.4019 -0.5361
   53MOL0     C 6907   7.701   8.865   6.617  0.1854 -1.1995  0.2327
   53MOL0    Cl 6908   7.834   8.991   6.644 -0.0693 -0.1034  0.2568
   53MOL0     C 6909   8.272   8.956   5.903 -0.1766 -0.6114 -0.1653
   53MOL0     C 6910   8.410   8.947   5.884 -0.0890 -0.8755  0.1436
   53MOL0     O 6911   8.636   8.777   6.012  0.4219  0.1514 -0.6091
   53MOL0     C 6912   8.916   8.785   6.023  0.0463  0.1572 -0.6061
   53MOL0     C 6913   9.056   8.794   6.021  0.1531  0.3217 -0.0293
   53MOL0     N 6914   9.804   8.984   5.783 -0.6199  0.4038  0.1125
   53MOL0     N 6915   9.934   8.954   5.767  0.0886 -0.0336 -0.6329
   53MOL0     C 6916  10.906   8.395   5.097 -0.1175  0.7489  0.4195
   53MOL0     C 6917  10.976   8.271   5.101 -0.2571  0.2526  0.4390
   53MOL0     C 6918  11.139   7.878   5.132  0.2453  0.1788  0.0485
   53MOL0     C 6919  11.268   7.855   5.180  0.6445 -0.5590 -0.5408
   53MOL0     C 6920  11.338   7.743   5.145  0.3366 -0.9767  0.2900
   53MOL0     C 6921  11.282   7.644   5.069  1.1368  0.3882  0.8909
   53MOL0     O 6922  11.354   7.538   5.020 -0.4238  1.2317 -0.1408
   53MOL0     C 6923  11.481   7.512   5.071  0.4055  0.7605  0.5824
   53MOL0     C 6924  11.560   7.402   5.004 -1.5470 -0.6222 -0.0289
   53MOL0     C 6925  11.496   7.265   5.017  0.0233 -0.2365 -0.1419
   53MOL0     C 6926  11.589   7.168   4.942  0.3390  0.7739 -0.1559
   53MOL0     C 6927  11.530   7.034   4.949  0.5912 -0.0778 -0.2654
   53MOL0     C 6928  11.482   6.921   4.947 -0.0242 -0.3676  0.2097
   53MOL0     C 6929  11.147   7.659   5.017 -0.4235  0.1023 -0.3210
   53MOL0     C 6930  11.083   7.775   5.051  0.6879  0.2877  0.1207
   53MOL0     H 6931  11.102   8.289   5.408 -1.8755 -2.5769  0.7434
   53MOL0     H 6932  10.977   8.493   5.421  0.7080  2.3637 -2.0296
   53MOL0     H 6933  10.768   8.562   5.415  3.7326  1.3971 -1.1990
   53MOL0     H 6934  10.656   8.491   5.300 -0.0203  0.7496  0.1943
   53MOL0     H 6935  10.601   8.702   5.211  1.6531 -0.7687  0.1854
   53MOL0     H 6936  10.708   8.796   5.314  0.0845  0.9186 -0.4299
   53MOL0     H 6937  10.604   8.714   5.529 -0.1157 -0.7288  0.0275
   53MOL0     H 6938  10.484   8.626   5.432  1.3875 -1.6740  1.1503
   53MOL0     H 6939  10.523   8.931   5.450 -1.3240  0.9167  2.4294
   53MOL0     H 6940  10.406   8.851   5.345 -0.2350 -0.6830 -1.4392
   53MOL0     H 6941  10.304   8.938   5.549  1.0374 -0.4939  1.0435
   53MOL0     H 6942  10.401   8.827   5.648  1.2296  0.6332 -0.0234
   53MOL0     H 6943  10.266   8.649   5.604 -1.2202  0.5056  1.5390
   53MOL0     H 6944  10.244   8.697   5.438  0.2016 -1.7603  0.4448
   53MOL0     H 6945  10.069   8.862   5.520  0.2732  0.5733 -0.7870
   53MOL0     H 6946  10.034   8.691   5.529 -0.4671  0.8944  2.2813
   53MOL0     H 6947  10.150   8.837   5.761 -0.1938  1.1019 -0.3786
   53MOL0     H 6948  10.087   8.666   5.774 -2.3047  0.3667  0.8877
   53MOL0     H 6949   9.798   8.653   5.731 -3.6273  0.1727 -1.3149
   53MOL0     H 6950   9.560   8.759   5.746  1.7954 -1.0910  1.1870
   53MOL0     H 6951   9.565   8.939   5.715 -3.4921  0.2428  0.2683
   53MOL0     H 6952   9.625   8.870   6.000  1.0088 -1.1376 -0.3541
   53MOL0     H 6953   9.476   8.780   5.945  0.0584 -0.7448  0.5508
   53MOL0     H 6954   9.462   9.011   6.066 -0.3294  2.0632 -0.4573
   53MOL0     H 6955   9.540   9.077   5.927 -0.9770  0.8219 -1.7342
   53MOL0     H 6956   9.334   8.988   5.791  0.9922  0.2765 -0.4829
   53MOL0     H 6957   9.282   9.099   5.920  2.4297  0.2654  1.8015
   53MOL0     H 6958   9.079   9.079   5.836 -4.6801  0.8347 -0.7452
   53MOL0     H 6959   8.850   9.054   5.831  0.1455 -0.0258 -0.6541
   53MOL0     H 6960   8.504   9.063   6.187  1.1180 -0.0745 -0.8222
   53MOL0     H 6961   8.249   9.074   6.216  0.3360  0.1969  1.1651
   53MOL0     H 6962   8.027   8.822   6.016 -4.1206 -0.1949  0.3365
   53MOL0     H 6963   8.017   8.923   5.865 -0.0596 -0.2141  0.3688
   53MOL0     H 6964   7.780   8.916   5.947 -3.0594  0.2160  3.5296
   53MOL0     H 6965   7.848   9.067   5.966 -0.6577 -0.3298  0.1201
   53MOL0     H 6966   7.841   9.047   6.212  1.9854 -1.7724  0.4658
   53MOL0     H 6967   7.885   8.875   6.192  1.1198  0.3213  2.6818
   53MOL0     H 6968   7.609   8.994   6.122  0.9070  1.4169  1.6493
   53MOL0     H 6969   7.673   8.818   6.105 -0.1925 -1.8013  3.8294
   53MOL0     H 6970   7.667   8.780   6.326  2.0270  0.0788 -2.7614
   53MOL0     H 6971   7.505   8.846   6.283  0.4877 -0.7711 -0.7889
   53MOL0     H 6972   7.558   9.059   6.377  0.3784 -0.3667 -1.9231
   53MOL0     H 6973   7.708   9.029   6.412 -1.6690  2.6861  0.8640
   53MOL0     H 6974   7.526   9.011   6.585 -0.0124  0.4369 -1.0672
   53MOL0     H 6975   7.502   8.840   6.522  2.3604 -1.1197 -0.6245
   53MOL0     H 6976   7.734   8.784   6.552  1.1199  1.0036 -2.2023
   53MOL0     H 6977   7.669   8.825   6.714  3.0983 -0.5298  1.5922
   53MOL0     H 6978   8.206   8.938   5.819 -1.1837  3.6572 -0.5523
   53MOL0     H 6979   8.464   8.925   5.792  0.4233  0.8643 -0.0122
   53MOL0     H 6980   8.862   8.715   6.086 -0.2254  0.6937 -0.2397
   53MOL0     H 6981   9.120   8.718   6.065  0.7039  2.4562  3.2315
   53MOL0     H 6982  10.869   8.421   4.999  1.5272  0.9820 -0.1588
   53MOL0     H 6983  10.984   8.217   5.008 -1.0439  3.9645 -1.9915
   53MOL0     H 6984  11.331   7.923   5.236  0.3653 -0.5987 -0.1763
   53MOL0     H 6985  11.438   7.734   5.186  0.4986 -0.3337  0.0414
   53MOL0     H 6986  11.470   7.488   5.177  0.0575 -0.3260  0.3173
   53MOL0     H 6987  11.545   7.598   5.052 -0.1627  0.6907 -2.1028
   53MOL0     H 6988  11.559   7.415   4.895 -1.6810  1.0067  0.1427
   53MOL0     H 6989  11.663   7.405   5.041 -1.2822 -0.9818 -0.7104
   53MOL0     H 6990  11.397   7.267   4.971  0.7943 -1.7744 -2.0047
   53MOL0     H 6991  11.491   7.238   5.123  0.0497 -1.9945 -0.5621
   53MOL0     H 6992  11.610   7.177   4.835 -1.9802 -3.1043 -1.1295
   53MOL0     H 6993  11.683   7.171   4.999 -0.8570  2.3985  1.8817
   53MOL0     H 6994  11.436   6.827   4.969  1.3103 -1.2345 -0.5949
   53MOL0     H 6995  11.095   7.584   4.959 -1.8148  0.0362  0.9441
   53MOL0     H 6996  10.986   7.786   5.005  1.4247  0.4536 -1.4784
   54MOL0     O 6997  10.692   9.216   6.259 -0.6197 -0.3258 -0.5446
   54MOL0     C 6998  10.651   9.314   6.196  0.1130  0.3460  0.0025
   54MOL0     O 6999  10.638   9.321   6.063 -0.4622 -0.3084  0.1138
   54MOL0     C 7000  10.668   9.211   5.987  0.3191 -0.1140 -0.6470
   54MOL0     C 7001  10.786   9.194   5.920  0.7659 -0.3789 -0.1402
   54MOL0     C 7002  10.825   9.076   5.858  0.5938  0.0973  1.0991
   54MOL0     C 7003  10.736   8.971   5.844 -0.4702  0.0633  0.0414
   54MOL0     O 7004  10.768   8.865   5.760  0.3699 -0.1696 -0.2401
   54MOL0     C 7005  10.832   8.759   5.829  0.0914 -0.6346 -0.6284
   54MOL0     C 7006  10.884   8.671   5.724  0.6553  0.7826  0.4605
   54MOL0     C 7007  10.969   8.571   5.798 -0.2350 -1.2128  0.3719
   54MOL0     C 7008  11.052   8.474   5.711  0.0300  0.0803 -0.0707
   54MOL0     C 7009  11.169   8.544   5.647  0.6414  0.3985  0.2792
   54MOL0     C 7010  11.282   8.549   5.750 -0.0232  1.0508  0.4420
   54MOL0     C 7011  11.416   8.603   5.691  1.3581  0.5984  0.6566
   54MOL0     C 7012  11.469   8.524   5.564 -0.3966  0.9071  0.9203
   54MOL0     N 7013  11.498   8.379   5.591 -0.2892  0.3177  0.3849
   54MOL0     C 7014  11.623   8.330   5.557 -0.1455  0.2383 -0.9579
   54MOL0     C 7015  11.623   8.202   5.603 -0.0488  0.1331 -0.1511
   54MOL0     C 7016  11.733   8.090   5.602  1.0047  1.1293 -0.3410
   54MOL0     C 7017  11.691   7.957   5.661  0.9762  0.9701 -0.2145
   54MOL0     C 7018  11.817   7.867   5.670 -0.1631  0.5272 -0.4442
   54MOL0     C 7019  11.793   7.725   5.627  0.0369 -0.3655 -0.7640
   54MOL0     O 7020  11.912   7.655   5.631  0.3129  0.1101 -0.2914
   54MOL0     C 7021  11.912   7.528   5.594  0.0537 -0.4895  0.5691
   54MOL0     C 7022  11.803   7.444   5.575 -0.0751  0.5236 -0.5197
   54MOL0     C 7023  11.808   7.305   5.542 -0.3754 -0.2996  0.8483
   54MOL0     C 7024  11.936   7.251   5.508 -0.0492  0.5802  0.1718
   54MOL0     C 7025  11.957   7.112   5.460  0.4270 -0.4170 -0.6822
   54MOL0     O 7026  11.845   7.037   5.457  0.0802  0.7742 -0.5381
   54MOL0     C 7027  11.847   6.929   5.370  0.1295 -0.3658 -0.1134
   54MOL0     C 7028  11.815   6.952   5.237 -0.2746 -0.1855 -0.0461
   54MOL0     C 7029  11.800   6.847   5.144 -0.1721  0.3833  0.4795
   54MOL0     C 7030  11.831   6.717   5.186 -0.1538  0.1866 -0.7976
   54MOL0     O 7031  11.792   6.604   5.120 -0.0665  0.3385 -0.2663
   54MOL0     C 7032  11.748   6.601   4.985 -1.0463 -0.5414 -0.0554
   54MOL0     C 7033  11.646   6.486   4.959 -0.1492  0.5069 -0.0761
   54MOL0     C 7034  11.503   6.514   5.004 -0.1499 -0.2431 -0.7780
   54MOL0     C 7035  11.405   6.407   4.996 -1.1472 -0.0543  0.4307
   54MOL0     C 7036  11.409   6.320   5.129 -0.1599  1.0675 -0.3366
   54MOL0     C 7037  11.322   6.187   5.117 -0.6177  0.4285  0.3702
   54MOL0     C 7038  11.293   6.115   5.254  0.6974  0.3458  0.4736
   54MOL0     C 7039  11.266   5.962   5.236  0.7398  0.2610  0.1190
   54MOL0    Cl 7040  11.414   5.878   5.202  0.3927  0.1200 -0.0126
   54MOL0     C 7041  11.870   6.695   5.323 -0.0885 -0.0595 -0.9595
   54MOL0     C 7042  11.890   6.804   5.414  0.6863  0.2795 -0.4284
   54MOL0     O 7043  12.067   7.070   5.438 -0.7259  0.1792 -0.3448
   54MOL0     C 7044  12.051   7.333   5.518 -0.5142  0.5727 -0.4295
   54MOL0     C 7045  12.040   7.465   5.568 -0.3407  0.3441  0.7077
   54MOL0     N 7046  11.496   8.179   5.658  0.2361 -0.1616 -0.3640
   54MOL0     N 7047  11.418   8.283   5.646  0.4088  0.1970 -0.4048
   54MOL0     C 7048  10.610   8.983   5.910 -0.1257 -0.4476 -0.4094
   54MOL0     C 7049  10.571   9.100   5.990 -0.1430 -0.5899 -0.7173
   54MOL0     C 7050  10.582   9.423   6.270  0.5218  0.1010  0.5731
   54MOL0     C 7051  10.577   9.420   6.409  0.0776 -0.5685 -0.1731
   54MOL0     C 7052  10.520   9.534   6.472 -0.3696 -0.0896 -0.5761
   54MOL0     C 7053  10.476   9.638   6.401 -0.6325 -0.2974  0.5955
   54MOL0     O 7054  10.423   9.741   6.476 -0.3601 -0.3094  0.1829
   54MOL0     C 7055  10.421   9.878   6.426  0.1064  0.3438 -0.2558
   54MOL0     C 7056  10.566   9.936   6.425  0.2590  0.8454 -0.5072
   54MOL0     C 7057  10.630   9.909   6.557 -0.3175 -0.2058  0.3649
   54MOL0     C 7058  10.709  10.034   6.598  0.4539 -1.0305  0.8152
   54MOL0     C 7059  10.857  10.014   6.570  0.2960  0.4900  0.1705
   54MOL0     C 7060  10.977   9.997   6.568 -0.4508 -0.3414  0.2536
   54MOL0     C 7061  10.476   9.647   6.263  0.1749 -0.1900 -0.3155
   54MOL0     C 7062  10.525   9.535   6.200  0.5128 -0.5767  0.4069
   54MOL0     H 7063  10.850   9.281   5.917 -2.1259  1.9008 -0.6069
   54MOL0     H 7064  10.929   9.073   5.827  0.3756  1.3775  0.1056
   54MOL0     H 7065  10.761   8.703   5.891  1.9315 -1.0562  1.2394
   54MOL0     H 7066  10.923   8.796   5.877  0.7619 -3.2014  0.2846
   54MOL0     H 7067  10.944   8.731   5.656 -2.1537  0.8004 -2.2545
   54MOL0     H 7068  10.804   8.621   5.667  0.1661 -0.0171  1.8102
   54MOL0     H 7069  10.902   8.504   5.854 -2.1160  1.0132  0.9068
   54MOL0     H 7070  11.045   8.617   5.862  0.3863  0.9094 -1.7646
   54MOL0     H 7071  11.084   8.388   5.770  2.0929 -0.0508 -1.2622
   54MOL0     H 7072  10.992   8.440   5.626  2.2717 -0.7006 -1.4437
   54MOL0     H 7073  11.150   8.644   5.608  2.4704  0.3335 -0.8678
   54MOL0     H 7074  11.197   8.487   5.559  0.4560  2.1459 -0.9573
   54MOL0     H 7075  11.298   8.449   5.791  0.4947  1.5694  1.5829
   54MOL0     H 7076  11.255   8.618   5.831  0.3373 -1.7188  3.1361
   54MOL0     H 7077  11.387   8.703   5.655 -2.0597 -0.6460 -0.4188
   54MOL0     H 7078  11.498   8.611   5.763  0.7796  1.1896  1.2710
   54MOL0     H 7079  11.563   8.571   5.532  1.2403 -2.5402  0.1420
   54MOL0     H 7080  11.399   8.519   5.480 -1.6937  0.3429  2.0054
   54MOL0     H 7081  11.693   8.382   5.493  1.1928  0.8677  0.9370
   54MOL0     H 7082  11.818   8.122   5.662  0.2902  0.0589  1.3231
   54MOL0     H 7083  11.755   8.080   5.495 -0.7509 -1.4236 -0.5541
   54MOL0     H 7084  11.611   7.904   5.609  0.7772  0.7485  0.3007
   54MOL0     H 7085  11.647   7.986   5.757  1.3518  1.8075 -0.2897
   54MOL0     H 7086  11.896   7.921   5.617  1.0651  0.0460  0.8288
   54MOL0     H 7087  11.856   7.873   5.772  1.1031  2.8293 -0.9902
   54MOL0     H 7088  11.755   7.730   5.524  2.3803 -0.1687 -1.6802
   54MOL0     H 7089  11.715   7.675   5.685  0.5116  1.2016  1.3369
   54MOL0     H 7090  11.704   7.484   5.595 -0.1422  0.4819 -0.7594
   54MOL0     H 7091  11.716   7.248   5.533 -1.5002  1.6409 -0.9965
   54MOL0     H 7092  11.781   7.048   5.197 -0.3557 -1.2622 -2.7619
   54MOL0     H 7093  11.753   6.872   5.049  0.8558  1.9607  0.3614
   54MOL0     H 7094  11.834   6.596   4.917  1.4985 -2.3976  3.0267
   54MOL0     H 7095  11.697   6.697   4.969 -1.5101 -0.3698  2.1894
   54MOL0     H 7096  11.688   6.398   5.008  2.9241  2.3756  0.8889
   54MOL0     H 7097  11.641   6.457   4.853 -0.0329  0.0960  0.0268
   54MOL0     H 7098  11.472   6.603   4.948 -0.9703 -0.3825 -0.5575
   54MOL0     H 7099  11.499   6.549   5.108 -1.9228 -2.1309 -0.1424
   54MOL0     H 7100  11.307   6.444   4.968 -0.2030  1.5877 -0.8430
   54MOL0     H 7101  11.441   6.325   4.933  0.0980  2.2459 -1.9863
   54MOL0     H 7102  11.375   6.375   5.218 -0.8249  1.2129 -0.6742
   54MOL0     H 7103  11.513   6.287   5.139 -1.4370 -3.0267  1.6689
   54MOL0     H 7104  11.377   6.118   5.053  3.8725  2.2239  1.8530
   54MOL0     H 7105  11.228   6.215   5.069 -0.3510  2.5186  0.9513
   54MOL0     H 7106  11.374   6.135   5.324  0.1732  0.7928  0.9713
   54MOL0     H 7107  11.204   6.151   5.306 -0.1721  0.5523 -1.0665
   54MOL0     H 7108  11.191   5.954   5.157 -0.6093  2.0164  1.1289
   54MOL0     H 7109  11.223   5.931   5.332 -0.2419  1.5543  0.1256
   54MOL0     H 7110  11.885   6.595   5.362 -3.3502  0.0043  0.8390
   54MOL0     H 7111  11.931   6.796   5.515 -1.0700  1.0629  0.3969
   54MOL0     H 7112  12.154   7.302   5.503  0.4137  1.6797  2.8240
   54MOL0     H 7113  12.130   7.521   5.589  0.6707 -1.1944  0.6040
   54MOL0     H 7114  10.541   8.901   5.896 -3.1614  2.1541 -2.1113
   54MOL0     H 7115  10.485   9.126   6.051  2.2453  4.0403  1.1550
   54MOL0     H 7116  10.621   9.346   6.474  1.2561 -2.5250 -2.9744
   54MOL0     H 7117  10.504   9.537   6.579 -0.3332 -0.8129 -0.5497
   54MOL0     H 7118  10.355   9.940   6.487 -0.7707 -1.2280  0.4624
   54MOL0     H 7119  10.389   9.886   6.322 -1.2697  0.4968  0.1591
   54MOL0     H 7120  10.633   9.883   6.358  0.4418  0.3141  0.0900
   54MOL0     H 7121  10.567  10.042   6.398  0.8196  1.2181  0.8687
   54MOL0     H 7122  10.695   9.822   6.548 -0.6693 -0.2785 -2.3726
   54MOL0     H 7123  10.554   9.908   6.635 -0.1759  4.8251  0.9592
   54MOL0     H 7124  10.669  10.126   6.554  0.8819 -1.9847 -1.7452
   54MOL0     H 7125  10.712  10.037   6.708  1.9600 -3.4091  0.9233
   54MOL0     H 7126  11.082   9.995   6.551 -0.4013  1.6635  0.0810
   54MOL0     H 7127  10.449   9.738   6.212 -1.0174  0.5907  1.6028
   54MOL0     H 7128  10.537   9.544   6.092 -1.3462  2.8289  0.3714
   55MOL0     O 7129   6.080   2.066   1.045 -0.1554 -0.4943  0.7589
   55MOL0     C 7130   6.114   2.184   1.068  0.9066 -0.0629 -0.9099
   55MOL0     O 7131   6.033   2.276   1.124  0.1673 -0.5103 -0.2571
   55MOL0     C 7132   5.893   2.261   1.102 -0.4050 -0.1287  1.2969
   55MOL0     C 7133   5.842   2.290   0.971 -1.0916 -0.5176 -0.0901
   55MOL0     C 7134   5.705   2.282   0.953  0.2347  1.2644 -0.0139
   55MOL0     C 7135   5.618   2.221   1.042 -0.7400 -0.1225 -0.6469
   55MOL0     O 7136   5.491   2.193   1.007 -0.0372  0.0583 -0.0109
   55MOL0     C 7137   5.422   2.093   1.084 -0.6031  0.5202  0.8773
   55MOL0     C 7138   5.265   2.097   1.068  0.0076  1.3041 -0.0645
   55MOL0     C 7139   5.206   2.017   1.184 -0.0167 -0.3906 -0.1422
   55MOL0     C 7140   5.057   1.995   1.155  0.1804  0.5101 -0.5898
   55MOL0     C 7141   4.988   1.887   1.247  0.5606 -0.1697 -0.4367
   55MOL0     C 7142   4.974   1.921   1.395  0.4342 -0.6614  0.4609
   55MOL0     C 7143   4.880   1.818   1.454 -0.1059  0.0887 -0.4667
   55MOL0     C 7144   4.856   1.863   1.603 -0.0037  0.4668 -0.5289
   55MOL0     N 7145   4.770   1.773   1.684  0.8543 -0.3352  0.3919
   55MOL0     C 7146   4.664   1.698   1.639 -0.1238  0.4059  0.3098
   55MOL0     C 7147   4.618   1.644   1.755 -0.1723 -0.1081  0.8755
   55MOL0     C 7148   4.523   1.534   1.770 -0.2864  0.4625 -0.0070
   55MOL0     C 7149   4.373   1.586   1.765 -0.1514  0.1001 -0.1814
   55MOL0     C 7150   4.327   1.650   1.889 -0.0575  0.0947 -1.0246
   55MOL0     C 7151   4.312   1.565   2.024 -0.2040 -0.6242 -0.1215
   55MOL0     O 7152   4.208   1.470   2.013  0.2977 -0.3100  0.1362
   55MOL0     C 7153   4.077   1.491   2.060  0.2594  0.2569 -0.2330
   55MOL0     C 7154   3.986   1.398   2.010 -0.4813 -0.3242  0.0307
   55MOL0     C 7155   3.845   1.413   2.039  0.0847  0.0953  0.0541
   55MOL0     C 7156   3.811   1.510   2.137 -0.1561  0.2722 -0.0817
   55MOL0     C 7157   3.673   1.511   2.201 -0.4269 -0.2709  0.2292
   55MOL0     O 7158   3.664   1.618   2.291 -0.1191 -0.0720  0.2662
   55MOL0     C 7159   3.556   1.608   2.383 -0.4381  0.4482 -0.7070
   55MOL0     C 7160   3.428   1.640   2.348  0.0289 -0.2095  0.8424
   55MOL0     C 7161   3.321   1.631   2.438  0.0025 -0.0889  0.4213
   55MOL0     C 7162   3.339   1.584   2.564 -1.0171 -1.0400 -0.5469
   55MOL0     O 7163   3.235   1.576   2.651 -0.1168  0.2892 -0.4036
   55MOL0     C 7164   3.110   1.630   2.602  0.8933  0.4918 -0.5615
   55MOL0     C 7165   3.000   1.609   2.705  0.4554  0.0546  0.1083
   55MOL0     C 7166   3.015   1.697   2.828  0.3628  0.3034 -0.0978
   55MOL0     C 7167   2.896   1.677   2.932  0.2204  0.7269 -0.0971
   55MOL0     C 7168   2.770   1.775   2.916  0.5833  0.3547  0.0814
   55MOL0     C 7169   2.802   1.921   2.972  0.0596  0.8322 -0.5699
   55MOL0     C 7170   2.681   2.012   2.941 -0.0299 -0.0504  0.0224
   55MOL0     C 7171   2.713   2.160   2.970  0.5348 -0.4226 -0.3895
   55MOL0    Cl 7172   2.567   2.255   2.960 -0.0681  0.3767  0.0453
   55MOL0     C 7173   3.470   1.542   2.605  0.2855  0.1278 -0.3123
   55MOL0     C 7174   3.579   1.566   2.521 -0.6938  0.5844 -0.3386
   55MOL0     O 7175   3.594   1.420   2.186  0.0418 -0.1613  0.2001
   55MOL0     C 7176   3.909   1.604   2.183  0.5671 -0.7852  0.0252
   55MOL0     C 7177   4.038   1.598   2.138 -0.4668  0.1580 -0.5496
   55MOL0     N 7178   4.675   1.700   1.868  1.0833  0.2162 -0.2353
   55MOL0     N 7179   4.770   1.770   1.820 -0.1877  0.1027  0.1505
   55MOL0     C 7180   5.667   2.215   1.176  0.2130  0.1012  0.1774
   55MOL0     C 7181   5.802   2.233   1.207 -0.5743 -0.2892  0.6683
   55MOL0     C 7182   6.250   2.219   1.028 -0.8625  1.0180  0.2009
   55MOL0     C 7183   6.337   2.123   0.986 -1.0673  0.2705  0.4471
   55MOL0     C 7184   6.466   2.162   0.941 -0.0011  0.8508 -0.2005
   55MOL0     C 7185   6.509   2.299   0.940 -0.4992  0.5325  0.1365
   55MOL0     O 7186   6.642   2.320   0.929 -0.3027 -0.8191 -0.6822
   55MOL0     C 7187   6.707   2.442   0.985  0.6239  1.2119  0.4932
   55MOL0     C 7188   6.853   2.407   0.995  0.0621  0.3351 -0.2672
   55MOL0     C 7189   6.933   2.385   0.858 -0.4755 -0.0764  0.1222
   55MOL0     C 7190   7.087   2.368   0.892  0.4364 -0.8142 -0.2795
   55MOL0     C 7191   7.174   2.379   0.775  0.4851 -0.5841  0.6275
   55MOL0     C 7192   7.251   2.396   0.681  0.3567  0.3585 -0.7114
   55MOL0     C 7193   6.419   2.397   0.982  1.0514 -0.1064  0.0940
   55MOL0     C 7194   6.289   2.355   1.024  1.1321  0.2635 -0.2172
   55MOL0     H 7195   5.909   2.335   0.898 -1.6709 -0.6612 -0.7195
   55MOL0     H 7196   5.677   2.309   0.851  1.2004 -3.6232 -1.9060
   55MOL0     H 7197   5.422   2.118   1.191 -0.6563 -1.8940  1.4910
   55MOL0     H 7198   5.462   1.993   1.065  0.3949  1.3097 -1.6119
   55MOL0     H 7199   5.245   2.053   0.970  0.8160  2.6983 -0.8804
   55MOL0     H 7200   5.229   2.200   1.064  2.6459  2.2355 -1.6316
   55MOL0     H 7201   5.211   2.071   1.279 -0.3821 -1.3395  0.4386
   55MOL0     H 7202   5.254   1.919   1.192  0.8992  0.1621  1.7192
   55MOL0     H 7203   5.001   2.089   1.157  0.9856  1.0246 -1.4307
   55MOL0     H 7204   5.040   1.962   1.052 -0.3235  1.7119 -0.9094
   55MOL0     H 7205   5.037   1.792   1.228 -1.9466 -1.6586  0.0927
   55MOL0     H 7206   4.886   1.880   1.208  0.7826 -1.6415 -0.8200
   55MOL0     H 7207   4.925   2.018   1.409  2.1855  0.6611 -1.8232
   55MOL0     H 7208   5.069   1.929   1.447 -1.0876 -0.3735  3.3891
   55MOL0     H 7209   4.788   1.803   1.396 -1.0935 -1.0269  1.3239
   55MOL0     H 7210   4.938   1.725   1.445 -1.5274 -0.8264 -0.5987
   55MOL0     H 7211   4.820   1.966   1.613 -0.0178  0.3075  1.2749
   55MOL0     H 7212   4.957   1.861   1.644  0.5170 -1.3963 -1.8182
   55MOL0     H 7213   4.636   1.672   1.537 -4.3042 -1.7152  1.7453
   55MOL0     H 7214   4.558   1.479   1.858  0.9976  1.4854  0.1595
   55MOL0     H 7215   4.530   1.473   1.680 -3.6658  0.2996 -0.2812
   55MOL0     H 7216   4.306   1.499   1.765 -0.7409  0.4683  2.1472
   55MOL0     H 7217   4.349   1.651   1.681 -0.7455  1.2587  0.8505
   55MOL0     H 7218   4.400   1.730   1.905  0.9465 -1.1566  1.1239
   55MOL0     H 7219   4.228   1.696   1.879 -2.2193 -3.2234  2.4042
   55MOL0     H 7220   4.304   1.631   2.111  0.2454 -1.1068  0.2848
   55MOL0     H 7221   4.409   1.517   2.035 -0.5735 -2.1416 -2.6461
   55MOL0     H 7222   4.010   1.314   1.945  1.4579 -0.3193  0.6728
   55MOL0     H 7223   3.770   1.344   2.002  0.9813 -0.5604 -0.5683
   55MOL0     H 7224   3.402   1.682   2.251 -3.2847  1.9134  2.4659
   55MOL0     H 7225   3.230   1.676   2.400  0.6981  2.1895  1.2943
   55MOL0     H 7226   3.066   1.583   2.514  0.7236 -2.9409  1.1738
   55MOL0     H 7227   3.130   1.736   2.583  1.1732  0.1451 -2.3578
   55MOL0     H 7228   2.993   1.503   2.734 -1.9143  0.0591 -0.3138
   55MOL0     H 7229   2.909   1.632   2.650 -0.6166  0.5811  2.0141
   55MOL0     H 7230   3.005   1.801   2.797 -3.5143 -0.2655 -1.4114
   55MOL0     H 7231   3.105   1.673   2.884 -0.1409  0.2446  0.7023
   55MOL0     H 7232   2.873   1.571   2.926  2.5306  0.2228 -1.2597
   55MOL0     H 7233   2.933   1.703   3.032  2.1909 -3.2785  0.3870
   55MOL0     H 7234   2.680   1.727   2.956  0.2400  0.1516 -0.9168
   55MOL0     H 7235   2.748   1.784   2.809 -2.7765 -1.4710  0.4680
   55MOL0     H 7236   2.894   1.957   2.926  0.9104 -3.1684 -2.4317
   55MOL0     H 7237   2.813   1.922   3.081  3.9570 -0.5680 -0.7915
   55MOL0     H 7238   2.662   2.016   2.833 -0.4111 -0.1008  0.0842
   55MOL0     H 7239   2.585   1.978   2.983 -0.2496  2.4522  1.7935
   55MOL0     H 7240   2.787   2.207   2.905  0.0749 -0.8079 -1.2103
   55MOL0     H 7241   2.738   2.164   3.076  2.3500  0.5218 -0.8040
   55MOL0     H 7242   3.496   1.510   2.705 -1.1943 -3.3074 -0.8843
   55MOL0     H 7243   3.680   1.553   2.557 -0.3371 -4.1913 -2.2146
   55MOL0     H 7244   3.885   1.686   2.250 -0.8477 -0.9472 -0.2465
   55MOL0     H 7245   4.111   1.672   2.167 -0.6840  1.5302 -3.2393
   55MOL0     H 7246   5.603   2.194   1.261  0.9942 -0.8551  0.5571
   55MOL0     H 7247   5.835   2.236   1.311  1.6691  1.1392 -0.0063
   55MOL0     H 7248   6.317   2.016   0.985  3.7771 -0.8528  0.1851
   55MOL0     H 7249   6.536   2.085   0.908 -1.7916 -0.5419 -0.9102
   55MOL0     H 7250   6.679   2.466   1.087  1.2767  1.6640  0.5712
   55MOL0     H 7251   6.685   2.526   0.919 -1.2107  0.7585  0.4789
   55MOL0     H 7252   6.893   2.494   1.047  3.1970 -1.3558  0.4009
   55MOL0     H 7253   6.858   2.319   1.060  0.3477  0.3501 -0.2702
   55MOL0     H 7254   6.918   2.474   0.796 -0.3644 -0.2003 -0.0811
   55MOL0     H 7255   6.893   2.305   0.795 -3.3844  0.2148  1.4422
   55MOL0     H 7256   7.105   2.459   0.951  1.4781  0.3482 -2.2547
   55MOL0     H 7257   7.109   2.273   0.940  0.1649 -1.3915 -1.2788
   55MOL0     H 7258   7.335   2.395   0.614  3.0967 -0.9761  2.4466
   55MOL0     H 7259   6.459   2.496   1.005  0.3143 -0.0396  1.1842
   55MOL0     H 7260   6.232   2.436   1.069 -0.4714  0.6723 -2.8105
   56MOL0     O 7261   5.323   8.376   9.602  0.1124  0.7740 -0.2822
   56MOL0     C 7262   5.340   8.262   9.656  0.4799  0.6000 -0.2272
   56MOL0     O 7263   5.251   8.163   9.664  0.0843 -0.8162  0.2912
   56MOL0     C 7264   5.131   8.188   9.596 -0.2156  0.0664 -0.0302
   56MOL0     C 7265   5.084   8.080   9.519 -0.0878  0.1619 -0.7799
   56MOL0     C 7266   4.960   8.072   9.454  0.6888 -1.1808 -0.3357
   56MOL0     C 7267   4.889   8.194   9.466  0.1975  0.4346  1.1263
   56MOL0     O 7268   4.771   8.220   9.401  0.7342 -0.0464 -0.6879
   56MOL0     C 7269   4.721   8.122   9.300 -0.4950 -0.5565 -1.2667
   56MOL0     C 7270   4.648   8.003   9.356  0.0669 -0.1664  0.1200
   56MOL0     C 7271   4.601   7.928   9.224  0.6957  0.6776 -0.3146
   56MOL0     C 7272   4.473   7.851   9.259  0.4518  0.0816  0.4867
   56MOL0     C 7273   4.352   7.935   9.257 -0.6857  0.4112 -0.2862
   56MOL0     C 7274   4.234   7.841   9.274  0.2791  0.1659 -0.7422
   56MOL0     C 7275   4.094   7.911   9.258  0.3543 -0.4617 -0.1422
   56MOL0     C 7276   4.046   7.991   9.384  0.4663  0.1773 -0.4385
   56MOL0     N 7277   3.927   8.081   9.347 -0.4675 -0.2502 -0.1289
   56MOL0     C 7278   3.798   8.057   9.316 -0.9519 -1.2168 -0.2964
   56MOL0     C 7279   3.751   8.178   9.287  0.4431  0.4642 -0.0102
   56MOL0     C 7280   3.619   8.200   9.224 -0.2536 -0.4997  0.5197
   56MOL0     C 7281   3.503   8.149   9.308  0.6947  0.3579  0.1097
   56MOL0     C 7282   3.424   8.254   9.389 -0.7595 -0.2963 -0.1443
   56MOL0     C 7283   3.317   8.183   9.477  0.8112 -0.8396  0.5543
   56MOL0     O 7284   3.228   8.107   9.387 -0.6190 -0.0335 -0.1599
   56MOL0     C 7285   3.105   8.073   9.434 -0.9190 -0.2971  0.2235
   56MOL0     C 7286   3.051   8.089   9.561 -0.0797  1.1030  0.1179
   56MOL0     C 7287   2.926   8.049   9.587 -0.0500  0.0816 -0.1006
   56MOL0     C 7288   2.835   8.009   9.485 -0.5460 -0.0692  0.0111
   56MOL0     C 7289   2.700   7.973   9.531 -0.1855 -0.5952 -0.2653
   56MOL0     O 7290   2.667   7.977   9.663 -0.2583  0.2001  1.1087
   56MOL0     C 7291   2.542   7.930   9.700  0.3994  0.1396  0.5297
   56MOL0     C 7292   2.516   7.791   9.705  1.1842 -0.8168 -0.8000
   56MOL0     C 7293   2.392   7.758   9.761 -1.1146  0.0541 -0.1548
   56MOL0     C 7294   2.293   7.846   9.800 -0.4900  0.2267 -0.0988
   56MOL0     O 7295   2.175   7.804   9.845 -0.0235 -0.7221  0.7287
   56MOL0     C 7296   2.113   7.690   9.776 -0.0572 -0.4608  0.4337
   56MOL0     C 7297   1.955   7.709   9.767  1.0383 -0.1279 -0.1744
   56MOL0     C 7298   1.885   7.754   9.906  0.5428  0.4032 -0.1950
   56MOL0     C 7299   1.746   7.810   9.884  0.4902 -0.5204 -0.2430
   56MOL0     C 7300   1.669   7.810  10.022 -0.9626 -0.0126  0.2346
   56MOL0     C 7301   1.521   7.859  10.021 -0.6363  0.8632 -0.4890
   56MOL0     C 7302   1.441   7.802  10.133 -0.4319  0.3956 -1.0786
   56MOL0     C 7303   1.477   7.857  10.278 -0.4579 -0.5651  0.0361
   56MOL0    Cl 7304   1.400   7.745  10.400  0.2198  0.0260  0.3708
   56MOL0     C 7305   2.319   7.983   9.778  0.1567 -0.0988  0.4001
   56MOL0     C 7306   2.445   8.023   9.733 -0.1795 -0.3578 -0.1880
   56MOL0     O 7307   2.623   7.945   9.435  0.0508  0.2523  0.0448
   56MOL0     C 7308   2.889   7.992   9.350  0.3969 -0.2541 -0.5951
   56MOL0     C 7309   3.015   8.029   9.334 -0.0802  0.6509  0.2263
   56MOL0     N 7310   3.839   8.274   9.319 -0.0273  0.1030  0.0432
   56MOL0     N 7311   3.948   8.218   9.349 -0.3791 -0.1845  0.3379
   56MOL0     C 7312   4.932   8.299   9.544  0.6045 -0.2951  0.3732
   56MOL0     C 7313   5.050   8.300   9.612 -0.4069  0.1575  0.1160
   56MOL0     C 7314   5.480   8.233   9.706 -0.3171 -1.2497  0.1271
   56MOL0     C 7315   5.587   8.315   9.668  0.3371  0.2504 -0.5452
   56MOL0     C 7316   5.720   8.293   9.709  0.1404  0.3858 -0.3828
   56MOL0     C 7317   5.754   8.179   9.776  0.6537 -0.5168  0.3183
   56MOL0     O 7318   5.886   8.173   9.813 -0.5510  0.6189 -0.1356
   56MOL0     C 7319   5.930   8.059   9.891  1.1595  0.1241  0.4566
   56MOL0     C 7320   6.085   8.054   9.880  0.8963 -0.0065  0.5839
   56MOL0     C 7321   6.163   7.927   9.917  0.7624 -0.2763 -0.2368
   56MOL0     C 7322   6.106   7.790   9.891  0.0460  0.2821 -0.1865
   56MOL0     C 7323   6.204   7.690   9.945  0.1840  0.6912  0.7829
   56MOL0     C 7324   6.281   7.604   9.975 -0.0401 -0.0337 -0.0402
   56MOL0     C 7325   5.653   8.085   9.808 -0.1029 -0.8568 -0.4764
   56MOL0     C 7326   5.517   8.111   9.772  0.0642  0.0689  0.3095
   56MOL0     H 7327   5.158   8.001   9.509  1.8866  1.6693  0.8982
   56MOL0     H 7328   4.926   7.982   9.404  0.3592 -1.4561  0.3700
   56MOL0     H 7329   4.806   8.081   9.245  1.7564  3.1103 -0.8440
   56MOL0     H 7330   4.657   8.172   9.228  0.8035  2.0391 -0.7451
   56MOL0     H 7331   4.561   8.043   9.408 -2.6819  1.5902 -5.1013
   56MOL0     H 7332   4.704   7.939   9.425  0.7622  0.8782  0.5571
   56MOL0     H 7333   4.685   7.863   9.199  0.7819  0.4352  0.5901
   56MOL0     H 7334   4.568   7.997   9.146  0.1497  0.0383 -0.6703
   56MOL0     H 7335   4.463   7.771   9.185  1.7873  0.7209 -0.4505
   56MOL0     H 7336   4.482   7.807   9.358 -0.9452 -1.1586  0.0880
   56MOL0     H 7337   4.340   7.976   9.156 -2.9896  0.9274  0.1340
   56MOL0     H 7338   4.366   8.016   9.329  0.7541  1.4082 -1.6195
   56MOL0     H 7339   4.247   7.794   9.372 -0.1525 -1.2793 -1.3553
   56MOL0     H 7340   4.239   7.763   9.198 -1.0474  0.9484 -1.6798
   56MOL0     H 7341   4.083   7.959   9.160  3.2562 -0.0706 -0.3532
   56MOL0     H 7342   4.020   7.831   9.254 -0.7365  0.3460  2.0776
   56MOL0     H 7343   4.117   8.057   9.436 -0.1186  1.1715 -0.8760
   56MOL0     H 7344   4.021   7.906   9.447  0.7092  0.6576  0.3235
   56MOL0     H 7345   3.748   7.961   9.316  0.5461 -2.1335  2.8991
   56MOL0     H 7346   3.621   8.149   9.127  0.5276 -1.6290  1.1004
   56MOL0     H 7347   3.615   8.307   9.203  0.8087 -0.6851 -0.8115
   56MOL0     H 7348   3.538   8.072   9.378  1.8430  1.0407  0.3174
   56MOL0     H 7349   3.425   8.108   9.244  1.7291 -1.1450 -0.2340
   56MOL0     H 7350   3.499   8.303   9.451 -0.5584 -1.5546  0.6332
   56MOL0     H 7351   3.372   8.325   9.324 -2.8811 -1.9683 -0.3996
   56MOL0     H 7352   3.271   8.271   9.523  2.1631 -0.1003  0.5389
   56MOL0     H 7353   3.362   8.112   9.546 -0.4222 -4.0191 -1.6850
   56MOL0     H 7354   3.093   8.131   9.652 -3.0258 -0.5400  2.4123
   56MOL0     H 7355   2.893   8.075   9.687 -0.3234 -1.7717  0.3288
   56MOL0     H 7356   2.585   7.716   9.669  0.1302 -1.5334 -1.3781
   56MOL0     H 7357   2.366   7.653   9.776 -0.0096 -0.4849 -1.7552
   56MOL0     H 7358   2.124   7.596   9.831 -3.4681 -3.0835 -2.7999
   56MOL0     H 7359   2.153   7.667   9.677  1.1658 -3.0356  1.4211
   56MOL0     H 7360   1.916   7.610   9.741  0.8573 -0.5010  1.4174
   56MOL0     H 7361   1.940   7.776   9.682  0.6162 -0.3142 -0.2516
   56MOL0     H 7362   1.956   7.815   9.963 -0.9592  1.6073  0.4258
   56MOL0     H 7363   1.879   7.657   9.955  2.0522  0.0876 -0.5657
   56MOL0     H 7364   1.745   7.908   9.834 -1.4314 -1.5682 -2.4885
   56MOL0     H 7365   1.690   7.738   9.823 -0.0582  0.3635 -0.8092
   56MOL0     H 7366   1.725   7.866  10.097  0.4007 -0.8581 -0.1252
   56MOL0     H 7367   1.666   7.705  10.054 -0.4158 -0.6953 -1.8363
   56MOL0     H 7368   1.464   7.822   9.935  0.7164 -4.3152  0.5442
   56MOL0     H 7369   1.514   7.968  10.016 -1.8715  0.8487  0.5775
   56MOL0     H 7370   1.334   7.820  10.119 -0.7592 -0.8572 -0.3721
   56MOL0     H 7371   1.455   7.693  10.136 -1.5588  0.2516 -0.4936
   56MOL0     H 7372   1.460   7.964  10.288  4.0744  0.3392  0.0685
   56MOL0     H 7373   1.584   7.850  10.301  0.4577  0.3745 -3.3569
   56MOL0     H 7374   2.243   8.053   9.812 -0.3462 -0.8358  0.8427
   56MOL0     H 7375   2.476   8.127   9.734 -0.3691 -0.2752 -1.6641
   56MOL0     H 7376   2.821   7.957   9.273 -1.0196 -2.3116  1.4638
   56MOL0     H 7377   3.051   8.013   9.232 -4.4553 -3.3219 -1.0406
   56MOL0     H 7378   4.882   8.395   9.542  1.8969  0.4053  0.4940
   56MOL0     H 7379   5.079   8.395   9.656 -0.3308  2.0156 -3.5367
   56MOL0     H 7380   5.570   8.405   9.609 -1.1384  1.8373  2.1220
   56MOL0     H 7381   5.802   8.357   9.680 -0.5150  1.2508 -0.3465
   56MOL0     H 7382   5.883   7.966   9.857 -0.5639  1.6111 -1.4966
   56MOL0     H 7383   5.895   8.070   9.994 -0.4709  0.2159 -0.0701
   56MOL0     H 7384   6.108   8.070   9.774  0.0209 -1.3645  0.1570
   56MOL0     H 7385   6.137   8.134   9.932  2.8145  0.2017 -1.5070
   56MOL0     H 7386   6.198   7.921  10.020 -3.2981 -0.1198  1.3562
   56MOL0     H 7387   6.252   7.932   9.854 -0.0754  0.0777 -1.4268
   56MOL0     H 7388   6.007   7.773   9.936 -0.7019  2.3869 -0.9409
   56MOL0     H 7389   6.080   7.791   9.785  1.3840  2.4264 -0.5419
   56MOL0     H 7390   6.348   7.523   9.994 -0.4856 -0.8158 -1.6487
   56MOL0     H 7391   5.675   7.998   9.869  1.7223  1.3855  2.3578
   56MOL0     H 7392   5.435   8.040   9.783 -1.5344  1.0406 -3.5132
   57MOL0     O 7393   2.304   9.381   8.991  0.2607  1.3080  0.3692
   57MOL0     C 7394   2.315   9.443   8.888  0.2009 -0.8561  0.0772
   57MOL0     O 7395   2.217   9.469   8.796 -0.2209  0.5201  0.7943
   57MOL0     C 7396   2.087   9.467   8.841  0.4779 -0.4165 -1.3302
   57MOL0     C 7397   2.034   9.555   8.943  1.0364  0.5258 -0.9667
   57MOL0     C 7398   1.899   9.544   8.982 -0.3568 -0.2890 -0.0170
   57MOL0     C 7399   1.815   9.441   8.928  0.1130 -0.1976  0.7137
   57MOL0     O 7400   1.694   9.432   8.991 -0.5263  0.8849  0.4765
   57MOL0     C 7401   1.612   9.323   8.950 -0.0791  0.0653 -0.3709
   57MOL0     C 7402   1.518   9.307   9.071  0.2761  0.2630 -0.8573
   57MOL0     C 7403   1.418   9.202   9.032  0.2491  0.6250  0.9671
   57MOL0     C 7404   1.350   9.134   9.154 -0.3368 -0.6833 -0.6820
   57MOL0     C 7405   1.232   9.038   9.128  0.0917 -0.1333  0.2248
   57MOL0     C 7406   1.268   8.921   9.047  0.0700  0.4637  0.8867
   57MOL0     C 7407   1.140   8.844   9.020 -0.1774 -0.7871 -0.5675
   57MOL0     C 7408   1.176   8.723   8.928 -0.7503  0.0233 -0.0944
   57MOL0     N 7409   1.062   8.635   8.897  0.7630 -0.7926  0.1924
   57MOL0     C 7410   1.032   8.514   8.954 -0.0350 -0.4078  0.8666
   57MOL0     C 7411   0.917   8.475   8.896  0.1645  0.5646  0.2553
   57MOL0     C 7412   0.841   8.350   8.926  0.4872 -0.2617  0.4865
   57MOL0     C 7413   0.931   8.233   8.876  0.1252  0.6640  0.1836
   57MOL0     C 7414   0.942   8.215   8.724 -0.6822  0.1932  0.2921
   57MOL0     C 7415   0.809   8.200   8.645 -0.1379  0.7867 -0.1116
   57MOL0     O 7416   0.737   8.078   8.693  0.2405 -0.2783  1.0835
   57MOL0     C 7417   0.603   8.091   8.708  0.0357  0.5433 -0.2685
   57MOL0     C 7418   0.542   8.032   8.819  0.7651  0.9873  0.6195
   57MOL0     C 7419   0.402   8.038   8.831  0.5899  0.3608 -0.2613
   57MOL0     C 7420   0.320   8.109   8.739 -0.1701 -0.4046  0.9085
   57MOL0     C 7421   0.176   8.126   8.762 -0.5638  0.3477 -0.0281
   57MOL0     O 7422   0.123   8.054   8.862 -0.7541 -0.6276 -0.4748
   57MOL0     C 7423  -0.010   8.056   8.870 -0.5983  0.4466  0.1207
   57MOL0     C 7424  -0.076   8.143   8.957  0.2365  0.5211 -0.5771
   57MOL0     C 7425  -0.219   8.145   8.965  0.3048 -0.5770  0.5115
   57MOL0     C 7426  -0.288   8.059   8.885 -0.0496 -0.4950  0.6423
   57MOL0     O 7427  -0.424   8.068   8.897 -0.3088 -0.3944  0.3918
   57MOL0     C 7428  -0.500   7.950   8.904 -0.5627 -0.0604 -0.7932
   57MOL0     C 7429  -0.651   7.993   8.952 -1.0129  0.1146 -0.2146
   57MOL0     C 7430  -0.715   7.873   9.009  1.1197  0.3713  0.4700
   57MOL0     C 7431  -0.864   7.898   9.043  0.0258 -0.0530  0.1548
   57MOL0     C 7432  -0.895   7.974   9.182 -0.0113  0.2121 -0.6535
   57MOL0     C 7433  -1.007   7.913   9.269  0.4300 -0.3905  0.0271
   57MOL0     C 7434  -1.033   8.008   9.384  1.0864  0.4263 -0.6266
   57MOL0     C 7435  -1.170   7.977   9.442  0.7162 -0.3117 -0.3037
   57MOL0    Cl 7436  -1.193   8.074   9.592 -0.1755 -0.8508 -0.3898
   57MOL0     C 7437  -0.225   7.981   8.789  0.1821 -0.1429  0.1021
   57MOL0     C 7438  -0.092   7.974   8.781  0.6159 -0.0593  0.0424
   57MOL0     O 7439   0.117   8.192   8.676  0.1501  0.1829  0.1549
   57MOL0     C 7440   0.381   8.184   8.640 -0.2666  0.3403 -0.7707
   57MOL0     C 7441   0.523   8.172   8.624 -0.0313 -0.0315 -0.7376
   57MOL0     N 7442   0.890   8.556   8.792  0.4143 -0.1612  0.3212
   57MOL0     N 7443   0.968   8.660   8.797 -0.2866  0.2167  0.1547
   57MOL0     C 7444   1.864   9.356   8.827  0.5752 -0.6705 -0.7475
   57MOL0     C 7445   2.002   9.361   8.792  0.8417 -0.1272 -0.6633
   57MOL0     C 7446   2.451   9.496   8.874 -0.2202 -0.0063  0.2940
   57MOL0     C 7447   2.467   9.606   8.790 -0.5669  0.2448  0.3657
   57MOL0     C 7448   2.576   9.683   8.785 -0.3673 -0.0904 -0.4558
   57MOL0     C 7449   2.692   9.644   8.858 -0.3481  0.0505 -0.7494
   57MOL0     O 7450   2.803   9.725   8.855 -0.3973  0.3668 -1.0158
   57MOL0     C 7451   2.900   9.649   8.788  0.4905  0.2334 -0.2075
   57MOL0     C 7452   3.033   9.716   8.773  0.3734  0.2807  0.2370
   57MOL0     C 7453   3.096   9.748   8.910  0.3024  0.8322  0.4771
   57MOL0     C 7454   3.237   9.797   8.888  0.0042  0.2340 -0.5049
   57MOL0     C 7455   3.249   9.938   8.841 -0.1355 -0.2597  0.1627
   57MOL0     C 7456   3.262  10.045   8.791 -0.6129  0.7049  0.2191
   57MOL0     C 7457   2.678   9.533   8.947 -0.2449 -0.6532 -0.4422
   57MOL0     C 7458   2.566   9.448   8.943 -0.1599  0.5151  0.8851
   57MOL0     H 7459   2.093   9.640   8.976  0.4889  0.6156 -0.1900
   57MOL0     H 7460   1.865   9.617   9.054  0.0284  1.4477 -1.5225
   57MOL0     H 7461   1.666   9.228   8.952 -1.0897 -0.5194  0.6653
   57MOL0     H 7462   1.559   9.335   8.855 -0.9587  0.2684  0.1312
   57MOL0     H 7463   1.463   9.400   9.093 -1.3843 -0.6020 -1.1459
   57MOL0     H 7464   1.559   9.280   9.169 -3.0220 -2.0463  0.0727
   57MOL0     H 7465   1.473   9.129   8.973  1.9921 -0.4872  3.7814
   57MOL0     H 7466   1.340   9.253   8.975 -0.4330 -0.9979  0.3788
   57MOL0     H 7467   1.422   9.080   9.216 -0.9229 -1.3722 -0.5866
   57MOL0     H 7468   1.324   9.222   9.213  1.6568 -0.0677 -0.6374
   57MOL0     H 7469   1.148   9.096   9.088 -0.2020  0.6765  1.9277
   57MOL0     H 7470   1.186   9.003   9.221 -0.0001 -3.2320 -0.8860
   57MOL0     H 7471   1.332   8.858   9.110  0.0704  0.7850  1.2111
   57MOL0     H 7472   1.321   8.939   8.953 -0.0261 -0.1073  0.7203
   57MOL0     H 7473   1.100   8.814   9.117  1.6852  0.0865  0.5235
   57MOL0     H 7474   1.062   8.910   8.981  0.3349  0.3425  0.2818
   57MOL0     H 7475   1.260   8.667   8.970  1.7691  1.3440 -2.9461
   57MOL0     H 7476   1.214   8.767   8.836 -1.6392 -1.3947 -1.1756
   57MOL0     H 7477   1.092   8.454   9.021 -3.4071 -3.5283  1.4238
   57MOL0     H 7478   0.745   8.340   8.874 -0.5720 -0.0941  2.3235
   57MOL0     H 7479   0.812   8.347   9.031  0.3678 -0.2452  0.4551
   57MOL0     H 7480   0.896   8.140   8.922 -0.4911  1.0327  0.4746
   57MOL0     H 7481   1.037   8.252   8.895 -0.0318  1.4201  0.3048
   57MOL0     H 7482   0.998   8.296   8.677 -0.8428  1.2168  1.8093
   57MOL0     H 7483   0.994   8.121   8.704 -0.3893  0.7937 -2.1128
   57MOL0     H 7484   0.836   8.195   8.539  2.5021 -1.0540  0.5381
   57MOL0     H 7485   0.745   8.284   8.672 -0.7472  0.9891 -2.0622
   57MOL0     H 7486   0.597   7.977   8.895  1.1625 -0.9705 -0.9888
   57MOL0     H 7487   0.356   7.991   8.917  2.2976 -0.0023  0.4764
   57MOL0     H 7488  -0.021   8.188   9.039 -0.4486  0.9038 -0.3131
   57MOL0     H 7489  -0.270   8.206   9.038 -0.3828  0.2003 -0.5934
   57MOL0     H 7490  -0.440   7.890   8.972  0.2913  0.0798 -1.4139
   57MOL0     H 7491  -0.501   7.906   8.803  3.4927  2.9910 -2.4429
   57MOL0     H 7492  -0.703   8.014   8.858  0.5612 -1.4435 -1.4938
   57MOL0     H 7493  -0.649   8.083   9.014  2.1277  0.3930 -0.5543
   57MOL0     H 7494  -0.662   7.849   9.101  0.6824  1.4808  1.0272
   57MOL0     H 7495  -0.696   7.785   8.946 -0.4969  0.4993 -0.2650
   57MOL0     H 7496  -0.911   7.963   8.968 -2.1432  2.5155  3.4484
   57MOL0     H 7497  -0.914   7.804   9.065 -1.6119  1.1468  1.9467
   57MOL0     H 7498  -0.930   8.073   9.153 -0.1358  0.4972  0.4226
   57MOL0     H 7499  -0.803   7.988   9.240 -0.1171 -0.6106 -0.2746
   57MOL0     H 7500  -0.980   7.815   9.311  0.6617 -0.7576 -0.9511
   57MOL0     H 7501  -1.096   7.892   9.208  1.0334 -1.7516 -0.4295
   57MOL0     H 7502  -0.959   7.976   9.458 -0.4252 -0.3897  0.6051
   57MOL0     H 7503  -1.021   8.113   9.355 -1.1051  0.8751 -0.0646
   57MOL0     H 7504  -1.179   7.873   9.472  3.1710 -0.2868  0.7504
   57MOL0     H 7505  -1.253   8.004   9.376 -0.6630  0.2974  1.5986
   57MOL0     H 7506  -0.284   7.913   8.727  0.0751  0.8313 -0.8922
   57MOL0     H 7507  -0.039   7.916   8.706  0.5407  0.4826 -0.4407
   57MOL0     H 7508   0.322   8.247   8.574  1.2453  2.2163 -0.4379
   57MOL0     H 7509   0.573   8.234   8.550  0.0058  0.7331 -0.0891
   57MOL0     H 7510   1.800   9.281   8.781 -0.7494  0.1750 -0.3481
   57MOL0     H 7511   2.044   9.280   8.733  0.0416  0.8239 -2.6159
   57MOL0     H 7512   2.374   9.640   8.745 -1.1803  0.7544  1.9372
   57MOL0     H 7513   2.577   9.778   8.733 -4.2121 -0.2529 -1.0510
   57MOL0     H 7514   2.861   9.612   8.693 -1.1509  2.3966 -0.4542
   57MOL0     H 7515   2.924   9.559   8.845 -2.9754 -0.7734 -0.1439
   57MOL0     H 7516   3.094   9.662   8.699 -2.9867 -3.1974 -0.3368
   57MOL0     H 7517   3.014   9.812   8.724  1.2731 -0.2675 -1.2496
   57MOL0     H 7518   3.098   9.659   8.974 -2.2876  1.1405  1.1192
   57MOL0     H 7519   3.041   9.828   8.961 -0.0475  1.5353 -0.9407
   57MOL0     H 7520   3.290   9.788   8.983  0.7479  2.9853 -0.5811
   57MOL0     H 7521   3.280   9.720   8.823 -0.8825 -0.7331  0.0158
   57MOL0     H 7522   3.283  10.138   8.743  1.6131 -0.2338 -0.7813
   57MOL0     H 7523   2.757   9.510   9.018 -0.3945 -0.2070 -0.1278
   57MOL0     H 7524   2.546   9.367   9.012 -2.5890  0.3265  0.0659
   58MOL0     O 7525   9.301   4.750   6.101 -0.3164  0.2145  0.4512
   58MOL0     C 7526   9.389   4.805   6.037 -0.9837  0.0265  0.5593
   58MOL0     O 7527   9.402   4.944   6.023 -0.4325 -0.0916  0.0797
   58MOL0     C 7528   9.305   5.034   6.056 -0.7135  0.0141  0.8175
   58MOL0     C 7529   9.172   4.999   6.070  0.1228  0.6014 -0.2754
   58MOL0     C 7530   9.080   5.092   6.118  0.0732 -0.7299  0.2218
   58MOL0     C 7531   9.113   5.224   6.144  0.3811  0.5178 -0.0245
   58MOL0     O 7532   9.022   5.301   6.201  1.0797 -0.1673  0.6155
   58MOL0     C 7533   8.981   5.414   6.123 -1.3454 -0.1415 -0.3978
   58MOL0     C 7534   8.835   5.433   6.153  0.2913  0.0813 -0.4778
   58MOL0     C 7535   8.764   5.512   6.047 -0.2151 -0.2469  0.3089
   58MOL0     C 7536   8.610   5.510   6.072 -1.3903  0.0539 -0.8880
   58MOL0     C 7537   8.535   5.555   5.942 -0.0546  0.8871 -0.0044
   58MOL0     C 7538   8.552   5.446   5.827  0.0067 -0.0055 -0.5359
   58MOL0     C 7539   8.454   5.458   5.707  0.3526 -0.3929  0.1494
   58MOL0     C 7540   8.309   5.424   5.743  0.0293 -0.1381 -0.2080
   58MOL0     N 7541   8.205   5.487   5.671 -0.1638 -0.4590  0.9087
   58MOL0     C 7542   8.095   5.418   5.610  0.6878 -0.4067 -0.1626
   58MOL0     C 7543   8.015   5.518   5.574  0.2720  0.7210 -0.2931
   58MOL0     C 7544   7.886   5.515   5.498  0.4644 -0.7065 -0.3830
   58MOL0     C 7545   7.780   5.422   5.564 -0.2611  0.4269 -0.3677
   58MOL0     C 7546   7.648   5.450   5.506  0.3606  0.1483  0.3982
   58MOL0     C 7547   7.539   5.361   5.545  0.2067 -0.4681  0.0283
   58MOL0     O 7548   7.427   5.424   5.498  1.0251  0.0164 -0.3398
   58MOL0     C 7549   7.304   5.366   5.519 -0.4050  0.0610  0.3623
   58MOL0     C 7550   7.195   5.455   5.521  0.7401 -0.8321 -0.0519
   58MOL0     C 7551   7.058   5.414   5.533 -0.1395 -0.4827  0.6235
   58MOL0     C 7552   7.029   5.276   5.562  0.8222 -0.4965 -0.4285
   58MOL0     C 7553   6.895   5.226   5.596  0.8984  0.3189  0.9385
   58MOL0     O 7554   6.887   5.098   5.639  0.4714  0.0423 -0.0908
   58MOL0     C 7555   6.765   5.066   5.690  0.6112 -0.6954  0.0649
   58MOL0     C 7556   6.690   4.954   5.643 -0.5236  0.2243  0.6133
   58MOL0     C 7557   6.557   4.919   5.687 -0.0550 -0.5488  0.0333
   58MOL0     C 7558   6.505   4.994   5.795 -0.5496 -0.2525  0.7009
   58MOL0     O 7559   6.385   4.947   5.844  0.1631  0.1278  0.4532
   58MOL0     C 7560   6.364   4.950   5.981 -0.0276 -0.8929 -0.7190
   58MOL0     C 7561   6.222   4.890   6.008 -0.1436  0.8415 -0.3293
   58MOL0     C 7562   6.197   4.883   6.160 -0.1635  0.7269 -0.4392
   58MOL0     C 7563   6.060   4.814   6.189  0.0093 -0.2446 -1.0242
   58MOL0     C 7564   6.044   4.818   6.344 -0.8568  0.0613  0.5647
   58MOL0     C 7565   5.918   4.752   6.408  0.0462 -0.2063 -0.0256
   58MOL0     C 7566   5.800   4.854   6.421 -0.5373 -0.1462  0.2459
   58MOL0     C 7567   5.666   4.779   6.420  0.9832  0.5420 -0.6294
   58MOL0    Cl 7568   5.554   4.926   6.444 -0.4619  0.0535  0.0232
   58MOL0     C 7569   6.584   5.094   5.852  0.9589 -0.0576  0.5638
   58MOL0     C 7570   6.713   5.127   5.808 -0.0162  0.8871 -0.0136
   58MOL0     O 7571   6.803   5.306   5.589  0.8854 -0.5509  0.4097
   58MOL0     C 7572   7.143   5.185   5.564  0.2680 -0.1593  0.6331
   58MOL0     C 7573   7.275   5.227   5.533 -0.1352 -0.5909  0.0503
   58MOL0     N 7574   8.064   5.633   5.619  0.3666 -0.7046 -0.1003
   58MOL0     N 7575   8.183   5.619   5.666 -0.1058 -0.5520 -0.7014
   58MOL0     C 7576   9.249   5.262   6.137  1.2625 -0.0847 -0.2291
   58MOL0     C 7577   9.347   5.169   6.092 -0.8388 -0.0940 -0.3309
   58MOL0     C 7578   9.502   4.725   5.980 -0.3829 -0.2530  0.0947
   58MOL0     C 7579   9.633   4.775   5.952  0.4639 -0.2855 -0.6484
   58MOL0     C 7580   9.724   4.688   5.917 -0.5661  0.7945 -1.3293
   58MOL0     C 7581   9.708   4.549   5.911 -0.4520 -0.6761  0.5486
   58MOL0     O 7582   9.822   4.477   5.879  0.1094 -0.4060 -0.8554
   58MOL0     C 7583   9.814   4.402   5.761 -0.4859 -0.9540  0.0137
   58MOL0     C 7584   9.902   4.288   5.782  0.5285  0.1117  0.1963
   58MOL0     C 7585   9.835   4.195   5.888 -0.4631 -0.3417 -0.8716
   58MOL0     C 7586   9.921   4.092   5.943 -0.6966 -0.3818 -0.6235
   58MOL0     C 7587   9.975   4.003   5.841 -0.1632  0.5856  0.3407
   58MOL0     C 7588  10.019   3.912   5.760 -0.1068 -0.0460 -0.1189
   58MOL0     C 7589   9.581   4.505   5.922 -0.5406  0.8450 -0.3380
   58MOL0     C 7590   9.481   4.592   5.967 -0.2691 -0.6481  0.2854
   58MOL0     H 7591   9.131   4.898   6.071  0.2458  0.5532  0.0785
   58MOL0     H 7592   8.983   5.054   6.147  0.8574 -0.6284  3.2627
   58MOL0     H 7593   8.989   5.397   6.015 -0.8785 -2.5941 -0.0436
   58MOL0     H 7594   9.046   5.497   6.154  0.0500 -1.0218 -0.8397
   58MOL0     H 7595   8.818   5.495   6.242  4.4545 -1.5584  1.6887
   58MOL0     H 7596   8.776   5.345   6.179 -0.0443  0.7489  1.1418
   58MOL0     H 7597   8.779   5.466   5.949 -0.0411 -0.1939  0.3110
   58MOL0     H 7598   8.805   5.613   6.057  2.3323 -1.2313  0.4547
   58MOL0     H 7599   8.598   5.404   6.093 -0.7799  0.5859  2.8005
   58MOL0     H 7600   8.596   5.556   6.170 -1.5276 -2.8865  0.5701
   58MOL0     H 7601   8.565   5.656   5.912  0.2648  0.4674 -1.1240
   58MOL0     H 7602   8.428   5.562   5.965 -0.2132 -0.0086 -0.4328
   58MOL0     H 7603   8.542   5.347   5.874  3.4233 -1.6653 -2.8672
   58MOL0     H 7604   8.651   5.454   5.782 -0.3614 -0.5550 -1.4750
   58MOL0     H 7605   8.461   5.559   5.667  1.6894 -0.6006 -0.2093
   58MOL0     H 7606   8.489   5.392   5.627 -2.6948  0.9669 -2.5401
   58MOL0     H 7607   8.294   5.458   5.846  1.1809 -1.9637  0.6208
   58MOL0     H 7608   8.302   5.315   5.733 -0.2846 -0.2256  0.8699
   58MOL0     H 7609   8.064   5.315   5.602 -0.8842 -0.2488  2.6216
   58MOL0     H 7610   7.906   5.477   5.397  1.3285  3.7597 -2.1145
   58MOL0     H 7611   7.845   5.616   5.501 -1.4780 -1.4816  1.5775
   58MOL0     H 7612   7.775   5.436   5.672  0.9898 -1.0384 -0.1027
   58MOL0     H 7613   7.799   5.316   5.545 -0.1377  0.8772 -3.2273
   58MOL0     H 7614   7.619   5.551   5.536 -0.4419  0.3252 -0.8749
   58MOL0     H 7615   7.646   5.458   5.397 -1.3582 -0.5813  0.3398
   58MOL0     H 7616   7.540   5.366   5.654 -1.7439 -0.0289  0.0662
   58MOL0     H 7617   7.540   5.266   5.491 -4.2227 -0.2476 -0.8534
   58MOL0     H 7618   7.223   5.559   5.510 -0.0835 -0.2810  2.3723
   58MOL0     H 7619   6.975   5.480   5.513 -0.1956 -1.5969 -3.9022
   58MOL0     H 7620   6.734   4.907   5.555 -1.5220  2.5564 -1.2500
   58MOL0     H 7621   6.497   4.848   5.631 -1.0076 -1.3400  1.9557
   58MOL0     H 7622   6.364   5.055   6.013 -0.7571 -0.9798 -0.4055
   58MOL0     H 7623   6.435   4.885   6.034 -0.9820 -2.0375 -0.8051
   58MOL0     H 7624   6.211   4.787   5.973  3.7989 -0.9089  2.7893
   58MOL0     H 7625   6.145   4.954   5.965 -1.2773 -2.4308 -3.7022
   58MOL0     H 7626   6.189   4.980   6.210  0.3788  0.4941  0.1149
   58MOL0     H 7627   6.280   4.823   6.198  0.5570  2.4088  0.7401
   58MOL0     H 7628   5.980   4.875   6.147 -1.3428  0.8435  2.7238
   58MOL0     H 7629   6.068   4.718   6.137  0.5422  0.5918 -2.5472
   58MOL0     H 7630   6.060   4.917   6.388 -1.3496  0.4150 -0.0308
   58MOL0     H 7631   6.127   4.757   6.380 -1.0923  0.4620  1.8652
   58MOL0     H 7632   5.946   4.725   6.511 -2.5630  1.2338  1.1702
   58MOL0     H 7633   5.889   4.661   6.354 -0.4760 -1.9548  2.9689
   58MOL0     H 7634   5.813   4.919   6.508  1.2328  2.4798 -1.8351
   58MOL0     H 7635   5.802   4.921   6.335  0.1376 -3.0257 -2.1410
   58MOL0     H 7636   5.646   4.709   6.502 -1.0541  2.0003  0.1906
   58MOL0     H 7637   5.648   4.728   6.325 -1.0968 -1.2492  0.6209
   58MOL0     H 7638   6.535   5.151   5.931 -2.8114 -1.0786 -0.7896
   58MOL0     H 7639   6.774   5.204   5.855  3.6531 -2.3194  0.9849
   58MOL0     H 7640   7.132   5.077   5.564 -1.5992 -0.0259 -0.4680
   58MOL0     H 7641   7.355   5.154   5.531  0.6810  0.1692 -4.1374
   58MOL0     H 7642   9.280   5.360   6.170 -2.5151  0.2457  3.0721
   58MOL0     H 7643   9.452   5.191   6.076 -1.5087  1.8729 -2.5166
   58MOL0     H 7644   9.650   4.882   5.958  0.3268 -0.2723 -0.4855
   58MOL0     H 7645   9.830   4.712   5.907 -0.1793 -1.0350 -2.1483
   58MOL0     H 7646   9.862   4.466   5.685 -0.5472 -0.0444  0.7191
   58MOL0     H 7647   9.709   4.381   5.737 -1.5234  2.6586  0.6580
   58MOL0     H 7648   9.911   4.236   5.686  1.8566 -0.4285  0.5910
   58MOL0     H 7649  10.002   4.321   5.811  0.0450  1.1217  0.7587
   58MOL0     H 7650   9.757   4.140   5.835  2.2854 -2.4583 -3.0342
   58MOL0     H 7651   9.790   4.251   5.971 -0.1907 -0.5594 -0.5758
   58MOL0     H 7652  10.000   4.143   5.999 -0.7863 -1.2822  0.3608
   58MOL0     H 7653   9.870   4.045   6.028 -1.0423  0.8730 -0.0969
   58MOL0     H 7654  10.048   3.833   5.695  0.2713  0.6360 -0.7980
   58MOL0     H 7655   9.567   4.398   5.918 -1.9226  0.9812  0.1003
   58MOL0     H 7656   9.382   4.559   5.999 -0.9811  0.2380 -0.9215
   59MOL0     O 7657   1.273   0.997  10.826 -0.0986 -0.2564 -0.7821
   59MOL0     C 7658   1.289   1.028  10.946  0.2887  0.1921  0.3477
   59MOL0     O 7659   1.193   1.044  11.044  0.0675  0.1656  0.0760
   59MOL0     C 7660   1.062   1.055  11.002  0.1497  0.5414 -0.3048
   59MOL0     C 7661   0.986   0.938  10.981 -0.4929  1.0799 -0.1347
   59MOL0     C 7662   0.850   0.953  10.952 -0.5499 -0.0517  0.0043
   59MOL0     C 7663   0.780   1.082  10.955  0.2431 -0.4726  0.4272
   59MOL0     O 7664   0.645   1.097  10.927 -0.7315 -0.0456  0.0513
   59MOL0     C 7665   0.552   0.988  10.951  0.4114  1.0360  0.8921
   59MOL0     C 7666   0.411   1.024  10.977 -0.2025 -0.2806  0.0330
   59MOL0     C 7667   0.312   0.910  10.940 -0.1207 -0.5776  0.1736
   59MOL0     C 7668   0.170   0.962  10.954  0.6905  0.1896 -0.3757
   59MOL0     C 7669   0.061   0.866  10.929  1.3843 -0.2382  0.9114
   59MOL0     C 7670   0.030   0.781  11.056 -0.3570 -0.5759  0.5630
   59MOL0     C 7671  -0.062   0.665  11.039  0.5033 -1.1845 -0.6913
   59MOL0     C 7672  -0.195   0.704  10.984  1.1031  0.2275  0.5187
   59MOL0     N 7673  -0.286   0.586  10.977 -0.2649  0.2808 -0.1720
   59MOL0     C 7674  -0.262   0.471  10.893  0.2708 -0.1900 -0.5821
   59MOL0     C 7675  -0.383   0.395  10.888 -0.1628 -0.4833 -0.5311
   59MOL0     C 7676  -0.395   0.265  10.828  0.7147  0.5226 -0.7870
   59MOL0     C 7677  -0.325   0.145  10.897  0.3711  0.4757 -0.3738
   59MOL0     C 7678  -0.178   0.127  10.860 -0.0839  0.1291 -0.5340
   59MOL0     C 7679  -0.156   0.090  10.702 -0.4615  0.2685 -0.6919
   59MOL0     O 7680  -0.186  -0.048  10.666 -0.1855 -0.0989 -0.1624
   59MOL0     C 7681  -0.085  -0.141  10.678 -0.1442 -1.0723  0.0483
   59MOL0     C 7682   0.033  -0.122  10.752 -1.3374 -0.6094  0.3801
   59MOL0     C 7683   0.114  -0.233  10.783  0.5814  0.5491 -0.4370
   59MOL0     C 7684   0.074  -0.362  10.735  0.4398  0.2412 -0.7756
   59MOL0     C 7685   0.162  -0.479  10.762  0.3724  0.3790 -0.4338
   59MOL0     O 7686   0.293  -0.447  10.790  0.3087 -0.0476 -0.4172
   59MOL0     C 7687   0.385  -0.546  10.797  0.4742 -0.2705 -0.7044
   59MOL0     C 7688   0.487  -0.535  10.706 -0.8572 -0.5049  0.1330
   59MOL0     C 7689   0.600  -0.609  10.727 -0.0820  1.7280 -0.3864
   59MOL0     C 7690   0.602  -0.708  10.832 -0.2656  0.1627 -0.1528
   59MOL0     O 7691   0.732  -0.761  10.846  0.7107  0.1574 -0.1845
   59MOL0     C 7692   0.750  -0.860  10.953 -0.3233 -0.4881  0.1533
   59MOL0     C 7693   0.902  -0.896  10.946  0.5221 -0.0190 -0.2714
   59MOL0     C 7694   0.946  -1.008  11.040  0.1236  0.9113 -0.8599
   59MOL0     C 7695   0.875  -1.142  11.011 -0.4836  0.4039  0.3204
   59MOL0     C 7696   0.975  -1.251  11.026 -0.1731  0.3673  0.0254
   59MOL0     C 7697   0.901  -1.387  11.010 -0.2219  0.7365  0.5185
   59MOL0     C 7698   1.018  -1.487  11.010 -0.2375 -0.4429  0.1326
   59MOL0     C 7699   0.957  -1.629  11.023  0.5342 -0.2926 -0.3699
   59MOL0    Cl 7700   1.083  -1.747  11.005  0.0881  0.1596 -0.1822
   59MOL0     C 7701   0.495  -0.728  10.916 -0.0443  0.2007  0.5874
   59MOL0     C 7702   0.384  -0.643  10.899 -0.5567  0.7712  0.1490
   59MOL0     O 7703   0.113  -0.588  10.752  0.5010  0.0317 -0.2003
   59MOL0     C 7704  -0.036  -0.362  10.649  0.6087  0.2896  0.5238
   59MOL0     C 7705  -0.119  -0.261  10.621 -0.3430 -0.2855  0.0264
   59MOL0     N 7706  -0.473   0.470  10.966 -0.6663 -0.1702 -0.7157
   59MOL0     N 7707  -0.413   0.577  11.012  0.3493 -0.1352  0.5380
   59MOL0     C 7708   0.852   1.197  10.980 -0.9912 -0.9228 -0.2081
   59MOL0     C 7709   0.997   1.183  11.003  0.7364  0.1856 -0.2611
   59MOL0     C 7710   1.429   1.034  10.995 -1.1125  0.2267 -0.4886
   59MOL0     C 7711   1.454   1.064  11.128  0.9517  0.1636 -0.3853
   59MOL0     C 7712   1.585   1.065  11.182  0.3525 -0.8463 -0.2478
   59MOL0     C 7713   1.700   1.038  11.093  0.3518  0.2024 -0.5954
   59MOL0     O 7714   1.830   1.043  11.142 -0.2358 -0.3716 -0.5971
   59MOL0     C 7715   1.947   1.001  11.065 -0.4913  0.8893  0.4285
   59MOL0     C 7716   2.073   1.026  11.136 -0.5546 -0.5864 -0.3625
   59MOL0     C 7717   2.128   1.172  11.102  0.2224  0.5292  0.2333
   59MOL0     C 7718   2.277   1.187  11.122  0.5582  0.6956 -0.4510
   59MOL0     C 7719   2.299   1.197  11.271 -0.4162 -0.2064 -0.7266
   59MOL0     C 7720   2.335   1.239  11.380 -0.3474 -0.3833  0.5030
   59MOL0     C 7721   1.670   1.003  10.960  0.5462  0.2084 -1.1353
   59MOL0     C 7722   1.543   1.011  10.909 -0.4399 -0.2877 -1.2060
   59MOL0     H 7723   1.028   0.838  10.983 -0.4292  1.0151 -2.4310
   59MOL0     H 7724   0.799   0.863  10.919  0.1657 -0.4031 -0.1442
   59MOL0     H 7725   0.585   0.940  11.043  1.8935 -0.0838 -0.1746
   59MOL0     H 7726   0.557   0.922  10.864  1.5194  1.5150  0.5766
   59MOL0     H 7727   0.386   1.117  10.924 -4.6991 -0.7376  0.9716
   59MOL0     H 7728   0.400   1.051  11.082  2.9410  2.8840 -0.2355
   59MOL0     H 7729   0.324   0.830  11.013 -2.0562 -2.2777 -1.2445
   59MOL0     H 7730   0.326   0.875  10.837  1.0967  0.6413 -0.1072
   59MOL0     H 7731   0.168   0.988  11.060 -0.7626 -1.6070  0.0782
   59MOL0     H 7732   0.162   1.054  10.895 -0.1373  1.0395  1.0225
   59MOL0     H 7733   0.078   0.794  10.848 -0.1672 -1.7329  1.8407
   59MOL0     H 7734  -0.034   0.916  10.909 -0.8122 -3.5352  2.1108
   59MOL0     H 7735   0.006   0.838  11.146 -0.6567 -2.6835  1.9044
   59MOL0     H 7736   0.129   0.739  11.077 -0.1944  1.4361  4.7879
   59MOL0     H 7737  -0.013   0.585  10.982 -2.6515 -2.9542 -1.2271
   59MOL0     H 7738  -0.078   0.621  11.138  0.6413  1.2857  0.5005
   59MOL0     H 7739  -0.176   0.737  10.882  1.0228 -0.0748  0.4067
   59MOL0     H 7740  -0.232   0.777  11.057  0.6729 -0.3557  0.8948
   59MOL0     H 7741  -0.168   0.431  10.855  1.4017  2.7189 -1.1471
   59MOL0     H 7742  -0.390   0.263  10.718  0.2052  1.0371 -0.8213
   59MOL0     H 7743  -0.500   0.241  10.847  0.3623  2.0511 -0.7262
   59MOL0     H 7744  -0.390   0.058  10.882  1.2556 -0.3092  0.2110
   59MOL0     H 7745  -0.332   0.156  11.006  2.9066  1.9518 -0.2982
   59MOL0     H 7746  -0.133   0.221  10.894 -1.7396  0.5438  0.6293
   59MOL0     H 7747  -0.130   0.047  10.917  1.8644 -0.2470 -2.5490
   59MOL0     H 7748  -0.049   0.103  10.687 -0.4884  0.7541 -0.4896
   59MOL0     H 7749  -0.214   0.160  10.640  0.0359 -0.1503 -1.6424
   59MOL0     H 7750   0.060  -0.029  10.801 -1.3034 -0.6931  0.5199
   59MOL0     H 7751   0.206  -0.225  10.840 -0.0371 -0.8370  0.8453
   59MOL0     H 7752   0.507  -0.455  10.636  1.2314 -0.6909  0.4556
   59MOL0     H 7753   0.674  -0.581  10.653  1.4098  0.5011  0.5673
   59MOL0     H 7754   0.695  -0.951  10.928 -1.2916 -0.1539  0.9926
   59MOL0     H 7755   0.718  -0.825  11.051 -0.0087 -1.3280  0.5669
   59MOL0     H 7756   0.968  -0.808  10.951  1.6290 -0.8402  0.1505
   59MOL0     H 7757   0.915  -0.937  10.846 -0.4031 -2.0814  0.4007
   59MOL0     H 7758   0.934  -0.967  11.140  1.7929  0.6994 -0.5429
   59MOL0     H 7759   1.053  -1.024  11.026  0.5029 -1.7836  3.3557
   59MOL0     H 7760   0.790  -1.154  11.079 -0.2716  1.2232  0.7371
   59MOL0     H 7761   0.831  -1.150  10.911 -2.5661  2.4355  0.9687
   59MOL0     H 7762   1.026  -1.251  11.122 -3.4562  1.6689  1.9488
   59MOL0     H 7763   1.054  -1.239  10.951  0.4542  1.1412  0.8047
   59MOL0     H 7764   0.861  -1.397  10.908  0.6795 -1.1531  0.3119
   59MOL0     H 7765   0.825  -1.397  11.088 -0.9382 -0.9317 -0.3225
   59MOL0     H 7766   1.088  -1.477  10.927  1.5787 -0.2468  1.6133
   59MOL0     H 7767   1.070  -1.469  11.105 -1.5826  1.2671  0.5890
   59MOL0     H 7768   0.884  -1.636  10.942  2.0157 -0.2520 -1.7541
   59MOL0     H 7769   0.906  -1.629  11.120  0.5988 -2.0414 -0.2972
   59MOL0     H 7770   0.495  -0.801  10.996 -3.0914 -0.6729 -0.0644
   59MOL0     H 7771   0.300  -0.640  10.967 -1.3016  1.6377 -0.7853
   59MOL0     H 7772  -0.075  -0.457  10.615 -2.1410  0.6458  2.3843
   59MOL0     H 7773  -0.201  -0.272  10.550  1.4772 -1.7561 -1.9792
   59MOL0     H 7774   0.811   1.296  10.995 -1.4315 -0.8622 -1.6772
   59MOL0     H 7775   1.040   1.282  11.021  0.8867  0.3579 -1.5126
   59MOL0     H 7776   1.368   1.088  11.190  1.6418 -1.0013  1.0735
   59MOL0     H 7777   1.610   1.084  11.286  3.8589 -1.8828 -0.7905
   59MOL0     H 7778   1.956   1.057  10.972  0.0477 -3.7481 -2.6659
   59MOL0     H 7779   1.938   0.895  11.039 -1.5095  1.0378  0.1366
   59MOL0     H 7780   2.055   1.014  11.243 -0.8718  0.1110 -0.3337
   59MOL0     H 7781   2.154   0.958  11.108 -0.3636 -0.8742  0.8425
   59MOL0     H 7782   2.085   1.244  11.173  0.8615 -0.3870  1.5953
   59MOL0     H 7783   2.107   1.204  11.000  0.9395 -1.0548 -0.4432
   59MOL0     H 7784   2.333   1.104  11.078  0.8830  1.2209 -1.0504
   59MOL0     H 7785   2.311   1.277  11.069  1.1345  0.0018 -1.2847
   59MOL0     H 7786   2.375   1.265  11.475 -2.5444  3.5189  0.5713
   59MOL0     H 7787   1.747   0.976  10.889 -0.2930  1.4148 -2.5650
   59MOL0     H 7788   1.527   0.986  10.804  4.1084  0.5971 -2.2856
   60MOL0     O 7789   0.412   9.996   5.437 -0.3099  0.4427  0.2410
   60MOL0     C 7790   0.443   9.896   5.495  0.0497 -0.0477  0.2001
   60MOL0     O 7791   0.373   9.836   5.597 -0.6734  0.3703  0.3017
   60MOL0     C 7792   0.246   9.874   5.632 -0.1509  0.5637  0.2263
   60MOL0     C 7793   0.152   9.895   5.533  0.4806  0.1629 -0.2734
   60MOL0     C 7794   0.022   9.943   5.559  0.6582 -0.0063 -0.1232
   60MOL0     C 7795  -0.016   9.967   5.691  0.3942 -0.5463 -0.9076
   60MOL0     O 7796  -0.147  10.019   5.706  0.3543 -0.2969 -0.8035
   60MOL0     C 7797  -0.180  10.073   5.842 -0.4185 -0.0552  0.3601
   60MOL0     C 7798  -0.322  10.127   5.835  0.5130  0.0747  0.5749
   60MOL0     C 7799  -0.342  10.220   5.713 -0.7448 -0.3091  0.2998
   60MOL0     C 7800  -0.485  10.278   5.720 -0.0446 -0.2159 -0.0303
   60MOL0     C 7801  -0.593  10.167   5.695  0.2412  0.6316  0.6071
   60MOL0     C 7802  -0.719  10.237   5.707  0.2467  0.9443  0.3654
   60MOL0     C 7803  -0.838  10.142   5.680 -1.1955 -0.3419  0.3739
   60MOL0     C 7804  -0.967  10.221   5.655 -0.1333 -0.1493  0.0405
   60MOL0     N 7805  -1.075  10.115   5.657  0.2758 -0.2722 -0.5187
   60MOL0     C 7806  -1.097  10.032   5.561  0.5487  0.0695 -0.2526
   60MOL0     C 7807  -1.200   9.959   5.608  0.0605 -0.1546  0.2485
   60MOL0     C 7808  -1.262   9.829   5.551 -0.0130  0.0149 -0.1666
   60MOL0     C 7809  -1.410   9.809   5.561 -0.9662 -0.8887 -0.5023
   60MOL0     C 7810  -1.457   9.779   5.704  0.3821 -0.4534  0.5394
   60MOL0     C 7811  -1.609   9.759   5.718 -0.0604 -0.3764 -0.3662
   60MOL0     O 7812  -1.677   9.731   5.597 -0.3649  0.4153  0.6387
   60MOL0     C 7813  -1.809   9.744   5.578 -0.2301  0.0794 -0.0136
   60MOL0     C 7814  -1.904   9.744   5.684 -0.1169  0.6107  0.2419
   60MOL0     C 7815  -2.035   9.743   5.659 -0.0151  0.2260 -0.1266
   60MOL0     C 7816  -2.081   9.750   5.522  0.0583 -0.2787 -0.3932
   60MOL0     C 7817  -2.227   9.764   5.495 -0.0094 -0.0335  0.0904
   60MOL0     O 7818  -2.274   9.763   5.364 -0.1485  0.6716  0.3316
   60MOL0     C 7819  -2.404   9.760   5.318 -1.0596 -0.0439 -0.2689
   60MOL0     C 7820  -2.436   9.689   5.203  0.2765  0.0444  0.0786
   60MOL0     C 7821  -2.571   9.685   5.163 -0.5334 -0.7743 -0.3645
   60MOL0     C 7822  -2.671   9.752   5.240 -0.4744 -0.2502  0.1569
   60MOL0     O 7823  -2.800   9.776   5.190 -1.0311 -0.0954  0.3125
   60MOL0     C 7824  -2.824   9.811   5.055 -0.0421 -0.3014  0.0266
   60MOL0     C 7825  -2.957   9.762   5.000 -0.3354 -0.9676 -0.0142
   60MOL0     C 7826  -3.078   9.780   5.094  0.7748  0.3714  0.1205
   60MOL0     C 7827  -3.221   9.760   5.036 -0.1128  0.1287 -0.4342
   60MOL0     C 7828  -3.259   9.876   4.930  0.3658  0.5912  0.0029
   60MOL0     C 7829  -3.274  10.013   4.997  0.0525  0.6725  1.1764
   60MOL0     C 7830  -3.263  10.126   4.892  0.3332 -0.2731  0.2301
   60MOL0     C 7831  -3.117  10.162   4.855 -1.4997  0.4652  1.0779
   60MOL0    Cl 7832  -3.017  10.210   4.995 -0.5140  0.0611  0.0288
   60MOL0     C 7833  -2.639   9.828   5.350 -0.2214  0.4501 -0.8950
   60MOL0     C 7834  -2.501   9.829   5.385 -0.0820 -0.7491 -0.3566
   60MOL0     O 7835  -2.300   9.767   5.594 -0.1587 -0.4533  0.3950
   60MOL0     C 7836  -1.995   9.758   5.417  0.7857 -1.0749  0.0002
   60MOL0     C 7837  -1.858   9.755   5.448  0.2747  0.8569  0.4909
   60MOL0     N 7838  -1.254  10.010   5.729  0.4575 -0.2200  0.4476
   60MOL0     N 7839  -1.171  10.098   5.756 -0.3673 -0.8687 -0.5846
   60MOL0     C 7840   0.076   9.951   5.794 -0.3847  0.1182 -0.4185
   60MOL0     C 7841   0.210   9.900   5.768  0.0390 -0.4104  0.6920
   60MOL0     C 7842   0.566   9.826   5.444  0.2343  0.3667  0.3059
   60MOL0     C 7843   0.644   9.747   5.528  0.4215  0.7589 -0.7127
   60MOL0     C 7844   0.769   9.687   5.491  0.7306  0.4367 -0.5675
   60MOL0     C 7845   0.808   9.707   5.361 -0.6267  0.3412 -0.9339
   60MOL0     O 7846   0.925   9.654   5.331 -0.6391  0.1225 -0.6537
   60MOL0     C 7847   1.016   9.716   5.225  0.7925  0.6774 -0.4251
   60MOL0     C 7848   1.130   9.617   5.171  0.2493 -0.7573 -0.1934
   60MOL0     C 7849   1.230   9.605   5.299  0.5074  0.4139  0.4549
   60MOL0     C 7850   1.345   9.511   5.270  0.2957 -0.3393  0.1568
   60MOL0     C 7851   1.419   9.553   5.147  0.5642 -0.6196 -0.6121
   60MOL0     C 7852   1.475   9.598   5.049  0.1854  0.5662  0.2372
   60MOL0     C 7853   0.732   9.778   5.275  1.0553  1.1109 -0.1529
   60MOL0     C 7854   0.605   9.840   5.306 -0.7724 -0.4665 -0.6306
   60MOL0     H 7855   0.179   9.875   5.430  1.7465 -0.3237  0.1369
   60MOL0     H 7856  -0.059   9.951   5.487 -2.2111 -3.7942  2.2893
   60MOL0     H 7857  -0.115  10.154   5.874 -0.0881  1.2011 -3.0468
   60MOL0     H 7858  -0.174   9.997   5.920  0.7570  0.8252  1.1596
   60MOL0     H 7859  -0.343  10.175   5.931 -3.5625  1.7959 -0.9228
   60MOL0     H 7860  -0.396  10.047   5.829 -0.0612  0.5042  1.6688
   60MOL0     H 7861  -0.334  10.171   5.616 -0.3605 -1.5270  0.9180
   60MOL0     H 7862  -0.263  10.296   5.715 -0.3610 -0.7098  0.7588
   60MOL0     H 7863  -0.515  10.319   5.816 -3.5609 -1.1008 -0.5785
   60MOL0     H 7864  -0.499  10.356   5.645 -1.6035 -0.7683 -0.3469
   60MOL0     H 7865  -0.591  10.085   5.767 -1.3957 -0.7483 -0.8165
   60MOL0     H 7866  -0.586  10.130   5.592 -0.7964 -0.0045  0.7527
   60MOL0     H 7867  -0.711  10.325   5.643  1.9184  1.3868  1.1406
   60MOL0     H 7868  -0.725  10.283   5.806 -2.2994  0.6076  0.4429
   60MOL0     H 7869  -0.822  10.085   5.588 -2.9110 -2.6779  1.4258
   60MOL0     H 7870  -0.834  10.069   5.762  0.4461  1.8152  2.3509
   60MOL0     H 7871  -0.975  10.268   5.557 -0.4947 -2.6113 -1.1625
   60MOL0     H 7872  -0.980  10.293   5.737  1.8858  0.5053 -0.1698
   60MOL0     H 7873  -1.054  10.025   5.462 -1.1696  0.6807 -1.0782
   60MOL0     H 7874  -1.210   9.754   5.612 -0.3619  1.5759  2.2025
   60MOL0     H 7875  -1.220   9.815   5.451  1.3170  0.8217  0.2446
   60MOL0     H 7876  -1.428   9.730   5.487 -0.1045  0.5628 -2.3443
   60MOL0     H 7877  -1.457   9.902   5.531 -1.5629 -1.5626 -1.7417
   60MOL0     H 7878  -1.413   9.682   5.727  1.2668 -1.5737 -4.5957
   60MOL0     H 7879  -1.433   9.856   5.777 -3.9449  1.6384  0.0888
   60MOL0     H 7880  -1.641   9.858   5.751  1.2580  1.3854 -3.9107
   60MOL0     H 7881  -1.623   9.683   5.796 -0.0580  0.6733  0.6822
   60MOL0     H 7882  -1.882   9.730   5.789 -0.8818 -2.0875  0.1231
   60MOL0     H 7883  -2.102   9.731   5.743  1.3339 -0.0314  0.9340
   60MOL0     H 7884  -2.359   9.640   5.144  1.3308  2.9707 -1.2087
   60MOL0     H 7885  -2.600   9.639   5.069 -1.2521 -2.2303  0.5284
   60MOL0     H 7886  -2.738   9.780   4.994 -0.3464 -0.4917 -0.3076
   60MOL0     H 7887  -2.828   9.920   5.056 -0.1053 -0.3038 -0.0280
   60MOL0     H 7888  -2.950   9.655   4.979 -2.6893 -0.8174 -1.9651
   60MOL0     H 7889  -2.973   9.809   4.903  4.0301 -0.4144 -0.6750
   60MOL0     H 7890  -3.074   9.882   5.134  1.6737  1.5231 -2.6773
   60MOL0     H 7891  -3.072   9.710   5.178  2.8075 -1.2176 -1.2721
   60MOL0     H 7892  -3.227   9.662   4.987 -0.8780  1.2180 -2.6728
   60MOL0     H 7893  -3.291   9.754   5.119  0.0732 -1.3198 -0.3513
   60MOL0     H 7894  -3.354   9.847   4.885 -0.4271 -0.2493  2.0864
   60MOL0     H 7895  -3.174   9.873   4.861  0.8897  0.8348  0.6235
   60MOL0     H 7896  -3.209  10.039   5.081  1.0930  2.4997 -0.1155
   60MOL0     H 7897  -3.371  10.025   5.046 -1.7939 -0.9382 -1.8006
   60MOL0     H 7898  -3.317  10.103   4.800 -0.9348 -1.0830  1.1292
   60MOL0     H 7899  -3.309  10.214   4.939 -2.0580 -0.2976 -1.8570
   60MOL0     H 7900  -3.125  10.238   4.776 -0.9388 -0.8746 -0.3083
   60MOL0     H 7901  -3.070  10.077   4.805  1.0179  0.6621  2.9228
   60MOL0     H 7902  -2.709   9.894   5.400 -0.7257  2.1294 -3.6454
   60MOL0     H 7903  -2.459   9.885   5.468  1.9821 -0.6757 -1.3729
   60MOL0     H 7904  -2.025   9.767   5.313  2.8938 -0.2968 -0.6039
   60MOL0     H 7905  -1.784   9.763   5.369 -3.0828 -1.2292 -3.2212
   60MOL0     H 7906   0.051   9.976   5.897 -1.2960 -0.7443 -0.4063
   60MOL0     H 7907   0.286   9.881   5.843  0.2120 -0.7639  0.4284
   60MOL0     H 7908   0.615   9.726   5.631  2.0421 -0.7634 -0.5166
   60MOL0     H 7909   0.832   9.635   5.563 -1.0964 -1.1975 -0.0724
   60MOL0     H 7910   1.052   9.814   5.259  0.2726  0.3582  1.0753
   60MOL0     H 7911   0.956   9.742   5.137  1.3314 -0.3738 -1.1280
   60MOL0     H 7912   1.079   9.523   5.148  0.6867 -1.1394  0.3767
   60MOL0     H 7913   1.179   9.666   5.087 -3.3924 -0.2889 -2.2726
   60MOL0     H 7914   1.170   9.562   5.380  1.3249 -2.1818 -0.1938
   60MOL0     H 7915   1.278   9.701   5.319  0.4692  1.3291 -3.1585
   60MOL0     H 7916   1.412   9.510   5.357 -0.0841 -0.5938  0.4510
   60MOL0     H 7917   1.305   9.411   5.252  0.5941 -0.7193  1.4947
   60MOL0     H 7918   1.519   9.634   4.959  1.7904 -0.3605  0.6233
   60MOL0     H 7919   0.761   9.781   5.171 -1.4363  2.7076 -0.8864
   60MOL0     H 7920   0.551   9.890   5.226 -3.5738  2.1229  2.5697
   61MOL0     O 7921   5.011  10.046   7.352 -0.2919 -0.0063 -0.1188
   61MOL0     C 7922   5.073  10.096   7.443 -0.7269  0.3527 -0.4165
   61MOL0     O 7923   5.032  10.107   7.579  0.5473  1.0459  0.1653
   61MOL0     C 7924   4.902  10.076   7.611  0.5289  0.5556  0.2776
   61MOL0     C 7925   4.859   9.951   7.644  0.0640 -0.0168  0.7139
   61MOL0     C 7926   4.719   9.935   7.683 -0.2726  1.0982  0.3086
   61MOL0     C 7927   4.638  10.050   7.698  0.0798 -0.0541 -0.0704
   61MOL0     O 7928   4.509  10.040   7.730  0.1046 -0.7631  0.3634
   61MOL0     C 7929   4.475   9.995   7.859 -1.0157 -0.1143  0.3443
   61MOL0     C 7930   4.324  10.013   7.891  0.3214  0.3772 -0.1154
   61MOL0     C 7931   4.241   9.919   7.807  0.1381 -0.5390 -0.4335
   61MOL0     C 7932   4.098   9.972   7.790  0.6951  0.5586  0.3630
   61MOL0     C 7933   4.011   9.894   7.689 -1.5151 -0.1565 -0.5444
   61MOL0     C 7934   3.963   9.762   7.741  0.4021  0.0632  0.1127
   61MOL0     C 7935   3.864   9.766   7.860  0.3442 -0.1581 -0.2948
   61MOL0     C 7936   3.723   9.801   7.798 -0.1057 -0.4715  0.3685
   61MOL0     N 7937   3.623   9.794   7.911 -0.4554 -0.1510 -0.0616
   61MOL0     C 7938   3.589   9.685   7.984  0.2679 -0.1507 -0.4334
   61MOL0     C 7939   3.525   9.738   8.090  0.1393  0.6642 -0.0428
   61MOL0     C 7940   3.478   9.665   8.213 -0.4315  0.2840 -1.0388
   61MOL0     C 7941   3.340   9.704   8.271 -0.0930  0.6913  0.0317
   61MOL0     C 7942   3.219   9.633   8.209  0.0890  0.7418 -0.2865
   61MOL0     C 7943   3.185   9.506   8.290 -0.2359  0.4862 -0.2938
   61MOL0     O 7944   3.115   9.548   8.411 -0.4103  0.1426  0.1993
   61MOL0     C 7945   3.020   9.461   8.450  0.0991 -0.6525 -0.0354
   61MOL0     C 7946   2.899   9.471   8.388  0.3170  0.6847 -0.2409
   61MOL0     C 7947   2.788   9.394   8.432  0.4929 -1.2167  0.7003
   61MOL0     C 7948   2.800   9.299   8.539  0.1160  0.0257  0.8619
   61MOL0     C 7949   2.683   9.209   8.578 -0.0389 -1.6758 -0.4531
   61MOL0     O 7950   2.568   9.252   8.529  0.1138 -0.4971 -0.1165
   61MOL0     C 7951   2.470   9.162   8.546  0.3659 -0.0287 -0.2798
   61MOL0     C 7952   2.404   9.142   8.670 -0.2517 -0.0783 -0.7744
   61MOL0     C 7953   2.298   9.058   8.694  0.3962  0.2763  0.3176
   61MOL0     C 7954   2.244   8.984   8.580 -0.1278  0.3328 -0.4435
   61MOL0     O 7955   2.143   8.894   8.597 -0.5578  0.0323 -0.3252
   61MOL0     C 7956   2.153   8.768   8.525 -0.0767  0.2544 -0.9779
   61MOL0     C 7957   2.078   8.666   8.602 -0.4661 -0.2143  0.3919
   61MOL0     C 7958   1.925   8.684   8.603 -0.6898  0.3268 -1.2083
   61MOL0     C 7959   1.859   8.549   8.628 -0.0019 -0.1459 -0.8183
   61MOL0     C 7960   1.709   8.571   8.673 -0.3819  0.4018  1.1417
   61MOL0     C 7961   1.636   8.438   8.709 -0.3821  0.7946  0.6189
   61MOL0     C 7962   1.488   8.470   8.742  0.2928 -0.5898  0.1184
   61MOL0     C 7963   1.408   8.343   8.769 -0.3563  0.3099  0.9040
   61MOL0    Cl 7964   1.491   8.236   8.887 -0.0294  0.0699 -0.0248
   61MOL0     C 7965   2.310   9.007   8.455  0.1445 -1.0168  1.0506
   61MOL0     C 7966   2.407   9.099   8.436 -0.2017 -0.1292 -0.2281
   61MOL0     O 7967   2.698   9.119   8.656 -0.1851  0.2151  0.9810
   61MOL0     C 7968   2.924   9.292   8.601 -0.3055  0.8779  0.3213
   61MOL0     C 7969   3.032   9.372   8.557 -0.1434  0.4888  0.2972
   61MOL0     N 7970   3.508   9.866   8.073  0.1766  0.0053  0.0467
   61MOL0     N 7971   3.570   9.905   7.964 -0.0396  0.2626 -0.3088
   61MOL0     C 7972   4.693  10.173   7.668  0.0655  0.5792  0.9212
   61MOL0     C 7973   4.820  10.185   7.618  0.3885 -0.2733 -0.6120
   61MOL0     C 7974   5.201  10.165   7.402 -0.2712 -0.5088 -0.6860
   61MOL0     C 7975   5.255  10.146   7.268  0.0112 -0.7897 -0.2966
   61MOL0     C 7976   5.392  10.165   7.240  0.1867 -0.0392 -0.2594
   61MOL0     C 7977   5.474  10.203   7.345  0.7004  0.6112 -0.5830
   61MOL0     O 7978   5.609  10.209   7.342 -0.0383 -0.1467  0.5959
   61MOL0     C 7979   5.679  10.143   7.236 -0.0971  0.2979  0.0209
   61MOL0     C 7980   5.829  10.144   7.279 -0.3665  0.4183  0.9148
   61MOL0     C 7981   5.858  10.054   7.405  0.2820 -0.3361 -0.2256
   61MOL0     C 7982   5.884   9.908   7.385  0.2059 -1.4121 -0.3408
   61MOL0     C 7983   5.766   9.838   7.336  0.5513 -0.3055 -0.4916
   61MOL0     C 7984   5.668   9.771   7.301  0.1970  0.1734  0.9393
   61MOL0     C 7985   5.418  10.234   7.471 -0.0385  0.2966 -0.3672
   61MOL0     C 7986   5.280  10.221   7.496 -0.3011  0.5026 -0.8504
   61MOL0     H 7987   4.924   9.864   7.636  1.6370  1.2504 -1.3279
   61MOL0     H 7988   4.672   9.839   7.703 -1.5374  1.7305  0.5180
   61MOL0     H 7989   4.535  10.070   7.911 -1.1803  2.2531 -2.6283
   61MOL0     H 7990   4.519   9.896   7.879  0.7335  1.0485  2.7912
   61MOL0     H 7991   4.291  10.114   7.866 -1.3598 -0.8251 -3.3448
   61MOL0     H 7992   4.314  10.000   7.999 -0.8051  4.8127  0.5193
   61MOL0     H 7993   4.224   9.821   7.851 -1.4069 -0.5437 -0.9972
   61MOL0     H 7994   4.285   9.920   7.707  2.3083  2.8531  0.4017
   61MOL0     H 7995   4.043   9.972   7.885  0.6867 -0.1388  0.3694
   61MOL0     H 7996   4.097  10.067   7.737 -1.3434  0.1785 -0.3880
   61MOL0     H 7997   4.065   9.877   7.596 -0.5670  2.2469 -0.5069
   61MOL0     H 7998   3.931   9.962   7.657  0.6660  3.3012  0.7069
   61MOL0     H 7999   4.050   9.707   7.777  2.1527  1.2836 -2.0414
   61MOL0     H 8000   3.911   9.709   7.661  0.4039  2.0010 -1.2444
   61MOL0     H 8001   3.848   9.668   7.906 -3.0867  0.9449  1.1620
   61MOL0     H 8002   3.896   9.842   7.932  1.0349  1.1259 -1.8878
   61MOL0     H 8003   3.692   9.721   7.729 -0.2934 -0.8921  0.9338
   61MOL0     H 8004   3.725   9.897   7.747  3.0284  0.1054  1.3940
   61MOL0     H 8005   3.610   9.579   7.971  0.3202  0.0014 -1.7687
   61MOL0     H 8006   3.548   9.691   8.292 -2.0967  1.4056  0.1424
   61MOL0     H 8007   3.480   9.556   8.200  0.2296  0.4775 -2.8796
   61MOL0     H 8008   3.320   9.811   8.263 -1.0494  0.3871 -3.3718
   61MOL0     H 8009   3.350   9.699   8.380  3.7550  1.0182 -0.1639
   61MOL0     H 8010   3.127   9.690   8.197 -0.4373  0.1226  0.7380
   61MOL0     H 8011   3.242   9.599   8.108 -3.1078  0.6139 -1.0723
   61MOL0     H 8012   3.276   9.456   8.324 -0.2614  1.0783  0.6967
   61MOL0     H 8013   3.129   9.440   8.224 -0.3555  0.2928  0.0001
   61MOL0     H 8014   2.883   9.531   8.299 -0.9655 -1.4559 -1.5529
   61MOL0     H 8015   2.701   9.413   8.370  0.5652  2.5013  1.5463
   61MOL0     H 8016   2.445   9.188   8.759 -0.1425 -2.2301  0.3503
   61MOL0     H 8017   2.247   9.041   8.788 -2.1827 -0.1556 -1.0639
   61MOL0     H 8018   2.251   8.727   8.502  0.0313 -0.1625  0.1555
   61MOL0     H 8019   2.115   8.787   8.424 -2.2702  3.8244  0.2985
   61MOL0     H 8020   2.125   8.654   8.700 -3.2231  2.7766  2.2685
   61MOL0     H 8021   2.093   8.577   8.540 -0.7521  0.6514 -0.9690
   61MOL0     H 8022   1.903   8.723   8.503 -0.2662 -0.5312 -1.6483
   61MOL0     H 8023   1.893   8.755   8.679  2.4614  1.4545 -0.8010
   61MOL0     H 8024   1.861   8.484   8.540  0.5046  0.8677 -1.5762
   61MOL0     H 8025   1.913   8.497   8.707  0.6621 -1.2108 -1.9387
   61MOL0     H 8026   1.662   8.611   8.582 -0.8150 -1.5510  0.4547
   61MOL0     H 8027   1.713   8.648   8.751  1.2904  4.0273 -2.1337
   61MOL0     H 8028   1.688   8.401   8.798 -2.8961 -1.0836  1.4032
   61MOL0     H 8029   1.651   8.363   8.631  0.1976  0.3171  1.1843
   61MOL0     H 8030   1.485   8.537   8.828  0.4295  1.3783 -1.3329
   61MOL0     H 8031   1.453   8.534   8.661  0.5703 -0.9109 -0.2573
   61MOL0     H 8032   1.393   8.298   8.670 -2.8137  3.0348 -0.0995
   61MOL0     H 8033   1.309   8.370   8.806  0.1148  1.7061  1.2387
   61MOL0     H 8034   2.279   8.962   8.361  1.3896  1.9001 -0.9060
   61MOL0     H 8035   2.447   9.124   8.339 -0.2643  0.7978 -0.0263
   61MOL0     H 8036   2.939   9.220   8.681  2.0469 -1.0470 -1.7154
   61MOL0     H 8037   3.132   9.370   8.600 -0.1500 -0.1000  0.2996
   61MOL0     H 8038   4.622  10.253   7.679  0.1607  0.6282  1.1773
   61MOL0     H 8039   4.866  10.282   7.607  1.6294 -0.8308 -0.5856
   61MOL0     H 8040   5.189  10.095   7.199 -0.4085  1.2050 -1.4609
   61MOL0     H 8041   5.432  10.150   7.140  1.3399  1.4420 -0.0494
   61MOL0     H 8042   5.665  10.177   7.133 -3.1099 -1.2857 -0.2266
   61MOL0     H 8043   5.652  10.037   7.237 -0.3516  0.3368  1.8567
   61MOL0     H 8044   5.888  10.099   7.198 -0.1200 -1.8510  2.2562
   61MOL0     H 8045   5.861  10.249   7.281 -0.0220  0.3735 -0.9483
   61MOL0     H 8046   5.771  10.059   7.471  0.0630 -1.4856 -0.4031
   61MOL0     H 8047   5.941  10.081   7.471  0.2801  1.3640 -0.8611
   61MOL0     H 8048   5.971   9.899   7.319 -0.6319 -1.0467 -1.5327
   61MOL0     H 8049   5.907   9.859   7.480  2.0163  0.6618  0.3656
   61MOL0     H 8050   5.573   9.722   7.297  1.2273 -2.0868  2.2864
   61MOL0     H 8051   5.485  10.250   7.555  1.3756  4.0703 -1.9754
   61MOL0     H 8052   5.242  10.229   7.598  0.8093 -1.2212 -0.2616
   62MOL0     O 8053   2.495   2.699   5.503  0.3051  0.3904 -0.1318
   62MOL0     C 8054   2.487   2.692   5.381 -0.7646 -0.6428 -0.1564
   62MOL0     O 8055   2.389   2.619   5.305 -0.8451  0.3184  0.2057
   62MOL0     C 8056   2.282   2.571   5.363 -0.7429 -0.4381 -0.1280
   62MOL0     C 8057   2.280   2.455   5.437 -0.4497  0.2312  0.2058
   62MOL0     C 8058   2.166   2.408   5.506  0.1871  0.0403 -0.1563
   62MOL0     C 8059   2.053   2.480   5.491  0.3794  0.9136 -0.3232
   62MOL0     O 8060   1.940   2.421   5.560  0.2430 -0.6392 -0.2181
   62MOL0     C 8061   1.823   2.504   5.558 -0.1726  0.0626  0.2128
   62MOL0     C 8062   1.706   2.416   5.602  0.0398  0.6960 -0.9864
   62MOL0     C 8063   1.573   2.497   5.612 -0.4377  0.4435 -0.0437
   62MOL0     C 8064   1.533   2.583   5.496  0.4796 -0.3306  0.6056
   62MOL0     C 8065   1.392   2.624   5.530  0.1051 -0.1653 -0.3939
   62MOL0     C 8066   1.316   2.731   5.447 -0.1750 -0.7818  0.3055
   62MOL0     C 8067   1.165   2.748   5.484 -0.1787 -0.6054 -0.2870
   62MOL0     C 8068   1.114   2.851   5.380 -0.7214  0.2729 -0.0352
   62MOL0     N 8069   0.980   2.895   5.413 -0.5227 -0.4479  0.3445
   62MOL0     C 8070   0.863   2.815   5.398 -1.0424 -0.5943 -0.6269
   62MOL0     C 8071   0.762   2.907   5.388 -0.5675  0.5574  0.3073
   62MOL0     C 8072   0.630   2.862   5.347  0.8187  0.1434  1.0607
   62MOL0     C 8073   0.517   2.967   5.372  1.1002  0.2323  0.2935
   62MOL0     C 8074   0.387   2.905   5.426 -0.0890 -0.4953 -0.2526
   62MOL0     C 8075   0.271   3.009   5.427  0.3098 -0.0963 -0.4722
   62MOL0     O 8076   0.217   3.028   5.296 -0.7419 -0.3520  0.3597
   62MOL0     C 8077   0.078   3.004   5.287 -0.7487  0.1170  0.4125
   62MOL0     C 8078   0.037   2.924   5.186  0.6796 -0.1048  0.3812
   62MOL0     C 8079  -0.100   2.906   5.154 -0.6220  0.0960 -0.2649
   62MOL0     C 8080  -0.195   2.986   5.226 -1.0959 -0.1388 -0.5754
   62MOL0     C 8081  -0.340   2.982   5.185  0.0642 -0.4405  0.4317
   62MOL0     O 8082  -0.386   2.894   5.092 -0.1554  0.0247 -0.1672
   62MOL0     C 8083  -0.515   2.896   5.039  0.1174 -0.0828  0.5691
   62MOL0     C 8084  -0.536   2.801   4.936 -0.0493  1.0362  0.1807
   62MOL0     C 8085  -0.659   2.775   4.872  0.2357 -0.1544 -0.1736
   62MOL0     C 8086  -0.767   2.865   4.912  0.7352 -0.6345 -0.4236
   62MOL0     O 8087  -0.894   2.853   4.851 -0.3342 -0.7258 -0.0457
   62MOL0     C 8088  -0.935   2.760   4.751  0.0404  0.2273  0.3261
   62MOL0     C 8089  -1.081   2.779   4.725 -0.0865  0.0251  0.8001
   62MOL0     C 8090  -1.131   2.642   4.673 -0.2422  0.1759 -1.0028
   62MOL0     C 8091  -1.276   2.644   4.642 -0.1584 -0.7072 -0.8351
   62MOL0     C 8092  -1.318   2.744   4.533  0.1302 -0.0797  0.7560
   62MOL0     C 8093  -1.462   2.717   4.490  0.7339  0.9507  0.3389
   62MOL0     C 8094  -1.571   2.758   4.591 -0.4031  0.2450 -0.2020
   62MOL0     C 8095  -1.627   2.898   4.565 -0.0280  0.4811 -0.2401
   62MOL0    Cl 8096  -1.516   3.032   4.610  0.2229  0.1153  0.2428
   62MOL0     C 8097  -0.745   2.967   5.005 -0.1749 -0.4147  0.3804
   62MOL0     C 8098  -0.624   2.987   5.069  0.5195 -0.6357  0.2934
   62MOL0     O 8099  -0.411   3.064   5.240 -0.8175 -0.5597 -0.5542
   62MOL0     C 8100  -0.143   3.069   5.337 -0.2165  0.3480 -0.6678
   62MOL0     C 8101  -0.011   3.072   5.373 -1.2405  0.0980 -0.6658
   62MOL0     N 8102   0.826   3.036   5.389  0.5660  0.3319  0.5578
   62MOL0     N 8103   0.953   3.027   5.408  0.8021  0.6135 -0.5598
   62MOL0     C 8104   2.051   2.599   5.409 -0.1725  0.2259 -0.1760
   62MOL0     C 8105   2.163   2.638   5.343 -0.3447 -0.6481  0.9698
   62MOL0     C 8106   2.590   2.753   5.297  0.5956 -0.3848  0.3153
   62MOL0     C 8107   2.706   2.820   5.353 -0.0499 -0.0519  1.0191
   62MOL0     C 8108   2.795   2.887   5.273  0.5080 -0.3798  0.3159
   62MOL0     C 8109   2.780   2.871   5.132 -0.3410 -0.3132 -0.1926
   62MOL0     O 8110   2.880   2.925   5.049  0.4146  0.6065 -0.2992
   62MOL0     C 8111   2.886   2.874   4.914 -0.2418  0.3409  0.1102
   62MOL0     C 8112   2.940   2.734   4.911  0.4534  0.1148  0.7780
   62MOL0     C 8113   2.969   2.688   4.771 -0.5415  0.1230  1.4437
   62MOL0     C 8114   3.126   2.706   4.743  0.5362  0.4382  0.4478
   62MOL0     C 8115   3.189   2.840   4.755  0.2425  0.9632 -0.2988
   62MOL0     C 8116   3.245   2.954   4.755 -0.4399  0.1993  0.7337
   62MOL0     C 8117   2.676   2.809   5.079  0.0757 -0.0886 -0.6112
   62MOL0     C 8118   2.582   2.749   5.158  1.0244 -0.5662  0.4014
   62MOL0     H 8119   2.371   2.397   5.448  0.9340  2.1638 -0.5520
   62MOL0     H 8120   2.177   2.319   5.566  4.7825 -1.3106 -2.5324
   62MOL0     H 8121   1.804   2.544   5.458  0.7283 -1.5509 -0.6521
   62MOL0     H 8122   1.835   2.583   5.633  0.5365 -0.2888  0.4777
   62MOL0     H 8123   1.729   2.369   5.698  0.0536 -2.6708 -2.4887
   62MOL0     H 8124   1.693   2.344   5.521  0.2911  0.4893 -0.8413
   62MOL0     H 8125   1.579   2.553   5.706  2.2987 -1.1216  0.8346
   62MOL0     H 8126   1.489   2.428   5.625 -1.2645  1.6156  1.0434
   62MOL0     H 8127   1.598   2.668   5.476 -0.9088  0.5417 -0.4285
   62MOL0     H 8128   1.536   2.527   5.402  0.4770 -2.0618  1.5855
   62MOL0     H 8129   1.384   2.659   5.633 -2.7007  1.0833 -0.9255
   62MOL0     H 8130   1.325   2.538   5.518  0.3445 -0.4747  0.4347
   62MOL0     H 8131   1.326   2.703   5.342  2.1213 -0.3131  0.3424
   62MOL0     H 8132   1.371   2.826   5.457 -0.4840 -0.5072 -0.5380
   62MOL0     H 8133   1.115   2.651   5.484  1.1364 -1.3764  2.4233
   62MOL0     H 8134   1.147   2.796   5.580  1.0071  1.6985 -1.1492
   62MOL0     H 8135   1.118   2.813   5.278  2.1443 -1.6926  0.6693
   62MOL0     H 8136   1.183   2.936   5.367  0.7031 -0.5949  1.4497
   62MOL0     H 8137   0.841   2.710   5.382  0.3972 -0.8518 -1.0372
   62MOL0     H 8138   0.596   2.774   5.402  1.4987 -0.1052  1.0848
   62MOL0     H 8139   0.626   2.846   5.239  2.1004  0.9289  0.8805
   62MOL0     H 8140   0.502   3.017   5.275 -0.9832  0.8088  0.8602
   62MOL0     H 8141   0.546   3.037   5.451 -0.0054  1.4398 -0.3308
   62MOL0     H 8142   0.370   2.819   5.360  0.8797  0.0453 -1.2388
   62MOL0     H 8143   0.399   2.867   5.528 -3.9121 -2.4902 -0.3727
   62MOL0     H 8144   0.304   3.105   5.465  0.1698  0.1186 -0.8822
   62MOL0     H 8145   0.193   2.979   5.497 -0.5337  2.2586 -0.3176
   62MOL0     H 8146   0.119   2.866   5.144  1.9264  1.4696  0.5544
   62MOL0     H 8147  -0.136   2.844   5.072 -0.2873 -3.9726  2.3966
   62MOL0     H 8148  -0.465   2.727   4.900 -1.6746 -1.5259  1.8973
   62MOL0     H 8149  -0.686   2.696   4.803 -1.0510  1.3681 -1.5089
   62MOL0     H 8150  -0.920   2.662   4.798 -2.4308 -1.2596 -1.7249
   62MOL0     H 8151  -0.874   2.760   4.661 -1.1525 -1.9931 -0.5626
   62MOL0     H 8152  -1.095   2.856   4.647  0.3141  1.3695  2.0119
   62MOL0     H 8153  -1.138   2.814   4.811 -0.1492  2.2083 -0.0510
   62MOL0     H 8154  -1.122   2.563   4.748 -0.1550  0.6476 -0.5124
   62MOL0     H 8155  -1.082   2.610   4.580 -0.7959 -0.3067 -1.1426
   62MOL0     H 8156  -1.307   2.541   4.624  0.5254 -1.2258  0.7946
   62MOL0     H 8157  -1.326   2.680   4.733 -0.8701 -1.5002 -0.9055
   62MOL0     H 8158  -1.255   2.728   4.445 -0.1561  0.4087  0.4512
   62MOL0     H 8159  -1.305   2.848   4.566 -0.7044  0.3032 -0.0497
   62MOL0     H 8160  -1.463   2.608   4.488 -1.1468  0.7603  3.5543
   62MOL0     H 8161  -1.486   2.750   4.389  0.9991  0.1465  0.0043
   62MOL0     H 8162  -1.666   2.702   4.593 -0.1550 -0.2736 -1.6061
   62MOL0     H 8163  -1.522   2.750   4.688 -0.3623  1.2508 -0.1378
   62MOL0     H 8164  -1.716   2.901   4.629 -1.0119  0.6461 -1.5811
   62MOL0     H 8165  -1.652   2.907   4.459  0.8374  0.1143 -0.4827
   62MOL0     H 8166  -0.829   3.033   5.027  1.6668  2.0904  0.3552
   62MOL0     H 8167  -0.615   3.068   5.141  2.1554 -0.9288  0.4675
   62MOL0     H 8168  -0.217   3.117   5.400  0.1718 -1.5216  1.3548
   62MOL0     H 8169   0.023   3.140   5.450 -1.2077  2.8097 -2.8819
   62MOL0     H 8170   1.964   2.660   5.386  0.2838  1.5026  1.3390
   62MOL0     H 8171   2.171   2.723   5.276  2.8255 -1.4397  0.1943
   62MOL0     H 8172   2.734   2.825   5.458  0.5794  0.9422  0.8183
   62MOL0     H 8173   2.886   2.932   5.310  1.1987 -0.8904 -0.6988
   62MOL0     H 8174   2.965   2.938   4.875 -0.6833  0.6808 -0.2307
   62MOL0     H 8175   2.798   2.887   4.850  0.6699 -1.8714 -1.7848
   62MOL0     H 8176   3.027   2.734   4.978 -0.0099 -0.0217  1.3970
   62MOL0     H 8177   2.867   2.667   4.959  1.7778 -3.3836 -1.6477
   62MOL0     H 8178   2.914   2.749   4.698  2.5130  0.6900 -0.6080
   62MOL0     H 8179   2.944   2.583   4.757 -1.5170  0.7475 -3.2545
   62MOL0     H 8180   3.168   2.624   4.802 -3.2812 -0.4414  2.2609
   62MOL0     H 8181   3.151   2.682   4.639  1.3062  0.0651  0.7095
   62MOL0     H 8182   3.305   3.043   4.757  3.2545 -2.0531  3.1428
   62MOL0     H 8183   2.665   2.798   4.972  1.6379 -0.8488 -0.7221
   62MOL0     H 8184   2.491   2.712   5.112 -0.6960  4.6578 -1.0604
   63MOL0     O 8185   0.311   1.703   5.939  0.0221 -0.0158 -0.0636
   63MOL0     C 8186   0.319   1.585   5.979 -0.1689 -0.9930 -0.0259
   63MOL0     O 8187   0.226   1.519   6.053  0.4036  0.4014  0.4690
   63MOL0     C 8188   0.104   1.558   6.097  1.4738 -0.6016 -0.2901
   63MOL0     C 8189   0.005   1.458   6.108  0.3354  0.4496 -0.6794
   63MOL0     C 8190  -0.122   1.486   6.167  0.3586  0.8208  0.4461
   63MOL0     C 8191  -0.148   1.615   6.216  0.4200 -0.5215 -0.9306
   63MOL0     O 8192  -0.264   1.636   6.285 -0.2374 -0.0518 -0.1769
   63MOL0     C 8193  -0.364   1.695   6.202  1.2618  0.1912 -0.4431
   63MOL0     C 8194  -0.491   1.690   6.293 -0.4388  0.3538 -0.4952
   63MOL0     C 8195  -0.524   1.540   6.321  0.5946 -0.2547 -0.5012
   63MOL0     C 8196  -0.664   1.521   6.388  0.3679  0.3397 -0.0182
   63MOL0     C 8197  -0.790   1.543   6.305 -0.8474 -0.9413  0.8403
   63MOL0     C 8198  -0.910   1.497   6.386  0.8222  0.3536  0.2426
   63MOL0     C 8199  -1.047   1.557   6.337 -0.3477  0.1595  1.4865
   63MOL0     C 8200  -1.162   1.533   6.442 -0.6151 -0.0798  0.2471
   63MOL0     N 8201  -1.284   1.581   6.377 -0.6121  0.1509 -0.1784
   63MOL0     C 8202  -1.380   1.644   6.446  1.1261 -0.8529  0.5129
   63MOL0     C 8203  -1.473   1.665   6.342 -0.0421  0.0190 -0.5556
   63MOL0     C 8204  -1.596   1.752   6.359 -0.4276  0.6020  0.9819
   63MOL0     C 8205  -1.691   1.750   6.240 -0.5089 -0.3946  0.2598
   63MOL0     C 8206  -1.820   1.828   6.277  0.3973 -0.3339  0.3601
   63MOL0     C 8207  -1.910   1.872   6.165  0.3806 -0.1437  0.5249
   63MOL0     O 8208  -2.022   1.939   6.223  0.1140  0.1296  0.3939
   63MOL0     C 8209  -2.131   1.992   6.150 -0.9829  0.1752 -0.3268
   63MOL0     C 8210  -2.204   2.095   6.208 -0.3119  0.5587 -0.4495
   63MOL0     C 8211  -2.321   2.140   6.156  0.0326  0.7434 -0.0641
   63MOL0     C 8212  -2.361   2.095   6.028  0.5466  0.2530  0.0618
   63MOL0     C 8213  -2.481   2.144   5.962  0.2341 -0.0472  0.0310
   63MOL0     O 8214  -2.574   2.204   6.045 -0.0705 -0.5440 -0.4921
   63MOL0     C 8215  -2.700   2.248   6.003  0.0906  0.8796 -0.3247
   63MOL0     C 8216  -2.763   2.244   5.878 -0.6502 -0.0498  0.1342
   63MOL0     C 8217  -2.896   2.265   5.860 -0.4629 -0.3344 -0.7601
   63MOL0     C 8218  -2.966   2.341   5.951  0.1445  0.1040  0.0240
   63MOL0     O 8219  -3.095   2.368   5.946  0.0605 -0.2442  0.1959
   63MOL0     C 8220  -3.185   2.338   5.842 -0.3435  0.0761 -0.3706
   63MOL0     C 8221  -3.323   2.393   5.885 -0.5961 -0.0635  0.4904
   63MOL0     C 8222  -3.340   2.543   5.910 -0.1387  0.0446 -0.3397
   63MOL0     C 8223  -3.410   2.565   6.043  0.5739 -0.7720  0.3308
   63MOL0     C 8224  -3.413   2.707   6.094  0.5684  1.1725  0.3037
   63MOL0     C 8225  -3.468   2.809   5.993  0.0301  0.0320  0.2020
   63MOL0     C 8226  -3.490   2.951   6.053 -0.2226  0.4508 -0.6078
   63MOL0     C 8227  -3.625   2.974   6.124  0.4866  0.3731  0.0923
   63MOL0    Cl 8228  -3.750   3.023   6.014 -0.0357 -0.3527  0.1783
   63MOL0     C 8229  -2.909   2.362   6.075  0.1833  0.1381  0.3484
   63MOL0     C 8230  -2.780   2.302   6.102 -0.2571  0.0196 -0.4626
   63MOL0     O 8231  -2.476   2.152   5.841  0.8160  0.3208  0.5336
   63MOL0     C 8232  -2.283   1.989   5.968  0.1708 -1.0942  0.1120
   63MOL0     C 8233  -2.163   1.944   6.028  0.2475  1.0960  0.0235
   63MOL0     N 8234  -1.430   1.610   6.226  0.6234  0.3716 -0.6949
   63MOL0     N 8235  -1.316   1.562   6.245 -0.1600  0.2524  0.4205
   63MOL0     C 8236  -0.048   1.709   6.202  0.0978  0.5149 -0.2974
   63MOL0     C 8237   0.067   1.685   6.136 -0.2027  0.2332 -0.3259
   63MOL0     C 8238   0.431   1.506   5.919  0.0823 -0.0781 -0.4727
   63MOL0     C 8239   0.539   1.568   5.861 -0.4379 -0.2909 -0.4365
   63MOL0     C 8240   0.645   1.499   5.796 -0.1770  0.1625 -1.0451
   63MOL0     C 8241   0.640   1.364   5.795 -0.0851 -0.2757  0.4639
   63MOL0     O 8242   0.723   1.279   5.726 -0.4018 -0.1563 -0.1978
   63MOL0     C 8243   0.858   1.326   5.687  0.3847 -0.7534  0.4639
   63MOL0     C 8244   0.959   1.326   5.802 -0.6397 -0.5660 -0.5246
   63MOL0     C 8245   0.938   1.209   5.892  0.0643 -0.3092  0.5679
   63MOL0     C 8246   1.045   1.175   5.998  0.2699 -0.2464 -0.0299
   63MOL0     C 8247   1.083   1.280   6.100  0.3343  0.6886  0.9012
   63MOL0     C 8248   1.110   1.364   6.173  0.6819  0.8525  0.0457
   63MOL0     C 8249   0.518   1.299   5.831 -0.3259 -0.1727 -0.4506
   63MOL0     C 8250   0.419   1.372   5.901 -0.0705  1.2615 -0.0399
   63MOL0     H 8251   0.030   1.361   6.067  0.9378  1.4628 -2.8720
   63MOL0     H 8252  -0.193   1.408   6.192  0.5954  1.0263  1.7934
   63MOL0     H 8253  -0.383   1.633   6.114  1.8002 -1.1582  0.3618
   63MOL0     H 8254  -0.341   1.799   6.176 -0.3371  0.6241 -0.2481
   63MOL0     H 8255  -0.570   1.738   6.235  0.8797  3.6133  0.2145
   63MOL0     H 8256  -0.474   1.745   6.386  0.0234 -1.6526  0.6888
   63MOL0     H 8257  -0.448   1.490   6.382 -0.8058 -0.2144  1.3642
   63MOL0     H 8258  -0.518   1.487   6.225  2.5259 -2.9446  0.9665
   63MOL0     H 8259  -0.658   1.417   6.420 -1.8227 -0.0374 -0.6679
   63MOL0     H 8260  -0.668   1.585   6.477 -1.9173  0.3869 -0.1146
   63MOL0     H 8261  -0.789   1.491   6.209  1.3155  3.2520 -1.6905
   63MOL0     H 8262  -0.797   1.651   6.291 -0.7499 -1.1046 -0.5812
   63MOL0     H 8263  -0.896   1.531   6.489 -4.3597 -1.7379  2.0088
   63MOL0     H 8264  -0.909   1.387   6.387  3.0632  0.3325  1.9462
   63MOL0     H 8265  -1.030   1.663   6.314  1.0548 -0.1997  0.7848
   63MOL0     H 8266  -1.074   1.515   6.240  0.0596 -0.3282  1.5845
   63MOL0     H 8267  -1.144   1.591   6.533  0.4949 -0.1751  0.1035
   63MOL0     H 8268  -1.164   1.426   6.465 -0.4765  0.0056  0.6548
   63MOL0     H 8269  -1.372   1.678   6.549  2.4479 -0.9445  0.4547
   63MOL0     H 8270  -1.578   1.857   6.384 -1.1660  0.3718  2.6152
   63MOL0     H 8271  -1.650   1.713   6.446 -0.9805  1.6056  1.0929
   63MOL0     H 8272  -1.730   1.651   6.215 -1.7089  0.1334 -0.0127
   63MOL0     H 8273  -1.639   1.798   6.156 -2.2786 -1.8751 -1.7863
   63MOL0     H 8274  -1.883   1.766   6.341  0.8712 -0.4697  0.7082
   63MOL0     H 8275  -1.796   1.915   6.340 -0.1749  0.7535 -0.8905
   63MOL0     H 8276  -1.951   1.788   6.109 -1.5522  2.2946 -1.9717
   63MOL0     H 8277  -1.853   1.939   6.100  1.1641  0.1305  1.4718
   63MOL0     H 8278  -2.175   2.123   6.309  2.3695  0.3265 -1.0871
   63MOL0     H 8279  -2.382   2.200   6.223  0.8302  0.5251  0.8862
   63MOL0     H 8280  -2.711   2.214   5.788  0.2420  3.5990 -0.7159
   63MOL0     H 8281  -2.934   2.241   5.761  3.4118 -0.7114 -2.3300
   63MOL0     H 8282  -3.185   2.231   5.822  0.2571  0.0671 -0.3282
   63MOL0     H 8283  -3.148   2.396   5.757  0.5007 -1.2204 -0.9171
   63MOL0     H 8284  -3.330   2.348   5.984  1.4288 -0.4173  0.5298
   63MOL0     H 8285  -3.399   2.352   5.818  0.7355 -0.6306 -0.7315
   63MOL0     H 8286  -3.394   2.595   5.830  1.8481  2.0139 -0.4949
   63MOL0     H 8287  -3.242   2.592   5.911  0.0793 -0.3998  0.6141
   63MOL0     H 8288  -3.514   2.535   6.026  0.4617  0.2004 -0.7789
   63MOL0     H 8289  -3.384   2.489   6.118 -1.2875 -2.0773 -0.2615
   63MOL0     H 8290  -3.307   2.723   6.115  0.7507  1.6093 -0.8312
   63MOL0     H 8291  -3.472   2.704   6.186 -0.0090  2.5505  0.0023
   63MOL0     H 8292  -3.560   2.781   5.942 -2.2196  1.4461  3.2013
   63MOL0     H 8293  -3.397   2.829   5.911  1.3092  2.0197  1.6955
   63MOL0     H 8294  -3.409   2.989   6.116 -0.7704  1.8896 -0.7202
   63MOL0     H 8295  -3.484   3.028   5.975 -3.5841  2.7087  1.1172
   63MOL0     H 8296  -3.606   3.058   6.190 -0.2425  0.4242  0.2506
   63MOL0     H 8297  -3.655   2.880   6.170 -2.8870 -0.0424 -2.4791
   63MOL0     H 8298  -2.975   2.408   6.148 -0.9577 -0.4212 -0.3068
   63MOL0     H 8299  -2.742   2.292   6.203 -1.9104 -0.1344  0.1880
   63MOL0     H 8300  -2.315   1.939   5.877  1.3283 -1.2433 -0.2349
   63MOL0     H 8301  -2.121   1.855   5.983 -1.3151 -0.4450  1.4788
   63MOL0     H 8302  -0.075   1.810   6.233  0.2910  0.0120  1.6668
   63MOL0     H 8303   0.123   1.776   6.117 -0.2835 -0.1727 -2.8665
   63MOL0     H 8304   0.560   1.675   5.864 -2.3271  0.0969  1.4689
   63MOL0     H 8305   0.718   1.563   5.747 -0.1328 -0.2178 -1.4806
   63MOL0     H 8306   0.851   1.423   5.637  0.7697  0.0461  1.9005
   63MOL0     H 8307   0.901   1.258   5.614  2.2005 -0.7657  1.4832
   63MOL0     H 8308   1.059   1.327   5.759  0.8975  1.1072  2.7941
   63MOL0     H 8309   0.953   1.419   5.858 -0.3926  0.1850 -1.7185
   63MOL0     H 8310   0.920   1.121   5.830  0.4964 -1.0188  1.4431
   63MOL0     H 8311   0.844   1.225   5.944 -0.8123 -1.2604 -0.6589
   63MOL0     H 8312   1.025   1.082   6.052  0.9565  0.1731  0.9804
   63MOL0     H 8313   1.133   1.152   5.938 -0.6961 -1.2577 -1.0915
   63MOL0     H 8314   1.147   1.436   6.243 -1.1593  0.8031  1.1375
   63MOL0     H 8315   0.514   1.193   5.808  0.6193 -0.2993 -0.0856
   63MOL0     H 8316   0.323   1.326   5.921  0.3070 -1.0789 -2.8685
   64MOL0     O 8317   7.769   4.248   5.409  0.3720  0.3660 -0.6451
   64MOL0     C 8318   7.828   4.143   5.394 -0.3576  0.8128 -0.2465
   64MOL0     O 8319   7.776   4.014   5.407 -0.4580 -0.8040 -0.4977
   64MOL0     C 8320   7.654   4.003   5.452 -0.3628 -0.9440  0.0405
   64MOL0     C 8321   7.537   4.074   5.410  0.7420  0.1346 -0.0505
   64MOL0     C 8322   7.413   4.049   5.467  0.9787 -0.1073 -0.6131
   64MOL0     C 8323   7.388   3.945   5.553 -0.5816  0.8801 -0.0277
   64MOL0     O 8324   7.262   3.922   5.598 -1.0846 -0.3901  0.0249
   64MOL0     C 8325   7.260   3.911   5.740 -0.2491 -0.1931  0.6375
   64MOL0     C 8326   7.119   3.958   5.773 -1.0664  0.1225 -0.5248
   64MOL0     C 8327   7.017   3.840   5.769 -0.0580 -0.1181  1.2018
   64MOL0     C 8328   6.876   3.875   5.824  0.7128 -0.0468  0.1582
   64MOL0     C 8329   6.793   3.749   5.856  0.9839 -1.0348  0.1943
   64MOL0     C 8330   6.660   3.794   5.922 -0.1355  0.4631  0.4378
   64MOL0     C 8331   6.564   3.668   5.921 -0.1206 -0.2995  0.3932
   64MOL0     C 8332   6.478   3.661   5.797 -0.3412  0.2470  0.2927
   64MOL0     N 8333   6.407   3.539   5.784 -0.6155  0.9052 -0.4036
   64MOL0     C 8334   6.273   3.530   5.762 -0.0205 -0.5479 -0.0327
   64MOL0     C 8335   6.262   3.416   5.693  0.1718  0.7894 -0.5826
   64MOL0     C 8336   6.147   3.358   5.621  0.2821 -0.4218 -0.3236
   64MOL0     C 8337   6.096   3.220   5.682  0.7120  0.0447  0.3040
   64MOL0     C 8338   6.029   3.249   5.814 -0.6178 -0.0602 -0.5687
   64MOL0     C 8339   5.926   3.139   5.849  0.2317  0.3320  0.2844
   64MOL0     O 8340   5.824   3.130   5.743 -0.5500 -0.0799  0.1213
   64MOL0     C 8341   5.706   3.063   5.775 -1.0679  0.9587  0.7560
   64MOL0     C 8342   5.639   3.006   5.666 -0.3225  0.4196 -0.3620
   64MOL0     C 8343   5.511   2.940   5.690 -0.1201 -0.6663 -0.3026
   64MOL0     C 8344   5.448   2.936   5.807 -0.3629 -0.7393 -0.2390
   64MOL0     C 8345   5.319   2.864   5.826  0.1668  0.2551  0.8870
   64MOL0     O 8346   5.280   2.835   5.954  0.4681  0.1559  0.0377
   64MOL0     C 8347   5.142   2.813   5.987  0.2950 -0.4100  0.5866
   64MOL0     C 8348   5.115   2.728   6.092 -0.4355  0.2483 -0.0332
   64MOL0     C 8349   4.989   2.709   6.143 -0.1396 -0.1716 -0.0693
   64MOL0     C 8350   4.879   2.761   6.075 -0.2273 -0.4280 -0.3807
   64MOL0     O 8351   4.745   2.746   6.111  0.2090 -0.7203  0.2959
   64MOL0     C 8352   4.719   2.611   6.148  0.2312 -0.5549 -0.2847
   64MOL0     C 8353   4.582   2.597   6.103  0.7734  0.5080  0.3608
   64MOL0     C 8354   4.530   2.482   6.188  0.4321  0.8072 -0.6022
   64MOL0     C 8355   4.384   2.432   6.163 -0.1042 -0.5869  0.0365
   64MOL0     C 8356   4.295   2.417   6.290 -0.2955  1.0652  0.1783
   64MOL0     C 8357   4.147   2.381   6.258  0.6197 -0.6957 -0.1445
   64MOL0     C 8358   4.064   2.338   6.374 -0.2010  0.5380 -0.9412
   64MOL0     C 8359   4.052   2.440   6.496 -0.0104  0.6308  0.4280
   64MOL0    Cl 8360   3.986   2.604   6.465  0.3876 -0.1428 -0.4728
   64MOL0     C 8361   4.899   2.854   5.975  0.0137  0.1479  0.5567
   64MOL0     C 8362   5.027   2.881   5.923 -0.3743 -0.6122  0.4823
   64MOL0     O 8363   5.269   2.824   5.720 -0.3023 -0.2520  0.1317
   64MOL0     C 8364   5.511   2.997   5.914 -0.1601  0.3936  0.5076
   64MOL0     C 8365   5.635   3.064   5.902  0.1737  0.2995  0.6344
   64MOL0     N 8366   6.382   3.343   5.710  0.5342  0.2226  0.7564
   64MOL0     N 8367   6.473   3.419   5.756 -0.2612  0.4077 -0.3311
   64MOL0     C 8368   7.499   3.869   5.591 -0.2783  0.2715 -0.3560
   64MOL0     C 8369   7.633   3.897   5.545  0.5119  0.2294  0.1658
   64MOL0     C 8370   7.974   4.150   5.351  0.6678 -0.4029 -0.5046
   64MOL0     C 8371   8.059   4.265   5.366  1.1537  0.3964  0.0786
   64MOL0     C 8372   8.193   4.265   5.322 -0.1036  0.5572 -0.1333
   64MOL0     C 8373   8.243   4.139   5.271 -0.2050 -0.0791 -0.9737
   64MOL0     O 8374   8.365   4.126   5.204 -0.3685  0.0011 -0.0680
   64MOL0     C 8375   8.457   4.233   5.190  0.2963  0.0219 -0.5234
   64MOL0     C 8376   8.564   4.190   5.088 -0.0519 -0.7795  1.0688
   64MOL0     C 8377   8.669   4.304   5.075  0.7047  0.3161  0.5762
   64MOL0     C 8378   8.784   4.251   4.979  0.0313  0.4657  0.9764
   64MOL0     C 8379   8.877   4.169   5.056  0.0019 -0.5883  0.3133
   64MOL0     C 8380   8.950   4.092   5.119  0.0073 -0.0111  0.1340
   64MOL0     C 8381   8.161   4.024   5.264 -0.6210 -0.2486  0.4706
   64MOL0     C 8382   8.032   4.024   5.307 -0.9420 -0.0038 -0.3528
   64MOL0     H 8383   7.535   4.158   5.341 -1.9914  1.2430  1.2009
   64MOL0     H 8384   7.339   4.123   5.440  2.1867  1.1997 -0.4963
   64MOL0     H 8385   7.328   3.989   5.775 -0.1866  0.5576 -1.0673
   64MOL0     H 8386   7.281   3.814   5.786 -3.2757 -0.8442  0.8393
   64MOL0     H 8387   7.093   4.036   5.701  0.0003  1.4060  0.4266
   64MOL0     H 8388   7.125   3.995   5.876 -1.8502  0.5526 -0.6247
   64MOL0     H 8389   7.055   3.762   5.836  5.0638  2.2945  1.5448
   64MOL0     H 8390   7.004   3.805   5.666 -0.1640 -1.8052  1.7584
   64MOL0     H 8391   6.877   3.925   5.921  1.6567 -2.6976  1.6239
   64MOL0     H 8392   6.826   3.935   5.748  3.2872  2.8296  0.5539
   64MOL0     H 8393   6.841   3.676   5.922 -0.9268  0.0412  2.9666
   64MOL0     H 8394   6.763   3.699   5.764 -1.8353  1.4923 -0.3965
   64MOL0     H 8395   6.618   3.878   5.865  1.6121  0.8456 -0.3447
   64MOL0     H 8396   6.686   3.831   6.022  0.6917  1.7860 -0.2328
   64MOL0     H 8397   6.615   3.572   5.938 -0.4986 -0.8462 -1.3883
   64MOL0     H 8398   6.503   3.673   6.012  0.7572 -0.6433  1.0238
   64MOL0     H 8399   6.536   3.675   5.705 -0.4171 -0.2634  0.1636
   64MOL0     H 8400   6.404   3.741   5.806  0.2084  0.9540 -1.0988
   64MOL0     H 8401   6.193   3.604   5.767 -0.1940 -0.7981  1.3783
   64MOL0     H 8402   6.174   3.341   5.516  0.4279  2.3912 -0.8155
   64MOL0     H 8403   6.065   3.429   5.612 -0.8157 -1.3548  1.5433
   64MOL0     H 8404   6.171   3.147   5.713 -0.1516 -0.4622  1.2894
   64MOL0     H 8405   6.026   3.169   5.614 -1.2079 -0.1931  2.3327
   64MOL0     H 8406   6.103   3.268   5.893 -0.6187  2.4716 -1.0957
   64MOL0     H 8407   5.974   3.344   5.817  0.2981  0.4621  1.9574
   64MOL0     H 8408   5.897   3.148   5.954 -0.3291  3.1102 -0.0372
   64MOL0     H 8409   5.984   3.046   5.855  1.1825  0.8197 -0.8027
   64MOL0     H 8410   5.672   3.015   5.563 -1.2155  2.0755 -0.5427
   64MOL0     H 8411   5.473   2.883   5.606 -2.1045  1.4473 -0.9397
   64MOL0     H 8412   5.201   2.689   6.146 -0.5838  3.6613  3.1106
   64MOL0     H 8413   4.980   2.641   6.227  0.9814 -0.5216 -0.2156
   64MOL0     H 8414   4.722   2.604   6.257  2.0656  2.9049  0.0296
   64MOL0     H 8415   4.774   2.532   6.096  1.5859  0.0783  0.1213
   64MOL0     H 8416   4.574   2.566   5.998 -4.0584 -2.1724  1.2319
   64MOL0     H 8417   4.526   2.690   6.110 -0.0219  0.0645  0.0218
   64MOL0     H 8418   4.543   2.509   6.293  3.2251  0.7122 -0.8672
   64MOL0     H 8419   4.598   2.397   6.192  0.0216  0.4350 -1.3195
   64MOL0     H 8420   4.333   2.498   6.092  1.9386  1.6873  0.5565
   64MOL0     H 8421   4.383   2.333   6.115  0.0756 -1.4876  1.7939
   64MOL0     H 8422   4.284   2.514   6.338 -0.6195  0.6577  0.9431
   64MOL0     H 8423   4.344   2.356   6.366 -0.7124  0.9932  0.3920
   64MOL0     H 8424   4.132   2.288   6.203 -0.4001 -0.8668  0.3985
   64MOL0     H 8425   4.101   2.460   6.197  3.2587  1.2926  0.2606
   64MOL0     H 8426   3.968   2.320   6.325 -0.1299  0.7736 -1.1716
   64MOL0     H 8427   4.101   2.244   6.416 -0.7877  1.0493  0.8285
   64MOL0     H 8428   4.153   2.452   6.535  0.7843 -2.5290 -0.3959
   64MOL0     H 8429   3.991   2.389   6.571 -0.6677 -0.4714 -0.8219
   64MOL0     H 8430   4.821   2.898   5.914 -0.2458 -0.2027  0.6301
   64MOL0     H 8431   5.035   2.940   5.832 -0.6996 -6.0390 -3.5719
   64MOL0     H 8432   5.470   3.010   6.013 -1.1908  3.0668 -0.1712
   64MOL0     H 8433   5.677   3.121   5.984 -0.3134  0.0761  1.0382
   64MOL0     H 8434   7.481   3.788   5.661 -0.4244  0.4253 -0.2159
   64MOL0     H 8435   7.714   3.841   5.589  0.3963 -1.2580 -1.4120
   64MOL0     H 8436   8.011   4.354   5.404 -0.3060 -0.5327  0.5114
   64MOL0     H 8437   8.257   4.352   5.317  0.7661 -0.0982 -0.7482
   64MOL0     H 8438   8.507   4.256   5.284  3.2870 -0.9350 -1.7564
   64MOL0     H 8439   8.403   4.321   5.154 -0.1676 -1.2010 -3.0697
   64MOL0     H 8440   8.619   4.104   5.127  2.4693  0.2084 -0.1030
   64MOL0     H 8441   8.515   4.176   4.991 -2.4073 -0.0823  2.0752
   64MOL0     H 8442   8.707   4.330   5.174 -0.8762 -0.2108  1.3654
   64MOL0     H 8443   8.622   4.382   5.015  0.3892 -1.4866 -1.6552
   64MOL0     H 8444   8.746   4.206   4.887 -1.4566  0.2529  1.6623
   64MOL0     H 8445   8.844   4.333   4.939  0.3111 -0.5605 -0.7888
   64MOL0     H 8446   9.015   4.028   5.176 -0.3166 -0.0819  0.4232
   64MOL0     H 8447   8.214   3.933   5.236 -0.7489 -0.3347  0.5081
   64MOL0     H 8448   7.970   3.934   5.304 -3.0059  1.3338 -0.2812
   65MOL0     O 8449   0.607  10.857   4.991 -0.2447 -0.6567 -0.5640
   65MOL0     C 8450   0.652  10.944   4.924 -1.3104  0.3311  0.0943
   65MOL0     O 8451   0.586  11.051   4.872 -1.1363 -0.2108 -0.1017
   65MOL0     C 8452   0.450  11.059   4.876 -0.4063  0.1828 -0.4845
   65MOL0     C 8453   0.399  11.119   4.760  0.1450 -0.5472  0.0419
   65MOL0     C 8454   0.264  11.161   4.750  0.1711 -0.3622 -0.2337
   65MOL0     C 8455   0.174  11.128   4.857 -1.0123  0.1717 -0.5523
   65MOL0     O 8456   0.046  11.153   4.858  0.2865  0.2695  0.2118
   65MOL0     C 8457  -0.036  11.083   4.759  0.4237  0.8001 -0.2819
   65MOL0     C 8458  -0.184  11.075   4.810  0.5907  0.7053 -0.1134
   65MOL0     C 8459  -0.260  11.218   4.808 -1.0159 -0.1284  0.8396
   65MOL0     C 8460  -0.405  11.213   4.843  0.7481  0.1756  0.6077
   65MOL0     C 8461  -0.472  11.350   4.848  0.0681 -0.6456  0.2105
   65MOL0     C 8462  -0.628  11.345   4.856  0.5577  0.4110 -0.3936
   65MOL0     C 8463  -0.696  11.232   4.783  0.4549 -0.0102  0.0223
   65MOL0     C 8464  -0.851  11.249   4.794 -0.8123  1.0348 -0.6891
   65MOL0     N 8465  -0.906  11.130   4.728 -0.7622 -0.5593  0.2540
   65MOL0     C 8466  -0.916  11.117   4.593 -0.4199  0.5796  0.3812
   65MOL0     C 8467  -1.005  11.017   4.576 -0.3671 -0.2524  0.3334
   65MOL0     C 8468  -1.074  10.962   4.447  0.4882  0.1184 -0.0031
   65MOL0     C 8469  -0.976  10.864   4.385 -0.8828 -0.0591 -0.6453
   65MOL0     C 8470  -0.971  10.728   4.458  0.1712  0.6188 -0.0012
   65MOL0     C 8471  -0.946  10.609   4.370  0.2473 -1.1190  0.0154
   65MOL0     O 8472  -1.048  10.599   4.269  0.2946  0.0845 -0.6965
   65MOL0     C 8473  -1.152  10.514   4.294 -0.3127  0.7030  0.2630
   65MOL0     C 8474  -1.153  10.403   4.376 -0.0523  0.2995 -0.5452
   65MOL0     C 8475  -1.260  10.317   4.390  0.4786 -0.0485 -0.9421
   65MOL0     C 8476  -1.380  10.334   4.322 -0.1635  0.2476  0.3275
   65MOL0     C 8477  -1.508  10.254   4.352  0.7698  0.6484  0.3796
   65MOL0     O 8478  -1.613  10.297   4.272 -0.2788  0.4365  0.0720
   65MOL0     C 8479  -1.739  10.248   4.274 -0.0798  0.7619  0.4417
   65MOL0     C 8480  -1.783  10.118   4.307  0.2890 -0.6867 -0.1112
   65MOL0     C 8481  -1.918  10.098   4.329  0.2746 -0.0957 -0.9967
   65MOL0     C 8482  -2.013  10.196   4.297 -0.1452 -0.7700  0.0059
   65MOL0     O 8483  -2.141  10.165   4.312 -0.7601  0.0069 -0.1608
   65MOL0     C 8484  -2.227  10.253   4.381 -0.8444  0.5878  0.2152
   65MOL0     C 8485  -2.339  10.163   4.420 -0.8104 -0.0769 -0.2368
   65MOL0     C 8486  -2.404  10.225   4.540 -0.3858 -0.2530  0.0465
   65MOL0     C 8487  -2.539  10.162   4.557 -0.4992  0.0176  0.5806
   65MOL0     C 8488  -2.613  10.208   4.673  0.4656 -0.5364  0.6168
   65MOL0     C 8489  -2.560  10.135   4.803  0.4280 -1.2374  0.1249
   65MOL0     C 8490  -2.649  10.160   4.927  0.3745  0.2669 -0.3501
   65MOL0     C 8491  -2.573  10.101   5.045 -0.2691  0.1360  0.1706
   65MOL0    Cl 8492  -2.438  10.211   5.114 -0.3013 -0.2827  0.0454
   65MOL0     C 8493  -1.968  10.322   4.267 -0.5105 -0.6896 -0.3183
   65MOL0     C 8494  -1.829  10.347   4.256  0.0220  0.3146 -0.0952
   65MOL0     O 8495  -1.513  10.155   4.423 -0.1083  0.3223  0.0423
   65MOL0     C 8496  -1.384  10.447   4.237 -0.9302  0.2786 -0.2438
   65MOL0     C 8497  -1.276  10.542   4.222 -0.2014  0.2536 -0.0043
   65MOL0     N 8498  -1.023  10.958   4.705 -0.0253  0.6149  0.5487
   65MOL0     N 8499  -0.964  11.030   4.793 -0.5861 -0.1093  0.3324
   65MOL0     C 8500   0.224  11.076   4.972 -0.0833  0.3588  0.3324
   65MOL0     C 8501   0.363  11.042   4.989  0.0710 -0.1541  0.6335
   65MOL0     C 8502   0.799  10.942   4.917  0.3233 -0.1239 -0.7190
   65MOL0     C 8503   0.874  11.039   4.852 -0.7619  0.8933 -0.4420
   65MOL0     C 8504   1.013  11.031   4.843 -0.2190 -0.0128 -0.7900
   65MOL0     C 8505   1.083  10.934   4.921 -0.7468  0.1411  0.3023
   65MOL0     O 8506   1.221  10.925   4.906 -0.1439  0.9514 -0.3227
   65MOL0     C 8507   1.280  10.856   5.025 -0.4847  0.3785  0.1543
   65MOL0     C 8508   1.422  10.914   5.037 -0.1907  0.3834  0.5131
   65MOL0     C 8509   1.515  10.837   4.941 -0.3958  0.4943  0.5653
   65MOL0     C 8510   1.654  10.888   4.958  0.2750  0.6710  0.6057
   65MOL0     C 8511   1.732  10.802   4.861 -0.3669  0.2413  0.5681
   65MOL0     C 8512   1.788  10.720   4.787 -1.0821 -0.8546 -0.2229
   65MOL0     C 8513   1.010  10.842   4.995  0.2336 -0.4686  0.0278
   65MOL0     C 8514   0.873  10.839   4.990  0.6743  0.0565  1.1460
   65MOL0     H 8515   0.464  11.139   4.675  1.7376  3.2822  1.9195
   65MOL0     H 8516   0.220  11.212   4.665 -0.4556 -0.8019 -0.1805
   65MOL0     H 8517  -0.007  10.978   4.744  0.2715  0.8860 -1.2331
   65MOL0     H 8518  -0.023  11.124   4.659  1.2137 -0.7885 -0.8650
   65MOL0     H 8519  -0.193  11.026   4.907 -2.6257 -2.4874 -1.7649
   65MOL0     H 8520  -0.237  11.001   4.749  0.5627 -0.1271  0.8883
   65MOL0     H 8521  -0.252  11.252   4.704  0.4983 -0.9416  0.6521
   65MOL0     H 8522  -0.198  11.275   4.878 -1.5994  1.0516  0.4204
   65MOL0     H 8523  -0.458  11.146   4.775 -3.5775  3.0216  0.8040
   65MOL0     H 8524  -0.436  11.174   4.940 -1.4167  1.2864  0.4192
   65MOL0     H 8525  -0.446  11.405   4.757 -3.3339  3.4068  1.3355
   65MOL0     H 8526  -0.442  11.407   4.937  1.2190 -2.3555  0.9726
   65MOL0     H 8527  -0.678  11.438   4.827 -1.7581 -0.3202  0.9935
   65MOL0     H 8528  -0.654  11.340   4.962  3.6019 -0.6165  0.3920
   65MOL0     H 8529  -0.661  11.223   4.680 -1.1981  0.8569 -0.6515
   65MOL0     H 8530  -0.667  11.136   4.827 -3.1179 -2.7436 -2.9683
   65MOL0     H 8531  -0.887  11.336   4.739 -0.3441 -0.5268 -3.6343
   65MOL0     H 8532  -0.874  11.251   4.901  3.4121 -0.9004  0.4558
   65MOL0     H 8533  -0.871  11.181   4.517  0.9591 -0.4160  0.3214
   65MOL0     H 8534  -1.112  11.041   4.382 -1.6067  0.9684  2.1063
   65MOL0     H 8535  -1.160  10.903   4.481 -0.4359  2.1839  1.4097
   65MOL0     H 8536  -0.876  10.908   4.384 -1.6892  1.8725 -1.3670
   65MOL0     H 8537  -1.012  10.847   4.283 -1.8650  1.1684 -0.5297
   65MOL0     H 8538  -0.889  10.742   4.529  1.1502 -0.9868 -0.7664
   65MOL0     H 8539  -1.055  10.714   4.527  0.2275 -0.9423 -0.2148
   65MOL0     H 8540  -0.947  10.514   4.425 -2.5410 -1.1988 -0.0357
   65MOL0     H 8541  -0.848  10.626   4.323 -1.0723  2.9996 -1.6396
   65MOL0     H 8542  -1.076  10.382   4.449 -0.9484  0.0663  0.3588
   65MOL0     H 8543  -1.244  10.237   4.462  0.3706  0.5416 -0.2528
   65MOL0     H 8544  -1.712  10.036   4.316  0.6783 -0.6501 -2.1817
   65MOL0     H 8545  -1.948  10.005   4.376  2.0850 -0.1487  0.1663
   65MOL0     H 8546  -2.267  10.326   4.309 -4.4443 -1.7857 -0.4344
   65MOL0     H 8547  -2.182  10.309   4.463 -0.0219  1.4488 -0.7841
   65MOL0     H 8548  -2.307  10.064   4.455 -0.3567 -0.0142 -0.4668
   65MOL0     H 8549  -2.403  10.148   4.333  1.6928 -1.7824 -1.8983
   65MOL0     H 8550  -2.411  10.332   4.515  0.8782  0.2071  1.5118
   65MOL0     H 8551  -2.339  10.210   4.626  0.7019 -0.9181 -0.8617
   65MOL0     H 8552  -2.605  10.185   4.473  1.3336  1.5250 -0.5189
   65MOL0     H 8553  -2.511  10.056   4.558  1.9210  0.5642 -0.7548
   65MOL0     H 8554  -2.714  10.177   4.646  0.6328 -1.7707  1.3141
   65MOL0     H 8555  -2.595  10.316   4.678  2.1292 -0.6944 -0.8268
   65MOL0     H 8556  -2.455  10.158   4.822  0.5333  0.8783 -2.4078
   65MOL0     H 8557  -2.560  10.027   4.785  1.8745 -1.6632  2.3120
   65MOL0     H 8558  -2.678  10.262   4.955  0.1902 -0.2980  1.6654
   65MOL0     H 8559  -2.739  10.098   4.918  0.3729 -0.1984  2.2278
   65MOL0     H 8560  -2.533  10.002   5.020 -0.7636 -0.0424  0.0853
   65MOL0     H 8561  -2.651  10.091   5.121 -2.0293  0.8524 -1.4646
   65MOL0     H 8562  -2.030  10.408   4.246 -1.2171 -1.3140 -0.8427
   65MOL0     H 8563  -1.790  10.444   4.229  0.1604  0.6486  1.2551
   65MOL0     H 8564  -1.475  10.471   4.184 -0.9138 -1.7074 -1.2582
   65MOL0     H 8565  -1.274  10.621   4.149  1.2513 -1.0772 -1.4914
   65MOL0     H 8566   0.159  11.057   5.057 -0.6675  1.3349  0.1094
   65MOL0     H 8567   0.405  11.029   5.089  2.3674  1.7619  0.0128
   65MOL0     H 8568   0.824  11.122   4.803  1.2635  2.0557 -0.6409
   65MOL0     H 8569   1.065  11.109   4.789  1.4184  1.6033  2.7874
   65MOL0     H 8570   1.294  10.747   5.024 -0.8961  0.3220 -0.8842
   65MOL0     H 8571   1.222  10.889   5.112  1.0883  2.4431  0.4740
   65MOL0     H 8572   1.423  11.021   5.016  2.0869  0.1104 -1.1291
   65MOL0     H 8573   1.454  10.891   5.140  0.0681  0.1917  0.3925
   65MOL0     H 8574   1.488  10.847   4.836  2.0241  1.8604  0.0010
   65MOL0     H 8575   1.505  10.732   4.969  0.2658 -0.3408 -2.0839
   65MOL0     H 8576   1.668  10.997   4.948  1.8141  0.4200 -0.4041
   65MOL0     H 8577   1.676  10.880   5.064  0.9974  1.7002  0.5487
   65MOL0     H 8578   1.841  10.658   4.718  1.6249  0.9939  0.0274
   65MOL0     H 8579   1.054  10.757   5.046  0.6871 -0.2360  0.0297
   65MOL0     H 8580   0.819  10.756   5.036 -1.1262  0.8772  0.6041
   66MOL0     O 8581   0.487   8.124   2.094 -0.1626  0.6270 -1.1151
   66MOL0     C 8582   0.558   8.183   2.014  0.5334 -0.6650  0.5843
   66MOL0     O 8583   0.683   8.231   2.041 -0.2664 -0.7072  0.4794
   66MOL0     C 8584   0.714   8.249   2.174  0.4120  0.0940  0.1363
   66MOL0     C 8585   0.681   8.371   2.239  0.0454  0.2228 -0.2352
   66MOL0     C 8586   0.733   8.406   2.369  0.8581 -0.0794  0.0498
   66MOL0     C 8587   0.809   8.309   2.436 -0.3626  0.0708 -0.5928
   66MOL0     O 8588   0.855   8.347   2.566  0.7060  0.1092  0.5134
   66MOL0     C 8589   0.884   8.245   2.660 -0.0390  0.4245  0.2068
   66MOL0     C 8590   0.943   8.288   2.793 -0.4701 -0.5668 -0.6565
   66MOL0     C 8591   1.051   8.395   2.776  0.2493 -0.6893  0.4777
   66MOL0     C 8592   1.076   8.462   2.912  0.3878 -0.1355  0.5765
   66MOL0     C 8593   1.216   8.538   2.932  0.6203  0.6720 -0.5494
   66MOL0     C 8594   1.251   8.547   3.084  0.3187  0.5267  0.8357
   66MOL0     C 8595   1.394   8.603   3.099 -0.8110 -0.3916 -0.7687
   66MOL0     C 8596   1.407   8.756   3.069  0.4122  0.0667 -0.2422
   66MOL0     N 8597   1.295   8.836   3.127  0.1764  0.4553 -0.0953
   66MOL0     C 8598   1.250   8.834   3.258 -0.3434 -0.1463  0.1629
   66MOL0     C 8599   1.133   8.894   3.263  0.0483 -0.0897  0.1072
   66MOL0     C 8600   1.063   8.927   3.392 -0.3340 -0.1084 -0.1452
   66MOL0     C 8601   1.110   9.051   3.460  0.3824  0.0959 -0.5985
   66MOL0     C 8602   1.047   9.063   3.599 -0.2293  0.0601 -0.1141
   66MOL0     C 8603   0.904   9.120   3.605 -0.3071 -0.6635 -0.5375
   66MOL0     O 8604   0.804   9.041   3.552  0.5632 -0.0693 -0.1456
   66MOL0     C 8605   0.695   9.106   3.497 -0.6224 -0.3848 -0.3596
   66MOL0     C 8606   0.603   9.033   3.437  0.4509  0.5488  0.6730
   66MOL0     C 8607   0.480   9.085   3.391  0.7937  0.2653  0.0087
   66MOL0     C 8608   0.440   9.219   3.408 -0.1544  0.0807  0.8063
   66MOL0     C 8609   0.323   9.284   3.344 -0.1402 -0.5020 -0.1343
   66MOL0     O 8610   0.216   9.207   3.332  0.2270 -0.6896 -0.4207
   66MOL0     C 8611   0.100   9.266   3.314  0.1016 -0.2467  0.2980
   66MOL0     C 8612   0.023   9.317   3.424 -0.4256  0.2351 -0.0511
   66MOL0     C 8613  -0.097   9.390   3.392  0.9661  0.1455  0.9542
   66MOL0     C 8614  -0.132   9.424   3.257 -0.0407  0.6970 -0.2806
   66MOL0     O 8615  -0.232   9.514   3.227  0.1601  0.5107  0.4019
   66MOL0     C 8616  -0.182   9.653   3.218 -0.2726 -0.5367  0.1959
   66MOL0     C 8617  -0.299   9.740   3.189  0.0026  1.0831 -0.1256
   66MOL0     C 8618  -0.359   9.774   3.322  0.2027  0.1103  0.2917
   66MOL0     C 8619  -0.469   9.877   3.313  0.2352 -0.1802 -0.3839
   66MOL0     C 8620  -0.583   9.875   3.421 -0.2260  0.2785 -0.1650
   66MOL0     C 8621  -0.671   9.996   3.411  0.5696 -0.2685  0.2388
   66MOL0     C 8622  -0.774  10.006   3.514  0.4618 -0.0424 -0.0617
   66MOL0     C 8623  -0.892  10.094   3.468  0.6021 -0.4058  0.0527
   66MOL0    Cl 8624  -0.836  10.255   3.415 -0.3242  0.0295  0.6251
   66MOL0     C 8625  -0.058   9.365   3.157  0.5074  0.2041 -0.7986
   66MOL0     C 8626   0.055   9.289   3.182  0.8394  0.4829  0.3285
   66MOL0     O 8627   0.329   9.405   3.315  0.2578 -0.0994  0.0371
   66MOL0     C 8628   0.534   9.301   3.473  0.4829 -0.1969 -0.3585
   66MOL0     C 8629   0.655   9.238   3.519  0.5684  1.1032 -0.4242
   66MOL0     N 8630   1.104   8.945   3.138  0.0234  0.0198  0.9759
   66MOL0     N 8631   1.204   8.912   3.064  0.0572 -0.0763  0.7955
   66MOL0     C 8632   0.823   8.181   2.377  0.2864 -0.0981 -0.2845
   66MOL0     C 8633   0.786   8.153   2.248 -1.0215 -0.3864 -0.4403
   66MOL0     C 8634   0.520   8.175   1.866 -0.1030 -0.6353  0.7549
   66MOL0     C 8635   0.409   8.102   1.826 -0.2205  0.0963  0.5617
   66MOL0     C 8636   0.375   8.110   1.690 -0.1938 -0.2010  0.1129
   66MOL0     C 8637   0.451   8.184   1.598 -0.0116  0.0146  0.7998
   66MOL0     O 8638   0.412   8.198   1.466  0.4933 -0.8321  0.0839
   66MOL0     C 8639   0.356   8.326   1.434 -0.0851 -0.1012 -0.4552
   66MOL0     C 8640   0.337   8.344   1.279 -0.3194 -0.5651  0.4949
   66MOL0     C 8641   0.238   8.239   1.224 -0.3635  0.3910  0.1211
   66MOL0     C 8642   0.274   8.168   1.088  0.1065 -0.8165 -0.1093
   66MOL0     C 8643   0.161   8.147   0.996  0.9256 -0.1527 -0.9465
   66MOL0     C 8644   0.069   8.134   0.921 -0.8962 -0.7289 -0.1947
   66MOL0     C 8645   0.560   8.261   1.637  0.1916  0.3517 -0.4685
   66MOL0     C 8646   0.595   8.258   1.774 -0.0081  0.6694 -0.2452
   66MOL0     H 8647   0.627   8.443   2.178  2.4152  2.4275  0.1056
   66MOL0     H 8648   0.712   8.500   2.420  3.7841  0.1396  1.0417
   66MOL0     H 8649   0.961   8.181   2.617  0.6318  0.0944  1.8264
   66MOL0     H 8650   0.800   8.179   2.686 -0.9479  1.0178 -1.1099
   66MOL0     H 8651   0.989   8.199   2.838 -1.0534  0.3113  1.8200
   66MOL0     H 8652   0.869   8.320   2.866 -1.3223  0.3616 -1.8914
   66MOL0     H 8653   1.010   8.475   2.714 -0.1413 -0.1621  1.3833
   66MOL0     H 8654   1.143   8.353   2.735 -0.7562 -2.6862  0.1299
   66MOL0     H 8655   0.990   8.524   2.940  0.1420 -0.5088  0.6612
   66MOL0     H 8656   1.065   8.384   2.989  1.1256 -2.0767 -1.1980
   66MOL0     H 8657   1.216   8.634   2.879  0.2372  0.6514 -0.5887
   66MOL0     H 8658   1.294   8.479   2.883  1.1194  0.6911  0.1993
   66MOL0     H 8659   1.257   8.446   3.125  2.7613 -0.0221 -0.6955
   66MOL0     H 8660   1.174   8.601   3.141 -0.0947  0.7792  0.0503
   66MOL0     H 8661   1.427   8.576   3.200 -0.6195  0.2004 -0.6660
   66MOL0     H 8662   1.451   8.553   3.021  1.6825 -0.5087  1.0186
   66MOL0     H 8663   1.415   8.777   2.962 -1.0074  0.6969 -0.2505
   66MOL0     H 8664   1.504   8.796   3.100  0.3620 -0.2911  0.3966
   66MOL0     H 8665   1.289   8.774   3.340 -0.4733 -1.0386 -0.4084
   66MOL0     H 8666   1.082   8.837   3.450 -0.9807 -0.3988 -0.3737
   66MOL0     H 8667   0.959   8.933   3.359 -0.3601 -0.7991 -0.1933
   66MOL0     H 8668   1.087   9.147   3.411 -0.5829 -0.1274 -0.6167
   66MOL0     H 8669   1.218   9.042   3.453  0.3087  0.1602 -2.5745
   66MOL0     H 8670   1.047   8.965   3.646  4.6156 -0.8649 -1.5130
   66MOL0     H 8671   1.117   9.119   3.660 -2.2637  2.4444  0.1864
   66MOL0     H 8672   0.915   9.214   3.550  0.7889  0.3874  1.3755
   66MOL0     H 8673   0.876   9.137   3.710 -3.0868  0.1187 -1.3217
   66MOL0     H 8674   0.622   8.928   3.418 -1.1068  0.5007 -0.9792
   66MOL0     H 8675   0.427   9.017   3.325 -1.2356  1.1672  0.6135
   66MOL0     H 8676   0.060   9.316   3.526 -1.5575  3.2950  0.4764
   66MOL0     H 8677  -0.155   9.446   3.464  1.5827  3.2108 -0.7596
   66MOL0     H 8678  -0.108   9.660   3.137 -2.2023 -0.0848 -1.6074
   66MOL0     H 8679  -0.127   9.689   3.306 -0.3343  0.8046 -0.2894
   66MOL0     H 8680  -0.368   9.698   3.115 -0.0772  0.7309  0.1431
   66MOL0     H 8681  -0.252   9.829   3.147  2.2207  0.0037 -0.0585
   66MOL0     H 8682  -0.284   9.827   3.381  0.5464  0.4303 -0.4171
   66MOL0     H 8683  -0.392   9.689   3.381  1.8620  0.5151  1.9073
   66MOL0     H 8684  -0.427   9.977   3.304  0.6556 -0.2028  1.0955
   66MOL0     H 8685  -0.520   9.862   3.217 -1.7364 -0.0761  0.5879
   66MOL0     H 8686  -0.540   9.881   3.522  0.9424 -0.9484 -0.5547
   66MOL0     H 8687  -0.654   9.792   3.410 -0.1039  0.2314 -0.5979
   66MOL0     H 8688  -0.727   9.982   3.318  0.8938  1.1614 -0.2052
   66MOL0     H 8689  -0.606  10.084   3.409  0.7343 -0.3250  2.0062
   66MOL0     H 8690  -0.816   9.908   3.538  2.8137 -1.7971 -2.5030
   66MOL0     H 8691  -0.727  10.053   3.601  1.3011  0.1203 -0.5928
   66MOL0     H 8692  -0.961  10.108   3.552  3.4379  3.5778  2.0366
   66MOL0     H 8693  -0.938  10.042   3.384 -0.4048  1.5453 -0.6713
   66MOL0     H 8694  -0.077   9.389   3.052  0.7861 -2.6163 -1.5799
   66MOL0     H 8695   0.111   9.237   3.104 -1.6098  1.7365 -2.4740
   66MOL0     H 8696   0.513   9.407   3.486 -0.6792 -0.0324 -3.0773
   66MOL0     H 8697   0.709   9.291   3.598 -1.4913  0.5436  1.4627
   66MOL0     H 8698   0.877   8.106   2.433  1.1787  1.1254  0.5502
   66MOL0     H 8699   0.823   8.058   2.209 -0.0946  0.5416 -1.9129
   66MOL0     H 8700   0.354   8.042   1.897  1.2891 -0.8024  1.0062
   66MOL0     H 8701   0.285   8.057   1.659 -1.2447  0.8971  1.1886
   66MOL0     H 8702   0.418   8.410   1.466 -0.7579  0.0119  0.6142
   66MOL0     H 8703   0.257   8.331   1.480 -0.2334  2.0375 -0.8973
   66MOL0     H 8704   0.301   8.443   1.252 -2.7865 -1.7238 -0.7483
   66MOL0     H 8705   0.429   8.326   1.221 -0.7273  1.5648 -0.9059
   66MOL0     H 8706   0.149   8.303   1.211 -2.4936 -2.1110  1.4691
   66MOL0     H 8707   0.208   8.164   1.297 -1.2572  0.5303 -0.0875
   66MOL0     H 8708   0.339   8.235   1.030  1.5830 -0.1676  2.1299
   66MOL0     H 8709   0.318   8.069   1.103 -2.8764 -2.4144 -1.1259
   66MOL0     H 8710  -0.012   8.138   0.850  0.0388  4.8890 -1.4548
   66MOL0     H 8711   0.616   8.322   1.567  1.3812 -0.5784 -0.3742
   66MOL0     H 8712   0.682   8.314   1.805  0.8123  0.1927 -1.6353
   67MOL0     O 8713   2.642  10.329   7.335 -0.9989 -0.5867 -0.0360
   67MOL0     C 8714   2.727  10.410   7.385 -0.1666 -0.5914  0.1410
   67MOL0     O 8715   2.703  10.510   7.471  0.2663  0.7361 -0.0645
   67MOL0     C 8716   2.580  10.545   7.528 -0.4578 -0.9480  0.9684
   67MOL0     C 8717   2.578  10.642   7.621  0.2416  0.0835  0.6118
   67MOL0     C 8718   2.463  10.674   7.692  0.0349  0.9146 -0.2511
   67MOL0     C 8719   2.336  10.625   7.660  0.5045 -1.3542  0.5769
   67MOL0     O 8720   2.221  10.655   7.738 -0.0602  0.2446  0.0219
   67MOL0     C 8721   2.089  10.659   7.670 -0.7086  0.0644 -0.4279
   67MOL0     C 8722   2.011  10.538   7.691 -0.9855 -0.4584  0.2448
   67MOL0     C 8723   1.874  10.545   7.616 -0.3416  0.5537  1.0831
   67MOL0     C 8724   1.758  10.477   7.674  0.2492  0.1099  0.0365
   67MOL0     C 8725   1.637  10.503   7.582  1.3445  0.9508  0.7340
   67MOL0     C 8726   1.512  10.413   7.608  0.3404  0.0460  0.8650
   67MOL0     C 8727   1.396  10.438   7.517  0.2503  0.1979  0.2643
   67MOL0     C 8728   1.285  10.335   7.519  0.1664 -0.4484 -0.5413
   67MOL0     N 8729   1.152  10.369   7.472 -1.2706  0.6405 -0.4837
   67MOL0     C 8730   1.110  10.329   7.346  0.2024 -0.6027  0.8615
   67MOL0     C 8731   0.989  10.399   7.336  0.1837  0.4589  0.3545
   67MOL0     C 8732   0.878  10.390   7.228 -0.1923  0.1400 -1.2102
   67MOL0     C 8733   0.830  10.526   7.176  0.1408  0.4055 -0.6574
   67MOL0     C 8734   0.703  10.494   7.091 -0.7896 -0.1528  0.9527
   67MOL0     C 8735   0.650  10.622   7.024 -0.0246 -0.1156  0.1534
   67MOL0     O 8736   0.517  10.594   6.983 -0.4711  0.6141  0.0124
   67MOL0     C 8737   0.446  10.681   6.910 -0.6452 -0.4897 -0.0273
   67MOL0     C 8738   0.485  10.815   6.901 -1.2230  0.5858 -0.3819
   67MOL0     C 8739   0.404  10.911   6.840 -0.6653 -0.0199 -0.8805
   67MOL0     C 8740   0.279  10.883   6.787  0.8292  0.1629 -0.4519
   67MOL0     C 8741   0.209  10.986   6.704  0.3614  0.2273 -0.7468
   67MOL0     O 8742   0.125  10.934   6.606  0.0890 -0.1260 -0.3994
   67MOL0     C 8743   0.023  11.012   6.557  0.9689  0.5255  0.1970
   67MOL0     C 8744  -0.010  11.019   6.424  0.2935 -0.0082 -0.9782
   67MOL0     C 8745  -0.114  11.103   6.375  0.0548 -0.6013 -0.6683
   67MOL0     C 8746  -0.185  11.188   6.460 -0.0002  0.2519  0.0194
   67MOL0     O 8747  -0.288  11.270   6.410 -0.3279  0.1072 -0.2784
   67MOL0     C 8748  -0.233  11.380   6.334  0.5396 -1.0401  0.1553
   67MOL0     C 8749  -0.305  11.499   6.381 -0.0822  0.1003 -0.1864
   67MOL0     C 8750  -0.456  11.504   6.352  0.4381 -0.5808  0.2840
   67MOL0     C 8751  -0.519  11.642   6.359  1.5854 -0.3424  0.6331
   67MOL0     C 8752  -0.669  11.622   6.369  0.3045 -0.8056  0.2734
   67MOL0     C 8753  -0.759  11.751   6.405  0.3542  0.9855  0.4179
   67MOL0     C 8754  -0.757  11.794   6.549  0.1663  1.4545 -0.1330
   67MOL0     C 8755  -0.837  11.916   6.577  0.2636 -0.4920  0.1129
   67MOL0    Cl 8756  -0.751  12.078   6.530  0.2683 -0.6747  0.0513
   67MOL0     C 8757  -0.162  11.181   6.592  0.4894 -0.1686 -0.4143
   67MOL0     C 8758  -0.056  11.096   6.643  0.7119 -0.0700  0.7761
   67MOL0     O 8759   0.236  11.107   6.721  0.7155  0.3023 -0.2917
   67MOL0     C 8760   0.234  10.750   6.811 -0.4047  0.2198  0.1994
   67MOL0     C 8761   0.319  10.648   6.863 -0.3437  0.0828 -0.2226
   67MOL0     N 8762   0.976  10.479   7.447 -0.0366  0.0495  0.0279
   67MOL0     N 8763   1.075  10.466   7.519  0.3847  0.1023  0.4133
   67MOL0     C 8764   2.341  10.535   7.558 -0.0491  0.6909  0.0370
   67MOL0     C 8765   2.458  10.499   7.490 -0.6445  0.1086  0.6591
   67MOL0     C 8766   2.864  10.410   7.336  0.4380 -0.2128  0.0654
   67MOL0     C 8767   2.895  10.343   7.221  0.2769  0.3363  0.3279
   67MOL0     C 8768   3.022  10.332   7.168  0.1966 -0.2219  0.8313
   67MOL0     C 8769   3.128  10.408   7.231  0.9931  0.2391 -0.4633
   67MOL0     O 8770   3.264  10.406   7.206 -0.0347  0.1567 -0.3899
   67MOL0     C 8771   3.312  10.276   7.168  0.3778 -0.0516  0.6021
   67MOL0     C 8772   3.463  10.272   7.141 -0.9282 -0.7583  0.0510
   67MOL0     C 8773   3.488  10.339   7.011  0.0176 -1.2503  0.4632
   67MOL0     C 8774   3.633  10.382   6.990  1.2102  0.9447  0.0189
   67MOL0     C 8775   3.736  10.279   7.031 -0.5542 -0.7912  1.0265
   67MOL0     C 8776   3.809  10.186   7.074 -0.3535 -0.8104 -0.5500
   67MOL0     C 8777   3.097  10.488   7.338  1.6270 -0.1180  0.7086
   67MOL0     C 8778   2.968  10.490   7.391  0.2739  0.2721  0.6256
   67MOL0     H 8779   2.664  10.700   7.652 -1.9118  2.5562  2.4634
   67MOL0     H 8780   2.479  10.748   7.769 -1.4087  2.3668 -1.2781
   67MOL0     H 8781   2.102  10.686   7.565 -0.6785  2.5048  0.1324
   67MOL0     H 8782   2.030  10.742   7.709 -2.0829 -1.1169  0.0810
   67MOL0     H 8783   1.989  10.533   7.798  1.2834  0.5463  0.8064
   67MOL0     H 8784   2.060  10.447   7.656 -1.8389 -0.7606 -0.2144
   67MOL0     H 8785   1.881  10.507   7.513 -1.1293  0.6048  1.0055
   67MOL0     H 8786   1.862  10.653   7.607  1.9531  0.7256 -1.0837
   67MOL0     H 8787   1.776  10.370   7.685 -3.1866 -0.6709 -0.7124
   67MOL0     H 8788   1.729  10.512   7.774  1.3949 -0.5090  0.5988
   67MOL0     H 8789   1.669  10.490   7.479  1.9275 -1.5070  1.1575
   67MOL0     H 8790   1.606  10.608   7.590 -0.5253  0.6695 -1.8221
   67MOL0     H 8791   1.477  10.432   7.709 -1.1655 -0.4651  0.4724
   67MOL0     H 8792   1.536  10.306   7.598 -1.3786 -0.4986  2.0649
   67MOL0     H 8793   1.351  10.528   7.559 -1.7450 -0.1199 -1.0688
   67MOL0     H 8794   1.433  10.463   7.417 -0.6393  0.0514 -0.1068
   67MOL0     H 8795   1.279  10.301   7.623  3.0299 -0.8426 -0.4074
   67MOL0     H 8796   1.335  10.259   7.458  4.3236  0.9201  0.7581
   67MOL0     H 8797   1.149  10.265   7.268 -0.2490  1.5317 -1.2429
   67MOL0     H 8798   0.795  10.334   7.274 -1.1532  1.3071 -1.4598
   67MOL0     H 8799   0.914  10.321   7.151 -1.3149 -1.1409 -0.6372
   67MOL0     H 8800   0.904  10.564   7.105  1.3318 -0.2673  0.1945
   67MOL0     H 8801   0.810  10.604   7.250 -1.6085 -2.2642  1.9122
   67MOL0     H 8802   0.728  10.418   7.017 -0.4691  0.0858  0.8144
   67MOL0     H 8803   0.626  10.444   7.151 -0.2017  0.5902  2.3858
   67MOL0     H 8804   0.709  10.649   6.937 -0.6944  0.2298 -0.2050
   67MOL0     H 8805   0.654  10.701   7.099  1.2426 -1.8419  2.0162
   67MOL0     H 8806   0.568  10.870   6.945 -1.5592  1.9904 -1.4138
   67MOL0     H 8807   0.437  11.014   6.826  2.9197 -0.7953  0.7367
   67MOL0     H 8808   0.049  10.956   6.359  2.1295 -0.6311  1.1619
   67MOL0     H 8809  -0.128  11.122   6.269 -0.1198  3.4916 -0.0726
   67MOL0     H 8810  -0.258  11.367   6.229  0.5884  0.1746 -0.0297
   67MOL0     H 8811  -0.125  11.397   6.348  0.1436 -0.5606  3.6668
   67MOL0     H 8812  -0.266  11.581   6.320 -3.9882  1.8610 -0.6681
   67MOL0     H 8813  -0.292  11.515   6.488  0.2917 -0.2735 -0.1765
   67MOL0     H 8814  -0.491  11.435   6.428  2.2174 -2.3795 -0.4305
   67MOL0     H 8815  -0.466  11.457   6.253  1.0537  0.3218 -0.2220
   67MOL0     H 8816  -0.479  11.690   6.449  2.9757  0.0817 -0.1950
   67MOL0     H 8817  -0.496  11.698   6.268  4.2576 -2.9944 -0.4912
   67MOL0     H 8818  -0.687  11.541   6.441  1.7972  0.4645  2.1959
   67MOL0     H 8819  -0.694  11.566   6.278 -1.8568 -0.9881  0.9396
   67MOL0     H 8820  -0.859  11.722   6.372  1.1283 -1.9220  0.3135
   67MOL0     H 8821  -0.724  11.842   6.356 -1.5810  0.8708 -1.3133
   67MOL0     H 8822  -0.798  11.710   6.605 -0.8828 -0.8415 -3.9629
   67MOL0     H 8823  -0.652  11.800   6.581 -0.4940 -0.5279  2.7535
   67MOL0     H 8824  -0.862  11.928   6.683 -0.0709 -0.2043  0.0037
   67MOL0     H 8825  -0.937  11.907   6.535 -0.5533  5.0799  0.0471
   67MOL0     H 8826  -0.230  11.244   6.650 -0.3855 -1.1581 -0.3211
   67MOL0     H 8827  -0.036  11.115   6.748 -0.9433 -0.4012  1.1789
   67MOL0     H 8828   0.134  10.711   6.798  0.5249 -2.2831  0.0324
   67MOL0     H 8829   0.293  10.546   6.889 -0.4971 -0.3165 -1.8496
   67MOL0     H 8830   2.252  10.478   7.536  1.5580 -1.2287 -2.0118
   67MOL0     H 8831   2.442  10.425   7.413 -4.6935 -1.4297  2.7170
   67MOL0     H 8832   2.815  10.294   7.166 -0.0478  1.4703 -0.2306
   67MOL0     H 8833   3.035  10.261   7.088 -1.0781  0.3608  0.0836
   67MOL0     H 8834   3.258  10.243   7.078  2.8764  0.0343 -1.0105
   67MOL0     H 8835   3.281  10.199   7.240 -4.4110 -0.4696 -1.5145
   67MOL0     H 8836   3.513  10.323   7.224 -0.3025  1.4581 -1.5904
   67MOL0     H 8837   3.498  10.171   7.122  1.9842  0.0912  0.4295
   67MOL0     H 8838   3.428  10.430   7.001  1.4485 -0.3737 -0.5694
   67MOL0     H 8839   3.469  10.260   6.937 -0.4003  0.4584 -1.3592
   67MOL0     H 8840   3.643  10.408   6.884 -1.5822 -0.1683 -0.5885
   67MOL0     H 8841   3.642  10.462   7.064  0.1856  0.9658  0.1234
   67MOL0     H 8842   3.885  10.115   7.099 -0.2434 -0.3723  0.4179
   67MOL0     H 8843   3.175  10.549   7.383  0.1449  0.9806  1.9267
   67MOL0     H 8844   2.949  10.548   7.481  2.7589  0.1348  1.3208
   68MOL0     O 8845  10.778  10.712  11.239  0.2085  0.0829  0.7146
   68MOL0     C 8846  10.727  10.614  11.194 -0.1323 -0.3280 -0.5250
   68MOL0     O 8847  10.607  10.603  11.130  0.6432  0.6108 -0.2123
   68MOL0     C 8848  10.515  10.698  11.158 -0.4643 -0.5910  0.0898
   68MOL0     C 8849  10.532  10.830  11.137  0.4265 -0.4254  0.8623
   68MOL0     C 8850  10.432  10.918  11.179  0.7827 -0.1349 -0.9469
   68MOL0     C 8851  10.311  10.870  11.241  0.4014  0.1485 -0.1111
   68MOL0     O 8852  10.202  10.942  11.295  0.2879  0.1832  0.2468
   68MOL0     C 8853  10.202  11.082  11.277 -0.6575 -0.2359  0.0108
   68MOL0     C 8854  10.152  11.098  11.133  0.7228  0.8389  0.1689
   68MOL0     C 8855  10.106  11.239  11.104  1.2852  0.2258  0.5311
   68MOL0     C 8856  10.073  11.262  10.956  0.0777 -0.2996  0.2261
   68MOL0     C 8857   9.998  11.394  10.940  0.4039 -0.4795 -0.1534
   68MOL0     C 8858   9.962  11.427  10.789 -0.1694 -0.1616  0.2626
   68MOL0     C 8859   9.862  11.345  10.714 -0.4989  0.3064 -0.7022
   68MOL0     C 8860   9.731  11.364  10.788 -0.4734 -0.4901  0.6051
   68MOL0     N 8861   9.665  11.500  10.792 -0.1745 -0.2370  0.9438
   68MOL0     C 8862   9.585  11.535  10.897 -0.1577 -1.5949  0.2444
   68MOL0     C 8863   9.513  11.647  10.850  0.0173  0.4780 -0.3298
   68MOL0     C 8864   9.395  11.718  10.916 -0.1172 -1.3306 -0.0014
   68MOL0     C 8865   9.292  11.625  10.984 -0.2545  0.9812  0.5668
   68MOL0     C 8866   9.151  11.701  10.979 -0.6743  0.1611 -0.3281
   68MOL0     C 8867   9.043  11.611  11.046  1.3494  0.1109  0.1783
   68MOL0     O 8868   9.022  11.498  10.958  0.1535 -0.0459 -0.2929
   68MOL0     C 8869   8.903  11.438  10.980  0.8198 -0.2710  0.0854
   68MOL0     C 8870   8.860  11.369  11.093  0.0015  0.2157  0.4247
   68MOL0     C 8871   8.733  11.322  11.109  0.2398  0.2158  0.4061
   68MOL0     C 8872   8.640  11.324  11.011 -0.0983  0.6381 -1.5129
   68MOL0     C 8873   8.507  11.251  11.021 -0.1954 -1.1491 -0.2655
   68MOL0     O 8874   8.420  11.279  10.928 -0.2370 -0.6025  0.4878
   68MOL0     C 8875   8.295  11.231  10.948  0.4254  0.3197  0.3942
   68MOL0     C 8876   8.210  11.305  11.027 -0.6670 -0.7164  0.0351
   68MOL0     C 8877   8.077  11.275  11.043 -1.0270  0.1566  0.6002
   68MOL0     C 8878   8.032  11.151  10.990  0.4517  0.7429 -0.2215
   68MOL0     O 8879   7.898  11.116  10.994 -0.4634  0.2259  0.2803
   68MOL0     C 8880   7.813  11.180  11.093 -0.6119 -0.2540 -0.1458
   68MOL0     C 8881   7.689  11.106  11.130  0.0399 -0.4918  0.7014
   68MOL0     C 8882   7.703  10.970  11.195  0.2676  0.9691  0.8219
   68MOL0     C 8883   7.570  10.888  11.202 -0.1836 -0.1171 -0.1266
   68MOL0     C 8884   7.479  10.955  11.309 -0.5782 -0.5062  0.7096
   68MOL0     C 8885   7.336  10.908  11.305 -0.3266 -1.0663 -0.2083
   68MOL0     C 8886   7.257  10.962  11.428 -0.0333  0.7042  0.2737
   68MOL0     C 8887   7.110  10.923  11.417  0.3051  1.3429  0.5799
   68MOL0    Cl 8888   7.085  10.812  11.556  0.0130  0.4205 -0.0612
   68MOL0     C 8889   8.118  11.077  10.915  0.5247 -0.0855  0.3781
   68MOL0     C 8890   8.251  11.115  10.888 -0.1136  0.0245  0.3890
   68MOL0     O 8891   8.494  11.172  11.118  0.2348 -0.0417 -0.7372
   68MOL0     C 8892   8.682  11.391  10.890  0.3827 -0.2862  0.2769
   68MOL0     C 8893   8.816  11.452  10.877  0.2558  0.2256 -0.0206
   68MOL0     N 8894   9.569  11.676  10.727  0.2354  0.2022 -0.2833
   68MOL0     N 8895   9.648  11.583  10.682 -0.5114  0.2073 -0.0191
   68MOL0     C 8896  10.299  10.735  11.258  0.1869  0.3946  0.1339
   68MOL0     C 8897  10.399  10.649  11.219 -0.8996  0.3952 -0.0831
   68MOL0     C 8898  10.804  10.492  11.213  0.9115  0.2665 -0.5376
   68MOL0     C 8899  10.941  10.503  11.249  0.7201  0.0872  0.0296
   68MOL0     C 8900  11.021  10.390  11.253  0.5856 -0.4696  0.0458
   68MOL0     C 8901  10.968  10.269  11.216 -0.3077  0.5785 -0.5175
   68MOL0     O 8902  11.051  10.154  11.211 -0.5671  0.2481  0.8297
   68MOL0     C 8903  11.181  10.148  11.276  0.0812  0.5463 -1.2497
   68MOL0     C 8904  11.239  10.003  11.292 -0.2684 -0.3509 -0.5873
   68MOL0     C 8905  11.219   9.895  11.182 -0.1329 -1.0404  0.4842
   68MOL0     C 8906  11.284   9.938  11.053 -1.3289  0.3323  0.3687
   68MOL0     C 8907  11.364   9.826  10.993  0.8367 -0.1039 -0.2389
   68MOL0     C 8908  11.413   9.733  10.940  0.3093  0.8615 -0.3037
   68MOL0     C 8909  10.823  10.259  11.187 -0.8610  0.4952 -0.7024
   68MOL0     C 8910  10.744  10.372  11.189  0.3704 -0.2986  0.1479
   68MOL0     H 8911  10.627  10.876  11.111  0.1486  0.8870  2.0542
   68MOL0     H 8912  10.443  11.026  11.172 -2.2532  0.2078 -1.9381
   68MOL0     H 8913  10.296  11.138  11.290 -0.9270 -0.0040  0.9965
   68MOL0     H 8914  10.135  11.127  11.350 -1.6254 -2.7422  0.7739
   68MOL0     H 8915  10.074  11.023  11.116  1.7810 -1.1252  3.1556
   68MOL0     H 8916  10.237  11.086  11.066 -0.3090  0.0665 -1.0592
   68MOL0     H 8917  10.182  11.314  11.129 -0.7651  1.4449  3.7461
   68MOL0     H 8918  10.017  11.257  11.165  1.9377 -1.5276  2.0809
   68MOL0     H 8919  10.164  11.275  10.897  0.0812 -1.5735 -0.0806
   68MOL0     H 8920  10.004  11.183  10.926  1.0072 -1.2611  0.5688
   68MOL0     H 8921  10.061  11.476  10.978 -2.0666 -0.0505  3.5366
   68MOL0     H 8922   9.912  11.408  11.006 -0.3270 -1.3953 -0.8892
   68MOL0     H 8923  10.050  11.421  10.724 -1.6168  0.0621 -1.8072
   68MOL0     H 8924   9.930  11.532  10.782 -0.1675 -0.1215  0.7650
   68MOL0     H 8925   9.855  11.375  10.609  0.3942 -1.3041 -1.2621
   68MOL0     H 8926   9.890  11.239  10.710 -0.1696  0.3221  0.6392
   68MOL0     H 8927   9.733  11.328  10.892 -0.3681  0.0678  0.7983
   68MOL0     H 8928   9.666  11.297  10.730  2.0228 -1.7907 -0.8821
   68MOL0     H 8929   9.577  11.471  10.985  1.2504 -1.4500  0.5120
   68MOL0     H 8930   9.344  11.779  10.841 -2.5829 -3.2288  0.0383
   68MOL0     H 8931   9.431  11.789  10.991 -1.5179  0.4845 -0.9674
   68MOL0     H 8932   9.328  11.591  11.082  1.8265 -1.9246 -1.0593
   68MOL0     H 8933   9.273  11.533  10.929 -0.1449  0.5232  1.2749
   68MOL0     H 8934   9.157  11.801  11.024 -0.3866  0.5444 -1.1837
   68MOL0     H 8935   9.131  11.721  10.873  2.3938 -0.5230 -1.1301
   68MOL0     H 8936   8.948  11.662  11.063  2.6549  1.5755  4.5222
   68MOL0     H 8937   9.074  11.573  11.144 -0.0149 -1.6698 -0.0264
   68MOL0     H 8938   8.936  11.367  11.171  1.5206  1.8465 -0.9307
   68MOL0     H 8939   8.706  11.282  11.206 -0.1684 -1.7272 -0.4781
   68MOL0     H 8940   8.256  11.392  11.073 -0.4619 -0.6606 -0.2726
   68MOL0     H 8941   8.006  11.343  11.089  0.1915 -0.4636  3.6091
   68MOL0     H 8942   7.779  11.267  11.036 -0.0844 -1.9476 -3.2835
   68MOL0     H 8943   7.868  11.203  11.185  0.3302 -1.2969 -0.4284
   68MOL0     H 8944   7.635  11.083  11.038 -0.2767 -0.8373  0.9719
   68MOL0     H 8945   7.609  11.168  11.170  0.5553  0.9851 -0.4800
   68MOL0     H 8946   7.744  10.977  11.296  0.3109 -0.2968  0.9133
   68MOL0     H 8947   7.766  10.901  11.138 -0.3700  0.8996  0.1883
   68MOL0     H 8948   7.528  10.884  11.101  1.7360  0.3174 -0.9923
   68MOL0     H 8949   7.587  10.784  11.231  1.2614 -0.5505 -2.3195
   68MOL0     H 8950   7.482  11.063  11.294  1.4590 -0.8214 -1.9592
   68MOL0     H 8951   7.525  10.927  11.403  1.4216 -4.0082 -1.0955
   68MOL0     H 8952   7.333  10.799  11.295  0.1086 -1.0780 -0.2261
   68MOL0     H 8953   7.289  10.945  11.214 -0.2031  0.0592  0.1612
   68MOL0     H 8954   7.298  10.934  11.525  2.8646 -1.8982 -1.5525
   68MOL0     H 8955   7.253  11.072  11.423 -0.7253  0.6896  0.3548
   68MOL0     H 8956   7.081  10.874  11.323  0.7774 -1.9928  2.0293
   68MOL0     H 8957   7.050  11.014  11.427 -0.6735  0.6891  0.8417
   68MOL0     H 8958   8.079  10.988  10.866  3.7630 -0.5776 -1.6202
   68MOL0     H 8959   8.314  11.058  10.821  0.2059 -0.7149  1.3053
   68MOL0     H 8960   8.622  11.398  10.800 -1.3816  1.1046  1.5018
   68MOL0     H 8961   8.841  11.500  10.783  2.7009  0.8684  0.8879
   68MOL0     H 8962  10.212  10.698  11.311  1.3215 -2.7745  0.0042
   68MOL0     H 8963  10.379  10.545  11.245 -2.5208  0.6569 -0.1759
   68MOL0     H 8964  10.987  10.601  11.265 -2.3420  1.3081  2.3062
   68MOL0     H 8965  11.128  10.394  11.272  0.7718 -2.4119 -0.3563
   68MOL0     H 8966  11.172  10.209  11.366 -2.5793  0.4371 -1.3562
   68MOL0     H 8967  11.246  10.203  11.208  0.3158  1.6441 -0.1673
   68MOL0     H 8968  11.348  10.005  11.307 -0.3226 -0.2380 -0.1894
   68MOL0     H 8969  11.196   9.967  11.386 -2.1504 -1.1353 -1.6967
   68MOL0     H 8970  11.112   9.876  11.171 -0.8289  0.6016  3.4547
   68MOL0     H 8971  11.262   9.801  11.217  2.6277 -0.6282 -1.4290
   68MOL0     H 8972  11.210   9.970  10.979 -2.0321 -0.0895  0.8820
   68MOL0     H 8973  11.358  10.017  11.069  1.2093 -0.7204 -4.3632
   68MOL0     H 8974  11.436   9.635  10.903 -4.4991 -0.0674 -1.4666
   68MOL0     H 8975  10.777  10.163  11.167  1.6118 -1.1418  0.8398
   68MOL0     H 8976  10.636  10.364  11.175  0.5887  0.4107 -2.6314
   69MOL0     O 8977   1.616   9.219   9.563 -0.4729  0.5051 -0.1231
   69MOL0     C 8978   1.645   9.117   9.512  0.1918  0.3471 -0.2940
   69MOL0     O 8979   1.558   9.015   9.496  0.0873 -0.1097  1.0350
   69MOL0     C 8980   1.426   9.023   9.522  0.2880  0.2637 -0.0442
   69MOL0     C 8981   1.357   8.900   9.530  1.4077  0.1514  0.0515
   69MOL0     C 8982   1.217   8.894   9.541  0.3299 -0.1367 -1.5164
   69MOL0     C 8983   1.139   9.013   9.543  0.0004  0.4719  0.7366
   69MOL0     O 8984   1.006   9.012   9.539 -0.2490 -0.3389  0.0371
   69MOL0     C 8985   0.939   9.097   9.638  1.0976  0.3132  0.1868
   69MOL0     C 8986   0.816   9.024   9.696 -0.2601 -0.6263 -0.1016
   69MOL0     C 8987   0.731   8.961   9.596 -0.7319 -0.4113  0.3848
   69MOL0     C 8988   0.590   8.922   9.645  0.6045 -0.6549 -0.1040
   69MOL0     C 8989   0.517   9.037   9.719 -0.7986  0.3608 -0.1474
   69MOL0     C 8990   0.368   9.001   9.735  0.0346  0.7761 -0.3286
   69MOL0     C 8991   0.293   9.043   9.858 -0.3652 -0.9213 -0.0061
   69MOL0     C 8992   0.271   9.196   9.862 -0.0019 -0.8529 -0.1444
   69MOL0     N 8993   0.187   9.232   9.747  0.3944 -0.1993  0.5489
   69MOL0     C 8994   0.053   9.204   9.735 -0.8074  0.4208 -0.0703
   69MOL0     C 8995   0.020   9.242   9.604 -0.6237 -0.4459  0.8611
   69MOL0     C 8996  -0.108   9.216   9.534  1.1309 -0.3827  0.0427
   69MOL0     C 8997  -0.193   9.349   9.530  0.1542  0.0126 -0.2038
   69MOL0     C 8998  -0.241   9.386   9.666  0.2220 -0.4798 -0.0711
   69MOL0     C 8999  -0.341   9.505   9.649 -0.0483 -0.4828  0.4423
   69MOL0     O 9000  -0.399   9.543   9.779  0.1729 -0.0210  0.1328
   69MOL0     C 9001  -0.533   9.569   9.804 -1.0079 -0.3348 -0.1337
   69MOL0     C 9002  -0.569   9.569   9.938  0.1611  0.4758  0.0243
   69MOL0     C 9003  -0.697   9.615   9.988 -0.7424  0.2415 -0.3047
   69MOL0     C 9004  -0.792   9.657   9.886 -0.1087 -0.2566 -0.2998
   69MOL0     C 9005  -0.916   9.720   9.933 -0.0190 -0.3220  0.3404
   69MOL0     O 9006  -0.986   9.795   9.844  0.5075 -0.0783 -0.4328
   69MOL0     C 9007  -1.117   9.824   9.897 -0.6130  0.0671 -0.8216
   69MOL0     C 9008  -1.159   9.959   9.888 -0.3631 -0.2786  0.5109
   69MOL0     C 9009  -1.290   9.997   9.929  0.0978 -0.4643 -0.6833
   69MOL0     C 9010  -1.388   9.904   9.969  0.0142  0.4964 -0.1451
   69MOL0     O 9011  -1.509   9.957  10.001 -0.2495 -0.7471 -0.1319
   69MOL0     C 9012  -1.619   9.865  10.038 -0.3099  0.8808  0.7398
   69MOL0     C 9013  -1.750   9.936  10.029  0.2020  0.0483  0.1826
   69MOL0     C 9014  -1.795   9.948   9.882  0.1122 -0.3568  0.8256
   69MOL0     C 9015  -1.943   9.985   9.879  0.5954 -0.2991 -1.2331
   69MOL0     C 9016  -2.003   9.934   9.744  0.7322 -0.2448  0.8469
   69MOL0     C 9017  -2.134  10.008   9.708 -0.4079 -0.2015  0.7012
   69MOL0     C 9018  -2.183   9.971   9.559  0.4699 -0.1179 -0.2600
   69MOL0     C 9019  -2.323  10.034   9.533  1.7456 -0.4151 -0.5344
   69MOL0    Cl 9020  -2.374  10.064   9.361  0.2266 -0.4561 -0.4137
   69MOL0     C 9021  -1.345   9.771   9.975  0.2637 -0.6370  0.2436
   69MOL0     C 9022  -1.216   9.731   9.931 -0.7216 -0.4864  1.0985
   69MOL0     O 9023  -0.937   9.712  10.059  0.3916  0.3372  0.0753
   69MOL0     C 9024  -0.755   9.663   9.754 -0.4250 -0.9563  0.5994
   69MOL0     C 9025  -0.631   9.612   9.715 -0.0761 -0.0675 -0.0507
   69MOL0     N 9026   0.129   9.313   9.550  0.4396  0.2528  0.4290
   69MOL0     N 9027   0.224   9.305   9.630 -0.6594  0.5086 -0.2253
   69MOL0     C 9028   1.204   9.134   9.541 -0.4737  0.1397  0.5869
   69MOL0     C 9029   1.344   9.135   9.528  0.4564  0.3129  0.3129
   69MOL0     C 9030   1.791   9.101   9.477 -0.1130 -0.5092 -0.0081
   69MOL0     C 9031   1.876   9.219   9.461 -1.0970 -0.0660 -0.2636
   69MOL0     C 9032   2.003   9.202   9.404 -0.4473  0.7164  0.3064
   69MOL0     C 9033   2.056   9.077   9.362 -0.0437  0.0226 -0.7289
   69MOL0     O 9034   2.172   9.058   9.287 -0.7180  0.1527 -0.2030
   69MOL0     C 9035   2.197   9.145   9.173  0.0723  0.3787  0.9680
   69MOL0     C 9036   2.088   9.132   9.062 -0.0051 -0.0009 -0.3892
   69MOL0     C 9037   2.101   8.992   9.006  0.0115  0.4853  0.3630
   69MOL0     C 9038   1.997   8.960   8.893  0.3515  0.2471  0.8767
   69MOL0     C 9039   1.861   8.935   8.936 -0.6433  0.2409 -0.6276
   69MOL0     C 9040   1.743   8.937   8.966 -0.9851  0.3598 -0.3797
   69MOL0     C 9041   1.975   8.965   9.393 -0.2521  0.1270 -0.1120
   69MOL0     C 9042   1.850   8.977   9.440  0.1774 -0.0896  0.0395
   69MOL0     H 9043   1.413   8.808   9.519 -0.4557 -1.1046  0.5398
   69MOL0     H 9044   1.163   8.801   9.551 -1.4401  0.9818  0.0376
   69MOL0     H 9045   0.904   9.185   9.583 -0.2736 -0.3735 -0.0814
   69MOL0     H 9046   1.002   9.130   9.722  1.6320 -1.6706  0.6093
   69MOL0     H 9047   0.772   9.104   9.756  3.6996  1.9948 -0.3329
   69MOL0     H 9048   0.851   8.947   9.766 -0.2698 -0.7227 -0.2014
   69MOL0     H 9049   0.793   8.879   9.556  1.7991  1.6771 -0.2660
   69MOL0     H 9050   0.727   9.034   9.515 -0.0813 -0.8968 -0.1055
   69MOL0     H 9051   0.528   8.887   9.562  3.2135 -1.5421 -1.8158
   69MOL0     H 9052   0.613   8.832   9.703  1.1647 -1.7946 -1.9940
   69MOL0     H 9053   0.530   9.127   9.658 -0.6898  0.0483 -0.5909
   69MOL0     H 9054   0.558   9.048   9.820 -0.3312  0.6853 -0.3707
   69MOL0     H 9055   0.363   8.892   9.742 -0.9014  0.7057 -1.7136
   69MOL0     H 9056   0.303   9.022   9.649 -1.3365  0.8558  0.6940
   69MOL0     H 9057   0.203   8.981   9.864 -1.0610 -0.0556 -1.2880
   69MOL0     H 9058   0.352   9.020   9.948  0.4377  1.2163  0.0601
   69MOL0     H 9059   0.369   9.244   9.850  0.2300 -1.0750  0.8116
   69MOL0     H 9060   0.228   9.228   9.957  0.5068 -1.4260  0.2892
   69MOL0     H 9061   0.011   9.133   9.805  1.6121 -1.5960 -0.5445
   69MOL0     H 9062  -0.180   9.147   9.579 -1.0945  1.6257 -0.2478
   69MOL0     H 9063  -0.079   9.189   9.432 -1.4624  0.3592 -0.9887
   69MOL0     H 9064  -0.280   9.319   9.471 -0.1548 -3.3029  1.7150
   69MOL0     H 9065  -0.134   9.433   9.493  0.4079 -1.0050 -2.3015
   69MOL0     H 9066  -0.295   9.301   9.709 -2.1741 -0.2344 -2.3620
   69MOL0     H 9067  -0.158   9.419   9.730 -1.0828  1.1952  0.8482
   69MOL0     H 9068  -0.417   9.475   9.576  2.4865 -0.4906 -2.4115
   69MOL0     H 9069  -0.289   9.593   9.609  0.0312 -1.8013 -2.5779
   69MOL0     H 9070  -0.500   9.526  10.010 -0.2768  1.0361  0.8021
   69MOL0     H 9071  -0.724   9.596  10.091 -1.0560 -1.8782 -0.7265
   69MOL0     H 9072  -1.095  10.042   9.860 -0.7740  0.4332  1.6280
   69MOL0     H 9073  -1.325  10.099   9.911  1.4755 -0.1130 -1.5778
   69MOL0     H 9074  -1.619   9.815  10.135  0.4566  0.5084  0.5620
   69MOL0     H 9075  -1.604   9.784   9.966  4.5357  2.7059 -0.7423
   69MOL0     H 9076  -1.752  10.037  10.070  0.2618 -0.5246  1.6593
   69MOL0     H 9077  -1.827   9.881  10.085  0.6950  0.1644  0.9825
   69MOL0     H 9078  -1.790   9.857   9.820  0.8677  1.9341 -2.7636
   69MOL0     H 9079  -1.735  10.018   9.823  1.0263 -2.2060 -0.5617
   69MOL0     H 9080  -2.003   9.941   9.959 -0.2009 -0.9655 -2.1818
   69MOL0     H 9081  -1.936  10.094   9.888 -1.0477 -0.3261  1.2322
   69MOL0     H 9082  -2.015   9.826   9.743 -3.2613  0.0515 -0.7242
   69MOL0     H 9083  -1.934   9.972   9.668 -0.5346  0.5898  0.0818
   69MOL0     H 9084  -2.110  10.114   9.700 -1.7710  0.0769 -0.2263
   69MOL0     H 9085  -2.220   9.988   9.773 -1.6650  2.0338 -0.1569
   69MOL0     H 9086  -2.120  10.025   9.489 -0.6564  1.4445 -0.1091
   69MOL0     H 9087  -2.187   9.862   9.543 -0.4084 -0.4210  1.7468
   69MOL0     H 9088  -2.332  10.131   9.583  1.7814 -1.4093  1.4961
   69MOL0     H 9089  -2.409   9.976   9.568  0.7745  0.2504 -1.7046
   69MOL0     H 9090  -1.420   9.698  10.003  1.1067 -1.6194  0.0329
   69MOL0     H 9091  -1.184   9.628   9.924 -0.1205 -0.2945 -5.8837
   69MOL0     H 9092  -0.828   9.698   9.682 -1.1643 -0.3018  1.6384
   69MOL0     H 9093  -0.607   9.606   9.609 -1.1516 -0.3545 -0.3003
   69MOL0     H 9094   1.150   9.226   9.522  0.0916  0.4986  0.6856
   69MOL0     H 9095   1.390   9.233   9.518  1.5658 -0.1319  0.7845
   69MOL0     H 9096   1.836   9.317   9.486 -1.5625  0.0525 -1.4391
   69MOL0     H 9097   2.059   9.291   9.377  0.4821 -0.6851 -2.9602
   69MOL0     H 9098   2.297   9.112   9.143  0.1689  1.5340 -0.0370
   69MOL0     H 9099   2.202   9.247   9.210  0.0070  1.3861 -1.6077
   69MOL0     H 9100   1.994   9.158   9.112  1.1180  2.8762  0.4112
   69MOL0     H 9101   2.096   9.196   8.973  0.7488  1.2734  0.5671
   69MOL0     H 9102   2.085   8.919   9.085 -0.7376 -0.8141 -0.9355
   69MOL0     H 9103   2.203   8.975   8.970 -0.3891 -1.2137 -0.0778
   69MOL0     H 9104   1.994   9.037   8.815 -3.3157 -1.2441 -0.6898
   69MOL0     H 9105   2.026   8.861   8.855 -1.0147 -0.7455  2.3070
   69MOL0     H 9106   1.637   8.939   8.979 -0.8765  0.2483  0.6089
   69MOL0     H 9107   2.008   8.863   9.375 -1.8837 -1.2634  3.7589
   69MOL0     H 9108   1.780   8.894   9.442 -0.0075  0.0552  2.8115
   70MOL0     O 9109   2.507   6.275   2.611 -0.7330 -0.1667 -1.0924
   70MOL0     C 9110   2.548   6.360   2.694  0.7419  0.2822 -0.1510
   70MOL0     O 9111   2.498   6.387   2.819 -0.0129 -0.9745  0.4568
   70MOL0     C 9112   2.386   6.320   2.856  0.1112  0.5975 -0.2435
   70MOL0     C 9113   2.408   6.194   2.911  0.3420 -0.0930  1.1784
   70MOL0     C 9114   2.294   6.113   2.937  0.6647  1.1664 -0.1272
   70MOL0     C 9115   2.161   6.157   2.922 -0.1860  1.0246  0.4024
   70MOL0     O 9116   2.062   6.068   2.964 -0.2442 -0.1100  0.2517
   70MOL0     C 9117   1.923   6.093   2.931 -0.0962 -0.2339  0.0380
   70MOL0     C 9118   1.863   5.983   2.856 -0.0786  0.2913  0.2087
   70MOL0     C 9119   1.723   6.009   2.795 -0.5852 -0.1460  0.0052
   70MOL0     C 9120   1.611   6.046   2.881 -0.4238 -0.2050  0.4472
   70MOL0     C 9121   1.481   6.031   2.803 -0.5440  0.0214  0.2995
   70MOL0     C 9122   1.435   5.883   2.797  0.7422 -0.5999  0.1119
   70MOL0     C 9123   1.284   5.881   2.750  0.2376 -0.2707 -0.3372
   70MOL0     C 9124   1.212   5.752   2.790  0.4199 -0.3341 -0.1557
   70MOL0     N 9125   1.068   5.762   2.764  0.0233  0.4414 -0.1357
   70MOL0     C 9126   0.992   5.646   2.750  0.0473 -0.3632 -0.6107
   70MOL0     C 9127   0.869   5.692   2.750  0.8446 -0.1543 -0.1170
   70MOL0     C 9128   0.746   5.610   2.718 -0.1616 -0.2789 -0.3316
   70MOL0     C 9129   0.736   5.599   2.566  0.6067 -0.1700 -0.1279
   70MOL0     C 9130   0.716   5.733   2.497  0.1212  0.4504  0.3647
   70MOL0     C 9131   0.581   5.802   2.511  1.1557  0.0140 -0.6586
   70MOL0     O 9132   0.480   5.702   2.484 -0.5502 -0.2433  0.4653
   70MOL0     C 9133   0.351   5.733   2.497  0.4252  0.0216 -0.1132
   70MOL0     C 9134   0.305   5.838   2.573 -0.5642 -0.5546  0.2089
   70MOL0     C 9135   0.174   5.865   2.581  0.4085  0.7313 -0.0840
   70MOL0     C 9136   0.082   5.776   2.520  0.2842 -0.1297 -0.1397
   70MOL0     C 9137  -0.058   5.791   2.551 -0.4699 -0.2216  0.0904
   70MOL0     O 9138  -0.121   5.671   2.569 -0.6729  0.1903 -0.1439
   70MOL0     C 9139  -0.255   5.674   2.570 -0.4861 -0.2588  0.7708
   70MOL0     C 9140  -0.316   5.684   2.689  0.4726  0.1072 -0.3532
   70MOL0     C 9141  -0.457   5.684   2.703  0.1352 -0.4332  0.4610
   70MOL0     C 9142  -0.533   5.667   2.583  0.0759  0.2861  0.3336
   70MOL0     O 9143  -0.672   5.645   2.577 -0.2455 -0.4340 -0.5742
   70MOL0     C 9144  -0.739   5.638   2.708 -0.8818  0.6457 -0.4684
   70MOL0     C 9145  -0.891   5.656   2.696  0.5446  0.1545  1.0716
   70MOL0     C 9146  -0.967   5.677   2.826  0.3373 -0.2353  0.0218
   70MOL0     C 9147  -1.121   5.654   2.797  0.3894 -1.1013 -0.1748
   70MOL0     C 9148  -1.195   5.787   2.771 -0.6942 -0.2807  0.5988
   70MOL0     C 9149  -1.351   5.756   2.751 -0.9419 -0.1924 -0.8543
   70MOL0     C 9150  -1.391   5.701   2.619 -0.2481  0.2334  0.1130
   70MOL0     C 9151  -1.505   5.590   2.632  0.1748 -0.2591 -0.1970
   70MOL0    Cl 9152  -1.656   5.677   2.573  0.0521 -0.0008 -0.2964
   70MOL0     C 9153  -0.469   5.651   2.456 -0.8236  0.0688 -0.8361
   70MOL0     C 9154  -0.324   5.658   2.449  0.0371  0.3819 -1.1010
   70MOL0     O 9155  -0.100   5.904   2.560  0.9205  0.2492 -0.2714
   70MOL0     C 9156   0.128   5.663   2.450 -0.3841 -0.6856  0.3803
   70MOL0     C 9157   0.264   5.649   2.430 -0.8631  0.4105  0.0660
   70MOL0     N 9158   0.867   5.826   2.783 -1.1664  0.4408 -0.0621
   70MOL0     N 9159   0.987   5.873   2.787 -0.4757  0.4273  0.6650
   70MOL0     C 9160   2.145   6.287   2.869 -0.2703 -0.0935 -0.1590
   70MOL0     C 9161   2.256   6.371   2.839  0.7644 -0.0476  0.4067
   70MOL0     C 9162   2.670   6.431   2.660 -0.2440 -0.4359  0.2177
   70MOL0     C 9163   2.745   6.495   2.769  0.1306  0.0778  0.5282
   70MOL0     C 9164   2.865   6.560   2.745  0.3372 -0.2335  0.0839
   70MOL0     C 9165   2.917   6.560   2.611  0.2246  0.4965  0.3221
   70MOL0     O 9166   3.039   6.627   2.603  0.1516  0.4143 -0.4757
   70MOL0     C 9167   3.116   6.585   2.492 -0.4373 -0.3354 -0.6890
   70MOL0     C 9168   3.261   6.631   2.503 -0.2877 -0.2210 -0.8077
   70MOL0     C 9169   3.333   6.567   2.626  0.0762  0.6016  0.3603
   70MOL0     C 9170   3.472   6.627   2.638  0.0740  0.4249 -0.9380
   70MOL0     C 9171   3.552   6.584   2.525 -0.1797 -0.1607  0.7365
   70MOL0     C 9172   3.628   6.542   2.432 -0.3584  0.5068  0.2022
   70MOL0     C 9173   2.856   6.489   2.505 -0.3732  0.4612 -0.4601
   70MOL0     C 9174   2.732   6.433   2.531  0.0239  0.1852  0.0102
   70MOL0     H 9175   2.508   6.154   2.926  0.7092  0.5014  0.3876
   70MOL0     H 9176   2.302   6.011   2.972  0.9944  0.4160 -2.2860
   70MOL0     H 9177   1.916   6.181   2.865  1.9114  1.0178  1.3715
   70MOL0     H 9178   1.871   6.122   3.023 -0.5533  3.2213 -1.1333
   70MOL0     H 9179   1.856   5.893   2.918  1.0937  0.1108  0.0937
   70MOL0     H 9180   1.927   5.952   2.773 -1.9306 -0.0089 -1.1806
   70MOL0     H 9181   1.692   5.929   2.727 -0.2636 -0.2999  0.0339
   70MOL0     H 9182   1.735   6.097   2.731 -0.3035  0.4620  0.8782
   70MOL0     H 9183   1.613   5.991   2.975  1.8025 -2.3859 -0.7596
   70MOL0     H 9184   1.633   6.146   2.919  1.2056 -0.1535 -0.5349
   70MOL0     H 9185   1.491   6.068   2.700 -1.7140 -0.6138 -0.0734
   70MOL0     H 9186   1.400   6.087   2.850 -3.2195 -1.0852 -2.5992
   70MOL0     H 9187   1.449   5.836   2.895  0.3969  0.9726  0.9572
   70MOL0     H 9188   1.496   5.831   2.723 -0.1232  1.7104 -2.3660
   70MOL0     H 9189   1.231   5.964   2.797  0.4265 -0.2581 -0.1456
   70MOL0     H 9190   1.277   5.901   2.643  2.8019 -0.1543 -0.5452
   70MOL0     H 9191   1.231   5.738   2.897  1.7806 -0.2439 -0.3608
   70MOL0     H 9192   1.267   5.669   2.746 -1.6188 -1.9517  0.2132
   70MOL0     H 9193   1.033   5.547   2.733  0.3845  0.2181 -3.6700
   70MOL0     H 9194   0.654   5.655   2.757 -0.5087 -1.7404  0.6258
   70MOL0     H 9195   0.758   5.509   2.758  0.7546  0.5036  1.5338
   70MOL0     H 9196   0.651   5.535   2.540 -1.1402  2.2049 -0.5831
   70MOL0     H 9197   0.826   5.545   2.535  2.1631  1.1056  1.9026
   70MOL0     H 9198   0.804   5.794   2.522  1.3229 -0.5643 -1.2142
   70MOL0     H 9199   0.730   5.719   2.389 -0.5116 -1.4566  0.4982
   70MOL0     H 9200   0.578   5.885   2.440  1.0002  1.0943  0.5647
   70MOL0     H 9201   0.576   5.834   2.616  2.4376 -1.2396 -0.1668
   70MOL0     H 9202   0.377   5.910   2.612 -1.6000  1.1298 -0.8990
   70MOL0     H 9203   0.144   5.952   2.639 -1.1848  0.3862 -0.3493
   70MOL0     H 9204  -0.253   5.694   2.777  1.7251  2.4135 -1.4185
   70MOL0     H 9205  -0.497   5.700   2.803  0.2406 -1.9022  0.7583
   70MOL0     H 9206  -0.693   5.704   2.783  0.2173 -2.6971  2.0769
   70MOL0     H 9207  -0.708   5.537   2.739  2.0992  0.4870 -3.4429
   70MOL0     H 9208  -0.928   5.564   2.650  0.4109  2.3685 -3.9397
   70MOL0     H 9209  -0.917   5.736   2.625 -0.7723 -1.3446 -0.2051
   70MOL0     H 9210  -0.951   5.775   2.871  0.2925 -0.5950  0.8317
   70MOL0     H 9211  -0.946   5.601   2.902 -2.0662 -2.9396 -1.7777
   70MOL0     H 9212  -1.127   5.588   2.710  1.1929  0.6708 -1.6137
   70MOL0     H 9213  -1.179   5.615   2.882  0.4753  2.0750  1.5003
   70MOL0     H 9214  -1.159   5.843   2.684  0.2270 -0.4512  0.8615
   70MOL0     H 9215  -1.177   5.861   2.849 -1.3547  2.5581 -1.7475
   70MOL0     H 9216  -1.402   5.853   2.748 -2.0829 -0.7524 -0.1967
   70MOL0     H 9217  -1.391   5.699   2.835 -0.6504 -2.0923 -1.9413
   70MOL0     H 9218  -1.428   5.785   2.559 -4.8238 -3.2245 -2.6272
   70MOL0     H 9219  -1.304   5.661   2.567 -0.0418 -2.1036  2.1011
   70MOL0     H 9220  -1.516   5.555   2.735 -1.1081 -1.6330 -0.7581
   70MOL0     H 9221  -1.499   5.502   2.568  1.9655 -1.8887  2.0443
   70MOL0     H 9222  -0.518   5.617   2.365 -0.5368  1.8332 -1.6814
   70MOL0     H 9223  -0.272   5.624   2.360  1.2261  1.8261 -1.0027
   70MOL0     H 9224   0.061   5.593   2.401 -1.0754  0.8814 -1.0371
   70MOL0     H 9225   0.301   5.569   2.366  0.9142  0.8028  0.5520
   70MOL0     H 9226   2.049   6.338   2.861  0.2246  1.3618  2.1787
   70MOL0     H 9227   2.238   6.472   2.802  0.9293  0.1966  0.9935
   70MOL0     H 9228   2.703   6.503   2.869  0.6925  0.5839  0.7326
   70MOL0     H 9229   2.922   6.613   2.821  1.4582 -1.3715  0.0683
   70MOL0     H 9230   3.081   6.630   2.398 -2.1934 -1.4429 -0.5981
   70MOL0     H 9231   3.107   6.476   2.481 -2.0530 -0.3355  0.4376
   70MOL0     H 9232   3.309   6.609   2.408  0.1626  1.0974 -0.9001
   70MOL0     H 9233   3.245   6.739   2.513 -1.7553 -0.5680  1.3577
   70MOL0     H 9234   3.335   6.458   2.616  0.7896  0.4816  1.6027
   70MOL0     H 9235   3.280   6.586   2.720  3.8846 -0.0409  2.8971
   70MOL0     H 9236   3.474   6.730   2.675  0.2729  0.0144  0.2314
   70MOL0     H 9237   3.519   6.580   2.725 -1.3464  2.3922  1.0025
   70MOL0     H 9238   3.693   6.510   2.353  1.2243  0.7665  1.3532
   70MOL0     H 9239   2.913   6.497   2.413 -0.2512  0.8013 -0.3569
   70MOL0     H 9240   2.679   6.400   2.442  2.0574 -0.5783 -0.9794
   71MOL0     O 9241   4.663  10.165   8.126 -0.0217 -0.0577 -0.2940
   71MOL0     C 9242   4.644  10.045   8.155 -0.0544  0.6144 -0.2177
   71MOL0     O 9243   4.542   9.985   8.215  0.8237 -0.7944  0.6758
   71MOL0     C 9244   4.433  10.052   8.267 -0.0626  0.2410 -0.4371
   71MOL0     C 9245   4.391  10.007   8.386 -0.0754  0.5346 -0.0127
   71MOL0     C 9246   4.293  10.071   8.462 -0.0622  0.2703 -0.1789
   71MOL0     C 9247   4.231  10.183   8.410  0.4937  0.5477  0.4562
   71MOL0     O 9248   4.120  10.244   8.455  0.7126 -1.0237 -0.6072
   71MOL0     C 9249   4.156  10.331   8.568 -0.0975  0.0065 -0.4817
   71MOL0     C 9250   4.113  10.475   8.550 -0.1979 -0.3699 -0.1287
   71MOL0     C 9251   4.105  10.552   8.677  0.2103  0.1674  0.6501
   71MOL0     C 9252   4.019  10.488   8.796  0.2924 -0.1787  0.6639
   71MOL0     C 9253   3.867  10.485   8.774  0.7737 -0.0395 -0.8477
   71MOL0     C 9254   3.792  10.484   8.909 -0.3243 -0.3918  0.0777
   71MOL0     C 9255   3.642  10.455   8.881 -0.3259 -0.9178 -0.3655
   71MOL0     C 9256   3.580  10.568   8.802 -0.0974 -1.0848  0.1643
   71MOL0     N 9257   3.433  10.550   8.805  0.9733  0.5844  0.0080
   71MOL0     C 9258   3.345  10.528   8.692 -0.6679 -0.7126 -0.0873
   71MOL0     C 9259   3.220  10.496   8.738  0.4003  0.1867 -0.0609
   71MOL0     C 9260   3.096  10.471   8.655  0.7191 -0.0845 -0.1064
   71MOL0     C 9261   3.086  10.328   8.613  0.7081  0.0124  0.2403
   71MOL0     C 9262   3.180  10.307   8.501 -1.0290  0.4351  0.1089
   71MOL0     C 9263   3.146  10.192   8.410  0.7174 -0.5143 -0.2375
   71MOL0     O 9264   3.129  10.068   8.471 -0.2361 -0.4345  0.0296
   71MOL0     C 9265   3.019  10.001   8.443 -0.8868 -0.5950 -0.1613
   71MOL0     C 9266   3.020   9.907   8.344  0.4991 -0.5217  0.4869
   71MOL0     C 9267   2.897   9.840   8.311 -0.0401 -1.0033 -1.0995
   71MOL0     C 9268   2.778   9.859   8.387  0.9494 -0.3440 -0.0364
   71MOL0     C 9269   2.657   9.782   8.354 -0.3745 -0.7714  0.2194
   71MOL0     O 9270   2.560   9.746   8.447  0.4393 -0.0366  0.3314
   71MOL0     C 9271   2.441   9.693   8.391 -0.1537  0.4811 -0.2440
   71MOL0     C 9272   2.399   9.563   8.437  0.3536  0.2967 -0.9987
   71MOL0     C 9273   2.274   9.515   8.404  0.4705  0.7138 -0.0355
   71MOL0     C 9274   2.187   9.585   8.317  0.4506  0.2615 -0.0029
   71MOL0     O 9275   2.067   9.519   8.288 -0.1667  0.4678 -0.5246
   71MOL0     C 9276   1.948   9.605   8.272  0.6787  0.0485 -0.3757
   71MOL0     C 9277   1.832   9.513   8.252 -0.2155  0.6163 -0.8097
   71MOL0     C 9278   1.762   9.497   8.395 -0.8522  0.1088  0.5576
   71MOL0     C 9279   1.630   9.427   8.377  0.0197 -0.0974 -0.2362
   71MOL0     C 9280   1.598   9.372   8.509 -0.2712 -0.6676 -0.4115
   71MOL0     C 9281   1.454   9.343   8.513  0.7698 -0.2073 -0.4135
   71MOL0     C 9282   1.349   9.461   8.518  0.2729 -0.1643 -0.0859
   71MOL0     C 9283   1.264   9.473   8.390 -0.2560 -0.2210  0.0934
   71MOL0    Cl 9284   1.124   9.368   8.413  0.0021  0.2553  0.6710
   71MOL0     C 9285   2.225   9.711   8.268  1.0211 -0.1148 -0.4202
   71MOL0     C 9286   2.350   9.764   8.308  0.2705  0.3902 -0.8440
   71MOL0     O 9287   2.645   9.754   8.236 -0.3823 -0.4411 -0.5835
   71MOL0     C 9288   2.785   9.950   8.492  0.4186  0.6227  0.2043
   71MOL0     C 9289   2.902  10.023   8.517 -1.0664  0.1943 -0.1641
   71MOL0     N 9290   3.226  10.497   8.876 -0.0847  0.6163 -0.3552
   71MOL0     N 9291   3.351  10.515   8.914  0.5806 -0.9869 -0.2338
   71MOL0     C 9292   4.276  10.235   8.284  0.2786  0.2791  0.6334
   71MOL0     C 9293   4.372  10.163   8.214 -0.0097 -0.6619  0.1513
   71MOL0     C 9294   4.759   9.958   8.109  0.4677  1.0004 -0.5150
   71MOL0     C 9295   4.777   9.822   8.155  0.5753 -0.1157 -0.0652
   71MOL0     C 9296   4.887   9.750   8.108 -0.5186 -0.0852  0.6484
   71MOL0     C 9297   4.977   9.800   8.005 -0.3812  0.0645 -0.7850
   71MOL0     O 9298   5.083   9.727   7.962 -0.2192 -0.2435  0.5083
   71MOL0     C 9299   5.177   9.779   7.865  0.2366  0.6213 -0.2682
   71MOL0     C 9300   5.274   9.667   7.826 -0.4467 -0.0815  0.1024
   71MOL0     C 9301   5.419   9.702   7.776  0.3185 -0.5815  0.1116
   71MOL0     C 9302   5.441   9.810   7.663 -0.1814 -0.4919 -0.3444
   71MOL0     C 9303   5.344   9.805   7.551  0.6418  0.5015  0.7148
   71MOL0     C 9304   5.271   9.808   7.455 -0.7354  0.3555  1.0353
   71MOL0     C 9305   4.957   9.927   7.958 -0.8703 -0.4668  0.3701
   71MOL0     C 9306   4.852   9.999   8.013 -1.1298 -0.3149  0.4698
   71MOL0     H 9307   4.435   9.910   8.408 -0.0888 -0.2758 -3.0950
   71MOL0     H 9308   4.264  10.020   8.553  2.5589 -0.8270  0.1264
   71MOL0     H 9309   4.263  10.327   8.591 -0.0052  0.9893 -0.7240
   71MOL0     H 9310   4.107  10.291   8.657  0.4671  1.3904  0.4901
   71MOL0     H 9311   4.008  10.476   8.520 -0.2532 -0.7824  0.0426
   71MOL0     H 9312   4.177  10.521   8.474  1.0837 -1.7308  0.0729
   71MOL0     H 9313   4.052  10.645   8.656 -0.9513  0.3876  3.9951
   71MOL0     H 9314   4.207  10.571   8.712  0.3190 -1.2153  1.1216
   71MOL0     H 9315   4.046  10.383   8.814  1.8831 -0.4030 -2.3237
   71MOL0     H 9316   4.051  10.549   8.881  2.5080  1.0080 -0.9211
   71MOL0     H 9317   3.830  10.394   8.725 -0.8720 -0.2934  0.7452
   71MOL0     H 9318   3.832  10.569   8.713  1.9438 -0.1272 -1.6687
   71MOL0     H 9319   3.812  10.579   8.959  1.5404  0.2747 -1.7556
   71MOL0     H 9320   3.837  10.410   8.976 -0.2609 -1.0492 -0.6811
   71MOL0     H 9321   3.642  10.360   8.827 -1.0848 -1.6566  0.8780
   71MOL0     H 9322   3.596  10.445   8.979 -0.0315  1.1463  0.0216
   71MOL0     H 9323   3.620  10.572   8.700  2.4562  0.0776  1.1058
   71MOL0     H 9324   3.604  10.670   8.834 -0.9940 -0.3315 -1.4802
   71MOL0     H 9325   3.366  10.545   8.587  3.7193  2.0852  0.9891
   71MOL0     H 9326   3.097  10.538   8.569  0.1787  0.8076  0.5763
   71MOL0     H 9327   3.004  10.507   8.701  1.3634  2.3212 -0.5769
   71MOL0     H 9328   2.989  10.310   8.566  1.9813 -1.5953 -1.9440
   71MOL0     H 9329   3.091  10.265   8.702 -0.2734  2.5765  2.2431
   71MOL0     H 9330   3.199  10.396   8.440  1.7008 -0.3282 -0.3213
   71MOL0     H 9331   3.277  10.286   8.547 -0.3505 -0.5137 -1.6591
   71MOL0     H 9332   3.228  10.178   8.340  1.0459  0.6175 -0.0875
   71MOL0     H 9333   3.047  10.217   8.370  0.5215  2.6004  1.9064
   71MOL0     H 9334   3.107   9.905   8.279 -0.9148  2.2937 -1.7102
   71MOL0     H 9335   2.901   9.781   8.220  1.1593 -0.2725 -1.5500
   71MOL0     H 9336   2.459   9.504   8.505 -3.1321 -0.5561  1.5834
   71MOL0     H 9337   2.247   9.416   8.440  0.9814  0.1986 -1.0228
   71MOL0     H 9338   1.947   9.674   8.188 -1.6325  0.0012 -0.4326
   71MOL0     H 9339   1.924   9.668   8.358 -1.5857 -1.0584 -0.1159
   71MOL0     H 9340   1.852   9.408   8.229 -0.7490  0.4231 -0.4093
   71MOL0     H 9341   1.756   9.560   8.190  0.6035 -1.1789 -3.3299
   71MOL0     H 9342   1.737   9.597   8.433  0.3290  1.0526 -1.0155
   71MOL0     H 9343   1.834   9.449   8.462 -0.0631  0.6300  0.1109
   71MOL0     H 9344   1.551   9.491   8.337 -0.7821 -0.2211  1.0755
   71MOL0     H 9345   1.641   9.353   8.297  0.7904  0.0691 -0.2811
   71MOL0     H 9346   1.633   9.448   8.579 -0.2175 -1.6355  0.6382
   71MOL0     H 9347   1.654   9.280   8.523 -0.7472 -1.3322 -2.4405
   71MOL0     H 9348   1.433   9.284   8.602 -1.3513  3.2302  1.6296
   71MOL0     H 9349   1.444   9.282   8.423 -1.3871 -0.3030 -0.1639
   71MOL0     H 9350   1.286   9.458   8.607  0.1490  2.9680  0.0526
   71MOL0     H 9351   1.404   9.555   8.521 -0.3833  0.2604 -0.9286
   71MOL0     H 9352   1.327   9.447   8.305 -2.5854  1.2704 -2.2196
   71MOL0     H 9353   1.233   9.578   8.393 -1.4427 -0.5479 -0.1677
   71MOL0     H 9354   2.165   9.754   8.189  0.1557 -0.2527  0.1460
   71MOL0     H 9355   2.373   9.860   8.264  1.1933 -0.4914 -2.4333
   71MOL0     H 9356   2.691   9.961   8.544 -0.7497 -3.4835 -0.6994
   71MOL0     H 9357   2.925  10.075   8.610  1.4276 -0.8954 -0.0912
   71MOL0     H 9358   4.239  10.327   8.239 -0.4918  0.6217  1.9092
   71MOL0     H 9359   4.397  10.193   8.113 -0.8011 -2.3555 -0.5949
   71MOL0     H 9360   4.720   9.781   8.238  0.3968 -0.3458 -0.2991
   71MOL0     H 9361   4.921   9.653   8.144  1.4066  0.0523 -0.6391
   71MOL0     H 9362   5.238   9.858   7.910  1.5680 -0.2335 -0.5051
   71MOL0     H 9363   5.127   9.813   7.774  0.7319 -4.0021 -2.5521
   71MOL0     H 9364   5.294   9.619   7.923 -0.0213 -1.8369 -0.8194
   71MOL0     H 9365   5.224   9.594   7.761 -0.8073  2.7046 -2.9350
   71MOL0     H 9366   5.469   9.609   7.746  0.8525 -0.0571 -0.6583
   71MOL0     H 9367   5.483   9.734   7.859  0.6974  1.5150 -0.9160
   71MOL0     H 9368   5.435   9.908   7.710 -2.4405 -0.5822 -0.3078
   71MOL0     H 9369   5.539   9.812   7.616  0.1927  0.3146  0.4437
   71MOL0     H 9370   5.191   9.803   7.384 -1.6805  0.4006  2.0691
   71MOL0     H 9371   5.005   9.974   7.873 -0.3714 -0.2661  0.7579
   71MOL0     H 9372   4.843  10.096   7.965  0.2194 -2.0839 -3.9037
   72MOL0     O 9373   5.021  10.880   9.805  0.5046  0.3161  0.1495
   72MOL0     C 9374   5.048  10.763   9.780  0.5040  0.4758 -0.2619
   72MOL0     O 9375   4.984  10.656   9.828  0.8420  0.1806  0.2956
   72MOL0     C 9376   4.869  10.680   9.903  0.0161  0.0982  0.0637
   72MOL0     C 9377   4.860  10.624  10.030 -1.8618 -0.0378 -0.2453
   72MOL0     C 9378   4.733  10.617  10.088 -0.4055  0.5730  0.4359
   72MOL0     C 9379   4.620  10.668  10.024 -0.1407  1.4080  0.5516
   72MOL0     O 9380   4.510  10.646  10.092  0.3985 -0.3124  0.0061
   72MOL0     C 9381   4.393  10.602  10.024  0.1076  0.3718  0.6628
   72MOL0     C 9382   4.284  10.546  10.126  0.7460 -0.5964 -0.4055
   72MOL0     C 9383   4.159  10.531  10.046 -0.3213 -0.5738  0.1214
   72MOL0     C 9384   4.059  10.458  10.136  0.2286 -0.0407 -0.2625
   72MOL0     C 9385   3.924  10.433  10.073  0.2424  0.5133  0.3501
   72MOL0     C 9386   3.835  10.351  10.173 -0.0190  0.2395 -0.2896
   72MOL0     C 9387   3.705  10.321  10.098  0.7538  0.2762  0.3360
   72MOL0     C 9388   3.608  10.227  10.173 -0.2123 -0.2680  1.0515
   72MOL0     N 9389   3.490  10.212  10.088  0.1766 -0.5244 -0.9430
   72MOL0     C 9390   3.371  10.185  10.135 -0.7062 -0.3904  0.5030
   72MOL0     C 9391   3.290  10.188  10.028 -0.1669  0.2201  0.2341
   72MOL0     C 9392   3.149  10.144  10.028 -0.3602 -0.4792  0.5735
   72MOL0     C 9393   3.083  10.120  10.163 -0.7173 -0.4727 -0.8276
   72MOL0     C 9394   2.934  10.104  10.140  0.2624  0.5418 -0.7049
   72MOL0     C 9395   2.841  10.125  10.258 -0.3643  0.8488  0.5436
   72MOL0     O 9396   2.715  10.092  10.195  0.3283 -0.5988  0.2272
   72MOL0     C 9397   2.606  10.079  10.280  0.7076  0.0615  0.0179
   72MOL0     C 9398   2.485  10.091  10.212  0.2833  0.4616 -0.4857
   72MOL0     C 9399   2.360  10.088  10.275  0.1992  0.5016  0.3862
   72MOL0     C 9400   2.358  10.082  10.412 -0.0862  0.1606 -0.6467
   72MOL0     C 9401   2.236  10.107  10.490 -0.3756 -0.4621 -0.6198
   72MOL0     O 9402   2.121  10.103  10.416 -0.1520 -0.2381 -0.6368
   72MOL0     C 9403   2.000  10.163  10.454 -0.0354  0.5934 -0.9293
   72MOL0     C 9404   1.970  10.242  10.566  0.7669  0.1171 -0.3408
   72MOL0     C 9405   1.839  10.266  10.612 -0.3760  0.0003 -0.8635
   72MOL0     C 9406   1.739  10.229  10.538  0.1998  0.4153  0.1359
   72MOL0     O 9407   1.611  10.263  10.560 -0.3226  0.1411  0.2417
   72MOL0     C 9408   1.570  10.301  10.695 -0.7489 -0.2298  0.7412
   72MOL0     C 9409   1.423  10.299  10.688 -0.5953 -0.2289 -0.0988
   72MOL0     C 9410   1.356  10.163  10.650 -0.8414  0.4015 -0.2912
   72MOL0     C 9411   1.206  10.149  10.685  0.8953  0.3442  0.2935
   72MOL0     C 9412   1.167   9.997  10.677  0.3821 -0.1872 -0.3647
   72MOL0     C 9413   1.180   9.926  10.542  0.4313  0.3120  0.2179
   72MOL0     C 9414   1.108   9.994  10.430 -0.1521  0.4136  0.3126
   72MOL0     C 9415   1.145   9.916  10.299  0.8557 -0.5334  0.2853
   72MOL0    Cl 9416   1.069   9.745  10.294 -0.1453 -0.0417  0.4255
   72MOL0     C 9417   1.762  10.160  10.426 -0.5729  1.1812  0.2766
   72MOL0     C 9418   1.895  10.118  10.385  0.1730 -0.6179  0.3415
   72MOL0     O 9419   2.243  10.133  10.605 -0.4771 -0.2798 -0.8504
   72MOL0     C 9420   2.477  10.056  10.474  0.0956 -0.2183 -1.0213
   72MOL0     C 9421   2.604  10.052  10.417 -0.3637  0.2864  0.0268
   72MOL0     N 9422   3.357  10.208   9.913  0.2578 -0.4275  0.4172
   72MOL0     N 9423   3.481  10.239   9.950  0.2936 -0.2848  0.2333
   72MOL0     C 9424   4.624  10.723   9.897 -0.2206  0.0538 -0.6834
   72MOL0     C 9425   4.751  10.727   9.837 -0.3737  0.3835  0.4442
   72MOL0     C 9426   5.158  10.726   9.696 -0.8056 -0.8296  0.8645
   72MOL0     C 9427   5.272  10.809   9.702  0.1437  0.4622 -0.1733
   72MOL0     C 9428   5.386  10.768   9.621 -0.6652 -0.7514  1.0459
   72MOL0     C 9429   5.388  10.651   9.548 -0.9102 -0.7860  0.8852
   72MOL0     O 9430   5.509  10.632   9.492  0.8787 -0.1024  0.4506
   72MOL0     C 9431   5.521  10.555   9.369 -0.6855  0.2143 -0.3542
   72MOL0     C 9432   5.668  10.589   9.314  0.0600 -0.6169  0.3551
   72MOL0     C 9433   5.777  10.546   9.419 -0.4447  0.3478  1.0555
   72MOL0     C 9434   5.913  10.580   9.346 -0.8840 -0.8390 -0.7385
   72MOL0     C 9435   6.037  10.540   9.420  0.0175 -0.3086 -0.5013
   72MOL0     C 9436   6.142  10.502   9.479  0.9976  0.1779  0.3441
   72MOL0     C 9437   5.275  10.571   9.546  0.6757  0.8345 -0.0183
   72MOL0     C 9438   5.157  10.611   9.611  0.4596  0.2320 -0.0754
   72MOL0     H 9439   4.942  10.577  10.081 -1.6392  1.0600  0.4427
   72MOL0     H 9440   4.724  10.573  10.187 -1.2112  1.2553  0.6827
   72MOL0     H 9441   4.423  10.527   9.951  4.1234 -1.3871  3.7834
   72MOL0     H 9442   4.348  10.689   9.975 -0.1198  0.0159  0.2339
   72MOL0     H 9443   4.256  10.614  10.207 -3.2920  0.1505 -2.1841
   72MOL0     H 9444   4.312  10.448  10.166 -1.4536 -2.3151 -2.6964
   72MOL0     H 9445   4.165  10.483   9.948  3.2678 -2.1261  0.9657
   72MOL0     H 9446   4.125  10.634  10.032  0.6946  0.0656  1.9839
   72MOL0     H 9447   4.096  10.362  10.175  1.5785 -0.5281 -2.5413
   72MOL0     H 9448   4.048  10.528  10.219  1.1984  3.4073 -2.8069
   72MOL0     H 9449   3.948  10.365   9.991  5.0812 -0.1177  1.9672
   72MOL0     H 9450   3.884  10.531  10.045 -1.1848  0.0163  0.5375
   72MOL0     H 9451   3.817  10.422  10.254 -2.1322  1.6524 -1.8724
   72MOL0     H 9452   3.883  10.256  10.198  0.3010 -0.0705 -1.9087
   72MOL0     H 9453   3.646  10.412  10.083 -0.7441 -0.8977 -1.2716
   72MOL0     H 9454   3.731  10.282   9.999 -1.9302 -0.3468 -0.1808
   72MOL0     H 9455   3.587  10.240  10.280 -2.4145  0.2147  0.5943
   72MOL0     H 9456   3.667  10.135  10.180  0.0982 -0.1475  0.1022
   72MOL0     H 9457   3.341  10.154  10.235  1.0520 -0.9676  0.8991
   72MOL0     H 9458   3.154  10.054   9.966  1.2776  1.9883 -3.2630
   72MOL0     H 9459   3.102  10.228   9.976 -0.1578 -0.5280  0.3104
   72MOL0     H 9460   3.105  10.196  10.239 -0.9117 -1.7621  0.5648
   72MOL0     H 9461   3.119  10.033  10.219  3.8875  2.1389  0.8685
   72MOL0     H 9462   2.919  10.196  10.083  1.1580  1.8417  1.0795
   72MOL0     H 9463   2.920  10.005  10.096  0.8410 -0.7116  1.7335
   72MOL0     H 9464   2.846  10.229  10.293  0.4036  2.6695 -4.1216
   72MOL0     H 9465   2.861  10.044  10.328 -2.0251 -1.0358 -1.0517
   72MOL0     H 9466   2.498  10.099  10.105  1.8045 -0.3342 -0.3879
   72MOL0     H 9467   2.272  10.100  10.212  1.0319  0.1525 -0.8926
   72MOL0     H 9468   2.053  10.263  10.632 -0.3472 -3.4136  2.5699
   72MOL0     H 9469   1.828  10.318  10.706  1.0374  0.0823 -0.7251
   72MOL0     H 9470   1.615  10.397  10.721 -0.5888 -0.2532  0.5489
   72MOL0     H 9471   1.602  10.221  10.762 -0.1970 -0.7878 -0.1728
   72MOL0     H 9472   1.390  10.382  10.626  0.9372  1.1965  0.8910
   72MOL0     H 9473   1.391  10.326  10.789  0.8701 -0.8109  0.5510
   72MOL0     H 9474   1.410  10.098  10.718 -0.5250  2.7507  1.8151
   72MOL0     H 9475   1.374  10.130  10.547  0.8221 -2.0695  0.7249
   72MOL0     H 9476   1.179  10.178  10.787 -0.3189 -1.9750  0.7153
   72MOL0     H 9477   1.144  10.204  10.614  0.3146  0.5613  0.9542
   72MOL0     H 9478   1.065   9.990  10.714  0.2269  1.9734 -0.2745
   72MOL0     H 9479   1.233   9.939  10.743  0.1618  0.2203  0.2166
   72MOL0     H 9480   1.144   9.823  10.552  0.7200  0.1964  0.0747
   72MOL0     H 9481   1.286   9.930  10.517  0.4057 -0.0285  0.0376
   72MOL0     H 9482   1.001   9.995  10.453  0.0474  0.5973  1.2800
   72MOL0     H 9483   1.150  10.094  10.416 -0.6973  0.5420 -0.4443
   72MOL0     H 9484   1.251   9.912  10.273  0.2582  0.1185 -2.6449
   72MOL0     H 9485   1.106   9.963  10.208  0.5304 -2.2614 -0.5068
   72MOL0     H 9486   1.682  10.133  10.358 -0.2089 -0.4042  0.4606
   72MOL0     H 9487   1.918  10.059  10.297 -0.2440 -1.5349  0.8310
   72MOL0     H 9488   2.470  10.050  10.582 -1.6512  0.6492 -1.0574
   72MOL0     H 9489   2.696  10.026  10.468 -0.6144 -0.7683 -0.0329
   72MOL0     H 9490   4.547  10.772   9.839  0.3233  0.8996 -0.7135
   72MOL0     H 9491   4.757  10.767   9.736 -1.0335  1.2349  0.7274
   72MOL0     H 9492   5.266  10.906   9.750 -1.6144  0.6343 -0.6811
   72MOL0     H 9493   5.463  10.842   9.603 -2.7196  0.9543 -1.4366
   72MOL0     H 9494   5.451  10.585   9.290  0.5896  1.4934 -1.0545
   72MOL0     H 9495   5.502  10.450   9.393 -0.8830  0.6170  1.3808
   72MOL0     H 9496   5.694  10.526   9.229  1.1759 -0.3448  0.4783
   72MOL0     H 9497   5.679  10.694   9.288  1.5766 -1.8871 -5.7817
   72MOL0     H 9498   5.766  10.437   9.425 -2.3633  0.4352  0.0668
   72MOL0     H 9499   5.768  10.595   9.516  1.6339  1.3988  0.7612
   72MOL0     H 9500   5.921  10.525   9.252 -2.2061 -2.3788  0.0018
   72MOL0     H 9501   5.914  10.689   9.331  1.6897 -0.2647  2.3805
   72MOL0     H 9502   6.228  10.469   9.532 -0.3887  0.0662  2.6357
   72MOL0     H 9503   5.297  10.473   9.503  0.2944  1.1975 -1.0679
   72MOL0     H 9504   5.068  10.550   9.615 -0.0242  0.9149 -0.2274
   73MOL0     O 9505  10.180   8.611   3.818 -0.3730 -0.7467  0.3357
   73MOL0     C 9506  10.233   8.512   3.860 -0.0032  0.1252 -0.3652
   73MOL0     O 9507  10.173   8.403   3.917 -0.4313 -0.1229 -0.2970
   73MOL0     C 9508  10.038   8.399   3.947  0.1299  1.2913  0.2868
   73MOL0     C 9509   9.935   8.453   3.868 -0.6703 -0.2628 -0.1651
   73MOL0     C 9510   9.810   8.467   3.929  0.4971 -0.0506  0.1327
   73MOL0     C 9511   9.791   8.420   4.057 -0.4273  0.2218  0.2612
   73MOL0     O 9512   9.674   8.439   4.125  0.7527 -0.6364  0.3170
   73MOL0     C 9513   9.558   8.487   4.048 -0.0616  1.4500 -0.5547
   73MOL0     C 9514   9.434   8.505   4.142  0.0099 -0.4423  1.0788
   73MOL0     C 9515   9.319   8.579   4.067  0.3532 -0.6416 -0.3081
   73MOL0     C 9516   9.201   8.612   4.163 -0.0682 -0.8404  0.6053
   73MOL0     C 9517   9.089   8.680   4.088  0.3569 -0.3615  0.8876
   73MOL0     C 9518   8.997   8.742   4.196 -0.5535 -0.1939 -1.3651
   73MOL0     C 9519   8.857   8.793   4.151  0.2342 -0.3215 -0.2317
   73MOL0     C 9520   8.813   8.905   4.246  0.6676 -0.3901  0.4070
   73MOL0     N 9521   8.672   8.931   4.235  0.3360  0.1822 -0.8135
   73MOL0     C 9522   8.574   8.877   4.310 -0.4873  1.0489  0.8063
   73MOL0     C 9523   8.460   8.887   4.236 -0.7469 -0.0395  0.4746
   73MOL0     C 9524   8.329   8.842   4.281  0.0603  0.5972 -0.7513
   73MOL0     C 9525   8.231   8.955   4.312 -0.3238  0.8904 -0.6623
   73MOL0     C 9526   8.164   8.983   4.169  0.4247  0.4661 -0.1071
   73MOL0     C 9527   8.098   9.117   4.166  0.4549 -0.6218  0.1766
   73MOL0     O 9528   8.012   9.127   4.282 -0.1216  0.5773 -0.0702
   73MOL0     C 9529   7.882   9.084   4.273 -0.8561  0.3362 -0.1820
   73MOL0     C 9530   7.804   9.086   4.387 -0.0164  0.6882 -0.8109
   73MOL0     C 9531   7.677   9.038   4.394  0.2873 -0.0431 -0.6631
   73MOL0     C 9532   7.608   8.991   4.284  0.4607 -0.9282  0.3209
   73MOL0     C 9533   7.468   8.959   4.289 -0.4579 -0.7059  0.1073
   73MOL0     O 9534   7.392   9.035   4.371 -0.0587 -0.1584 -0.4157
   73MOL0     C 9535   7.257   9.017   4.389 -0.1168  0.0396  0.1592
   73MOL0     C 9536   7.188   9.129   4.434 -0.7452 -0.1782 -0.7028
   73MOL0     C 9537   7.049   9.128   4.457 -0.1293  0.4293 -0.1793
   73MOL0     C 9538   6.984   9.007   4.440  0.5649 -1.3477 -0.6939
   73MOL0     O 9539   6.845   8.996   4.459 -0.0681 -0.1289  1.0343
   73MOL0     C 9540   6.777   9.092   4.545 -0.4482 -0.1957  0.3599
   73MOL0     C 9541   6.694   9.178   4.450  0.3774  0.1244 -1.0373
   73MOL0     C 9542   6.584   9.104   4.369 -0.5624 -0.5673 -0.6746
   73MOL0     C 9543   6.484   9.198   4.311  0.0576 -0.4649  0.3493
   73MOL0     C 9544   6.423   9.138   4.182  0.1475 -0.3614  0.6486
   73MOL0     C 9545   6.504   9.185   4.061  0.5824  0.8295  0.9323
   73MOL0     C 9546   6.410   9.190   3.929  0.4496 -0.8776  0.2809
   73MOL0     C 9547   6.488   9.223   3.797  0.6305  0.2793  0.0068
   73MOL0    Cl 9548   6.583   9.369   3.821  0.1196 -0.0156 -0.0811
   73MOL0     C 9549   7.046   8.890   4.396 -0.6255 -0.4646  0.1713
   73MOL0     C 9550   7.181   8.900   4.373 -0.5489  0.9035  1.1006
   73MOL0     O 9551   7.433   8.869   4.212 -0.0411  0.7985  0.8649
   73MOL0     C 9552   7.680   8.983   4.169 -0.1323  0.0067 -0.1262
   73MOL0     C 9553   7.812   9.031   4.159  0.1727  0.0886 -0.2785
   73MOL0     N 9554   8.495   8.948   4.119  0.5646  0.2431 -0.2616
   73MOL0     N 9555   8.618   8.984   4.121  0.6019 -0.2773  0.4446
   73MOL0     C 9556   9.888   8.348   4.122 -0.1377  0.0239 -0.8776
   73MOL0     C 9557  10.019   8.337   4.071 -0.7133  0.1440  0.1098
   73MOL0     C 9558  10.380   8.505   3.846  0.1641  0.8082 -0.1061
   73MOL0     C 9559  10.456   8.605   3.767  0.4562  0.6835  0.4488
   73MOL0     C 9560  10.595   8.581   3.752 -0.1436  0.5737  0.6653
   73MOL0     C 9561  10.666   8.472   3.801 -0.0535  0.1056  0.7335
   73MOL0     O 9562  10.803   8.492   3.796  0.8340  0.1107  0.0676
   73MOL0     C 9563  10.863   8.374   3.740  0.5742 -0.7761  0.1706
   73MOL0     C 9564  11.016   8.402   3.705  0.1064 -0.3246  0.0734
   73MOL0     C 9565  11.106   8.388   3.836 -0.0961  0.8542  1.0117
   73MOL0     C 9566  11.250   8.442   3.815  1.4560  1.0285  0.4839
   73MOL0     C 9567  11.261   8.582   3.789  0.0148  0.3288  0.4389
   73MOL0     C 9568  11.275   8.702   3.793  0.9298 -0.1021 -0.3294
   73MOL0     C 9569  10.596   8.377   3.883 -0.0688 -0.3427 -1.1973
   73MOL0     C 9570  10.453   8.396   3.900  0.7859 -0.3094 -0.1097
   73MOL0     H 9571   9.964   8.512   3.782  0.0199 -0.6170 -0.1830
   73MOL0     H 9572   9.728   8.518   3.878 -2.4625 -1.8231  2.7368
   73MOL0     H 9573   9.531   8.421   3.965 -2.6371  0.1450  1.1909
   73MOL0     H 9574   9.590   8.583   4.008  3.3065  0.8606  0.4042
   73MOL0     H 9575   9.458   8.565   4.231  0.0929  0.7310  0.2829
   73MOL0     H 9576   9.401   8.407   4.179  2.8579 -1.9932 -0.1527
   73MOL0     H 9577   9.288   8.518   3.982 -0.8596 -1.9741  1.0384
   73MOL0     H 9578   9.342   8.679   4.029 -0.1196 -1.1559 -2.0633
   73MOL0     H 9579   9.160   8.525   4.215 -0.3630 -1.4454 -0.6051
   73MOL0     H 9580   9.244   8.679   4.237  2.6340 -1.2179 -0.5244
   73MOL0     H 9581   9.028   8.616   4.023 -0.9060  0.8963  0.7828
   73MOL0     H 9582   9.118   8.766   4.027 -0.2941 -0.4001  0.5184
   73MOL0     H 9583   9.050   8.815   4.259 -2.3478  1.1928 -1.3764
   73MOL0     H 9584   8.959   8.663   4.262 -0.0607  0.8025  0.1764
   73MOL0     H 9585   8.864   8.841   4.054  2.4961  0.5346  0.3100
   73MOL0     H 9586   8.775   8.720   4.141 -1.9639  2.1480 -1.5549
   73MOL0     H 9587   8.869   8.992   4.209  4.1202 -3.3608 -2.1752
   73MOL0     H 9588   8.840   8.885   4.350  3.0529 -1.6406 -0.3610
   73MOL0     H 9589   8.588   8.825   4.404  3.3915 -3.1278 -1.6388
   73MOL0     H 9590   8.340   8.787   4.375  0.7386  0.8559 -0.6730
   73MOL0     H 9591   8.284   8.773   4.209  1.9436  0.2343 -1.6271
   73MOL0     H 9592   8.292   9.038   4.348  0.6469  0.6495 -1.7061
   73MOL0     H 9593   8.156   8.937   4.390 -0.3289  2.3110 -0.3164
   73MOL0     H 9594   8.239   8.977   4.090  2.1895 -0.8477  1.5841
   73MOL0     H 9595   8.089   8.904   4.160  1.8070 -0.6935 -2.6102
   73MOL0     H 9596   8.045   9.143   4.075 -3.0885 -1.5732  1.7967
   73MOL0     H 9597   8.180   9.190   4.169  0.8549 -1.0810  2.4035
   73MOL0     H 9598   7.851   9.140   4.469 -1.7716 -2.0823  2.2587
   73MOL0     H 9599   7.639   9.027   4.495  2.8398  1.8054  0.6005
   73MOL0     H 9600   7.238   9.226   4.438 -2.1534  0.5552 -0.2116
   73MOL0     H 9601   6.992   9.218   4.478 -2.2774 -1.1071  0.9932
   73MOL0     H 9602   6.849   9.147   4.605  1.0500 -1.1699 -0.4890
   73MOL0     H 9603   6.710   9.039   4.613 -1.9045 -0.4348 -1.1740
   73MOL0     H 9604   6.762   9.228   4.381  1.3017 -2.9931 -2.5851
   73MOL0     H 9605   6.651   9.251   4.519  1.1773 -0.2534 -0.1056
   73MOL0     H 9606   6.533   9.031   4.432 -0.4447  1.9263  2.5689
   73MOL0     H 9607   6.643   9.054   4.291  0.7617  3.2076 -2.3386
   73MOL0     H 9608   6.406   9.206   4.386 -0.5405 -0.8415 -0.2259
   73MOL0     H 9609   6.531   9.293   4.283  0.9472 -0.6784  1.0515
   73MOL0     H 9610   6.321   9.176   4.174 -0.0426 -1.2239 -1.6946
   73MOL0     H 9611   6.416   9.029   4.177 -1.1683 -0.2544 -2.9325
   73MOL0     H 9612   6.589   9.122   4.038 -0.1116  0.9072 -2.3260
   73MOL0     H 9613   6.524   9.292   4.075 -1.8579  1.3758  0.6977
   73MOL0     H 9614   6.353   9.097   3.927  1.0656 -1.4550  3.4357
   73MOL0     H 9615   6.336   9.268   3.950  0.3325 -0.2012 -2.2846
   73MOL0     H 9616   6.416   9.247   3.719  0.4711  0.8917  0.3415
   73MOL0     H 9617   6.550   9.135   3.776 -2.3371 -1.7593 -0.7566
   73MOL0     H 9618   6.988   8.799   4.392 -0.7177 -0.3905 -3.9431
   73MOL0     H 9619   7.218   8.804   4.337 -3.3742 -0.0278  0.4039
   73MOL0     H 9620   7.650   8.935   4.076  1.3164 -0.1009 -0.5582
   73MOL0     H 9621   7.859   9.014   4.063  0.8917 -0.6828  0.1966
   73MOL0     H 9622   9.870   8.305   4.220 -1.1448 -0.8121 -1.3969
   73MOL0     H 9623  10.106   8.305   4.127  0.6181  0.9356 -1.4226
   73MOL0     H 9624  10.409   8.691   3.720  0.4058  1.2242  1.4788
   73MOL0     H 9625  10.653   8.639   3.681  0.5680 -1.5622 -0.6028
   73MOL0     H 9626  10.812   8.350   3.646  0.7671 -0.1089 -0.1088
   73MOL0     H 9627  10.860   8.301   3.822  0.3551 -0.2957  0.5895
   73MOL0     H 9628  11.053   8.339   3.624  1.9557 -1.2713  1.5826
   73MOL0     H 9629  11.025   8.505   3.667  3.3701 -0.8506 -0.9117
   73MOL0     H 9630  11.115   8.279   3.845  3.0578  0.7648 -1.4428
   73MOL0     H 9631  11.056   8.425   3.926 -1.4376 -1.9009  1.5233
   73MOL0     H 9632  11.291   8.418   3.913 -1.1111  1.1598  1.6595
   73MOL0     H 9633  11.293   8.373   3.742  1.5955  2.6000 -0.9892
   73MOL0     H 9634  11.282   8.807   3.808  1.8098 -0.5954  3.8333
   73MOL0     H 9635  10.642   8.293   3.935 -1.0870 -0.6727 -0.7909
   73MOL0     H 9636  10.401   8.315   3.950  0.0212 -0.0966 -0.5455
   74MOL0     O 9637   6.065   7.977   4.793 -0.2181  0.3421 -0.2498
   74MOL0     C 9638   6.163   7.999   4.871  0.9471  0.0499  0.0014
   74MOL0     O 9639   6.159   7.958   4.996  0.4604  0.0047  0.5475
   74MOL0     C 9640   6.070   7.863   5.046 -0.6871  0.7912 -0.4983
   74MOL0     C 9641   5.998   7.758   4.983 -0.5960  0.3431  0.1899
   74MOL0     C 9642   5.927   7.674   5.065  0.5679  0.5044  0.1321
   74MOL0     C 9643   5.913   7.696   5.208 -0.5188  0.3944  0.5686
   74MOL0     O 9644   5.831   7.615   5.286 -0.1558 -0.4568 -0.3916
   74MOL0     C 9645   5.731   7.524   5.219 -0.3766 -0.6451 -0.4368
   74MOL0     C 9646   5.668   7.473   5.348 -1.0227  0.3054 -1.2291
   74MOL0     C 9647   5.588   7.347   5.326 -0.4465  0.2676  0.4934
   74MOL0     C 9648   5.520   7.296   5.450  0.2241  0.3388 -0.0590
   74MOL0     C 9649   5.404   7.397   5.486 -0.4968 -0.4820  0.1616
   74MOL0     C 9650   5.337   7.367   5.622  0.5242  0.5418 -0.7093
   74MOL0     C 9651   5.264   7.228   5.639 -0.1830  0.2356  0.3791
   74MOL0     C 9652   5.204   7.223   5.773  0.9681 -0.7716 -0.5955
   74MOL0     N 9653   5.065   7.275   5.770  0.0698 -0.3722  0.0550
   74MOL0     C 9654   5.015   7.384   5.825  0.1468  0.3093 -0.5348
   74MOL0     C 9655   4.887   7.392   5.786 -0.3394 -0.1457  0.2886
   74MOL0     C 9656   4.797   7.506   5.811 -0.1316 -0.3150 -0.0710
   74MOL0     C 9657   4.650   7.472   5.847 -0.2062  0.2804  1.1140
   74MOL0     C 9658   4.633   7.348   5.928 -0.2167 -0.1737 -1.1638
   74MOL0     C 9659   4.489   7.320   5.959  0.5783 -0.3850 -0.7046
   74MOL0     O 9660   4.453   7.185   5.974  0.7485 -0.1098 -0.5148
   74MOL0     C 9661   4.329   7.163   6.021 -0.4049  0.1159 -0.1454
   74MOL0     C 9662   4.310   7.025   6.060 -0.2091 -0.3659  0.0003
   74MOL0     C 9663   4.196   6.976   6.119 -0.6902  0.1852 -0.0002
   74MOL0     C 9664   4.096   7.066   6.158 -0.2333  0.0625 -0.2017
   74MOL0     C 9665   3.974   7.018   6.230  0.9044  0.1914  0.2289
   74MOL0     O 9666   3.895   7.115   6.275  0.3008 -0.6454 -0.3325
   74MOL0     C 9667   3.796   7.085   6.353  0.5733  0.1919 -0.4021
   74MOL0     C 9668   3.791   7.151   6.474  0.7960 -1.0859  0.4314
   74MOL0     C 9669   3.688   7.135   6.565 -0.4658  0.0934  0.1200
   74MOL0     C 9670   3.596   7.030   6.541  0.0552  0.6808 -0.0177
   74MOL0     O 9671   3.490   7.000   6.626 -0.0131  0.5470  0.1302
   74MOL0     C 9672   3.477   7.069   6.748  0.4401  0.3129 -0.1721
   74MOL0     C 9673   3.341   7.039   6.824 -0.0321  1.3100 -0.7106
   74MOL0     C 9674   3.345   7.102   6.961  0.0962  0.1492 -0.3146
   74MOL0     C 9675   3.215   7.071   7.036 -0.5037 -0.5245  0.5331
   74MOL0     C 9676   3.191   7.143   7.178  0.0777  0.0786  0.6061
   74MOL0     C 9677   3.043   7.156   7.200  0.2656  0.2439  0.7071
   74MOL0     C 9678   3.007   7.248   7.322  0.1468 -0.1593  0.6981
   74MOL0     C 9679   3.048   7.192   7.453 -0.7989 -0.1719 -0.3052
   74MOL0    Cl 9680   2.989   7.022   7.456 -0.4019  0.2750 -0.2588
   74MOL0     C 9681   3.591   6.975   6.410 -0.6172  0.7389 -0.3510
   74MOL0     C 9682   3.691   6.992   6.320  0.1537  0.3018 -0.1328
   74MOL0     O 9683   3.954   6.895   6.245  0.2791  0.4322  0.4505
   74MOL0     C 9684   4.118   7.214   6.124 -0.1294  0.0838 -1.3535
   74MOL0     C 9685   4.224   7.253   6.042  0.5523 -0.0438 -0.4569
   74MOL0     N 9686   4.863   7.289   5.693  0.5331 -0.1679 -0.1200
   74MOL0     N 9687   4.970   7.219   5.688  0.0390 -0.1485  0.9634
   74MOL0     C 9688   5.984   7.803   5.267  0.0629 -0.5486 -0.9610
   74MOL0     C 9689   6.068   7.874   5.188 -0.2997 -0.3659  0.0888
   74MOL0     C 9690   6.277   8.082   4.833  0.1174 -0.2568  0.2708
   74MOL0     C 9691   6.297   8.128   4.702 -0.1739 -0.3430  0.0957
   74MOL0     C 9692   6.402   8.215   4.670  0.4956 -0.3031 -0.2684
   74MOL0     C 9693   6.486   8.261   4.777 -0.3655  0.5212  0.1207
   74MOL0     O 9694   6.590   8.338   4.753 -0.1195  0.0894 -0.8428
   74MOL0     C 9695   6.572   8.415   4.635 -0.2963 -0.9892 -0.0071
   74MOL0     C 9696   6.677   8.533   4.647 -0.1909 -0.7108 -0.4561
   74MOL0     C 9697   6.820   8.471   4.655 -0.3398 -0.2345 -0.8975
   74MOL0     C 9698   6.916   8.583   4.670 -0.3569 -0.8240  0.0346
   74MOL0     C 9699   7.052   8.522   4.676  0.2028  0.1566 -0.2788
   74MOL0     C 9700   7.168   8.468   4.672 -0.2148 -0.3747  0.4521
   74MOL0     C 9701   6.481   8.198   4.899 -0.2898 -0.0841 -0.1675
   74MOL0     C 9702   6.390   8.103   4.920  0.1433 -0.0495 -0.6196
   74MOL0     H 9703   5.987   7.745   4.876 -0.4903  2.5065 -0.1241
   74MOL0     H 9704   5.876   7.588   5.023 -0.7509  0.3121  1.9724
   74MOL0     H 9705   5.774   7.442   5.160  2.0086  1.8813 -2.4762
   74MOL0     H 9706   5.671   7.582   5.149  0.5161 -0.4972 -1.0954
   74MOL0     H 9707   5.601   7.552   5.383 -1.7356 -0.2846 -1.2455
   74MOL0     H 9708   5.744   7.448   5.422 -1.5900  0.2983 -0.6410
   74MOL0     H 9709   5.657   7.265   5.302  2.6993  2.4874  1.3238
   74MOL0     H 9710   5.515   7.363   5.247 -0.7038  0.2641  0.7271
   74MOL0     H 9711   5.482   7.195   5.435 -0.7012  0.5139  0.9826
   74MOL0     H 9712   5.582   7.293   5.540  0.8911  0.7747 -0.4950
   74MOL0     H 9713   5.331   7.396   5.405 -0.9536 -3.4979  0.5069
   74MOL0     H 9714   5.446   7.498   5.496 -1.6117  0.3089 -2.3445
   74MOL0     H 9715   5.261   7.444   5.638  0.7178  0.9659 -1.7509
   74MOL0     H 9716   5.404   7.384   5.707 -3.2313 -1.1780  2.9591
   74MOL0     H 9717   5.197   7.193   5.560 -0.6150  0.7150  0.5271
   74MOL0     H 9718   5.341   7.150   5.646 -0.8941 -0.3304  2.8462
   74MOL0     H 9719   5.267   7.273   5.847  1.0997 -1.9738  0.1339
   74MOL0     H 9720   5.197   7.119   5.805  0.1506 -0.3336  0.7371
   74MOL0     H 9721   5.068   7.462   5.881  1.8433 -0.2412 -1.2998
   74MOL0     H 9722   4.789   7.564   5.718 -2.3477 -0.3313  0.0495
   74MOL0     H 9723   4.834   7.566   5.894 -1.5084  0.9859 -0.3547
   74MOL0     H 9724   4.586   7.448   5.762  1.3156 -1.4962  0.4027
   74MOL0     H 9725   4.605   7.559   5.895 -1.6813 -0.2821  0.8037
   74MOL0     H 9726   4.689   7.263   5.889 -0.4698 -0.8981  0.0203
   74MOL0     H 9727   4.688   7.377   6.018  1.2418 -0.1149 -2.0500
   74MOL0     H 9728   4.427   7.367   5.882 -1.2950 -2.6747 -0.7132
   74MOL0     H 9729   4.459   7.378   6.046 -1.9901  1.2434 -2.5176
   74MOL0     H 9730   4.384   6.948   6.040  0.1058 -0.0065 -0.2261
   74MOL0     H 9731   4.195   6.870   6.143 -4.4149  0.0443 -0.2226
   74MOL0     H 9732   3.858   7.234   6.498 -0.0967 -0.5506  1.1457
   74MOL0     H 9733   3.683   7.187   6.660 -2.6814 -1.4885  0.9805
   74MOL0     H 9734   3.482   7.175   6.723  3.0140 -0.1194 -1.9651
   74MOL0     H 9735   3.559   7.047   6.817  1.1975 -0.0426 -1.1627
   74MOL0     H 9736   3.308   6.935   6.835  0.3217  1.1823 -0.8365
   74MOL0     H 9737   3.264   7.083   6.759  0.8974  2.8979 -0.7866
   74MOL0     H 9738   3.370   7.206   6.938  0.7301  0.1999  0.5101
   74MOL0     H 9739   3.423   7.068   7.030  0.1365  1.8340  0.5206
   74MOL0     H 9740   3.130   7.101   6.973 -1.7004  1.3364  2.8450
   74MOL0     H 9741   3.217   6.965   7.063  0.4518 -0.0491  2.5114
   74MOL0     H 9742   3.246   7.237   7.180  1.6224 -0.7317 -1.1473
   74MOL0     H 9743   3.229   7.078   7.258 -2.6515  1.2497  3.0483
   74MOL0     H 9744   2.987   7.062   7.206  2.4014 -1.1891 -0.6281
   74MOL0     H 9745   3.016   7.215   7.112 -1.3894  0.7625  1.5175
   74MOL0     H 9746   3.037   7.349   7.294 -0.7782 -0.7775 -3.0005
   74MOL0     H 9747   2.897   7.243   7.322  0.1256  0.1610  1.3805
   74MOL0     H 9748   3.007   7.255   7.533 -0.9101  0.2196 -0.6711
   74MOL0     H 9749   3.156   7.207   7.462 -0.8384  0.0499 -0.1771
   74MOL0     H 9750   3.511   6.908   6.379 -2.2623  0.7611  3.3410
   74MOL0     H 9751   3.688   6.951   6.220 -1.1170 -0.5299  0.2237
   74MOL0     H 9752   4.043   7.284   6.159 -1.9734 -2.7727  0.8348
   74MOL0     H 9753   4.229   7.360   6.023 -0.4950  0.9998  4.0356
   74MOL0     H 9754   5.985   7.811   5.375 -1.4653 -1.3345 -0.8627
   74MOL0     H 9755   6.140   7.944   5.229  0.5634  0.6240 -2.8249
   74MOL0     H 9756   6.228   8.099   4.624  0.7224 -1.5942 -0.2722
   74MOL0     H 9757   6.399   8.242   4.565  0.1015 -3.8818 -1.3175
   74MOL0     H 9758   6.472   8.458   4.629 -0.1353 -0.8387 -2.0594
   74MOL0     H 9759   6.588   8.359   4.543 -0.7050  0.5016 -1.0261
   74MOL0     H 9760   6.659   8.608   4.569  0.8497 -1.4793 -1.4698
   74MOL0     H 9761   6.667   8.582   4.744  0.5702  1.8352 -1.5810
   74MOL0     H 9762   6.845   8.426   4.559  1.6107 -1.5383  0.1560
   74MOL0     H 9763   6.833   8.388   4.724 -0.2635 -0.4791 -1.2050
   74MOL0     H 9764   6.906   8.632   4.573 -0.3316 -3.3875 -1.3506
   74MOL0     H 9765   6.891   8.651   4.752 -1.7341  2.3616 -2.7605
   74MOL0     H 9766   7.261   8.416   4.675  0.6134  1.0451  4.1825
   74MOL0     H 9767   6.544   8.237   4.978 -0.8313  0.5085 -0.0087
   74MOL0     H 9768   6.386   8.061   5.021 -1.1720  0.6162 -0.3738
   75MOL0     O 9769   9.899   9.204   7.292  0.0669 -0.1715  0.0835
   75MOL0     C 9770   9.944   9.180   7.402 -0.2790  0.3801 -0.4078
   75MOL0     O 9771   9.880   9.117   7.502  0.2163 -0.2482 -0.2825
   75MOL0     C 9772   9.754   9.066   7.475 -0.4004 -0.5311  0.6453
   75MOL0     C 9773   9.746   8.933   7.441 -0.1348 -0.4629 -0.5798
   75MOL0     C 9774   9.623   8.871   7.420  0.6086 -0.0547  0.1869
   75MOL0     C 9775   9.510   8.950   7.437  0.2831  0.4457 -0.2040
   75MOL0     O 9776   9.397   8.878   7.437 -0.5321 -0.0473 -0.5483
   75MOL0     C 9777   9.288   8.925   7.362 -1.0930 -0.1279 -0.3106
   75MOL0     C 9778   9.176   8.823   7.344 -0.2212 -0.2554 -0.6092
   75MOL0     C 9779   9.189   8.734   7.223 -0.2604  0.0390 -0.1507
   75MOL0     C 9780   9.058   8.663   7.194  0.3155 -0.3255 -0.4919
   75MOL0     C 9781   9.053   8.515   7.248 -0.5847  1.2699 -0.2173
   75MOL0     C 9782   8.914   8.465   7.223  0.6266 -0.0404  0.5220
   75MOL0     C 9783   8.897   8.320   7.275 -0.0228 -1.2428  0.7401
   75MOL0     C 9784   8.776   8.257   7.206  0.4085  0.3351 -0.3251
   75MOL0     N 9785   8.646   8.315   7.219 -0.3644  0.4515 -0.2124
   75MOL0     C 9786   8.599   8.409   7.138 -0.6677  0.7539  0.5677
   75MOL0     C 9787   8.462   8.399   7.153  0.1702 -0.3302  0.1156
   75MOL0     C 9788   8.347   8.476   7.089 -0.4982 -0.3524  0.5906
   75MOL0     C 9789   8.206   8.426   7.115  0.4617 -0.0818  0.0548
   75MOL0     C 9790   8.143   8.499   7.239 -0.6437 -0.5472  0.4975
   75MOL0     C 9791   8.019   8.420   7.279 -0.6137 -0.2835 -0.0642
   75MOL0     O 9792   7.934   8.404   7.165 -0.5109  0.4469 -0.1940
   75MOL0     C 9793   7.821   8.340   7.191  0.8769 -0.1492 -0.1622
   75MOL0     C 9794   7.727   8.351   7.082 -0.0337 -0.2969  0.1987
   75MOL0     C 9795   7.612   8.271   7.085 -0.2685 -1.4465  0.2705
   75MOL0     C 9796   7.596   8.175   7.186 -0.6720  0.3338  0.1821
   75MOL0     C 9797   7.463   8.108   7.196  1.2432 -0.6861  0.4403
   75MOL0     O 9798   7.412   8.077   7.324 -1.0332 -0.6011  0.8236
   75MOL0     C 9799   7.298   8.001   7.341  0.6005  0.3392  0.1106
   75MOL0     C 9800   7.212   8.036   7.456 -0.1051  0.2898  0.8712
   75MOL0     C 9801   7.100   7.971   7.487 -0.5745  0.1019 -0.1548
   75MOL0     C 9802   7.064   7.862   7.412  0.4837 -0.5632  0.0370
   75MOL0     O 9803   6.952   7.800   7.462  0.2976  0.2187 -0.0467
   75MOL0     C 9804   6.926   7.668   7.414  0.0690 -0.1802  0.0656
   75MOL0     C 9805   6.773   7.663   7.438  0.1289  0.1925  0.5811
   75MOL0     C 9806   6.731   7.520   7.383  0.4131 -0.4120  0.9125
   75MOL0     C 9807   6.598   7.476   7.442 -0.0785 -0.2189 -0.1119
   75MOL0     C 9808   6.575   7.329   7.393  0.7606 -0.3164  0.3134
   75MOL0     C 9809   6.436   7.289   7.422 -0.4604 -0.2238 -0.5235
   75MOL0     C 9810   6.412   7.137   7.413  0.4156  0.2799 -0.3769
   75MOL0     C 9811   6.489   7.044   7.500 -0.5192  1.3789 -0.2573
   75MOL0    Cl 9812   6.450   7.084   7.663 -0.0293  0.2307 -0.3573
   75MOL0     C 9813   7.151   7.814   7.314 -0.1830 -0.3567  0.1669
   75MOL0     C 9814   7.269   7.878   7.273  0.0137 -1.0443  0.0074
   75MOL0     O 9815   7.415   8.068   7.086  0.6951 -0.2826 -0.6426
   75MOL0     C 9816   7.693   8.166   7.293 -0.4556  0.1827 -0.1544
   75MOL0     C 9817   7.804   8.246   7.294 -0.0815  0.5575  0.0938
   75MOL0     N 9818   8.432   8.302   7.249 -0.6985  0.0676 -0.1572
   75MOL0     N 9819   8.550   8.260   7.289 -0.4585  0.1998 -0.5947
   75MOL0     C 9820   9.515   9.097   7.450 -0.9826  0.7699  0.2923
   75MOL0     C 9821   9.643   9.153   7.468 -0.9105  0.7759  0.3206
   75MOL0     C 9822  10.081   9.213   7.430 -0.4411  0.0639  0.4095
   75MOL0     C 9823  10.118   9.254   7.554  0.0846  0.4151  0.3333
   75MOL0     C 9824  10.247   9.288   7.574 -0.0248 -0.1252  0.0467
   75MOL0     C 9825  10.345   9.283   7.480  0.4224  0.6149 -0.7456
   75MOL0     O 9826  10.468   9.333   7.504 -0.4100 -0.4556  0.3813
   75MOL0     C 9827  10.509   9.380   7.633 -0.7340 -0.4173 -0.9251
   75MOL0     C 9828  10.666   9.405   7.635  0.1655 -0.1291  0.4886
   75MOL0     C 9829  10.699   9.458   7.773  0.3058  0.2122 -0.7312
   75MOL0     C 9830  10.848   9.492   7.804 -0.2681  0.0948 -0.0762
   75MOL0     C 9831  10.940   9.383   7.792 -0.2536 -0.3731 -0.5766
   75MOL0     C 9832  11.026   9.293   7.787 -1.0961  0.3096 -0.1320
   75MOL0     C 9833  10.308   9.248   7.348 -0.1806  0.2155  0.0705
   75MOL0     C 9834  10.180   9.203   7.326  0.1287  0.4901 -0.1082
   75MOL0     H 9835   9.842   8.882   7.444  0.4820  0.7207  0.7739
   75MOL0     H 9836   9.607   8.764   7.413  0.0340  0.0651 -0.4233
   75MOL0     H 9837   9.326   8.946   7.262 -0.0622 -0.3645  0.0177
   75MOL0     H 9838   9.250   9.021   7.397  1.6963  1.8602 -2.2832
   75MOL0     H 9839   9.095   8.894   7.322  1.4424  1.8875 -0.1871
   75MOL0     H 9840   9.162   8.759   7.431  2.8937 -1.9579 -1.2171
   75MOL0     H 9841   9.264   8.654   7.217  3.4472  3.3054 -1.2089
   75MOL0     H 9842   9.211   8.801   7.140 -0.5638  1.1694  0.6587
   75MOL0     H 9843   8.974   8.724   7.229  1.2928 -0.4994  2.4204
   75MOL0     H 9844   9.045   8.654   7.086  2.1865 -1.1186 -0.6887
   75MOL0     H 9845   9.075   8.501   7.354 -1.6954 -0.7180 -0.2144
   75MOL0     H 9846   9.121   8.454   7.188 -2.1371 -0.1629 -0.5880
   75MOL0     H 9847   8.888   8.467   7.117  0.0714 -0.7144  0.6372
   75MOL0     H 9848   8.835   8.526   7.267 -0.3539 -0.9651  0.0850
   75MOL0     H 9849   8.989   8.270   7.247  0.0801 -1.7158  1.8660
   75MOL0     H 9850   8.874   8.323   7.382 -1.5904  1.3759  0.4195
   75MOL0     H 9851   8.759   8.155   7.241  1.8847 -0.3352 -1.4163
   75MOL0     H 9852   8.796   8.254   7.098  3.1632  2.4553  0.0037
   75MOL0     H 9853   8.649   8.467   7.061  1.5654 -0.6909  0.8361
   75MOL0     H 9854   8.350   8.456   6.981 -2.4144  1.2507  0.1706
   75MOL0     H 9855   8.358   8.582   7.116  1.0854 -0.6251  1.1014
   75MOL0     H 9856   8.196   8.317   7.121 -0.6467 -0.0694 -1.1261
   75MOL0     H 9857   8.152   8.455   7.024 -0.0626 -1.5982 -0.1489
   75MOL0     H 9858   8.220   8.505   7.316  1.2526 -1.9233 -1.1905
   75MOL0     H 9859   8.115   8.601   7.213 -3.2725 -1.3416 -0.0629
   75MOL0     H 9860   7.966   8.471   7.360 -2.8094 -1.5199 -0.6494
   75MOL0     H 9861   8.056   8.329   7.328  0.3470 -0.3515 -0.9035
   75MOL0     H 9862   7.739   8.403   6.987  0.8238 -2.0123 -0.6930
   75MOL0     H 9863   7.542   8.291   7.004  1.1648  2.9495 -0.2089
   75MOL0     H 9864   7.234   8.134   7.498 -0.1329  0.2904  0.8846
   75MOL0     H 9865   7.034   7.998   7.568 -0.5532  1.0650 -0.4440
   75MOL0     H 9866   6.980   7.596   7.477  0.5566 -1.2727 -1.5583
   75MOL0     H 9867   6.947   7.648   7.309  1.7118  2.4607 -0.2167
   75MOL0     H 9868   6.712   7.735   7.383 -2.2121 -0.6177  1.9608
   75MOL0     H 9869   6.744   7.677   7.543  0.6020  0.8371  0.6289
   75MOL0     H 9870   6.809   7.446   7.405  1.2467 -0.5072 -1.9945
   75MOL0     H 9871   6.723   7.525   7.274  0.8339 -1.6240  0.8048
   75MOL0     H 9872   6.607   7.481   7.551  4.1177 -1.4398 -0.2079
   75MOL0     H 9873   6.520   7.542   7.403  0.3818 -0.7203 -1.9773
   75MOL0     H 9874   6.651   7.258   7.427  5.4921  2.1947 -3.6470
   75MOL0     H 9875   6.582   7.322   7.284  0.6359 -1.4646  0.3728
   75MOL0     H 9876   6.367   7.336   7.350 -1.3277 -2.2359 -1.0679
   75MOL0     H 9877   6.403   7.324   7.520 -0.0714  0.2485 -0.5576
   75MOL0     H 9878   6.303   7.131   7.427 -0.1225  1.9192 -3.1459
   75MOL0     H 9879   6.421   7.118   7.306  2.9472 -0.6021 -0.0654
   75MOL0     H 9880   6.596   7.062   7.487 -0.6946  2.0397 -0.8053
   75MOL0     H 9881   6.452   6.941   7.495 -1.9675  1.7784  1.3321
   75MOL0     H 9882   7.126   7.711   7.292 -2.1041  0.3574 -1.2353
   75MOL0     H 9883   7.337   7.819   7.213 -0.2167 -1.2346 -0.0669
   75MOL0     H 9884   7.675   8.097   7.374  0.9918  1.2700  1.1643
   75MOL0     H 9885   7.872   8.221   7.375 -3.4962 -0.2858  2.9685
   75MOL0     H 9886   9.430   9.161   7.472 -1.1814  2.0828 -3.5297
   75MOL0     H 9887   9.650   9.261   7.460 -0.5118  0.8698  1.6890
   75MOL0     H 9888  10.045   9.272   7.633  1.1767 -0.3059  1.5583
   75MOL0     H 9889  10.258   9.334   7.671 -0.0275  1.5714 -0.7208
   75MOL0     H 9890  10.479   9.305   7.707 -0.4457 -1.5138 -1.8742
   75MOL0     H 9891  10.462   9.471   7.671 -0.0148 -1.1266  1.9260
   75MOL0     H 9892  10.706   9.304   7.620 -1.4987 -0.5696 -1.4615
   75MOL0     H 9893  10.700   9.473   7.557 -0.3102 -1.4378 -0.9063
   75MOL0     H 9894  10.669   9.381   7.844 -0.5288  1.2210  0.0444
   75MOL0     H 9895  10.638   9.547   7.792  2.7923  1.3137  3.3586
   75MOL0     H 9896  10.878   9.577   7.742 -1.0543 -0.0511 -0.6781
   75MOL0     H 9897  10.854   9.526   7.907  2.8526 -1.7263  0.4858
   75MOL0     H 9898  11.103   9.219   7.792 -2.9978 -2.0604 -2.6060
   75MOL0     H 9899  10.377   9.237   7.265 -0.7900  1.2369 -0.5938
   75MOL0     H 9900  10.142   9.161   7.233 -2.8168  1.0788  0.7435
   76MOL0     O 9901  10.697   8.244   3.291  0.2536 -0.2253 -0.2611
   76MOL0     C 9902  10.680   8.208   3.408 -0.0252  0.3717  0.2478
   76MOL0     O 9903  10.571   8.241   3.490 -0.3573 -0.6571  0.4902
   76MOL0     C 9904  10.444   8.278   3.452 -0.3633 -0.0470  0.5685
   76MOL0     C 9905  10.406   8.285   3.313  0.1893  0.1912 -0.4579
   76MOL0     C 9906  10.276   8.322   3.291 -0.7543  0.3174  0.4700
   76MOL0     C 9907  10.180   8.339   3.396  0.2356  0.7578  0.2085
   76MOL0     O 9908  10.039   8.362   3.374 -0.5269  0.5426  0.3956
   76MOL0     C 9909  10.011   8.422   3.248 -0.0206 -0.4915 -0.0122
   76MOL0     C 9910   9.884   8.510   3.259 -0.4623  0.5262 -0.4825
   76MOL0     C 9911   9.908   8.638   3.338  0.3164  0.7623 -0.4588
   76MOL0     C 9912   9.779   8.700   3.375 -0.4992  0.3899 -0.5645
   76MOL0     C 9913   9.789   8.835   3.431 -0.5077  0.1647 -0.4745
   76MOL0     C 9914   9.849   8.837   3.572  0.3189  0.1823 -0.6730
   76MOL0     C 9915   9.762   8.920   3.669  1.0037  0.1063 -0.0813
   76MOL0     C 9916   9.829   8.927   3.804  0.6270  0.2385 -0.6776
   76MOL0     N 9917   9.962   8.991   3.805  0.4204  0.6103 -0.5875
   76MOL0     C 9918  10.085   8.936   3.791 -0.1213 -0.1314 -0.4569
   76MOL0     C 9919  10.167   9.028   3.849  0.3655  0.0129 -0.1261
   76MOL0     C 9920  10.326   9.029   3.855  0.0681 -0.1910 -0.3658
   76MOL0     C 9921  10.387   9.058   3.723  0.9208  0.4973  0.6114
   76MOL0     C 9922  10.538   9.050   3.734 -0.2799 -0.0262 -0.6076
   76MOL0     C 9923  10.600   9.108   3.607  0.4586  0.0220  0.8887
   76MOL0     O 9924  10.725   9.054   3.563 -0.3794  0.0555 -0.8451
   76MOL0     C 9925  10.853   9.080   3.612  0.4938  0.4027 -0.0019
   76MOL0     C 9926  10.952   8.982   3.597 -0.9189  0.3841  0.1472
   76MOL0     C 9927  11.079   9.006   3.646  0.6470 -0.6490  0.7539
   76MOL0     C 9928  11.110   9.124   3.709 -0.0954 -0.2816  0.9958
   76MOL0     C 9929  11.243   9.139   3.767  0.5570  0.0045  0.1155
   76MOL0     O 9930  11.332   9.034   3.762 -0.3299 -0.5669 -0.1983
   76MOL0     C 9931  11.464   9.047   3.811 -0.6030 -0.0221  0.0335
   76MOL0     C 9932  11.506   8.973   3.917  0.7400  0.0225  1.1872
   76MOL0     C 9933  11.630   8.985   3.973 -0.4618 -0.6036  0.4669
   76MOL0     C 9934  11.722   9.064   3.905  0.4053 -1.1082 -0.1171
   76MOL0     O 9935  11.854   9.061   3.941 -0.0079 -0.2670 -0.5932
   76MOL0     C 9936  11.935   8.952   3.889 -0.0188  0.3869  0.0260
   76MOL0     C 9937  12.051   8.924   3.996  0.8175  0.6538  0.0918
   76MOL0     C 9938  11.992   8.850   4.114 -0.2553  0.4804 -0.3993
   76MOL0     C 9939  12.101   8.783   4.200  0.2285 -1.0425 -0.5187
   76MOL0     C 9940  12.060   8.788   4.341  0.0830 -0.1827 -0.5760
   76MOL0     C 9941  12.167   8.730   4.427 -0.6443  0.0084  0.8437
   76MOL0     C 9942  12.131   8.747   4.574  0.0144  0.5227 -1.1680
   76MOL0     C 9943  12.243   8.690   4.666  0.0609 -0.6896 -0.2485
   76MOL0    Cl 9944  12.358   8.819   4.714  0.1893  0.1485  0.2004
   76MOL0     C 9945  11.686   9.123   3.790 -0.1129 -0.2913  0.5431
   76MOL0     C 9946  11.556   9.118   3.740 -0.7583  0.0878 -0.5782
   76MOL0     O 9947  11.267   9.254   3.826 -0.4602  0.1052  0.1511
   76MOL0     C 9948  11.014   9.227   3.717 -1.3101  0.1110  0.5245
   76MOL0     C 9949  10.887   9.206   3.677 -0.2766  0.0697  0.3691
   76MOL0     N 9950  10.097   9.135   3.894  0.7448  0.1522 -0.5440
   76MOL0     N 9951   9.973   9.117   3.866  0.1654 -0.2213 -0.7116
   76MOL0     C 9952  10.226   8.335   3.528 -0.3061 -0.4821  0.9717
   76MOL0     C 9953  10.362   8.301   3.553  0.6651 -0.0065 -0.2858
   76MOL0     C 9954  10.789   8.135   3.476  0.2786 -0.5867 -0.0310
   76MOL0     C 9955  10.770   8.082   3.606 -0.2944  0.9910 -0.6138
   76MOL0     C 9956  10.858   8.008   3.679 -0.2365 -0.7615  0.4081
   76MOL0     C 9957  10.990   7.994   3.629 -0.2648  0.2277 -0.7073
   76MOL0     O 9958  11.067   7.920   3.713 -0.6293 -0.0269  0.1277
   76MOL0     C 9959  11.213   7.915   3.689  0.2464  0.3513 -0.2418
   76MOL0     C 9960  11.279   8.052   3.727 -0.3357 -0.9907 -0.3706
   76MOL0     C 9961  11.432   8.057   3.751 -0.2171 -0.0256  0.0182
   76MOL0     C 9962  11.499   8.005   3.628 -1.3255  0.7443  0.7463
   76MOL0     C 9963  11.646   7.996   3.649 -0.2592 -0.5139  0.0901
   76MOL0     C 9964  11.765   7.988   3.671  0.4401 -0.0836 -0.3680
   76MOL0     C 9965  11.021   8.056   3.509 -0.0708 -1.6449 -0.5166
   76MOL0     C 9966  10.924   8.125   3.433  1.2393 -0.8046 -0.5255
   76MOL0     H 9967  10.476   8.255   3.236 -0.8401 -2.1473 -0.5669
   76MOL0     H 9968  10.244   8.325   3.187 -2.3970 -0.1994  0.9352
   76MOL0     H 9969   9.996   8.344   3.173 -1.5288  1.0471 -1.4118
   76MOL0     H 9970  10.095   8.479   3.207 -0.1974  2.3518  3.1131
   76MOL0     H 9971   9.808   8.449   3.309  0.2253 -0.7980 -1.0097
   76MOL0     H 9972   9.847   8.533   3.159 -2.4835  1.3877  0.3862
   76MOL0     H 9973   9.972   8.707   3.283  2.2446 -1.5184 -1.2293
   76MOL0     H 9974   9.956   8.607   3.431  2.0600  0.0937 -1.5327
   76MOL0     H 9975   9.711   8.697   3.289 -0.1053 -0.1812 -0.8661
   76MOL0     H 9976   9.730   8.641   3.454 -0.8240 -0.1949 -1.1929
   76MOL0     H 9977   9.690   8.879   3.446 -0.1358  0.4738  1.2998
   76MOL0     H 9978   9.849   8.892   3.359  1.1500  0.6688  1.2379
   76MOL0     H 9979   9.957   8.859   3.572 -0.0699  2.9377  2.2386
   76MOL0     H 9980   9.839   8.736   3.612 -0.6824  0.2196 -0.8040
   76MOL0     H 9981   9.747   9.017   3.620 -2.2803 -0.2170  0.0399
   76MOL0     H 9982   9.662   8.876   3.685  0.7232  0.5048 -0.6953
   76MOL0     H 9983   9.832   8.820   3.830 -4.1151  0.0572  0.0423
   76MOL0     H 9984   9.755   8.974   3.869  0.0658  0.2835 -1.3426
   76MOL0     H 9985  10.107   8.837   3.752  0.4639 -1.4100  2.8459
   76MOL0     H 9986  10.353   8.924   3.871 -1.0530 -1.5070 -5.2933
   76MOL0     H 9987  10.356   9.104   3.928  0.0110  0.3341 -0.8740
   76MOL0     H 9988  10.356   9.153   3.677  3.0897  0.7020 -0.5516
   76MOL0     H 9989  10.353   8.979   3.655 -2.0226 -0.2592  2.7368
   76MOL0     H 9990  10.580   9.081   3.830 -1.0185 -0.1445 -0.2339
   76MOL0     H 9991  10.567   8.944   3.735 -1.0788 -0.2519  0.1310
   76MOL0     H 9992  10.602   9.216   3.623 -1.5468  0.0630  1.0670
   76MOL0     H 9993  10.534   9.094   3.522  1.6047 -0.3000  0.0250
   76MOL0     H 9994  10.926   8.885   3.557  0.7501 -2.3540  4.9614
   76MOL0     H 9995  11.154   8.933   3.618 -0.2846 -0.9709 -1.0347
   76MOL0     H 9996  11.428   8.918   3.968 -1.4919  0.0897 -1.9222
   76MOL0     H 9997  11.659   8.928   4.061 -0.0895 -1.0132  0.0873
   76MOL0     H 9998  11.992   8.982   3.800  1.6618  0.1254  0.9583
   76MOL0     H 9999  11.869   8.871   3.860 -1.4294  1.7844 -0.8015
   76MOL0     H10000  12.090   9.016   4.042  2.4521  2.6854 -4.7234
   76MOL0     H10001  12.131   8.861   3.957  1.0619  0.4377  0.9144
   76MOL0     H10002  11.917   8.776   4.087  0.6511 -0.7540  0.3657
   76MOL0     H10003  11.927   8.919   4.170  0.8429  0.6233  0.7388
   76MOL0     H10004  12.114   8.684   4.157 -0.7032 -0.3621 -2.4728
   76MOL0     H10005  12.193   8.834   4.170  0.4010 -1.9401 -1.5888
   76MOL0     H10006  11.970   8.728   4.360  0.9536 -1.6592 -0.9936
   76MOL0     H10007  12.055   8.894   4.369 -1.5096  0.2643 -2.3515
   76MOL0     H10008  12.265   8.778   4.418 -0.8118  0.3544  0.8626
   76MOL0     H10009  12.187   8.625   4.402 -1.0300 -0.4053  2.1817
   76MOL0     H10010  12.106   8.851   4.595  0.5218  0.9489 -2.5699
   76MOL0     H10011  12.041   8.686   4.592  0.5667 -0.1091 -0.4966
   76MOL0     H10012  12.288   8.614   4.602 -2.0821 -0.4987 -2.0967
   76MOL0     H10013  12.194   8.648   4.754 -1.3617  1.8553  0.2912
   76MOL0     H10014  11.765   9.177   3.738  1.6617  0.1998  3.5124
   76MOL0     H10015  11.529   9.176   3.652  1.8182 -0.4125 -1.7864
   76MOL0     H10016  11.047   9.323   3.755 -0.1815 -1.2533  3.3465
   76MOL0     H10017  10.815   9.285   3.698 -0.7702 -0.7992  2.2521
   76MOL0     H10018  10.167   8.380   3.606 -0.4854  0.2980  0.3925
   76MOL0     H10019  10.406   8.276   3.649 -0.3161 -2.6277 -0.4337
   76MOL0     H10020  10.678   8.086   3.663  1.2957 -0.4690  2.2601
   76MOL0     H10021  10.831   7.964   3.775  2.4341 -2.5072  0.4652
   76MOL0     H10022  11.230   7.881   3.586  1.8661  2.1332 -0.6185
   76MOL0     H10023  11.260   7.830   3.739 -0.3233 -0.2701 -0.7504
   76MOL0     H10024  11.260   8.130   3.653 -2.5222 -1.0152  0.0906
   76MOL0     H10025  11.235   8.087   3.821 -1.0877 -2.4817 -0.1460
   76MOL0     H10026  11.471   7.997   3.834  1.4493 -1.2757 -1.5868
   76MOL0     H10027  11.465   8.160   3.765  0.7926 -0.0837 -1.6348
   76MOL0     H10028  11.463   7.904   3.607  1.9842 -0.1889 -1.1869
   76MOL0     H10029  11.480   8.060   3.535  3.0727  0.7610 -0.3365
   76MOL0     H10030  11.872   7.979   3.680  0.5880  0.8741 -0.9488
   76MOL0     H10031  11.127   8.070   3.489  0.1455  1.8065  2.0265
   76MOL0     H10032  10.947   8.176   3.340  0.0854  1.4835  0.3513
   77MOL0     O10033   1.024   6.004   6.685 -1.1076  0.0347 -0.2430
   77MOL0     C10034   1.034   6.012   6.812 -0.7047  0.8011  0.3673
   77MOL0     O10035   0.925   6.014   6.896 -0.1660  0.5113 -0.6134
   77MOL0     C10036   0.798   5.980   6.858 -0.4047 -0.0204  0.1387
   77MOL0     C10037   0.695   6.067   6.887  0.4521  0.6848 -0.2959
   77MOL0     C10038   0.560   6.034   6.865  0.6241 -0.4807  0.1176
   77MOL0     C10039   0.534   5.912   6.797 -0.4519 -0.0086 -0.9129
   77MOL0     O10040   0.408   5.900   6.747  0.6594 -0.2421 -0.1926
   77MOL0     C10041   0.365   5.767   6.719  0.9339 -0.2643 -0.9710
   77MOL0     C10042   0.225   5.735   6.759  0.4471 -0.3732 -0.5233
   77MOL0     C10043   0.120   5.810   6.674  0.2909  0.8482  0.7031
   77MOL0     C10044  -0.009   5.729   6.681 -0.7764  0.5789 -0.3963
   77MOL0     C10045  -0.121   5.780   6.590 -0.9125 -0.5902 -0.0474
   77MOL0     C10046  -0.240   5.686   6.618  0.4690 -0.5007  0.9735
   77MOL0     C10047  -0.366   5.746   6.556  0.9506  0.5906  0.2766
   77MOL0     C10048  -0.495   5.675   6.592 -0.7119  0.7302 -0.9442
   77MOL0     N10049  -0.498   5.532   6.555 -0.0196  0.1253  0.9784
   77MOL0     C10050  -0.600   5.471   6.475  0.1868 -0.1220  1.2254
   77MOL0     C10051  -0.573   5.342   6.486  0.0433  0.3495 -0.4029
   77MOL0     C10052  -0.652   5.234   6.410 -0.6723 -0.3124 -0.7753
   77MOL0     C10053  -0.731   5.140   6.500 -0.4946 -0.6752  0.7103
   77MOL0     C10054  -0.828   5.062   6.404  0.0037 -0.7585 -0.5122
   77MOL0     C10055  -0.878   4.929   6.462  0.6871 -0.5582 -0.1296
   77MOL0     O10056  -0.964   4.860   6.375  0.0618 -1.3633  0.7601
   77MOL0     C10057  -1.099   4.882   6.387 -0.7554 -0.4294 -0.7981
   77MOL0     C10058  -1.156   4.985   6.474 -0.9055 -0.0670  1.7995
   77MOL0     C10059  -1.291   5.016   6.465 -0.0013  0.3066  0.0469
   77MOL0     C10060  -1.368   4.965   6.365  0.1018 -0.4331 -0.2439
   77MOL0     C10061  -1.516   5.009   6.339 -1.7243  0.1786 -0.5553
   77MOL0     O10062  -1.575   5.092   6.437 -0.3830  0.1131  0.5291
   77MOL0     C10063  -1.710   5.111   6.436  0.4610 -0.3195  0.9484
   77MOL0     C10064  -1.763   5.241   6.448 -0.0248 -0.6911 -0.2581
   77MOL0     C10065  -1.909   5.265   6.457  0.2372 -0.1532 -0.3200
   77MOL0     C10066  -1.993   5.152   6.454  0.1350 -0.0651 -0.2621
   77MOL0     O10067  -2.129   5.177   6.456  0.2484 -0.2662 -0.1354
   77MOL0     C10068  -2.236   5.073   6.471  0.2164 -0.4210  0.4408
   77MOL0     C10069  -2.369   5.145   6.494 -0.0293  0.0178 -0.9666
   77MOL0     C10070  -2.470   5.044   6.551 -0.0389  1.0216  0.5336
   77MOL0     C10071  -2.599   5.101   6.575 -1.0275  0.3614  0.1213
   77MOL0     C10072  -2.688   4.999   6.652  0.5130 -0.9740 -0.3853
   77MOL0     C10073  -2.842   5.038   6.668  0.7671  0.7667 -0.1139
   77MOL0     C10074  -2.870   5.170   6.753 -1.1439 -0.6402  0.2811
   77MOL0     C10075  -3.019   5.190   6.775 -0.3648 -0.0540  0.4895
   77MOL0    Cl10076  -3.101   5.252   6.630 -0.0579  0.1789 -0.5754
   77MOL0     C10077  -1.942   5.025   6.443  0.0455  0.7915  0.8450
   77MOL0     C10078  -1.804   5.007   6.434  1.2678  1.1389 -0.0556
   77MOL0     O10079  -1.558   4.978   6.232  0.0379 -0.0449 -0.0681
   77MOL0     C10080  -1.313   4.868   6.282 -0.6736 -0.4488 -0.1069
   77MOL0     C10081  -1.179   4.829   6.292 -0.0635  1.0927 -0.0458
   77MOL0     N10082  -0.468   5.320   6.571  0.2413 -0.0568 -0.6728
   77MOL0     N10083  -0.427   5.437   6.614  0.4325  0.4847  0.1274
   77MOL0     C10084   0.644   5.831   6.750  1.0232 -0.0753  0.8251
   77MOL0     C10085   0.774   5.859   6.792  0.2428  0.4542  1.0844
   77MOL0     C10086   1.173   6.022   6.869  0.6955  0.6748 -0.0604
   77MOL0     C10087   1.194   6.050   7.006 -0.9680  0.4996  0.0234
   77MOL0     C10088   1.336   6.074   7.050  0.2553  0.2530  0.4857
   77MOL0     C10089   1.444   6.066   6.964 -0.5987  0.5451 -0.0655
   77MOL0     O10090   1.571   6.097   7.011  0.0287  0.8211  0.4457
   77MOL0     C10091   1.665   6.127   6.912  0.4734  0.8364  0.3918
   77MOL0     C10092   1.805   6.159   6.969  0.4210 -0.0546 -0.2171
   77MOL0     C10093   1.918   6.161   6.866  0.0374  0.2691 -0.1646
   77MOL0     C10094   2.041   6.230   6.913 -0.9166  0.6915 -0.6354
   77MOL0     C10095   2.101   6.158   7.029  0.0356 -0.2418  0.6496
   77MOL0     C10096   2.177   6.102   7.118 -0.0287  0.1897  0.5304
   77MOL0     C10097   1.414   6.028   6.826 -0.2258 -0.4638  0.0405
   77MOL0     C10098   1.286   6.010   6.778  0.7051 -0.5760  0.1475
   77MOL0     H10099   0.713   6.164   6.933  0.1092  0.6415 -0.0596
   77MOL0     H10100   0.475   6.095   6.893  1.1873  0.7162 -0.6873
   77MOL0     H10101   0.429   5.697   6.773  1.1446  1.4949  1.2107
   77MOL0     H10102   0.375   5.757   6.610  0.7558  0.0569 -1.0205
   77MOL0     H10103   0.215   5.758   6.865 -1.8365 -0.7957 -0.5954
   77MOL0     H10104   0.212   5.626   6.754 -4.3995 -0.2544  2.5846
   77MOL0     H10105   0.153   5.833   6.573 -1.3491  2.5116  0.4916
   77MOL0     H10106   0.095   5.909   6.714 -3.4383  0.4899 -0.3483
   77MOL0     H10107   0.013   5.625   6.658  3.9229  1.3397 -0.3916
   77MOL0     H10108  -0.046   5.736   6.784  0.9977  0.7093  0.2644
   77MOL0     H10109  -0.080   5.784   6.489  1.9112  2.6964  1.0599
   77MOL0     H10110  -0.157   5.878   6.624 -4.0839 -1.0014 -1.8425
   77MOL0     H10111  -0.267   5.690   6.724 -0.9249  1.4160  0.5902
   77MOL0     H10112  -0.198   5.591   6.584  3.7036  0.4749  1.8945
   77MOL0     H10113  -0.384   5.853   6.569  0.5689  0.6685 -0.7524
   77MOL0     H10114  -0.352   5.739   6.447  0.9289  1.9779  0.1640
   77MOL0     H10115  -0.585   5.727   6.558 -0.8887 -1.4055 -4.1735
   77MOL0     H10116  -0.495   5.687   6.701  2.4037  1.0967 -0.9085
   77MOL0     H10117  -0.667   5.510   6.398  2.5857  0.3287 -0.7544
   77MOL0     H10118  -0.593   5.188   6.329  0.4881  1.9602 -1.2934
   77MOL0     H10119  -0.730   5.291   6.359 -1.1074 -0.5110 -0.3403
   77MOL0     H10120  -0.790   5.194   6.575 -1.5742  0.4886 -0.9005
   77MOL0     H10121  -0.657   5.078   6.552  0.2852  0.8932  1.5385
   77MOL0     H10122  -0.921   5.119   6.394 -0.3790 -1.6158 -2.1709
   77MOL0     H10123  -0.782   5.033   6.309  0.2700 -2.4041  0.0831
   77MOL0     H10124  -0.910   4.941   6.566 -0.1801 -0.3687 -0.4141
   77MOL0     H10125  -0.790   4.864   6.470 -0.7214 -2.4852  0.6092
   77MOL0     H10126  -1.095   5.031   6.551 -1.4777 -1.5467  3.2015
   77MOL0     H10127  -1.338   5.093   6.525  0.5480 -0.2171  1.1832
   77MOL0     H10128  -1.707   5.334   6.456 -0.6867 -0.4858  3.3474
   77MOL0     H10129  -1.955   5.363   6.460  1.4903  0.4240  2.6030
   77MOL0     H10130  -2.211   5.012   6.559 -0.2122  1.4323  1.9236
   77MOL0     H10131  -2.251   5.012   6.382 -2.5636 -1.7228  1.6561
   77MOL0     H10132  -2.402   5.207   6.410  1.3257  1.8032 -0.2367
   77MOL0     H10133  -2.367   5.217   6.576 -3.4896 -1.6434  0.7859
   77MOL0     H10134  -2.437   5.006   6.648 -2.6311 -0.6648  0.8513
   77MOL0     H10135  -2.483   4.965   6.476  1.5145  1.3563 -0.1266
   77MOL0     H10136  -2.594   5.193   6.635  2.0579 -0.5929  1.5065
   77MOL0     H10137  -2.633   5.122   6.473 -1.9269  1.0784  0.5544
   77MOL0     H10138  -2.647   4.987   6.753 -0.2518 -2.0161 -0.1838
   77MOL0     H10139  -2.679   4.901   6.604  3.0715 -1.0333  0.0686
   77MOL0     H10140  -2.882   4.960   6.732  1.9994  1.2011  1.2363
   77MOL0     H10141  -2.885   5.040   6.568 -0.1180 -2.0052  0.1279
   77MOL0     H10142  -2.814   5.169   6.847 -2.2563  3.2599  1.1523
   77MOL0     H10143  -2.830   5.253   6.693 -1.2546 -1.5800 -1.1489
   77MOL0     H10144  -3.028   5.263   6.857 -0.6741  0.4310  0.0291
   77MOL0     H10145  -3.063   5.093   6.798 -0.7361 -0.2977 -1.1778
   77MOL0     H10146  -2.004   4.937   6.434 -0.6191  1.3543 -0.2354
   77MOL0     H10147  -1.779   4.902   6.423 -1.3490  0.3116  1.0812
   77MOL0     H10148  -1.375   4.817   6.209 -1.3705  0.0078  0.1578
   77MOL0     H10149  -1.128   4.761   6.225 -0.0769 -0.1705  1.1924
   77MOL0     H10150   0.625   5.744   6.688  1.1889  1.7665 -2.0042
   77MOL0     H10151   0.857   5.800   6.755  0.3743 -1.5073  4.1389
   77MOL0     H10152   1.117   6.046   7.082 -1.0204 -3.1919 -0.0474
   77MOL0     H10153   1.366   6.088   7.153  0.6721 -2.3411  0.7874
   77MOL0     H10154   1.637   6.210   6.847  2.3458  2.2116  1.2493
   77MOL0     H10155   1.679   6.033   6.857 -2.9557 -0.9569  2.2579
   77MOL0     H10156   1.798   6.255   7.021  2.6565 -0.1884  0.3969
   77MOL0     H10157   1.841   6.089   7.046  0.3124  2.3886  2.1999
   77MOL0     H10158   1.885   6.183   6.764 -1.5063 -1.6783 -0.1344
   77MOL0     H10159   1.955   6.059   6.862 -2.1760 -0.5860 -0.0585
   77MOL0     H10160   2.112   6.240   6.831  1.4505 -6.5386 -0.1908
   77MOL0     H10161   2.018   6.332   6.946  1.3239  0.9805  0.2422
   77MOL0     H10162   2.217   6.039   7.194  2.4955  0.4699 -0.4542
   77MOL0     H10163   1.501   6.034   6.761  1.0881 -0.2659  1.7356
   77MOL0     H10164   1.269   5.993   6.672 -1.7435  0.5159  0.2885
   78MOL0     O10165   3.188   5.466   8.871  0.5251  0.7172 -0.1240
   78MOL0     C10166   3.125   5.567   8.832 -0.7025  0.3000 -0.2015
   78MOL0     O10167   3.188   5.683   8.799 -0.6922 -0.5760 -0.2415
   78MOL0     C10168   3.323   5.699   8.772  0.4737  0.9409 -0.5312
   78MOL0     C10169   3.392   5.809   8.826  0.1234  0.0531  0.3732
   78MOL0     C10170   3.525   5.832   8.783 -0.1940  1.0894 -0.5829
   78MOL0     C10171   3.586   5.745   8.681  0.3647 -0.9062 -0.1847
   78MOL0     O10172   3.718   5.750   8.640 -0.2633 -0.7343  0.2808
   78MOL0     C10173   3.816   5.816   8.723  0.2890  0.5687  0.9616
   78MOL0     C10174   3.956   5.777   8.663 -0.3980  0.5307 -0.4570
   78MOL0     C10175   4.038   5.680   8.753  0.0306  0.8242  0.4874
   78MOL0     C10176   4.174   5.649   8.677  0.8534 -0.6451  0.7404
   78MOL0     C10177   4.249   5.528   8.727  0.0025  0.2087 -0.8056
   78MOL0     C10178   4.296   5.552   8.864  0.0143  0.7653 -0.5905
   78MOL0     C10179   4.379   5.431   8.916  0.1067 -0.5526 -0.3287
   78MOL0     C10180   4.311   5.301   8.928 -0.6669 -0.0315  0.3155
   78MOL0     N10181   4.185   5.307   9.008  0.7025  0.0297 -0.6415
   78MOL0     C10182   4.177   5.292   9.147 -0.2550 -0.4044 -0.0866
   78MOL0     C10183   4.045   5.310   9.180  0.0964  0.5227 -0.3118
   78MOL0     C10184   3.989   5.278   9.325  0.4818  0.2311  0.7641
   78MOL0     C10185   3.889   5.172   9.323 -0.1602 -0.2902 -0.5938
   78MOL0     C10186   3.744   5.212   9.273  0.0515 -0.1088 -0.0806
   78MOL0     C10187   3.642   5.108   9.290  0.6330  0.0333  0.0214
   78MOL0     O10188   3.520   5.134   9.219  0.2911 -0.4917 -0.3986
   78MOL0     C10189   3.410   5.054   9.259  1.2447 -0.8332 -0.6135
   78MOL0     C10190   3.407   4.943   9.345 -0.1374  0.6499  0.4893
   78MOL0     C10191   3.292   4.875   9.365  0.4489  0.5095  0.0495
   78MOL0     C10192   3.169   4.922   9.311  1.3541 -0.1096  0.2454
   78MOL0     C10193   3.039   4.851   9.330  0.2328 -0.2567  0.6203
   78MOL0     O10194   2.921   4.887   9.257  0.0116 -0.4003  0.4042
   78MOL0     C10195   2.801   4.817   9.268  0.1118  0.0535 -0.7741
   78MOL0     C10196   2.687   4.892   9.277  0.0141 -0.5863  0.5280
   78MOL0     C10197   2.564   4.827   9.283  0.4575  0.0212  0.2233
   78MOL0     C10198   2.556   4.692   9.250 -0.4913  0.0668 -0.6957
   78MOL0     O10199   2.436   4.634   9.240  0.5084  0.3991 -0.0734
   78MOL0     C10200   2.381   4.604   9.108  0.1382  0.0822 -0.5532
   78MOL0     C10201   2.308   4.725   9.052 -0.2461 -0.1409 -0.1271
   78MOL0     C10202   2.216   4.694   8.930 -0.7897  0.2309  1.0545
   78MOL0     C10203   2.148   4.827   8.883 -0.1971  0.4459  0.3947
   78MOL0     C10204   2.075   4.791   8.756  0.5858  0.5693  0.3453
   78MOL0     C10205   1.990   4.900   8.700  0.9954  0.8344  0.6146
   78MOL0     C10206   1.958   4.884   8.542  0.1156  0.1085  0.2964
   78MOL0     C10207   1.887   5.007   8.490  0.1902  0.4115 -0.0926
   78MOL0    Cl10208   1.832   4.994   8.321  0.3765 -0.0108 -0.2308
   78MOL0     C10209   2.668   4.613   9.244 -0.2591 -0.1456  1.5017
   78MOL0     C10210   2.792   4.673   9.254 -0.6618  0.2301  0.0664
   78MOL0     O10211   3.053   4.760   9.407 -0.1259  0.8630 -0.1608
   78MOL0     C10212   3.169   5.027   9.219 -0.5570  0.2387  0.2528
   78MOL0     C10213   3.291   5.093   9.193 -0.6783 -0.3792  0.1736
   78MOL0     N10214   3.982   5.328   9.063  0.2825 -0.4872 -0.2765
   78MOL0     N10215   4.059   5.330   8.964 -0.2583  0.3794 -0.1378
   78MOL0     C10216   3.518   5.634   8.629 -0.5405  0.0089  0.2103
   78MOL0     C10217   3.393   5.613   8.684  0.4773  1.0094  0.4705
   78MOL0     C10218   2.982   5.559   8.849 -0.1053 -0.0271  0.9587
   78MOL0     C10219   2.902   5.669   8.825  0.0779 -0.0300 -0.1298
   78MOL0     C10220   2.764   5.662   8.852 -1.0929 -0.2586 -0.1813
   78MOL0     C10221   2.706   5.540   8.881  0.7254  0.3099 -0.0364
   78MOL0     O10222   2.575   5.529   8.910 -0.1196  0.4816  0.4600
   78MOL0     C10223   2.479   5.620   8.866 -0.1652  0.3813  0.1308
   78MOL0     C10224   2.464   5.624   8.713 -0.3230  0.0879 -0.0689
   78MOL0     C10225   2.433   5.484   8.650 -0.1452  0.0762 -0.6157
   78MOL0     C10226   2.285   5.443   8.669  0.3434 -0.4447  0.5426
   78MOL0     C10227   2.271   5.297   8.644 -1.1221 -0.1030 -0.1848
   78MOL0     C10228   2.268   5.184   8.607 -0.5244 -0.7397 -0.4315
   78MOL0     C10229   2.782   5.420   8.893 -1.1323 -0.9417  0.0775
   78MOL0     C10230   2.917   5.435   8.878 -0.1951 -0.0665 -0.1574
   78MOL0     H10231   3.348   5.879   8.896 -2.6258 -0.5011 -0.6368
   78MOL0     H10232   3.591   5.913   8.814  0.0752  1.1021 -1.1805
   78MOL0     H10233   3.794   5.768   8.819 -2.6656 -1.8885 -0.7736
   78MOL0     H10234   3.803   5.925   8.721 -0.6812  0.5448  3.1743
   78MOL0     H10235   4.015   5.869   8.660 -0.8659  0.8425 -0.1591
   78MOL0     H10236   3.936   5.742   8.561 -0.1628 -1.7448  0.2083
   78MOL0     H10237   3.976   5.593   8.776 -2.6474  2.8207  1.3638
   78MOL0     H10238   4.068   5.715   8.852  1.4403 -1.0721  0.7793
   78MOL0     H10239   4.141   5.617   8.578 -1.7279 -1.2118  1.7043
   78MOL0     H10240   4.231   5.741   8.669 -1.3243  0.6271 -2.5054
   78MOL0     H10241   4.337   5.534   8.662  0.2995 -0.6215 -0.4936
   78MOL0     H10242   4.192   5.436   8.709 -1.1020  0.7548 -0.2150
   78MOL0     H10243   4.213   5.562   8.935 -0.4527 -0.5081 -0.9281
   78MOL0     H10244   4.354   5.644   8.862  2.6306 -0.7596 -4.0496
   78MOL0     H10245   4.461   5.419   8.845 -0.0927 -0.9755 -0.4896
   78MOL0     H10246   4.426   5.453   9.013 -1.3977  1.0910  0.0911
   78MOL0     H10247   4.391   5.246   8.977 -1.2421 -0.2794  0.9932
   78MOL0     H10248   4.302   5.255   8.829  1.6333  0.5814 -0.2238
   78MOL0     H10249   4.260   5.276   9.215  0.3744  1.6300 -0.3160
   78MOL0     H10250   3.936   5.367   9.360  2.2005  2.2838 -1.5291
   78MOL0     H10251   4.061   5.258   9.405  1.2277  1.7582  0.4998
   78MOL0     H10252   3.882   5.126   9.422  1.3277 -3.4867 -1.8402
   78MOL0     H10253   3.906   5.102   9.241  0.8034  2.3883 -2.8307
   78MOL0     H10254   3.715   5.302   9.327  1.2791 -0.1133  0.6122
   78MOL0     H10255   3.750   5.244   9.168  1.3666  0.7292  0.2311
   78MOL0     H10256   3.622   5.093   9.397 -0.8453 -1.7365 -0.4582
   78MOL0     H10257   3.691   5.017   9.256 -0.5059 -0.3916 -0.5375
   78MOL0     H10258   3.497   4.907   9.394 -0.3183 -1.5426 -0.6683
   78MOL0     H10259   3.296   4.785   9.426 -0.0359 -1.2337 -2.3603
   78MOL0     H10260   2.677   4.994   9.314 -0.7149 -0.6491  0.5194
   78MOL0     H10261   2.471   4.880   9.296 -0.5303 -1.3617 -0.9542
   78MOL0     H10262   2.300   4.531   9.120 -0.4320  1.0514  2.2602
   78MOL0     H10263   2.452   4.562   9.036 -0.8386 -0.1688 -1.3961
   78MOL0     H10264   2.374   4.805   9.015 -4.1242  3.3526 -0.2276
   78MOL0     H10265   2.249   4.773   9.131 -1.5208 -0.1036 -1.0666
   78MOL0     H10266   2.132   4.630   8.956  1.5279 -2.1739  3.2187
   78MOL0     H10267   2.278   4.645   8.855 -0.8214 -0.2166  1.3189
   78MOL0     H10268   2.081   4.866   8.960  0.1729  0.7724  0.5538
   78MOL0     H10269   2.221   4.908   8.874  1.2347 -0.2854  3.9467
   78MOL0     H10270   2.019   4.699   8.774  0.1667  0.9374  0.9885
   78MOL0     H10271   2.149   4.770   8.678 -0.6997  2.1108 -1.3711
   78MOL0     H10272   2.041   4.993   8.724  0.3618  1.1895  0.5938
   78MOL0     H10273   1.894   4.899   8.751  0.4283  2.3142 -0.3629
   78MOL0     H10274   2.055   4.886   8.491  0.2541 -1.5378  0.4345
   78MOL0     H10275   1.893   4.800   8.514  1.5105 -1.0816  0.5042
   78MOL0     H10276   1.949   5.097   8.500  1.9187 -0.2494 -3.3932
   78MOL0     H10277   1.803   5.030   8.556 -2.3855  0.2034 -3.0697
   78MOL0     H10278   2.648   4.508   9.264 -5.7547  0.2516 -0.1955
   78MOL0     H10279   2.889   4.626   9.249  0.0191  1.6758 -0.9949
   78MOL0     H10280   3.079   5.068   9.172 -0.1969  0.2492 -0.4450
   78MOL0     H10281   3.294   5.174   9.120 -3.2127 -2.6089 -2.6530
   78MOL0     H10282   3.575   5.578   8.556  1.7657  1.9605  0.3852
   78MOL0     H10283   3.349   5.523   8.641 -3.6011  1.5986  2.8558
   78MOL0     H10284   2.942   5.768   8.811 -0.6976  0.4123  0.6796
   78MOL0     H10285   2.708   5.755   8.844 -0.7587  0.0553  0.9008
   78MOL0     H10286   2.496   5.721   8.902  1.6645  0.0170  0.3942
   78MOL0     H10287   2.382   5.584   8.900  0.1456 -1.0592 -0.4160
   78MOL0     H10288   2.378   5.690   8.702  1.3896  2.1036 -2.3441
   78MOL0     H10289   2.552   5.669   8.666 -0.1822 -1.8115 -1.7655
   78MOL0     H10290   2.507   5.413   8.688 -0.7759 -0.5498 -0.5225
   78MOL0     H10291   2.444   5.496   8.542 -0.5358 -2.6481 -1.0500
   78MOL0     H10292   2.261   5.451   8.775  2.5798 -0.5373  1.0987
   78MOL0     H10293   2.217   5.506   8.611 -0.6420 -0.5289  1.5610
   78MOL0     H10294   2.264   5.088   8.558 -2.4547 -0.3350 -1.1635
   78MOL0     H10295   2.734   5.325   8.915  0.0060 -1.8289 -1.1351
   78MOL0     H10296   2.978   5.345   8.885  1.0067  0.5351 -1.9841
   79MOL0     O10297   6.555   9.532   5.373 -0.2339  0.1677 -0.2212
   79MOL0     C10298   6.582   9.646   5.334  0.2696  0.1883 -0.0545
   79MOL0     O10299   6.498   9.722   5.260  0.3290 -0.0036  0.3745
   79MOL0     C10300   6.366   9.672   5.249 -0.3394 -0.1384 -0.4212
   79MOL0     C10301   6.295   9.648   5.367 -0.2392  0.7261 -0.5969
   79MOL0     C10302   6.161   9.616   5.369 -0.5273  0.4421 -0.7850
   79MOL0     C10303   6.090   9.610   5.246 -0.5169  0.2091 -0.0769
   79MOL0     O10304   5.956   9.571   5.222 -0.3576 -0.7203 -0.0184
   79MOL0     C10305   5.902   9.501   5.332  1.0334 -0.2561  1.0971
   79MOL0     C10306   5.771   9.448   5.288 -0.2519 -0.4517 -0.0100
   79MOL0     C10307   5.781   9.379   5.151  1.2478 -0.1172  0.0468
   79MOL0     C10308   5.641   9.324   5.114 -0.2643 -0.1616  0.2211
   79MOL0     C10309   5.635   9.239   4.989 -1.2729 -1.3531 -0.5818
   79MOL0     C10310   5.512   9.151   4.959  0.4811  0.1163 -0.5888
   79MOL0     C10311   5.525   9.065   4.836  0.3550 -0.0200  0.5134
   79MOL0     C10312   5.612   8.950   4.864  0.1701 -0.4750 -0.3305
   79MOL0     N10313   5.639   8.867   4.752 -0.8185 -0.5732  0.5136
   79MOL0     C10314   5.676   8.735   4.773  0.3676 -0.0567  0.3675
   79MOL0     C10315   5.673   8.672   4.654 -0.1773 -0.7809  0.3184
   79MOL0     C10316   5.725   8.531   4.631 -0.5410 -0.1103 -0.9703
   79MOL0     C10317   5.879   8.540   4.633  0.8772 -0.1424 -0.3373
   79MOL0     C10318   5.938   8.401   4.617 -0.4265  0.2815  0.0842
   79MOL0     C10319   5.931   8.319   4.747  0.0582 -0.7888 -0.0934
   79MOL0     O10320   5.955   8.393   4.869  0.2738 -0.3195 -0.0144
   79MOL0     C10321   5.933   8.336   4.987  0.0032  0.5144 -0.1929
   79MOL0     C10322   5.878   8.207   5.011 -0.3509  0.6427 -0.0468
   79MOL0     C10323   5.855   8.159   5.137 -0.3846 -0.8264 -0.6156
   79MOL0     C10324   5.897   8.243   5.250 -0.8549  0.1723  0.5388
   79MOL0     C10325   5.876   8.201   5.391  0.9624 -0.2174 -0.6513
   79MOL0     O10326   5.772   8.121   5.417  0.6696 -0.2107  0.1538
   79MOL0     C10327   5.727   8.114   5.549 -0.8639  0.3092  0.3045
   79MOL0     C10328   5.699   7.981   5.598  0.8462 -0.8561  0.3009
   79MOL0     C10329   5.636   7.957   5.720 -0.7651  0.9494 -0.6552
   79MOL0     C10330   5.590   8.073   5.789 -0.1315 -0.7983 -0.2360
   79MOL0     O10331   5.525   8.079   5.906  0.1233  0.2674  0.0035
   79MOL0     C10332   5.446   7.965   5.943 -0.5442  0.7166 -1.1309
   79MOL0     C10333   5.327   7.999   6.035 -0.3474  0.1866 -0.0766
   79MOL0     C10334   5.199   8.057   5.971  0.6540 -0.3340  0.2048
   79MOL0     C10335   5.227   8.176   5.885  0.3584  0.5765  0.4752
   79MOL0     C10336   5.111   8.258   5.836  0.0742  0.0232 -0.8295
   79MOL0     C10337   5.032   8.321   5.952  0.4338  0.2230 -0.3944
   79MOL0     C10338   4.920   8.423   5.925  0.6383 -1.0800 -0.5559
   79MOL0     C10339   4.809   8.380   5.834  0.1925 -1.1241 -0.5425
   79MOL0    Cl10340   4.760   8.222   5.892 -0.1913 -0.1543  0.1384
   79MOL0     C10341   5.613   8.204   5.741  0.4192 -0.5072 -0.7825
   79MOL0     C10342   5.668   8.221   5.615  0.0530  0.1633 -0.2550
   79MOL0     O10343   5.941   8.269   5.476 -0.1794  0.2252 -0.4498
   79MOL0     C10344   5.945   8.366   5.223 -0.2523 -0.1290  0.5817
   79MOL0     C10345   5.965   8.415   5.092 -0.3253 -0.1984  0.1271
   79MOL0     N10346   5.640   8.762   4.551 -0.3593 -0.0185 -0.5321
   79MOL0     N10347   5.620   8.878   4.609 -0.7239 -0.3119 -0.9678
   79MOL0     C10348   6.151   9.636   5.130 -1.0447 -0.3128 -0.3798
   79MOL0     C10349   6.286   9.675   5.130  0.2541 -0.0437 -0.2482
   79MOL0     C10350   6.718   9.701   5.358  0.8268  1.0054 -0.8562
   79MOL0     C10351   6.774   9.809   5.292  0.5191 -0.7981 -1.1402
   79MOL0     C10352   6.900   9.863   5.320  0.0095 -0.1097 -0.0257
   79MOL0     C10353   6.981   9.800   5.408 -0.0830  0.2282 -0.0016
   79MOL0     O10354   7.109   9.834   5.447  0.0675 -0.3850 -0.7067
   79MOL0     C10355   7.166   9.956   5.404  0.1008  0.4020  0.1602
   79MOL0     C10356   7.306   9.961   5.462  0.6223 -0.2339  0.2981
   79MOL0     C10357   7.379   9.829   5.452 -0.8900 -0.7654 -0.4639
   79MOL0     C10358   7.530   9.844   5.448  0.8089  0.2419 -0.2094
   79MOL0     C10359   7.576   9.878   5.586 -0.6921  0.3467  0.5432
   79MOL0     C10360   7.626   9.900   5.696  0.1854 -0.3938 -0.3406
   79MOL0     C10361   6.936   9.688   5.474  0.4334 -1.0562  0.2281
   79MOL0     C10362   6.808   9.638   5.457  0.4020 -0.3264  0.6366
   79MOL0     H10363   6.345   9.661   5.463  1.5047 -0.2616 -1.3251
   79MOL0     H10364   6.110   9.586   5.460 -1.8394  1.5814 -1.1169
   79MOL0     H10365   5.892   9.566   5.419  2.2941 -0.4555  1.4120
   79MOL0     H10366   5.964   9.414   5.350  1.0972 -0.4748 -0.0824
   79MOL0     H10367   5.710   9.539   5.283 -0.5087 -0.3847  2.9302
   79MOL0     H10368   5.735   9.375   5.361 -1.6410 -2.3155 -2.3714
   79MOL0     H10369   5.848   9.293   5.157  2.1274  0.5251 -0.3918
   79MOL0     H10370   5.816   9.448   5.074 -1.0070 -0.6094 -1.5149
   79MOL0     H10371   5.605   9.265   5.198  0.9613 -0.3288  0.6471
   79MOL0     H10372   5.573   9.409   5.105 -1.4595 -1.0784  0.3584
   79MOL0     H10373   5.715   9.165   5.004 -1.4255 -1.5936 -0.9371
   79MOL0     H10374   5.645   9.316   4.912 -2.5846 -1.7494 -1.1760
   79MOL0     H10375   5.423   9.214   4.948  1.3249  1.2146 -1.3616
   79MOL0     H10376   5.490   9.092   5.048 -3.1190 -0.2488 -1.5752
   79MOL0     H10377   5.428   9.029   4.801 -0.6877  2.0933  1.0517
   79MOL0     H10378   5.572   9.115   4.751  3.0467  0.7559  2.3158
   79MOL0     H10379   5.555   8.888   4.933  1.7540  1.5312  3.0456
   79MOL0     H10380   5.708   8.987   4.903 -1.1716  0.9907  1.8004
   79MOL0     H10381   5.719   8.686   4.859 -0.3882 -0.4771  0.5097
   79MOL0     H10382   5.678   8.482   4.545 -0.0556  0.3481 -1.5036
   79MOL0     H10383   5.694   8.479   4.722  0.5361 -0.4092 -0.7634
   79MOL0     H10384   5.916   8.591   4.723 -0.3715 -0.4719  0.3920
   79MOL0     H10385   5.905   8.607   4.551  0.0816  2.0798  1.1277
   79MOL0     H10386   5.883   8.347   4.540  0.5773 -1.0385  0.2517
   79MOL0     H10387   6.045   8.405   4.595  0.4776 -0.5068  3.5860
   79MOL0     H10388   5.998   8.233   4.735 -0.1718 -0.7885 -1.5006
   79MOL0     H10389   5.829   8.280   4.746 -0.8883  1.5431  0.5514
   79MOL0     H10390   5.843   8.143   4.930  0.0661 -0.2447  0.4549
   79MOL0     H10391   5.805   8.067   5.163 -0.4632 -0.0889  2.1663
   79MOL0     H10392   5.746   7.894   5.552 -0.7230 -1.6469  0.1239
   79MOL0     H10393   5.614   7.862   5.767 -1.1123  0.4876 -1.7230
   79MOL0     H10394   5.503   7.897   6.007 -1.6361  0.6213 -0.2158
   79MOL0     H10395   5.413   7.905   5.858  1.8606  0.5676 -2.0110
   79MOL0     H10396   5.357   8.066   6.115 -0.2588 -2.3113  2.1268
   79MOL0     H10397   5.303   7.903   6.082  0.6486 -1.5341 -2.7586
   79MOL0     H10398   5.130   8.078   6.053 -0.9569 -2.0932 -0.6258
   79MOL0     H10399   5.145   7.992   5.902  2.9118 -1.7702 -0.3232
   79MOL0     H10400   5.298   8.239   5.939  3.7135 -0.3417 -2.4603
   79MOL0     H10401   5.283   8.144   5.797 -3.0242  0.5074 -1.8623
   79MOL0     H10402   5.038   8.197   5.781 -2.1224  1.0421  0.8320
   79MOL0     H10403   5.149   8.330   5.763  0.4694  0.1423 -0.5040
   79MOL0     H10404   5.100   8.368   6.024 -0.2944 -0.4874  0.7797
   79MOL0     H10405   4.989   8.241   6.012  1.2021 -0.7949 -1.1686
   79MOL0     H10406   4.864   8.429   6.018 -0.0236 -0.7507 -0.9714
   79MOL0     H10407   4.964   8.521   5.902  1.3833 -0.9823  1.1562
   79MOL0     H10408   4.854   8.378   5.734 -0.6537  2.4509 -1.1204
   79MOL0     H10409   4.726   8.451   5.832 -0.1948 -1.5138  0.9021
   79MOL0     H10410   5.578   8.289   5.798 -1.1164 -0.8057 -1.2357
   79MOL0     H10411   5.670   8.322   5.576 -2.3000 -0.0042 -0.9636
   79MOL0     H10412   5.966   8.445   5.295 -0.0517  0.9480 -0.6170
   79MOL0     H10413   5.996   8.517   5.068 -0.7726  0.5427  2.4456
   79MOL0     H10414   6.100   9.642   5.034 -3.4083 -2.2210  0.6491
   79MOL0     H10415   6.334   9.696   5.035 -1.9871  2.4957 -0.9187
   79MOL0     H10416   6.717   9.867   5.220  0.3605  2.2802  1.2682
   79MOL0     H10417   6.937   9.957   5.282 -0.0702  0.1081  0.4243
   79MOL0     H10418   7.109  10.035   5.454  0.9982  0.1058  1.7161
   79MOL0     H10419   7.158   9.961   5.295 -1.2167  2.1650  0.2957
   79MOL0     H10420   7.358  10.041   5.407  1.1370 -0.5593  0.3054
   79MOL0     H10421   7.292   9.986   5.567  2.6477 -0.3727  0.6338
   79MOL0     H10422   7.348   9.770   5.365  1.5778 -0.2882 -1.7796
   79MOL0     H10423   7.346   9.777   5.543  0.7969  0.5304  0.9733
   79MOL0     H10424   7.577   9.749   5.419  3.3106  0.8029  1.5646
   79MOL0     H10425   7.564   9.919   5.376 -0.4462  0.6389 -0.4048
   79MOL0     H10426   7.678   9.922   5.788 -1.0884  1.8482 -0.0993
   79MOL0     H10427   7.016   9.638   5.528  0.6194 -1.8419 -0.7632
   79MOL0     H10428   6.784   9.551   5.518 -2.2033  0.4747  0.8714
   80MOL0     O10429   9.024   0.456  10.592 -0.4582 -0.5192  0.2484
   80MOL0     C10430   9.034   0.442  10.468  0.5841  1.9223 -0.3763
   80MOL0     O10431   8.926   0.414  10.384 -0.3110  0.5971 -0.6208
   80MOL0     C10432   8.800   0.408  10.431 -0.1263  0.3180  0.5852
   80MOL0     C10433   8.740   0.525  10.461  0.8286 -0.2024 -0.6822
   80MOL0     C10434   8.608   0.518  10.515  0.0452 -0.0388 -1.3549
   80MOL0     C10435   8.546   0.385  10.533 -0.2319  0.1469 -0.4739
   80MOL0     O10436   8.418   0.347  10.583 -0.4504  0.0360 -0.8701
   80MOL0     C10437   8.368   0.437  10.687  0.6928  0.1152 -0.7146
   80MOL0     C10438   8.229   0.382  10.742 -0.4207  0.0353  0.0974
   80MOL0     C10439   8.182   0.464  10.861 -0.6419  0.8757 -0.4377
   80MOL0     C10440   8.043   0.408  10.927 -0.0549 -0.4969  0.5599
   80MOL0     C10441   7.987   0.522  11.011  0.3459 -0.8416  1.0231
   80MOL0     C10442   7.874   0.466  11.094  0.9340 -0.1925  0.3847
   80MOL0     C10443   7.922   0.380  11.207 -0.4561  0.4545 -0.6939
   80MOL0     C10444   7.818   0.288  11.272  0.1511  0.4934  0.3699
   80MOL0     N10445   7.697   0.361  11.301  0.7649  1.1759  0.4038
   80MOL0     C10446   7.679   0.484  11.372  0.7973  0.5049  1.0877
   80MOL0     C10447   7.547   0.484  11.379 -0.0307 -0.6250  0.0252
   80MOL0     C10448   7.463   0.590  11.443 -0.7246 -0.4516  0.3812
   80MOL0     C10449   7.434   0.541  11.588 -0.3637  0.3374 -0.7940
   80MOL0     C10450   7.368   0.638  11.683 -0.1730 -0.4473  0.2332
   80MOL0     C10451   7.266   0.739  11.620 -0.5651 -0.5000  0.0663
   80MOL0     O10452   7.178   0.767  11.731  0.2080 -0.4425 -0.5764
   80MOL0     C10453   7.074   0.684  11.759 -1.0685  0.2141  0.4325
   80MOL0     C10454   6.988   0.717  11.863 -0.3504 -0.7033 -0.9038
   80MOL0     C10455   6.885   0.632  11.903 -0.3176 -0.3278  0.3629
   80MOL0     C10456   6.854   0.508  11.843 -0.0615  0.1606 -0.0080
   80MOL0     C10457   6.730   0.441  11.873  0.1362  0.3348 -0.3582
   80MOL0     O10458   6.630   0.510  11.933 -0.4341  0.0609  0.5329
   80MOL0     C10459   6.524   0.449  11.991  0.6948 -0.0705  0.8957
   80MOL0     C10460   6.439   0.357  11.935  0.7672  0.9834  0.8712
   80MOL0     C10461   6.331   0.303  12.004  1.5429  0.2823 -0.7398
   80MOL0     C10462   6.286   0.370  12.122  0.1912 -0.6330  1.2625
   80MOL0     O10463   6.172   0.340  12.197  0.4391  0.2496  0.9326
   80MOL0     C10464   6.067   0.248  12.144 -0.3077 -1.0913  0.1338
   80MOL0     C10465   5.990   0.310  12.022  0.0264  0.1260  0.3925
   80MOL0     C10466   5.914   0.205  11.948 -0.0274  0.5970  0.1180
   80MOL0     C10467   5.855   0.252  11.815 -0.9855 -0.6079 -0.1661
   80MOL0     C10468   5.735   0.349  11.828 -0.0873 -0.1017  0.3749
   80MOL0     C10469   5.599   0.280  11.867 -1.1978  0.3543  0.3597
   80MOL0     C10470   5.481   0.379  11.853 -0.5653  0.0458 -0.6551
   80MOL0     C10471   5.358   0.307  11.894  0.6950  0.5791 -0.2938
   80MOL0    Cl10472   5.336   0.160  11.792 -0.5502  0.2366 -0.0825
   80MOL0     C10473   6.368   0.475  12.180  0.3677  0.8326  0.1147
   80MOL0     C10474   6.484   0.507  12.113  0.9192 -0.1901  0.2853
   80MOL0     O10475   6.721   0.322  11.841  0.3332 -0.1597  0.3099
   80MOL0     C10476   6.942   0.479  11.737 -0.7592 -0.2823 -0.0556
   80MOL0     C10477   7.049   0.558  11.697  0.7178 -0.0984 -0.6441
   80MOL0     N10478   7.490   0.372  11.324  0.1521  0.5153 -0.1781
   80MOL0     N10479   7.581   0.303  11.276 -0.4675 -0.1358 -0.0103
   80MOL0     C10480   8.624   0.269  10.504  0.0196 -0.1455 -0.6174
   80MOL0     C10481   8.754   0.285  10.462 -0.1957 -0.2396 -0.7411
   80MOL0     C10482   9.162   0.444  10.398 -0.1231  0.8266  0.2171
   80MOL0     C10483   9.278   0.413  10.472 -0.2716 -0.1107 -0.2317
   80MOL0     C10484   9.401   0.410  10.411 -0.4628 -0.4381  0.3511
   80MOL0     C10485   9.414   0.449  10.278 -0.2869 -0.4767 -0.6255
   80MOL0     O10486   9.535   0.446  10.208  0.5176 -0.1506  0.0632
   80MOL0     C10487   9.653   0.394  10.269  0.4468 -0.5432 -0.0935
   80MOL0     C10488   9.768   0.422  10.182 -1.2857 -0.4237  0.3902
   80MOL0     C10489   9.901   0.380  10.253  0.3101 -0.1253 -0.5340
   80MOL0     C10490  10.009   0.306  10.180  0.9669  0.6689  0.6353
   80MOL0     C10491  10.131   0.301  10.264  0.5337  0.0425 -0.4074
   80MOL0     C10492  10.238   0.305  10.321 -0.0257  0.1839  0.0817
   80MOL0     C10493   9.300   0.482  10.208 -0.6031  0.2605  0.2266
   80MOL0     C10494   9.179   0.478  10.263  1.1645  0.1186 -0.3009
   80MOL0     H10495   8.784   0.621  10.437  2.7895 -1.5174 -2.7876
   80MOL0     H10496   8.554   0.610  10.537  0.0035 -0.6032  1.2380
   80MOL0     H10497   8.357   0.542  10.657  2.9131  0.4301 -0.5841
   80MOL0     H10498   8.436   0.437  10.773 -1.9306  1.8403  1.5238
   80MOL0     H10499   8.245   0.278  10.773 -0.4325 -0.0650 -0.2365
   80MOL0     H10500   8.153   0.387  10.663  0.3845 -0.0049 -0.6894
   80MOL0     H10501   8.170   0.568  10.829 -0.3821  0.3623 -2.3236
   80MOL0     H10502   8.263   0.463  10.934 -0.1321 -1.8364 -0.9410
   80MOL0     H10503   7.967   0.380  10.854 -0.0952 -0.3989  0.5647
   80MOL0     H10504   8.079   0.319  10.979 -1.1115 -0.4862  1.3497
   80MOL0     H10505   7.957   0.606  10.949  2.1822 -0.8233  0.1006
   80MOL0     H10506   8.060   0.556  11.086 -0.2550 -0.5958  1.5062
   80MOL0     H10507   7.799   0.417  11.031  2.0271  0.5857 -1.5893
   80MOL0     H10508   7.833   0.560  11.133  1.6242 -0.4409  1.7918
   80MOL0     H10509   8.009   0.319  11.179 -0.5857 -0.2752  0.4235
   80MOL0     H10510   7.959   0.451  11.281  1.1037 -0.9461 -0.0596
   80MOL0     H10511   7.848   0.231  11.360  0.0374 -0.3736 -0.1378
   80MOL0     H10512   7.793   0.216  11.194  0.8867  2.0869 -1.4039
   80MOL0     H10513   7.756   0.556  11.400  2.6494  0.4075 -2.9679
   80MOL0     H10514   7.368   0.599  11.391 -0.4952  3.4909  0.3810
   80MOL0     H10515   7.520   0.683  11.438 -0.8230 -0.4447 -1.7424
   80MOL0     H10516   7.528   0.508  11.633 -1.6604 -0.7150  1.3398
   80MOL0     H10517   7.374   0.450  11.580  1.3506 -0.7099 -2.8117
   80MOL0     H10518   7.313   0.573  11.751 -2.3295  1.5258  0.4997
   80MOL0     H10519   7.442   0.696  11.739  1.1203 -0.5169 -1.3402
   80MOL0     H10520   7.209   0.694  11.539 -0.1417  0.5636 -0.8602
   80MOL0     H10521   7.310   0.830  11.579 -0.5515 -0.7285 -0.4332
   80MOL0     H10522   7.008   0.815  11.906  0.5269 -1.5196  0.6804
   80MOL0     H10523   6.827   0.680  11.982  1.9928  1.7286  0.9453
   80MOL0     H10524   6.443   0.320  11.833 -0.1265 -0.4820  1.3207
   80MOL0     H10525   6.261   0.230  11.965  2.6447  0.2357 -2.7351
   80MOL0     H10526   5.990   0.233  12.221  0.6860  0.0208  1.4168
   80MOL0     H10527   6.102   0.148  12.118 -1.9761 -2.0861  1.5247
   80MOL0     H10528   6.064   0.346  11.949  1.4849 -0.3259  1.5946
   80MOL0     H10529   5.922   0.392  12.046  2.9814  2.5156  1.3080
   80MOL0     H10530   5.839   0.163  12.016 -1.5132  0.2667 -1.6385
   80MOL0     H10531   5.971   0.116  11.918 -2.9372 -0.4837 -2.8292
   80MOL0     H10532   5.929   0.317  11.767 -1.3424  0.6676  0.9249
   80MOL0     H10533   5.837   0.169  11.747 -0.8247 -0.4260 -0.4307
   80MOL0     H10534   5.712   0.391  11.730 -1.1915  2.8258  1.7777
   80MOL0     H10535   5.749   0.426  11.904 -1.4820 -0.5965  1.1702
   80MOL0     H10536   5.620   0.259  11.973  0.4844  0.7659  0.1463
   80MOL0     H10537   5.588   0.192  11.804  1.1613  0.6442 -0.5531
   80MOL0     H10538   5.497   0.467  11.916 -0.3078  0.7220 -1.6213
   80MOL0     H10539   5.460   0.412  11.751 -1.0224  2.7654  0.2341
   80MOL0     H10540   5.274   0.377  11.895  1.0909  1.0908  1.3212
   80MOL0     H10541   5.353   0.284  12.001  1.8690 -1.8569 -0.6950
   80MOL0     H10542   6.327   0.509  12.274 -1.8883  4.7295 -2.0262
   80MOL0     H10543   6.552   0.579  12.158  2.0311 -1.0599  0.0516
   80MOL0     H10544   6.925   0.395  11.671  3.3851 -1.6060  0.2632
   80MOL0     H10545   7.104   0.526  11.609  1.0813 -1.0020 -0.0928
   80MOL0     H10546   8.584   0.170  10.524  1.2282 -0.4547  0.4298
   80MOL0     H10547   8.824   0.202  10.451  1.8760  1.1667  1.0387
   80MOL0     H10548   9.257   0.381  10.574  1.6257 -1.6674 -0.2629
   80MOL0     H10549   9.479   0.362  10.468  0.2604  0.2356 -0.0537
   80MOL0     H10550   9.656   0.285  10.274  0.4496 -0.6815 -2.1705
   80MOL0     H10551   9.660   0.435  10.370 -0.8146 -2.5842  0.8785
   80MOL0     H10552   9.772   0.360  10.091  1.3652 -1.3288  1.0212
   80MOL0     H10553   9.787   0.524  10.148  0.5598 -0.2144  1.8990
   80MOL0     H10554   9.866   0.320  10.337  0.9340  2.7123  1.9401
   80MOL0     H10555   9.948   0.471  10.291  3.3143  0.1861 -4.4220
   80MOL0     H10556   9.981   0.205  10.151  0.4378  1.2062 -0.8361
   80MOL0     H10557  10.038   0.354  10.086 -0.6116  0.0642 -0.1830
   80MOL0     H10558  10.332   0.321  10.370  0.6543 -0.5035 -0.9563
   80MOL0     H10559   9.306   0.510  10.104  2.9687 -1.8080 -0.2715
   80MOL0     H10560   9.093   0.503  10.203  0.7453  0.3669  0.3873
   81MOL0     O10561   6.300   5.159   3.685 -0.0435  0.1114 -0.3729
   81MOL0     C10562   6.299   5.282   3.712  1.5156 -0.1885 -0.6416
   81MOL0     O10563   6.194   5.363   3.690 -0.0014 -0.0883 -0.5793
   81MOL0     C10564   6.064   5.324   3.690  0.5654  0.3082  0.1586
   81MOL0     C10565   6.014   5.203   3.754  0.3055  0.1009  0.6712
   81MOL0     C10566   5.874   5.173   3.730 -0.1065  0.5965  0.3655
   81MOL0     C10567   5.793   5.261   3.669 -0.0933  0.8429 -0.2732
   81MOL0     O10568   5.653   5.228   3.663 -0.7997 -0.4222  0.0155
   81MOL0     C10569   5.563   5.311   3.603 -0.2590 -0.4417 -0.0440
   81MOL0     C10570   5.436   5.237   3.590  0.7545  0.1318 -0.3894
   81MOL0     C10571   5.327   5.267   3.697 -0.1696  0.1585 -0.2612
   81MOL0     C10572   5.178   5.221   3.675 -0.3386  0.1713  0.4871
   81MOL0     C10573   5.071   5.277   3.779 -1.3085 -0.5426 -0.3408
   81MOL0     C10574   4.947   5.188   3.775 -0.0377  0.2029  0.1044
   81MOL0     C10575   4.857   5.203   3.893 -0.4133 -0.5443 -0.1903
   81MOL0     C10576   4.729   5.110   3.887  0.2282 -0.5438 -0.2354
   81MOL0     N10577   4.632   5.143   3.775 -0.0909  0.2636 -0.0947
   81MOL0     C10578   4.659   5.089   3.652 -0.2818  0.3010  0.5423
   81MOL0     C10579   4.555   5.139   3.576  0.5337  0.3154  0.4161
   81MOL0     C10580   4.546   5.097   3.427  0.0030 -0.2738 -0.6223
   81MOL0     C10581   4.426   5.014   3.391  0.0158  0.9822 -0.0365
   81MOL0     C10582   4.429   4.885   3.471  0.4700 -0.0390  0.5468
   81MOL0     C10583   4.291   4.817   3.449  0.3862 -0.1872 -0.4106
   81MOL0     O10584   4.292   4.688   3.504 -0.2494 -0.4304 -0.7404
   81MOL0     C10585   4.181   4.612   3.489  0.6215  0.6299  1.7926
   81MOL0     C10586   4.057   4.657   3.434 -0.0079  0.0249  0.1603
   81MOL0     C10587   3.938   4.587   3.448 -0.6550  0.2379 -0.2488
   81MOL0     C10588   3.948   4.458   3.496  0.2139 -0.4028  0.4359
   81MOL0     C10589   3.822   4.371   3.512 -0.5423 -0.2330  0.2059
   81MOL0     O10590   3.704   4.422   3.453 -0.0983  0.5079 -0.0462
   81MOL0     C10591   3.598   4.332   3.463 -0.0554  0.1377 -0.2788
   81MOL0     C10592   3.611   4.203   3.421  0.0465 -0.6509  0.6562
   81MOL0     C10593   3.501   4.120   3.401 -0.0382  0.1343  0.6064
   81MOL0     C10594   3.373   4.159   3.454 -0.6976  0.0021 -0.1375
   81MOL0     O10595   3.267   4.069   3.443 -0.5278  0.0583  0.2769
   81MOL0     C10596   3.161   4.080   3.534  0.3184  0.1986 -0.7102
   81MOL0     C10597   3.049   4.162   3.479  0.4467  0.7430 -0.6357
   81MOL0     C10598   2.913   4.159   3.556 -0.3597 -0.2387 -0.6998
   81MOL0     C10599   2.791   4.195   3.463 -0.1360  1.0975 -0.4097
   81MOL0     C10600   2.787   4.344   3.444  0.4529 -0.1759  0.1663
   81MOL0     C10601   2.639   4.383   3.405  0.2768 -0.1811 -0.0545
   81MOL0     C10602   2.624   4.534   3.399 -0.0709 -0.8088 -0.2503
   81MOL0     C10603   2.725   4.627   3.320 -0.5960  0.2632 -0.2817
   81MOL0    Cl10604   2.772   4.555   3.168 -0.2742  0.2747  0.0106
   81MOL0     C10605   3.363   4.295   3.491  0.0407  0.3178  0.6212
   81MOL0     C10606   3.476   4.378   3.500 -0.1265  0.3715  0.3458
   81MOL0     O10607   3.832   4.278   3.586 -0.3160 -0.0670 -0.6027
   81MOL0     C10608   4.067   4.399   3.549  0.2079  0.5108 -1.2096
   81MOL0     C10609   4.184   4.482   3.557 -0.0664 -1.3572  0.2694
   81MOL0     N10610   4.476   5.223   3.652 -0.2133  0.1879 -0.3665
   81MOL0     N10611   4.524   5.221   3.770 -0.0998 -0.1418  0.0022
   81MOL0     C10612   5.837   5.379   3.620 -0.7784 -0.5986 -0.2509
   81MOL0     C10613   5.973   5.405   3.623  0.4182  0.1363  1.0065
   81MOL0     C10614   6.432   5.346   3.764  0.9344  1.0540  0.1148
   81MOL0     C10615   6.546   5.271   3.790  1.3697  0.3897 -0.8603
   81MOL0     C10616   6.661   5.335   3.830 -0.8976 -0.5750  0.0672
   81MOL0     C10617   6.670   5.475   3.842 -0.0265 -0.3382 -0.2759
   81MOL0     O10618   6.783   5.549   3.879  0.0934  0.2058  0.7233
   81MOL0     C10619   6.893   5.472   3.931 -0.1184 -0.2723 -0.7990
   81MOL0     C10620   7.020   5.556   3.963  0.0095 -0.4558  0.5635
   81MOL0     C10621   7.103   5.592   3.841 -0.6118  0.4218  0.8195
   81MOL0     C10622   7.037   5.720   3.786 -0.3714  0.1869  0.9918
   81MOL0     C10623   7.124   5.760   3.672  0.5136  0.1056 -0.1392
   81MOL0     C10624   7.175   5.785   3.565 -0.7294  0.2324  0.2499
   81MOL0     C10625   6.556   5.548   3.813  0.1762  0.3874 -0.4194
   81MOL0     C10626   6.438   5.483   3.777 -0.9393 -0.2621 -1.0885
   81MOL0     H10627   6.076   5.132   3.806 -0.5106 -1.3912 -0.3136
   81MOL0     H10628   5.836   5.086   3.782 -0.0876  0.5132  0.2416
   81MOL0     H10629   5.607   5.357   3.514  2.5002  0.1215  1.5095
   81MOL0     H10630   5.542   5.399   3.665  2.9845  0.7860 -0.4984
   81MOL0     H10631   5.464   5.131   3.589  1.7856  0.3969 -0.0779
   81MOL0     H10632   5.398   5.264   3.491 -2.7850  0.4089  0.8789
   81MOL0     H10633   5.318   5.376   3.706  3.3875  0.8644 -2.8727
   81MOL0     H10634   5.361   5.222   3.791  0.7661  2.2382  0.4518
   81MOL0     H10635   5.136   5.245   3.577  2.5977  0.1570 -0.8841
   81MOL0     H10636   5.172   5.114   3.699  2.5482 -0.1998 -0.0220
   81MOL0     H10637   5.048   5.384   3.768  0.2878 -0.3559 -2.7896
   81MOL0     H10638   5.113   5.262   3.879  0.9921 -1.1632 -1.3391
   81MOL0     H10639   4.978   5.083   3.777 -1.7510 -0.3202  1.3567
   81MOL0     H10640   4.901   5.220   3.681  0.7844 -1.5839 -0.9606
   81MOL0     H10641   4.918   5.182   3.982  1.0974 -2.9028 -1.6627
   81MOL0     H10642   4.825   5.307   3.899  2.0753  0.2842  0.1685
   81MOL0     H10643   4.676   5.120   3.982 -0.8597  0.7781 -0.9476
   81MOL0     H10644   4.761   5.006   3.875  0.3422 -0.2709 -3.0999
   81MOL0     H10645   4.736   5.016   3.627 -2.2456 -0.6889 -3.3810
   81MOL0     H10646   4.635   5.044   3.393  1.4150  0.9087  1.0029
   81MOL0     H10647   4.542   5.191   3.371  0.2635 -0.2475 -0.6015
   81MOL0     H10648   4.419   5.002   3.282 -1.7915  1.3105  0.0259
   81MOL0     H10649   4.337   5.066   3.426 -0.7388 -1.1288  1.3974
   81MOL0     H10650   4.515   4.827   3.436  0.3634  0.6733 -0.9523
   81MOL0     H10651   4.443   4.904   3.578 -1.0054 -4.7765  1.8149
   81MOL0     H10652   4.271   4.821   3.342 -0.5563  1.0783 -0.2130
   81MOL0     H10653   4.217   4.885   3.491  0.5350  0.8657 -1.7971
   81MOL0     H10654   4.042   4.760   3.403 -1.6622 -0.1838  0.1597
   81MOL0     H10655   3.846   4.640   3.423 -0.7304  1.2912  1.9830
   81MOL0     H10656   3.709   4.169   3.387 -0.3112 -0.0716 -1.0285
   81MOL0     H10657   3.519   4.021   3.359  2.6458  1.6611 -2.1388
   81MOL0     H10658   3.210   4.121   3.623  2.3967 -0.1901 -1.6435
   81MOL0     H10659   3.120   3.980   3.547  1.0447 -0.4344 -2.9462
   81MOL0     H10660   3.026   4.123   3.379 -0.6525  3.5780 -1.5662
   81MOL0     H10661   3.070   4.267   3.457  3.2102  0.7715  1.5850
   81MOL0     H10662   2.915   4.219   3.647 -1.3936 -0.3125 -0.6183
   81MOL0     H10663   2.904   4.060   3.600  3.4557 -1.0987 -1.5245
   81MOL0     H10664   2.808   4.142   3.369  2.6433 -0.2406  0.7269
   81MOL0     H10665   2.695   4.167   3.509 -0.0445  0.2543 -0.7108
   81MOL0     H10666   2.848   4.371   3.358  1.3393  0.1958  0.9027
   81MOL0     H10667   2.819   4.394   3.536  1.3883  1.4259 -0.9880
   81MOL0     H10668   2.562   4.342   3.471 -1.0303  1.1152 -0.7104
   81MOL0     H10669   2.612   4.340   3.308 -2.7322 -1.0887  1.0712
   81MOL0     H10670   2.521   4.555   3.368 -0.1595  0.6497  0.8818
   81MOL0     H10671   2.633   4.581   3.498 -0.3715  2.8692 -1.7992
   81MOL0     H10672   2.825   4.643   3.363 -0.2310  1.5085 -1.5156
   81MOL0     H10673   2.687   4.729   3.307  0.4852  0.4998 -1.8894
   81MOL0     H10674   3.270   4.341   3.523  0.9473  1.9636  0.9913
   81MOL0     H10675   3.479   4.483   3.528 -1.5428  0.1498  1.4566
   81MOL0     H10676   4.057   4.294   3.575 -1.4525  0.4016 -2.1493
   81MOL0     H10677   4.277   4.445   3.600 -1.9566 -0.5693  5.9225
   81MOL0     H10678   5.771   5.459   3.589 -1.6134 -0.7815  0.9948
   81MOL0     H10679   6.002   5.491   3.564 -0.1853 -1.0266 -1.0825
   81MOL0     H10680   6.542   5.163   3.777  0.5542  0.5405 -1.9921
   81MOL0     H10681   6.756   5.284   3.834  0.4259  1.4388 -2.6661
   81MOL0     H10682   6.932   5.390   3.869  2.3903 -3.4102  4.1890
   81MOL0     H10683   6.870   5.424   4.027 -0.3130  0.7845 -0.3093
   81MOL0     H10684   6.988   5.648   4.014 -0.0884  0.7817 -1.6029
   81MOL0     H10685   7.083   5.497   4.029  0.0771 -2.6191 -1.3174
   81MOL0     H10686   7.111   5.515   3.763 -1.5061  0.2987  0.8437
   81MOL0     H10687   7.204   5.607   3.881 -0.4416  1.9423 -0.1012
   81MOL0     H10688   6.937   5.710   3.742  1.1791  1.8376 -3.5922
   81MOL0     H10689   7.039   5.806   3.853  1.7681  2.9212 -2.2707
   81MOL0     H10690   7.215   5.800   3.467  2.7074  1.5477  1.6780
   81MOL0     H10691   6.556   5.655   3.830  2.3179  0.5121 -0.8985
   81MOL0     H10692   6.347   5.536   3.750 -0.0858  1.0029 -1.5677
   82MOL0     O10693   2.078   7.245   6.978 -0.4302 -0.5413 -0.3223
   82MOL0     C10694   2.071   7.130   7.008 -0.2196  0.8703 -0.7224
   82MOL0     O10695   1.961   7.058   7.029 -0.4822 -0.3247 -0.0236
   82MOL0     C10696   1.839   7.124   7.037 -0.2969  0.6984 -0.2009
   82MOL0     C10697   1.813   7.230   7.136 -0.1536  0.7752 -0.5521
   82MOL0     C10698   1.672   7.270   7.157  0.2010  0.1813  0.1884
   82MOL0     C10699   1.572   7.204   7.078  0.6683 -0.6827 -0.5091
   82MOL0     O10700   1.434   7.234   7.088  0.7627 -0.4764  0.0559
   82MOL0     C10701   1.387   7.333   7.166 -0.4065 -0.6027 -0.1250
   82MOL0     C10702   1.242   7.336   7.151  0.0080 -0.3531 -0.2845
   82MOL0     C10703   1.182   7.322   7.007 -0.6433  0.2939 -1.0025
   82MOL0     C10704   1.030   7.338   7.002 -0.6215  1.1459  0.2811
   82MOL0     C10705   0.983   7.292   6.866 -0.7968  0.4674  0.2635
   82MOL0     C10706   0.830   7.326   6.843 -0.9942  0.0814 -0.1689
   82MOL0     C10707   0.784   7.311   6.697  0.3951 -0.2997 -0.3725
   82MOL0     C10708   0.756   7.451   6.625  0.7809  0.3889 -0.9490
   82MOL0     N10709   0.632   7.515   6.671  0.5213  0.2259  0.0045
   82MOL0     C10710   0.523   7.517   6.592 -0.0661  0.1431 -0.1308
   82MOL0     C10711   0.437   7.608   6.647 -0.6418  0.0478 -0.9088
   82MOL0     C10712   0.302   7.639   6.597  0.7603  0.2810  0.2655
   82MOL0     C10713   0.198   7.599   6.703 -0.4590 -0.1001 -0.2367
   82MOL0     C10714   0.052   7.647   6.683  0.6494 -0.3330  0.4017
   82MOL0     C10715   0.032   7.795   6.683  0.2198 -0.2284 -0.3156
   82MOL0     O10716  -0.085   7.848   6.613  0.2578 -0.0571  0.7664
   82MOL0     C10717  -0.123   7.803   6.484  0.6690 -0.1130 -0.1701
   82MOL0     C10718  -0.020   7.777   6.399  0.2075 -0.0326 -0.6632
   82MOL0     C10719  -0.044   7.748   6.262 -0.2124  0.7786  0.2118
   82MOL0     C10720  -0.171   7.771   6.205  0.0214 -0.1611  0.0171
   82MOL0     C10721  -0.184   7.740   6.056  0.1339  0.1518 -0.7040
   82MOL0     O10722  -0.311   7.693   6.010  0.1403 -0.0437 -0.0685
   82MOL0     C10723  -0.319   7.651   5.881 -0.5312 -0.4243 -0.6472
   82MOL0     C10724  -0.264   7.526   5.850  0.6673  0.8780  0.0943
   82MOL0     C10725  -0.296   7.471   5.717 -0.6694  0.3671  0.0992
   82MOL0     C10726  -0.354   7.556   5.615  0.6152 -0.2297  0.5707
   82MOL0     O10727  -0.364   7.505   5.487 -0.1402  0.0954  0.3791
   82MOL0     C10728  -0.380   7.583   5.375  0.1225 -0.3939  0.5361
   82MOL0     C10729  -0.380   7.494   5.244  0.6707 -0.2589 -0.0397
   82MOL0     C10730  -0.274   7.389   5.226 -1.0318 -0.5808 -0.7632
   82MOL0     C10731  -0.300   7.303   5.114  0.4161 -0.3450 -1.1494
   82MOL0     C10732  -0.202   7.188   5.091 -0.0931  0.6090 -0.9107
   82MOL0     C10733  -0.209   7.115   4.952  0.1687  0.3037 -0.2561
   82MOL0     C10734  -0.135   6.977   4.955  0.0025 -0.0085 -0.6248
   82MOL0     C10735  -0.180   6.873   5.058  0.6520 -0.1648 -0.2272
   82MOL0    Cl10736  -0.176   6.707   4.982  0.3632  0.3008  0.7602
   82MOL0     C10737  -0.399   7.686   5.655 -0.8989  0.0138 -0.1022
   82MOL0     C10738  -0.392   7.724   5.788 -0.7766 -0.6643  0.1331
   82MOL0     O10739  -0.085   7.758   5.984  0.0377 -0.3233 -0.3651
   82MOL0     C10740  -0.276   7.795   6.298 -0.7798 -0.1636  0.5068
   82MOL0     C10741  -0.253   7.812   6.439  0.9603 -0.5392 -0.5802
   82MOL0     N10742   0.505   7.655   6.762  0.5352 -0.1235 -0.3802
   82MOL0     N10743   0.616   7.599   6.780  0.2920 -0.4535 -0.3055
   82MOL0     C10744   1.602   7.104   6.989  0.3859  0.6864  0.7582
   82MOL0     C10745   1.738   7.067   6.968 -0.0895  1.0955  0.2232
   82MOL0     C10746   2.191   7.044   7.025  0.1385  0.0157 -0.3378
   82MOL0     C10747   2.185   6.909   7.059 -0.0974 -0.2330 -0.4854
   82MOL0     C10748   2.301   6.829   7.052  0.3604 -0.1114  1.2515
   82MOL0     C10749   2.425   6.885   7.018 -0.4738  0.0493 -0.3291
   82MOL0     O10750   2.526   6.793   7.049 -0.3897 -0.4150 -0.1406
   82MOL0     C10751   2.656   6.830   7.017 -0.1409 -0.6759  0.4894
   82MOL0     C10752   2.756   6.744   7.094  0.2047  0.6653 -0.2807
   82MOL0     C10753   2.892   6.795   7.064  0.5510 -0.7490  0.6383
   82MOL0     C10754   3.003   6.730   7.154 -0.7554  0.4691 -0.2135
   82MOL0     C10755   3.011   6.585   7.139  0.3024  0.0037 -0.3932
   82MOL0     C10756   3.018   6.464   7.126 -0.1941  0.7219  0.8563
   82MOL0     C10757   2.434   7.026   6.990  0.3357 -0.2907 -0.5679
   82MOL0     C10758   2.318   7.104   6.995  0.0511  0.0163  0.5734
   82MOL0     H10759   1.896   7.261   7.198 -0.4972 -0.6657  0.7109
   82MOL0     H10760   1.646   7.339   7.236 -0.9588  0.6186 -0.5372
   82MOL0     H10761   1.437   7.425   7.135 -0.5239 -0.4152  0.2427
   82MOL0     H10762   1.425   7.317   7.267  2.1005 -0.5746 -1.0018
   82MOL0     H10763   1.217   7.430   7.200 -0.0731 -1.4785  1.9637
   82MOL0     H10764   1.196   7.259   7.214  0.6435 -1.1607 -0.7885
   82MOL0     H10765   1.209   7.221   6.976 -0.1131 -0.3782  1.4599
   82MOL0     H10766   1.237   7.398   6.950  1.7211 -0.3625  0.2934
   82MOL0     H10767   0.980   7.274   7.075  1.4183 -0.6479  0.2183
   82MOL0     H10768   1.010   7.444   7.021 -1.6133  0.9858  0.2057
   82MOL0     H10769   1.004   7.185   6.858 -0.5368  0.1842  3.3810
   82MOL0     H10770   1.044   7.338   6.788  0.1863 -0.0488  0.7077
   82MOL0     H10771   0.809   7.428   6.877  1.3684  0.1212  1.3636
   82MOL0     H10772   0.773   7.262   6.912 -0.9026 -0.2161 -0.3660
   82MOL0     H10773   0.867   7.267   6.641  3.0574  3.3706  0.2867
   82MOL0     H10774   0.703   7.239   6.687 -1.2762  1.6227 -1.4390
   82MOL0     H10775   0.746   7.422   6.520 -0.2355 -0.8393 -0.5390
   82MOL0     H10776   0.825   7.535   6.635 -1.1349  2.0654 -1.0519
   82MOL0     H10777   0.507   7.463   6.500  0.6324  2.5787 -1.7857
   82MOL0     H10778   0.293   7.587   6.501 -0.8377 -1.4415  1.2834
   82MOL0     H10779   0.311   7.745   6.572  0.6749 -0.2906 -2.5950
   82MOL0     H10780   0.236   7.635   6.799  0.1866 -1.4288  0.0264
   82MOL0     H10781   0.198   7.492   6.726  0.3995  0.0152  0.3250
   82MOL0     H10782   0.029   7.603   6.585  1.8773 -1.6686  0.6654
   82MOL0     H10783  -0.008   7.594   6.758  3.3479 -4.8179 -0.2434
   82MOL0     H10784   0.119   7.850   6.645 -0.8102 -0.1012 -2.6549
   82MOL0     H10785   0.011   7.832   6.784 -0.2727  2.1156 -1.1896
   82MOL0     H10786   0.082   7.755   6.429  1.2520  3.3274 -1.3126
   82MOL0     H10787   0.026   7.684   6.209  0.1498 -0.2420  1.8600
   82MOL0     H10788  -0.213   7.458   5.918  0.0163  0.6286  0.3421
   82MOL0     H10789  -0.265   7.368   5.697 -1.5940 -0.0310  0.6549
   82MOL0     H10790  -0.309   7.664   5.357  2.3217 -2.2747  0.2921
   82MOL0     H10791  -0.478   7.631   5.386 -0.7439 -1.9443 -0.0919
   82MOL0     H10792  -0.379   7.573   5.168 -1.0303  1.0115  1.1866
   82MOL0     H10793  -0.477   7.445   5.230  1.5955 -1.7880 -1.5008
   82MOL0     H10794  -0.278   7.328   5.317 -0.5265 -0.2557 -0.5124
   82MOL0     H10795  -0.175   7.436   5.221 -1.1855 -0.3833 -2.2050
   82MOL0     H10796  -0.399   7.257   5.120  1.0229 -1.5315  2.5113
   82MOL0     H10797  -0.290   7.366   5.026 -1.2474 -0.4464 -1.4442
   82MOL0     H10798  -0.232   7.115   5.167  1.1551 -1.9530 -2.7177
   82MOL0     H10799  -0.097   7.211   5.108 -0.1917 -0.6596  2.1046
   82MOL0     H10800  -0.159   7.176   4.876  1.6804  0.3031  0.6912
   82MOL0     H10801  -0.313   7.108   4.920 -0.1894  1.8802  0.4859
   82MOL0     H10802  -0.129   6.920   4.862 -0.3466 -2.2731  0.6653
   82MOL0     H10803  -0.030   6.999   4.975 -0.0073  0.9749 -1.5584
   82MOL0     H10804  -0.279   6.906   5.091  1.8625  3.5408  0.2096
   82MOL0     H10805  -0.115   6.871   5.146  0.7073  0.7202 -0.2346
   82MOL0     H10806  -0.443   7.757   5.586  1.5584  3.2676  1.4158
   82MOL0     H10807  -0.424   7.824   5.816  1.0311  0.1594 -0.5878
   82MOL0     H10808  -0.377   7.798   6.259  0.6385 -0.3691 -3.7107
   82MOL0     H10809  -0.333   7.848   6.503  0.2575 -1.8818 -0.6761
   82MOL0     H10810   1.514   7.054   6.950  0.3007  3.4844 -3.2439
   82MOL0     H10811   1.768   6.990   6.898 -1.0532  0.7040  0.2241
   82MOL0     H10812   2.094   6.859   7.091  0.6663 -2.3171 -1.4032
   82MOL0     H10813   2.298   6.723   7.077  1.7535  0.5279  4.5116
   82MOL0     H10814   2.676   6.935   7.039  2.9220 -1.0184 -0.1706
   82MOL0     H10815   2.665   6.820   6.908  0.2913 -1.6427  0.5984
   82MOL0     H10816   2.730   6.756   7.200  0.2900 -3.4892  0.3729
   82MOL0     H10817   2.758   6.639   7.063  1.5902  0.5972 -0.0374
   82MOL0     H10818   2.889   6.905   7.063  0.0852 -0.7626  0.1133
   82MOL0     H10819   2.921   6.772   6.961  2.4102  0.2675  0.8866
   82MOL0     H10820   3.094   6.780   7.120  0.5116 -0.9412  0.9685
   82MOL0     H10821   2.986   6.751   7.260 -1.2261 -2.2795  0.3266
   82MOL0     H10822   3.006   6.359   7.110 -0.1903  1.0947 -2.3562
   82MOL0     H10823   2.523   7.085   6.967 -0.6421  1.5615  0.2371
   82MOL0     H10824   2.321   7.208   6.965 -1.1679  1.1411  3.8454
   83MOL0     O10825  10.724  10.731   2.355 -0.4028 -0.6525  0.4684
   83MOL0     C10826  10.831  10.760   2.408 -0.0602 -0.2166  0.5384
   83MOL0     O10827  10.851  10.867   2.489  0.2231  0.0812 -0.1775
   83MOL0     C10828  10.735  10.907   2.547 -0.5303 -0.1302  0.1069
   83MOL0     C10829  10.707  11.042   2.537 -0.0191 -1.0154  0.1529
   83MOL0     C10830  10.604  11.106   2.599  0.0749  0.1684  0.0728
   83MOL0     C10831  10.511  11.024   2.669  0.3900 -0.5972  0.2948
   83MOL0     O10832  10.400  11.084   2.721  0.1796 -0.7203 -0.1519
   83MOL0     C10833  10.294  11.085   2.617  0.6210  0.3059 -0.6989
   83MOL0     C10834  10.154  11.081   2.672  0.1594 -0.5282 -0.1065
   83MOL0     C10835  10.111  11.224   2.717  0.3795  0.8023 -0.2339
   83MOL0     C10836   9.988  11.204   2.805  0.3613 -0.4191  0.0834
   83MOL0     C10837   9.850  11.251   2.740 -0.2843 -0.4945  0.0625
   83MOL0     C10838   9.751  11.278   2.861  0.3505 -0.1504  0.8625
   83MOL0     C10839   9.613  11.313   2.792 -0.6689 -0.4531 -0.5287
   83MOL0     C10840   9.611  11.465   2.758 -0.2663 -0.3814 -0.4924
   83MOL0     N10841   9.475  11.505   2.721 -0.2678  0.1604  0.1806
   83MOL0     C10842   9.417  11.567   2.609  0.3381  0.4705 -0.0566
   83MOL0     C10843   9.273  11.562   2.625  0.2899  0.5593 -0.2618
   83MOL0     C10844   9.176  11.625   2.531  0.0973  0.5074  0.4520
   83MOL0     C10845   9.027  11.614   2.569 -0.0921  0.0324 -0.8412
   83MOL0     C10846   8.939  11.669   2.458 -0.4359  0.5448 -0.1615
   83MOL0     C10847   8.794  11.625   2.471  1.0327 -0.2284  1.0432
   83MOL0     O10848   8.721  11.670   2.354  0.4245  0.4176 -0.5333
   83MOL0     C10849   8.587  11.633   2.351  0.9105 -0.2518 -0.1693
   83MOL0     C10850   8.526  11.563   2.457  0.2418 -0.4394  0.2630
   83MOL0     C10851   8.381  11.551   2.460 -0.0010  0.5597  0.0098
   83MOL0     C10852   8.306  11.587   2.354  0.5167  0.1243  0.2348
   83MOL0     C10853   8.160  11.542   2.357 -0.2515 -1.0498  0.0067
   83MOL0     O10854   8.083  11.579   2.246 -0.2269  0.1118  0.6224
   83MOL0     C10855   7.948  11.548   2.243  0.3708 -0.0272  0.2492
   83MOL0     C10856   7.875  11.653   2.174  0.8530  0.1409  0.0251
   83MOL0     C10857   7.738  11.653   2.159 -0.3559 -0.2804  0.0545
   83MOL0     C10858   7.667  11.542   2.203  0.3466 -0.2678  0.1201
   83MOL0     O10859   7.527  11.525   2.188  0.4848 -0.1436 -0.0243
   83MOL0     C10860   7.442  11.466   2.285 -0.4920  0.3365 -0.6341
   83MOL0     C10861   7.298  11.482   2.250 -0.3831  0.0428  0.0948
   83MOL0     C10862   7.221  11.369   2.322 -0.4184 -0.3996  0.0977
   83MOL0     C10863   7.068  11.390   2.300  0.6686 -0.3758 -0.9245
   83MOL0     C10864   6.978  11.324   2.398  0.0643  0.8320 -0.3347
   83MOL0     C10865   6.843  11.391   2.389  0.1026  0.7943 -0.6619
   83MOL0     C10866   6.745  11.323   2.482 -0.2723  0.0583  0.8008
   83MOL0     C10867   6.619  11.392   2.453 -0.3490  0.1715  0.4649
   83MOL0    Cl10868   6.491  11.340   2.553  0.5171  0.2915  0.3305
   83MOL0     C10869   7.743  11.446   2.286  0.2629 -0.3380 -0.6812
   83MOL0     C10870   7.879  11.445   2.302  0.7183 -1.3004  0.2743
   83MOL0     O10871   8.123  11.465   2.449 -0.3547  0.1675 -0.1917
   83MOL0     C10872   8.367  11.647   2.249 -0.1431 -0.3293  0.0072
   83MOL0     C10873   8.506  11.676   2.246  0.0377  0.2472 -0.2791
   83MOL0     N10874   9.246  11.490   2.738 -0.5131 -0.3945  0.8464
   83MOL0     N10875   9.362  11.454   2.786  0.4734  0.5247 -0.2324
   83MOL0     C10876  10.534  10.882   2.674  0.9273 -1.7885  0.7463
   83MOL0     C10877  10.649  10.831   2.618 -0.3711  0.2286 -0.0820
   83MOL0     C10878  10.947  10.690   2.362 -0.1859  0.7989 -0.2184
   83MOL0     C10879  10.946  10.555   2.327  0.0890  0.0234 -0.6266
   83MOL0     C10880  11.066  10.484   2.282  0.6355 -0.6516 -1.0648
   83MOL0     C10881  11.178  10.563   2.258 -0.9363  1.3702 -0.4991
   83MOL0     O10882  11.287  10.484   2.219  0.2891  0.1307  0.2819
   83MOL0     C10883  11.418  10.546   2.199  0.1964  0.3087 -0.6699
   83MOL0     C10884  11.430  10.636   2.070  0.0894 -0.2407  0.4337
   83MOL0     C10885  11.585  10.652   2.041 -0.3253  0.0591 -0.3549
   83MOL0     C10886  11.664  10.764   2.122 -0.1707 -0.0731  0.7839
   83MOL0     C10887  11.810  10.732   2.108 -0.0536 -0.5361 -0.3289
   83MOL0     C10888  11.925  10.685   2.089 -0.5532 -0.5853 -0.2438
   83MOL0     C10889  11.177  10.701   2.281  0.5865  0.7257 -0.0939
   83MOL0     C10890  11.067  10.761   2.332  0.8315 -0.1981 -0.1807
   83MOL0     H10891  10.784  11.089   2.476 -1.5690  0.7138 -0.5396
   83MOL0     H10892  10.584  11.212   2.589  1.1445  0.4084  0.3546
   83MOL0     H10893  10.305  11.000   2.551  3.6764 -1.1574  1.4731
   83MOL0     H10894  10.294  11.180   2.563 -2.0623  0.3146 -0.8254
   83MOL0     H10895  10.164  11.019   2.762 -0.6992 -0.1268  0.2744
   83MOL0     H10896  10.082  11.042   2.601 -0.4030  1.9210 -0.9630
   83MOL0     H10897  10.085  11.282   2.628 -2.3685  0.8357  0.4940
   83MOL0     H10898  10.194  11.263   2.777  2.1215 -2.0369 -0.6317
   83MOL0     H10899   9.976  11.106   2.853 -1.9513 -0.9707 -1.4048
   83MOL0     H10900  10.000  11.276   2.886  0.9250 -2.0655  1.5197
   83MOL0     H10901   9.816  11.161   2.688  1.6997 -0.1232 -2.0671
   83MOL0     H10902   9.856  11.340   2.675  1.4683 -1.0584 -0.6118
   83MOL0     H10903   9.786  11.356   2.930 -4.4798  2.0041  1.2882
   83MOL0     H10904   9.731  11.185   2.914 -3.2528 -0.1705 -0.3036
   83MOL0     H10905   9.597  11.241   2.711  0.7367 -2.4505  0.8824
   83MOL0     H10906   9.533  11.294   2.864 -1.7644  2.3251 -0.9056
   83MOL0     H10907   9.659  11.468   2.660  0.9529  0.3149  0.1019
   83MOL0     H10908   9.653  11.527   2.837 -1.5803  0.8994 -0.7506
   83MOL0     H10909   9.466  11.597   2.517 -1.7353 -0.7222 -1.6219
   83MOL0     H10910   9.191  11.573   2.436  2.6612  0.3217  0.8855
   83MOL0     H10911   9.206  11.729   2.518  0.0594  0.4812  0.1422
   83MOL0     H10912   9.015  11.660   2.668 -0.4834  0.7779 -1.2268
   83MOL0     H10913   9.016  11.505   2.570 -0.6790  0.0644 -1.9499
   83MOL0     H10914   8.955  11.778   2.457  2.1384  0.2086 -0.1679
   83MOL0     H10915   8.964  11.608   2.372 -0.0549 -3.1596  2.3721
   83MOL0     H10916   8.748  11.657   2.566  2.3250  0.0263  1.6141
   83MOL0     H10917   8.799  11.516   2.469 -1.4733 -0.4024 -1.3157
   83MOL0     H10918   8.587  11.519   2.535  2.2949  1.4999 -0.1293
   83MOL0     H10919   8.335  11.504   2.546  1.5956 -0.6099  0.2646
   83MOL0     H10920   7.906  11.739   2.116  0.2134 -1.2225 -2.4605
   83MOL0     H10921   7.706  11.744   2.110 -0.1607 -0.6306 -0.7312
   83MOL0     H10922   7.464  11.525   2.374  2.4115 -0.1994 -0.8721
   83MOL0     H10923   7.462  11.359   2.293 -0.6603  0.3502 -0.0165
   83MOL0     H10924   7.289  11.474   2.141 -1.6094 -1.0063  0.2500
   83MOL0     H10925   7.267  11.582   2.282 -0.0289 -0.1770  1.1441
   83MOL0     H10926   7.240  11.376   2.430 -4.0208  2.6079  0.7305
   83MOL0     H10927   7.249  11.269   2.288  0.2597  0.0192 -0.6217
   83MOL0     H10928   7.048  11.496   2.286  2.6573  0.0649 -0.6773
   83MOL0     H10929   7.025  11.360   2.204  2.1937  1.8821 -2.4037
   83MOL0     H10930   7.018  11.327   2.500 -0.3848 -2.6525  0.0682
   83MOL0     H10931   6.979  11.225   2.351  3.4192  2.3847 -4.1998
   83MOL0     H10932   6.802  11.376   2.289  2.9741 -0.0861 -1.8117
   83MOL0     H10933   6.855  11.497   2.414 -0.0015  1.2625 -2.4973
   83MOL0     H10934   6.723  11.222   2.446 -1.9280  1.0865 -1.3193
   83MOL0     H10935   6.782  11.323   2.585  3.8597 -3.2406 -0.3490
   83MOL0     H10936   6.589  11.383   2.348 -0.4689  2.7693  0.1946
   83MOL0     H10937   6.638  11.497   2.476 -1.2540 -0.3537  4.1162
   83MOL0     H10938   7.690  11.361   2.326 -1.2474  0.0495 -1.7450
   83MOL0     H10939   7.920  11.368   2.366 -0.7163 -0.7101  1.9998
   83MOL0     H10940   8.307  11.671   2.162 -2.0298 -1.6328  0.8904
   83MOL0     H10941   8.541  11.725   2.156 -1.0387 -0.8765 -1.3512
   83MOL0     H10942  10.461  10.814   2.717 -1.0641 -1.0402 -1.2662
   83MOL0     H10943  10.661  10.723   2.615 -3.7938 -0.2518 -1.5933
   83MOL0     H10944  10.850  10.507   2.345 -0.2948 -0.1005 -2.7062
   83MOL0     H10945  11.067  10.386   2.234 -0.1633 -1.1319 -0.1230
   83MOL0     H10946  11.491  10.465   2.187 -0.4765 -0.1823 -1.6099
   83MOL0     H10947  11.454  10.606   2.282  2.9737 -1.6547 -0.3041
   83MOL0     H10948  11.377  10.593   1.985 -1.4990 -1.8339  2.1451
   83MOL0     H10949  11.374  10.729   2.077 -1.9983 -1.4599  0.6891
   83MOL0     H10950  11.603  10.683   1.937  2.0200  0.2400  0.0510
   83MOL0     H10951  11.633  10.556   2.062 -1.8000 -0.0120  3.4349
   83MOL0     H10952  11.659  10.869   2.090  2.5018 -0.3492 -0.8289
   83MOL0     H10953  11.632  10.764   2.227 -0.2552  0.8894  0.7666
   83MOL0     H10954  12.014  10.637   2.053 -1.3367 -0.9250 -1.8210
   83MOL0     H10955  11.266  10.761   2.262  1.2857 -0.8328 -2.1888
   83MOL0     H10956  11.061  10.869   2.347 -1.2261 -0.0153 -1.8575
   84MOL0     O10957   5.285   3.524   0.113  1.1745  0.1761  0.4297
   84MOL0     C10958   5.297   3.450   0.017 -0.6751  0.3174  0.0460
   84MOL0     O10959   5.202   3.378  -0.051  0.1117 -0.7205  0.3939
   84MOL0     C10960   5.074   3.364   0.000 -1.0882  0.4062 -0.1502
   84MOL0     C10961   5.034   3.380   0.131  0.8179  0.3542 -0.0715
   84MOL0     C10962   4.904   3.350   0.170 -0.3472 -0.2286 -0.6235
   84MOL0     C10963   4.806   3.298   0.076 -0.5111  0.6609 -0.1724
   84MOL0     O10964   4.678   3.276   0.113 -0.1494  0.1818  0.1949
   84MOL0     C10965   4.659   3.152   0.178 -0.3083 -0.5950 -1.0830
   84MOL0     C10966   4.596   3.045   0.084 -0.3658  0.2435  0.1504
   84MOL0     C10967   4.606   2.903   0.151 -0.7310 -0.1336  0.3792
   84MOL0     C10968   4.528   2.868   0.271  1.0244 -0.5230 -0.5464
   84MOL0     C10969   4.512   2.719   0.270  1.3406  0.2243 -0.3039
   84MOL0     C10970   4.411   2.678   0.165  1.6890  1.2620  0.1013
   84MOL0     C10971   4.286   2.608   0.228 -0.6697 -0.0377  0.0612
   84MOL0     C10972   4.327   2.470   0.281 -0.3487 -0.1135  0.2868
   84MOL0     N10973   4.203   2.397   0.300  0.0585  0.7949 -0.2898
   84MOL0     C10974   4.144   2.379   0.420 -0.5071  0.6696  0.3761
   84MOL0     C10975   4.040   2.293   0.406 -0.2536 -0.1159  0.3464
   84MOL0     C10976   3.945   2.254   0.514  0.0391 -0.1715  0.0513
   84MOL0     C10977   3.845   2.365   0.551 -0.7428 -0.1195  0.4785
   84MOL0     C10978   3.892   2.460   0.645  0.9138  0.5764 -0.8072
   84MOL0     C10979   3.922   2.401   0.788  0.3604 -0.7263  0.1568
   84MOL0     O10980   3.838   2.283   0.810 -0.9563 -0.1458 -0.0057
   84MOL0     C10981   3.708   2.301   0.845 -0.5331 -0.6584  0.2892
   84MOL0     C10982   3.635   2.422   0.873 -0.2178  0.2011  0.4481
   84MOL0     C10983   3.500   2.430   0.902 -0.0450  0.7715 -0.4226
   84MOL0     C10984   3.431   2.318   0.917 -0.4686  0.2487 -0.7651
   84MOL0     C10985   3.298   2.315   0.974  0.0395  0.2464  0.4347
   84MOL0     O10986   3.218   2.420   0.922  0.1921 -0.4673 -0.4197
   84MOL0     C10987   3.091   2.438   0.976 -0.1638 -0.1000 -0.2980
   84MOL0     C10988   2.996   2.451   0.886 -0.0006  0.0417 -0.0693
   84MOL0     C10989   2.860   2.461   0.920 -0.3772  0.2684 -0.3772
   84MOL0     C10990   2.826   2.478   1.055  0.7475 -0.4733  0.2446
   84MOL0     O10991   2.699   2.497   1.093 -0.0772  0.5767  0.2838
   84MOL0     C10992   2.606   2.564   1.000 -0.0237 -0.2389  0.0458
   84MOL0     C10993   2.467   2.552   1.064  0.0650 -0.0795  0.5686
   84MOL0     C10994   2.460   2.609   1.204 -0.1230  0.0603 -0.4700
   84MOL0     C10995   2.311   2.623   1.239  0.0415 -0.0037 -0.2521
   84MOL0     C10996   2.300   2.696   1.374  0.4297  0.0361 -0.5643
   84MOL0     C10997   2.159   2.677   1.429  0.2802 -0.1652 -0.2700
   84MOL0     C10998   2.124   2.774   1.532  0.2876  0.4569  0.1265
   84MOL0     C10999   2.192   2.741   1.667  0.5183  0.4922 -0.5385
   84MOL0    Cl11000   2.170   2.867   1.785 -0.2399  0.5572  0.2948
   84MOL0     C11001   2.924   2.474   1.154 -0.0663 -0.5630  0.0085
   84MOL0     C11002   3.061   2.451   1.115  0.1897  0.1339 -0.3298
   84MOL0     O11003   3.272   2.242   1.072  0.6011  0.2258  0.0020
   84MOL0     C11004   3.489   2.197   0.894  0.2128  0.3035 -0.1716
   84MOL0     C11005   3.625   2.189   0.859 -0.1748  0.2447  0.4459
   84MOL0     N11006   4.043   2.259   0.269 -0.5389  0.1428  0.2444
   84MOL0     N11007   4.136   2.325   0.213  0.0129  0.6104  0.0458
   84MOL0     C11008   4.854   3.261  -0.056 -0.0596  0.3395 -0.0920
   84MOL0     C11009   4.992   3.298  -0.088  0.1614  0.3718 -0.1072
   84MOL0     C11010   5.427   3.458  -0.046  0.0101 -0.4115 -0.1850
   84MOL0     C11011   5.542   3.499   0.025  0.1902 -0.5867 -0.0419
   84MOL0     C11012   5.666   3.493  -0.035  0.4024 -1.3317  0.0488
   84MOL0     C11013   5.686   3.451  -0.170 -0.2788 -0.8739 -0.8570
   84MOL0     O11014   5.810   3.457  -0.235  0.2960  0.1690 -0.6224
   84MOL0     C11015   5.899   3.568  -0.207 -0.0958  0.4240 -0.0285
   84MOL0     C11016   5.994   3.532  -0.092 -1.2395  0.0886 -0.1908
   84MOL0     C11017   6.130   3.609  -0.101 -0.4216  0.0374  0.1719
   84MOL0     C11018   6.119   3.761  -0.092  0.7264  0.2823 -0.9173
   84MOL0     C11019   6.248   3.826  -0.097 -0.6752 -0.1447 -0.3917
   84MOL0     C11020   6.359   3.865  -0.104 -0.5460 -0.7404  0.5830
   84MOL0     C11021   5.578   3.399  -0.232  0.5241 -0.5252  0.3861
   84MOL0     C11022   5.447   3.403  -0.181  0.6782 -0.0501 -0.1650
   84MOL0     H11023   5.104   3.400   0.211  0.5547 -0.0636  0.2705
   84MOL0     H11024   4.867   3.376   0.269 -2.9078  1.1321 -1.8204
   84MOL0     H11025   4.591   3.164   0.263  0.5134  1.2052 -0.6307
   84MOL0     H11026   4.752   3.116   0.222 -0.9522  1.9403  2.9570
   84MOL0     H11027   4.647   3.048  -0.012  0.7930  1.1505  0.7620
   84MOL0     H11028   4.490   3.071   0.078 -0.2533  0.7296  0.2193
   84MOL0     H11029   4.711   2.889   0.179  0.2907 -0.1083 -2.9880
   84MOL0     H11030   4.586   2.828   0.074  0.1658  0.3865 -0.3961
   84MOL0     H11031   4.590   2.907   0.352  1.7024 -2.4635 -0.0764
   84MOL0     H11032   4.429   2.916   0.269  1.0037 -0.5606 -0.4287
   84MOL0     H11033   4.487   2.682   0.370 -0.8698  0.9226 -0.5537
   84MOL0     H11034   4.604   2.666   0.241  1.4863  0.3589 -0.0812
   84MOL0     H11035   4.455   2.612   0.091  0.7818  1.2804 -0.4706
   84MOL0     H11036   4.378   2.771   0.118 -0.2389  2.6227  3.7208
   84MOL0     H11037   4.237   2.669   0.305  0.5346 -1.7766  2.3542
   84MOL0     H11038   4.214   2.603   0.146  0.0652 -1.6821 -0.5317
   84MOL0     H11039   4.397   2.482   0.364 -1.4373  0.4611  1.1260
   84MOL0     H11040   4.378   2.416   0.200 -0.0936 -1.6476  1.4140
   84MOL0     H11041   4.183   2.423   0.512  3.1445 -0.5134 -0.4471
   84MOL0     H11042   4.004   2.209   0.594  2.0001  0.0533 -1.2016
   84MOL0     H11043   3.872   2.180   0.478 -1.5485  0.9510  0.8226
   84MOL0     H11044   3.750   2.322   0.587 -0.8714  0.7665  1.2443
   84MOL0     H11045   3.815   2.424   0.464 -0.3476 -1.2805 -0.4784
   84MOL0     H11046   3.984   2.511   0.612  0.4866  2.4431  0.7035
   84MOL0     H11047   3.806   2.525   0.659 -1.3305 -2.3907  0.1884
   84MOL0     H11048   3.909   2.471   0.871 -1.1488 -1.7516  0.8162
   84MOL0     H11049   4.030   2.381   0.791  1.1635  2.9539  0.1309
   84MOL0     H11050   3.688   2.514   0.851 -0.5485  0.4132  0.5230
   84MOL0     H11051   3.448   2.524   0.915 -0.1433  0.6772 -0.1219
   84MOL0     H11052   3.031   2.460   0.784  0.4236  2.7399  0.2403
   84MOL0     H11053   2.783   2.467   0.844 -1.0183  0.9745  0.3051
   84MOL0     H11054   2.598   2.527   0.898 -1.4308 -0.2018  0.1176
   84MOL0     H11055   2.628   2.671   0.992 -0.1993 -0.3273 -1.9560
   84MOL0     H11056   2.433   2.448   1.066 -0.7636  0.1822  2.6056
   84MOL0     H11057   2.393   2.603   1.002  0.0632  1.3069  1.6661
   84MOL0     H11058   2.516   2.702   1.212  0.0692 -0.0631 -0.3883
   84MOL0     H11059   2.509   2.538   1.270  3.5854  2.5971 -0.2001
   84MOL0     H11060   2.252   2.673   1.162 -2.3755 -2.0122  0.1626
   84MOL0     H11061   2.269   2.522   1.249 -0.1416  0.0169 -0.7949
   84MOL0     H11062   2.324   2.802   1.373  2.3097 -0.2924 -3.5386
   84MOL0     H11063   2.359   2.654   1.456 -0.7472  0.3513  0.4772
   84MOL0     H11064   2.122   2.576   1.453 -1.6054  0.1594 -1.5677
   84MOL0     H11065   2.099   2.701   1.341  1.9574  2.8336 -0.7058
   84MOL0     H11066   2.153   2.877   1.509 -2.7814  1.6226  1.0018
   84MOL0     H11067   2.015   2.772   1.542  0.0787 -1.9048 -1.6362
   84MOL0     H11068   2.298   2.715   1.664  0.1649 -2.2166  3.1799
   84MOL0     H11069   2.156   2.644   1.702  1.6874  0.8662  1.8447
   84MOL0     H11070   2.886   2.480   1.256  0.4936  0.3916  0.1795
   84MOL0     H11071   3.133   2.427   1.192 -1.1180 -4.4770 -0.1923
   84MOL0     H11072   3.426   2.109   0.904  1.6813 -0.5470  3.5314
   84MOL0     H11073   3.670   2.094   0.829  3.2028  1.7824  0.2241
   84MOL0     H11074   4.791   3.204  -0.124 -2.6353  2.5842  0.2388
   84MOL0     H11075   5.025   3.270  -0.188 -3.6861 -2.3853 -0.8404
   84MOL0     H11076   5.539   3.536   0.127  1.1184 -1.2960  0.2650
   84MOL0     H11077   5.750   3.527   0.025  0.7460 -1.3462 -0.4220
   84MOL0     H11078   5.832   3.650  -0.180 -0.1133  1.0244 -1.7736
   84MOL0     H11079   5.943   3.594  -0.304  2.1745  2.0508  1.3350
   84MOL0     H11080   5.949   3.551   0.005 -0.3759  0.1322  0.2084
   84MOL0     H11081   6.017   3.425  -0.100 -1.1917  0.0649  0.2326
   84MOL0     H11082   6.177   3.580  -0.196 -1.5791 -0.8701 -0.1520
   84MOL0     H11083   6.189   3.569  -0.018 -2.1405 -2.4074  0.3384
   84MOL0     H11084   6.058   3.804  -0.172  2.3562  0.2169 -2.2554
   84MOL0     H11085   6.075   3.792   0.003 -3.1548 -2.9429 -1.4341
   84MOL0     H11086   6.458   3.901  -0.121 -0.7676 -0.9276 -1.3132
   84MOL0     H11087   5.592   3.357  -0.331 -2.8368 -1.3267  0.1253
   84MOL0     H11088   5.358   3.369  -0.232 -0.1810 -3.0184  2.8795
   85MOL0     O11089   5.500   8.093   3.927  0.2289 -0.4693  0.7364
   85MOL0     C11090   5.579   8.077   4.019 -0.6776  0.1084  0.0127
   85MOL0     O11091   5.709   8.044   4.011  0.2163  0.1638  0.1510
   85MOL0     C11092   5.787   8.045   3.894  1.3325 -0.8435  0.3383
   85MOL0     C11093   5.910   7.984   3.907  0.4514  0.0101 -0.3189
   85MOL0     C11094   5.992   7.983   3.797 -0.2055  0.2237 -0.2882
   85MOL0     C11095   5.965   8.049   3.674  0.3628 -0.1914  0.4200
   85MOL0     O11096   6.074   8.050   3.586  0.2955  0.1662 -0.7754
   85MOL0     C11097   6.050   8.118   3.465  0.7245 -0.3665  0.7193
   85MOL0     C11098   6.173   8.110   3.377  0.7561  0.7887  0.3743
   85MOL0     C11099   6.301   8.151   3.441 -0.3876 -0.2718  0.3089
   85MOL0     C11100   6.419   8.134   3.343 -0.5196 -0.5024 -0.0601
   85MOL0     C11101   6.559   8.142   3.404 -0.0396  0.4761  0.4350
   85MOL0     C11102   6.668   8.181   3.299 -0.5210 -0.5693 -0.5514
   85MOL0     C11103   6.746   8.057   3.256 -0.3815  0.0757  0.0090
   85MOL0     C11104   6.891   8.093   3.217 -0.7563  0.5416  0.3481
   85MOL0     N11105   6.978   7.981   3.239 -0.6695  0.8911  0.1282
   85MOL0     C11106   7.020   7.895   3.133  0.1581  0.5187  0.1129
   85MOL0     C11107   7.112   7.811   3.184  0.6684 -0.2249 -0.2857
   85MOL0     C11108   7.210   7.742   3.096 -0.2641 -0.6731 -0.1541
   85MOL0     C11109   7.152   7.601   3.060 -0.4603 -0.0474  0.2225
   85MOL0     C11110   7.261   7.517   2.976  0.6649 -0.8728  0.3829
   85MOL0     C11111   7.391   7.496   3.043 -0.2892 -1.1889  1.2200
   85MOL0     O11112   7.467   7.401   2.958 -0.4151  0.4442 -0.6045
   85MOL0     C11113   7.603   7.415   2.968  0.4473 -0.8074  0.3292
   85MOL0     C11114   7.676   7.411   2.845 -0.5016 -0.4505  0.4021
   85MOL0     C11115   7.821   7.409   2.854  0.0536 -0.2019 -0.0467
   85MOL0     C11116   7.890   7.427   2.976 -0.0742 -0.2463 -0.2051
   85MOL0     C11117   8.038   7.439   2.987 -0.6271  0.4344 -0.3106
   85MOL0     O11118   8.112   7.428   2.871 -0.0870  0.2640  0.7706
   85MOL0     C11119   8.248   7.408   2.884  0.0543 -0.7223 -0.1981
   85MOL0     C11120   8.339   7.515   2.863 -0.5611  1.0290 -0.3614
   85MOL0     C11121   8.476   7.493   2.861  0.6540 -0.2844 -0.3587
   85MOL0     C11122   8.529   7.372   2.889  0.4308  0.5803 -0.6867
   85MOL0     O11123   8.668   7.369   2.883  0.3631 -0.6725  0.5376
   85MOL0     C11124   8.724   7.248   2.929 -0.8133  0.4101 -0.0534
   85MOL0     C11125   8.878   7.275   2.922 -0.4073  0.0485  0.4571
   85MOL0     C11126   8.925   7.401   3.006 -0.5085 -0.4077  0.2740
   85MOL0     C11127   9.070   7.441   2.973  0.1512 -0.3049  0.0022
   85MOL0     C11128   9.170   7.321   3.013  0.4081  0.4781 -0.1985
   85MOL0     C11129   9.307   7.371   3.047  0.1672  0.7247 -0.0197
   85MOL0     C11130   9.387   7.396   2.918 -0.2490 -0.7266 -0.3232
   85MOL0     C11131   9.537   7.419   2.950 -0.1565  0.1643  0.4479
   85MOL0    Cl11132   9.620   7.500   2.799 -0.0673 -0.0126 -0.4282
   85MOL0     C11133   8.441   7.263   2.904  0.1011 -0.3111 -0.8241
   85MOL0     C11134   8.303   7.286   2.908 -1.0298 -1.2420  0.1186
   85MOL0     O11135   8.084   7.454   3.095 -0.6378  0.0495 -0.3870
   85MOL0     C11136   7.811   7.442   3.092 -0.8430  1.2395 -0.4300
   85MOL0     C11137   7.669   7.430   3.090  0.3089  0.1783 -0.6005
   85MOL0     N11138   7.114   7.835   3.323 -0.1039  0.2948 -0.0817
   85MOL0     N11139   7.041   7.942   3.353  0.5289 -0.3860  0.6033
   85MOL0     C11140   5.836   8.121   3.666  0.0247  0.7824  0.4951
   85MOL0     C11141   5.748   8.111   3.769 -0.8754  0.0273  0.5962
   85MOL0     C11142   5.532   8.098   4.160 -0.5167 -0.4762  0.2569
   85MOL0     C11143   5.614   8.144   4.257  0.6319 -0.1363 -0.9668
   85MOL0     C11144   5.573   8.190   4.381 -0.0434 -0.2440 -0.4993
   85MOL0     C11145   5.440   8.182   4.407  1.4833 -0.5624  0.1060
   85MOL0     O11146   5.386   8.220   4.526 -0.4379  0.0607 -0.5046
   85MOL0     C11147   5.437   8.162   4.640 -1.4304  0.0337 -1.0494
   85MOL0     C11148   5.373   8.233   4.758  0.0906  0.0837  0.2573
   85MOL0     C11149   5.220   8.243   4.755  0.4588 -0.2276  0.2021
   85MOL0     C11150   5.169   8.298   4.892 -0.3236 -0.4841 -0.9364
   85MOL0     C11151   5.019   8.319   4.880  0.4374  0.3563 -0.1079
   85MOL0     C11152   4.903   8.349   4.866 -0.0530 -0.1772  0.2863
   85MOL0     C11153   5.347   8.138   4.310  0.2934  0.1186 -0.3032
   85MOL0     C11154   5.392   8.102   4.184  0.1180 -0.1585 -0.3616
   85MOL0     H11155   5.946   7.951   4.004  0.9636 -0.7430 -0.7508
   85MOL0     H11156   6.082   7.922   3.795 -1.1900 -1.2868 -0.1633
   85MOL0     H11157   6.022   8.219   3.497  0.7359  0.6289 -2.1509
   85MOL0     H11158   5.967   8.062   3.421  1.2039 -1.5595  1.2906
   85MOL0     H11159   6.151   8.162   3.283 -1.6680 -0.2439  0.2942
   85MOL0     H11160   6.186   8.004   3.354  0.1419  0.9935 -1.0595
   85MOL0     H11161   6.323   8.093   3.532 -0.7012  0.4458  0.8478
   85MOL0     H11162   6.311   8.255   3.473  3.2184 -0.3108 -0.2419
   85MOL0     H11163   6.409   8.042   3.286  1.8637 -2.9250  3.0348
   85MOL0     H11164   6.413   8.216   3.271  1.2573 -1.6769 -1.6427
   85MOL0     H11165   6.586   8.052   3.461 -2.7444 -0.0036  1.1221
   85MOL0     H11166   6.562   8.223   3.476 -1.2919  1.5678 -0.6646
   85MOL0     H11167   6.742   8.249   3.343  0.4037  0.5323 -3.5771
   85MOL0     H11168   6.626   8.234   3.213 -1.7683 -0.8578 -0.1507
   85MOL0     H11169   6.756   7.994   3.345 -2.9859  0.8355  0.9349
   85MOL0     H11170   6.697   8.012   3.169 -1.4397 -1.2494  1.2454
   85MOL0     H11171   6.929   8.168   3.286  0.3903 -0.2859  0.6477
   85MOL0     H11172   6.892   8.121   3.111 -0.3474 -0.7004  0.0075
   85MOL0     H11173   6.988   7.900   3.030 -3.7942 -2.6819  0.9570
   85MOL0     H11174   7.299   7.725   3.159 -1.1258  0.0274  1.3098
   85MOL0     H11175   7.235   7.809   3.013  1.2251  1.0053  1.5455
   85MOL0     H11176   7.062   7.626   3.003  1.4967 -0.2303 -3.2116
   85MOL0     H11177   7.137   7.542   3.151 -1.1774 -1.3603 -0.7206
   85MOL0     H11178   7.212   7.419   2.971 -2.5852  0.6177 -0.0069
   85MOL0     H11179   7.269   7.550   2.872  0.2474 -0.0113  0.6160
   85MOL0     H11180   7.381   7.465   3.148  0.7587  1.2525  2.1159
   85MOL0     H11181   7.453   7.586   3.041 -2.7154  0.5868 -0.1410
   85MOL0     H11182   7.632   7.387   2.748 -0.1073  0.0185  0.0999
   85MOL0     H11183   7.882   7.415   2.765  1.7820 -0.4514  1.0733
   85MOL0     H11184   8.301   7.615   2.848 -0.4503  1.2786  0.8850
   85MOL0     H11185   8.537   7.581   2.843 -0.5749  0.3691 -1.4820
   85MOL0     H11186   8.696   7.166   2.863 -3.7206  0.0944  1.3844
   85MOL0     H11187   8.694   7.219   3.030 -1.9715  0.9533 -0.2254
   85MOL0     H11188   8.907   7.277   2.817 -3.7148 -3.0228 -0.7419
   85MOL0     H11189   8.926   7.188   2.968  1.8336  1.0083  0.0364
   85MOL0     H11190   8.919   7.387   3.115  2.8173  2.3850  1.0026
   85MOL0     H11191   8.862   7.485   2.978  0.1773  0.0915  0.1879
   85MOL0     H11192   9.084   7.478   2.871  4.3699 -0.5834  0.2791
   85MOL0     H11193   9.088   7.527   3.038 -1.2449 -0.1384  0.1833
   85MOL0     H11194   9.176   7.247   2.933  4.0442  3.7125 -3.3620
   85MOL0     H11195   9.122   7.277   3.101  1.3149  1.3941  0.7948
   85MOL0     H11196   9.360   7.297   3.108 -0.6784  0.7617  0.7891
   85MOL0     H11197   9.302   7.466   3.100  1.0346  0.1759  1.0891
   85MOL0     H11198   9.385   7.304   2.858 -1.9179 -0.7596 -0.2808
   85MOL0     H11199   9.347   7.484   2.866  1.2458  1.3310  1.8607
   85MOL0     H11200   9.589   7.332   2.990  2.8939  0.1241 -3.0185
   85MOL0     H11201   9.543   7.492   3.031  0.6791 -0.1914  0.7085
   85MOL0     H11202   8.488   7.165   2.910 -1.4114 -1.0308 -0.4182
   85MOL0     H11203   8.239   7.200   2.925 -1.2267 -0.6627  2.7313
   85MOL0     H11204   7.867   7.451   3.184 -0.7496 -0.5216 -0.2959
   85MOL0     H11205   7.625   7.445   3.188  1.1351  1.8697 -0.4597
   85MOL0     H11206   5.809   8.183   3.581 -0.2675 -1.3174 -1.0436
   85MOL0     H11207   5.661   8.175   3.770  0.8900  2.5747  0.1316
   85MOL0     H11208   5.720   8.140   4.237  0.9543 -0.6129  0.6943
   85MOL0     H11209   5.640   8.230   4.457 -1.7352  3.7173 -0.8608
   85MOL0     H11210   5.546   8.168   4.647 -1.5547  0.7394  1.1702
   85MOL0     H11211   5.412   8.056   4.635  1.4041 -0.7287 -1.2251
   85MOL0     H11212   5.394   8.163   4.839 -1.3133 -2.1273 -1.1482
   85MOL0     H11213   5.421   8.330   4.776  1.4261 -0.1790 -1.5560
   85MOL0     H11214   5.173   8.146   4.735 -3.3339  1.1438  1.4617
   85MOL0     H11215   5.199   8.313   4.674 -0.2494 -1.0890 -0.3878
   85MOL0     H11216   5.196   8.235   4.977  1.7559  4.1011  2.2357
   85MOL0     H11217   5.221   8.393   4.907  2.1424 -1.8547 -0.2058
   85MOL0     H11218   4.801   8.378   4.854  0.9114  3.1761 -1.1641
   85MOL0     H11219   5.240   8.130   4.329  0.4598 -2.4358 -0.0933
   85MOL0     H11220   5.319   8.078   4.107 -3.3275 -2.1772  3.1922
   86MOL0     O11221   5.599   0.840   6.601  0.0033 -0.7686 -0.3592
   86MOL0     C11222   5.613   0.843   6.482 -0.5147  0.2138 -0.2547
   86MOL0     O11223   5.507   0.827   6.399 -0.0856 -0.2406 -0.0086
   86MOL0     C11224   5.386   0.805   6.455  0.3486  0.0998 -1.2812
   86MOL0     C11225   5.333   0.678   6.466 -0.4810  0.7624 -0.1038
   86MOL0     C11226   5.203   0.654   6.496 -0.1495 -0.1807  0.2814
   86MOL0     C11227   5.119   0.763   6.535  0.4434 -0.0059  0.1945
   86MOL0     O11228   4.987   0.742   6.563 -0.3740  0.2610  0.1886
   86MOL0     C11229   4.941   0.607   6.613  0.3095 -0.0599  0.4215
   86MOL0     C11230   4.787   0.629   6.614 -0.2111  0.4228  0.3307
   86MOL0     C11231   4.736   0.483   6.612 -0.7938  0.3984  0.2471
   86MOL0     C11232   4.581   0.473   6.613  0.1839  0.4266 -0.4018
   86MOL0     C11233   4.530   0.507   6.754  0.7523  0.5836  0.7021
   86MOL0     C11234   4.379   0.510   6.746  0.1337  0.3152  0.9401
   86MOL0     C11235   4.319   0.501   6.891 -0.3385 -0.2969 -0.6015
   86MOL0     C11236   4.165   0.528   6.897 -0.8431  0.2219  0.0729
   86MOL0     N11237   4.085   0.449   6.806 -0.4130 -0.6570 -0.4095
   86MOL0     C11238   4.067   0.492   6.677 -0.0979  0.0285 -0.2976
   86MOL0     C11239   4.021   0.376   6.622 -0.6169 -1.0453  0.5093
   86MOL0     C11240   3.985   0.360   6.478 -0.3092 -0.7464  0.1583
   86MOL0     C11241   4.090   0.425   6.388 -0.1899  0.6569  0.2881
   86MOL0     C11242   4.227   0.341   6.396  0.9295 -0.4393 -0.5027
   86MOL0     C11243   4.333   0.378   6.290 -0.1805 -0.2596 -0.6630
   86MOL0     O11244   4.447   0.292   6.301 -0.5173 -0.1451 -0.2223
   86MOL0     C11245   4.571   0.351   6.266  0.0009 -0.4169 -0.5932
   86MOL0     C11246   4.595   0.472   6.200 -0.0460 -0.3028  0.5586
   86MOL0     C11247   4.724   0.520   6.161 -0.0790 -1.0073  0.1102
   86MOL0     C11248   4.842   0.447   6.201  0.8499 -0.2270  0.1958
   86MOL0     C11249   4.981   0.495   6.169  0.1149  0.6004 -0.4911
   86MOL0     O11250   4.990   0.602   6.089 -0.7510 -0.0868 -0.6404
   86MOL0     C11251   5.113   0.646   6.063  0.4340 -0.2894 -0.2854
   86MOL0     C11252   5.208   0.579   5.989  0.6323 -0.0174 -0.4605
   86MOL0     C11253   5.341   0.636   5.964  0.3154  0.2798  0.6254
   86MOL0     C11254   5.373   0.760   6.026 -0.0059  0.2353 -0.1070
   86MOL0     O11255   5.495   0.819   6.005 -0.9407 -0.0834  0.3962
   86MOL0     C11256   5.507   0.932   5.913 -0.3532  0.1935  0.2506
   86MOL0     C11257   5.607   0.877   5.811  0.1748 -0.7298  1.0168
   86MOL0     C11258   5.753   0.871   5.873 -0.6443  0.1173  0.1987
   86MOL0     C11259   5.866   0.810   5.786  0.5449 -0.2703  0.6434
   86MOL0     C11260   5.992   0.752   5.841  0.5245  0.2777  0.0299
   86MOL0     C11261   6.089   0.857   5.900  0.6690  0.9326  0.2956
   86MOL0     C11262   6.204   0.791   5.974 -0.3907 -0.4488  0.2231
   86MOL0     C11263   6.295   0.701   5.891 -0.9895 -0.3340 -0.4545
   86MOL0    Cl11264   6.417   0.632   6.010 -0.2641  0.3255  0.4642
   86MOL0     C11265   5.285   0.811   6.124 -0.5096  0.1507  0.3735
   86MOL0     C11266   5.153   0.756   6.136 -0.1809  0.3295 -0.0115
   86MOL0     O11267   5.080   0.445   6.223 -0.1315 -0.6149 -0.3864
   86MOL0     C11268   4.821   0.326   6.265  0.2066 -0.3676 -0.1217
   86MOL0     C11269   4.691   0.277   6.301 -0.2874  0.7874 -0.0836
   86MOL0     N11270   3.998   0.278   6.717  0.2867  0.9482  0.7295
   86MOL0     N11271   4.034   0.326   6.834  0.3346 -0.5882 -0.0402
   86MOL0     C11272   5.173   0.892   6.544 -0.4982 -0.3555  1.1162
   86MOL0     C11273   5.309   0.914   6.503 -1.0902  0.2156  0.2502
   86MOL0     C11274   5.749   0.827   6.421  0.4971  0.1124  0.5922
   86MOL0     C11275   5.776   0.832   6.283 -0.8331 -0.3968  0.2840
   86MOL0     C11276   5.910   0.845   6.244 -0.0493 -0.5186  0.3615
   86MOL0     C11277   6.014   0.833   6.338 -0.3215 -0.3601 -0.8953
   86MOL0     O11278   6.144   0.836   6.296  0.4962 -0.6474  0.6065
   86MOL0     C11279   6.253   0.806   6.382 -1.0842  0.0567 -0.3120
   86MOL0     C11280   6.379   0.858   6.312  0.2098  0.0715 -0.1118
   86MOL0     C11281   6.509   0.862   6.405 -0.4766  0.8350  0.6781
   86MOL0     C11282   6.557   1.002   6.418 -0.4908 -0.7377  0.1572
   86MOL0     C11283   6.674   1.013   6.509 -0.7500 -1.0674  0.6448
   86MOL0     C11284   6.780   1.027   6.565 -0.1951  0.5909 -1.0267
   86MOL0     C11285   5.984   0.823   6.476  0.1955  0.1681  0.2041
   86MOL0     C11286   5.852   0.828   6.509 -0.3355 -1.1162 -0.5338
   86MOL0     H11287   5.404   0.601   6.436  1.1271  2.2936 -0.4143
   86MOL0     H11288   5.162   0.558   6.470  2.5511 -0.7075 -2.7013
   86MOL0     H11289   4.984   0.597   6.713  0.9791  0.6835  0.2240
   86MOL0     H11290   4.962   0.525   6.544  1.9631 -0.3378  1.2197
   86MOL0     H11291   4.748   0.686   6.529 -2.3734 -1.6667 -0.2061
   86MOL0     H11292   4.757   0.685   6.703 -3.9390 -1.2758  0.3480
   86MOL0     H11293   4.791   0.428   6.688  1.5312  2.0606 -0.1372
   86MOL0     H11294   4.771   0.449   6.514 -1.6030  1.0293 -0.2752
   86MOL0     H11295   4.537   0.535   6.533 -0.3644 -0.8502 -1.1198
   86MOL0     H11296   4.553   0.370   6.591 -0.8866  0.5767  0.1722
   86MOL0     H11297   4.563   0.606   6.788  1.8475  1.7553 -3.2366
   86MOL0     H11298   4.572   0.424   6.812  1.8907 -0.8883 -2.0719
   86MOL0     H11299   4.340   0.422   6.694  1.6792 -0.5811  1.2195
   86MOL0     H11300   4.342   0.602   6.700  1.6808  0.1857 -0.6673
   86MOL0     H11301   4.327   0.399   6.930  1.4072  0.6360  1.6962
   86MOL0     H11302   4.375   0.569   6.956  0.8775 -2.0717  0.2961
   86MOL0     H11303   4.150   0.636   6.889  0.1929  0.3850  0.0832
   86MOL0     H11304   4.133   0.504   6.999  2.1944  0.6055  1.2162
   86MOL0     H11305   4.076   0.583   6.619 -1.4012  1.1385  1.1480
   86MOL0     H11306   3.888   0.405   6.454  0.3569 -0.2596 -1.8742
   86MOL0     H11307   3.977   0.254   6.455  0.9955 -0.6221 -1.0145
   86MOL0     H11308   4.103   0.529   6.419  0.9010 -0.2457  3.1492
   86MOL0     H11309   4.049   0.430   6.286  0.9647 -0.2164 -0.2383
   86MOL0     H11310   4.265   0.342   6.498 -0.1853  1.2465 -0.0664
   86MOL0     H11311   4.200   0.235   6.391  1.7513 -0.6755  0.0032
   86MOL0     H11312   4.369   0.475   6.327 -1.9029  0.8109 -1.6539
   86MOL0     H11313   4.297   0.377   6.187 -0.5730 -0.7876 -0.5243
   86MOL0     H11314   4.517   0.547   6.185 -0.6108 -1.0700 -0.5134
   86MOL0     H11315   4.734   0.623   6.126  0.5340  0.2414  3.5599
   86MOL0     H11316   5.184   0.491   5.931  0.5155 -0.5397  0.3749
   86MOL0     H11317   5.407   0.589   5.892  0.3003 -1.0777  1.4680
   86MOL0     H11318   5.537   1.022   5.968  0.0833  1.4282 -1.9080
   86MOL0     H11319   5.408   0.941   5.867 -0.2671 -0.9328 -0.1746
   86MOL0     H11320   5.609   0.940   5.723 -2.6356  2.0896  2.7577
   86MOL0     H11321   5.583   0.770   5.804  0.6657 -0.7363 -1.0024
   86MOL0     H11322   5.752   0.809   5.962  1.0758  0.9501  0.8523
   86MOL0     H11323   5.792   0.968   5.908  3.9177 -1.1889 -0.5696
   86MOL0     H11324   5.821   0.728   5.729 -0.4784 -0.4441  1.6667
   86MOL0     H11325   5.890   0.890   5.715  1.5121  2.1269  3.4794
   86MOL0     H11326   6.033   0.683   5.766  1.1789  0.6838  0.0052
   86MOL0     H11327   5.970   0.691   5.929  1.1229 -1.6868 -1.1214
   86MOL0     H11328   6.025   0.919   5.962 -0.9640  0.1626 -0.5563
   86MOL0     H11329   6.124   0.924   5.820 -1.5463  0.9712 -0.7302
   86MOL0     H11330   6.276   0.857   6.024  2.0154 -2.8907  0.1770
   86MOL0     H11331   6.172   0.727   6.056 -3.5325  2.1151  1.2346
   86MOL0     H11332   6.346   0.752   5.808  1.6236 -1.6897  0.1912
   86MOL0     H11333   6.235   0.623   5.844  0.6020 -3.2794  2.0237
   86MOL0     H11334   5.306   0.908   6.169 -0.3408  0.6799 -0.8180
   86MOL0     H11335   5.083   0.810   6.198  0.7153  1.3817  0.1078
   86MOL0     H11336   4.908   0.271   6.299 -0.1547  0.4525  2.3179
   86MOL0     H11337   4.693   0.184   6.356  2.5286  1.7727  1.7013
   86MOL0     H11338   5.119   0.981   6.576  4.4803  2.9826  1.4145
   86MOL0     H11339   5.361   1.009   6.509  0.5481 -0.3571 -2.8527
   86MOL0     H11340   5.701   0.819   6.205 -0.7822 -0.3255  0.2224
   86MOL0     H11341   5.936   0.849   6.139 -0.3412  2.2124  0.3163
   86MOL0     H11342   6.263   0.698   6.399  0.4340 -0.5027 -3.8914
   86MOL0     H11343   6.247   0.859   6.478 -1.0250 -2.4520  1.1854
   86MOL0     H11344   6.397   0.798   6.222 -0.7434 -1.5648  0.7553
   86MOL0     H11345   6.363   0.959   6.272 -0.1094 -0.5199 -1.5686
   86MOL0     H11346   6.592   0.803   6.366 -0.3974  1.5953 -0.3602
   86MOL0     H11347   6.486   0.826   6.506  0.2910  1.6073  1.1423
   86MOL0     H11348   6.585   1.049   6.323 -0.7946  0.7293  0.7778
   86MOL0     H11349   6.483   1.059   6.474  0.2634 -0.0206  0.4324
   86MOL0     H11350   6.865   1.045   6.628 -0.4227 -0.7798 -0.2759
   86MOL0     H11351   6.065   0.821   6.549  0.6056  1.6885 -0.1599
   86MOL0     H11352   5.824   0.833   6.613 -4.1661  1.1707 -1.4781
   87MOL0     O11353   6.866   6.976   9.191 -0.4679  0.3710 -0.7263
   87MOL0     C11354   6.783   6.887   9.177  0.6416  0.4450 -0.2990
   87MOL0     O11355   6.803   6.750   9.193  0.4022 -0.2720 -0.1412
   87MOL0     C11356   6.911   6.702   9.255 -0.4984  0.7770  1.0864
   87MOL0     C11357   6.987   6.766   9.355  0.2081 -0.5139 -0.5991
   87MOL0     C11358   7.111   6.725   9.385 -0.0570 -0.1556 -0.7181
   87MOL0     C11359   7.172   6.617   9.322  0.5780 -0.2654 -0.1157
   87MOL0     O11360   7.303   6.577   9.338  0.2513  0.4034  0.1519
   87MOL0     C11361   7.366   6.464   9.273 -0.0720  0.3890  0.8367
   87MOL0     C11362   7.514   6.442   9.315  0.0052  0.0164  0.1970
   87MOL0     C11363   7.608   6.556   9.278  0.3064  0.4719 -0.2153
   87MOL0     C11364   7.740   6.523   9.341  1.5207  0.3652 -0.8501
   87MOL0     C11365   7.863   6.603   9.293  0.1587  0.2468 -0.0829
   87MOL0     C11366   7.848   6.756   9.313  0.0139  0.6339  0.0227
   87MOL0     C11367   7.985   6.824   9.339  0.0512 -0.1289 -0.2762
   87MOL0     C11368   7.975   6.972   9.347  0.0609  0.3436  0.3633
   87MOL0     N11369   8.110   7.018   9.358 -0.8554  0.3005 -0.1051
   87MOL0     C11370   8.214   7.013   9.452  1.3193 -0.0883  0.2269
   87MOL0     C11371   8.332   7.059   9.390  0.9812  0.1939 -0.2119
   87MOL0     C11372   8.463   7.074   9.460 -0.4469  0.5838  0.4179
   87MOL0     C11373   8.563   7.047   9.347  0.3445  0.1393  0.2561
   87MOL0     C11374   8.697   7.024   9.410 -0.0086 -0.0117  0.3543
   87MOL0     C11375   8.807   6.980   9.309  1.1583 -0.3093  0.4188
   87MOL0     O11376   8.814   7.077   9.203  0.3689  0.4770 -0.0141
   87MOL0     C11377   8.928   7.049   9.126  0.9128  0.1986 -1.1735
   87MOL0     C11378   8.997   6.929   9.120  0.5984  0.0276 -0.1763
   87MOL0     C11379   9.105   6.911   9.033 -1.0755 -0.3843  0.2816
   87MOL0     C11380   9.153   7.018   8.952  0.2661 -0.3233 -0.6205
   87MOL0     C11381   9.268   6.991   8.860  0.2740 -0.2223  0.3970
   87MOL0     O11382   9.311   6.861   8.840 -0.1313  0.1154  0.3656
   87MOL0     C11383   9.414   6.824   8.749 -0.2898 -1.1534 -0.2232
   87MOL0     C11384   9.421   6.862   8.612  1.2027 -0.2055 -0.6538
   87MOL0     C11385   9.537   6.834   8.537  0.1587  1.6402 -0.3008
   87MOL0     C11386   9.651   6.776   8.597 -0.3818 -0.1416 -0.9734
   87MOL0     O11387   9.767   6.780   8.520  0.4168 -0.4559 -0.4933
   87MOL0     C11388   9.896   6.751   8.569 -0.0876  0.3289 -0.3526
   87MOL0     C11389   9.998   6.764   8.456 -0.0888  0.8357  0.4826
   87MOL0     C11390  10.134   6.735   8.520 -0.6504  0.3899 -0.4258
   87MOL0     C11391  10.241   6.796   8.426  1.0785 -0.0716  0.4433
   87MOL0     C11392  10.370   6.714   8.419 -0.1370 -0.0943  0.5786
   87MOL0     C11393  10.466   6.746   8.304 -0.5897  0.0525 -0.1320
   87MOL0     C11394  10.563   6.868   8.345  0.9033 -0.0276 -0.3186
   87MOL0     C11395  10.653   6.922   8.235  0.1329 -0.5163  0.7348
   87MOL0    Cl11396  10.725   6.776   8.149  0.6688 -0.0983 -0.7217
   87MOL0     C11397   9.643   6.750   8.736 -0.7291 -0.2729 -0.9679
   87MOL0     C11398   9.526   6.757   8.807  0.4544 -0.5013 -0.7401
   87MOL0     O11399   9.318   7.089   8.804  0.1123  0.2665 -0.1449
   87MOL0     C11400   9.083   7.138   8.960 -0.9322 -0.0535  0.8232
   87MOL0     C11401   8.978   7.150   9.051  0.2763 -0.8215 -0.2116
   87MOL0     N11402   8.297   7.097   9.259  0.0165  0.1849 -0.6151
   87MOL0     N11403   8.175   7.066   9.250 -0.0006 -0.0064 -0.1153
   87MOL0     C11404   7.094   6.548   9.230 -0.4697  0.4545 -0.5851
   87MOL0     C11405   6.964   6.585   9.196 -0.3309 -0.1133  0.4967
   87MOL0     C11406   6.636   6.919   9.159 -0.0508  0.0003 -0.2596
   87MOL0     C11407   6.597   7.061   9.141  0.5460  0.1191  0.3056
   87MOL0     C11408   6.459   7.089   9.116  0.6802 -0.8411  0.4116
   87MOL0     C11409   6.364   6.991   9.136 -0.4652 -0.3328 -0.0741
   87MOL0     O11410   6.224   7.010   9.132  0.3817 -0.4635 -0.3653
   87MOL0     C11411   6.183   7.119   9.052 -0.6652  0.9148 -0.6175
   87MOL0     C11412   6.032   7.134   9.042 -0.5286  0.0189  0.2066
   87MOL0     C11413   5.979   7.206   9.167  0.4364 -0.0655  0.5359
   87MOL0     C11414   5.826   7.213   9.174 -0.8338 -0.5977  1.0500
   87MOL0     C11415   5.780   7.319   9.090 -0.2357  0.2547 -0.5112
   87MOL0     C11416   5.733   7.409   9.022 -0.5258  0.9096  0.2004
   87MOL0     C11417   6.403   6.858   9.146  0.0430  0.1589  0.4232
   87MOL0     C11418   6.538   6.821   9.156 -0.2160 -0.0250 -0.4032
   87MOL0     H11419   6.958   6.858   9.404 -0.5012  0.4398 -2.6860
   87MOL0     H11420   7.176   6.793   9.439 -0.7307  0.3555 -0.5340
   87MOL0     H11421   7.356   6.474   9.165  2.7462 -3.9030 -0.0441
   87MOL0     H11422   7.309   6.375   9.302 -0.4361  1.0288  2.1707
   87MOL0     H11423   7.557   6.351   9.273  4.5066  1.3835  1.2461
   87MOL0     H11424   7.516   6.427   9.423 -1.1263 -0.3341  0.1723
   87MOL0     H11425   7.559   6.642   9.324  0.0102  0.1685  0.0459
   87MOL0     H11426   7.606   6.581   9.172 -2.0159 -0.8529 -0.5527
   87MOL0     H11427   7.730   6.544   9.448 -0.7899 -1.4313 -0.6272
   87MOL0     H11428   7.761   6.415   9.344  0.3677  0.1520  0.6144
   87MOL0     H11429   7.888   6.579   9.189 -0.6202 -1.7543  0.1394
   87MOL0     H11430   7.948   6.577   9.356 -0.2964  1.8405  1.2622
   87MOL0     H11431   7.798   6.767   9.410  0.5132 -0.2080  0.3889
   87MOL0     H11432   7.798   6.799   9.226  2.5791  0.7669 -1.4851
   87MOL0     H11433   8.038   6.805   9.433  0.3699  0.3190 -0.3578
   87MOL0     H11434   8.058   6.800   9.261  1.4135  1.0502  0.5894
   87MOL0     H11435   7.921   6.997   9.439  0.3026  1.3846  0.2280
   87MOL0     H11436   7.916   7.020   9.269 -1.0403  3.5079  2.9113
   87MOL0     H11437   8.209   6.990   9.558  0.3005  3.0969  0.9883
   87MOL0     H11438   8.458   7.000   9.539  1.6535  0.6113  0.6469
   87MOL0     H11439   8.476   7.172   9.508 -1.8974  0.8746  0.2757
   87MOL0     H11440   8.561   7.131   9.277 -1.9565 -0.1525 -0.0982
   87MOL0     H11441   8.522   6.957   9.300 -1.7739  1.6169 -0.9049
   87MOL0     H11442   8.739   7.114   9.456 -0.3397  0.1519  0.3423
   87MOL0     H11443   8.689   6.941   9.482  0.2689 -1.4255 -1.1842
   87MOL0     H11444   8.769   6.887   9.266  1.5982  0.0589 -0.8254
   87MOL0     H11445   8.899   6.957   9.363  0.7053 -0.4727  1.1371
   87MOL0     H11446   8.973   6.839   9.176  3.6176 -1.1802 -0.6079
   87MOL0     H11447   9.158   6.817   9.025  1.7439  1.2756 -3.5521
   87MOL0     H11448   9.353   6.934   8.568  3.2233  1.9654 -0.4352
   87MOL0     H11449   9.547   6.873   8.436  2.9231  3.4957  0.6121
   87MOL0     H11450   9.901   6.650   8.611  1.3750  1.1011  1.5184
   87MOL0     H11451   9.928   6.824   8.644  3.0357 -2.8189  1.7148
   87MOL0     H11452   9.993   6.866   8.416 -2.5339 -0.1146 -2.0589
   87MOL0     H11453   9.977   6.692   8.377  3.7172 -0.2904  0.3071
   87MOL0     H11454  10.168   6.632   8.524  4.2671  1.7104 -1.3692
   87MOL0     H11455  10.139   6.777   8.622 -3.9089 -2.2385  1.0123
   87MOL0     H11456  10.196   6.805   8.327 -1.8460  1.4654  1.7964
   87MOL0     H11457  10.256   6.900   8.459 -0.4977  0.9698 -1.8947
   87MOL0     H11458  10.346   6.608   8.406 -1.3911  0.5832 -4.3714
   87MOL0     H11459  10.417   6.736   8.516 -0.5206  1.7673  0.3671
   87MOL0     H11460  10.396   6.765   8.222 -0.9381 -2.4916 -0.5174
   87MOL0     H11461  10.529   6.659   8.283  2.2604  1.4586  1.8985
   87MOL0     H11462  10.514   6.958   8.383 -1.1885 -1.0281 -0.4725
   87MOL0     H11463  10.631   6.822   8.417 -0.8749 -2.1272  0.1118
   87MOL0     H11464  10.738   6.972   8.282 -0.1329 -0.2186  0.8957
   87MOL0     H11465  10.603   6.988   8.164 -0.2743 -0.8060  0.7510
   87MOL0     H11466   9.727   6.719   8.797 -2.0565 -2.2331 -0.0221
   87MOL0     H11467   9.528   6.746   8.915  0.1673 -0.2677 -0.7109
   87MOL0     H11468   9.121   7.217   8.896 -1.2858 -1.1347 -0.7823
   87MOL0     H11469   8.922   7.243   9.047 -2.0660 -2.1823 -2.8966
   87MOL0     H11470   7.129   6.465   9.170  3.3938  1.2400  0.3320
   87MOL0     H11471   6.926   6.537   9.106  0.9931  1.3810 -0.9157
   87MOL0     H11472   6.658   7.150   9.147  0.4420  0.1921  0.2796
   87MOL0     H11473   6.434   7.189   9.084 -2.2547 -1.9183 -1.0321
   87MOL0     H11474   6.216   7.095   8.950 -0.7835 -3.5167  0.2291
   87MOL0     H11475   6.218   7.221   9.071  1.2529 -0.1319  2.0525
   87MOL0     H11476   6.016   7.206   8.962 -3.0665  1.1559  1.6342
   87MOL0     H11477   5.978   7.043   9.013  1.0430 -0.2614 -2.2240
   87MOL0     H11478   6.016   7.308   9.175 -1.2318  0.5265  0.9571
   87MOL0     H11479   6.011   7.143   9.250 -0.3524  0.3091  1.1331
   87MOL0     H11480   5.778   7.117   9.150 -0.7375 -0.7986  1.6379
   87MOL0     H11481   5.793   7.245   9.273 -1.2277 -3.1947  1.8425
   87MOL0     H11482   5.702   7.478   8.947  1.0713  0.2312 -1.1304
   87MOL0     H11483   6.331   6.777   9.159  0.0862  0.1612  0.6736
   87MOL0     H11484   6.558   6.714   9.165  1.4420  0.2400 -0.6234
   88MOL0     O11485  10.106   9.244  10.436  0.0958 -0.3746  0.0200
   88MOL0     C11486  10.203   9.319  10.438 -0.0316  0.2985  0.0383
   88MOL0     O11487  10.196   9.455  10.452 -0.4506  0.6102 -0.3715
   88MOL0     C11488  10.074   9.517  10.454 -0.4736  0.2736 -0.9758
   88MOL0     C11489   9.988   9.513  10.564  0.7380  0.1379 -0.0180
   88MOL0     C11490   9.861   9.578  10.562  0.1784 -0.4605 -0.3545
   88MOL0     C11491   9.826   9.664  10.448  0.0550  0.7709 -0.8574
   88MOL0     O11492   9.706   9.735  10.434 -0.3856  0.5019  0.0570
   88MOL0     C11493   9.594   9.663  10.494 -0.8525  0.7745  0.4802
   88MOL0     C11494   9.466   9.727  10.453 -0.1582  0.3285  0.4319
   88MOL0     C11495   9.356   9.647  10.534 -0.2026 -0.1884 -0.6085
   88MOL0     C11496   9.219   9.679  10.478  0.6486  0.0295  0.7328
   88MOL0     C11497   9.170   9.824  10.473  0.1150 -1.0992 -0.5528
   88MOL0     C11498   9.024   9.837  10.509 -0.1400  0.5470  0.2600
   88MOL0     C11499   8.969   9.981  10.507 -0.1265 -0.0747  0.2345
   88MOL0     C11500   8.828   9.991  10.547  0.0308 -0.0651 -0.2013
   88MOL0     N11501   8.795   9.935  10.677 -0.3237  0.6920  0.7420
   88MOL0     C11502   8.701   9.842  10.704  0.3683 -0.6527  0.0850
   88MOL0     C11503   8.680   9.857  10.837  0.2776  0.5199 -0.3831
   88MOL0     C11504   8.585   9.778  10.918 -0.0694 -0.0429  0.1072
   88MOL0     C11505   8.431   9.812  10.891 -0.1343  0.5225  0.9001
   88MOL0     C11506   8.329   9.748  10.978 -0.0782 -0.1799  0.8593
   88MOL0     C11507   8.187   9.812  10.963  0.8258  0.8734  0.6556
   88MOL0     O11508   8.100   9.699  10.957 -0.4641  0.2922 -0.7360
   88MOL0     C11509   7.968   9.709  10.947  1.1903  0.0057  0.4885
   88MOL0     C11510   7.890   9.834  10.949  0.0392  0.2738  0.4673
   88MOL0     C11511   7.759   9.838  10.909  0.2588  0.4547 -0.4998
   88MOL0     C11512   7.689   9.721  10.879 -0.1133 -1.0220 -0.3340
   88MOL0     C11513   7.543   9.730  10.855 -0.1288  0.6601 -0.4393
   88MOL0     O11514   7.483   9.607  10.853  0.6220  0.0826 -0.8044
   88MOL0     C11515   7.356   9.585  10.806  0.0128 -1.5353  0.5564
   88MOL0     C11516   7.248   9.670  10.823  0.9236  0.5117 -0.3129
   88MOL0     C11517   7.115   9.641  10.785  0.7324  0.0392 -0.2688
   88MOL0     C11518   7.094   9.517  10.720  0.0315 -0.4497 -0.2311
   88MOL0     O11519   6.981   9.461  10.680  0.2913 -0.5060 -0.0392
   88MOL0     C11520   6.856   9.522  10.712  0.1352  0.7274 -0.5979
   88MOL0     C11521   6.753   9.408  10.717  0.1465  0.2588 -0.0017
   88MOL0     C11522   6.629   9.430  10.814 -0.2282 -0.2217  0.8570
   88MOL0     C11523   6.529   9.318  10.807 -0.7079  0.1744 -0.3669
   88MOL0     C11524   6.415   9.342  10.899  0.1049 -0.3449  0.7775
   88MOL0     C11525   6.316   9.443  10.844 -0.0532  0.1632  0.0551
   88MOL0     C11526   6.193   9.461  10.926 -1.1456 -0.0179 -0.0488
   88MOL0     C11527   6.224   9.545  11.040 -0.8297  0.1410  0.2359
   88MOL0    Cl11528   6.079   9.577  11.130  0.0043 -0.5187  0.4020
   88MOL0     C11529   7.202   9.444  10.679  0.0107 -0.1486  0.4796
   88MOL0     C11530   7.340   9.479  10.718  1.2314  0.3597  0.1143
   88MOL0     O11531   7.486   9.843  10.847  0.1186 -0.0556  0.2089
   88MOL0     C11532   7.754   9.600  10.881  0.2956 -0.0158 -0.4513
   88MOL0     C11533   7.895   9.595  10.903 -0.4724  0.0869 -0.5505
   88MOL0     N11534   8.767   9.950  10.888 -0.0823 -0.3101 -0.1011
   88MOL0     N11535   8.837   9.998  10.787  0.8965  0.2289 -0.8478
   88MOL0     C11536   9.919   9.665  10.336 -0.4173 -0.6333  0.0102
   88MOL0     C11537  10.035   9.593  10.343 -0.0288 -0.1893 -0.0224
   88MOL0     C11538  10.328   9.249  10.429 -0.6730 -0.6045  0.1734
   88MOL0     C11539  10.442   9.329  10.465 -0.4741  0.2565 -0.3944
   88MOL0     C11540  10.573   9.267  10.468  0.2822  0.0629 -0.1914
   88MOL0     C11541  10.583   9.136  10.425  0.0910  0.8216 -0.0795
   88MOL0     O11542  10.692   9.062  10.396  0.3494  0.2397 -0.3021
   88MOL0     C11543  10.823   9.131  10.411 -0.1089  0.3735  0.7105
   88MOL0     C11544  10.878   9.103  10.549 -0.6893  0.7435 -0.3518
   88MOL0     C11545  10.972   9.217  10.587 -0.1737 -0.0433 -0.4112
   88MOL0     C11546  11.045   9.182  10.716  0.2949  0.3347  1.0660
   88MOL0     C11547  11.132   9.062  10.714 -0.2132  0.0297 -0.2882
   88MOL0     C11548  11.193   8.955  10.711 -0.0652  0.4348  0.1752
   88MOL0     C11549  10.472   9.063  10.378  1.0733 -0.6086 -0.1134
   88MOL0     C11550  10.347   9.116  10.382  0.6752  0.0499  0.3631
   88MOL0     H11551  10.019   9.445  10.643  3.1745  0.3572 -0.7058
   88MOL0     H11552   9.801   9.577  10.652 -0.3582  2.0002 -0.6144
   88MOL0     H11553   9.606   9.681  10.601  2.2528  2.5715 -0.0522
   88MOL0     H11554   9.604   9.557  10.470  0.1684  1.3159 -1.8141
   88MOL0     H11555   9.445   9.722  10.346  0.6877 -0.1848  0.2761
   88MOL0     H11556   9.468   9.831  10.486  1.4408  0.2006  0.8151
   88MOL0     H11557   9.357   9.667  10.642  1.8623 -1.5728 -0.2995
   88MOL0     H11558   9.379   9.540  10.537  0.4870 -0.0294  0.4418
   88MOL0     H11559   9.223   9.648  10.374  1.0255  0.8139  0.5083
   88MOL0     H11560   9.136   9.626  10.524 -1.1066  1.9055 -0.1138
   88MOL0     H11561   9.186   9.875  10.378  1.0275  1.2974  0.7984
   88MOL0     H11562   9.235   9.880  10.542  2.0854 -0.6338 -2.6626
   88MOL0     H11563   9.011   9.799  10.611  0.2914 -0.2373  0.0253
   88MOL0     H11564   8.968   9.782  10.433  1.7690  1.5393 -2.0004
   88MOL0     H11565   9.029  10.049  10.569  1.1282 -1.0978  0.1885
   88MOL0     H11566   8.972  10.022  10.406 -3.3782 -0.4883 -0.1170
   88MOL0     H11567   8.771   9.933  10.473 -0.8907  0.2373  0.2462
   88MOL0     H11568   8.797  10.096  10.549  4.0288  1.2760  0.2741
   88MOL0     H11569   8.639   9.783  10.637  1.5722 -1.6018 -0.2164
   88MOL0     H11570   8.596   9.802  11.024 -0.5251 -1.0843  0.4011
   88MOL0     H11571   8.612   9.672  10.919  0.4170  0.0872  1.5361
   88MOL0     H11572   8.407   9.785  10.788  3.7672  1.2773 -0.3630
   88MOL0     H11573   8.421   9.920  10.904  0.0050  0.6049  0.3338
   88MOL0     H11574   8.320   9.647  10.938 -2.1905 -0.0553  0.9192
   88MOL0     H11575   8.362   9.741  11.082  2.1083  1.8198  0.3784
   88MOL0     H11576   8.175   9.853  10.862 -2.2611 -1.3154 -0.0053
   88MOL0     H11577   8.154   9.881  11.041 -1.7813  0.8224 -0.3035
   88MOL0     H11578   7.938   9.929  10.972  1.2154  0.5961 -2.7122
   88MOL0     H11579   7.722   9.940  10.914 -0.5679  0.0844  2.2064
   88MOL0     H11580   7.266   9.767  10.870  1.3041  2.8715 -4.7169
   88MOL0     H11581   7.035   9.704  10.822  1.1871 -0.4361  1.6103
   88MOL0     H11582   6.826   9.601  10.643  2.4007  3.0053  0.8376
   88MOL0     H11583   6.858   9.573  10.809  0.3239  0.4987 -0.4796
   88MOL0     H11584   6.800   9.315  10.750  0.5577  0.5344  0.1990
   88MOL0     H11585   6.700   9.406  10.621  0.7197  2.3858 -0.4200
   88MOL0     H11586   6.595   9.528  10.780 -0.9309 -1.2988 -1.7635
   88MOL0     H11587   6.657   9.446  10.918  0.0255  0.8584  0.6341
   88MOL0     H11588   6.486   9.292  10.710 -1.6335  2.6429 -0.6969
   88MOL0     H11589   6.580   9.236  10.858  0.8214  2.3662  1.8776
   88MOL0     H11590   6.455   9.360  10.999 -0.1544 -0.0926  0.8370
   88MOL0     H11591   6.362   9.247  10.909  3.0902 -2.0564  1.7366
   88MOL0     H11592   6.287   9.405  10.745  1.2924 -2.1822  0.4913
   88MOL0     H11593   6.373   9.535  10.832 -2.0814  1.2218 -2.1984
   88MOL0     H11594   6.118   9.515  10.868 -0.3177  2.5306  1.1166
   88MOL0     H11595   6.154   9.363  10.955  1.3473 -1.0899 -0.0493
   88MOL0     H11596   6.271   9.640  11.014 -0.2129 -1.0955 -4.0296
   88MOL0     H11597   6.303   9.496  11.097 -2.2231  0.4232  2.5348
   88MOL0     H11598   7.190   9.362  10.610  0.5503  0.7617 -0.7314
   88MOL0     H11599   7.409   9.400  10.688  0.4618  0.7442 -2.9589
   88MOL0     H11600   7.698   9.510  10.856 -1.5394  0.8755  0.2710
   88MOL0     H11601   7.948   9.501  10.890 -1.0770 -0.1588 -1.3449
   88MOL0     H11602   9.899   9.733  10.255 -1.0133  0.1232  0.7722
   88MOL0     H11603  10.105   9.595  10.260 -1.6018 -0.1267 -1.4119
   88MOL0     H11604  10.436   9.434  10.491 -1.7554  0.1023  0.0187
   88MOL0     H11605  10.660   9.325  10.495 -0.7919  0.8366  1.8671
   88MOL0     H11606  10.808   9.237  10.390  3.6358  0.9295  0.2562
   88MOL0     H11607  10.900   9.099  10.341 -0.7514 -0.3998  0.3414
   88MOL0     H11608  10.786   9.084  10.606 -1.5391  0.4306 -1.7634
   88MOL0     H11609  10.933   9.010  10.533 -1.5190  0.3697 -1.1919
   88MOL0     H11610  10.919   9.309  10.616  1.7062  1.6066 -1.8752
   88MOL0     H11611  11.042   9.235  10.505 -0.3191  0.7023 -0.3770
   88MOL0     H11612  11.093   9.273  10.752 -0.8925  0.9097  1.2210
   88MOL0     H11613  10.980   9.160  10.801 -0.9806 -2.0274 -0.3946
   88MOL0     H11614  11.246   8.862  10.712 -2.2132 -0.8845  2.3638
   88MOL0     H11615  10.470   8.962  10.339 -0.3392 -0.8082  0.4189
   88MOL0     H11616  10.255   9.072  10.344 -0.1247 -0.5633  2.7893
   89MOL0     O11617   7.712   2.810   2.656  0.5344  0.8250  0.1464
   89MOL0     C11618   7.741   2.843   2.546  0.0751  0.6063  0.3258
   89MOL0     O11619   7.688   2.806   2.432  0.2781 -0.1148 -0.8626
   89MOL0     C11620   7.577   2.723   2.447 -0.3338  0.4449  0.0266
   89MOL0     C11621   7.590   2.593   2.402 -0.1924 -0.1876  0.6713
   89MOL0     C11622   7.490   2.499   2.413  1.1034 -0.6734 -0.7270
   89MOL0     C11623   7.367   2.542   2.476  0.1145  0.6134 -0.6941
   89MOL0     O11624   7.261   2.458   2.489 -0.4408 -0.3738 -0.1181
   89MOL0     C11625   7.132   2.506   2.489 -0.1708 -0.3756 -0.1907
   89MOL0     C11626   7.083   2.508   2.634  0.3788 -0.0519 -0.5854
   89MOL0     C11627   6.957   2.590   2.640  0.5842  0.2572 -0.0669
   89MOL0     C11628   6.917   2.642   2.783 -0.2810 -0.3319  0.6356
   89MOL0     C11629   6.803   2.746   2.771 -0.6399  0.3874  0.3055
   89MOL0     C11630   6.685   2.707   2.857  0.0659 -0.4197  0.0279
   89MOL0     C11631   6.572   2.822   2.848 -0.6547 -0.6807  1.0926
   89MOL0     C11632   6.583   2.924   2.950  0.4421 -0.2985 -1.2117
   89MOL0     N11633   6.689   3.015   2.924  0.1608 -0.7507  0.1434
   89MOL0     C11634   6.795   3.018   3.010  0.4532 -0.9942  0.2718
   89MOL0     C11635   6.861   3.138   2.965 -0.9766  0.3266  0.2281
   89MOL0     C11636   6.987   3.206   3.019 -1.3751  0.1930  0.1858
   89MOL0     C11637   6.959   3.312   3.119  0.8128 -0.2355  0.4771
   89MOL0     C11638   6.933   3.256   3.256  0.1375  0.2426 -0.3810
   89MOL0     C11639   6.785   3.213   3.273 -0.0233 -0.7134  0.6359
   89MOL0     O11640   6.703   3.306   3.348 -0.1445  1.0629  0.5016
   89MOL0     C11641   6.566   3.293   3.331  0.2777  0.5203 -0.3591
   89MOL0     C11642   6.502   3.214   3.229 -0.4431 -0.2692 -0.4533
   89MOL0     C11643   6.360   3.227   3.209 -0.1710  1.0106 -0.4735
   89MOL0     C11644   6.281   3.304   3.291  0.8035  0.0729 -0.6553
   89MOL0     C11645   6.133   3.324   3.268 -0.0316 -0.3100 -0.2338
   89MOL0     O11646   6.088   3.260   3.157  0.3894  0.8174  0.1853
   89MOL0     C11647   5.959   3.265   3.114 -0.0445  0.4254 -0.5411
   89MOL0     C11648   5.912   3.147   3.047  0.4425  0.6651 -0.3539
   89MOL0     C11649   5.776   3.148   2.999  0.5884  0.2552 -0.2521
   89MOL0     C11650   5.695   3.255   3.015  0.8721  0.1611  0.7171
   89MOL0     O11651   5.559   3.267   2.983 -0.1694 -0.3151  0.0574
   89MOL0     C11652   5.487   3.147   2.936 -0.1284 -0.5165  0.3337
   89MOL0     C11653   5.333   3.168   2.959 -0.8720 -0.5927 -0.0777
   89MOL0     C11654   5.263   3.266   2.861  0.3663  0.2919 -0.2836
   89MOL0     C11655   5.117   3.294   2.918 -0.0669 -0.1451  0.0034
   89MOL0     C11656   5.039   3.404   2.833 -0.5198 -0.1450  0.4869
   89MOL0     C11657   4.889   3.412   2.864  0.7698 -0.4476  0.3041
   89MOL0     C11658   4.796   3.510   2.799  0.2569  0.5297  0.5454
   89MOL0     C11659   4.849   3.649   2.807  0.4228 -0.6775  0.3679
   89MOL0    Cl11660   4.710   3.749   2.729  0.0393 -0.4388  0.2344
   89MOL0     C11661   5.748   3.366   3.078 -0.2966 -0.6203  0.1208
   89MOL0     C11662   5.877   3.373   3.125  0.4730 -0.2373  0.4943
   89MOL0     O11663   6.069   3.395   3.345 -0.0833 -0.1699  0.6280
   89MOL0     C11664   6.344   3.367   3.402 -0.2049  1.0267  0.2627
   89MOL0     C11665   6.480   3.368   3.412 -1.0232 -0.4750 -0.2558
   89MOL0     N11666   6.798   3.182   2.853  0.5832  0.2431 -0.8627
   89MOL0     N11667   6.690   3.117   2.836  0.2756  0.9258  1.0721
   89MOL0     C11668   7.357   2.673   2.528 -0.2842 -0.6836 -0.2417
   89MOL0     C11669   7.462   2.764   2.512 -0.2962  1.0134  0.2170
   89MOL0     C11670   7.835   2.950   2.539 -0.2122 -0.5715 -0.0735
   89MOL0     C11671   7.863   3.048   2.635  0.4637 -0.3754 -0.0563
   89MOL0     C11672   7.966   3.144   2.617 -0.0780 -0.3977 -1.2600
   89MOL0     C11673   8.044   3.143   2.504  0.5926 -0.1905  0.5059
   89MOL0     O11674   8.149   3.233   2.479 -0.2173  0.3387  0.0878
   89MOL0     C11675   8.264   3.240   2.566 -0.0737  0.3688  0.6505
   89MOL0     C11676   8.343   3.117   2.542 -0.2136 -0.9130  1.0052
   89MOL0     C11677   8.498   3.148   2.559  0.6100  0.6191  0.3213
   89MOL0     C11678   8.565   3.230   2.449  0.6306  0.8079 -0.1222
   89MOL0     C11679   8.714   3.216   2.452 -0.3420  0.1766  0.4767
   89MOL0     C11680   8.832   3.222   2.476 -0.0901 -0.0522 -0.1658
   89MOL0     C11681   8.025   3.038   2.413  0.4901  0.6575  0.3094
   89MOL0     C11682   7.923   2.951   2.425  0.6231 -0.3223 -0.0931
   89MOL0     H11683   7.680   2.566   2.347 -2.6554 -2.7237 -2.5931
   89MOL0     H11684   7.508   2.401   2.371  0.0607 -0.5830 -1.4132
   89MOL0     H11685   7.067   2.447   2.424  0.3790  1.8404 -2.9423
   89MOL0     H11686   7.125   2.610   2.456 -0.3526  0.0698  1.2054
   89MOL0     H11687   7.156   2.538   2.710  0.2961 -2.3032  0.4840
   89MOL0     H11688   7.072   2.405   2.670  2.0993  0.3313  1.2406
   89MOL0     H11689   6.876   2.538   2.588 -1.0729  2.9582 -0.3634
   89MOL0     H11690   6.968   2.680   2.578  0.2656  0.8858  0.7656
   89MOL0     H11691   6.886   2.547   2.828 -1.9805 -0.7191 -1.2243
   89MOL0     H11692   6.998   2.694   2.834 -0.4166  1.7383 -1.1377
   89MOL0     H11693   6.770   2.742   2.666  0.6446  0.2346 -0.1075
   89MOL0     H11694   6.839   2.849   2.777 -1.3436  0.9423 -2.9523
   89MOL0     H11695   6.702   2.689   2.963 -1.6828 -1.9568  0.0943
   89MOL0     H11696   6.659   2.609   2.815 -0.5565  0.6902 -2.3913
   89MOL0     H11697   6.571   2.860   2.746  0.0559 -1.4694  0.7827
   89MOL0     H11698   6.476   2.775   2.874 -0.4549 -0.7702  1.6883
   89MOL0     H11699   6.613   2.879   3.045 -0.1633  0.5659 -0.5947
   89MOL0     H11700   6.486   2.974   2.957 -0.5687 -2.4177  3.0245
   89MOL0     H11701   6.822   2.956   3.094 -1.4093 -0.1862  1.5338
   89MOL0     H11702   7.046   3.252   2.939  0.7373  0.3111  1.7334
   89MOL0     H11703   7.057   3.131   3.059 -0.1904  0.8677 -0.5389
   89MOL0     H11704   6.879   3.380   3.088  1.9543  1.1673  0.5179
   89MOL0     H11705   7.055   3.364   3.121  0.6082  0.1562  0.1923
   89MOL0     H11706   6.997   3.174   3.291 -0.7533 -0.0143  0.7027
   89MOL0     H11707   6.957   3.344   3.316  0.3244  2.1138 -3.0067
   89MOL0     H11708   6.788   3.111   3.313 -0.6241 -1.2102 -0.5268
   89MOL0     H11709   6.746   3.206   3.171  0.6118 -1.3438  0.4231
   89MOL0     H11710   6.550   3.158   3.150 -1.7115 -1.4933 -0.3988
   89MOL0     H11711   6.319   3.169   3.127  2.1467 -2.8062  0.7799
   89MOL0     H11712   5.973   3.059   3.030 -0.6756  0.1664 -1.9965
   89MOL0     H11713   5.740   3.059   2.949 -1.4980  1.1591 -0.4979
   89MOL0     H11714   5.516   3.059   2.994  0.1815 -1.9210 -1.8325
   89MOL0     H11715   5.518   3.129   2.832  1.4963 -0.0713  0.7195
   89MOL0     H11716   5.316   3.215   3.056 -0.5578 -2.7280  1.0723
   89MOL0     H11717   5.281   3.073   2.972 -1.0929 -0.0515  4.5979
   89MOL0     H11718   5.244   3.220   2.763 -2.5105  0.4807  0.1017
   89MOL0     H11719   5.318   3.360   2.848  0.8732  0.1033  0.4180
   89MOL0     H11720   5.058   3.207   2.947 -1.7209  1.4041  1.5165
   89MOL0     H11721   5.129   3.340   3.016  1.4655  0.9586 -0.6552
   89MOL0     H11722   5.056   3.389   2.726  3.0687  4.9335 -0.0117
   89MOL0     H11723   5.080   3.499   2.869 -2.9068  1.0772  0.1202
   89MOL0     H11724   4.883   3.432   2.972 -2.1017 -1.1205  0.3610
   89MOL0     H11725   4.853   3.310   2.849 -4.0923  0.5936  2.6600
   89MOL0     H11726   4.780   3.480   2.695  0.6756  0.0618  0.6130
   89MOL0     H11727   4.700   3.518   2.850  0.8961 -0.0606  1.8669
   89MOL0     H11728   4.948   3.671   2.765  1.3587 -0.6375  2.4668
   89MOL0     H11729   4.855   3.680   2.912 -2.0613  0.4997  0.2330
   89MOL0     H11730   5.681   3.448   3.102  3.9123  2.8617  1.3212
   89MOL0     H11731   5.905   3.467   3.171  0.6950 -0.1098  0.1055
   89MOL0     H11732   6.291   3.413   3.484  0.7767  0.9925  0.9337
   89MOL0     H11733   6.515   3.432   3.493 -1.3998 -1.0360  0.3674
   89MOL0     H11734   7.265   2.703   2.576 -0.4993  0.3445 -1.2558
   89MOL0     H11735   7.462   2.860   2.563 -1.4162  1.1267  0.0353
   89MOL0     H11736   7.802   3.049   2.724 -1.4155 -3.3001 -1.1708
   89MOL0     H11737   7.983   3.220   2.692 -3.2264  0.6007 -1.4311
   89MOL0     H11738   8.229   3.258   2.669 -1.9100  0.8096 -0.0066
   89MOL0     H11739   8.322   3.323   2.526 -2.1462  0.5866 -2.1809
   89MOL0     H11740   8.305   3.044   2.615 -2.5015 -1.4688 -0.6362
   89MOL0     H11741   8.321   3.078   2.442 -0.9911  0.3717  0.6594
   89MOL0     H11742   8.537   3.046   2.563 -1.7767 -0.4188 -0.8525
   89MOL0     H11743   8.514   3.190   2.658 -0.0938 -4.2334  2.8170
   89MOL0     H11744   8.535   3.191   2.351  1.3503  1.9455 -0.8322
   89MOL0     H11745   8.544   3.338   2.443  2.2552  1.1021 -1.2644
   89MOL0     H11746   8.937   3.232   2.494 -0.5700  4.0008  1.4882
   89MOL0     H11747   8.101   3.027   2.337 -0.2418  2.7406 -0.7992
   89MOL0     H11748   7.927   2.877   2.346 -3.8354 -0.0811 -0.8228
   90MOL0     O11749   3.332   8.262   9.772  0.5370  0.3738  0.3232
   90MOL0     C11750   3.404   8.191   9.841  0.5541  0.0213  0.5523
   90MOL0     O11751   3.360   8.078   9.904 -0.2796 -0.2455  0.3065
   90MOL0     C11752   3.229   8.055   9.934 -0.8587  0.1222  0.3855
   90MOL0     C11753   3.200   7.934   9.984 -0.2117  0.3181 -0.1101
   90MOL0     C11754   3.071   7.894  10.026  0.0168  0.0141  0.5111
   90MOL0     C11755   2.966   7.983  10.019  1.2728 -0.9690  0.3637
   90MOL0     O11756   2.844   7.957  10.069  0.0900  0.1750  0.5144
   90MOL0     C11757   2.760   7.858  10.013 -0.2210 -1.1549 -0.1740
   90MOL0     C11758   2.615   7.900  10.033 -0.0103  0.4393 -0.2289
   90MOL0     C11759   2.581   7.912  10.181 -0.3450 -0.0562 -0.0664
   90MOL0     C11760   2.428   7.929  10.189 -0.1687 -0.7469 -0.8867
   90MOL0     C11761   2.353   7.800  10.154  0.2359 -0.6387 -0.4741
   90MOL0     C11762   2.199   7.803  10.156  0.0085 -0.1019 -0.1434
   90MOL0     C11763   2.134   7.783  10.297  0.3697 -0.1786 -0.5089
   90MOL0     C11764   2.001   7.730  10.276 -0.5514  0.4352  1.0011
   90MOL0     N11765   1.925   7.725  10.402  0.4635 -0.2189 -0.2090
   90MOL0     C11766   1.895   7.832  10.491  0.5667 -0.0503  0.2502
   90MOL0     C11767   1.821   7.785  10.588 -0.4825 -0.3117  0.2323
   90MOL0     C11768   1.758   7.873  10.689 -0.0772  0.3447  0.2040
   90MOL0     C11769   1.633   7.938  10.612 -0.1448 -0.0442  1.4027
   90MOL0     C11770   1.564   8.043  10.701  0.0473  0.0442 -0.1636
   90MOL0     C11771   1.444   8.130  10.653  0.1671  0.1382 -1.0677
   90MOL0     O11772   1.338   8.051  10.599 -0.2140 -0.3471 -0.0787
   90MOL0     C11773   1.226   8.114  10.550 -0.0801 -0.1957 -0.4583
   90MOL0     C11774   1.205   8.252  10.551 -0.6036  0.4842 -0.9047
   90MOL0     C11775   1.082   8.306  10.506 -0.6351 -0.2425 -0.2727
   90MOL0     C11776   0.986   8.225  10.457  0.2632 -0.1707  0.4326
   90MOL0     C11777   0.859   8.278  10.411  0.1018  0.5919 -0.7483
   90MOL0     O11778   0.817   8.384  10.477  0.0388 -0.7462  0.3756
   90MOL0     C11779   0.686   8.431  10.471 -1.1141  0.3139  0.7543
   90MOL0     C11780   0.663   8.555  10.507  0.1165 -0.5600 -0.7856
   90MOL0     C11781   0.538   8.609  10.518  0.6262  0.6939 -0.0641
   90MOL0     C11782   0.420   8.532  10.473 -0.7443 -0.1804 -0.4343
   90MOL0     O11783   0.292   8.580  10.486 -0.2330  0.2397  0.5223
   90MOL0     C11784   0.176   8.537  10.411  0.1798  0.6394  0.5181
   90MOL0     C11785   0.087   8.659  10.396  0.4451  0.2477  0.1550
   90MOL0     C11786  -0.060   8.624  10.372 -0.1359  1.2406  0.1561
   90MOL0     C11787  -0.130   8.763  10.345  0.3784 -0.3951 -0.9931
   90MOL0     C11788  -0.270   8.767  10.305  0.7819 -0.6691 -0.9250
   90MOL0     C11789  -0.351   8.653  10.362 -0.5622  0.4693 -0.2455
   90MOL0     C11790  -0.504   8.682  10.353 -0.0288 -0.0014  0.0209
   90MOL0     C11791  -0.579   8.586  10.437 -0.9128 -0.3766 -0.0857
   90MOL0    Cl11792  -0.745   8.641  10.421 -0.1389 -0.0252 -0.0237
   90MOL0     C11793   0.445   8.398  10.439  0.1993 -0.3567 -0.6456
   90MOL0     C11794   0.576   8.346  10.439  0.2441 -0.3409  0.0413
   90MOL0     O11795   0.794   8.218  10.322  0.1266 -0.7512 -0.7927
   90MOL0     C11796   1.005   8.088  10.457  0.3625  1.2123  0.4080
   90MOL0     C11797   1.124   8.027  10.503  0.0237  0.2725  0.0289
   90MOL0     N11798   1.840   7.644  10.581 -0.8052  0.2455  0.0027
   90MOL0     N11799   1.898   7.612  10.472  0.3585 -0.2347 -0.4049
   90MOL0     C11800   2.991   8.113   9.974 -0.4492 -0.8571 -0.5484
   90MOL0     C11801   3.118   8.146   9.932  0.1506  0.6165  0.2469
   90MOL0     C11802   3.550   8.211   9.846  0.5197  0.5096 -0.0530
   90MOL0     C11803   3.621   8.185   9.960 -0.5003  0.1969 -0.9548
   90MOL0     C11804   3.751   8.216   9.974 -0.2555  0.6359 -0.2370
   90MOL0     C11805   3.821   8.286   9.873 -0.8676  0.5006 -0.2300
   90MOL0     O11806   3.959   8.316   9.887 -0.2036 -0.0985 -0.5039
   90MOL0     C11807   4.033   8.374   9.771 -0.2217 -0.0513  0.1590
   90MOL0     C11808   4.185   8.352   9.773  0.0764  1.2485 -0.4745
   90MOL0     C11809   4.216   8.212   9.712 -0.4465  0.7972 -1.0795
   90MOL0     C11810   4.362   8.162   9.719  0.6684 -0.5621 -0.3018
   90MOL0     C11811   4.440   8.259   9.642 -0.0445  0.0700 -0.1915
   90MOL0     C11812   4.510   8.336   9.576 -0.0171  0.0674  0.0464
   90MOL0     C11813   3.739   8.336   9.767 -0.5852 -0.7701 -0.3436
   90MOL0     C11814   3.605   8.294   9.750  0.4415 -1.0919 -0.6914
   90MOL0     H11815   3.272   7.859  10.017  2.4616  1.6743 -2.3993
   90MOL0     H11816   3.057   7.800  10.079  0.0444 -0.7795 -0.8438
   90MOL0     H11817   2.787   7.756  10.044  2.1054 -1.2631 -2.2410
   90MOL0     H11818   2.776   7.854   9.905  2.4699  2.5462 -0.1021
   90MOL0     H11819   2.559   7.826   9.974  0.6204  0.5986 -1.0508
   90MOL0     H11820   2.611   7.998   9.986 -0.8830  1.8046  2.5254
   90MOL0     H11821   2.638   7.990  10.234  0.9575  0.4207 -2.0450
   90MOL0     H11822   2.604   7.822  10.238  1.2194  3.7637  6.3509
   90MOL0     H11823   2.387   7.963  10.285  0.4241 -2.7229  0.1328
   90MOL0     H11824   2.385   8.004  10.123  0.0099  1.1316  1.0152
   90MOL0     H11825   2.377   7.714  10.218 -1.7697 -0.3217  0.7985
   90MOL0     H11826   2.374   7.790  10.048  0.8358 -1.4360 -0.2911
   90MOL0     H11827   2.157   7.724  10.092 -1.7552 -0.6385  1.5944
   90MOL0     H11828   2.162   7.899  10.117 -1.2122 -0.0456  1.0551
   90MOL0     H11829   2.184   7.712  10.364 -0.8547  1.1913  1.9950
   90MOL0     H11830   2.110   7.868  10.362  1.5671 -0.4076  0.2647
   90MOL0     H11831   2.006   7.631  10.229 -1.1184  0.2257  1.3690
   90MOL0     H11832   1.951   7.795  10.203  0.1662  2.8016  2.5114
   90MOL0     H11833   1.922   7.934  10.469  3.7430 -1.5491 -4.1103
   90MOL0     H11834   1.832   7.940  10.734 -0.7772 -0.8191  3.3065
   90MOL0     H11835   1.720   7.823  10.779  0.1166 -2.1622 -1.0024
   90MOL0     H11836   1.563   7.857  10.592 -0.3639  0.7590 -1.4588
   90MOL0     H11837   1.661   7.982  10.516  0.4750 -0.7314  1.2632
   90MOL0     H11838   1.539   7.994  10.796  0.7037 -1.8140 -0.9047
   90MOL0     H11839   1.638   8.118  10.731 -2.0189  2.2990 -0.3523
   90MOL0     H11840   1.479   8.197  10.574  0.8801  0.4071 -0.5322
   90MOL0     H11841   1.400   8.181  10.739  0.8557 -0.3526 -0.4068
   90MOL0     H11842   1.283   8.319  10.587  0.4079 -1.0081 -0.2317
   90MOL0     H11843   1.073   8.414  10.503 -0.6805 -0.1710  1.5857
   90MOL0     H11844   0.740   8.630  10.520  1.3479 -1.8301 -0.5451
   90MOL0     H11845   0.519   8.711  10.551  2.8153  1.8120 -1.9691
   90MOL0     H11846   0.131   8.452  10.462  1.0092 -0.3675 -0.3934
   90MOL0     H11847   0.211   8.509  10.311 -3.3090 -1.0174 -0.3780
   90MOL0     H11848   0.121   8.719  10.311 -2.2433  1.1143 -0.3968
   90MOL0     H11849   0.082   8.723  10.484  0.9697  3.5345 -2.0079
   90MOL0     H11850  -0.106   8.575  10.459 -0.4675  0.9231 -0.1945
   90MOL0     H11851  -0.079   8.565  10.282  1.2991 -1.0132  1.2401
   90MOL0     H11852  -0.128   8.808  10.444 -3.3174  0.3708 -1.1181
   90MOL0     H11853  -0.077   8.835  10.282 -0.6307  2.2629  0.9990
   90MOL0     H11854  -0.268   8.761  10.195  0.4742 -1.4419 -0.8873
   90MOL0     H11855  -0.308   8.859  10.351 -0.2066 -1.2036 -0.6583
   90MOL0     H11856  -0.331   8.638  10.468 -3.7800 -3.0770  0.0617
   90MOL0     H11857  -0.337   8.555  10.315 -1.2782  1.1509 -1.9621
   90MOL0     H11858  -0.524   8.787  10.377 -0.4947 -0.3678  1.3176
   90MOL0     H11859  -0.543   8.668  10.251 -3.3549  2.7992  0.7085
   90MOL0     H11860  -0.537   8.580  10.538  0.1541 -0.1736 -0.5059
   90MOL0     H11861  -0.565   8.484  10.401 -2.0996 -1.1536  1.4994
   90MOL0     H11862   0.365   8.329  10.416 -0.6097  0.3590 -0.0660
   90MOL0     H11863   0.593   8.241  10.418 -0.1427 -0.4993  0.4824
   90MOL0     H11864   0.934   8.010  10.431 -1.0973  2.5231  0.3725
   90MOL0     H11865   1.151   7.923  10.493  2.7483  1.0321 -1.7020
   90MOL0     H11866   2.917   8.192   9.967  1.1047  0.6674 -0.4741
   90MOL0     H11867   3.128   8.246   9.892 -0.2453 -0.3846 -2.5250
   90MOL0     H11868   3.576   8.127  10.040 -2.1410  0.4381 -1.6615
   90MOL0     H11869   3.808   8.193  10.063 -1.2709  0.8229  0.4732
   90MOL0     H11870   4.013   8.481   9.774  2.3550  0.5062 -0.4345
   90MOL0     H11871   3.985   8.331   9.682  0.1486  1.4454 -0.7889
   90MOL0     H11872   4.229   8.417   9.696  1.8036 -1.2211 -1.7274
   90MOL0     H11873   4.223   8.364   9.875 -0.9821  1.2745 -0.0767
   90MOL0     H11874   4.177   8.210   9.610 -0.9937 -1.9203 -0.8832
   90MOL0     H11875   4.172   8.131   9.771  1.3530  0.6176  0.0881
   90MOL0     H11876   4.406   8.149   9.818 -0.6027 -1.1877  0.2072
   90MOL0     H11877   4.353   8.063   9.674 -3.5731  0.0850 -1.2802
   90MOL0     H11878   4.568   8.406   9.520 -2.0049  1.1965 -0.6948
   90MOL0     H11879   3.770   8.402   9.687 -4.2280 -0.2680 -1.5535
   90MOL0     H11880   3.542   8.339   9.675  0.9561 -0.9226 -1.0281
   91MOL0     O11881   4.378   4.423   4.736 -0.3097  0.4761 -0.3220
   91MOL0     C11882   4.357   4.400   4.617  1.0467  0.5438 -0.0871
   91MOL0     O11883   4.235   4.368   4.569  0.2489  0.6291 -0.5458
   91MOL0     C11884   4.141   4.313   4.646  1.3626 -0.4206 -0.0634
   91MOL0     C11885   4.158   4.205   4.739  0.9743 -0.0701 -0.2310
   91MOL0     C11886   4.037   4.161   4.807 -0.0638  0.5638  0.1430
   91MOL0     C11887   3.913   4.212   4.777  0.5926 -0.0891 -0.6194
   91MOL0     O11888   3.801   4.183   4.846  1.6877 -0.3996 -0.2999
   91MOL0     C11889   3.796   4.065   4.926 -0.0559 -0.1265 -0.6657
   91MOL0     C11890   3.647   4.023   4.927  0.0374 -0.3395  0.5663
   91MOL0     C11891   3.609   3.931   4.810  0.4145  0.1538 -0.6678
   91MOL0     C11892   3.449   3.934   4.791 -0.1915  0.0003  0.8769
   91MOL0     C11893   3.391   3.861   4.667 -0.7600  0.5401 -1.1126
   91MOL0     C11894   3.242   3.860   4.703  0.2172  0.3424 -0.3361
   91MOL0     C11895   3.162   3.782   4.603  0.5789 -0.2207  0.0299
   91MOL0     C11896   3.020   3.747   4.654  0.2739  0.0001  0.1521
   91MOL0     N11897   2.927   3.864   4.666 -0.7055  0.4481 -0.0761
   91MOL0     C11898   2.836   3.899   4.570  0.4089  0.1685  0.3614
   91MOL0     C11899   2.747   3.979   4.638  0.1877  0.1774 -0.4240
   91MOL0     C11900   2.622   4.032   4.586  0.8737  0.2976 -0.3149
   91MOL0     C11901   2.516   3.920   4.579  0.1067  0.1266  0.1696
   91MOL0     C11902   2.469   3.888   4.723 -0.6493  0.4735  0.0856
   91MOL0     C11903   2.352   3.971   4.765 -0.5582 -0.2788 -0.5661
   91MOL0     O11904   2.296   3.911   4.881  0.7028  0.4706 -0.2651
   91MOL0     C11905   2.177   3.963   4.933 -0.2486  0.2613  0.3719
   91MOL0     C11906   2.112   4.082   4.895  0.1291 -0.7194  0.2809
   91MOL0     C11907   2.001   4.131   4.975  0.1333  0.2304 -0.1556
   91MOL0     C11908   1.956   4.058   5.088  0.2066 -0.4897 -0.0399
   91MOL0     C11909   1.837   4.100   5.167  0.2727  1.2855  0.5878
   91MOL0     O11910   1.798   4.020   5.284  0.3254 -0.2156 -0.0745
   91MOL0     C11911   1.670   4.049   5.332  0.0023 -0.5750 -0.4507
   91MOL0     C11912   1.558   4.056   5.254 -0.0568  0.2448 -0.0288
   91MOL0     C11913   1.432   4.102   5.304 -0.3120 -0.3601 -0.3373
   91MOL0     C11914   1.420   4.136   5.438 -0.6200 -0.0838 -0.6705
   91MOL0     O11915   1.314   4.196   5.505  0.0941 -0.4695  0.0737
   91MOL0     C11916   1.213   4.268   5.427  0.1467  0.1145 -0.2166
   91MOL0     C11917   1.118   4.351   5.515  0.0153 -0.7982  0.1394
   91MOL0     C11918   1.037   4.273   5.626 -0.6909 -0.5660 -0.0660
   91MOL0     C11919   0.946   4.367   5.702 -0.1571 -0.3573  0.7732
   91MOL0     C11920   0.816   4.294   5.726 -0.7492 -1.1790  0.2112
   91MOL0     C11921   0.723   4.372   5.817  0.0160  0.1277  0.0910
   91MOL0     C11922   0.620   4.445   5.735  0.4568 -0.3611  0.0407
   91MOL0     C11923   0.524   4.531   5.818 -1.1280 -0.7631  0.4267
   91MOL0    Cl11924   0.409   4.619   5.707  0.6246 -0.0136 -0.4279
   91MOL0     C11925   1.539   4.126   5.518  0.3458 -0.4414  0.3772
   91MOL0     C11926   1.664   4.084   5.473  0.5995 -0.0115  0.0448
   91MOL0     O11927   1.787   4.205   5.129 -0.5365 -0.6122  0.1461
   91MOL0     C11928   2.019   3.938   5.113 -0.1767  0.8034 -0.1833
   91MOL0     C11929   2.128   3.891   5.041  0.4808  0.3425 -0.6435
   91MOL0     N11930   2.787   3.986   4.772 -0.3517 -0.0177  0.3212
   91MOL0     N11931   2.898   3.915   4.786 -0.2026 -0.8915 -0.2325
   91MOL0     C11932   3.898   4.305   4.679 -0.0253 -0.0016  0.3038
   91MOL0     C11933   4.007   4.358   4.611 -0.5250 -0.5200 -0.3191
   91MOL0     C11934   4.445   4.466   4.525  0.6938 -0.3167 -0.6992
   91MOL0     C11935   4.562   4.540   4.556  0.6382 -0.9546 -0.9256
   91MOL0     C11936   4.634   4.606   4.466  0.0660  0.7460 -0.4909
   91MOL0     C11937   4.604   4.598   4.325  0.0795  0.1845 -0.9701
   91MOL0     O11938   4.677   4.666   4.241  0.1345  0.2286  0.1768
   91MOL0     C11939   4.800   4.737   4.277 -0.5456  0.8913  0.0576
   91MOL0     C11940   4.860   4.801   4.148  0.4824  0.4758  0.3782
   91MOL0     C11941   4.937   4.704   4.063 -0.1009 -0.0064  0.6368
   91MOL0     C11942   4.987   4.765   3.936  0.8970 -0.4029  0.2136
   91MOL0     C11943   5.073   4.884   3.967 -0.3494 -0.1249  0.1192
   91MOL0     C11944   5.158   4.966   4.005  0.4404 -0.1061  0.2580
   91MOL0     C11945   4.491   4.520   4.289 -0.3665 -0.5086 -0.3975
   91MOL0     C11946   4.416   4.451   4.388 -0.1609 -0.1319  0.4522
   91MOL0     H11947   4.249   4.150   4.760  0.3454 -1.5925 -1.3178
   91MOL0     H11948   4.042   4.095   4.893  0.0687  0.6773  0.2229
   91MOL0     H11949   3.834   4.093   5.025  0.7837  2.2282 -1.5827
   91MOL0     H11950   3.856   3.982   4.887 -0.4522 -0.6934 -0.0891
   91MOL0     H11951   3.586   4.114   4.925  0.5856  0.0243 -1.0344
   91MOL0     H11952   3.620   3.979   5.023 -3.2019 -3.1156 -1.3590
   91MOL0     H11953   3.634   3.826   4.826  2.7475  0.3788 -2.3963
   91MOL0     H11954   3.671   3.952   4.722  2.1433  4.0624  1.2335
   91MOL0     H11955   3.401   3.907   4.886 -0.1697 -0.5783  0.7284
   91MOL0     H11956   3.419   4.039   4.785 -1.7895 -0.4628  0.4061
   91MOL0     H11957   3.418   3.756   4.651 -4.6473 -0.6988 -0.6081
   91MOL0     H11958   3.409   3.930   4.584  0.2360  2.1021  0.3333
   91MOL0     H11959   3.207   3.963   4.700 -3.5610 -0.8193 -0.4125
   91MOL0     H11960   3.220   3.820   4.802  0.0021  0.3894 -0.3647
   91MOL0     H11961   3.152   3.847   4.515 -1.7369  0.1765  0.5111
   91MOL0     H11962   3.215   3.690   4.578 -2.7301 -2.4072  0.3554
   91MOL0     H11963   3.037   3.693   4.747 -0.8761  0.8312  0.8672
   91MOL0     H11964   2.980   3.679   4.578 -0.2223  0.9630 -0.4601
   91MOL0     H11965   2.834   3.862   4.468 -0.6207 -0.7043  0.6849
   91MOL0     H11966   2.636   4.073   4.486  0.3830  0.8544 -0.1610
   91MOL0     H11967   2.587   4.116   4.647 -0.6136 -2.3468  2.7807
   91MOL0     H11968   2.563   3.830   4.539  1.0633  0.6798  0.0066
   91MOL0     H11969   2.429   3.952   4.522 -0.3156  0.2896  0.8878
   91MOL0     H11970   2.439   3.782   4.720  0.1185  0.2615 -0.4809
   91MOL0     H11971   2.552   3.902   4.793  0.7209  1.9179 -1.7483
   91MOL0     H11972   2.276   3.974   4.687  0.0627  0.2974 -1.1655
   91MOL0     H11973   2.391   4.071   4.786 -0.0899 -0.5299 -0.2309
   91MOL0     H11974   2.149   4.135   4.808 -1.9866 -1.3241 -1.0669
   91MOL0     H11975   1.950   4.218   4.935  0.9468  0.0366 -1.6912
   91MOL0     H11976   1.558   4.035   5.148  3.2104 -1.0452  0.1104
   91MOL0     H11977   1.343   4.111   5.242  0.0226  1.9604 -0.5887
   91MOL0     H11978   1.150   4.191   5.382 -1.8529  0.9520  1.0013
   91MOL0     H11979   1.255   4.338   5.354 -0.5864 -0.3961 -1.1541
   91MOL0     H11980   1.044   4.402   5.453 -1.8324 -3.1529  0.2391
   91MOL0     H11981   1.174   4.432   5.561 -0.3534  0.3975 -1.4333
   91MOL0     H11982   1.110   4.216   5.684  3.6111  3.0252 -1.3867
   91MOL0     H11983   0.973   4.198   5.578  0.0937 -2.2460  1.4302
   91MOL0     H11984   0.986   4.402   5.798  0.1430 -0.0003  0.5202
   91MOL0     H11985   0.929   4.458   5.643 -0.5605 -1.0959 -0.2626
   91MOL0     H11986   0.838   4.199   5.776  0.2577 -1.7107 -1.1805
   91MOL0     H11987   0.760   4.261   5.638 -0.1490  1.1757 -1.1627
   91MOL0     H11988   0.785   4.449   5.864  0.0131  0.3754 -0.3017
   91MOL0     H11989   0.675   4.299   5.882  0.1728 -1.0395 -1.0745
   91MOL0     H11990   0.666   4.510   5.660  0.3034 -1.7497 -1.2998
   91MOL0     H11991   0.566   4.370   5.678 -1.1242  1.9133 -1.6622
   91MOL0     H11992   0.592   4.595   5.875 -0.8423 -1.1602  0.5435
   91MOL0     H11993   0.468   4.471   5.891 -1.3008  2.6757  3.3816
   91MOL0     H11994   1.521   4.151   5.622 -2.5331  3.2838 -0.7524
   91MOL0     H11995   1.745   4.087   5.544 -0.0428  1.5435  0.7532
   91MOL0     H11996   1.986   3.879   5.199 -0.0300  1.8249  0.5933
   91MOL0     H11997   2.180   3.800   5.069  0.4368  0.2112 -0.9884
   91MOL0     H11998   3.801   4.349   4.658 -1.2814 -1.6564  2.3534
   91MOL0     H11999   3.989   4.437   4.538 -1.4773 -1.1199 -0.7586
   91MOL0     H12000   4.598   4.542   4.658 -0.1177  0.2714 -0.6699
   91MOL0     H12001   4.731   4.643   4.497  1.3176 -1.7916 -1.1819
   91MOL0     H12002   4.873   4.678   4.332 -0.7593 -0.5276 -1.1179
   91MOL0     H12003   4.765   4.822   4.336  0.2110  0.9880  0.3765
   91MOL0     H12004   4.780   4.845   4.087 -0.2377 -0.4824  0.6042
   91MOL0     H12005   4.927   4.882   4.175  0.7188  0.8011 -1.1135
   91MOL0     H12006   4.882   4.619   4.023  0.7630  0.8660 -2.7693
   91MOL0     H12007   5.018   4.665   4.125 -0.4722  0.2217  1.2688
   91MOL0     H12008   5.045   4.693   3.877  0.7512  0.2430 -0.7364
   91MOL0     H12009   4.908   4.809   3.875 -0.5970 -1.7155  1.1234
   91MOL0     H12010   5.230   5.038   4.039 -1.9285  1.3593  2.5732
   91MOL0     H12011   4.464   4.509   4.184  0.8454 -0.0568 -0.7704
   91MOL0     H12012   4.333   4.390   4.352  0.3141 -0.8235  0.5087
   92MOL0     O12013   8.794   8.594   5.252  0.5723  0.3471  0.6234
   92MOL0     C12014   8.884   8.547   5.316  0.8819  0.6239 -0.0793
   92MOL0     O12015   8.871   8.491   5.438 -0.5527  0.0606  0.4978
   92MOL0     C12016   8.755   8.490   5.511  0.6549 -0.2921  0.4068
   92MOL0     C12017   8.620   8.458   5.462 -0.0648 -0.8745  0.4601
   92MOL0     C12018   8.516   8.451   5.549  0.3787 -0.2468 -0.2490
   92MOL0     C12019   8.524   8.465   5.692  0.0550 -0.6641 -0.6005
   92MOL0     O12020   8.421   8.463   5.784  0.0071  0.4146  0.3221
   92MOL0     C12021   8.383   8.597   5.838  0.0298  0.4399 -0.0308
   92MOL0     C12022   8.247   8.587   5.911 -0.9670 -0.4269 -0.2486
   92MOL0     C12023   8.137   8.587   5.796 -0.4147  0.0112  0.3069
   92MOL0     C12024   8.151   8.674   5.669  0.4696  0.0796 -0.6003
   92MOL0     C12025   8.007   8.688   5.591  0.3328 -0.0379  0.7380
   92MOL0     C12026   7.955   8.560   5.536  0.3074  0.7566 -0.1211
   92MOL0     C12027   7.825   8.573   5.452 -0.3373  0.1272 -0.3219
   92MOL0     C12028   7.742   8.453   5.442 -0.3238  0.1134  0.3315
   92MOL0     N12029   7.821   8.334   5.428 -0.8049 -0.6617 -0.8082
   92MOL0     C12030   7.870   8.291   5.314  0.4190  0.3786 -0.4266
   92MOL0     C12031   7.916   8.170   5.345 -0.0791  1.5889  0.0256
   92MOL0     C12032   7.984   8.081   5.246 -0.1360  0.3007  0.6812
   92MOL0     C12033   8.124   8.149   5.228 -0.4537 -0.0406 -0.1584
   92MOL0     C12034   8.210   8.159   5.364 -0.2871  0.1919  0.0351
   92MOL0     C12035   8.365   8.162   5.341 -0.4321 -0.1459  0.0420
   92MOL0     O12036   8.403   8.245   5.223  0.2953  0.8675  0.6013
   92MOL0     C12037   8.532   8.250   5.176  0.2040 -0.0106  0.1800
   92MOL0     C12038   8.554   8.311   5.046  0.2168 -0.4460 -0.8365
   92MOL0     C12039   8.684   8.306   4.990 -0.5733 -0.4481 -0.7965
   92MOL0     C12040   8.793   8.242   5.052 -0.2976 -0.0335 -0.0851
   92MOL0     C12041   8.922   8.237   4.989 -0.6833 -0.3590  0.4161
   92MOL0     O12042   9.005   8.135   5.013 -0.2399  0.0270  0.0899
   92MOL0     C12043   9.131   8.126   4.968 -0.4702  0.0150  0.2179
   92MOL0     C12044   9.233   8.183   5.037 -0.3191  0.2988  0.3522
   92MOL0     C12045   9.356   8.194   4.990  0.2163  0.2921  0.2062
   92MOL0     C12046   9.381   8.131   4.870 -0.1657  0.0432 -0.0954
   92MOL0     O12047   9.518   8.135   4.823 -0.1204 -0.1018 -0.1190
   92MOL0     C12048   9.577   8.002   4.798 -0.8817  0.0303 -0.2026
   92MOL0     C12049   9.727   8.036   4.744  0.1667  0.3041  0.2810
   92MOL0     C12050   9.737   8.144   4.636 -0.3500 -0.8788  0.2142
   92MOL0     C12051   9.878   8.150   4.570 -0.3846 -0.6063 -0.3290
   92MOL0     C12052   9.891   8.037   4.467 -0.2244  0.5529  0.3944
   92MOL0     C12053  10.040   8.008   4.449 -0.3215  0.3803 -0.7076
   92MOL0     C12054  10.069   7.919   4.325 -0.1893 -0.4222  0.5143
   92MOL0     C12055  10.211   7.842   4.326  0.9334  0.0892  0.1144
   92MOL0    Cl12056  10.338   7.967   4.368  0.2660 -0.1292 -0.1346
   92MOL0     C12057   9.289   8.053   4.801 -0.2283 -0.5168 -0.0722
   92MOL0     C12058   9.167   8.048   4.852  0.5968 -0.5145  1.0102
   92MOL0     O12059   8.942   8.324   4.913  0.1348 -0.1461  0.5261
   92MOL0     C12060   8.773   8.188   5.172  0.8995  0.1060 -0.4604
   92MOL0     C12061   8.643   8.185   5.238 -0.3686 -0.6038  0.3448
   92MOL0     N12062   7.876   8.145   5.471 -0.2695 -0.2186  0.6397
   92MOL0     N12063   7.830   8.242   5.529  0.3636  0.1437 -0.1618
   92MOL0     C12064   8.656   8.497   5.736  1.3885  0.6811 -0.3157
   92MOL0     C12065   8.764   8.501   5.648 -0.5282  0.1420  0.3229
   92MOL0     C12066   9.019   8.544   5.256  0.5868  0.1102  0.0742
   92MOL0     C12067   9.034   8.583   5.125 -1.3816 -0.0270  0.4916
   92MOL0     C12068   9.162   8.563   5.064 -0.2846  0.2713 -0.3127
   92MOL0     C12069   9.273   8.521   5.143  0.3295  0.0794  0.1706
   92MOL0     O12070   9.382   8.497   5.059 -0.4040  0.1710 -0.4694
   92MOL0     C12071   9.516   8.518   5.105 -0.3961  0.0530  0.5521
   92MOL0     C12072   9.609   8.471   4.991 -0.2851  0.0615 -0.9244
   92MOL0     C12073   9.756   8.464   5.037  0.1662  0.4892  0.0192
   92MOL0     C12074   9.850   8.418   4.932 -0.6024 -0.0468 -0.1779
   92MOL0     C12075   9.979   8.356   4.992  1.1089 -1.0761  0.3927
   92MOL0     C12076  10.074   8.308   5.042 -0.5779  0.6793 -0.1341
   92MOL0     C12077   9.254   8.491   5.278 -0.5144 -0.6309  0.5173
   92MOL0     C12078   9.132   8.507   5.334 -0.2865 -0.2958 -0.3898
   92MOL0     H12079   8.597   8.443   5.357  0.6504 -0.8586  0.3006
   92MOL0     H12080   8.419   8.439   5.502 -1.5303  0.9585  3.0070
   92MOL0     H12081   8.389   8.676   5.763  2.9572 -1.4190 -1.9506
   92MOL0     H12082   8.460   8.624   5.911  0.9258 -0.2888 -0.6945
   92MOL0     H12083   8.231   8.678   5.971 -0.5833 -1.8218  2.0942
   92MOL0     H12084   8.240   8.501   5.978  1.4129 -0.3638  0.1395
   92MOL0     H12085   8.042   8.606   5.847  0.2588  0.7722  1.3301
   92MOL0     H12086   8.132   8.485   5.757 -1.2723  1.0303 -2.4710
   92MOL0     H12087   8.187   8.775   5.689 -0.1966  0.3023 -0.5009
   92MOL0     H12088   8.227   8.638   5.599  1.6954  0.2420  0.6190
   92MOL0     H12089   8.015   8.762   5.511 -0.4613 -0.2747  0.4340
   92MOL0     H12090   7.935   8.720   5.666  1.0068  1.1005  0.9293
   92MOL0     H12091   7.938   8.490   5.618  2.7878 -1.8496 -1.6305
   92MOL0     H12092   8.029   8.515   5.468  0.1465 -0.6047  0.5870
   92MOL0     H12093   7.763   8.655   5.489 -0.4288 -0.0993  0.0264
   92MOL0     H12094   7.860   8.606   5.353 -0.1008 -0.8212 -0.5653
   92MOL0     H12095   7.664   8.465   5.366 -3.1553 -3.2902  2.3491
   92MOL0     H12096   7.680   8.439   5.532 -0.1054 -1.6320  0.2352
   92MOL0     H12097   7.876   8.346   5.221 -1.3173 -1.0397 -1.4583
   92MOL0     H12098   7.941   8.060   5.148  0.9668 -0.4481  0.3322
   92MOL0     H12099   7.990   7.981   5.289 -0.6068  0.0132  0.0921
   92MOL0     H12100   8.101   8.248   5.189 -0.7975 -0.4739 -1.1050
   92MOL0     H12101   8.189   8.110   5.149  1.0399  2.7764 -0.4155
   92MOL0     H12102   8.186   8.251   5.417 -1.1386 -0.3369  0.5936
   92MOL0     H12103   8.183   8.074   5.427  1.9988 -0.4117  0.2703
   92MOL0     H12104   8.410   8.062   5.340 -3.7038 -1.7359 -2.2396
   92MOL0     H12105   8.414   8.206   5.429 -1.4547 -3.4642  2.4934
   92MOL0     H12106   8.477   8.376   5.007  0.8604 -0.1772 -1.6954
   92MOL0     H12107   8.696   8.368   4.902 -2.3265 -2.0671 -2.2791
   92MOL0     H12108   9.208   8.220   5.136 -0.0294 -0.0760  0.5673
   92MOL0     H12109   9.439   8.240   5.042  0.7603  0.5715 -0.8786
   92MOL0     H12110   9.520   7.952   4.719 -0.1827 -0.5743 -0.3408
   92MOL0     H12111   9.578   7.933   4.883 -0.9419 -0.5427 -0.6575
   92MOL0     H12112   9.786   7.949   4.716  0.8453  1.2344 -1.2909
   92MOL0     H12113   9.784   8.079   4.827  0.0331  2.2615 -0.5864
   92MOL0     H12114   9.718   8.236   4.692  2.2989 -0.6272  0.8561
   92MOL0     H12115   9.648   8.141   4.573 -1.0568  0.9394  1.0602
   92MOL0     H12116   9.894   8.251   4.531  0.9201 -1.4763 -2.1630
   92MOL0     H12117   9.951   8.131   4.649  0.4690 -0.6179 -1.1136
   92MOL0     H12118   9.837   8.066   4.376  1.3625  1.6811 -0.2409
   92MOL0     H12119   9.840   7.947   4.502  0.0316 -0.5740 -1.9414
   92MOL0     H12120  10.056   7.942   4.535 -0.6428  0.3085 -0.7019
   92MOL0     H12121  10.093   8.103   4.438 -1.3346  1.1180  0.4297
   92MOL0     H12122   9.997   7.838   4.326 -2.0474  1.1600  1.3456
   92MOL0     H12123  10.062   7.985   4.238  0.3570 -1.1183 -0.0659
   92MOL0     H12124  10.220   7.800   4.225 -0.6695 -1.4384  0.5514
   92MOL0     H12125  10.211   7.762   4.400  0.9741 -0.3783 -0.3867
   92MOL0     H12126   9.313   7.986   4.719  0.6639  0.2077 -0.4240
   92MOL0     H12127   9.090   7.988   4.806  0.9851 -1.3425  1.4167
   92MOL0     H12128   8.854   8.139   5.225 -0.8647  1.3924  3.8095
   92MOL0     H12129   8.632   8.134   5.333 -1.2259  0.4203  0.8217
   92MOL0     H12130   8.664   8.512   5.843 -3.3601  1.8891  0.1065
   92MOL0     H12131   8.868   8.500   5.679 -0.4756  1.2595  0.2031
   92MOL0     H12132   8.952   8.618   5.063 -1.1456  0.7761  0.6293
   92MOL0     H12133   9.174   8.572   4.956  1.3697  0.5401 -0.1283
   92MOL0     H12134   9.534   8.460   5.196 -1.9471 -0.3319  0.6396
   92MOL0     H12135   9.530   8.623   5.132  0.3548  0.0133  0.3405
   92MOL0     H12136   9.563   8.374   4.972 -0.7383  0.3386 -1.2716
   92MOL0     H12137   9.594   8.528   4.898 -0.1672 -0.2401 -1.1310
   92MOL0     H12138   9.762   8.387   5.114 -0.9157  0.6350  0.2622
   92MOL0     H12139   9.782   8.564   5.072  0.5055  1.0505 -1.7570
   92MOL0     H12140   9.810   8.342   4.865 -0.9520  0.2027 -0.2568
   92MOL0     H12141   9.872   8.501   4.863 -2.5502 -0.1454 -0.9888
   92MOL0     H12142  10.162   8.260   5.078 -0.0709  0.3365 -1.7664
   92MOL0     H12143   9.348   8.466   5.327  0.6122  0.1564 -1.1553
   92MOL0     H12144   9.119   8.476   5.437  1.1314  0.8974  0.1784
   93MOL0     O12145   1.016   7.298   8.884 -0.6076  0.0753 -0.3010
   93MOL0     C12146   1.070   7.399   8.909  0.0194 -0.0484  0.1069
   93MOL0     O12147   1.004   7.522   8.899  1.1263  0.1586 -0.4468
   93MOL0     C12148   0.868   7.538   8.884  0.9338  0.1333 -0.2859
   93MOL0     C12149   0.826   7.655   8.821 -0.5902  0.1296 -0.2198
   93MOL0     C12150   0.682   7.688   8.814 -0.1569 -0.0743  0.5338
   93MOL0     C12151   0.583   7.603   8.863 -0.4229  0.3131 -0.1982
   93MOL0     O12152   0.442   7.617   8.853  0.0578  0.0915 -0.0142
   93MOL0     C12153   0.351   7.595   8.966  0.0175  0.8946  0.0323
   93MOL0     C12154   0.209   7.644   8.934 -0.4780  0.8736 -0.1321
   93MOL0     C12155   0.104   7.630   9.045  0.7124 -0.2918 -0.5547
   93MOL0     C12156  -0.036   7.632   8.981  0.2978 -0.6509 -0.0911
   93MOL0     C12157  -0.148   7.624   9.082 -0.6919 -0.2650  0.4696
   93MOL0     C12158  -0.283   7.577   9.022 -0.7043 -0.6333 -0.1931
   93MOL0     C12159  -0.385   7.576   9.128 -0.1102 -0.1620  0.3537
   93MOL0     C12160  -0.519   7.534   9.069 -0.5368 -0.0796  0.3584
   93MOL0     N12161  -0.631   7.568   9.162  0.3185  0.7784 -0.5716
   93MOL0     C12162  -0.626   7.559   9.297  0.6647 -0.4501 -1.0818
   93MOL0     C12163  -0.752   7.567   9.338 -0.7765 -0.0955 -1.2754
   93MOL0     C12164  -0.794   7.564   9.487 -0.1057 -0.0356  0.4820
   93MOL0     C12165  -0.887   7.435   9.510  0.1898 -0.5847  0.4405
   93MOL0     C12166  -0.885   7.398   9.651 -0.3594 -0.4944 -0.1328
   93MOL0     C12167  -0.970   7.279   9.681  0.3121  0.1059  0.3557
   93MOL0     O12168  -1.102   7.319   9.650 -0.5516  0.4679 -0.0690
   93MOL0     C12169  -1.202   7.348   9.739 -0.2820 -0.6023  0.1288
   93MOL0     C12170  -1.322   7.397   9.685 -0.1463 -1.5713  0.6858
   93MOL0     C12171  -1.420   7.443   9.771  0.1737 -0.4941 -0.7150
   93MOL0     C12172  -1.411   7.421   9.918 -0.4063  0.8641 -0.0262
   93MOL0     C12173  -1.516   7.462  10.008  0.1408  0.2757  0.4258
   93MOL0     O12174  -1.644   7.468   9.957  0.3427 -0.2264 -0.0508
   93MOL0     C12175  -1.747   7.511  10.036 -0.0647 -0.7666 -0.1323
   93MOL0     C12176  -1.770   7.455  10.161  0.3207 -0.5207 -0.6240
   93MOL0     C12177  -1.885   7.480  10.239  0.4764  0.1969  0.4713
   93MOL0     C12178  -1.985   7.561  10.187  0.3161 -0.0875 -0.3763
   93MOL0     O12179  -2.094   7.581  10.264  0.6512 -0.0226 -0.1158
   93MOL0     C12180  -2.112   7.722  10.294  0.5474  0.5332 -0.6197
   93MOL0     C12181  -2.247   7.780  10.250 -0.4236 -0.2841 -0.3519
   93MOL0     C12182  -2.356   7.751  10.352 -0.6003 -0.8542  0.5772
   93MOL0     C12183  -2.482   7.817  10.298  0.9342  0.6677  0.0292
   93MOL0     C12184  -2.605   7.755  10.359 -0.1475 -0.1179  1.8793
   93MOL0     C12185  -2.655   7.628  10.291 -0.2943  0.2868  0.1647
   93MOL0     C12186  -2.762   7.546  10.358 -0.4360  0.2202  0.4138
   93MOL0     C12187  -2.897   7.630  10.367  0.2642 -0.3318 -0.8550
   93MOL0    Cl12188  -2.889   7.707  10.531  0.0869 -0.6295  0.1239
   93MOL0     C12189  -1.971   7.622  10.058  0.4704 -1.0322  0.6123
   93MOL0     C12190  -1.857   7.592   9.990 -0.2222 -0.6612  0.3418
   93MOL0     O12191  -1.483   7.504  10.118 -0.0032  0.2545 -0.2542
   93MOL0     C12192  -1.305   7.345   9.968  0.0092  0.5662  0.0509
   93MOL0     C12193  -1.198   7.322   9.876  0.1321 -0.1779  0.6622
   93MOL0     N12194  -0.835   7.568   9.238 -0.2671 -0.4058 -0.3705
   93MOL0     N12195  -0.764   7.573   9.121  0.8590 -0.7161 -0.1387
   93MOL0     C12196   0.630   7.482   8.921 -0.2272  0.0867  0.0587
   93MOL0     C12197   0.767   7.450   8.935  0.2403  0.0997  0.2574
   93MOL0     C12198   1.216   7.406   8.941  0.0089 -0.2640 -0.4429
   93MOL0     C12199   1.295   7.295   8.969 -0.1723  0.3557 -0.5984
   93MOL0     C12200   1.431   7.299   8.990 -0.0270 -0.2706  0.9153
   93MOL0     C12201   1.496   7.421   8.988 -0.5099  0.7702  0.1899
   93MOL0     O12202   1.634   7.428   9.012 -0.1459 -0.0235  0.8170
   93MOL0     C12203   1.703   7.316   9.059  0.1232  0.4341  0.5673
   93MOL0     C12204   1.847   7.351   9.060 -0.7545  0.2338 -0.2112
   93MOL0     C12205   1.899   7.397   9.206  0.0456 -0.2631  0.7733
   93MOL0     C12206   2.047   7.423   9.204  0.2259 -0.0776  0.2045
   93MOL0     C12207   2.130   7.303   9.189 -0.1637  0.0289  0.9654
   93MOL0     C12208   2.187   7.196   9.174  0.0306 -1.0625 -0.2998
   93MOL0     C12209   1.431   7.532   8.950  0.2915 -0.0526 -0.2915
   93MOL0     C12210   1.294   7.526   8.926  0.4214 -0.1750  0.1877
   93MOL0     H12211   0.901   7.729   8.794  0.6480 -1.0419 -0.1064
   93MOL0     H12212   0.655   7.782   8.766  0.8661  0.3218  0.6957
   93MOL0     H12213   0.386   7.651   9.053  1.7405 -2.5489  1.7967
   93MOL0     H12214   0.345   7.490   8.997 -2.9361  1.4827  1.7667
   93MOL0     H12215   0.169   7.594   8.846 -2.0299  0.3709  0.8003
   93MOL0     H12216   0.232   7.744   8.898  1.9999 -0.5493 -2.8695
   93MOL0     H12217   0.120   7.712   9.115 -0.5747  0.0429 -0.6170
   93MOL0     H12218   0.114   7.535   9.098  0.7144 -0.0744 -0.1632
   93MOL0     H12219  -0.067   7.730   8.944 -5.1254 -1.5047  1.2380
   93MOL0     H12220  -0.034   7.560   8.899 -1.4565 -0.4623 -0.3415
   93MOL0     H12221  -0.160   7.714   9.143 -0.5532  0.7403 -0.9333
   93MOL0     H12222  -0.114   7.554   9.158  2.4381  2.7032  2.0741
   93MOL0     H12223  -0.276   7.475   8.984 -3.3749 -0.9499 -0.0403
   93MOL0     H12224  -0.299   7.638   8.933  0.9532  0.7920  0.4260
   93MOL0     H12225  -0.351   7.509   9.208  1.4385  1.0832  0.7950
   93MOL0     H12226  -0.403   7.675   9.173 -1.3973  0.2371 -0.9559
   93MOL0     H12227  -0.523   7.426   9.048  0.6344 -0.1160  0.2296
   93MOL0     H12228  -0.518   7.585   8.972 -0.1931  0.0567  0.4303
   93MOL0     H12229  -0.540   7.570   9.362 -0.1879  0.7438 -0.1051
   93MOL0     H12230  -0.856   7.652   9.504  2.0562  2.6126 -3.6757
   93MOL0     H12231  -0.708   7.576   9.554 -1.1477  2.2191  1.5140
   93MOL0     H12232  -0.842   7.354   9.453  2.6100  2.0538 -1.6684
   93MOL0     H12233  -0.984   7.457   9.465  0.4170 -1.5625 -0.5605
   93MOL0     H12234  -0.783   7.378   9.686  0.1338 -0.6927 -1.6135
   93MOL0     H12235  -0.919   7.484   9.710 -3.0140 -1.4018 -0.1992
   93MOL0     H12236  -0.962   7.252   9.787  0.3897 -3.7142 -0.5026
   93MOL0     H12237  -0.949   7.195   9.615 -1.6062 -2.5287  2.8455
   93MOL0     H12238  -1.332   7.424   9.581 -5.7951  0.3204  1.3745
   93MOL0     H12239  -1.515   7.486   9.738  1.5700  3.4988 -0.1706
   93MOL0     H12240  -1.701   7.381  10.200 -0.2013 -0.1448  1.1041
   93MOL0     H12241  -1.897   7.435  10.337 -1.6998 -0.3404  0.0265
   93MOL0     H12242  -2.031   7.786  10.259 -0.7808  1.9511 -1.1917
   93MOL0     H12243  -2.099   7.725  10.403 -0.7141  0.0457 -0.4432
   93MOL0     H12244  -2.276   7.736  10.154 -2.4562 -1.0047  0.5403
   93MOL0     H12245  -2.246   7.888  10.235 -2.7054 -0.2175 -0.2481
   93MOL0     H12246  -2.330   7.798  10.447  0.6746 -1.0620  0.3518
   93MOL0     H12247  -2.378   7.644  10.350 -1.7519 -0.6379  0.8616
   93MOL0     H12248  -2.479   7.924  10.319 -0.1779  0.8915 -0.8285
   93MOL0     H12249  -2.489   7.819  10.188  0.6877 -1.4922 -0.0440
   93MOL0     H12250  -2.679   7.834  10.343  1.6298  0.9771 -1.9783
   93MOL0     H12251  -2.600   7.744  10.468  3.0970 -1.5635  1.6933
   93MOL0     H12252  -2.567   7.565  10.278  1.1152  2.1390  0.3064
   93MOL0     H12253  -2.695   7.643  10.191  2.8608 -1.3085 -1.4636
   93MOL0     H12254  -2.787   7.465  10.289  0.1526  1.7687 -1.7402
   93MOL0     H12255  -2.743   7.489  10.449  1.0686 -3.3635 -1.9174
   93MOL0     H12256  -2.982   7.562  10.363  0.2495 -0.6133  1.9780
   93MOL0     H12257  -2.912   7.706  10.289  1.5987 -0.3589 -1.1746
   93MOL0     H12258  -2.046   7.684  10.010  2.6408 -0.5872 -2.5279
   93MOL0     H12259  -1.825   7.638   9.897  4.0008 -0.4761  1.6687
   93MOL0     H12260  -1.290   7.332  10.075  2.6889  2.1785 -0.0287
   93MOL0     H12261  -1.119   7.255   9.909 -1.9315 -1.9455  2.3085
   93MOL0     H12262   0.554   7.417   8.965 -1.1168 -0.4571 -2.1778
   93MOL0     H12263   0.784   7.350   8.975 -2.6564 -0.7879 -0.5341
   93MOL0     H12264   1.236   7.204   8.978 -0.8839  0.6618 -1.8940
   93MOL0     H12265   1.486   7.208   9.011  1.9844  0.6275 -0.2071
   93MOL0     H12266   1.695   7.225   8.999  1.6923  0.6020  0.0538
   93MOL0     H12267   1.666   7.290   9.159 -3.9928  3.5345  0.1200
   93MOL0     H12268   1.915   7.268   9.039  0.6099  0.0312  3.9531
   93MOL0     H12269   1.857   7.429   8.984  0.7886 -0.0780 -0.3561
   93MOL0     H12270   1.880   7.319   9.279  1.8066 -0.0812  1.4691
   93MOL0     H12271   1.852   7.491   9.238 -0.4183 -0.6737  1.3066
   93MOL0     H12272   2.079   7.499   9.133  1.3416 -1.3380 -0.7058
   93MOL0     H12273   2.059   7.463   9.305 -0.5531 -1.1289  0.7379
   93MOL0     H12274   2.232   7.100   9.157  3.6029  0.6344 -1.4956
   93MOL0     H12275   1.493   7.619   8.931  2.2570 -1.4736 -0.6347
   93MOL0     H12276   1.248   7.618   8.893  0.2269 -0.6000 -0.7500
   94MOL0     O12277   3.707   3.256   5.950 -0.5496 -0.5794  0.0467
   94MOL0     C12278   3.671   3.171   5.870  0.0249  1.6366 -0.2008
   94MOL0     O12279   3.556   3.100   5.880 -0.0785 -0.4400 -0.4053
   94MOL0     C12280   3.471   3.152   5.983  0.3775 -0.2964  0.3800
   94MOL0     C12281   3.402   3.275   5.972  0.7003  0.1028  0.2764
   94MOL0     C12282   3.311   3.314   6.071 -0.3266 -0.2356 -0.7083
   94MOL0     C12283   3.306   3.248   6.191  0.0310 -0.6250  0.1676
   94MOL0     O12284   3.233   3.291   6.297  0.0390 -0.2810 -0.0802
   94MOL0     C12285   3.121   3.385   6.281 -0.7017  1.0187  0.1072
   94MOL0     C12286   2.996   3.305   6.223  0.2327 -0.0162 -0.7927
   94MOL0     C12287   2.859   3.375   6.257  0.5230 -0.5064  0.4307
   94MOL0     C12288   2.732   3.300   6.209 -0.4900  0.0174 -0.5967
   94MOL0     C12289   2.611   3.360   6.297 -0.0150 -0.7414 -0.0624
   94MOL0     C12290   2.482   3.295   6.260  0.1486 -0.3527  0.7377
   94MOL0     C12291   2.362   3.357   6.341 -0.0000  0.0110 -0.4261
   94MOL0     C12292   2.235   3.282   6.304 -0.0198  0.4497 -0.9167
   94MOL0     N12293   2.118   3.335   6.386 -1.0272 -0.3524 -0.2155
   94MOL0     C12294   2.006   3.403   6.347 -0.5734  0.6062 -0.6665
   94MOL0     C12295   1.940   3.440   6.460 -1.0150 -0.4238 -0.6597
   94MOL0     C12296   1.811   3.498   6.487  0.4965  0.0983 -0.0817
   94MOL0     C12297   1.798   3.640   6.505  0.2206 -1.0941  0.0163
   94MOL0     C12298   1.875   3.689   6.627  0.3559 -0.3350  0.2909
   94MOL0     C12299   1.796   3.807   6.695 -0.0359 -1.0055 -0.1610
   94MOL0     O12300   1.851   3.836   6.826  0.7024 -0.0132 -0.4087
   94MOL0     C12301   1.813   3.961   6.884  0.0391  0.7192 -0.0412
   94MOL0     C12302   1.764   3.962   7.014 -0.0024 -0.0824 -0.5700
   94MOL0     C12303   1.723   4.078   7.082  0.0821  0.2916  0.2454
   94MOL0     C12304   1.731   4.202   7.011 -0.4429  0.4705  0.5801
   94MOL0     C12305   1.718   4.325   7.095  0.8613 -1.0820  0.5796
   94MOL0     O12306   1.705   4.431   7.015  0.6557 -0.7791  0.3570
   94MOL0     C12307   1.691   4.555   7.080  0.3318  0.3449  0.7150
   94MOL0     C12308   1.807   4.646   7.072  0.8800  0.4282  0.3287
   94MOL0     C12309   1.780   4.770   7.134  0.4935  0.0497  0.9816
   94MOL0     C12310   1.662   4.808   7.198 -0.9650 -0.8198 -0.3612
   94MOL0     O12311   1.659   4.931   7.260 -0.2507  0.9381 -0.2034
   94MOL0     C12312   1.542   5.013   7.250  0.0410  0.2915 -0.0032
   94MOL0     C12313   1.453   4.990   7.375  1.1257  0.9894  0.9690
   94MOL0     C12314   1.323   5.070   7.359 -0.8840 -0.6176  0.3235
   94MOL0     C12315   1.203   5.003   7.426  0.5340 -0.1179  0.3050
   94MOL0     C12316   1.076   5.080   7.402 -0.4440  0.5123 -0.1573
   94MOL0     C12317   0.962   5.020   7.500 -1.0261 -0.5802  0.8176
   94MOL0     C12318   0.832   5.101   7.495  0.3801 -0.6744 -0.1613
   94MOL0     C12319   0.779   5.098   7.353  0.2903  0.3153  0.7132
   94MOL0    Cl12320   0.618   5.167   7.342  0.3743  0.2698  0.1563
   94MOL0     C12321   1.554   4.717   7.197  0.1692  0.6351  0.1670
   94MOL0     C12322   1.573   4.592   7.144 -0.6153 -0.7492  0.1387
   94MOL0     O12323   1.754   4.328   7.208 -0.0945  0.0348 -0.3106
   94MOL0     C12324   1.768   4.205   6.877  0.1268 -0.4554 -0.0522
   94MOL0     C12325   1.825   4.089   6.816 -0.3502 -0.1468 -0.2532
   94MOL0     N12326   2.012   3.382   6.568  1.1375  0.0900 -0.5897
   94MOL0     N12327   2.113   3.323   6.518 -0.2299  0.1270 -0.0850
   94MOL0     C12328   3.372   3.125   6.204 -1.5109  0.2705  0.9832
   94MOL0     C12329   3.455   3.077   6.096  0.2707  0.2826 -0.2076
   94MOL0     C12330   3.768   3.143   5.759 -0.2493  0.4973 -0.0233
   94MOL0     C12331   3.743   3.034   5.672  0.4080 -0.6552  0.7821
   94MOL0     C12332   3.842   3.005   5.582  0.3670 -0.1134  1.0036
   94MOL0     C12333   3.972   3.056   5.587  0.5727 -0.1853 -0.2687
   94MOL0     O12334   4.058   3.004   5.495  0.1657  0.0514 -0.0838
   94MOL0     C12335   4.200   3.022   5.525 -0.0203 -0.9060  0.3454
   94MOL0     C12336   4.273   2.916   5.440  0.0524 -0.1165 -0.5513
   94MOL0     C12337   4.314   2.981   5.303 -0.6009 -0.7352  0.1621
   94MOL0     C12338   4.411   2.885   5.240  0.3757  0.0016 -0.8477
   94MOL0     C12339   4.332   2.766   5.199  0.2344 -0.0257 -1.1212
   94MOL0     C12340   4.266   2.667   5.161  0.3476  0.4188 -0.4210
   94MOL0     C12341   3.994   3.175   5.665  0.1696 -1.7176  0.6960
   94MOL0     C12342   3.892   3.223   5.755  0.2395 -0.6669  0.1158
   94MOL0     H12343   3.408   3.353   5.897 -2.1309  0.1303 -0.0403
   94MOL0     H12344   3.264   3.411   6.059  3.0313  1.8649  1.4627
   94MOL0     H12345   3.140   3.474   6.220 -1.1582 -0.4677 -2.3186
   94MOL0     H12346   3.103   3.430   6.379  1.5514  1.0991  0.5546
   94MOL0     H12347   2.993   3.204   6.264  4.7561 -0.6011 -1.3506
   94MOL0     H12348   3.017   3.293   6.116  1.4832 -0.5192 -0.5117
   94MOL0     H12349   2.848   3.470   6.205  3.1770 -0.5841 -0.4286
   94MOL0     H12350   2.846   3.386   6.365 -3.9409  2.9124 -0.1689
   94MOL0     H12351   2.712   3.296   6.102  1.3600 -2.5335 -0.9329
   94MOL0     H12352   2.750   3.194   6.231 -2.7981 -0.4015 -0.3937
   94MOL0     H12353   2.599   3.468   6.283 -0.6293 -0.6633  0.9135
   94MOL0     H12354   2.631   3.345   6.404  2.2633 -1.8713 -0.5781
   94MOL0     H12355   2.495   3.192   6.294  1.2124 -0.3866  0.2915
   94MOL0     H12356   2.468   3.284   6.152 -0.4111 -0.4134  0.8123
   94MOL0     H12357   2.392   3.346   6.445 -2.7347  0.3667  0.4785
   94MOL0     H12358   2.353   3.460   6.304  0.5033 -1.4414 -5.3679
   94MOL0     H12359   2.252   3.181   6.342  0.4038 -0.1789 -2.6771
   94MOL0     H12360   2.214   3.273   6.197 -0.6195  1.3551 -0.8841
   94MOL0     H12361   1.962   3.407   6.248 -1.7336 -0.1458 -0.2052
   94MOL0     H12362   1.775   3.449   6.578 -0.8303  1.0894 -0.0508
   94MOL0     H12363   1.736   3.465   6.415 -0.9598  1.5594  0.6928
   94MOL0     H12364   1.692   3.669   6.506  0.6291  0.5670 -0.7838
   94MOL0     H12365   1.856   3.684   6.424  1.8586 -1.2883  1.0323
   94MOL0     H12366   1.869   3.603   6.695 -0.5673 -1.4630 -1.1570
   94MOL0     H12367   1.978   3.713   6.602  0.6214 -2.1577 -0.5107
   94MOL0     H12368   1.689   3.787   6.686 -0.2169 -0.4082  0.6143
   94MOL0     H12369   1.815   3.893   6.630 -2.5145  0.9042  1.4705
   94MOL0     H12370   1.779   3.872   7.072 -2.8049  0.6596  1.5402
   94MOL0     H12371   1.706   4.064   7.188  0.0487  0.4718  0.2638
   94MOL0     H12372   1.893   4.615   7.014  0.6278 -0.1522  0.2560
   94MOL0     H12373   1.857   4.846   7.124  0.0842  0.2155 -1.5236
   94MOL0     H12374   1.485   4.984   7.161  0.9254 -1.6985  0.0333
   94MOL0     H12375   1.567   5.119   7.243 -0.7658  0.3983 -2.5226
   94MOL0     H12376   1.500   5.019   7.469  0.8027  2.5879  0.6645
   94MOL0     H12377   1.427   4.884   7.387 -3.8623  1.5785 -1.9496
   94MOL0     H12378   1.313   5.088   7.252  0.6919 -0.0250  0.2569
   94MOL0     H12379   1.341   5.167   7.405 -4.3600  1.8886 -2.9460
   94MOL0     H12380   1.197   4.904   7.380 -2.1994  1.3470 -2.9361
   94MOL0     H12381   1.223   4.993   7.533 -0.3368  2.2636  0.7513
   94MOL0     H12382   1.044   5.066   7.298 -0.2243  2.1033 -0.4549
   94MOL0     H12383   1.091   5.185   7.429  0.4321  0.0126  1.4264
   94MOL0     H12384   0.996   5.019   7.604  0.0273  0.0717  0.4944
   94MOL0     H12385   0.941   4.917   7.471  3.2362 -0.9242 -1.7985
   94MOL0     H12386   0.756   5.053   7.558  1.0041  0.5986  1.6361
   94MOL0     H12387   0.828   5.201   7.539 -1.4592 -1.5286  1.7955
   94MOL0     H12388   0.787   4.997   7.314  1.0683  1.0443 -1.1329
   94MOL0     H12389   0.843   5.159   7.289  2.7044 -1.1873  1.5846
   94MOL0     H12390   1.456   4.750   7.231 -1.2010 -2.1645 -0.7572
   94MOL0     H12391   1.485   4.529   7.142 -1.5623  0.2937  3.1399
   94MOL0     H12392   1.778   4.297   6.820 -1.6691  2.1989  3.5614
   94MOL0     H12393   1.863   4.091   6.714 -2.6746 -0.5011 -1.1851
   94MOL0     H12394   3.361   3.058   6.289  2.5646 -0.1429  1.3869
   94MOL0     H12395   3.518   2.989   6.110  1.5675  1.2562  0.2583
   94MOL0     H12396   3.652   2.975   5.671 -0.7011  0.8713 -2.2362
   94MOL0     H12397   3.819   2.916   5.524 -1.0677  1.7951 -1.5638
   94MOL0     H12398   4.212   3.004   5.632 -0.3405  1.9702  0.9482
   94MOL0     H12399   4.230   3.123   5.494  1.1892 -1.7129 -1.3138
   94MOL0     H12400   4.369   2.892   5.487 -0.7284  0.3030  1.3488
   94MOL0     H12401   4.206   2.831   5.427 -0.1346  0.3535 -3.2450
   94MOL0     H12402   4.370   3.073   5.318 -3.2349  1.5748 -2.7080
   94MOL0     H12403   4.225   3.007   5.244 -2.1477 -2.4872  1.6007
   94MOL0     H12404   4.457   2.935   5.154  0.0504 -0.8676 -1.5429
   94MOL0     H12405   4.487   2.847   5.309 -0.6058 -0.2148  0.1484
   94MOL0     H12406   4.222   2.578   5.122 -1.6660  1.2669 -0.1782
   94MOL0     H12407   4.095   3.215   5.664  0.3038 -1.7214  4.0130
   94MOL0     H12408   3.920   3.297   5.830  0.6850  1.6701 -2.2111
   95MOL0     O12409   8.601   1.147   4.545  0.5408 -0.1728  1.1527
   95MOL0     C12410   8.658   1.038   4.573  1.1457  0.0804  0.4542
   95MOL0     O12411   8.593   0.931   4.621  0.9720  0.0817 -0.1690
   95MOL0     C12412   8.454   0.914   4.631 -0.2218 -0.2891 -0.4785
   95MOL0     C12413   8.355   1.006   4.590 -0.2504 -0.0623  1.0919
   95MOL0     C12414   8.219   0.969   4.586  0.4284 -0.6845 -0.5572
   95MOL0     C12415   8.171   0.847   4.639  0.4808 -1.4067  0.3866
   95MOL0     O12416   8.043   0.805   4.654  0.1765 -0.3750  1.1115
   95MOL0     C12417   7.941   0.888   4.591 -0.1728  0.4331  0.1564
   95MOL0     C12418   7.817   0.805   4.587 -0.6733 -0.3443 -0.1467
   95MOL0     C12419   7.685   0.896   4.568 -0.0445  1.1477 -0.8436
   95MOL0     C12420   7.561   0.800   4.544  0.5598 -0.9082  0.4597
   95MOL0     C12421   7.438   0.889   4.525  0.0200 -0.0771 -0.0829
   95MOL0     C12422   7.309   0.809   4.516  0.2115 -0.0085 -0.0514
   95MOL0     C12423   7.188   0.906   4.505  0.6558  0.3158  0.6699
   95MOL0     C12424   7.061   0.840   4.450  0.2397  0.3376  0.7589
   95MOL0     N12425   7.024   0.720   4.520  0.6531 -0.1275 -1.2201
   95MOL0     C12426   7.077   0.604   4.475 -0.5562 -0.2643 -0.0131
   95MOL0     C12427   7.058   0.514   4.578  0.3929 -1.4838 -0.4845
   95MOL0     C12428   7.101   0.372   4.578  0.7047 -1.0284  0.4622
   95MOL0     C12429   6.984   0.275   4.613 -0.3265 -0.0413 -0.1206
   95MOL0     C12430   6.870   0.288   4.508  0.1383 -0.2283 -0.0263
   95MOL0     C12431   6.770   0.166   4.503  0.1415  0.4273  0.7758
   95MOL0     O12432   6.678   0.163   4.616  0.1124  0.8072  0.5242
   95MOL0     C12433   6.563   0.089   4.600 -0.6923  0.0624 -0.4098
   95MOL0     C12434   6.548  -0.009   4.507  0.0323  0.0100 -0.2175
   95MOL0     C12435   6.447  -0.103   4.520  0.6966 -0.7172  0.6151
   95MOL0     C12436   6.341  -0.073   4.615  0.7613  0.0802  0.0370
   95MOL0     C12437   6.215  -0.160   4.615  0.0960  0.1864 -0.0497
   95MOL0     O12438   6.130  -0.146   4.716  0.0828 -0.3814  0.6707
   95MOL0     C12439   6.037  -0.244   4.723 -0.0825  0.4896 -0.2589
   95MOL0     C12440   6.037  -0.333   4.833 -0.5474  0.8859  0.1392
   95MOL0     C12441   5.951  -0.437   4.845 -0.1142  0.2131 -0.0694
   95MOL0     C12442   5.841  -0.438   4.758 -0.7451  0.1632 -0.5695
   95MOL0     O12443   5.736  -0.522   4.788 -0.4741  0.5467  0.2029
   95MOL0     C12444   5.600  -0.489   4.752  0.5526 -0.2283  0.7318
   95MOL0     C12445   5.495  -0.565   4.833 -0.6444  0.2834 -0.4890
   95MOL0     C12446   5.349  -0.521   4.794  0.8623 -0.3568 -0.1262
   95MOL0     C12447   5.254  -0.586   4.888  0.6650 -0.1528  0.0047
   95MOL0     C12448   5.103  -0.557   4.847 -1.0827 -0.8493  0.8808
   95MOL0     C12449   5.001  -0.612   4.939 -0.6254  0.5487  0.2384
   95MOL0     C12450   4.866  -0.565   4.890  0.4319 -0.1663 -0.0490
   95MOL0     C12451   4.752  -0.654   4.942 -0.5632  0.6879 -0.0935
   95MOL0    Cl12452   4.596  -0.606   4.875 -0.0229  0.3649  0.1558
   95MOL0     C12453   5.826  -0.348   4.651 -0.1199  0.8900  0.6229
   95MOL0     C12454   5.926  -0.252   4.628 -0.8343 -0.1905 -0.0233
   95MOL0     O12455   6.214  -0.246   4.524 -0.1740 -0.9205  0.3046
   95MOL0     C12456   6.350   0.028   4.704 -0.6984 -1.0301 -0.4017
   95MOL0     C12457   6.468   0.110   4.698  0.5725  1.2155  0.8152
   95MOL0     N12458   6.996   0.587   4.677  0.3886  1.3545  0.3816
   95MOL0     N12459   6.966   0.707   4.641 -0.3580 -0.1773  0.1149
   95MOL0     C12460   8.268   0.758   4.682  0.1855 -0.4294  1.3691
   95MOL0     C12461   8.411   0.795   4.676  0.4034  0.0027  0.0008
   95MOL0     C12462   8.799   1.037   4.589 -0.2513 -0.9608 -0.0017
   95MOL0     C12463   8.889   1.098   4.492  0.2544  0.2562  0.5474
   95MOL0     C12464   9.024   1.062   4.495 -0.1608 -0.1178  0.5151
   95MOL0     C12465   9.084   0.979   4.591  0.0141  0.5089  0.7417
   95MOL0     O12466   9.217   0.958   4.604 -0.4735 -0.0439 -0.5676
   95MOL0     C12467   9.278   0.860   4.519 -0.0754  0.6932 -0.8271
   95MOL0     C12468   9.391   0.791   4.594  0.5787  0.2640 -0.1321
   95MOL0     C12469   9.358   0.727   4.733  0.2708  0.1171  0.6392
   95MOL0     C12470   9.387   0.814   4.856 -0.2509 -0.1332  1.3511
   95MOL0     C12471   9.531   0.830   4.897  0.1947  0.5947  0.0694
   95MOL0     C12472   9.637   0.838   4.959  0.2894  0.3781 -0.1417
   95MOL0     C12473   8.999   0.929   4.689 -0.2458 -0.0929  0.9935
   95MOL0     C12474   8.863   0.951   4.682  0.3331 -0.5482 -0.2882
   95MOL0     H12475   8.381   1.106   4.557  0.9386 -0.7612 -0.1942
   95MOL0     H12476   8.152   1.047   4.551  2.4661 -0.0398 -3.3434
   95MOL0     H12477   7.958   0.922   4.488 -2.0574  0.9784 -0.0251
   95MOL0     H12478   7.921   0.978   4.650  0.2062  1.7304 -1.5951
   95MOL0     H12479   7.805   0.747   4.679 -0.3876 -0.3800 -0.1307
   95MOL0     H12480   7.830   0.741   4.499  2.1841 -0.8955  0.5618
   95MOL0     H12481   7.710   0.960   4.482 -0.5150  1.9980 -0.3700
   95MOL0     H12482   7.674   0.960   4.656  2.6311 -1.8156  1.8999
   95MOL0     H12483   7.584   0.742   4.454 -1.1458  0.2734 -0.8122
   95MOL0     H12484   7.549   0.744   4.637  2.7665 -0.2862  1.1763
   95MOL0     H12485   7.442   0.931   4.424 -2.0526  2.1540  0.6711
   95MOL0     H12486   7.431   0.969   4.599  1.2712 -0.3370  0.3363
   95MOL0     H12487   7.308   0.761   4.614  2.1761  1.4502  0.7409
   95MOL0     H12488   7.329   0.722   4.452  3.6552 -2.5622  3.9647
   95MOL0     H12489   7.159   0.948   4.602 -1.5096  4.3594 -1.4943
   95MOL0     H12490   7.209   0.990   4.439  1.9317  0.4036  1.1596
   95MOL0     H12491   7.076   0.817   4.344  2.0093 -0.7298  1.1771
   95MOL0     H12492   6.981   0.913   4.461 -0.0656 -0.1030  1.5209
   95MOL0     H12493   7.132   0.580   4.384 -1.6928 -1.5725 -0.3900
   95MOL0     H12494   7.184   0.365   4.650  0.4128  1.2087  1.0826
   95MOL0     H12495   7.138   0.344   4.479  0.0138  2.2945 -0.8695
   95MOL0     H12496   6.936   0.308   4.705 -1.2824  0.4699 -0.7848
   95MOL0     H12497   7.010   0.170   4.628  3.5541  0.8427  0.2974
   95MOL0     H12498   6.811   0.379   4.518  1.1435  0.4059  0.2586
   95MOL0     H12499   6.916   0.287   4.409  2.2949 -3.2347  0.8469
   95MOL0     H12500   6.828   0.074   4.505 -0.5283 -0.0012  0.8094
   95MOL0     H12501   6.716   0.178   4.408  3.0150  0.2111 -1.0071
   95MOL0     H12502   6.618  -0.021   4.424 -2.1496  0.7114 -2.2792
   95MOL0     H12503   6.432  -0.184   4.449 -1.5092  0.0499  0.1077
   95MOL0     H12504   6.127  -0.328   4.894 -0.0964 -0.0913 -0.4342
   95MOL0     H12505   5.977  -0.512   4.919  2.7842  2.4752  1.4285
   95MOL0     H12506   5.582  -0.508   4.645  2.9100  2.3056 -0.2275
   95MOL0     H12507   5.585  -0.381   4.759 -2.9892 -0.5358 -0.4941
   95MOL0     H12508   5.518  -0.537   4.936 -0.2528 -1.2459 -0.1301
   95MOL0     H12509   5.517  -0.671   4.822 -3.1144 -0.6476  2.1169
   95MOL0     H12510   5.333  -0.558   4.692 -3.2202  0.4110  0.0653
   95MOL0     H12511   5.332  -0.413   4.785  0.8766 -0.5421 -3.9993
   95MOL0     H12512   5.259  -0.696   4.886  6.2189 -0.1423 -0.1328
   95MOL0     H12513   5.275  -0.557   4.991  0.5838 -0.5994  0.1532
   95MOL0     H12514   5.095  -0.599   4.747  1.7641  2.4992 -1.0072
   95MOL0     H12515   5.087  -0.449   4.835 -1.6576 -1.0686 -0.4799
   95MOL0     H12516   5.030  -0.584   5.040  0.3493  0.2448  0.0502
   95MOL0     H12517   5.002  -0.720   4.921  0.5062  0.5986 -0.0663
   95MOL0     H12518   4.850  -0.464   4.929 -0.2582 -1.1815  2.5183
   95MOL0     H12519   4.853  -0.558   4.782  1.2923  3.9545 -0.0270
   95MOL0     H12520   4.734  -0.647   5.050 -5.3339  1.2599 -0.7016
   95MOL0     H12521   4.770  -0.761   4.928  2.3981  0.8187  1.7738
   95MOL0     H12522   5.742  -0.366   4.585  0.7708  1.4155 -0.6796
   95MOL0     H12523   5.922  -0.186   4.542 -1.1038  1.4247  1.1866
   95MOL0     H12524   6.280   0.045   4.786  1.8877 -1.4977  2.0721
   95MOL0     H12525   6.479   0.195   4.765  1.6784 -0.0472  2.3201
   95MOL0     H12526   8.237   0.656   4.701  0.3054 -1.4717 -2.8911
   95MOL0     H12527   8.485   0.718   4.696 -1.7800 -1.6627  2.3261
   95MOL0     H12528   8.855   1.156   4.407  0.7651 -0.8174 -0.4187
   95MOL0     H12529   9.096   1.100   4.423  0.3953 -0.1867  1.0244
   95MOL0     H12530   9.320   0.901   4.427  2.5665  1.4273  0.5946
   95MOL0     H12531   9.207   0.782   4.492 -2.1466  0.6450  3.8668
   95MOL0     H12532   9.422   0.708   4.529  0.8064 -1.2212  1.7990
   95MOL0     H12533   9.470   0.864   4.612  1.1079 -0.7957  2.2002
   95MOL0     H12534   9.411   0.632   4.748 -1.7204 -1.1915 -0.1748
   95MOL0     H12535   9.251   0.705   4.733  0.6507 -2.1668 -1.8196
   95MOL0     H12536   9.353   0.915   4.831  0.1426 -0.5197 -0.9676
   95MOL0     H12537   9.335   0.781   4.947  0.7236  1.3395  2.4951
   95MOL0     H12538   9.726   0.844   5.018  0.0543 -0.8910  0.3843
   95MOL0     H12539   9.039   0.874   4.773  2.5592 -1.0480 -0.8206
   95MOL0     H12540   8.817   0.907   4.769 -0.3652 -0.1766 -0.4675
   96MOL0     O12541   5.058   0.461   8.983  0.3892  0.4732 -0.2702
   96MOL0     C12542   5.050   0.388   9.084  0.1988  0.2248  1.4448
   96MOL0     O12543   5.161   0.358   9.163 -0.1457 -0.0402 -0.4288
   96MOL0     C12544   5.283   0.397   9.134 -0.9477  0.6525  0.1782
   96MOL0     C12545   5.338   0.515   9.194  0.4645  0.4733 -0.1276
   96MOL0     C12546   5.462   0.556   9.157 -0.3736  0.1639  0.1242
   96MOL0     C12547   5.544   0.493   9.067  0.1247  0.0856 -0.1234
   96MOL0     O12548   5.661   0.545   9.032  0.6715 -0.1148 -0.4398
   96MOL0     C12549   5.745   0.476   8.935 -0.1574 -0.4644  0.0446
   96MOL0     C12550   5.888   0.543   8.941  0.2670  0.1554  0.0450
   96MOL0     C12551   5.877   0.704   8.947 -0.0943  0.5897 -0.1360
   96MOL0     C12552   6.014   0.759   8.907 -0.1329 -0.2977  0.2394
   96MOL0     C12553   6.097   0.776   9.034 -0.4744  0.8353  0.3298
   96MOL0     C12554   6.214   0.878   9.013  0.6393  0.5905  0.1515
   96MOL0     C12555   6.344   0.804   8.980  0.3052 -0.4772 -0.4733
   96MOL0     C12556   6.403   0.743   9.108  0.5366  0.1354  0.1355
   96MOL0     N12557   6.476   0.834   9.194 -0.4084  0.0386  0.0077
   96MOL0     C12558   6.556   0.936   9.155 -1.4830 -0.4493  0.2610
   96MOL0     C12559   6.612   0.995   9.265 -0.1228 -0.8362  0.2158
   96MOL0     C12560   6.688   1.119   9.279  0.5501 -0.8398  0.2944
   96MOL0     C12561   6.839   1.087   9.258  0.1550 -0.6484  0.9152
   96MOL0     C12562   6.900   1.226   9.242 -0.0098 -0.1641 -0.2327
   96MOL0     C12563   7.053   1.208   9.247  0.5243  1.1347  0.6793
   96MOL0     O12564   7.107   1.340   9.212 -0.4115  0.0811  0.2597
   96MOL0     C12565   7.235   1.375   9.256 -0.7763  0.5440  0.0825
   96MOL0     C12566   7.278   1.508   9.239  0.6830 -0.7688  0.1886
   96MOL0     C12567   7.398   1.537   9.297 -0.7019 -0.3931 -0.7632
   96MOL0     C12568   7.492   1.440   9.345  0.1822  0.2515 -0.3175
   96MOL0     C12569   7.625   1.475   9.387 -0.7363 -0.1110  0.0800
   96MOL0     O12570   7.708   1.361   9.389  0.4884 -0.2806  0.3598
   96MOL0     C12571   7.838   1.379   9.413 -0.3809  0.5595 -0.0938
   96MOL0     C12572   7.895   1.270   9.485 -0.2594 -0.4297 -0.2538
   96MOL0     C12573   8.032   1.267   9.519 -0.5756  0.0506  0.2542
   96MOL0     C12574   8.120   1.376   9.486 -0.3059 -0.1755  1.3700
   96MOL0     O12575   8.249   1.407   9.517 -0.2728  0.1668 -0.2402
   96MOL0     C12576   8.308   1.339   9.628  0.3264  0.4396 -0.7288
   96MOL0     C12577   8.455   1.318   9.600 -0.2906 -0.1110  0.1452
   96MOL0     C12578   8.530   1.448   9.579 -0.3215 -0.2450 -0.3612
   96MOL0     C12579   8.679   1.431   9.548 -0.4291  0.1350 -0.0035
   96MOL0     C12580   8.764   1.330   9.631  0.5659  0.6841 -0.7895
   96MOL0     C12581   8.915   1.339   9.598 -0.1780  0.4069 -0.5142
   96MOL0     C12582   8.950   1.264   9.470 -0.2019 -0.0932  0.2477
   96MOL0     C12583   9.106   1.244   9.444 -0.4981 -0.6127 -0.3105
   96MOL0    Cl12584   9.127   1.213   9.273  0.7641  0.5552  0.0418
   96MOL0     C12585   8.064   1.479   9.400 -0.4488  0.0260 -0.0534
   96MOL0     C12586   7.924   1.484   9.373 -0.1086 -1.0029 -0.4430
   96MOL0     O12587   7.650   1.587   9.435  0.3115 -0.4867  0.6106
   96MOL0     C12588   7.453   1.304   9.341  1.2969  0.5834  0.5162
   96MOL0     C12589   7.324   1.276   9.308 -0.0958  0.1845 -0.4940
   96MOL0     N12590   6.566   0.916   9.366  0.9003 -0.3870  0.4536
   96MOL0     N12591   6.483   0.832   9.330 -0.2431 -0.0309 -0.5895
   96MOL0     C12592   5.486   0.384   9.003  0.0756 -0.4977 -0.4474
   96MOL0     C12593   5.364   0.323   9.055  0.0340  0.1275 -0.6511
   96MOL0     C12594   4.927   0.335   9.131 -0.4714  0.3953 -0.5216
   96MOL0     C12595   4.908   0.270   9.257 -0.5524 -0.6827 -1.3381
   96MOL0     C12596   4.774   0.236   9.288 -0.8555  0.0123  0.2863
   96MOL0     C12597   4.660   0.256   9.204 -0.8283 -0.3020  0.4608
   96MOL0     O12598   4.539   0.215   9.257  0.5312 -0.6571  0.0159
   96MOL0     C12599   4.427   0.228   9.170  0.3060  0.2594  0.6294
   96MOL0     C12600   4.308   0.149   9.221  0.8782 -0.7253  0.5762
   96MOL0     C12601   4.166   0.206   9.173  0.3084 -0.9494  0.1539
   96MOL0     C12602   4.143   0.205   9.021  0.5197 -0.2489 -0.4543
   96MOL0     C12603   3.998   0.236   8.990 -0.2311  0.1172 -0.4341
   96MOL0     C12604   3.880   0.271   8.978 -0.0163  1.4563  0.1196
   96MOL0     C12605   4.685   0.318   9.080 -0.4475  0.0161  0.1300
   96MOL0     C12606   4.813   0.360   9.045 -0.2786  1.2111 -0.0093
   96MOL0     H12607   5.285   0.585   9.257 -0.5902  0.6358 -1.1525
   96MOL0     H12608   5.495   0.650   9.201 -1.2094  0.6150 -0.2001
   96MOL0     H12609   5.704   0.478   8.834 -2.3295  1.0385  0.8976
   96MOL0     H12610   5.769   0.373   8.963  3.4581  0.6031  1.5758
   96MOL0     H12611   5.941   0.515   8.850 -0.6384 -0.3376 -0.3451
   96MOL0     H12612   5.948   0.510   9.026 -2.6304 -1.7612  1.5092
   96MOL0     H12613   5.846   0.739   9.046  3.3095  1.9825  0.5697
   96MOL0     H12614   5.798   0.736   8.878 -0.7234 -1.4757 -0.4456
   96MOL0     H12615   6.076   0.695   8.843  3.8012  2.9696  0.4231
   96MOL0     H12616   6.000   0.859   8.864 -2.0074  0.4765  2.4393
   96MOL0     H12617   6.128   0.675   9.061 -2.0157  0.0959 -0.4851
   96MOL0     H12618   6.041   0.817   9.119 -1.4180  0.5879 -0.1592
   96MOL0     H12619   6.218   0.939   9.103  0.9124  1.8145 -0.6619
   96MOL0     H12620   6.196   0.949   8.932 -1.3241  1.2616  1.1297
   96MOL0     H12621   6.345   0.731   8.898 -1.8129 -1.1988  0.0827
   96MOL0     H12622   6.418   0.872   8.938 -1.4527  0.7903 -1.6996
   96MOL0     H12623   6.461   0.655   9.080 -2.0712 -2.3841  2.0655
   96MOL0     H12624   6.324   0.701   9.171  0.4811  0.0223 -0.0108
   96MOL0     H12625   6.584   0.972   9.056  0.8213 -3.1718 -0.2122
   96MOL0     H12626   6.678   1.148   9.384  1.3859 -0.0217  0.1648
   96MOL0     H12627   6.652   1.197   9.211 -1.6366 -2.3051 -0.3329
   96MOL0     H12628   6.840   1.025   9.167 -1.1300  1.7445 -0.8470
   96MOL0     H12629   6.890   1.045   9.345  2.0238 -0.0629  0.1579
   96MOL0     H12630   6.867   1.265   9.145 -1.3058 -4.0169 -1.5384
   96MOL0     H12631   6.876   1.284   9.331 -0.4991 -1.6866  0.6633
   96MOL0     H12632   7.092   1.131   9.180  1.5337  0.2070  2.2446
   96MOL0     H12633   7.080   1.178   9.349  1.6164  1.5817  0.5328
   96MOL0     H12634   7.222   1.589   9.194  0.1892 -0.0723  1.9643
   96MOL0     H12635   7.440   1.637   9.300  0.9705 -1.0886  0.1257
   96MOL0     H12636   7.828   1.198   9.531 -1.9260  1.1112 -0.1800
   96MOL0     H12637   8.068   1.196   9.593 -0.1659  0.9741  0.9649
   96MOL0     H12638   8.268   1.239   9.646 -1.0371  0.7313 -1.9876
   96MOL0     H12639   8.319   1.392   9.723  2.5242 -1.1169 -0.0288
   96MOL0     H12640   8.460   1.258   9.508  0.0540 -2.7884  1.7925
   96MOL0     H12641   8.505   1.259   9.677  0.7440 -1.4696 -1.4832
   96MOL0     H12642   8.511   1.515   9.664 -2.3885 -0.2723 -0.7663
   96MOL0     H12643   8.481   1.495   9.494  0.3992  1.3403  0.0525
   96MOL0     H12644   8.666   1.387   9.449 -0.9242  0.6979 -0.1935
   96MOL0     H12645   8.725   1.531   9.551 -1.8048  0.7795  0.3435
   96MOL0     H12646   8.734   1.225   9.622  2.0760  0.0497  1.0275
   96MOL0     H12647   8.743   1.358   9.734 -1.7363 -0.0880 -0.9822
   96MOL0     H12648   8.970   1.315   9.690 -2.8329  0.6413  1.2688
   96MOL0     H12649   8.941   1.440   9.566 -0.6998  0.2191 -1.5647
   96MOL0     H12650   8.894   1.170   9.477 -2.6095  1.1899 -0.6775
   96MOL0     H12651   8.916   1.327   9.387  0.3713  1.6640  1.2855
   96MOL0     H12652   9.132   1.149   9.493  1.0031 -0.0242  0.0742
   96MOL0     H12653   9.174   1.318   9.487 -1.8319 -1.4767  3.6910
   96MOL0     H12654   8.135   1.549   9.357 -0.2409 -0.1411  0.0182
   96MOL0     H12655   7.882   1.561   9.309  1.0158 -0.5524 -0.6750
   96MOL0     H12656   7.526   1.226   9.363  1.8194  0.4402 -1.4828
   96MOL0     H12657   7.285   1.175   9.317 -2.8832  1.3191  2.2225
   96MOL0     H12658   5.533   0.337   8.917 -2.5908 -1.8270 -1.2926
   96MOL0     H12659   5.331   0.227   9.017 -0.1086 -1.1978  2.5363
   96MOL0     H12660   4.990   0.263   9.328  0.4411  1.8510 -2.1162
   96MOL0     H12661   4.759   0.183   9.381 -0.4443 -1.0214 -0.2264
   96MOL0     H12662   4.448   0.188   9.071 -0.4651 -2.9281  1.6331
   96MOL0     H12663   4.394   0.332   9.161 -0.0158  0.0090 -1.6294
   96MOL0     H12664   4.328   0.050   9.181  1.0980  0.1552 -1.6454
   96MOL0     H12665   4.306   0.133   9.330  2.6012 -2.9434  0.3429
   96MOL0     H12666   4.152   0.310   9.203 -0.4746 -0.1731 -2.5575
   96MOL0     H12667   4.089   0.145   9.222  0.2600 -3.3519 -2.6117
   96MOL0     H12668   4.185   0.294   8.973 -3.1359  0.9940 -1.7033
   96MOL0     H12669   4.185   0.113   8.979 -1.1091 -0.6043 -1.4081
   96MOL0     H12670   3.778   0.303   8.973  0.3623  2.5487 -1.4431
   96MOL0     H12671   4.597   0.331   9.018 -1.2161 -1.5121  0.8384
   96MOL0     H12672   4.831   0.412   8.951 -0.5368 -1.6330 -1.7517
   97MOL0     O12673  10.553   8.130   6.870  0.0079  0.5416 -0.1217
   97MOL0     C12674  10.559   8.058   6.971 -0.6016  0.0509 -0.3816
   97MOL0     O12675  10.672   8.037   7.048 -0.2101  0.1361  0.5118
   97MOL0     C12676  10.794   8.065   6.997  0.3784 -0.2633  0.0418
   97MOL0     C12677  10.838   8.036   6.871  0.5014 -0.1169  0.8352
   97MOL0     C12678  10.969   8.060   6.830 -0.2383 -0.2500 -0.2881
   97MOL0     C12679  11.063   8.129   6.913 -0.4286 -0.6479  0.4727
   97MOL0     O12680  11.188   8.172   6.890 -0.3215  0.8912 -0.7972
   97MOL0     C12681  11.252   8.178   6.768  0.1852 -0.6644  0.0319
   97MOL0     C12682  11.387   8.247   6.775  0.1614 -0.9086  0.1028
   97MOL0     C12683  11.380   8.384   6.842  0.0267 -0.1517 -0.4041
   97MOL0     C12684  11.389   8.381   6.998  0.4157  0.3587 -0.3273
   97MOL0     C12685  11.325   8.504   7.063 -0.8192 -0.2514 -0.0545
   97MOL0     C12686  11.406   8.626   7.037 -0.6737 -0.6723 -0.4723
   97MOL0     C12687  11.396   8.730   7.156 -0.6101  0.8772 -0.2102
   97MOL0     C12688  11.278   8.827   7.146  0.3976  0.3007  0.4923
   97MOL0     N12689  11.278   8.888   7.277  0.4639 -0.0078  0.8260
   97MOL0     C12690  11.188   8.865   7.379 -0.6253  0.0078 -0.8470
   97MOL0     C12691  11.198   8.981   7.445  0.5168 -0.1399 -0.1348
   97MOL0     C12692  11.103   8.996   7.556  0.1558  1.4565 -1.0891
   97MOL0     C12693  10.965   9.013   7.510 -0.3423 -1.3948  0.2718
   97MOL0     C12694  10.866   8.992   7.615  0.1112  0.3657 -0.0796
   97MOL0     C12695  10.723   8.990   7.572 -0.1041 -0.3228 -0.6128
   97MOL0     O12696  10.698   8.879   7.491 -0.3624 -0.5643 -0.9034
   97MOL0     C12697  10.567   8.861   7.459  0.4827 -0.1597  0.1522
   97MOL0     C12698  10.542   8.765   7.356  0.0249 -0.2716 -0.7658
   97MOL0     C12699  10.405   8.733   7.323  0.1745 -0.3772  0.6370
   97MOL0     C12700  10.299   8.801   7.384  0.9160 -0.2373 -0.1237
   97MOL0     C12701  10.153   8.779   7.362 -0.6525 -0.4309 -0.5649
   97MOL0     O12702  10.115   8.693   7.266  0.0679  0.7290  0.1231
   97MOL0     C12703   9.980   8.666   7.263  1.3792  0.4869  0.3212
   97MOL0     C12704   9.881   8.739   7.182  0.1432 -0.8815 -0.7098
   97MOL0     C12705   9.749   8.705   7.157 -0.0889  0.1339 -0.4603
   97MOL0     C12706   9.706   8.596   7.227 -0.0604  0.2137 -0.1323
   97MOL0     O12707   9.575   8.559   7.188 -0.2728 -0.3703  0.3673
   97MOL0     C12708   9.556   8.415   7.203 -0.0543  0.0158  0.2862
   97MOL0     C12709   9.419   8.373   7.145  0.1418 -0.0954  0.3212
   97MOL0     C12710   9.346   8.278   7.241  0.0720 -0.6711 -0.3131
   97MOL0     C12711   9.405   8.141   7.238  0.0018  0.7217  0.7078
   97MOL0     C12712   9.330   8.045   7.328 -0.7791  0.3738  0.3567
   97MOL0     C12713   9.185   8.006   7.295  0.2385 -0.4238 -0.4244
   97MOL0     C12714   9.145   7.898   7.397  0.2022 -1.0354  1.1331
   97MOL0     C12715   8.991   7.871   7.372 -0.5783 -0.2588  0.0870
   97MOL0    Cl12716   8.922   7.756   7.488  0.3162 -0.5625  0.8626
   97MOL0     C12717   9.790   8.523   7.314  0.4066  0.0109  0.0134
   97MOL0     C12718   9.923   8.557   7.330  0.2281 -0.1019  0.1779
   97MOL0     O12719  10.076   8.833   7.445  0.4713 -0.0105 -0.5665
   97MOL0     C12720  10.332   8.906   7.475 -0.4176  0.9228  0.3395
   97MOL0     C12721  10.463   8.930   7.508  0.7073  0.1036 -0.7606
   97MOL0     N12722  11.298   9.058   7.404 -1.1681 -0.1690  0.2956
   97MOL0     N12723  11.352   8.997   7.300  0.0822 -0.6257 -0.3684
   97MOL0     C12724  11.023   8.158   7.041  0.4027  0.2516 -0.2407
   97MOL0     C12725  10.890   8.119   7.086  0.1392  0.2177 -0.6210
   97MOL0     C12726  10.432   7.989   7.013 -0.1955 -0.3725  0.2080
   97MOL0     C12727  10.437   7.903   7.129  0.9697 -0.7071  0.0953
   97MOL0     C12728  10.316   7.852   7.168  0.2260 -0.0978 -0.1149
   97MOL0     C12729  10.203   7.849   7.092  0.0442 -0.2667 -0.0851
   97MOL0     O12730  10.087   7.785   7.146  0.4727  0.1539  0.4264
   97MOL0     C12731   9.990   7.734   7.057  0.7836  0.5048 -0.2341
   97MOL0     C12732   9.965   7.596   7.102 -1.0001 -0.6800 -0.2337
   97MOL0     C12733   9.893   7.513   6.994  0.1025 -0.2492  0.8282
   97MOL0     C12734   9.813   7.393   7.048 -0.5891  0.1519 -0.2183
   97MOL0     C12735   9.710   7.419   7.148 -0.6879  0.2036 -0.0153
   97MOL0     C12736   9.621   7.446   7.217  0.0086  0.6324  0.7545
   97MOL0     C12737  10.204   7.924   6.979  0.5899 -0.5475 -0.8466
   97MOL0     C12738  10.321   7.991   6.934  1.8518 -0.2457 -0.3192
   97MOL0     H12739  10.784   7.989   6.789 -0.0811 -0.8264  1.6043
   97MOL0     H12740  10.992   8.037   6.726 -1.5007 -0.6508 -0.4934
   97MOL0     H12741  11.188   8.227   6.694  1.7581  0.0744 -0.8925
   97MOL0     H12742  11.271   8.081   6.721 -0.8756 -0.7029 -0.3338
   97MOL0     H12743  11.417   8.243   6.670 -0.5041 -4.1486 -0.0566
   97MOL0     H12744  11.464   8.196   6.833  0.4539 -1.0187 -0.3748
   97MOL0     H12745  11.287   8.431   6.810  0.6700 -0.7734 -3.5259
   97MOL0     H12746  11.460   8.451   6.808  0.4802  0.2865  1.3932
   97MOL0     H12747  11.340   8.292   7.039  0.9907 -0.1459 -0.7156
   97MOL0     H12748  11.492   8.376   7.035  0.1212  0.3863  0.5333
   97MOL0     H12749  11.330   8.488   7.171  0.8362  1.8083  0.2388
   97MOL0     H12750  11.223   8.521   7.027 -0.8747 -2.6891 -1.2300
   97MOL0     H12751  11.366   8.664   6.943 -1.0780 -0.9022 -0.3942
   97MOL0     H12752  11.509   8.590   7.028 -1.4006 -2.7817 -1.0670
   97MOL0     H12753  11.392   8.676   7.251 -1.3817  3.5376  1.3659
   97MOL0     H12754  11.485   8.794   7.149  0.4162 -0.4593  0.1238
   97MOL0     H12755  11.192   8.766   7.114 -0.1438  0.4225  1.6752
   97MOL0     H12756  11.301   8.896   7.064 -2.8336 -2.6831 -3.4019
   97MOL0     H12757  11.111   8.791   7.397 -0.6158  0.3724  0.8174
   97MOL0     H12758  11.128   9.088   7.610 -1.3361  0.5302  1.3348
   97MOL0     H12759  11.113   8.914   7.628 -2.1806 -0.0165 -2.3183
   97MOL0     H12760  10.937   8.951   7.425  0.9052  2.3870 -3.2357
   97MOL0     H12761  10.952   9.115   7.473  0.2175 -1.1294  0.7919
   97MOL0     H12762  10.901   8.901   7.663 -1.5045 -1.2159 -1.7377
   97MOL0     H12763  10.879   9.077   7.682  1.8285  0.0564  0.0103
   97MOL0     H12764  10.697   9.085   7.525  0.6708  1.1386  1.7689
   97MOL0     H12765  10.674   8.986   7.670  4.7083 -0.7442  2.0781
   97MOL0     H12766  10.635   8.724   7.318  0.8231 -0.6928  1.4743
   97MOL0     H12767  10.379   8.665   7.241 -0.3175  2.4320 -1.6951
   97MOL0     H12768   9.904   8.838   7.142  0.2090 -1.3981 -2.0169
   97MOL0     H12769   9.678   8.748   7.088 -0.4684  1.4342  0.6928
   97MOL0     H12770   9.565   8.387   7.309 -0.6582  2.4288  1.0389
   97MOL0     H12771   9.631   8.354   7.151 -0.1707 -1.3432  1.6279
   97MOL0     H12772   9.426   8.333   7.043 -1.8798  1.8970 -0.6955
   97MOL0     H12773   9.359   8.464   7.134  1.5155  0.6091 -2.3271
   97MOL0     H12774   9.245   8.268   7.200  0.8308 -2.8803 -1.8061
   97MOL0     H12775   9.345   8.322   7.341 -3.3478 -2.5862  0.6629
   97MOL0     H12776   9.393   8.101   7.136  0.0612 -0.2168  1.0628
   97MOL0     H12777   9.512   8.153   7.258  0.4186  1.4408 -1.5412
   97MOL0     H12778   9.336   8.084   7.430  0.3456 -1.5710  1.0713
   97MOL0     H12779   9.388   7.953   7.332  0.6323  1.0033 -2.6405
   97MOL0     H12780   9.170   7.973   7.192  1.2803 -1.2254 -0.3348
   97MOL0     H12781   9.122   8.095   7.309  0.3286  0.1659 -3.2651
   97MOL0     H12782   9.200   7.807   7.372 -0.2873 -0.3898 -2.9178
   97MOL0     H12783   9.167   7.920   7.502 -4.7158  2.2041  1.8233
   97MOL0     H12784   8.979   7.837   7.269 -0.3378  1.6089 -0.5951
   97MOL0     H12785   8.924   7.954   7.396 -2.5687 -1.9192  0.6378
   97MOL0     H12786   9.747   8.454   7.385 -1.4123  2.7948  1.8403
   97MOL0     H12787   9.992   8.502   7.393  0.4878  0.5264  0.4556
   97MOL0     H12788  10.254   8.966   7.519 -1.5591 -0.6483  0.5388
   97MOL0     H12789  10.479   9.005   7.584  1.0750 -0.9524  0.2441
   97MOL0     H12790  11.090   8.199   7.116  1.4837 -1.5530 -0.1646
   97MOL0     H12791  10.851   8.121   7.187  0.5372  3.5579 -0.4107
   97MOL0     H12792  10.530   7.877   7.177  0.9396  0.3014  0.7196
   97MOL0     H12793  10.300   7.813   7.267  1.7190 -0.2548  0.0898
   97MOL0     H12794  10.037   7.736   6.958  1.4036  2.1010  0.0621
   97MOL0     H12795   9.900   7.795   7.053  0.7371  0.4132 -0.6706
   97MOL0     H12796  10.061   7.545   7.115 -0.4856  0.7822  2.4179
   97MOL0     H12797   9.914   7.587   7.198  2.0730 -1.5110  1.4439
   97MOL0     H12798   9.966   7.473   6.923 -0.5565  0.5542 -0.3229
   97MOL0     H12799   9.825   7.576   6.937  2.9041 -0.3526 -3.0698
   97MOL0     H12800   9.779   7.349   6.953  2.3497  1.7366 -2.1404
   97MOL0     H12801   9.882   7.324   7.096 -3.2451 -1.8798  0.9422
   97MOL0     H12802   9.534   7.468   7.276  0.9906 -0.0279  2.5320
   97MOL0     H12803  10.117   7.935   6.916  0.1934 -1.4363 -0.4774
   97MOL0     H12804  10.318   8.033   6.833  1.1952 -1.3185 -0.7591
   98MOL0     O12805   2.443   0.889   5.443 -0.1408 -0.0464 -0.1390
   98MOL0     C12806   2.482   0.932   5.548 -0.5350  0.3829 -0.5349
   98MOL0     O12807   2.430   0.901   5.669  0.2947  0.5323 -0.3924
   98MOL0     C12808   2.306   0.836   5.691  0.2865  0.6385  0.0641
   98MOL0     C12809   2.215   0.779   5.598 -0.9125 -0.2522  0.4074
   98MOL0     C12810   2.104   0.712   5.636  0.1597  0.0166  0.4261
   98MOL0     C12811   2.064   0.713   5.777 -0.4652 -0.3802  1.4372
   98MOL0     O12812   1.948   0.668   5.827  0.1546 -0.4445 -0.1696
   98MOL0     C12813   1.830   0.675   5.753  0.2180  0.4994 -0.2165
   98MOL0     C12814   1.727   0.572   5.806  1.0176  0.3405 -0.9458
   98MOL0     C12815   1.582   0.609   5.774 -0.2134  0.2011  0.0768
   98MOL0     C12816   1.489   0.507   5.847  0.4514  1.0174 -0.2520
   98MOL0     C12817   1.352   0.513   5.779  0.6278 -0.0570  0.4208
   98MOL0     C12818   1.262   0.383   5.811  0.3744 -0.4521  1.2209
   98MOL0     C12819   1.113   0.405   5.776 -0.1230 -0.1185  0.6380
   98MOL0     C12820   1.039   0.286   5.827  0.6242  0.5629  0.1812
   98MOL0     N12821   0.897   0.277   5.774  0.6124 -0.1997 -0.0438
   98MOL0     C12822   0.784   0.279   5.854 -0.6963 -0.3057  0.6052
   98MOL0     C12823   0.679   0.253   5.775  0.9444  0.1841 -0.8472
   98MOL0     C12824   0.529   0.266   5.808 -0.3174  0.4671  0.2384
   98MOL0     C12825   0.449   0.310   5.680 -1.3758  0.0789 -0.5223
   98MOL0     C12826   0.470   0.462   5.656  0.3858 -0.3374  0.0638
   98MOL0     C12827   0.396   0.503   5.529 -0.4212 -0.7709  0.2978
   98MOL0     O12828   0.255   0.480   5.546  0.0425 -0.2548  0.0955
   98MOL0     C12829   0.173   0.548   5.471  0.3864  0.1420  0.0384
   98MOL0     C12830   0.205   0.647   5.375 -0.0958 -0.2337  0.0645
   98MOL0     C12831   0.113   0.738   5.319  0.1103  0.5574 -0.8101
   98MOL0     C12832  -0.026   0.706   5.342  0.3638  0.3179  0.3094
   98MOL0     C12833  -0.137   0.790   5.284 -0.9093  0.2103  0.5435
   98MOL0     O12834  -0.262   0.783   5.337 -0.4912 -0.2889  0.3436
   98MOL0     C12835  -0.367   0.852   5.285  0.3356 -0.6352  0.3686
   98MOL0     C12836  -0.450   0.915   5.379 -0.4871 -0.8923  0.6027
   98MOL0     C12837  -0.558   0.994   5.336  0.5466  0.1732  0.6635
   98MOL0     C12838  -0.585   1.016   5.203 -0.9705 -0.8056 -0.2298
   98MOL0     O12839  -0.695   1.088   5.175  0.3471  0.1505 -0.0917
   98MOL0     C12840  -0.753   1.094   5.045 -0.6243 -0.6243  0.6903
   98MOL0     C12841  -0.864   1.197   5.038 -0.2671 -0.0532  0.2107
   98MOL0     C12842  -0.944   1.168   4.915  0.3081  0.6774 -0.4187
   98MOL0     C12843  -1.069   1.253   4.896 -0.0816 -0.0816 -0.0225
   98MOL0     C12844  -1.112   1.247   4.747  0.0590 -0.2435 -0.1063
   98MOL0     C12845  -1.245   1.327   4.728  0.2482  1.1093 -0.5610
   98MOL0     C12846  -1.286   1.334   4.585  0.9263 -0.0413  0.0388
   98MOL0     C12847  -1.331   1.208   4.526 -0.3472 -0.8125  0.9595
   98MOL0    Cl12848  -1.453   1.111   4.618 -0.0461  0.4222  0.0442
   98MOL0     C12849  -0.495   0.960   5.107  0.0864  0.5049  0.4949
   98MOL0     C12850  -0.382   0.881   5.146 -0.6891  0.0849  0.0783
   98MOL0     O12851  -0.099   0.872   5.197 -0.9146  0.1538 -0.5223
   98MOL0     C12852  -0.059   0.595   5.426  0.4579  0.8435  0.3318
   98MOL0     C12853   0.043   0.525   5.490 -0.2599 -0.0215  0.7030
   98MOL0     N12854   0.724   0.242   5.649 -1.0804  0.2967 -0.3706
   98MOL0     N12855   0.852   0.252   5.649  0.1582 -0.0321  0.6456
   98MOL0     C12856   2.149   0.778   5.869  0.0466  0.4289  0.5599
   98MOL0     C12857   2.271   0.834   5.824 -1.0412 -0.4623  0.5303
   98MOL0     C12858   2.607   1.007   5.543 -0.5386 -0.2488 -0.1283
   98MOL0     C12859   2.638   1.113   5.636  0.7308 -0.0530  0.3561
   98MOL0     C12860   2.760   1.193   5.627  0.2443  0.1135  0.3000
   98MOL0     C12861   2.855   1.153   5.527  0.4374 -0.0737 -0.8107
   98MOL0     O12862   2.974   1.224   5.532 -0.2196  0.5261  0.1807
   98MOL0     C12863   3.065   1.215   5.420  0.4874 -0.3058  0.5462
   98MOL0     C12864   3.182   1.310   5.433  0.1439 -0.4156  0.5190
   98MOL0     C12865   3.139   1.461   5.402  0.5354  0.4034 -0.5418
   98MOL0     C12866   3.126   1.479   5.246 -0.5123 -0.1844 -0.7756
   98MOL0     C12867   3.246   1.452   5.163  0.2654 -0.2223  0.7684
   98MOL0     C12868   3.349   1.437   5.090  0.3686 -0.3822 -0.5049
   98MOL0     C12869   2.826   1.045   5.442  0.1631  0.1538 -0.2088
   98MOL0     C12870   2.710   0.966   5.453  0.2203  0.0697 -0.3094
   98MOL0     H12871   2.248   0.794   5.496  0.6973  2.1493  1.2019
   98MOL0     H12872   2.044   0.665   5.559 -1.3614 -0.0241  1.5928
   98MOL0     H12873   1.844   0.659   5.645 -0.3274  2.4525 -0.6023
   98MOL0     H12874   1.788   0.775   5.764  0.6909  0.6987 -0.2010
   98MOL0     H12875   1.729   0.555   5.914  0.9678  2.2285 -0.6157
   98MOL0     H12876   1.737   0.471   5.765  1.4235  0.8454 -2.1286
   98MOL0     H12877   1.580   0.616   5.665 -1.9413 -0.2124  0.0591
   98MOL0     H12878   1.549   0.710   5.797 -3.9440 -0.1482 -2.7713
   98MOL0     H12879   1.529   0.407   5.826  0.7220  1.6264 -2.9516
   98MOL0     H12880   1.470   0.513   5.955  1.3050 -0.3125  0.0031
   98MOL0     H12881   1.369   0.519   5.671 -0.5378  1.4941  0.2739
   98MOL0     H12882   1.305   0.607   5.809 -1.0742 -0.7348 -0.0077
   98MOL0     H12883   1.280   0.353   5.915  1.6775  0.3804  1.2597
   98MOL0     H12884   1.301   0.302   5.749  0.0887 -0.7320  1.4036
   98MOL0     H12885   1.085   0.492   5.835  2.4938  1.1795  0.1359
   98MOL0     H12886   1.094   0.429   5.671  0.5354 -0.1060  0.5127
   98MOL0     H12887   1.036   0.278   5.936 -1.4183 -2.1167  0.0524
   98MOL0     H12888   1.087   0.194   5.791 -0.9193 -1.6559  3.2435
   98MOL0     H12889   0.779   0.298   5.961  1.4188 -1.0679  0.8841
   98MOL0     H12890   0.518   0.329   5.897 -0.8386  0.6384  0.0555
   98MOL0     H12891   0.500   0.168   5.844 -0.5746 -0.0238 -1.2233
   98MOL0     H12892   0.342   0.295   5.698 -1.0540 -1.0393  0.6063
   98MOL0     H12893   0.479   0.251   5.593  0.2218  2.9508 -2.0643
   98MOL0     H12894   0.444   0.504   5.753 -0.0741 -3.2164  1.2901
   98MOL0     H12895   0.578   0.481   5.651  0.4451 -0.4873  0.6863
   98MOL0     H12896   0.439   0.459   5.439 -1.1248 -0.0888 -0.3903
   98MOL0     H12897   0.416   0.610   5.517  0.8747 -1.1977 -1.7650
   98MOL0     H12898   0.310   0.663   5.351 -0.6286 -0.0188 -2.3770
   98MOL0     H12899   0.141   0.819   5.252  1.4981  0.4734 -0.3592
   98MOL0     H12900  -0.426   0.904   5.484  0.0987 -0.0984  0.5616
   98MOL0     H12901  -0.613   1.029   5.423 -2.1847 -1.0341 -0.4485
   98MOL0     H12902  -0.789   0.993   5.024  2.1640 -1.3958 -0.7826
   98MOL0     H12903  -0.689   1.128   4.963 -0.4957  1.4659  1.5759
   98MOL0     H12904  -0.833   1.302   5.037 -1.8538  0.4671 -2.1228
   98MOL0     H12905  -0.926   1.172   5.125  3.1884 -1.7088  2.4107
   98MOL0     H12906  -0.969   1.062   4.921 -0.7128  0.9017 -0.5088
   98MOL0     H12907  -0.882   1.182   4.826 -1.1312  1.2699 -1.3641
   98MOL0     H12908  -1.152   1.211   4.954 -1.4483  1.9923 -0.3760
   98MOL0     H12909  -1.044   1.355   4.927 -0.6751  0.6883 -1.9712
   98MOL0     H12910  -1.128   1.141   4.729  0.2200  0.0207 -1.9919
   98MOL0     H12911  -1.036   1.284   4.679 -0.6499 -0.0312 -0.7975
   98MOL0     H12912  -1.234   1.429   4.768 -2.2146  0.7651  1.2602
   98MOL0     H12913  -1.323   1.286   4.792  2.0346  0.2891  1.2161
   98MOL0     H12914  -1.369   1.405   4.578  0.0687 -1.1549 -2.2638
   98MOL0     H12915  -1.202   1.367   4.524  1.4286 -0.8676  0.2633
   98MOL0     H12916  -1.243   1.150   4.498 -1.0181 -1.0959 -0.7210
   98MOL0     H12917  -1.391   1.237   4.438  0.9828  0.1016  0.3281
   98MOL0     H12918  -0.515   0.970   5.000  1.3620 -2.1555 -0.0771
   98MOL0     H12919  -0.309   0.846   5.075  0.5549  1.9105  0.3951
   98MOL0     H12920  -0.162   0.565   5.439  0.2489  1.3249 -0.1933
   98MOL0     H12921   0.031   0.438   5.554  3.6409 -0.1958  1.4503
   98MOL0     H12922   2.125   0.769   5.974  1.3646 -0.2542  0.8248
   98MOL0     H12923   2.345   0.880   5.888 -0.2145 -0.5246 -0.3655
   98MOL0     H12924   2.574   1.131   5.722  1.0989 -2.0568  1.1056
   98MOL0     H12925   2.782   1.274   5.696  0.0917  0.8655 -0.5242
   98MOL0     H12926   3.009   1.214   5.326 -1.5974 -4.6004  1.5534
   98MOL0     H12927   3.100   1.113   5.404  0.5312  0.0224 -1.8941
   98MOL0     H12928   3.224   1.299   5.533  0.2934  3.1770  0.9575
   98MOL0     H12929   3.264   1.270   5.373 -1.1898 -2.6471  0.0313
   98MOL0     H12930   3.205   1.534   5.449 -1.0241 -0.6377  3.8129
   98MOL0     H12931   3.046   1.496   5.448 -0.3614 -0.8169 -1.3757
   98MOL0     H12932   3.042   1.414   5.216 -0.3172 -0.7866 -0.0627
   98MOL0     H12933   3.096   1.581   5.221  0.2355 -0.0647 -1.2014
   98MOL0     H12934   3.436   1.433   5.028 -0.0637 -0.5592 -1.1049
   98MOL0     H12935   2.891   1.000   5.368  1.6387 -0.6261  1.4898
   98MOL0     H12936   2.688   0.878   5.392  2.6961 -1.9285  1.4595
   99MOL0     O12937  10.732   5.589   0.562 -0.4542  0.8875  0.0349
   99MOL0     C12938  10.781   5.581   0.674  0.1886  0.3918 -0.4682
   99MOL0     O12939  10.723   5.507   0.783 -0.2592 -0.5846  0.9383
   99MOL0     C12940  10.600   5.442   0.759  0.6266  0.2121 -0.2039
   99MOL0     C12941  10.481   5.505   0.786 -0.4103  0.1453  0.6734
   99MOL0     C12942  10.359   5.439   0.757 -0.5975 -0.0239  0.9319
   99MOL0     C12943  10.355   5.301   0.703 -0.1370 -0.8882 -0.3754
   99MOL0     O12944  10.238   5.241   0.681  0.3737  0.6012  0.2487
   99MOL0     C12945  10.113   5.308   0.701 -0.9670 -0.1724 -0.0882
   99MOL0     C12946   9.997   5.225   0.647 -0.3619 -0.8814  0.1087
   99MOL0     C12947   9.868   5.297   0.657  0.2728 -0.6627 -0.7581
   99MOL0     C12948   9.764   5.229   0.564 -0.8589  0.2878 -0.4241
   99MOL0     C12949   9.626   5.293   0.582 -0.1041 -0.6263  0.5965
   99MOL0     C12950   9.513   5.202   0.525  0.6906  0.0800  1.4354
   99MOL0     C12951   9.376   5.257   0.575  0.1879  0.1085  0.5956
   99MOL0     C12952   9.269   5.191   0.491  0.8354  0.7148 -0.1668
   99MOL0     N12953   9.135   5.241   0.522 -0.0878  0.3576 -0.8456
   99MOL0     C12954   9.017   5.194   0.472  0.3508 -0.5420 -0.5190
   99MOL0     C12955   8.915   5.265   0.529  0.3292 -0.1947  0.0761
   99MOL0     C12956   8.762   5.265   0.487  0.0858  0.1161  0.7559
   99MOL0     C12957   8.721   5.390   0.407  0.4816 -0.0356  1.1692
   99MOL0     C12958   8.611   5.367   0.294  0.4870 -0.2048 -0.0850
   99MOL0     C12959   8.477   5.312   0.355 -0.5474 -0.3899 -0.6308
   99MOL0     O12960   8.355   5.353   0.286 -0.5979 -0.2829  0.2163
   99MOL0     C12961   8.241   5.350   0.356  0.5783 -0.4123 -0.5223
   99MOL0     C12962   8.127   5.371   0.280 -0.0842  0.1619  0.3782
   99MOL0     C12963   7.996   5.368   0.338  0.2766  1.0040 -0.5268
   99MOL0     C12964   7.975   5.316   0.466  0.1441 -0.3795  1.0389
   99MOL0     C12965   7.845   5.304   0.519  0.6339  0.0206 -0.0519
   99MOL0     O12966   7.751   5.393   0.468  0.2322  0.1102 -0.0861
   99MOL0     C12967   7.620   5.374   0.522  0.1298 -0.1550  0.1924
   99MOL0     C12968   7.523   5.371   0.426  1.7599 -0.1837 -0.9956
   99MOL0     C12969   7.385   5.358   0.457 -0.2046 -0.7663 -0.7410
   99MOL0     C12970   7.356   5.359   0.598  0.0327 -0.3610 -0.2281
   99MOL0     O12971   7.219   5.361   0.632 -0.5946 -0.0929  0.2886
   99MOL0     C12972   7.174   5.378   0.767 -0.3143  0.4311  0.3512
   99MOL0     C12973   7.027   5.326   0.788 -0.5225  0.0427 -0.1813
   99MOL0     C12974   6.930   5.402   0.708  0.1515  0.4243  0.3650
   99MOL0     C12975   6.788   5.369   0.742  0.9183 -0.1792  0.1526
   99MOL0     C12976   6.688   5.449   0.648  0.3718  0.6799 -0.4722
   99MOL0     C12977   6.548   5.383   0.656 -0.4506 -0.4692 -0.2176
   99MOL0     C12978   6.457   5.455   0.558  0.7075  0.3027 -0.2842
   99MOL0     C12979   6.444   5.607   0.587 -0.0135 -0.9691  0.6474
   99MOL0    Cl12980   6.288   5.676   0.518 -0.6215  0.7567  0.3454
   99MOL0     C12981   7.461   5.367   0.696  0.4277  0.4800 -0.0347
   99MOL0     C12982   7.589   5.372   0.661  0.0154  0.9861  0.5192
   99MOL0     O12983   7.823   5.214   0.602 -0.0514 -0.1635 -0.3602
   99MOL0     C12984   8.090   5.302   0.547 -0.0252  0.5893 -0.0947
   99MOL0     C12985   8.216   5.320   0.487  0.4413 -0.8360  0.2931
   99MOL0     N12986   8.972   5.365   0.606  0.2522  0.5549 -0.4413
   99MOL0     N12987   9.101   5.337   0.609 -0.0808 -0.5684  0.4495
   99MOL0     C12988  10.478   5.236   0.695  0.0968 -0.0529  0.2215
   99MOL0     C12989  10.596   5.312   0.717 -0.6519 -0.4851 -0.8160
   99MOL0     C12990  10.919   5.635   0.701  0.6284 -0.3519  0.9058
   99MOL0     C12991  11.011   5.629   0.594  0.2010  0.0405 -0.5223
   99MOL0     C12992  11.141   5.672   0.626 -0.1689 -0.1740 -0.3128
   99MOL0     C12993  11.187   5.708   0.755  0.7962 -0.7478  0.0177
   99MOL0     O12994  11.312   5.755   0.784 -0.0549 -0.0387 -0.6578
   99MOL0     C12995  11.395   5.643   0.818  0.2944  1.1292  0.1128
   99MOL0     C12996  11.538   5.696   0.857 -0.1187  0.9226 -0.2503
   99MOL0     C12997  11.617   5.577   0.914  0.5413  0.4405 -0.2667
   99MOL0     C12998  11.715   5.611   1.027 -0.0889  0.3712  0.4483
   99MOL0     C12999  11.819   5.695   0.980  0.9729  0.2843  0.7376
   99MOL0     C13000  11.891   5.772   0.936 -0.2184  0.0493  0.0876
   99MOL0     C13001  11.083   5.708   0.854 -0.9466  0.2496  0.6184
   99MOL0     C13002  10.959   5.669   0.832  0.8029  0.0619 -0.1323
   99MOL0     H13003  10.479   5.600   0.839  2.9245  0.5727  0.2570
   99MOL0     H13004  10.267   5.487   0.787  0.1840  0.3768  2.8445
   99MOL0     H13005  10.126   5.392   0.631 -2.3467  2.2295  2.3242
   99MOL0     H13006  10.103   5.339   0.806  1.0892  5.2102 -1.1413
   99MOL0     H13007   9.997   5.132   0.704 -1.8982 -0.6242  0.5669
   99MOL0     H13008  10.024   5.205   0.543 -0.9486  0.5451 -0.3476
   99MOL0     H13009   9.882   5.400   0.624  0.5607 -1.6375 -4.0933
   99MOL0     H13010   9.839   5.291   0.762 -0.8229 -0.8571 -1.0616
   99MOL0     H13011   9.805   5.215   0.464  2.0964  1.6260  0.4936
   99MOL0     H13012   9.759   5.128   0.607 -1.8918  0.1732 -0.7845
   99MOL0     H13013   9.619   5.385   0.522 -1.0122 -0.8884  0.2899
   99MOL0     H13014   9.615   5.327   0.685  3.7273  1.3175  0.5450
   99MOL0     H13015   9.514   5.096   0.552  2.4517 -0.3821 -0.2472
   99MOL0     H13016   9.524   5.203   0.416  0.5729  1.2653  1.4169
   99MOL0     H13017   9.363   5.230   0.680 -1.0115 -1.0242  0.1756
   99MOL0     H13018   9.376   5.367   0.573 -1.6585  0.1571  1.0628
   99MOL0     H13019   9.266   5.085   0.518 -2.0301  0.4891 -0.9904
   99MOL0     H13020   9.279   5.199   0.383  1.5007 -0.2393 -0.1814
   99MOL0     H13021   9.000   5.116   0.398 -2.4775 -0.2333 -0.3102
   99MOL0     H13022   8.698   5.260   0.575 -2.3227  1.1623 -0.8399
   99MOL0     H13023   8.747   5.185   0.413  0.8470 -0.0856  0.8142
   99MOL0     H13024   8.814   5.432   0.368  0.1081 -1.5807 -1.6116
   99MOL0     H13025   8.674   5.460   0.478  0.3403  0.5053  0.5501
   99MOL0     H13026   8.592   5.461   0.242  3.2875 -0.2249 -1.2993
   99MOL0     H13027   8.639   5.303   0.209  0.5541  2.5419 -2.2830
   99MOL0     H13028   8.473   5.361   0.452  0.7942 -2.8640  0.7443
   99MOL0     H13029   8.472   5.203   0.360  0.7985 -0.5746 -2.3387
   99MOL0     H13030   8.136   5.402   0.176 -4.2734  0.1981 -0.1470
   99MOL0     H13031   7.906   5.385   0.280  0.5790  3.1215 -0.4557
   99MOL0     H13032   7.555   5.388   0.324  2.7567 -2.1804 -1.0555
   99MOL0     H13033   7.314   5.369   0.376  0.7151 -0.0513 -1.4741
   99MOL0     H13034   7.172   5.484   0.795 -1.8980  0.4833  0.1557
   99MOL0     H13035   7.241   5.315   0.827 -0.9491  0.7449  1.4229
   99MOL0     H13036   6.995   5.345   0.890  2.2834  1.9606  0.4530
   99MOL0     H13037   7.013   5.223   0.753  0.3507 -0.1918  0.1262
   99MOL0     H13038   6.946   5.375   0.603  1.8873 -0.7804  0.9114
   99MOL0     H13039   6.950   5.508   0.726  1.9537 -0.3728  3.8913
   99MOL0     H13040   6.764   5.263   0.756  0.9669  0.1343  3.6581
   99MOL0     H13041   6.768   5.409   0.842 -0.9745  0.8456 -0.5847
   99MOL0     H13042   6.742   5.438   0.553  2.1163  1.0740  0.4326
   99MOL0     H13043   6.684   5.556   0.673 -0.3694  1.1363 -2.3394
   99MOL0     H13044   6.518   5.381   0.761 -0.1431  3.8401  0.1419
   99MOL0     H13045   6.559   5.279   0.624  1.3556 -1.1451  2.3214
   99MOL0     H13046   6.503   5.440   0.460  4.1642 -0.8288  1.3602
   99MOL0     H13047   6.356   5.416   0.576 -0.6684  3.5002 -0.4433
   99MOL0     H13048   6.525   5.665   0.543 -0.6066 -1.4246 -1.0988
   99MOL0     H13049   6.434   5.636   0.692 -2.8080 -1.6580  0.6459
   99MOL0     H13050   7.434   5.364   0.801 -0.1362 -0.2786 -0.1941
   99MOL0     H13051   7.665   5.390   0.736 -2.2170  0.2219  3.1430
   99MOL0     H13052   8.070   5.283   0.652 -0.5772 -0.5991 -0.4060
   99MOL0     H13053   8.304   5.306   0.549  1.5056  0.6804 -0.8052
   99MOL0     H13054  10.496   5.134   0.660  0.7873 -0.4863  1.7611
   99MOL0     H13055  10.690   5.260   0.700 -0.9577 -0.8652 -1.4010
   99MOL0     H13056  10.999   5.596   0.492  1.5347 -0.4984 -0.5291
   99MOL0     H13057  11.216   5.681   0.548  0.0286 -1.0544 -0.2405
   99MOL0     H13058  11.412   5.571   0.738  0.7020  1.9655 -0.5656
   99MOL0     H13059  11.355   5.592   0.906  0.8794 -0.1317 -0.3254
   99MOL0     H13060  11.585   5.734   0.766  0.7236 -0.7385 -0.5550
   99MOL0     H13061  11.533   5.778   0.929 -1.4714  1.1349 -0.5618
   99MOL0     H13062  11.660   5.502   0.847  0.1908 -0.6427  0.7068
   99MOL0     H13063  11.549   5.508   0.963  0.0015  1.9533  1.2166
   99MOL0     H13064  11.672   5.656   1.117  0.0575  0.0262  0.6936
   99MOL0     H13065  11.765   5.522   1.067  2.1989  1.6043  0.5137
   99MOL0     H13066  11.949   5.833   0.869 -1.0801 -1.3923 -2.0775
   99MOL0     H13067  11.119   5.723   0.956 -3.6057 -1.5573  1.9559
   99MOL0     H13068  10.883   5.658   0.910  2.2086  1.3052  1.5003
  100MOL0     O13069   5.559   0.799   3.341  0.1697  0.7108  0.5022
  100MOL0     C13070   5.468   0.880   3.362 -0.4002  0.9050 -0.3443
  100MOL0     O13071   5.366   0.872   3.457 -0.3652  0.2382  0.2937
  100MOL0     C13072   5.361   0.749   3.520 -0.4377  0.2470  0.0728
  100MOL0     C13073   5.270   0.663   3.461 -0.5796 -0.3551  0.7870
  100MOL0     C13074   5.257   0.529   3.515  0.2423  0.1777 -0.2806
  100MOL0     C13075   5.340   0.482   3.623 -0.4270  0.1164  0.0861
  100MOL0     O13076   5.309   0.362   3.673  0.0758  1.0339 -0.2079
  100MOL0     C13077   5.269   0.249   3.596 -0.1948  0.5165 -0.3300
  100MOL0     C13078   5.125   0.204   3.647 -0.6342  0.0582  1.0766
  100MOL0     C13079   5.015   0.288   3.593 -0.3190 -0.7536 -0.7773
  100MOL0     C13080   4.877   0.224   3.626 -0.1834 -0.2407 -0.0707
  100MOL0     C13081   4.761   0.328   3.605 -0.6553  0.6984  0.2008
  100MOL0     C13082   4.628   0.271   3.649  0.0862  0.5453  0.0230
  100MOL0     C13083   4.513   0.368   3.617 -0.1321  0.6087 -0.1769
  100MOL0     C13084   4.368   0.318   3.648 -0.2272 -0.6208  0.0215
  100MOL0     N13085   4.342   0.276   3.784 -0.4447 -0.7979 -0.5529
  100MOL0     C13086   4.326   0.352   3.895  0.9812 -0.0864  0.1158
  100MOL0     C13087   4.268   0.270   3.985  0.4135  0.3119  0.2963
  100MOL0     C13088   4.225   0.320   4.122  0.5844 -0.5234  0.7537
  100MOL0     C13089   4.072   0.311   4.140  0.3712 -0.7867 -0.1646
  100MOL0     C13090   4.032   0.392   4.262  0.2047 -0.7754 -0.3824
  100MOL0     C13091   3.883   0.381   4.288 -0.4653  0.3422 -0.3474
  100MOL0     O13092   3.854   0.271   4.378  0.1187 -0.8345 -0.1625
  100MOL0     C13093   3.725   0.261   4.412 -0.2893  0.3986  0.1334
  100MOL0     C13094   3.616   0.323   4.349  0.7552  0.3021  0.5105
  100MOL0     C13095   3.485   0.289   4.376 -0.5157 -1.2421  0.0137
  100MOL0     C13096   3.458   0.197   4.476  0.1900 -0.5325 -0.0502
  100MOL0     C13097   3.318   0.156   4.509 -0.1941  0.2937 -0.8805
  100MOL0     O13098   3.304   0.048   4.598 -0.2802 -0.5373  0.2117
  100MOL0     C13099   3.178   0.035   4.648 -0.1149  0.9484 -0.3866
  100MOL0     C13100   3.096  -0.049   4.581 -0.5154 -0.1585 -0.6611
  100MOL0     C13101   2.959  -0.073   4.627  0.1997 -0.3130 -0.1858
  100MOL0     C13102   2.907   0.008   4.735 -0.6443 -0.4789  0.1273
  100MOL0     O13103   2.782  -0.004   4.798  0.2828 -0.1786  0.0449
  100MOL0     C13104   2.704  -0.114   4.740  0.4457 -0.6134 -0.0692
  100MOL0     C13105   2.569  -0.112   4.813  0.5214 -0.8971  0.7246
  100MOL0     C13106   2.456  -0.209   4.761 -1.3220  0.9707  1.0179
  100MOL0     C13107   2.326  -0.165   4.807 -0.1506  0.2456  0.2975
  100MOL0     C13108   2.223  -0.284   4.796  0.0607 -0.5295 -0.2911
  100MOL0     C13109   2.081  -0.254   4.846  0.1680 -0.3055  0.0791
  100MOL0     C13110   2.016  -0.151   4.739  0.1362  0.8058 -0.9261
  100MOL0     C13111   1.867  -0.138   4.751  0.0190  0.3287 -0.1652
  100MOL0    Cl13112   1.801  -0.020   4.632 -0.4109  0.0864  0.3972
  100MOL0     C13113   2.999   0.105   4.792  0.4557 -0.0905  0.8055
  100MOL0     C13114   3.132   0.106   4.760 -0.1091 -0.1380  0.5623
  100MOL0     O13115   3.230   0.232   4.475 -0.4922 -1.0347 -0.9006
  100MOL0     C13116   3.563   0.120   4.531 -0.4631 -0.0686 -0.3324
  100MOL0     C13117   3.701   0.161   4.501  1.4401 -0.1126  0.1130
  100MOL0     N13118   4.251   0.148   3.926  1.0915  0.2089  0.2245
  100MOL0     N13119   4.295   0.156   3.804  0.1465  0.2097  0.0167
  100MOL0     C13120   5.435   0.570   3.673  0.2511  0.6926  0.4052
  100MOL0     C13121   5.448   0.702   3.621 -0.1284  0.0024  0.5946
  100MOL0     C13122   5.474   0.997   3.286 -0.1932 -0.0040 -0.2183
  100MOL0     C13123   5.547   1.000   3.166  0.3812  0.1090  0.7735
  100MOL0     C13124   5.535   1.109   3.077  0.2768  0.1626 -0.4551
  100MOL0     C13125   5.459   1.223   3.102 -0.5710 -0.3761  0.0719
  100MOL0     O13126   5.448   1.330   3.015 -0.5212  0.2200 -0.8532
  100MOL0     C13127   5.517   1.326   2.893 -0.5638  0.5714 -0.2788
  100MOL0     C13128   5.510   1.463   2.818  0.5565  0.1719  0.2694
  100MOL0     C13129   5.569   1.441   2.682  0.2574  0.0728  0.6626
  100MOL0     C13130   5.560   1.565   2.588  0.0024  0.5053 -0.1735
  100MOL0     C13131   5.621   1.684   2.645 -0.5871  0.3097  0.2776
  100MOL0     C13132   5.667   1.792   2.675 -0.2529 -0.4662  0.0416
  100MOL0     C13133   5.385   1.216   3.226 -0.0838  0.3874  0.3053
  100MOL0     C13134   5.387   1.110   3.312 -0.1541  0.0211 -0.4256
  100MOL0     H13135   5.205   0.690   3.378  0.7234  2.5834  0.5989
  100MOL0     H13136   5.191   0.465   3.458  1.1141 -0.1566 -0.9401
  100MOL0     H13137   5.340   0.170   3.622  3.4460  3.1556 -1.5428
  100MOL0     H13138   5.268   0.256   3.487 -3.8486  1.9215 -0.3675
  100MOL0     H13139   5.117   0.199   3.756  0.7517 -1.6074  1.1627
  100MOL0     H13140   5.101   0.106   3.604 -0.8152  0.7980 -0.6019
  100MOL0     H13141   5.029   0.306   3.486 -0.4479  2.0302 -0.4179
  100MOL0     H13142   5.034   0.385   3.640  0.6938 -0.1994 -2.2561
  100MOL0     H13143   4.857   0.139   3.560  0.9626 -0.4400 -0.1758
  100MOL0     H13144   4.874   0.194   3.731 -0.6999 -0.6169 -0.1913
  100MOL0     H13145   4.769   0.362   3.501  1.0418  1.1195  0.4398
  100MOL0     H13146   4.776   0.406   3.680 -0.2502  0.8014  0.0142
  100MOL0     H13147   4.642   0.256   3.756  1.8844  0.8054 -0.1346
  100MOL0     H13148   4.602   0.173   3.609 -1.1994 -0.0105  2.1064
  100MOL0     H13149   4.534   0.461   3.670  0.8790  0.0160  0.4753
  100MOL0     H13150   4.520   0.391   3.510 -0.7766  0.7391 -0.1936
  100MOL0     H13151   4.352   0.240   3.573  1.8185 -1.4650  0.4178
  100MOL0     H13152   4.306   0.405   3.620  2.3988  1.2706 -0.2789
  100MOL0     H13153   4.336   0.460   3.908 -1.5232  0.1858  0.3103
  100MOL0     H13154   4.250   0.426   4.128  0.5036 -0.4362 -0.3488
  100MOL0     H13155   4.281   0.271   4.203  4.1022  1.2815 -0.3817
  100MOL0     H13156   4.042   0.210   4.170  0.9279 -1.9412 -3.1270
  100MOL0     H13157   4.017   0.356   4.057 -0.7286  2.3404  2.0872
  100MOL0     H13158   4.092   0.364   4.349  0.5081 -0.0763 -0.3640
  100MOL0     H13159   4.058   0.496   4.239  4.7072 -0.4280  4.4414
  100MOL0     H13160   3.833   0.371   4.191  1.3514 -0.0245 -1.3014
  100MOL0     H13161   3.858   0.474   4.339  0.0975  1.2864 -1.7425
  100MOL0     H13162   3.633   0.395   4.269  1.0453 -0.9809 -0.6240
  100MOL0     H13163   3.403   0.345   4.332  1.7185  1.5744 -0.8805
  100MOL0     H13164   3.141  -0.117   4.510 -0.9377 -0.2238 -0.8729
  100MOL0     H13165   2.901  -0.155   4.587 -2.6344  0.7211  1.4486
  100MOL0     H13166   2.749  -0.211   4.762  2.2116 -0.0282 -0.8847
  100MOL0     H13167   2.691  -0.103   4.632  1.1750  2.4973  0.0625
  100MOL0     H13168   2.513  -0.019   4.803  1.3088 -0.5164 -0.3110
  100MOL0     H13169   2.600  -0.138   4.915  5.1040  0.8775  0.0467
  100MOL0     H13170   2.480  -0.309   4.799  0.0113  0.5398 -0.8167
  100MOL0     H13171   2.462  -0.213   4.652  0.5023 -0.1109  1.1086
  100MOL0     H13172   2.333  -0.130   4.911  0.5860 -1.3162  0.8048
  100MOL0     H13173   2.297  -0.095   4.728  2.4705 -0.6686 -1.5968
  100MOL0     H13174   2.259  -0.369   4.855  0.6209 -1.2951 -1.6894
  100MOL0     H13175   2.217  -0.318   4.693 -1.4906  3.0819 -1.5624
  100MOL0     H13176   2.076  -0.212   4.947  0.9740 -0.8246  0.3477
  100MOL0     H13177   2.019  -0.344   4.837 -0.5976 -0.0806  2.3670
  100MOL0     H13178   2.070  -0.056   4.741  1.3423  0.1303  0.0356
  100MOL0     H13179   2.033  -0.195   4.640 -1.4554 -2.1615 -0.0019
  100MOL0     H13180   1.843  -0.100   4.851 -0.3865 -0.5063  0.0615
  100MOL0     H13181   1.827  -0.238   4.736  2.8090 -0.9646  0.4864
  100MOL0     H13182   2.965   0.148   4.885  0.9423 -0.2824  1.0748
  100MOL0     H13183   3.206   0.170   4.808 -0.0580 -0.9456  1.5934
  100MOL0     H13184   3.548   0.039   4.602 -0.5739 -0.1385 -0.4334
  100MOL0     H13185   3.793   0.114   4.535  2.2539 -0.8650 -2.8156
  100MOL0     H13186   5.497   0.535   3.756 -0.9062  0.3097  1.1399
  100MOL0     H13187   5.529   0.766   3.652  2.2864 -1.9957 -1.1713
  100MOL0     H13188   5.621   0.925   3.143 -1.9743 -2.5355  1.3186
  100MOL0     H13189   5.598   1.098   2.989  1.1441  1.9500 -0.1067
  100MOL0     H13190   5.475   1.245   2.833  1.7140 -0.5771 -0.4603
  100MOL0     H13191   5.620   1.303   2.923 -0.3838  2.5038  0.7560
  100MOL0     H13192   5.407   1.498   2.815  0.5731  0.1469 -1.2995
  100MOL0     H13193   5.566   1.537   2.877  0.5736 -1.0113  1.8099
  100MOL0     H13194   5.517   1.359   2.633  0.4341 -0.7048  1.7317
  100MOL0     H13195   5.676   1.429   2.706 -0.1825  1.2724  3.6366
  100MOL0     H13196   5.619   1.534   2.501  0.2593  1.6016 -0.4044
  100MOL0     H13197   5.456   1.588   2.562 -0.7659 -0.6233  1.6990
  100MOL0     H13198   5.687   1.891   2.712 -0.8285 -0.8286  1.3961
  100MOL0     H13199   5.321   1.296   3.261  2.3802  3.0133 -0.7268
  100MOL0     H13200   5.312   1.111   3.390  0.4221  2.1957  0.1668
  101MOL0     O13201   4.990   8.613  10.465 -0.3425  0.6381  0.7164
  101MOL0     C13202   4.894   8.691  10.461 -0.6721  1.3765 -0.2735
  101MOL0     O13203   4.891   8.808  10.394  0.1426 -0.1569  0.2667
  101MOL0     C13204   4.999   8.856  10.326  0.0495  0.5035 -0.0241
  101MOL0     C13205   5.081   8.942  10.393 -0.4130 -0.3351 -0.3796
  101MOL0     C13206   5.200   8.983  10.339  0.9274  0.2245 -0.1737
  101MOL0     C13207   5.235   8.939  10.213  0.4795  0.1119  0.3030
  101MOL0     O13208   5.348   8.962  10.144  0.4419  0.2787 -0.8161
  101MOL0     C13209   5.476   8.935  10.200  0.7105 -0.7445  1.1452
  101MOL0     C13210   5.570   9.000  10.107  0.0768 -0.6781  1.0989
  101MOL0     C13211   5.590   8.918   9.981  0.0309 -0.4805  0.0884
  101MOL0     C13212   5.714   8.963   9.903 -0.3072 -0.6782  0.3225
  101MOL0     C13213   5.732   8.880   9.767  0.5585 -0.5638 -0.8280
  101MOL0     C13214   5.861   8.913   9.699 -0.3767 -0.4859  0.1832
  101MOL0     C13215   5.845   8.842   9.560  0.1681  0.4635 -0.3705
  101MOL0     C13216   5.919   8.921   9.452 -0.7284  0.5153  0.5958
  101MOL0     N13217   6.060   8.925   9.484  0.4017 -0.6180 -0.0463
  101MOL0     C13218   6.129   8.827   9.548  0.2738 -0.1905 -0.5177
  101MOL0     C13219   6.255   8.873   9.554 -0.4932  0.1223  0.1335
  101MOL0     C13220   6.376   8.828   9.629 -0.0248 -0.2865  0.2896
  101MOL0     C13221   6.384   8.862   9.783  0.4980  0.7605  0.3765
  101MOL0     C13222   6.298   8.776   9.874 -0.4828  0.0944 -0.2617
  101MOL0     C13223   6.338   8.806  10.012  0.1581 -0.9285  0.3929
  101MOL0     O13224   6.268   8.719  10.096  0.4330  0.1043 -0.2211
  101MOL0     C13225   6.151   8.753  10.165  0.6616 -0.0444  0.2168
  101MOL0     C13226   6.069   8.869  10.139  1.0101 -0.3902  0.4551
  101MOL0     C13227   5.953   8.896  10.217 -0.7064 -0.5254  0.0413
  101MOL0     C13228   5.915   8.807  10.322  0.1275 -0.0231  0.5371
  101MOL0     C13229   5.787   8.835  10.390 -0.1084  0.3760 -0.2793
  101MOL0     O13230   5.722   8.726  10.454 -0.1593  0.2731  0.4907
  101MOL0     C13231   5.608   8.762  10.524  0.8977  0.6334 -0.1848
  101MOL0     C13232   5.606   8.835  10.641 -0.7102  0.1090 -0.3185
  101MOL0     C13233   5.482   8.870  10.699 -0.4532 -0.6175 -0.0979
  101MOL0     C13234   5.358   8.827  10.645  0.3573 -0.1424 -0.2735
  101MOL0     O13235   5.247   8.875  10.711  0.0344  1.0111  0.2665
  101MOL0     C13236   5.170   8.778  10.786  0.4011 -0.5228 -0.6563
  101MOL0     C13237   5.027   8.830  10.784 -0.3581  0.1834  0.1405
  101MOL0     C13238   4.956   8.794  10.920 -0.6258 -1.2388  0.2413
  101MOL0     C13239   4.810   8.821  10.916 -0.4088  0.1187  0.2768
  101MOL0     C13240   4.749   8.803  11.055 -0.0544 -0.1578  0.2867
  101MOL0     C13241   4.601   8.834  11.051  1.1262  0.4637  0.3369
  101MOL0     C13242   4.502   8.740  10.964  0.7941  0.0555  0.0874
  101MOL0     C13243   4.368   8.725  11.030  0.4882  0.2148  0.7631
  101MOL0    Cl13244   4.379   8.637  11.191 -0.2950 -0.2088  0.0304
  101MOL0     C13245   5.359   8.752  10.530 -0.1776  0.1649  0.1448
  101MOL0     C13246   5.483   8.719  10.473 -0.1804  0.6313 -0.0811
  101MOL0     O13247   5.765   8.955  10.409 -0.0706 -0.5707  0.8774
  101MOL0     C13248   5.997   8.693  10.340 -0.0077  0.3742  0.1456
  101MOL0     C13249   6.105   8.670  10.265  0.3053 -0.0522 -0.2978
  101MOL0     N13250   6.263   8.992   9.477 -0.1564 -0.3472 -0.7173
  101MOL0     N13251   6.145   9.027   9.448  0.5259  0.2474 -0.0436
  101MOL0     C13252   5.147   8.860  10.135 -0.0451  0.2117  0.0100
  101MOL0     C13253   5.025   8.823  10.193  0.0452 -0.5834 -0.0286
  101MOL0     C13254   4.770   8.657  10.528  0.2702  0.5028  0.1750
  101MOL0     C13255   4.653   8.738  10.516 -0.4215  0.8682 -0.3730
  101MOL0     C13256   4.536   8.704  10.583 -0.0408 -0.4054  0.3579
  101MOL0     C13257   4.527   8.594  10.667  0.1009  0.1359  0.3881
  101MOL0     O13258   4.415   8.559  10.740  0.8848  0.7763  0.2628
  101MOL0     C13259   4.311   8.513  10.653  0.2104 -0.4254  0.2272
  101MOL0     C13260   4.182   8.509  10.727 -0.9431  0.6573 -0.1369
  101MOL0     C13261   4.127   8.659  10.740 -0.3441 -0.7918  0.3006
  101MOL0     C13262   4.011   8.685  10.838 -0.1405 -0.5372 -0.0007
  101MOL0     C13263   3.900   8.585  10.815  0.1013  0.0211 -0.0586
  101MOL0     C13264   3.818   8.504  10.795 -0.8809  0.8239 -0.0861
  101MOL0     C13265   4.643   8.520  10.687  0.5520  0.2181  0.2386
  101MOL0     C13266   4.763   8.549  10.618 -0.0394 -0.4837  0.1401
  101MOL0     H13267   5.052   8.973  10.493 -1.8964 -2.3971 -0.0957
  101MOL0     H13268   5.276   9.031  10.399 -1.1744  1.2693  1.8097
  101MOL0     H13269   5.497   8.828  10.209 -1.8357 -1.6090 -1.5841
  101MOL0     H13270   5.485   8.986  10.296  2.0380  0.2532  0.5294
  101MOL0     H13271   5.664   9.012  10.161  0.0845  2.8148  0.5621
  101MOL0     H13272   5.547   9.103  10.077  1.7883 -0.8200 -0.9436
  101MOL0     H13273   5.504   8.916   9.912  2.4150 -0.9266 -3.1049
  101MOL0     H13274   5.606   8.813  10.007  2.4023 -0.1832  0.0514
  101MOL0     H13275   5.712   9.072   9.895  3.0335 -0.0048  4.9109
  101MOL0     H13276   5.803   8.943   9.963  0.1862  1.1147  0.2351
  101MOL0     H13277   5.654   8.913   9.698  1.7312 -1.1811 -2.5227
  101MOL0     H13278   5.724   8.772   9.784  1.5034 -0.2821  1.7962
  101MOL0     H13279   5.954   8.888   9.751  0.4372 -0.9872 -1.4379
  101MOL0     H13280   5.870   9.021   9.683  3.2666 -0.9519 -2.2262
  101MOL0     H13281   5.879   8.739   9.575  0.4119  0.9352  2.8682
  101MOL0     H13282   5.744   8.831   9.518  0.3160  0.7782 -0.8101
  101MOL0     H13283   5.874   9.020   9.440 -0.6977  0.4858  0.2420
  101MOL0     H13284   5.917   8.869   9.356  1.2117 -0.3304  0.9701
  101MOL0     H13285   6.087   8.739   9.595 -1.5802 -0.1050 -1.9239
  101MOL0     H13286   6.460   8.876   9.579  0.6679 -1.4527  0.3025
  101MOL0     H13287   6.380   8.718   9.625  1.3213 -0.2306 -3.2057
  101MOL0     H13288   6.358   8.968   9.786  0.1352  0.6488  2.1597
  101MOL0     H13289   6.493   8.855   9.790  0.7427  1.6920 -1.6961
  101MOL0     H13290   6.194   8.801   9.856 -0.3923  3.3088  2.6221
  101MOL0     H13291   6.305   8.667   9.862  2.0865  0.3002 -1.3020
  101MOL0     H13292   6.317   8.912  10.028  6.2742  0.9149 -1.0674
  101MOL0     H13293   6.447   8.801  10.022  0.2521  0.8854  0.5699
  101MOL0     H13294   6.095   8.932  10.055 -0.0584 -0.4831  0.0339
  101MOL0     H13295   5.905   8.990  10.194 -1.7205 -1.6406 -2.7645
  101MOL0     H13296   5.697   8.867  10.690 -0.5760  0.2061 -0.6269
  101MOL0     H13297   5.481   8.926  10.793  2.8705 -1.3599  0.4868
  101MOL0     H13298   5.207   8.778  10.889  0.1574  2.1980 -0.5059
  101MOL0     H13299   5.176   8.675  10.751  3.5172  0.3526 -3.1406
  101MOL0     H13300   4.970   8.787  10.701 -0.6724  2.6136 -0.9749
  101MOL0     H13301   5.022   8.939  10.776 -0.3336  0.3871  2.3703
  101MOL0     H13302   5.003   8.857  10.996 -1.4336  0.3224 -0.4882
  101MOL0     H13303   4.970   8.689  10.948 -1.2007 -1.2909  0.3507
  101MOL0     H13304   4.784   8.921  10.879 -0.1873  0.8788  2.0661
  101MOL0     H13305   4.767   8.746  10.849 -2.1825 -0.7258  2.2333
  101MOL0     H13306   4.802   8.870  11.123  0.5974 -1.6821  1.3516
  101MOL0     H13307   4.749   8.697  11.083 -3.8813 -0.0652  1.1880
  101MOL0     H13308   4.581   8.936  11.017 -0.5752  0.0295 -0.0968
  101MOL0     H13309   4.569   8.832  11.156  1.3393  1.7020  0.4403
  101MOL0     H13310   4.499   8.788  10.866  1.5868 -1.8842 -0.9411
  101MOL0     H13311   4.556   8.645  10.956  2.7572  1.1706 -0.4639
  101MOL0     H13312   4.288   8.689  10.964  1.3091  0.2186 -0.2624
  101MOL0     H13313   4.325   8.824  11.051 -0.5424 -0.2810  1.0696
  101MOL0     H13314   5.263   8.718  10.493 -0.2739 -0.8889  1.2750
  101MOL0     H13315   5.489   8.647  10.392 -0.8192  1.2496 -0.6957
  101MOL0     H13316   5.973   8.626  10.421  0.0199  0.4628  0.2280
  101MOL0     H13317   6.167   8.585  10.293  3.4651  1.9832 -0.6169
  101MOL0     H13318   5.165   8.831  10.032 -3.9572 -1.6122 -0.3698
  101MOL0     H13319   4.946   8.765  10.147  0.5008 -0.7595 -0.5973
  101MOL0     H13320   4.647   8.829  10.457 -3.0336  0.9790 -0.0445
  101MOL0     H13321   4.445   8.761  10.569 -1.1118 -2.2887 -0.7237
  101MOL0     H13322   4.328   8.409  10.622  0.5030 -1.3262  3.1051
  101MOL0     H13323   4.287   8.570  10.563 -1.6910  0.4576  1.2385
  101MOL0     H13324   4.110   8.447  10.673 -1.0704  1.0062 -0.3737
  101MOL0     H13325   4.196   8.464  10.826 -0.2331  3.0090  0.9016
  101MOL0     H13326   4.084   8.684  10.643 -2.3294 -0.6304  1.1883
  101MOL0     H13327   4.211   8.728  10.748 -0.3388 -0.7918  0.2435
  101MOL0     H13328   4.049   8.669  10.939 -1.4076 -1.7783  0.3064
  101MOL0     H13329   3.971   8.786  10.825  0.7591 -0.1492  0.1399
  101MOL0     H13330   3.756   8.418  10.779  0.9232 -0.6250  0.2983
  101MOL0     H13331   4.639   8.447  10.767 -0.6838  0.9312  0.8483
  101MOL0     H13332   4.857   8.498  10.633  0.0772  0.0444  1.3041
  102MOL0     O13333   4.812   3.141   2.465  0.2313  0.2474 -0.3041
  102MOL0     C13334   4.900   3.224   2.444  0.2522  0.5756  0.3839
  102MOL0     O13335   4.875   3.352   2.393  0.7119  0.4013  0.3213
  102MOL0     C13336   4.743   3.382   2.361  0.2924 -0.1508 -0.2841
  102MOL0     C13337   4.664   3.301   2.273 -0.2798  0.4587 -0.7702
  102MOL0     C13338   4.529   3.332   2.244 -0.3809 -0.0605  0.0948
  102MOL0     C13339   4.471   3.442   2.306 -0.1413 -0.0247  0.4533
  102MOL0     O13340   4.338   3.450   2.279  0.6259  0.5448  0.3437
  102MOL0     C13341   4.277   3.577   2.289  0.5295  0.1912  0.4540
  102MOL0     C13342   4.125   3.561   2.296 -0.2152 -0.5000  0.3266
  102MOL0     C13343   4.056   3.705   2.308  0.7028  0.6723 -0.0481
  102MOL0     C13344   3.905   3.679   2.350  0.1421 -0.6554 -0.0881
  102MOL0     C13345   3.822   3.806   2.381  0.2077  0.1845  0.1038
  102MOL0     C13346   3.822   3.908   2.263  0.9127  0.1385  0.0818
  102MOL0     C13347   3.729   4.030   2.290 -0.6171 -0.3870 -0.5329
  102MOL0     C13348   3.721   4.110   2.167 -0.5412  0.5918 -0.1172
  102MOL0     N13349   3.652   4.240   2.170 -0.5351  0.4869  0.0525
  102MOL0     C13350   3.529   4.268   2.236  0.0782  1.0765 -0.6373
  102MOL0     C13351   3.511   4.397   2.201 -0.6841  0.2868 -1.0821
  102MOL0     C13352   3.381   4.466   2.225  0.5472 -0.8903  0.1413
  102MOL0     C13353   3.252   4.406   2.155 -0.2274 -0.2154 -0.5236
  102MOL0     C13354   3.257   4.427   1.998 -0.8242 -0.0681 -0.2029
  102MOL0     C13355   3.146   4.363   1.922  0.3001  0.5915  0.6297
  102MOL0     O13356   3.032   4.430   1.968  0.0983 -0.5287 -0.0254
  102MOL0     C13357   2.912   4.423   1.908 -0.6272  0.6894 -0.8576
  102MOL0     C13358   2.875   4.349   1.790 -0.0034 -0.5168  0.4930
  102MOL0     C13359   2.747   4.356   1.736  0.0921 -0.3224  0.0160
  102MOL0     C13360   2.648   4.437   1.795  0.9444 -0.7776  0.3224
  102MOL0     C13361   2.504   4.445   1.739  0.9806  0.4636  0.2919
  102MOL0     O13362   2.408   4.534   1.807  0.0784  0.0268  0.2652
  102MOL0     C13363   2.275   4.549   1.779  0.0493 -0.0238  0.5234
  102MOL0     C13364   2.223   4.660   1.839 -0.8155  0.8798  0.3401
  102MOL0     C13365   2.094   4.687   1.833  0.4890  0.0058 -0.5820
  102MOL0     C13366   2.010   4.613   1.742  0.1750  0.3140  0.3242
  102MOL0     O13367   1.880   4.637   1.713  0.0985 -0.4052 -0.4483
  102MOL0     C13368   1.801   4.713   1.806 -0.3841  0.0958  0.0197
  102MOL0     C13369   1.644   4.705   1.789  0.2831 -0.4005  0.6614
  102MOL0     C13370   1.574   4.764   1.907 -0.0817  0.2885  0.5788
  102MOL0     C13371   1.420   4.775   1.877  0.5029  0.2825 -0.5604
  102MOL0     C13372   1.356   4.823   2.012  0.5029  0.5924 -0.0299
  102MOL0     C13373   1.212   4.870   1.991 -0.8542 -0.0753  0.0601
  102MOL0     C13374   1.161   4.956   2.102  0.2660  0.0819 -0.5220
  102MOL0     C13375   1.176   5.101   2.071  0.2237 -0.4791 -0.1460
  102MOL0    Cl13376   1.065   5.169   1.935  0.1844  0.2823 -0.1505
  102MOL0     C13377   2.061   4.499   1.677  0.0880  0.1788  0.3259
  102MOL0     C13378   2.200   4.476   1.682 -0.1966 -0.1140 -1.2160
  102MOL0     O13379   2.477   4.367   1.650 -0.0563  0.0736  0.4522
  102MOL0     C13380   2.679   4.501   1.921 -0.3412  0.1134  0.6331
  102MOL0     C13381   2.803   4.487   1.979  0.1395 -0.7218  0.7567
  102MOL0     N13382   3.616   4.447   2.122  0.1630 -0.4961  1.1151
  102MOL0     N13383   3.704   4.344   2.106 -0.3236 -0.3404  0.6705
  102MOL0     C13384   4.555   3.526   2.392  0.5013 -0.7397  0.6829
  102MOL0     C13385   4.691   3.503   2.412  0.4069  0.2243  0.0858
  102MOL0     C13386   5.050   3.185   2.467 -0.4321  0.3597  0.2451
  102MOL0     C13387   5.160   3.257   2.410  0.8279  0.1364 -0.0926
  102MOL0     C13388   5.284   3.217   2.429 -0.1657 -0.9174 -0.4771
  102MOL0     C13389   5.314   3.104   2.502 -0.2422 -0.7870  0.8085
  102MOL0     O13390   5.448   3.086   2.533 -0.3592 -0.6102 -0.4312
  102MOL0     C13391   5.501   2.955   2.547  0.0107  0.0213  0.1534
  102MOL0     C13392   5.640   2.961   2.613 -0.9088  0.9470  0.0266
  102MOL0     C13393   5.748   3.033   2.537  0.1660  0.3078  0.3831
  102MOL0     C13394   5.784   2.954   2.414  0.0811 -1.1436  0.0113
  102MOL0     C13395   5.872   2.835   2.439  0.5431 -1.1036  0.8908
  102MOL0     C13396   5.928   2.730   2.458 -1.1697  0.4907  0.1798
  102MOL0     C13397   5.209   3.037   2.558 -0.0609 -0.4234 -0.3871
  102MOL0     C13398   5.077   3.062   2.527 -0.2822 -0.6275 -1.3420
  102MOL0     H13399   4.707   3.214   2.225 -1.3542 -1.2057  1.1161
  102MOL0     H13400   4.468   3.265   2.184 -1.3325  1.5191 -0.7689
  102MOL0     H13401   4.309   3.632   2.200 -1.1235 -1.8478 -1.5222
  102MOL0     H13402   4.324   3.623   2.376 -0.7905  1.1148  0.6976
  102MOL0     H13403   4.095   3.500   2.382  1.8755 -2.2761 -0.1374
  102MOL0     H13404   4.091   3.505   2.209  0.0580 -1.4507  0.8102
  102MOL0     H13405   4.058   3.741   2.205  0.2742 -1.3123 -0.8045
  102MOL0     H13406   4.112   3.764   2.381  2.9556 -0.5857 -0.6645
  102MOL0     H13407   3.857   3.608   2.282  0.2482  0.7592 -1.7195
  102MOL0     H13408   3.904   3.623   2.443 -0.9671 -1.4394 -0.5409
  102MOL0     H13409   3.851   3.855   2.475 -0.9752  0.5555  0.2899
  102MOL0     H13410   3.720   3.774   2.402  0.1351  2.0571  3.4261
  102MOL0     H13411   3.798   3.854   2.172  1.5179 -0.0520  0.0341
  102MOL0     H13412   3.916   3.964   2.260  0.6082  0.7678  1.3381
  102MOL0     H13413   3.631   3.990   2.315  0.0080 -1.8432 -0.3051
  102MOL0     H13414   3.771   4.096   2.367  0.3301 -1.4929 -0.0647
  102MOL0     H13415   3.664   4.046   2.099 -1.3802  0.6508  0.5210
  102MOL0     H13416   3.820   4.133   2.124 -1.7845  3.8745 -1.5894
  102MOL0     H13417   3.481   4.203   2.308  0.5300  0.6003 -0.7619
  102MOL0     H13418   3.405   4.565   2.186  4.4531 -1.1968  1.3456
  102MOL0     H13419   3.363   4.476   2.333 -1.8551 -1.4494 -0.1552
  102MOL0     H13420   3.173   4.471   2.193  4.1022  4.2225  2.0798
  102MOL0     H13421   3.249   4.300   2.180  4.5732 -0.3088  0.6909
  102MOL0     H13422   3.285   4.524   1.957  2.3417 -0.1862  1.3914
  102MOL0     H13423   3.348   4.370   1.980  0.2809  1.0137  1.6953
  102MOL0     H13424   3.122   4.261   1.953 -4.2896  1.3412  0.2530
  102MOL0     H13425   3.157   4.387   1.816 -0.3370  1.2430  0.7039
  102MOL0     H13426   2.956   4.294   1.745 -1.2983 -2.0749 -0.0370
  102MOL0     H13427   2.716   4.294   1.653 -1.9662  1.4108 -0.5912
  102MOL0     H13428   2.289   4.721   1.899  0.0152 -0.6550  1.0534
  102MOL0     H13429   2.045   4.778   1.866 -0.7088 -0.8056 -0.0369
  102MOL0     H13430   1.817   4.821   1.795  0.7979  0.3459  3.1828
  102MOL0     H13431   1.831   4.691   1.909 -0.4549  0.9799  0.2451
  102MOL0     H13432   1.612   4.600   1.783  0.1451 -0.4243  1.6047
  102MOL0     H13433   1.601   4.750   1.699 -2.6143 -3.5510  0.2719
  102MOL0     H13434   1.625   4.859   1.924  0.0850  0.6509 -1.5711
  102MOL0     H13435   1.590   4.710   2.001  1.6682  2.8030  1.8283
  102MOL0     H13436   1.401   4.847   1.797 -1.2398  0.4182 -0.0605
  102MOL0     H13437   1.386   4.675   1.850  1.1514  0.8845 -4.2267
  102MOL0     H13438   1.413   4.906   2.053 -0.1161 -0.2423  2.7053
  102MOL0     H13439   1.363   4.747   2.090 -4.1661 -1.3191 -1.0832
  102MOL0     H13440   1.146   4.783   1.980 -1.3139  0.1550  0.9930
  102MOL0     H13441   1.198   4.923   1.897  0.7604 -0.3137 -0.3563
  102MOL0     H13442   1.053   4.944   2.117  0.0339 -0.5838 -2.3984
  102MOL0     H13443   1.209   4.934   2.197 -2.0994  1.2152  1.0357
  102MOL0     H13444   1.277   5.135   2.046 -0.6266  1.8879 -0.5781
  102MOL0     H13445   1.146   5.156   2.161  0.3505  0.2781 -0.5560
  102MOL0     H13446   1.992   4.451   1.609  0.1911 -1.3037  1.2257
  102MOL0     H13447   2.242   4.404   1.613  0.5370  2.3220 -3.4574
  102MOL0     H13448   2.604   4.564   1.967 -0.2568  2.1339 -1.8332
  102MOL0     H13449   2.824   4.541   2.071 -0.4048  2.8569 -1.0749
  102MOL0     H13450   4.507   3.609   2.442 -0.5162  0.7541 -2.5492
  102MOL0     H13451   4.759   3.569   2.463  0.0503 -0.2236  1.1770
  102MOL0     H13452   5.124   3.351   2.369 -0.5624  1.5264  3.8589
  102MOL0     H13453   5.376   3.261   2.392  0.5932 -1.0232  1.1848
  102MOL0     H13454   5.506   2.911   2.447 -1.3545  0.8697 -0.3068
  102MOL0     H13455   5.441   2.884   2.605 -0.4951 -0.5961 -1.0993
  102MOL0     H13456   5.636   3.002   2.714  3.7082  0.9946  0.3983
  102MOL0     H13457   5.668   2.856   2.626 -2.2293  0.6923  0.9718
  102MOL0     H13458   5.839   3.037   2.597  0.1287 -2.0548  0.6833
  102MOL0     H13459   5.706   3.131   2.511 -0.4069 -0.1262 -0.3628
  102MOL0     H13460   5.701   2.929   2.349 -0.5701  0.8181  0.0105
  102MOL0     H13461   5.845   3.026   2.359 -3.4431  2.1397 -0.0178
  102MOL0     H13462   5.984   2.640   2.475 -1.8187 -0.4760 -2.3842
  102MOL0     H13463   5.227   2.957   2.629 -0.9168  0.5918  1.0214
  102MOL0     H13464   5.000   3.001   2.575  0.5765 -0.0063  0.9951
  103MOL0     O13465  11.066   8.544  10.743  0.4400 -0.8550 -0.3590
  103MOL0     C13466  11.116   8.624  10.825  0.3195  0.0869 -0.0173
  103MOL0     O13467  11.046   8.713  10.907 -0.1648 -0.3234 -0.6318
  103MOL0     C13468  10.915   8.722  10.885  0.5894  0.3357 -0.3158
  103MOL0     C13469  10.861   8.807  10.789 -0.5375  0.3517 -0.0742
  103MOL0     C13470  10.726   8.829  10.770  0.7128 -0.8770  0.2170
  103MOL0     C13471  10.637   8.782  10.874  0.2189 -0.0952  0.6658
  103MOL0     O13472  10.502   8.818  10.881 -0.1052  0.6540 -0.2337
  103MOL0     C13473  10.448   8.893  10.766 -0.0265  0.5765 -0.5093
  103MOL0     C13474  10.296   8.898  10.791  0.3672  0.3278 -0.7335
  103MOL0     C13475  10.212   8.991  10.698 -0.1851  0.3117 -1.1630
  103MOL0     C13476  10.069   8.963  10.733  0.1307 -0.0503 -0.0075
  103MOL0     C13477   9.982   9.058  10.658  0.0167  0.6037  0.6886
  103MOL0     C13478   9.834   9.057  10.705  0.1920 -0.9856  0.5279
  103MOL0     C13479   9.760   9.153  10.616  0.7269  0.3110 -0.0240
  103MOL0     C13480   9.738   9.116  10.463  0.3608  0.1241  0.3551
  103MOL0     N13481   9.636   9.208  10.398  0.4329  0.6611  0.2235
  103MOL0     C13482   9.667   9.313  10.314 -0.1120 -0.1555 -1.3499
  103MOL0     C13483   9.555   9.363  10.269  0.6719  0.1279  0.4607
  103MOL0     C13484   9.536   9.472  10.165 -0.3236 -0.5972 -0.1264
  103MOL0     C13485   9.390   9.470  10.104  0.1605 -0.9823  0.9568
  103MOL0     C13486   9.356   9.603  10.050 -0.4797  0.0861 -0.3522
  103MOL0     C13487   9.208   9.607  10.015 -0.0133  0.4593 -0.4903
  103MOL0     O13488   9.125   9.606  10.132 -0.3449 -0.1005  0.8660
  103MOL0     C13489   8.991   9.599  10.098 -0.6673 -0.8320 -0.0895
  103MOL0     C13490   8.933   9.624   9.965 -0.0409  1.1418  0.2564
  103MOL0     C13491   8.803   9.648   9.950 -0.0674 -0.1345  0.8260
  103MOL0     C13492   8.712   9.639  10.057 -0.0041 -0.3562 -0.3073
  103MOL0     C13493   8.564   9.634  10.035  0.0580  0.6312 -0.0919
  103MOL0     O13494   8.482   9.617  10.148  0.4286  0.4356 -0.4664
  103MOL0     C13495   8.350   9.627  10.115  0.2811  0.4642 -0.4386
  103MOL0     C13496   8.279   9.742  10.149  0.0529 -0.1383 -0.0266
  103MOL0     C13497   8.137   9.757  10.134 -0.2459  0.3904  0.2922
  103MOL0     C13498   8.058   9.662  10.068 -0.7483  1.2222  0.3372
  103MOL0     O13499   7.918   9.669  10.058 -0.0369  0.2015 -0.1139
  103MOL0     C13500   7.838   9.749  10.137 -0.0452  0.3693  0.1172
  103MOL0     C13501   7.710   9.675  10.165 -0.0016 -0.2238  0.7702
  103MOL0     C13502   7.651   9.612  10.033 -0.9548  1.1024  0.0660
  103MOL0     C13503   7.530   9.531  10.076 -0.0803 -0.0353  0.1313
  103MOL0     C13504   7.441   9.524   9.947 -0.0648 -0.0832  0.6810
  103MOL0     C13505   7.381   9.668   9.911 -0.9486  0.0046 -0.5006
  103MOL0     C13506   7.251   9.657   9.830  0.6508  0.5719 -0.2465
  103MOL0     C13507   7.219   9.776   9.734 -0.0482 -0.0493 -0.2817
  103MOL0    Cl13508   7.225   9.929   9.812  0.0333 -0.1641  0.3854
  103MOL0     C13509   8.128   9.546  10.030  0.3465 -0.6920 -0.6629
  103MOL0     C13510   8.272   9.527  10.049  0.5916  0.6686 -0.1870
  103MOL0     O13511   8.527   9.664   9.923 -0.2118 -0.5083  0.4359
  103MOL0     C13512   8.772   9.615  10.183 -0.2935 -0.2312  0.6410
  103MOL0     C13513   8.909   9.602  10.201  0.2220 -0.2310  0.5040
  103MOL0     N13514   9.461   9.306  10.351  0.0469 -0.3090 -0.0317
  103MOL0     N13515   9.503   9.206  10.415 -0.9244  0.8412  0.7298
  103MOL0     C13516  10.688   8.676  10.950  0.2648 -0.3797 -0.2345
  103MOL0     C13517  10.824   8.649  10.957  0.5011  0.2036 -0.0427
  103MOL0     C13518  11.263   8.628  10.831  0.1201  0.4535  0.0921
  103MOL0     C13519  11.346   8.552  10.746  0.2332 -0.9893  0.3872
  103MOL0     C13520  11.484   8.547  10.775 -0.8261 -0.2101 -0.7235
  103MOL0     C13521  11.540   8.616  10.886 -0.1436 -0.1137 -0.5833
  103MOL0     O13522  11.675   8.618  10.911 -0.7250 -0.2709 -1.0875
  103MOL0     C13523  11.748   8.502  10.872 -0.6259  0.2386 -1.2763
  103MOL0     C13524  11.902   8.527  10.902 -0.6184  0.6092 -0.3996
  103MOL0     C13525  11.983   8.396  10.864 -0.7532 -0.1108 -0.6944
  103MOL0     C13526  12.129   8.428  10.866  0.0295 -0.0747 -0.1899
  103MOL0     C13527  12.155   8.464  11.003  0.8575 -0.0455 -0.0745
  103MOL0     C13528  12.186   8.514  11.105  0.2765 -0.5804 -0.8734
  103MOL0     C13529  11.461   8.702  10.962  1.2098 -0.7516  0.7223
  103MOL0     C13530  11.322   8.704  10.938  0.0817 -0.1495  0.6225
  103MOL0     H13531  10.933   8.845  10.716 -1.3733  5.3842  1.3548
  103MOL0     H13532  10.695   8.891  10.687 -0.1900 -1.7745 -0.1339
  103MOL0     H13533  10.469   8.841  10.672  1.5047 -0.3717  0.3127
  103MOL0     H13534  10.492   8.993  10.764 -1.0484  1.2638  3.5049
  103MOL0     H13535  10.282   8.933  10.894  0.6153 -2.7876  0.4619
  103MOL0     H13536  10.259   8.795  10.781  2.5306 -0.5819 -0.0448
  103MOL0     H13537  10.224   8.968  10.592 -2.1264 -1.5674 -1.0483
  103MOL0     H13538  10.242   9.095  10.717 -0.8117  0.4896 -1.1123
  103MOL0     H13539  10.036   8.859  10.720 -2.9567  0.9256 -0.9907
  103MOL0     H13540  10.049   8.988  10.837  0.1720  1.2003 -0.2825
  103MOL0     H13541   9.986   9.037  10.550 -0.3862 -0.6449  0.9014
  103MOL0     H13542  10.016   9.159  10.681  1.2391  0.8919 -1.9650
  103MOL0     H13543   9.825   9.096  10.807 -4.6215  3.0206 -0.9751
  103MOL0     H13544   9.778   8.963  10.698 -3.7538  1.1642  0.0385
  103MOL0     H13545   9.664   9.151  10.668  2.6714  2.0511  4.0748
  103MOL0     H13546   9.807   9.252  10.619  2.9730 -0.7171  3.2036
  103MOL0     H13547   9.694   9.016  10.467 -4.7872  2.0606  1.1690
  103MOL0     H13548   9.827   9.127  10.402  1.3168 -4.8430  0.5052
  103MOL0     H13549   9.770   9.334  10.290  0.5102 -2.4764 -0.9838
  103MOL0     H13550   9.615   9.459  10.090 -0.3106 -2.5330  0.1769
  103MOL0     H13551   9.559   9.571  10.207  3.0661 -0.4507 -1.9654
  103MOL0     H13552   9.309   9.439  10.171 -1.0511 -1.3749 -0.6143
  103MOL0     H13553   9.376   9.407  10.015  0.5073 -1.7236  1.4248
  103MOL0     H13554   9.385   9.676  10.127  0.8468 -0.1446 -0.5970
  103MOL0     H13555   9.416   9.631   9.962 -1.0031 -0.9373 -1.0471
  103MOL0     H13556   9.174   9.526   9.950 -0.7148 -0.2536  0.7192
  103MOL0     H13557   9.198   9.698   9.957 -0.2804  0.5062 -0.3690
  103MOL0     H13558   8.996   9.612   9.878 -1.0101 -4.0836 -0.0517
  103MOL0     H13559   8.775   9.666   9.846  1.0720 -0.1574  0.5038
  103MOL0     H13560   8.325   9.826  10.201 -0.6553 -0.7025  1.5587
  103MOL0     H13561   8.103   9.848  10.182  0.7841  0.5138  0.7987
  103MOL0     H13562   7.820   9.844  10.085  1.8370  1.5899  1.5569
  103MOL0     H13563   7.885   9.770  10.233  0.1932 -0.6167  0.2297
  103MOL0     H13564   7.641   9.738  10.221  0.3522 -0.4901  1.5103
  103MOL0     H13565   7.745   9.586  10.219  1.2315  0.1310  0.5948
  103MOL0     H13566   7.726   9.537  10.003 -2.4713 -1.6271  2.6025
  103MOL0     H13567   7.631   9.695   9.964  1.3034  1.5091 -0.1921
  103MOL0     H13568   7.552   9.436  10.125 -3.0092  0.3030  2.3793
  103MOL0     H13569   7.473   9.586  10.151 -0.8269  3.2879 -2.6014
  103MOL0     H13570   7.346   9.475   9.969 -1.7635  0.9753 -3.3335
  103MOL0     H13571   7.473   9.483   9.851 -1.6557  0.5050 -0.1456
  103MOL0     H13572   7.454   9.718   9.846 -0.4511  2.2098  1.6105
  103MOL0     H13573   7.365   9.727  10.002 -1.1305  1.8215 -1.6476
  103MOL0     H13574   7.262   9.564   9.774 -2.0734 -1.0158  1.6539
  103MOL0     H13575   7.161   9.646   9.891 -0.8879  0.9330 -2.3070
  103MOL0     H13576   7.117   9.758   9.699 -0.3049  1.3092 -0.2661
  103MOL0     H13577   7.288   9.773   9.649  0.2301 -0.5641 -0.0443
  103MOL0     H13578   8.060   9.474   9.986 -1.8342 -0.1647  1.5896
  103MOL0     H13579   8.310   9.431  10.013 -0.4570  0.7153 -1.4713
  103MOL0     H13580   8.711   9.622  10.273 -0.1152 -1.3952  0.8650
  103MOL0     H13581   8.949   9.598  10.302 -0.4743 -1.2407  0.7607
  103MOL0     H13582  10.618   8.616  11.007  0.0838 -0.2184 -0.2878
  103MOL0     H13583  10.854   8.580  11.036  0.9027 -0.7903 -1.0259
  103MOL0     H13584  11.311   8.493  10.662  0.1068  0.1153 -0.3420
  103MOL0     H13585  11.534   8.471  10.716  1.1934  0.2828  0.2686
  103MOL0     H13586  11.729   8.474  10.768  1.2721 -2.4332 -0.9828
  103MOL0     H13587  11.701   8.427  10.935 -1.4954  2.9031  1.4826
  103MOL0     H13588  11.938   8.609  10.840 -1.8989  0.8048 -0.9175
  103MOL0     H13589  11.922   8.559  11.004  1.8664  0.2704 -0.7289
  103MOL0     H13590  11.952   8.364  10.765 -2.3102 -2.9688  0.5822
  103MOL0     H13591  11.951   8.316  10.931  2.0351  0.5551  1.6542
  103MOL0     H13592  12.178   8.333  10.846 -1.1045 -0.4618 -1.2319
  103MOL0     H13593  12.160   8.505  10.795  0.2194 -0.0500 -0.0827
  103MOL0     H13594  12.205   8.548  11.205 -1.8382 -1.5883 -0.0810
  103MOL0     H13595  11.509   8.755  11.043 -0.2048  1.0101  0.4611
  103MOL0     H13596  11.245   8.759  10.991 -1.2557 -1.8805  0.5421
  104MOL0     O13597  10.017   6.427   4.330 -0.9105  0.0632  0.0274
  104MOL0     C13598  10.046   6.404   4.212  0.5726 -0.8905 -0.3171
  104MOL0     O13599   9.959   6.405   4.111  0.6030  0.0893  0.2893
  104MOL0     C13600   9.831   6.458   4.130  0.0373 -0.2489 -0.9531
  104MOL0     C13601   9.735   6.417   4.223  0.2639 -0.2185  0.1760
  104MOL0     C13602   9.602   6.467   4.217  0.7570  0.0703  0.2298
  104MOL0     C13603   9.560   6.570   4.128 -0.5072 -0.0939  0.8485
  104MOL0     O13604   9.433   6.612   4.142 -0.0568  0.8883  0.1483
  104MOL0     C13605   9.375   6.687   4.032 -0.6283  0.4617  0.2177
  104MOL0     C13606   9.221   6.697   4.069 -0.3653  0.8011 -0.1326
  104MOL0     C13607   9.139   6.569   4.048 -0.4161  0.4878 -0.7148
  104MOL0     C13608   8.998   6.609   4.071 -0.3239 -0.1884  0.8177
  104MOL0     C13609   8.891   6.496   4.079  0.6375  0.2878  0.1702
  104MOL0     C13610   8.753   6.563   4.100 -0.6882  0.6516 -0.2444
  104MOL0     C13611   8.645   6.460   4.134 -0.7037  0.0326  0.8934
  104MOL0     C13612   8.580   6.400   4.005  0.8550  0.3546 -0.7159
  104MOL0     N13613   8.463   6.342   4.055  0.0913  0.7505  0.0356
  104MOL0     C13614   8.424   6.210   4.057 -0.6004  0.4041 -0.0507
  104MOL0     C13615   8.294   6.205   4.086  0.6696 -0.2496 -0.5912
  104MOL0     C13616   8.216   6.073   4.097 -0.7761  0.0004  0.0612
  104MOL0     C13617   8.224   5.987   3.971 -0.4309 -0.3017 -0.3532
  104MOL0     C13618   8.231   5.834   4.000 -0.3466  0.3776  0.6037
  104MOL0     C13619   8.365   5.787   4.055  0.1903  0.7020 -0.7470
  104MOL0     O13620   8.471   5.837   3.981 -0.2102  0.1566  0.0827
  104MOL0     C13621   8.588   5.778   3.999 -0.8368 -0.0019  0.2748
  104MOL0     C13622   8.694   5.863   4.055 -0.1015  0.2279  0.7329
  104MOL0     C13623   8.815   5.799   4.075 -0.1219 -0.6250  0.1013
  104MOL0     C13624   8.838   5.662   4.051 -0.2853  1.5576 -0.8010
  104MOL0     C13625   8.978   5.607   4.087  0.3190 -0.2932  0.5645
  104MOL0     O13626   9.042   5.640   4.202 -0.1414  0.0853  0.6094
  104MOL0     C13627   9.148   5.556   4.234  0.7343  1.3403  0.1787
  104MOL0     C13628   9.121   5.421   4.277 -0.5718  0.4651 -0.2434
  104MOL0     C13629   9.229   5.331   4.291  0.7669  0.7711 -0.8464
  104MOL0     C13630   9.362   5.371   4.290  0.0859  0.5432  1.0334
  104MOL0     O13631   9.452   5.267   4.307 -0.1980  0.2230  0.2472
  104MOL0     C13632   9.584   5.318   4.330 -0.2505 -0.0092 -0.0525
  104MOL0     C13633   9.674   5.192   4.359  0.3414  0.0772 -0.4889
  104MOL0     C13634   9.829   5.222   4.340 -0.2302  0.3888 -0.8481
  104MOL0     C13635   9.904   5.097   4.390  0.5768 -0.4913  0.5206
  104MOL0     C13636  10.022   5.062   4.302 -0.0202 -0.8375 -0.0396
  104MOL0     C13637  10.129   4.974   4.364  0.1098 -0.3855 -0.4459
  104MOL0     C13638  10.247   4.930   4.269  0.2262 -0.2994 -0.5176
  104MOL0     C13639  10.360   5.035   4.277  0.3578  0.1444 -0.5477
  104MOL0    Cl13640  10.509   4.944   4.232  0.4438  0.2483 -0.6409
  104MOL0     C13641   9.385   5.502   4.244 -0.0134 -0.2230 -0.8838
  104MOL0     C13642   9.281   5.590   4.219 -0.1227  0.1755 -0.2258
  104MOL0     O13643   9.014   5.532   3.999  0.0459 -0.0681 -0.4541
  104MOL0     C13644   8.740   5.585   3.985 -0.7957 -1.2050 -0.3827
  104MOL0     C13645   8.616   5.649   3.954 -0.5061 -1.1802  0.5869
  104MOL0     N13646   8.243   6.335   4.090  0.5258  0.4057 -0.1264
  104MOL0     N13647   8.341   6.410   4.056 -0.8511 -0.2877  0.7199
  104MOL0     C13648   9.661   6.618   4.034  0.0572  0.5044 -0.0085
  104MOL0     C13649   9.787   6.555   4.044 -0.2666 -0.8325  0.4135
  104MOL0     C13650  10.182   6.373   4.173  0.0610  0.2771  0.2556
  104MOL0     C13651  10.279   6.358   4.278 -0.5970 -1.0347  0.2444
  104MOL0     C13652  10.414   6.345   4.230 -0.1804 -0.3119 -0.0012
  104MOL0     C13653  10.441   6.324   4.091 -1.1389 -0.7554 -0.2410
  104MOL0     O13654  10.570   6.307   4.063 -0.0186 -0.2122  0.1736
  104MOL0     C13655  10.604   6.193   3.983  0.5714  0.5604  0.1631
  104MOL0     C13656  10.737   6.227   3.923  0.5044 -0.0661  0.0508
  104MOL0     C13657  10.817   6.105   3.872  0.2370 -0.4115 -1.1070
  104MOL0     C13658  10.968   6.100   3.902 -0.1501 -0.2073 -0.1597
  104MOL0     C13659  11.031   6.216   3.839  0.3552 -0.8647  0.1128
  104MOL0     C13660  11.083   6.312   3.785 -0.3055 -0.4260 -0.6964
  104MOL0     C13661  10.346   6.343   3.998  0.1544 -0.3232  0.8661
  104MOL0     C13662  10.212   6.366   4.035 -0.2214  0.2806  0.0832
  104MOL0     H13663   9.769   6.348   4.300  0.9068 -1.7635 -1.4197
  104MOL0     H13664   9.534   6.424   4.291  0.2112  2.0296  0.9240
  104MOL0     H13665   9.380   6.633   3.936 -0.4278  1.9249 -0.6154
  104MOL0     H13666   9.419   6.786   4.023  0.6807 -0.1342 -0.1378
  104MOL0     H13667   9.176   6.768   3.999 -2.5422 -0.4962 -0.1384
  104MOL0     H13668   9.204   6.745   4.165  2.5999 -2.1873  2.1189
  104MOL0     H13669   9.168   6.494   4.122  1.8767 -0.0054 -2.0506
  104MOL0     H13670   9.146   6.533   3.945  1.4689 -3.4996  0.6283
  104MOL0     H13671   8.988   6.659   4.168 -1.2126  0.9100  0.1891
  104MOL0     H13672   8.967   6.685   3.998  1.7546 -0.1963 -0.1178
  104MOL0     H13673   8.933   6.433   4.158 -0.1521  0.1868  0.5126
  104MOL0     H13674   8.877   6.434   3.990 -0.3798 -0.2919  0.7244
  104MOL0     H13675   8.726   6.618   4.009 -3.0567  2.1613  1.2655
  104MOL0     H13676   8.751   6.631   4.185 -2.7018  1.4754 -0.8959
  104MOL0     H13677   8.690   6.386   4.201  1.4470  2.6560  2.5432
  104MOL0     H13678   8.563   6.497   4.196 -0.1100  1.0343  1.1048
  104MOL0     H13679   8.647   6.326   3.961  1.4707 -1.2015  2.5709
  104MOL0     H13680   8.561   6.476   3.927  1.1823  1.2186  0.0260
  104MOL0     H13681   8.486   6.124   4.033  2.2698  2.7738 -1.9535
  104MOL0     H13682   8.118   6.095   4.141 -1.4325 -0.6825 -1.0213
  104MOL0     H13683   8.263   6.013   4.177  0.4516 -0.7915 -1.1993
  104MOL0     H13684   8.309   6.030   3.917 -0.1993 -0.5791 -0.2078
  104MOL0     H13685   8.132   6.001   3.914 -1.2031 -1.8823  0.4310
  104MOL0     H13686   8.142   5.800   4.055  0.7818 -0.1354  2.1974
  104MOL0     H13687   8.225   5.775   3.909 -2.8514 -3.0144  2.7110
  104MOL0     H13688   8.367   5.678   4.053  1.2102  0.6567  1.1007
  104MOL0     H13689   8.369   5.816   4.160  0.6101 -2.8937  0.3567
  104MOL0     H13690   8.680   5.966   4.085  0.4006  1.0490 -1.6074
  104MOL0     H13691   8.899   5.855   4.115 -0.7657 -0.9496  2.0429
  104MOL0     H13692   9.015   5.401   4.280 -1.1494  3.2384  1.1807
  104MOL0     H13693   9.213   5.225   4.310 -2.0361  1.2926  0.2805
  104MOL0     H13694   9.576   5.391   4.411 -1.6001  2.7325 -2.4780
  104MOL0     H13695   9.616   5.369   4.239 -2.4699 -2.8890 -2.6693
  104MOL0     H13696   9.651   5.106   4.296  1.3369 -0.3708 -0.2645
  104MOL0     H13697   9.658   5.167   4.465 -1.0209  0.3790 -0.6132
  104MOL0     H13698   9.858   5.307   4.403  0.5536 -0.5787  0.1426
  104MOL0     H13699   9.843   5.249   4.235 -1.6436 -4.5452 -2.5913
  104MOL0     H13700   9.936   5.108   4.494  0.6049 -0.4312  0.5056
  104MOL0     H13701   9.844   5.006   4.395  2.0560 -1.5434 -0.2285
  104MOL0     H13702  10.068   5.154   4.265 -2.4342  0.2575 -0.5129
  104MOL0     H13703   9.970   5.013   4.219 -0.2960  3.2232 -2.5026
  104MOL0     H13704  10.079   4.887   4.409 -0.0884 -1.6854 -3.0336
  104MOL0     H13705  10.161   5.037   4.448 -1.6682  1.3155 -0.9732
  104MOL0     H13706  10.276   4.832   4.308  0.2536 -0.1090 -0.0552
  104MOL0     H13707  10.216   4.923   4.164 -0.3395  1.5938 -0.5282
  104MOL0     H13708  10.373   5.072   4.379 -0.1453 -1.3841  0.0885
  104MOL0     H13709  10.335   5.116   4.207 -1.9418  0.1632  0.2270
  104MOL0     H13710   9.483   5.539   4.217 -0.2315  0.2998 -0.9771
  104MOL0     H13711   9.319   5.686   4.186  0.8804 -0.0129  0.3405
  104MOL0     H13712   8.760   5.484   3.951 -1.6669 -1.9125  1.0812
  104MOL0     H13713   8.539   5.605   3.890 -0.8171  0.8099 -0.4991
  104MOL0     H13714   9.645   6.707   3.974 -2.3519 -0.1570 -0.4616
  104MOL0     H13715   9.866   6.604   3.987 -0.7344 -0.7003 -0.1253
  104MOL0     H13716  10.254   6.373   4.383 -4.1809  2.5393 -0.8597
  104MOL0     H13717  10.502   6.352   4.294 -0.4888 -1.1419  0.5428
  104MOL0     H13718  10.527   6.171   3.907 -1.0064  1.2208  1.5188
  104MOL0     H13719  10.619   6.101   4.041 -1.3000 -0.7157 -1.2099
  104MOL0     H13720  10.724   6.302   3.844 -0.4601  0.0740  0.3347
  104MOL0     H13721  10.798   6.273   4.001  1.6698  0.2510 -1.0114
  104MOL0     H13722  10.805   6.102   3.763 -3.8334  1.8499 -0.9147
  104MOL0     H13723  10.778   6.016   3.923 -0.4040  0.0456 -0.7952
  104MOL0     H13724  10.991   6.098   4.008  2.7820 -1.9223 -0.7226
  104MOL0     H13725  11.005   6.006   3.860  1.1991 -0.5174  1.6416
  104MOL0     H13726  11.137   6.393   3.739  0.0469 -0.7391 -0.8448
  104MOL0     H13727  10.359   6.329   3.891 -0.1996  3.4384  0.1646
  104MOL0     H13728  10.148   6.365   3.948  1.3653 -0.5282 -1.1137
  105MOL0     O13729   7.441   5.845   5.333 -0.7327  0.6261 -0.4008
  105MOL0     C13730   7.504   5.945   5.300 -1.0494  0.4756 -0.5415
  105MOL0     O13731   7.607   5.994   5.370  0.6322 -0.7996 -0.6569
  105MOL0     C13732   7.632   5.972   5.499  0.3562  0.6107 -1.1781
  105MOL0     C13733   7.558   6.028   5.611  0.6521 -0.0036  0.1191
  105MOL0     C13734   7.593   5.993   5.736  0.8388  0.1978  0.1305
  105MOL0     C13735   7.699   5.909   5.756  0.2077 -0.1339  0.5609
  105MOL0     O13736   7.722   5.863   5.889 -0.1029 -0.2624  0.2910
  105MOL0     C13737   7.739   5.725   5.915  0.3785  0.1790 -0.1282
  105MOL0     C13738   7.727   5.707   6.065  0.7491  0.4172  0.1205
  105MOL0     C13739   7.787   5.569   6.112  0.4386 -0.5518  0.2801
  105MOL0     C13740   7.935   5.590   6.130 -0.2006  0.1684  0.1908
  105MOL0     C13741   8.017   5.455   6.145  0.1294 -1.7042  0.1795
  105MOL0     C13742   8.166   5.484   6.152  0.4804 -0.8294 -0.4189
  105MOL0     C13743   8.254   5.364   6.137 -0.0083  0.9018 -0.1652
  105MOL0     C13744   8.221   5.249   6.235  0.0920 -0.3642 -1.0348
  105MOL0     N13745   8.318   5.135   6.220 -0.5994 -0.4191  0.3585
  105MOL0     C13746   8.453   5.141   6.242 -0.3430 -0.8733 -0.4317
  105MOL0     C13747   8.502   5.023   6.198  0.3479  0.0165  0.4438
  105MOL0     C13748   8.648   4.989   6.197  0.0650 -0.3358 -0.1423
  105MOL0     C13749   8.702   4.966   6.054 -0.0747 -0.7470  0.1958
  105MOL0     C13750   8.668   4.826   5.992 -0.3071 -0.1410 -0.1635
  105MOL0     C13751   8.742   4.800   5.868  0.2190  0.6022  0.6281
  105MOL0     O13752   8.876   4.773   5.894 -0.8440 -0.2894 -0.2336
  105MOL0     C13753   8.951   4.732   5.784  0.0984  1.2668 -0.5382
  105MOL0     C13754   8.903   4.705   5.652  0.2425 -0.3471 -0.2140
  105MOL0     C13755   8.984   4.648   5.560 -0.9744  0.0129  0.2188
  105MOL0     C13756   9.115   4.603   5.583  0.3473  0.0067  0.6328
  105MOL0     C13757   9.207   4.539   5.475 -0.4089  0.0792  0.5457
  105MOL0     O13758   9.134   4.514   5.356 -0.2931  0.7217  0.4979
  105MOL0     C13759   9.173   4.423   5.258  0.1485  0.5645 -0.3427
  105MOL0     C13760   9.276   4.322   5.273  0.3138 -0.0573  0.5335
  105MOL0     C13761   9.317   4.244   5.154  0.0516 -0.4174 -0.2163
  105MOL0     C13762   9.278   4.277   5.030 -0.8174  0.0858 -0.0081
  105MOL0     O13763   9.344   4.216   4.925  0.4021  0.0876 -0.2482
  105MOL0     C13764   9.351   4.300   4.802 -0.5609  0.1526 -0.0122
  105MOL0     C13765   9.466   4.239   4.713 -0.5518 -1.3893  0.1997
  105MOL0     C13766   9.615   4.275   4.760  0.0644 -0.1812 -0.1908
  105MOL0     C13767   9.730   4.208   4.687 -0.0102  0.3868 -0.7902
  105MOL0     C13768   9.864   4.282   4.706 -0.1792 -0.5004 -0.5822
  105MOL0     C13769   9.888   4.421   4.632 -0.3904  0.3653 -0.0363
  105MOL0     C13770  10.047   4.457   4.636  1.0073 -0.6872  0.2328
  105MOL0     C13771  10.071   4.571   4.541 -0.9814 -0.2085  0.3449
  105MOL0    Cl13772  10.030   4.516   4.370  0.2861  0.5150 -0.2116
  105MOL0     C13773   9.172   4.375   5.013 -0.1271  0.2884  1.0461
  105MOL0     C13774   9.117   4.436   5.129 -0.2713  0.1693 -0.4693
  105MOL0     O13775   9.318   4.500   5.504 -0.6643 -0.8280 -0.7201
  105MOL0     C13776   9.164   4.622   5.716  0.1775  0.6485 -0.6379
  105MOL0     C13777   9.079   4.685   5.815 -0.4337 -0.1731  0.0486
  105MOL0     N13778   8.394   4.943   6.148 -0.8133 -0.5075  0.6688
  105MOL0     N13779   8.289   5.007   6.172 -0.5688 -0.2104  0.0452
  105MOL0     C13780   7.780   5.865   5.649 -0.1370  0.0975 -0.4242
  105MOL0     C13781   7.748   5.894   5.517  0.4600 -0.3856  0.0184
  105MOL0     C13782   7.477   6.004   5.163  0.9049 -0.7085 -0.0310
  105MOL0     C13783   7.373   5.950   5.068 -0.2398 -0.3355 -0.4824
  105MOL0     C13784   7.347   6.007   4.946 -0.4754  0.4133 -0.5944
  105MOL0     C13785   7.431   6.116   4.904  0.8974  0.3715 -0.2254
  105MOL0     O13786   7.425   6.170   4.774  0.4875  0.2869  0.0332
  105MOL0     C13787   7.352   6.085   4.676 -0.3569  0.7617  0.0929
  105MOL0     C13788   7.203   6.130   4.670  0.4566 -1.3850 -0.7751
  105MOL0     C13789   7.185   6.281   4.650  0.2691  1.3263  0.3841
  105MOL0     C13790   7.257   6.333   4.527  0.1858 -0.1537  0.1016
  105MOL0     C13791   7.215   6.251   4.412  0.0413 -0.3451 -0.2759
  105MOL0     C13792   7.171   6.187   4.318  0.2672  0.5705 -0.2612
  105MOL0     C13793   7.520   6.178   4.994 -0.0340 -0.1386  0.3830
  105MOL0     C13794   7.544   6.122   5.122  0.5957 -0.9790  0.3347
  105MOL0     H13795   7.482   6.100   5.583  0.4749  0.2094  1.1083
  105MOL0     H13796   7.545   6.020   5.829  0.0209 -1.0813  0.1196
  105MOL0     H13797   7.836   5.688   5.879  0.2886 -1.0872  0.8573
  105MOL0     H13798   7.662   5.658   5.876  1.7986 -2.2608  1.0364
  105MOL0     H13799   7.622   5.699   6.092  0.3685 -2.1806 -1.6815
  105MOL0     H13800   7.773   5.790   6.120  1.2808  0.0224  0.2819
  105MOL0     H13801   7.763   5.488   6.042 -0.1154 -0.5375  0.4453
  105MOL0     H13802   7.735   5.550   6.206 -0.7567 -0.9899 -0.4316
  105MOL0     H13803   7.985   5.634   6.042 -0.2555 -0.5275 -0.1957
  105MOL0     H13804   7.950   5.651   6.219 -0.4634 -0.6702  0.8107
  105MOL0     H13805   7.992   5.396   6.056  1.0740 -1.2766 -0.3807
  105MOL0     H13806   7.974   5.403   6.231  0.0168 -1.9969 -0.0523
  105MOL0     H13807   8.185   5.547   6.239 -0.8352 -1.3429  0.2604
  105MOL0     H13808   8.181   5.543   6.060 -0.3642 -0.0340 -0.0605
  105MOL0     H13809   8.240   5.337   6.032 -1.9576  1.5242 -0.0976
  105MOL0     H13810   8.358   5.397   6.147  0.5823 -1.1344  0.8332
  105MOL0     H13811   8.117   5.215   6.228  0.0538 -0.0993 -1.8731
  105MOL0     H13812   8.215   5.288   6.337 -1.6773  0.3614 -1.3724
  105MOL0     H13813   8.509   5.227   6.278 -3.2540  0.5119  1.1345
  105MOL0     H13814   8.677   4.898   6.251  3.6355  0.5173 -0.3690
  105MOL0     H13815   8.713   5.065   6.240  0.6249 -0.8042 -0.1423
  105MOL0     H13816   8.811   4.976   6.064 -0.3324  2.3962  1.0039
  105MOL0     H13817   8.661   5.050   5.997 -0.4085 -0.7956  0.3611
  105MOL0     H13818   8.677   4.746   6.067 -1.9446 -0.0465  0.1673
  105MOL0     H13819   8.562   4.817   5.967 -0.5430  0.2217  0.6342
  105MOL0     H13820   8.743   4.886   5.800 -1.9458 -1.0253 -1.6109
  105MOL0     H13821   8.690   4.724   5.809  1.2687  0.1765  0.2380
  105MOL0     H13822   8.798   4.719   5.626 -0.4897  1.9402  3.2555
  105MOL0     H13823   8.933   4.648   5.464 -4.1791 -1.1635  1.7665
  105MOL0     H13824   9.326   4.321   5.369 -1.0415  1.6431  1.3077
  105MOL0     H13825   9.408   4.185   5.164  0.5957  0.3595 -0.4480
  105MOL0     H13826   9.369   4.406   4.822 -3.7959  0.9080 -0.5000
  105MOL0     H13827   9.261   4.293   4.740  0.8621 -1.2136 -2.0248
  105MOL0     H13828   9.458   4.265   4.607 -0.5102 -4.5811 -0.6840
  105MOL0     H13829   9.455   4.130   4.706 -0.6209 -1.2686 -2.2404
  105MOL0     H13830   9.611   4.246   4.865  0.3401 -0.3191 -0.2149
  105MOL0     H13831   9.623   4.382   4.776 -0.1082 -0.0744 -0.7880
  105MOL0     H13832   9.736   4.104   4.718  2.2455  0.0581 -2.1571
  105MOL0     H13833   9.722   4.213   4.578  1.2128  0.0287 -0.9126
  105MOL0     H13834   9.941   4.208   4.685 -1.2367 -1.5718 -0.8270
  105MOL0     H13835   9.867   4.293   4.815 -1.4504 -1.4286 -0.4217
  105MOL0     H13836   9.829   4.506   4.665  0.0019  0.1277  1.3313
  105MOL0     H13837   9.858   4.388   4.531  1.5771 -3.1130  0.3665
  105MOL0     H13838  10.063   4.513   4.729 -0.7007  0.2325  0.0162
  105MOL0     H13839  10.115   4.372   4.623  1.2681 -0.4029 -0.2626
  105MOL0     H13840  10.177   4.599   4.549 -1.0151 -0.4575  2.0320
  105MOL0     H13841  10.011   4.658   4.570  0.4010  0.4454  1.3652
  105MOL0     H13842   9.130   4.385   4.914 -0.8933 -3.1543  0.9195
  105MOL0     H13843   9.049   4.521   5.125 -3.6915 -2.2849  0.7468
  105MOL0     H13844   9.267   4.599   5.741  0.1516  2.1774  1.0843
  105MOL0     H13845   9.110   4.705   5.917 -1.2970  2.1216 -0.0780
  105MOL0     H13846   7.868   5.802   5.659  0.6954  0.7234 -2.9735
  105MOL0     H13847   7.817   5.850   5.446  1.5425 -0.9656  1.3773
  105MOL0     H13848   7.316   5.866   5.108  1.6915 -1.1341  0.7324
  105MOL0     H13849   7.274   5.958   4.882  0.0002  1.0899 -1.6832
  105MOL0     H13850   7.374   5.980   4.700 -0.8417  1.0721  2.0581
  105MOL0     H13851   7.399   6.100   4.578 -2.3521 -0.0805 -1.0548
  105MOL0     H13852   7.150   6.072   4.594  0.3869 -1.7623 -0.4406
  105MOL0     H13853   7.149   6.116   4.764 -2.3466 -0.0503 -2.0703
  105MOL0     H13854   7.233   6.339   4.729  0.4342  1.1072  0.4471
  105MOL0     H13855   7.076   6.291   4.652 -0.2006 -2.4344  1.3602
  105MOL0     H13856   7.226   6.438   4.518  2.7265  0.6411 -0.1286
  105MOL0     H13857   7.365   6.345   4.543  0.1446  1.7632 -0.7332
  105MOL0     H13858   7.118   6.122   4.250 -0.3173 -0.3041  0.9901
  105MOL0     H13859   7.576   6.265   4.961  0.5330 -0.2216  1.0940
  105MOL0     H13860   7.608   6.176   5.190  0.1329  1.1927 -0.8405
  106MOL0     O13861   7.654   1.030   8.882  0.2010 -0.4285 -0.1724
  106MOL0     C13862   7.679   1.095   8.980 -0.8942  0.0087  0.1433
  106MOL0     O13863   7.585   1.144   9.063  0.2226  0.3357 -0.4521
  106MOL0     C13864   7.465   1.074   9.058  0.2550 -0.1142  0.2484
  106MOL0     C13865   7.365   1.103   8.971  0.2937  0.8756 -0.0592
  106MOL0     C13866   7.247   1.031   8.974  0.2453 -0.0314 -0.7415
  106MOL0     C13867   7.222   0.935   9.073  0.1459  0.1164 -0.5263
  106MOL0     O13868   7.095   0.885   9.078  0.1619 -0.6971 -0.5776
  106MOL0     C13869   7.070   0.769   9.150  0.4352 -0.1594  0.2604
  106MOL0     C13870   6.922   0.740   9.177  0.4154 -0.5842  0.2848
  106MOL0     C13871   6.901   0.606   9.236  0.1106  0.4854  0.3200
  106MOL0     C13872   6.935   0.585   9.386 -0.4581  0.1202  0.9170
  106MOL0     C13873   6.914   0.440   9.437  0.5913 -0.2011 -0.2573
  106MOL0     C13874   6.774   0.396   9.390 -0.5990  0.6134  0.3566
  106MOL0     C13875   6.649   0.484   9.427 -0.2497 -0.8216 -0.2252
  106MOL0     C13876   6.643   0.543   9.571 -0.4692 -0.5998  0.4782
  106MOL0     N13877   6.634   0.438   9.672  0.2281  0.4614  0.3542
  106MOL0     C13878   6.710   0.438   9.784  0.1813 -0.4350 -0.3978
  106MOL0     C13879   6.710   0.313   9.838 -0.4522  0.5718  0.2499
  106MOL0     C13880   6.788   0.249   9.949  0.2672 -0.1003  0.9726
  106MOL0     C13881   6.694   0.209  10.058  0.3377 -0.3723 -0.1685
  106MOL0     C13882   6.634   0.329  10.133  0.4538  0.1451 -0.7439
  106MOL0     C13883   6.503   0.300  10.201  0.3184  0.8702  0.5031
  106MOL0     O13884   6.430   0.425  10.231 -0.9780  0.7180  0.4030
  106MOL0     C13885   6.300   0.398  10.261 -0.0988 -0.4937 -0.2969
  106MOL0     C13886   6.201   0.400  10.172 -0.3516  0.1807  0.2899
  106MOL0     C13887   6.071   0.366  10.211 -0.5808 -0.2071 -0.2630
  106MOL0     C13888   6.042   0.331  10.342  0.3533 -0.0268  0.1247
  106MOL0     C13889   5.903   0.302  10.384 -0.0853  0.4676 -0.5463
  106MOL0     O13890   5.808   0.286  10.292  0.1477 -0.3862 -0.2648
  106MOL0     C13891   5.698   0.223  10.336  0.2296 -1.3358 -0.6943
  106MOL0     C13892   5.570   0.289  10.343  0.3132 -0.2757  0.0547
  106MOL0     C13893   5.450   0.225  10.388  0.0098  0.2743  0.2787
  106MOL0     C13894   5.467   0.088  10.428  0.8365  0.7618 -0.1786
  106MOL0     O13895   5.364   0.014  10.477  0.9162  0.2568  0.3735
  106MOL0     C13896   5.225   0.048  10.437  0.1665  0.0547 -0.1411
  106MOL0     C13897   5.132  -0.048  10.502  0.3002 -0.0385  0.4503
  106MOL0     C13898   4.990  -0.018  10.473 -0.1148  0.1366 -0.2196
  106MOL0     C13899   4.896  -0.106  10.561 -0.3142  0.6945 -0.4238
  106MOL0     C13900   4.750  -0.049  10.563  0.6340  0.9797 -0.4679
  106MOL0     C13901   4.673  -0.137  10.668  0.5541  0.4094  0.6156
  106MOL0     C13902   4.541  -0.084  10.716 -0.3935  0.0940  0.2260
  106MOL0     C13903   4.457  -0.166  10.818 -0.1591 -0.5226  0.6906
  106MOL0    Cl13904   4.331  -0.055  10.895 -0.4920  0.3876 -0.2747
  106MOL0     C13905   5.594   0.025  10.431  0.6726  0.6994 -0.5539
  106MOL0     C13906   5.710   0.087  10.379 -0.1072  0.0207 -0.0157
  106MOL0     O13907   5.888   0.278  10.506 -0.1369 -0.4789 -0.3419
  106MOL0     C13908   6.148   0.323  10.434  0.3667  0.3176  0.2943
  106MOL0     C13909   6.279   0.358  10.395  0.2248 -0.8149  0.0394
  106MOL0     N13910   6.620   0.241   9.760  0.4917 -0.2206  0.7356
  106MOL0     N13911   6.580   0.310   9.658 -0.1676 -0.2653 -0.0513
  106MOL0     C13912   7.322   0.916   9.171  0.5746 -0.1209 -0.1876
  106MOL0     C13913   7.442   0.989   9.169 -0.4315 -0.9779 -0.3325
  106MOL0     C13914   7.829   1.124   9.002  0.3932 -0.5031 -0.2556
  106MOL0     C13915   7.934   1.047   8.955  0.3489  0.0377  0.2187
  106MOL0     C13916   8.066   1.097   8.969  0.2581 -0.1085 -0.1932
  106MOL0     C13917   8.101   1.212   9.036  0.4584  0.0253 -0.2220
  106MOL0     O13918   8.240   1.238   9.050 -0.1788  0.2948  0.1691
  106MOL0     C13919   8.278   1.333   9.144 -0.2141  0.1986  0.3906
  106MOL0     C13920   8.431   1.376   9.121  0.7633 -0.3273 -0.4327
  106MOL0     C13921   8.530   1.261   9.135 -1.3601 -0.9618  0.1544
  106MOL0     C13922   8.684   1.279   9.135  0.6002  0.1351 -0.2688
  106MOL0     C13923   8.751   1.151   9.164 -0.4426  0.5611 -0.7499
  106MOL0     C13924   8.798   1.041   9.190 -0.4369 -0.6942  0.2518
  106MOL0     C13925   7.993   1.280   9.093  0.7234 -0.8357 -0.7088
  106MOL0     C13926   7.864   1.241   9.076 -0.0273  1.2619  0.7065
  106MOL0     H13927   7.373   1.180   8.894 -2.6477  0.3599 -1.0086
  106MOL0     H13928   7.165   1.074   8.918  0.3368 -0.1329 -0.9529
  106MOL0     H13929   7.121   0.772   9.247 -1.2759  0.1723  1.2121
  106MOL0     H13930   7.106   0.682   9.095  2.3703 -0.1942  1.4932
  106MOL0     H13931   6.875   0.740   9.079  0.9152  3.0032 -0.0933
  106MOL0     H13932   6.873   0.810   9.246  2.4014  0.3404  0.8566
  106MOL0     H13933   6.957   0.532   9.178 -3.4892 -2.2715  0.0406
  106MOL0     H13934   6.803   0.569   9.206  0.9362 -2.7492  1.2578
  106MOL0     H13935   7.038   0.617   9.402  0.4077 -1.3421 -1.3504
  106MOL0     H13936   6.875   0.649   9.452  0.9117  0.8612  1.4694
  106MOL0     H13937   6.921   0.428   9.545 -1.1505  3.5761  0.4389
  106MOL0     H13938   6.995   0.379   9.397 -0.0192 -1.2214  0.0277
  106MOL0     H13939   6.758   0.296   9.431  0.2676  0.2454 -0.1685
  106MOL0     H13940   6.773   0.382   9.282 -0.3325 -1.0485  0.5518
  106MOL0     H13941   6.641   0.565   9.354 -0.7546  1.2551  1.9954
  106MOL0     H13942   6.557   0.427   9.410 -0.2185 -1.3104  1.1191
  106MOL0     H13943   6.559   0.613   9.580  1.5280  1.9314  0.5255
  106MOL0     H13944   6.734   0.603   9.576 -1.7299  1.5756 -0.9628
  106MOL0     H13945   6.770   0.521   9.820  0.5845 -0.3218 -1.2914
  106MOL0     H13946   6.859   0.323   9.986  2.7254 -2.1679  0.6766
  106MOL0     H13947   6.834   0.160   9.905 -3.7443 -2.4920  1.1897
  106MOL0     H13948   6.762   0.156  10.125  1.3556  2.7528  1.4867
  106MOL0     H13949   6.616   0.147  10.013 -2.1122  3.4631 -1.7630
  106MOL0     H13950   6.700   0.372  10.209 -0.7370  1.0160 -0.1554
  106MOL0     H13951   6.626   0.413  10.063 -1.6886  0.9610  0.3922
  106MOL0     H13952   6.515   0.236  10.289 -0.4422 -0.9693 -0.6808
  106MOL0     H13953   6.441   0.241  10.134  0.5612 -0.5687  1.4896
  106MOL0     H13954   6.215   0.420  10.066 -1.0745 -1.7032 -0.2045
  106MOL0     H13955   5.995   0.380  10.134  0.3867 -0.0201 -1.2131
  106MOL0     H13956   5.565   0.386  10.294  0.0158 -0.7727 -0.9439
  106MOL0     H13957   5.359   0.285  10.383  0.8173  1.7532  2.2482
  106MOL0     H13958   5.213   0.049  10.328 -2.3081 -1.1747  0.0381
  106MOL0     H13959   5.209   0.151  10.470  0.8291  1.5233 -3.9105
  106MOL0     H13960   5.150  -0.047  10.610 -0.4649  1.8809  0.6145
  106MOL0     H13961   5.143  -0.147  10.458 -1.3675  1.5175 -4.1083
  106MOL0     H13962   4.976  -0.042  10.367 -0.2457 -1.0106  0.0418
  106MOL0     H13963   4.966   0.088  10.483 -1.2241 -0.0816 -0.4850
  106MOL0     H13964   4.906  -0.210  10.530  2.4904  0.1059  1.9931
  106MOL0     H13965   4.938  -0.118  10.661 -0.5158  1.7825 -0.1952
  106MOL0     H13966   4.696  -0.060  10.468  1.4262 -1.0608 -0.7295
  106MOL0     H13967   4.753   0.055  10.598  1.6879  1.8021 -2.7559
  106MOL0     H13968   4.738  -0.150  10.755 -1.2187 -3.3462  1.6193
  106MOL0     H13969   4.664  -0.240  10.633  5.1731 -0.1201  0.4512
  106MOL0     H13970   4.552   0.020  10.748 -3.4236  1.0124 -1.3536
  106MOL0     H13971   4.474  -0.085  10.629 -1.3084 -1.9561  0.8894
  106MOL0     H13972   4.512  -0.208  10.903 -0.6413 -1.9066  0.3381
  106MOL0     H13973   4.407  -0.243  10.759 -1.2163  1.0861 -0.6106
  106MOL0     H13974   5.605  -0.072  10.478  1.8487  0.9339 -0.3106
  106MOL0     H13975   5.806   0.037  10.370 -0.5781 -0.7965 -0.6371
  106MOL0     H13976   6.135   0.297  10.538  0.1949  0.4582  0.3076
  106MOL0     H13977   6.367   0.348  10.456  0.5814 -2.1335 -0.6498
  106MOL0     H13978   7.295   0.871   9.267 -0.2918  0.7784  0.0127
  106MOL0     H13979   7.519   0.991   9.246  2.3264  3.1802 -2.7352
  106MOL0     H13980   7.916   0.952   8.905 -1.1387  0.4815 -0.1427
  106MOL0     H13981   8.146   1.037   8.929 -0.0010 -0.2117 -0.5606
  106MOL0     H13982   8.253   1.285   9.239 -2.5361 -0.8908 -0.6868
  106MOL0     H13983   8.226   1.429   9.137 -0.9772  0.6734  6.8653
  106MOL0     H13984   8.445   1.410   9.018  1.3557 -2.8178 -1.2503
  106MOL0     H13985   8.454   1.458   9.189 -1.6854 -0.6208  0.8939
  106MOL0     H13986   8.499   1.187   9.061 -1.5778 -1.4538  0.7285
  106MOL0     H13987   8.491   1.212   9.224 -4.3993  3.1289  1.3706
  106MOL0     H13988   8.725   1.314   9.039  0.2276 -0.4632 -0.6517
  106MOL0     H13989   8.709   1.343   9.220  2.6483 -2.4840  1.2273
  106MOL0     H13990   8.841   0.950   9.225 -1.6828 -0.7097  1.8599
  106MOL0     H13991   8.008   1.373   9.148 -3.6839  0.9403 -2.0565
  106MOL0     H13992   7.790   1.305   9.123 -1.0264 -0.0528  0.9740
  107MOL0     O13993   8.164   4.321   3.741 -0.7523  0.8448 -0.1150
  107MOL0     C13994   8.143   4.212   3.794 -0.0983  0.4588 -0.6186
  107MOL0     O13995   8.248   4.123   3.828 -0.7206 -0.2730 -0.0674
  107MOL0     C13996   8.367   4.150   3.773 -0.2035  0.5800 -0.3426
  107MOL0     C13997   8.481   4.189   3.846  0.4842 -1.2964 -0.0248
  107MOL0     C13998   8.605   4.194   3.791 -0.0842 -0.0580  0.8494
  107MOL0     C13999   8.626   4.155   3.661 -0.1745 -0.6577  0.2347
  107MOL0     O14000   8.757   4.170   3.619  0.4368  0.4055 -0.4513
  107MOL0     C14001   8.816   4.090   3.516  0.3148 -0.0609  0.7106
  107MOL0     C14002   8.965   4.128   3.515  0.0510 -0.4365  0.9028
  107MOL0     C14003   9.050   4.055   3.413 -0.0190 -0.4706 -0.9624
  107MOL0     C14004   9.189   4.114   3.408 -0.7986  0.4545 -0.6168
  107MOL0     C14005   9.259   4.038   3.296  0.9350  0.0474  0.3736
  107MOL0     C14006   9.401   4.101   3.272 -0.9999 -0.0944  0.6196
  107MOL0     C14007   9.472   4.021   3.164 -1.0559  0.3284 -0.3891
  107MOL0     C14008   9.401   4.023   3.024 -0.6393  1.3157  0.0878
  107MOL0     N14009   9.480   3.955   2.920  0.2741  0.4326  0.7269
  107MOL0     C14010   9.576   4.014   2.847 -1.2206  0.6356  0.5876
  107MOL0     C14011   9.630   3.919   2.768 -0.4735 -0.1824  0.3569
  107MOL0     C14012   9.741   3.929   2.677  0.1125  0.6138  0.7204
  107MOL0     C14013   9.697   4.013   2.553 -0.3141 -0.3728 -0.6862
  107MOL0     C14014   9.596   3.935   2.466 -0.4231 -0.0496  0.5879
  107MOL0     C14015   9.650   3.904   2.329 -0.0153 -0.9090  0.7345
  107MOL0     O14016   9.576   3.799   2.267  0.5893 -0.0736  0.2806
  107MOL0     C14017   9.440   3.798   2.263  0.3745 -0.4826  0.8170
  107MOL0     C14018   9.368   3.908   2.216  0.8194 -1.2261  0.7999
  107MOL0     C14019   9.232   3.895   2.191 -0.0885 -0.2304 -0.8524
  107MOL0     C14020   9.159   3.782   2.242 -0.6733  0.2482 -0.4520
  107MOL0     C14021   9.018   3.767   2.250  0.3239 -0.2696  1.1576
  107MOL0     O14022   8.956   3.688   2.343 -0.6519  0.6379  0.2332
  107MOL0     C14023   8.829   3.687   2.381  0.3911 -0.3917 -0.2896
  107MOL0     C14024   8.730   3.787   2.367 -0.1134 -0.4256  0.1946
  107MOL0     C14025   8.604   3.780   2.430 -0.2554  0.1415  0.2327
  107MOL0     C14026   8.582   3.671   2.516 -0.5764 -0.2751  0.2515
  107MOL0     O14027   8.467   3.652   2.589 -0.5011 -0.4907 -0.3891
  107MOL0     C14028   8.386   3.768   2.620 -0.4011  0.7291 -0.4827
  107MOL0     C14029   8.277   3.781   2.508 -1.1904  0.9231 -0.0038
  107MOL0     C14030   8.172   3.680   2.517  0.1478  0.1543 -0.1059
  107MOL0     C14031   8.071   3.703   2.623 -0.2084 -0.2408 -0.5027
  107MOL0     C14032   7.959   3.601   2.620 -0.1202 -0.7107  0.9971
  107MOL0     C14033   7.891   3.598   2.758  0.1531  0.1956  0.2585
  107MOL0     C14034   7.763   3.504   2.747  0.2004 -0.5447  0.6234
  107MOL0     C14035   7.650   3.540   2.848  0.3109 -0.2821  0.4364
  107MOL0    Cl14036   7.599   3.390   2.931 -0.1631 -0.0380  0.3757
  107MOL0     C14037   8.672   3.566   2.526 -0.4266  0.7639  0.8297
  107MOL0     C14038   8.799   3.582   2.463 -0.1217  0.4033  0.1870
  107MOL0     O14039   8.957   3.847   2.181  0.0880 -0.6131 -0.4694
  107MOL0     C14040   9.241   3.679   2.292 -0.4573  0.4535 -0.3572
  107MOL0     C14041   9.373   3.689   2.305 -0.6275 -1.1079  0.5997
  107MOL0     N14042   9.563   3.802   2.785  0.5682  0.2200 -0.4760
  107MOL0     N14043   9.473   3.824   2.878 -0.7763  0.5277 -0.4475
  107MOL0     C14044   8.515   4.101   3.585  0.1705 -0.2924 -0.5148
  107MOL0     C14045   8.388   4.101   3.638  0.0977  0.1325 -0.4752
  107MOL0     C14046   8.003   4.182   3.847 -0.5595  0.1280  1.3882
  107MOL0     C14047   7.884   4.240   3.800 -0.4018 -0.0628  0.1930
  107MOL0     C14048   7.759   4.190   3.847  0.1501  0.6430 -0.1413
  107MOL0     C14049   7.744   4.084   3.936  0.3585 -0.7530  0.1479
  107MOL0     O14050   7.614   4.056   3.972  0.2164 -0.1637  0.3666
  107MOL0     C14051   7.592   3.980   4.087 -0.2841 -0.2286 -0.7495
  107MOL0     C14052   7.445   3.987   4.136  0.0250 -0.0395 -0.2803
  107MOL0     C14053   7.387   4.135   4.131 -0.3817 -0.4388 -0.3569
  107MOL0     C14054   7.262   4.132   4.216  0.2910  0.0354  0.6648
  107MOL0     C14055   7.287   4.110   4.355 -0.4543 -0.3603 -0.4119
  107MOL0     C14056   7.303   4.089   4.468 -1.3505 -0.4039 -0.5750
  107MOL0     C14057   7.861   4.026   3.986 -0.6723 -0.0224  0.3162
  107MOL0     C14058   7.983   4.074   3.938 -0.2704  0.7306  0.3598
  107MOL0     H14059   8.450   4.205   3.949  0.6260 -0.1868 -0.1379
  107MOL0     H14060   8.692   4.204   3.855 -1.3248 -0.4119  2.6615
  107MOL0     H14061   8.783   4.118   3.415  2.0965 -1.1378 -0.2226
  107MOL0     H14062   8.801   3.982   3.527 -1.2839  0.0293 -0.2876
  107MOL0     H14063   9.001   4.098   3.613 -3.0493  0.1563  2.3423
  107MOL0     H14064   8.979   4.236   3.507  0.8697 -0.5279  1.0045
  107MOL0     H14065   8.996   4.057   3.318  0.4012  0.2987 -1.1850
  107MOL0     H14066   9.064   3.947   3.427 -1.5198 -0.7344 -1.2853
  107MOL0     H14067   9.174   4.220   3.384 -1.3022  0.9014  1.5040
  107MOL0     H14068   9.227   4.093   3.509 -0.3294  2.1885 -0.3941
  107MOL0     H14069   9.196   4.051   3.208  1.4579 -0.8466 -0.1430
  107MOL0     H14070   9.261   3.931   3.319 -3.5589  0.0884  1.8476
  107MOL0     H14071   9.469   4.117   3.356  1.0150  1.4146 -1.1873
  107MOL0     H14072   9.384   4.204   3.241 -0.1859 -0.0536  0.2931
  107MOL0     H14073   9.572   4.058   3.140 -0.9343 -1.1761 -2.4559
  107MOL0     H14074   9.479   3.916   3.192  1.0752 -0.2514 -2.7143
  107MOL0     H14075   9.389   4.127   2.993 -0.0629  0.9777 -1.3637
  107MOL0     H14076   9.304   3.974   3.039  0.5447 -1.0716  0.4495
  107MOL0     H14077   9.602   4.120   2.849 -1.4953  0.8113 -2.0258
  107MOL0     H14078   9.771   3.831   2.639  1.5138 -0.7706  4.8348
  107MOL0     H14079   9.831   3.967   2.726  1.6391 -0.7855 -0.8694
  107MOL0     H14080   9.784   4.041   2.493  1.9121 -0.6446  2.1753
  107MOL0     H14081   9.653   4.108   2.585 -0.4689  0.3492 -2.9171
  107MOL0     H14082   9.564   3.845   2.520  0.5621 -0.4385  0.5511
  107MOL0     H14083   9.514   4.007   2.457  0.7922  1.2291 -0.5935
  107MOL0     H14084   9.755   3.872   2.335  0.3691 -0.4139 -2.0591
  107MOL0     H14085   9.651   3.994   2.267 -3.8516 -1.4317 -0.3035
  107MOL0     H14086   9.416   3.992   2.169 -0.7087 -0.8242 -0.0976
  107MOL0     H14087   9.170   3.973   2.148 -1.4358 -0.7659  0.0602
  107MOL0     H14088   8.758   3.868   2.300  1.9068 -0.2909  1.1100
  107MOL0     H14089   8.530   3.860   2.426  0.9678  1.5227  2.8635
  107MOL0     H14090   8.450   3.856   2.634 -1.9526  2.2048 -2.1943
  107MOL0     H14091   8.342   3.757   2.720 -2.1563  1.2624 -1.1662
  107MOL0     H14092   8.309   3.783   2.403  0.3954 -1.4428  0.3709
  107MOL0     H14093   8.242   3.882   2.532 -0.7439  0.2720  4.0652
  107MOL0     H14094   8.202   3.575   2.526 -1.8037 -0.4182  0.1393
  107MOL0     H14095   8.114   3.701   2.427  2.2306 -1.0708 -1.8379
  107MOL0     H14096   8.123   3.691   2.718  1.1729  2.7333 -0.7657
  107MOL0     H14097   8.044   3.809   2.617  2.7988  0.5503 -3.6357
  107MOL0     H14098   7.997   3.501   2.596  1.6947  0.7487 -2.9151
  107MOL0     H14099   7.888   3.619   2.539  2.7345 -1.4259 -1.8659
  107MOL0     H14100   7.872   3.700   2.792 -0.0907  0.3555 -0.3408
  107MOL0     H14101   7.967   3.547   2.818  2.0796  0.5506 -1.7474
  107MOL0     H14102   7.710   3.501   2.651 -0.6530  0.2170  1.0463
  107MOL0     H14103   7.787   3.398   2.758  1.2521 -0.3634  0.2221
  107MOL0     H14104   7.577   3.593   2.786  0.5643  3.1093  2.8142
  107MOL0     H14105   7.676   3.610   2.928  1.4659  0.8324 -0.8726
  107MOL0     H14106   8.655   3.483   2.593 -3.2420  0.1857 -0.4750
  107MOL0     H14107   8.868   3.502   2.486 -1.2694  0.0366  2.7724
  107MOL0     H14108   9.186   3.600   2.342  0.1749  0.9053  1.1140
  107MOL0     H14109   9.431   3.613   2.358  0.0906 -1.2154 -0.2993
  107MOL0     H14110   8.535   4.055   3.489 -1.0735  1.8855 -1.8960
  107MOL0     H14111   8.311   4.052   3.581  2.1872 -0.5905 -2.8759
  107MOL0     H14112   7.886   4.326   3.734  1.7571 -0.1465  0.0758
  107MOL0     H14113   7.670   4.237   3.806  2.6258  4.9695 -1.2522
  107MOL0     H14114   7.665   4.004   4.165 -0.0250 -2.1336 -0.3543
  107MOL0     H14115   7.600   3.875   4.058 -2.3950 -0.4282 -0.7997
  107MOL0     H14116   7.379   3.916   4.086  2.7384 -1.0741 -2.6832
  107MOL0     H14117   7.440   3.959   4.242 -3.0333  2.5833  0.4261
  107MOL0     H14118   7.382   4.170   4.027  3.0222  0.5339 -0.3171
  107MOL0     H14119   7.461   4.205   4.171 -0.0268 -0.1035 -1.5411
  107MOL0     H14120   7.228   4.236   4.210  1.0203  0.2080 -1.2804
  107MOL0     H14121   7.192   4.067   4.163  0.6588 -0.1735  0.4253
  107MOL0     H14122   7.317   4.067   4.572 -2.7466  0.5974 -0.1459
  107MOL0     H14123   7.861   3.946   4.059 -2.0457 -1.3902 -1.1078
  107MOL0     H14124   8.070   4.022   3.978 -0.5707  1.8725  2.6811
  108MOL0     O14125   8.342   1.294   5.286  0.1046 -0.1783  1.1142
  108MOL0     C14126   8.378   1.403   5.327  0.7370  0.3106  0.1200
  108MOL0     O14127   8.294   1.503   5.361 -0.1867  0.4985 -0.1289
  108MOL0     C14128   8.157   1.498   5.336 -0.0640  0.1522  1.0208
  108MOL0     C14129   8.112   1.620   5.287 -0.4484 -0.0373 -0.4780
  108MOL0     C14130   7.978   1.634   5.265  0.3346  0.2393 -0.3672
  108MOL0     C14131   7.891   1.521   5.293 -0.5233  0.4767  0.5551
  108MOL0     O14132   7.764   1.527   5.260 -0.5040  0.5227 -0.2673
  108MOL0     C14133   7.681   1.607   5.348 -0.9352 -0.0260  0.2798
  108MOL0     C14134   7.561   1.535   5.401 -0.2318  0.0922  0.5205
  108MOL0     C14135   7.481   1.460   5.287  0.3179  0.4246 -0.3241
  108MOL0     C14136   7.401   1.558   5.189  0.0985 -0.4404  0.3342
  108MOL0     C14137   7.265   1.496   5.136 -0.0626 -0.9138 -0.4261
  108MOL0     C14138   7.149   1.506   5.231 -0.3618 -0.2191 -0.5697
  108MOL0     C14139   7.003   1.533   5.168 -0.6147  0.0968 -1.1591
  108MOL0     C14140   6.935   1.407   5.137  0.2762  0.2145 -0.4108
  108MOL0     N14141   6.798   1.423   5.099  0.0160 -0.5768  0.5832
  108MOL0     C14142   6.750   1.522   5.019 -0.5403  0.4445  0.1686
  108MOL0     C14143   6.615   1.499   5.016 -0.0302  0.0789 -0.3582
  108MOL0     C14144   6.525   1.575   4.923 -0.6421  0.0583  0.3380
  108MOL0     C14145   6.420   1.662   4.993  0.3483 -0.2931  0.4438
  108MOL0     C14146   6.390   1.767   4.888  0.2511 -0.4782 -0.1613
  108MOL0     C14147   6.261   1.843   4.909  0.8996  0.6183 -0.1354
  108MOL0     O14148   6.155   1.765   4.851  0.7786  0.3287 -0.1651
  108MOL0     C14149   6.026   1.779   4.904 -0.1172  0.5785 -0.4390
  108MOL0     C14150   6.006   1.764   5.047 -0.4395  0.0079  0.3500
  108MOL0     C14151   5.889   1.814   5.105 -1.1426  0.2103 -0.2609
  108MOL0     C14152   5.786   1.862   5.030  0.8022  1.2099  0.9089
  108MOL0     C14153   5.659   1.902   5.099 -0.5920 -0.0066  0.2392
  108MOL0     O14154   5.573   1.972   5.026  0.2414  0.5162  0.1480
  108MOL0     C14155   5.439   1.962   5.056 -0.7184 -0.1704  0.6715
  108MOL0     C14156   5.386   2.065   5.135 -0.3357  0.3019 -0.6848
  108MOL0     C14157   5.241   2.059   5.148 -0.6624  0.3455 -0.2669
  108MOL0     C14158   5.165   1.957   5.107  0.2007  0.5265  0.9866
  108MOL0     O14159   5.032   1.960   5.149 -0.4533  0.4998  0.2560
  108MOL0     C14160   4.965   1.835   5.153  0.2253  0.8340  0.2733
  108MOL0     C14161   4.823   1.841   5.209  0.4032  0.2216 -0.1821
  108MOL0     C14162   4.730   1.951   5.147 -0.1999  0.0714 -0.3410
  108MOL0     C14163   4.732   1.966   4.999  0.4426  0.0217  1.2379
  108MOL0     C14164   4.641   2.078   4.936  0.2122 -0.0867  0.3945
  108MOL0     C14165   4.681   2.095   4.781 -0.0826  0.5414 -0.2215
  108MOL0     C14166   4.610   2.217   4.708  0.3044  0.2166 -0.2461
  108MOL0     C14167   4.686   2.342   4.746  0.2332  0.8866 -0.7428
  108MOL0    Cl14168   4.621   2.490   4.682 -0.0322  0.5008 -0.0563
  108MOL0     C14169   5.226   1.862   5.026  0.0014 -0.0267 -0.1726
  108MOL0     C14170   5.367   1.859   5.003 -0.3381 -0.1553  0.5592
  108MOL0     O14171   5.638   1.852   5.204  0.4982 -0.1767  0.1911
  108MOL0     C14172   5.796   1.869   4.891 -0.7607 -1.0758 -0.0004
  108MOL0     C14173   5.922   1.834   4.825  0.1901 -0.9175 -0.2510
  108MOL0     N14174   6.584   1.407   5.109  0.4607  0.0372  0.4233
  108MOL0     N14175   6.693   1.356   5.158  0.4859 -0.9063 -0.4472
  108MOL0     C14176   7.948   1.401   5.338  0.5282  1.0136  0.5247
  108MOL0     C14177   8.078   1.386   5.360  0.3399  0.2672  0.0150
  108MOL0     C14178   8.524   1.421   5.334  0.2721 -0.0878 -0.5234
  108MOL0     C14179   8.607   1.311   5.328 -0.3685  0.1841 -0.2745
  108MOL0     C14180   8.748   1.322   5.320  0.1551  0.4475 -0.4808
  108MOL0     C14181   8.807   1.448   5.334 -0.3220  0.3392 -0.1269
  108MOL0     O14182   8.940   1.464   5.343 -0.0421  0.0774 -0.4879
  108MOL0     C14183   9.033   1.364   5.382  0.5621 -0.3978  0.3575
  108MOL0     C14184   9.172   1.422   5.341 -0.5838  0.3075 -0.3498
  108MOL0     C14185   9.296   1.367   5.411  0.0409  0.0046 -1.0275
  108MOL0     C14186   9.407   1.478   5.415  0.3007 -0.1937 -0.0821
  108MOL0     C14187   9.519   1.445   5.499 -0.1147  0.3497 -0.4553
  108MOL0     C14188   9.626   1.431   5.564  0.2686  0.4178 -0.3901
  108MOL0     C14189   8.725   1.568   5.343 -0.3589 -0.1212  0.1769
  108MOL0     C14190   8.587   1.551   5.338 -0.2616 -0.0662  0.3542
  108MOL0     H14191   8.182   1.702   5.275  1.5585 -1.6433 -0.3889
  108MOL0     H14192   7.925   1.722   5.232  1.8423  0.6958 -1.7295
  108MOL0     H14193   7.634   1.678   5.280  0.1773  2.0714  1.6026
  108MOL0     H14194   7.731   1.666   5.425 -3.0515 -1.2965  2.7591
  108MOL0     H14195   7.498   1.601   5.461  0.0461  1.0115 -0.1842
  108MOL0     H14196   7.609   1.465   5.470 -1.0749  0.3257  1.3672
  108MOL0     H14197   7.405   1.390   5.324  0.5024  1.3833  2.0693
  108MOL0     H14198   7.560   1.405   5.234  0.7071  0.2580  0.3995
  108MOL0     H14199   7.390   1.661   5.224  2.2613  0.0299 -0.2326
  108MOL0     H14200   7.464   1.571   5.100 -0.0745 -0.7451  0.1653
  108MOL0     H14201   7.266   1.395   5.095  1.0833 -1.0529 -0.1154
  108MOL0     H14202   7.242   1.559   5.050  1.3214  0.7748  0.3681
  108MOL0     H14203   7.160   1.587   5.304  2.9182 -1.9000  1.0251
  108MOL0     H14204   7.142   1.415   5.292 -1.7688 -1.2503 -2.1897
  108MOL0     H14205   6.942   1.580   5.244  0.5841  1.4036 -0.9626
  108MOL0     H14206   7.010   1.593   5.077  2.4528  0.2456 -0.9352
  108MOL0     H14207   6.949   1.346   5.226  0.0394 -0.1250 -0.6063
  108MOL0     H14208   6.999   1.388   5.051  0.3090  1.0669 -0.5870
  108MOL0     H14209   6.801   1.596   4.959  0.2701 -1.2265 -1.3146
  108MOL0     H14210   6.480   1.499   4.859  3.1263 -3.1632  1.1371
  108MOL0     H14211   6.590   1.641   4.866 -1.7349  0.2849 -0.6913
  108MOL0     H14212   6.456   1.704   5.088  1.5670  0.0715 -0.1563
  108MOL0     H14213   6.333   1.599   5.012  0.2899 -0.2490  0.3176
  108MOL0     H14214   6.464   1.848   4.884 -0.5372  0.2894  0.4024
  108MOL0     H14215   6.382   1.723   4.788  0.8858  0.2793 -0.5564
  108MOL0     H14216   6.249   1.947   4.879  0.3382  1.3087  2.2766
  108MOL0     H14217   6.247   1.847   5.017 -0.7959 -0.4011 -0.2787
  108MOL0     H14218   6.096   1.732   5.099  0.4234  0.8194 -0.5847
  108MOL0     H14219   5.877   1.812   5.212 -1.1291 -1.1333 -0.2735
  108MOL0     H14220   5.454   2.134   5.184 -0.7921 -0.3726  0.9335
  108MOL0     H14221   5.191   2.130   5.212 -2.6520  0.8990 -2.3175
  108MOL0     H14222   5.026   1.767   5.214 -0.9022 -1.4677 -1.0086
  108MOL0     H14223   4.960   1.797   5.050  0.5253  0.1191  0.5154
  108MOL0     H14224   4.829   1.857   5.317  1.6457  0.4956 -0.2695
  108MOL0     H14225   4.783   1.739   5.205 -0.4415  0.5420 -0.0782
  108MOL0     H14226   4.764   2.046   5.188 -0.4787  0.4809 -1.0361
  108MOL0     H14227   4.629   1.938   5.186  0.4955  0.0664  1.5392
  108MOL0     H14228   4.834   1.988   4.965 -0.4806  1.0462 -1.0572
  108MOL0     H14229   4.698   1.874   4.951  1.0953  0.5120 -0.2351
  108MOL0     H14230   4.653   2.170   4.994 -1.5631  0.2494  0.3126
  108MOL0     H14231   4.535   2.051   4.934  0.0664  0.4593  0.5941
  108MOL0     H14232   4.664   2.002   4.727  2.0220  0.6809 -1.2490
  108MOL0     H14233   4.790   2.107   4.784 -0.3696  4.4379  0.6008
  108MOL0     H14234   4.615   2.204   4.599  0.4695 -0.6423 -0.1458
  108MOL0     H14235   4.507   2.226   4.744  0.3311 -1.5663  0.3983
  108MOL0     H14236   4.793   2.336   4.724  0.2572  3.1612 -1.5598
  108MOL0     H14237   4.662   2.352   4.852 -1.9748  1.9172 -1.2754
  108MOL0     H14238   5.174   1.772   4.996  1.8637 -1.3499  0.3920
  108MOL0     H14239   5.416   1.779   4.948  0.3459  0.9478 -0.4936
  108MOL0     H14240   5.704   1.901   4.843 -0.7234 -1.1514 -0.1237
  108MOL0     H14241   5.939   1.847   4.718 -2.6626  1.6246 -0.5336
  108MOL0     H14242   7.892   1.311   5.363 -0.2047  0.8391 -1.5066
  108MOL0     H14243   8.126   1.300   5.407  0.0402  0.7062  1.1613
  108MOL0     H14244   8.570   1.214   5.297  1.2964 -0.8855  0.8902
  108MOL0     H14245   8.797   1.227   5.304 -0.1118  0.1750  0.2621
  108MOL0     H14246   9.005   1.270   5.334 -3.1503 -0.4110  2.1378
  108MOL0     H14247   9.031   1.365   5.492  2.5236 -2.1549  0.4581
  108MOL0     H14248   9.196   1.418   5.234  0.2681  2.7412 -0.3014
  108MOL0     H14249   9.163   1.523   5.381 -0.5217 -0.2467  1.0970
  108MOL0     H14250   9.328   1.281   5.352  0.5068 -1.4414  1.2079
  108MOL0     H14251   9.269   1.327   5.510  1.1250  1.4036 -0.1289
  108MOL0     H14252   9.440   1.500   5.313  0.8190 -1.7880 -0.2850
  108MOL0     H14253   9.365   1.569   5.458 -0.4772 -1.1207  1.2073
  108MOL0     H14254   9.713   1.421   5.624 -1.7330 -0.7381  2.5492
  108MOL0     H14255   8.771   1.666   5.331  3.2049 -1.7818 -0.9980
  108MOL0     H14256   8.531   1.642   5.359  0.7651  0.1329  2.5413
  109MOL0     O14257   2.965   7.251   6.669  0.5204 -0.3151 -0.5133
  109MOL0     C14258   2.909   7.147   6.700  0.0338  0.3580  0.2682
  109MOL0     O14259   2.799   7.132   6.783  0.0439 -0.6492  0.9345
  109MOL0     C14260   2.735   7.249   6.801  1.0302 -0.4443  0.8322
  109MOL0     C14261   2.635   7.286   6.716 -0.4958  0.3005  0.0282
  109MOL0     C14262   2.549   7.391   6.731 -0.5095  0.7041 -0.8989
  109MOL0     C14263   2.572   7.480   6.837 -0.8638 -0.1017  0.5276
  109MOL0     O14264   2.488   7.583   6.874 -0.3996 -1.1598  0.4615
  109MOL0     C14265   2.389   7.628   6.774  0.2626 -0.3606  0.3707
  109MOL0     C14266   2.265   7.549   6.773  0.1114 -0.5674  0.0621
  109MOL0     C14267   2.163   7.574   6.664 -0.1033 -0.4403 -0.4062
  109MOL0     C14268   2.058   7.458   6.658 -0.8832  0.6571 -0.3795
  109MOL0     C14269   1.940   7.518   6.733  1.1916  0.7216  0.3002
  109MOL0     C14270   1.807   7.438   6.735 -0.5934  0.7972  0.5830
  109MOL0     C14271   1.686   7.526   6.755 -0.6831 -0.0376  0.4933
  109MOL0     C14272   1.562   7.439   6.784  0.5665 -0.2252  0.8633
  109MOL0     N14273   1.437   7.504   6.764 -0.1945  0.8148  0.2233
  109MOL0     C14274   1.390   7.611   6.840  0.4274  0.1397  0.3014
  109MOL0     C14275   1.277   7.645   6.766  0.6052  0.2959  0.4169
  109MOL0     C14276   1.177   7.758   6.799  0.1530  0.1215 -0.2722
  109MOL0     C14277   1.072   7.707   6.902  0.6712  0.3318 -0.7696
  109MOL0     C14278   0.973   7.820   6.940 -0.0766  0.6757 -0.4894
  109MOL0     C14279   0.831   7.771   6.992 -0.7038  0.2429  0.4920
  109MOL0     O14280   0.764   7.887   7.043 -0.5398 -0.5605  0.6347
  109MOL0     C14281   0.661   7.879   7.129 -0.1380 -0.5007 -0.1730
  109MOL0     C14282   0.575   7.770   7.134 -0.0731  0.4098  0.0269
  109MOL0     C14283   0.469   7.780   7.221 -0.1538  1.2894  0.1468
  109MOL0     C14284   0.451   7.885   7.313  0.5565 -0.6503  0.2424
  109MOL0     C14285   0.342   7.880   7.415 -0.2504 -1.6209 -0.2696
  109MOL0     O14286   0.303   7.746   7.446  0.1717 -0.1336 -0.2781
  109MOL0     C14287   0.186   7.731   7.519  0.4166  0.7352  0.2530
  109MOL0     C14288   0.178   7.775   7.648 -1.3755  0.4791  1.2892
  109MOL0     C14289   0.055   7.773   7.713  0.6664  0.4882  0.4480
  109MOL0     C14290  -0.064   7.734   7.647 -0.1442  0.5790 -0.6018
  109MOL0     O14291  -0.185   7.756   7.707 -0.0917  0.1758 -0.0855
  109MOL0     C14292  -0.209   7.679   7.826  0.3408  0.2199  0.2824
  109MOL0     C14293  -0.290   7.556   7.791 -0.4028 -0.2789 -0.1201
  109MOL0     C14294  -0.438   7.576   7.777  0.1483 -0.1796 -0.3390
  109MOL0     C14295  -0.509   7.442   7.764  0.3447  0.3684 -0.1154
  109MOL0     C14296  -0.663   7.462   7.780 -0.0405  0.1953 -0.5845
  109MOL0     C14297  -0.713   7.488   7.916 -0.6462 -0.6021 -0.1736
  109MOL0     C14298  -0.870   7.492   7.903  0.5170 -0.4189 -0.1802
  109MOL0     C14299  -0.933   7.598   7.990  0.3721  0.5814  0.0837
  109MOL0    Cl14300  -0.915   7.548   8.151  0.2878 -0.1369 -0.1530
  109MOL0     C14301  -0.053   7.680   7.513 -0.3726 -0.3648 -0.6417
  109MOL0     C14302   0.070   7.681   7.451  1.3106  0.2775 -0.1135
  109MOL0     O14303   0.286   7.982   7.469 -0.3179 -0.2199  0.4750
  109MOL0     C14304   0.538   7.995   7.305 -0.1619  0.0120 -0.2444
  109MOL0     C14305   0.639   7.997   7.217  0.1450  1.0899 -0.0369
  109MOL0     N14306   1.262   7.568   6.652  0.9207  0.3292 -0.0140
  109MOL0     N14307   1.356   7.484   6.658  0.0266 -0.5917  0.1089
  109MOL0     C14308   2.679   7.447   6.925  0.3782  0.0525 -0.3113
  109MOL0     C14309   2.767   7.338   6.904 -0.2319  0.5295 -0.1378
  109MOL0     C14310   2.982   7.021   6.651 -0.0267  0.5122 -0.1410
  109MOL0     C14311   2.931   6.895   6.689  0.1334  0.0704 -0.3578
  109MOL0     C14312   2.991   6.779   6.641 -0.8056  0.1885  0.4982
  109MOL0     C14313   3.119   6.787   6.577 -0.6686  0.5023  1.4131
  109MOL0     O14314   3.164   6.671   6.530 -0.8317  0.0129 -0.1827
  109MOL0     C14315   3.283   6.655   6.446  0.2166  0.6679 -0.5825
  109MOL0     C14316   3.401   6.646   6.530 -0.6649 -0.3558  0.1356
  109MOL0     C14317   3.518   6.562   6.466  0.8030 -0.1691 -0.5583
  109MOL0     C14318   3.624   6.529   6.569  0.3346 -0.1780  0.4240
  109MOL0     C14319   3.757   6.588   6.537 -0.1369  0.7629 -0.0450
  109MOL0     C14320   3.866   6.625   6.491 -0.4534 -1.0834  0.4094
  109MOL0     C14321   3.179   6.908   6.545 -0.2635 -0.1415  0.9558
  109MOL0     C14322   3.106   7.024   6.580  0.0693  0.5061 -0.4451
  109MOL0     H14323   2.618   7.216   6.635  4.0142 -3.4854  1.8775
  109MOL0     H14324   2.464   7.396   6.664  1.4544  1.8538 -3.4788
  109MOL0     H14325   2.422   7.635   6.670 -1.4904  1.6657 -0.1040
  109MOL0     H14326   2.370   7.732   6.799  2.1087 -0.3617  2.0325
  109MOL0     H14327   2.216   7.566   6.870 -0.0553  1.1462 -0.2962
  109MOL0     H14328   2.293   7.444   6.768  0.6618 -0.4780  0.8820
  109MOL0     H14329   2.222   7.572   6.572  0.0200  0.4976 -0.3545
  109MOL0     H14330   2.117   7.673   6.670  3.1175  1.1432  0.3664
  109MOL0     H14331   2.021   7.445   6.556 -1.7349  1.1240 -0.1357
  109MOL0     H14332   2.092   7.358   6.686  0.3218  0.9718 -0.6290
  109MOL0     H14333   1.924   7.625   6.715  1.3699  0.2539 -3.4799
  109MOL0     H14334   1.954   7.512   6.841 -0.9487 -2.1860  0.5319
  109MOL0     H14335   1.794   7.360   6.810 -0.1711  0.7634  0.6209
  109MOL0     H14336   1.802   7.387   6.638  0.8562  0.7745  0.4977
  109MOL0     H14337   1.710   7.596   6.835  4.1644 -1.5023  0.6189
  109MOL0     H14338   1.671   7.589   6.667  4.0549 -0.4275 -0.8388
  109MOL0     H14339   1.570   7.399   6.885  1.3931  1.1579  1.3795
  109MOL0     H14340   1.566   7.355   6.714 -1.7061 -0.1271  0.5476
  109MOL0     H14341   1.433   7.668   6.921  3.1543 -1.4575  0.0735
  109MOL0     H14342   1.123   7.787   6.708 -2.1552 -2.3500  0.1937
  109MOL0     H14343   1.233   7.847   6.829  1.6246 -0.7748 -0.2480
  109MOL0     H14344   1.136   7.669   6.982  1.5940 -0.3371 -1.8227
  109MOL0     H14345   1.022   7.625   6.851  2.6375 -0.8301 -0.9124
  109MOL0     H14346   1.018   7.878   7.021 -1.2500 -1.2813  1.6776
  109MOL0     H14347   0.935   7.877   6.855 -4.0177 -0.7479  0.0832
  109MOL0     H14348   0.845   7.698   7.072  1.9998 -0.4448 -0.5024
  109MOL0     H14349   0.771   7.728   6.911  0.6294  2.4771 -1.8086
  109MOL0     H14350   0.586   7.699   7.053  1.0834  2.4770 -1.7630
  109MOL0     H14351   0.402   7.696   7.211  0.8142  0.3685  1.1418
  109MOL0     H14352   0.261   7.828   7.695 -0.0983  0.4627 -0.8140
  109MOL0     H14353   0.041   7.806   7.815  2.7048  0.3662  0.8014
  109MOL0     H14354  -0.271   7.741   7.891  1.5880  0.8358  0.9107
  109MOL0     H14355  -0.113   7.676   7.878 -0.3250  0.7763  1.5740
  109MOL0     H14356  -0.276   7.472   7.859 -1.4586 -0.4795 -0.1384
  109MOL0     H14357  -0.232   7.523   7.703  1.2641  0.2427  0.7372
  109MOL0     H14358  -0.444   7.636   7.686 -2.0175  0.1430 -0.0467
  109MOL0     H14359  -0.469   7.629   7.867  1.9291  1.7082 -0.7653
  109MOL0     H14360  -0.487   7.396   7.667 -2.8324  0.3054 -0.9107
  109MOL0     H14361  -0.477   7.377   7.846 -1.5722 -1.0326 -0.4189
  109MOL0     H14362  -0.715   7.376   7.736  1.6585 -1.0938 -0.1486
  109MOL0     H14363  -0.699   7.546   7.718 -2.1481  1.1585  1.7547
  109MOL0     H14364  -0.666   7.580   7.951 -3.1389  0.4707  0.6046
  109MOL0     H14365  -0.678   7.418   7.993  1.2779  2.3079  1.7808
  109MOL0     H14366  -0.907   7.519   7.804 -3.5351 -0.9273  1.0344
  109MOL0     H14367  -0.908   7.392   7.927  2.5244 -0.9917  0.8358
  109MOL0     H14368  -1.039   7.587   7.965  0.1087 -0.8338  1.5809
  109MOL0     H14369  -0.899   7.699   7.969 -0.8948  0.8743 -0.7136
  109MOL0     H14370  -0.135   7.638   7.456  0.3896 -1.6255 -0.8509
  109MOL0     H14371   0.089   7.645   7.350 -0.6448  0.2904 -0.5224
  109MOL0     H14372   0.525   8.082   7.369 -1.8432 -0.5167  0.1630
  109MOL0     H14373   0.707   8.081   7.204  2.6699 -0.9828 -1.1660
  109MOL0     H14374   2.687   7.509   7.014  2.4946  2.5342 -2.0675
  109MOL0     H14375   2.850   7.323   6.973 -0.3167  3.8444  0.8506
  109MOL0     H14376   2.848   6.877   6.756  0.1344 -0.3573 -0.4672
  109MOL0     H14377   2.939   6.687   6.666  0.8444  0.0556  3.9888
  109MOL0     H14378   3.296   6.740   6.379  0.0428  0.7948 -0.4539
  109MOL0     H14379   3.275   6.564   6.385  0.4530  1.0421 -1.1745
  109MOL0     H14380   3.440   6.748   6.537  0.2524 -0.5930 -1.1958
  109MOL0     H14381   3.380   6.622   6.635 -0.5428  0.6393  0.3936
  109MOL0     H14382   3.548   6.629   6.385  1.1210  1.0763  0.5538
  109MOL0     H14383   3.474   6.467   6.433 -1.1108  0.5350 -0.2192
  109MOL0     H14384   3.601   6.562   6.671  1.3063  1.0572  0.2628
  109MOL0     H14385   3.632   6.422   6.592 -1.4740 -0.0229  2.0225
  109MOL0     H14386   3.962   6.659   6.459  0.1930 -1.1108  2.2001
  109MOL0     H14387   3.276   6.913   6.495 -0.2202  1.4827  1.1507
  109MOL0     H14388   3.157   7.120   6.579  3.2943 -1.0769 -1.7529
  110MOL0     O14389   8.078   7.097   6.176  0.0260 -0.9881 -0.5976
  110MOL0     C14390   8.110   7.206   6.223 -0.4871 -0.0851 -0.3603
  110MOL0     O14391   8.020   7.298   6.268  0.1239 -0.4989 -1.2181
  110MOL0     C14392   7.892   7.257   6.287  0.6804 -0.3570  0.1605
  110MOL0     C14393   7.812   7.233   6.173 -0.0060 -0.2304  0.2355
  110MOL0     C14394   7.680   7.214   6.187  0.7462  0.2262 -0.4424
  110MOL0     C14395   7.622   7.223   6.311  0.4435  0.0961 -0.3468
  110MOL0     O14396   7.486   7.246   6.316 -1.0141  0.0836 -0.0809
  110MOL0     C14397   7.451   7.387   6.332  0.3586 -0.2691 -0.7805
  110MOL0     C14398   7.305   7.414   6.333  0.1392 -0.4059  0.4752
  110MOL0     C14399   7.229   7.386   6.469 -1.0341 -0.6699  0.2293
  110MOL0     C14400   7.079   7.403   6.449 -0.4188  0.1202 -0.4499
  110MOL0     C14401   7.013   7.310   6.355  0.9386  0.3332  0.6554
  110MOL0     C14402   6.875   7.287   6.390  0.1000  0.6153 -1.8001
  110MOL0     C14403   6.782   7.395   6.352 -0.2401 -0.2028 -1.3197
  110MOL0     C14404   6.639   7.391   6.405  0.7426 -0.5348  0.0085
  110MOL0     N14405   6.550   7.442   6.303  0.4472 -0.4801 -0.4281
  110MOL0     C14406   6.514   7.359   6.194 -0.8665 -1.0775 -0.5067
  110MOL0     C14407   6.428   7.429   6.122  0.4160 -0.7015 -0.0454
  110MOL0     C14408   6.368   7.375   5.998  0.2572  0.6132  0.0717
  110MOL0     C14409   6.237   7.295   6.015 -0.2597  0.1546 -0.3020
  110MOL0     C14410   6.130   7.366   6.094  0.2786 -0.1300  0.0394
  110MOL0     C14411   5.988   7.310   6.056  0.4845 -0.2013 -0.3218
  110MOL0     O14412   5.895   7.350   6.150  0.7053 -0.4945 -1.0597
  110MOL0     C14413   5.774   7.285   6.152  0.3040 -0.2734 -0.3120
  110MOL0     C14414   5.687   7.323   6.257  0.3020  0.7003  0.0500
  110MOL0     C14415   5.554   7.267   6.261  0.1049  0.3706 -0.7521
  110MOL0     C14416   5.503   7.186   6.162 -0.3265  0.0373 -0.2728
  110MOL0     C14417   5.358   7.146   6.163  0.1808  0.0587 -0.1223
  110MOL0     O14418   5.291   7.149   6.290  0.1644 -0.2685 -0.1314
  110MOL0     C14419   5.151   7.145   6.290 -0.5578  0.0048 -1.1737
  110MOL0     C14420   5.107   7.129   6.420 -0.3397  0.1694 -0.1671
  110MOL0     C14421   4.973   7.115   6.454 -0.4130  0.4038 -0.7909
  110MOL0     C14422   4.867   7.129   6.360  0.5528  0.1201 -0.2210
  110MOL0     O14423   4.736   7.130   6.405  0.1376  0.9981  0.1805
  110MOL0     C14424   4.633   7.169   6.313 -0.1291 -0.1148  0.0519
  110MOL0     C14425   4.502   7.180   6.383 -0.0226 -0.1471  0.0678
  110MOL0     C14426   4.435   7.046   6.425  0.1043 -1.2586 -0.0456
  110MOL0     C14427   4.289   7.060   6.487 -0.7547 -0.5040  0.4310
  110MOL0     C14428   4.233   6.926   6.493  0.7543  1.1901 -0.5931
  110MOL0     C14429   4.095   6.926   6.564 -0.2625 -0.0813  0.8736
  110MOL0     C14430   4.098   6.896   6.710  0.5516  0.7420  0.4747
  110MOL0     C14431   3.978   6.959   6.786  0.3527  0.1574  0.5789
  110MOL0    Cl14432   3.827   6.872   6.759  0.1449 -0.0890  0.0195
  110MOL0     C14433   4.916   7.149   6.224  0.6594  0.5831 -0.0415
  110MOL0     C14434   5.058   7.146   6.187  0.2950  0.0261 -0.0954
  110MOL0     O14435   5.304   7.123   6.054 -0.3598  0.5160  0.5953
  110MOL0     C14436   5.583   7.155   6.050 -0.0822 -0.0234 -0.1827
  110MOL0     C14437   5.716   7.202   6.045  0.2004  0.7093 -0.0118
  110MOL0     N14438   6.407   7.555   6.192 -0.0017 -0.3241  0.2947
  110MOL0     N14439   6.484   7.562   6.299  0.3080  0.7356  1.2214
  110MOL0     C14440   7.698   7.241   6.427  0.1355  0.4643 -0.2968
  110MOL0     C14441   7.831   7.261   6.414 -0.3822 -0.5369 -0.3011
  110MOL0     C14442   8.255   7.246   6.214  1.4774 -0.1349  0.1409
  110MOL0     C14443   8.296   7.368   6.258 -0.5601  0.3064 -0.6386
  110MOL0     C14444   8.431   7.413   6.244  0.4859  0.1230 -0.7682
  110MOL0     C14445   8.522   7.340   6.183 -0.2692 -0.3584  0.6400
  110MOL0     O14446   8.650   7.394   6.173  0.3367 -0.2398 -0.3170
  110MOL0     C14447   8.733   7.320   6.262 -0.0008  0.0700  0.0806
  110MOL0     C14448   8.878   7.370   6.260 -0.3996 -1.0453 -0.1278
  110MOL0     C14449   8.901   7.519   6.236 -0.3113  0.2305  0.2297
  110MOL0     C14450   8.889   7.593   6.367 -0.1422 -0.0920  0.6637
  110MOL0     C14451   8.750   7.629   6.405 -0.4416  0.6072  0.5177
  110MOL0     C14452   8.636   7.656   6.434  0.3186 -0.8575  0.2634
  110MOL0     C14453   8.481   7.219   6.126  0.1242  0.5823 -0.0205
  110MOL0     C14454   8.349   7.179   6.139  0.8897  0.0052 -0.1864
  110MOL0     H14455   7.863   7.227   6.077  0.6907 -0.3231  0.6107
  110MOL0     H14456   7.617   7.213   6.099  2.0146 -1.0389 -1.3857
  110MOL0     H14457   7.492   7.446   6.249  1.0178  0.2702 -0.0846
  110MOL0     H14458   7.479   7.422   6.432 -2.5231 -0.6700  0.2592
  110MOL0     H14459   7.267   7.349   6.254  2.7897 -1.1604 -0.2753
  110MOL0     H14460   7.290   7.519   6.308  2.2359 -0.7163 -2.4983
  110MOL0     H14461   7.257   7.444   6.557  2.3831 -0.0510 -1.0908
  110MOL0     H14462   7.257   7.283   6.490  3.9037  0.1672 -1.0539
  110MOL0     H14463   7.041   7.401   6.551 -1.3533 -1.1427 -0.8033
  110MOL0     H14464   7.064   7.508   6.422 -0.0928  0.4720  0.6637
  110MOL0     H14465   7.057   7.210   6.352 -5.4109 -3.0409  2.6003
  110MOL0     H14466   7.015   7.350   6.253 -0.3625  1.0635  0.8962
  110MOL0     H14467   6.873   7.257   6.495 -2.7598  3.2040 -0.9456
  110MOL0     H14468   6.835   7.203   6.331  0.6295 -0.1690 -1.0603
  110MOL0     H14469   6.821   7.492   6.383 -2.5172  0.6885 -1.0649
  110MOL0     H14470   6.775   7.391   6.243 -0.2946 -0.1108 -1.3198
  110MOL0     H14471   6.631   7.444   6.501  1.8905 -0.6334  0.1660
  110MOL0     H14472   6.620   7.286   6.427  1.1082 -0.1269  2.7441
  110MOL0     H14473   6.546   7.259   6.168  0.6788 -0.2573 -1.9304
  110MOL0     H14474   6.439   7.313   5.943 -1.0433  0.6878 -1.7932
  110MOL0     H14475   6.336   7.463   5.942 -2.7277 -0.3336  0.0692
  110MOL0     H14476   6.268   7.197   6.052 -2.6758 -1.3333 -1.9785
  110MOL0     H14477   6.194   7.276   5.916 -0.5335 -1.4202  0.1005
  110MOL0     H14478   6.144   7.342   6.200 -1.5732 -1.6738 -0.0169
  110MOL0     H14479   6.138   7.473   6.072  0.0285 -0.4029 -1.4766
  110MOL0     H14480   6.003   7.203   6.073  1.1643 -0.1782 -0.7347
  110MOL0     H14481   5.966   7.337   5.953 -0.1494 -1.1946 -0.4689
  110MOL0     H14482   5.724   7.382   6.341  1.3017  0.7430 -0.4021
  110MOL0     H14483   5.495   7.293   6.347  1.1245  1.1892 -0.2774
  110MOL0     H14484   5.183   7.127   6.497 -1.8236 -0.4590  1.3547
  110MOL0     H14485   4.960   7.093   6.560  0.6103  2.7679 -0.1058
  110MOL0     H14486   4.624   7.108   6.222 -3.0831 -2.0623  1.4580
  110MOL0     H14487   4.654   7.269   6.276  0.6956 -1.2865 -2.9433
  110MOL0     H14488   4.426   7.228   6.321 -1.6153 -3.7906 -1.0818
  110MOL0     H14489   4.523   7.244   6.470 -0.1528 -0.0825  0.0524
  110MOL0     H14490   4.505   7.005   6.498  0.0015 -1.0947  0.1447
  110MOL0     H14491   4.434   6.988   6.333  3.2998 -0.6826 -0.5819
  110MOL0     H14492   4.291   7.098   6.590 -4.9032 -0.0047  0.4709
  110MOL0     H14493   4.232   7.134   6.432  1.5131  0.4522 -0.7719
  110MOL0     H14494   4.303   6.860   6.545  1.6816  0.6958 -2.4126
  110MOL0     H14495   4.228   6.901   6.387  2.3404  1.5504 -0.7711
  110MOL0     H14496   4.028   6.858   6.511  0.3664  0.0472 -0.1108
  110MOL0     H14497   4.058   7.026   6.541  0.0914 -0.4269 -1.3866
  110MOL0     H14498   4.088   6.787   6.710  0.2738  0.7595  1.7058
  110MOL0     H14499   4.192   6.930   6.755 -0.0888  2.7040  0.4490
  110MOL0     H14500   3.961   7.063   6.758  2.5195  0.3296 -0.3399
  110MOL0     H14501   4.000   6.965   6.893  0.7220  1.8087  0.4308
  110MOL0     H14502   4.838   7.152   6.148 -0.8679 -1.2132  1.3570
  110MOL0     H14503   5.078   7.149   6.080  2.2984  2.0966  0.2397
  110MOL0     H14504   5.546   7.084   5.977  2.5635 -0.4528 -1.2382
  110MOL0     H14505   5.765   7.173   5.953  0.2473  1.7263 -0.3194
  110MOL0     H14506   7.640   7.253   6.518 -0.9702  0.9139 -1.0408
  110MOL0     H14507   7.890   7.270   6.505 -1.2455 -3.4287  0.6586
  110MOL0     H14508   8.224   7.434   6.305 -1.8078 -1.8679  0.6419
  110MOL0     H14509   8.458   7.506   6.293 -2.1992 -0.5558  2.4038
  110MOL0     H14510   8.729   7.213   6.240  0.8182  0.2743 -1.1859
  110MOL0     H14511   8.698   7.334   6.365  2.0302 -1.3507  1.0281
  110MOL0     H14512   8.945   7.344   6.342  1.6416 -0.1513 -1.4333
  110MOL0     H14513   8.916   7.310   6.177 -1.4089 -3.3857  1.0179
  110MOL0     H14514   8.839   7.555   6.153  0.9406 -1.2060 -1.4077
  110MOL0     H14515   9.005   7.529   6.206  0.0495  1.8031  1.8175
  110MOL0     H14516   8.939   7.544   6.451  1.9145  1.2886  0.3262
  110MOL0     H14517   8.942   7.688   6.358 -2.0299  1.0780  1.2378
  110MOL0     H14518   8.544   7.703   6.461  0.9458  1.3374 -1.1678
  110MOL0     H14519   8.547   7.149   6.078  1.6199  2.2045 -0.4220
  110MOL0     H14520   8.319   7.091   6.083  0.6718  0.8328 -1.4031
  111MOL0     O14521   5.759   9.324   3.789  0.3681  0.1684  0.5158
  111MOL0     C14522   5.793   9.381   3.890 -0.3763  0.7985 -1.2662
  111MOL0     O14523   5.728   9.392   4.010  0.2842 -0.0433  0.2265
  111MOL0     C14524   5.606   9.326   4.023 -1.7033 -0.1712  0.3522
  111MOL0     C14525   5.487   9.383   3.978 -0.6233  0.3721 -0.6374
  111MOL0     C14526   5.365   9.317   3.994  0.1216 -0.0359 -0.1902
  111MOL0     C14527   5.368   9.193   4.053 -0.4412  0.9131 -0.3516
  111MOL0     O14528   5.259   9.110   4.070  0.0846  0.1455  0.3092
  111MOL0     C14529   5.137   9.115   3.994  0.3336 -0.0711 -0.7749
  111MOL0     C14530   5.019   9.064   4.079  0.0354 -0.1731  1.2715
  111MOL0     C14531   4.993   8.917   4.065 -0.4591  0.7670 -0.6597
  111MOL0     C14532   4.857   8.886   4.135  0.1893 -0.0835 -0.0573
  111MOL0     C14533   4.811   8.733   4.116  0.1592 -0.0570  0.3137
  111MOL0     C14534   4.671   8.714   4.190 -0.6700  0.0002 -0.1986
  111MOL0     C14535   4.616   8.575   4.167 -0.2541  0.7202  0.8443
  111MOL0     C14536   4.679   8.464   4.252  0.6090 -0.6135 -0.5453
  111MOL0     N14537   4.630   8.333   4.220 -0.8833 -0.4477  0.3461
  111MOL0     C14538   4.681   8.249   4.123  0.1263  0.3156  0.2056
  111MOL0     C14539   4.589   8.153   4.114  0.6146  0.1929 -0.4821
  111MOL0     C14540   4.575   8.049   4.013 -0.4877 -0.4929 -0.4488
  111MOL0     C14541   4.694   8.033   3.920 -0.3229  0.7470  1.0417
  111MOL0     C14542   4.691   7.895   3.847  0.5174 -0.4631 -1.0770
  111MOL0     C14543   4.795   7.896   3.733  1.0374 -0.4080 -0.8115
  111MOL0     O14544   4.785   7.771   3.659 -0.0549  0.2562 -0.1212
  111MOL0     C14545   4.902   7.753   3.590 -1.0146 -0.1062 -0.4298
  111MOL0     C14546   5.014   7.708   3.664 -0.1484  0.8716 -0.0066
  111MOL0     C14547   5.137   7.707   3.603 -0.2421  0.2384 -0.3267
  111MOL0     C14548   5.161   7.737   3.465  0.3417  0.1596  0.7269
  111MOL0     C14549   5.294   7.753   3.406  0.3181 -0.5412  0.1989
  111MOL0     O14550   5.402   7.762   3.489  1.1064  0.2467 -0.1256
  111MOL0     C14551   5.530   7.748   3.441 -0.2806  0.0476 -0.1772
  111MOL0     C14552   5.573   7.655   3.352 -0.4115  0.1566  0.0224
  111MOL0     C14553   5.705   7.636   3.312 -0.1030 -0.5004  0.3885
  111MOL0     C14554   5.804   7.698   3.387  0.6151 -0.2825  0.2826
  111MOL0     O14555   5.932   7.660   3.364 -0.0467 -0.4154  0.1632
  111MOL0     C14556   6.001   7.735   3.262  0.2030 -0.3237  0.3640
  111MOL0     C14557   6.147   7.726   3.290  0.8156  0.7336 -0.3573
  111MOL0     C14558   6.193   7.576   3.262  0.1166  0.4324 -0.5446
  111MOL0     C14559   6.348   7.561   3.272 -0.1410  0.0107 -1.0671
  111MOL0     C14560   6.434   7.682   3.235  0.2811 -0.3503 -0.0383
  111MOL0     C14561   6.415   7.729   3.091  0.1879 -0.6300  0.9575
  111MOL0     C14562   6.459   7.636   2.981  1.0102 -0.0659 -0.3480
  111MOL0     C14563   6.607   7.671   2.944  0.7360  0.5652  0.0884
  111MOL0    Cl14564   6.679   7.525   2.857  0.3694 -0.2715  0.1791
  111MOL0     C14565   5.764   7.803   3.472 -0.7844 -0.6222 -0.0228
  111MOL0     C14566   5.630   7.817   3.511 -0.2583  1.1234 -0.0756
  111MOL0     O14567   5.295   7.760   3.284 -0.3198  0.1430 -0.3599
  111MOL0     C14568   5.044   7.793   3.396 -0.9786 -0.7152 -0.4383
  111MOL0     C14569   4.911   7.791   3.458 -0.8002  0.6746 -0.2173
  111MOL0     N14570   4.483   8.180   4.190 -0.8775 -0.5659  0.1457
  111MOL0     N14571   4.506   8.294   4.254  0.1350  0.3037 -0.4820
  111MOL0     C14572   5.490   9.143   4.109  0.7426  0.2917  0.3262
  111MOL0     C14573   5.602   9.206   4.082 -0.1109  0.3185 -0.1192
  111MOL0     C14574   5.900   9.472   3.875 -0.2263  0.7647  0.5866
  111MOL0     C14575   5.934   9.561   3.976  0.7582  0.1090 -0.6664
  111MOL0     C14576   6.045   9.649   3.966 -0.4379  0.4476  0.3299
  111MOL0     C14577   6.124   9.645   3.851 -0.7131  0.4007 -2.1413
  111MOL0     O14578   6.246   9.714   3.839  0.1903  0.8387 -0.2577
  111MOL0     C14579   6.313   9.749   3.955 -0.5522  0.3318 -0.0040
  111MOL0     C14580   6.453   9.789   3.906  0.6626  0.1409 -0.3980
  111MOL0     C14581   6.526   9.821   4.031 -0.1897 -0.9181 -0.0902
  111MOL0     C14582   6.584   9.700   4.102 -0.1048  0.0085 -0.0844
  111MOL0     C14583   6.710   9.640   4.036 -0.5317 -1.0640 -0.3410
  111MOL0     C14584   6.801   9.585   3.975  0.5459 -0.1301  0.0924
  111MOL0     C14585   6.099   9.553   3.757  0.2739  0.1226 -0.4218
  111MOL0     C14586   5.987   9.469   3.764  0.6608 -0.0430  0.1343
  111MOL0     H14587   5.492   9.486   3.944  0.4100  0.4019 -0.4206
  111MOL0     H14588   5.269   9.356   3.961  0.5322  0.1480 -1.1975
  111MOL0     H14589   5.145   9.075   3.892  0.1172  1.9662 -1.6259
  111MOL0     H14590   5.111   9.220   3.976 -0.9977 -0.4471 -1.1955
  111MOL0     H14591   4.931   9.113   4.036 -0.1221 -1.1090  0.4627
  111MOL0     H14592   5.033   9.093   4.183  1.1885 -1.3446  1.4689
  111MOL0     H14593   5.077   8.864   4.111 -0.2926  0.1174 -1.6724
  111MOL0     H14594   4.992   8.874   3.964  0.4112 -3.9087  1.1001
  111MOL0     H14595   4.854   8.923   4.238  0.9232  1.7899 -0.6624
  111MOL0     H14596   4.783   8.938   4.073  0.6453 -1.3839 -1.7638
  111MOL0     H14597   4.887   8.671   4.165 -1.8314  0.5783  4.5658
  111MOL0     H14598   4.804   8.707   4.009 -1.3752 -2.5792  0.9437
  111MOL0     H14599   4.602   8.794   4.165  3.0520  3.2900 -1.0016
  111MOL0     H14600   4.705   8.727   4.294  4.9911 -0.5707 -1.6363
  111MOL0     H14601   4.511   8.578   4.198 -1.2854 -2.7037 -1.6955
  111MOL0     H14602   4.623   8.551   4.061 -1.2926 -3.5408  1.5389
  111MOL0     H14603   4.654   8.487   4.356  0.4904  2.8287 -1.2175
  111MOL0     H14604   4.788   8.466   4.238  0.7676  0.5454  0.7113
  111MOL0     H14605   4.768   8.266   4.061  0.2840  3.3587  1.1274
  111MOL0     H14606   4.482   8.066   3.957  0.4106  1.2539 -1.5092
  111MOL0     H14607   4.548   7.950   4.051 -1.2063 -1.1800 -2.5787
  111MOL0     H14608   4.791   8.056   3.965  1.0858 -2.0274 -0.2795
  111MOL0     H14609   4.679   8.105   3.839  1.9457  0.9617  0.7258
  111MOL0     H14610   4.709   7.817   3.922  1.6433  1.2063  0.4981
  111MOL0     H14611   4.591   7.867   3.813 -1.3908 -0.3917  3.6910
  111MOL0     H14612   4.896   7.924   3.765  0.7795  0.1842 -0.4946
  111MOL0     H14613   4.776   7.971   3.656  0.6254 -0.4223 -0.7237
  111MOL0     H14614   5.018   7.668   3.765  4.0097 -1.3876 -0.8367
  111MOL0     H14615   5.224   7.671   3.656  1.0475  1.4147 -1.5370
  111MOL0     H14616   5.511   7.589   3.291 -0.1325 -1.3548  1.3133
  111MOL0     H14617   5.751   7.581   3.230 -0.9696  0.1064 -0.5322
  111MOL0     H14618   5.976   7.841   3.258  1.4105 -0.0720 -1.0560
  111MOL0     H14619   5.976   7.701   3.161 -1.1790  0.3102  0.4640
  111MOL0     H14620   6.159   7.764   3.392 -2.4855  0.5172  0.2396
  111MOL0     H14621   6.187   7.790   3.211  3.6472 -2.5147 -1.7981
  111MOL0     H14622   6.159   7.546   3.163 -2.0686  0.6471  0.0849
  111MOL0     H14623   6.140   7.512   3.333  0.1736  0.3221 -0.6009
  111MOL0     H14624   6.369   7.547   3.379  1.0641 -0.9477 -1.4196
  111MOL0     H14625   6.376   7.466   3.225  0.4991 -0.6512  0.5807
  111MOL0     H14626   6.541   7.664   3.249  0.4534 -1.1424 -2.0593
  111MOL0     H14627   6.404   7.766   3.298 -2.6927 -0.4307 -1.2012
  111MOL0     H14628   6.456   7.831   3.084 -1.1921 -0.1242 -0.5858
  111MOL0     H14629   6.309   7.734   3.065  0.4556 -1.1397 -0.2821
  111MOL0     H14630   6.450   7.533   3.018  1.3742  0.4407  1.2569
  111MOL0     H14631   6.396   7.661   2.896 -2.5449  0.6922  2.2799
  111MOL0     H14632   6.666   7.685   3.035  0.6231  2.8024 -0.1263
  111MOL0     H14633   6.604   7.763   2.884 -1.3694  0.2027 -0.4546
  111MOL0     H14634   5.850   7.853   3.516 -0.0485  0.1250 -2.1769
  111MOL0     H14635   5.604   7.878   3.597  1.0692 -0.1058  1.2594
  111MOL0     H14636   5.052   7.819   3.291  1.3032  1.6373  0.2307
  111MOL0     H14637   4.818   7.809   3.404 -2.3409 -3.3480  0.7348
  111MOL0     H14638   5.492   9.043   4.152  2.3205 -1.4992 -3.3765
  111MOL0     H14639   5.699   9.175   4.120  0.7308  3.0734  0.2289
  111MOL0     H14640   5.877   9.565   4.068  0.8240 -0.9381 -0.5677
  111MOL0     H14641   6.080   9.705   4.053  2.5531 -2.0798  0.9365
  111MOL0     H14642   6.323   9.672   4.032  1.4336  1.0902  0.5649
  111MOL0     H14643   6.251   9.829   3.997 -0.6647 -1.3138  3.3460
  111MOL0     H14644   6.504   9.712   3.845 -0.0628 -0.1898 -0.5973
  111MOL0     H14645   6.437   9.882   3.851  0.9588  0.6884  0.4341
  111MOL0     H14646   6.462   9.877   4.100 -1.7007 -0.1254 -2.0444
  111MOL0     H14647   6.622   9.867   4.003 -0.8297 -1.2946 -3.3263
  111MOL0     H14648   6.611   9.724   4.205 -0.6733 -0.9222  0.3008
  111MOL0     H14649   6.517   9.614   4.110  1.6413 -1.4837 -0.7282
  111MOL0     H14650   6.871   9.543   3.906  0.1708  3.3614 -2.6573
  111MOL0     H14651   6.170   9.553   3.676 -1.1509  0.6788 -1.7181
  111MOL0     H14652   5.964   9.407   3.677 -0.7556  0.5456  0.0629
  112MOL0     O14653   0.094   4.312   9.158 -0.2108  0.1219  0.8357
  112MOL0     C14654   0.163   4.359   9.067 -0.2153  0.2670  0.5716
  112MOL0     O14655   0.109   4.426   8.965  0.1820  0.3816 -0.1822
  112MOL0     C14656  -0.029   4.432   8.973 -0.3809 -0.0628  0.4866
  112MOL0     C14657  -0.108   4.318   8.940 -0.0499  0.6660 -0.6201
  112MOL0     C14658  -0.248   4.328   8.940  0.6266 -0.2774 -0.3210
  112MOL0     C14659  -0.309   4.446   8.980  0.9765 -0.1613 -0.1289
  112MOL0     O14660  -0.443   4.446   8.964  1.3312  0.5989  0.6374
  112MOL0     C14661  -0.538   4.493   9.059 -0.1420  0.6817 -0.4556
  112MOL0     C14662  -0.625   4.611   9.003  1.1437  0.2078  0.6392
  112MOL0     C14663  -0.721   4.676   9.110  0.4036  0.3517 -0.4424
  112MOL0     C14664  -0.804   4.771   9.023 -0.1115  0.1932 -0.3615
  112MOL0     C14665  -0.897   4.857   9.107 -0.0917  0.3746 -0.4850
  112MOL0     C14666  -0.993   4.950   9.037 -0.7110  1.0211 -0.5300
  112MOL0     C14667  -1.058   5.045   9.135 -0.5619 -0.9497  0.4734
  112MOL0     C14668  -1.115   5.165   9.050 -0.2144  0.9122  0.2035
  112MOL0     N14669  -1.139   5.279   9.137  0.0544  0.0281  0.1619
  112MOL0     C14670  -1.203   5.396   9.094  0.2750 -0.2806 -0.2412
  112MOL0     C14671  -1.192   5.478   9.199 -0.9836  0.7874 -0.1269
  112MOL0     C14672  -1.244   5.613   9.212  0.3144  0.5098  0.5343
  112MOL0     C14673  -1.382   5.618   9.277 -0.0126 -0.3522 -0.6010
  112MOL0     C14674  -1.392   5.566   9.429  0.2213  0.6234 -0.6638
  112MOL0     C14675  -1.523   5.594   9.505 -0.7167 -0.1525 -0.3313
  112MOL0     O14676  -1.518   5.728   9.532  0.1563  0.0929  0.3598
  112MOL0     C14677  -1.637   5.769   9.584 -0.3696  0.4542 -0.8753
  112MOL0     C14678  -1.706   5.864   9.512 -0.1205  0.1128 -0.0404
  112MOL0     C14679  -1.810   5.939   9.564 -0.3801 -0.4070 -0.3497
  112MOL0     C14680  -1.853   5.920   9.699 -0.3141 -0.2026 -0.3777
  112MOL0     C14681  -1.949   6.009   9.758  0.1206 -0.1502 -0.1955
  112MOL0     O14682  -2.038   6.067   9.671  0.4044  1.2281 -0.0570
  112MOL0     C14683  -2.145   6.137   9.718  0.7567 -0.5217  0.0361
  112MOL0     C14684  -2.119   6.264   9.756 -0.1946  0.2295 -0.0983
  112MOL0     C14685  -2.226   6.337   9.822 -0.9969 -0.0527  0.2174
  112MOL0     C14686  -2.358   6.280   9.837 -0.0246 -0.1085 -0.4276
  112MOL0     O14687  -2.441   6.365   9.902 -0.2909 -0.0287 -0.6301
  112MOL0     C14688  -2.574   6.312   9.933 -0.2335  0.0225  0.0087
  112MOL0     C14689  -2.660   6.350   9.814 -0.4163  0.5159 -0.3399
  112MOL0     C14690  -2.808   6.381   9.860 -0.4825 -0.1368  0.5991
  112MOL0     C14691  -2.874   6.257   9.916  1.1667 -0.1918  0.3006
  112MOL0     C14692  -3.025   6.287   9.915  0.1498  1.2659  0.0075
  112MOL0     C14693  -3.105   6.176   9.980 -0.0809  0.3449 -0.1216
  112MOL0     C14694  -3.253   6.199   9.953  0.0821  0.5978  0.3883
  112MOL0     C14695  -3.337   6.131  10.060 -0.1323 -0.4002 -0.3878
  112MOL0    Cl14696  -3.317   6.226  10.224 -0.3341 -0.0044  0.6595
  112MOL0     C14697  -2.371   6.149   9.790  0.4506 -0.1266  0.0927
  112MOL0     C14698  -2.271   6.073   9.733 -0.5702 -0.0752 -0.1194
  112MOL0     O14699  -1.937   6.035   9.878 -0.0175  0.1330  0.4308
  112MOL0     C14700  -1.780   5.826   9.772 -0.4940  0.0415  0.5529
  112MOL0     C14701  -1.671   5.757   9.718 -0.5439  0.2969  0.5504
  112MOL0     N14702  -1.121   5.417   9.302 -0.1312  0.6768  0.2205
  112MOL0     N14703  -1.075   5.303   9.248 -0.5372 -0.9501 -0.8357
  112MOL0     C14704  -0.227   4.561   9.005  0.5660 -0.8798  1.0591
  112MOL0     C14705  -0.089   4.553   9.006 -0.2356  0.3946  1.1139
  112MOL0     C14706   0.309   4.341   9.071  0.7498  0.0781 -0.7835
  112MOL0     C14707   0.390   4.406   8.985  0.0468 -0.0849 -0.1611
  112MOL0     C14708   0.530   4.399   9.003  0.3700 -0.2765  0.7275
  112MOL0     C14709   0.580   4.327   9.111 -0.2146  1.5912 -0.1538
  112MOL0     O14710   0.717   4.333   9.127  0.2564  0.2015 -0.4402
  112MOL0     C14711   0.778   4.296   9.254  0.5463  0.5852  0.2956
  112MOL0     C14712   0.922   4.346   9.264 -0.1369  0.3788  0.6511
  112MOL0     C14713   0.999   4.344   9.401  0.8647  0.0985 -0.3039
  112MOL0     C14714   1.149   4.334   9.410 -0.4289 -0.2565 -0.0773
  112MOL0     C14715   1.218   4.460   9.384  0.9204 -0.9411 -0.2985
  112MOL0     C14716   1.265   4.569   9.400  0.0907  0.4376 -0.1185
  112MOL0     C14717   0.491   4.268   9.204 -0.3227 -0.5769 -0.1628
  112MOL0     C14718   0.356   4.274   9.185  0.2760 -1.0991  0.1673
  112MOL0     H14719  -0.055   4.231   8.903 -0.2347  0.8769 -1.4181
  112MOL0     H14720  -0.315   4.246   8.916 -1.1551 -0.0552  3.2641
  112MOL0     H14721  -0.495   4.519   9.157  0.2984 -1.5430 -0.0038
  112MOL0     H14722  -0.602   4.408   9.084  1.3894 -0.0155  1.4023
  112MOL0     H14723  -0.683   4.565   8.923  1.2297 -1.7995  1.6672
  112MOL0     H14724  -0.569   4.693   8.956 -1.7573  1.4212 -0.9562
  112MOL0     H14725  -0.669   4.729   9.190 -1.6192 -0.4230  1.5010
  112MOL0     H14726  -0.789   4.599   9.149  1.7871 -1.7017 -1.8695
  112MOL0     H14727  -0.739   4.837   8.965  0.6454  0.6359  0.9563
  112MOL0     H14728  -0.854   4.705   8.952  0.6453 -0.9276  0.1037
  112MOL0     H14729  -0.834   4.928   9.163  2.0882 -1.8117 -0.0043
  112MOL0     H14730  -0.948   4.791   9.177  1.1532  0.0969  0.2044
  112MOL0     H14731  -1.076   4.893   8.994 -1.9432  1.4385  1.1704
  112MOL0     H14732  -0.940   5.001   8.956 -1.8699 -1.5938 -3.1247
  112MOL0     H14733  -1.136   5.002   9.198 -1.1467  1.1919  1.2907
  112MOL0     H14734  -0.982   5.079   9.207  1.7095 -3.0090 -0.7808
  112MOL0     H14735  -1.208   5.132   9.003 -0.0828  1.2313 -0.2835
  112MOL0     H14736  -1.042   5.202   8.977  0.7853  0.5637  1.0059
  112MOL0     H14737  -1.277   5.413   9.017 -2.4771  0.2516  2.3307
  112MOL0     H14738  -1.234   5.664   9.116  0.9665 -1.6270 -0.6092
  112MOL0     H14739  -1.178   5.671   9.277  1.6516 -0.1281 -0.2193
  112MOL0     H14740  -1.458   5.564   9.220 -1.4281 -0.6584  1.4472
  112MOL0     H14741  -1.415   5.722   9.281  0.8383 -0.1028  1.9013
  112MOL0     H14742  -1.385   5.457   9.438 -1.5111  0.6196  1.3921
  112MOL0     H14743  -1.317   5.613   9.492 -0.5363 -1.1294  1.6993
  112MOL0     H14744  -1.522   5.538   9.599 -0.0014  1.3836  0.6137
  112MOL0     H14745  -1.610   5.561   9.447 -1.1443  0.1465  0.1289
  112MOL0     H14746  -1.657   5.883   9.418 -1.7445  0.8132 -0.7899
  112MOL0     H14747  -1.855   6.023   9.512 -1.5127  0.3023  1.7010
  112MOL0     H14748  -2.016   6.298   9.744  0.6330 -2.2956 -0.8225
  112MOL0     H14749  -2.202   6.433   9.866 -0.0142  1.2325 -2.8361
  112MOL0     H14750  -2.615   6.362  10.021  0.3764 -0.9869  0.8952
  112MOL0     H14751  -2.576   6.205   9.954 -0.8109 -0.0534 -0.4173
  112MOL0     H14752  -2.664   6.272   9.738  0.5954 -1.6031  1.6226
  112MOL0     H14753  -2.612   6.438   9.771 -1.7002  0.6423 -1.5649
  112MOL0     H14754  -2.868   6.412   9.774 -1.0490  0.7978  1.3194
  112MOL0     H14755  -2.803   6.465   9.929 -2.0613  0.6933 -0.2262
  112MOL0     H14756  -2.860   6.175   9.845 -2.1800  0.7992 -1.7800
  112MOL0     H14757  -2.823   6.222  10.006  1.9340 -3.2895 -1.2135
  112MOL0     H14758  -3.059   6.292   9.811 -0.8270  0.3333  0.2582
  112MOL0     H14759  -3.054   6.378   9.967  0.9579  1.0987  0.7713
  112MOL0     H14760  -3.082   6.174  10.087 -1.8286 -2.7118  0.2942
  112MOL0     H14761  -3.064   6.085   9.936  2.7258  0.7226  1.4487
  112MOL0     H14762  -3.275   6.306   9.956  2.4427  1.1290  0.1981
  112MOL0     H14763  -3.278   6.162   9.853 -1.9869 -2.6954  1.9344
  112MOL0     H14764  -3.306   6.026  10.052  1.5494  0.0690 -0.3431
  112MOL0     H14765  -3.439   6.142  10.024  0.6217  0.5608 -2.3821
  112MOL0     H14766  -2.468   6.100   9.789  0.7662 -1.0093 -3.5427
  112MOL0     H14767  -2.282   5.970   9.700 -1.9070 -1.0109  2.9043
  112MOL0     H14768  -1.808   5.810   9.875 -1.9632 -1.7366 -0.0504
  112MOL0     H14769  -1.605   5.697   9.781 -0.4155  0.3063  0.4257
  112MOL0     H14770  -0.282   4.654   9.017  1.2690 -0.1568 -0.7844
  112MOL0     H14771  -0.025   4.640   8.997 -2.2347  1.6855 -2.3901
  112MOL0     H14772   0.352   4.458   8.898  2.9417 -1.3395 -2.3260
  112MOL0     H14773   0.591   4.454   8.932  1.7926  0.2467  2.2884
  112MOL0     H14774   0.783   4.188   9.270 -4.3997  0.4032  2.5049
  112MOL0     H14775   0.714   4.338   9.332 -2.3627 -1.7170 -0.6776
  112MOL0     H14776   0.967   4.269   9.199 -1.7664 -1.1788  1.2893
  112MOL0     H14777   0.946   4.444   9.223  0.0809  0.3772  0.7693
  112MOL0     H14778   0.969   4.254   9.456  0.9689 -0.1164 -0.5915
  112MOL0     H14779   0.969   4.437   9.450  0.0764 -0.2051 -0.1949
  112MOL0     H14780   1.174   4.318   9.516  0.4268 -0.8912 -0.3623
  112MOL0     H14781   1.191   4.246   9.361 -0.9232 -0.7067  0.3039
  112MOL0     H14782   1.313   4.664   9.405  3.2111 -1.0125 -0.2056
  112MOL0     H14783   0.524   4.205   9.286  2.7425  1.1200  0.0363
  112MOL0     H14784   0.300   4.228   9.266 -1.9087 -1.7420 -1.6111
  113MOL0     O14785   3.159  11.024   4.973 -0.1449  0.1138  0.1531
  113MOL0     C14786   3.127  11.095   5.070  0.2747  0.4434 -0.1628
  113MOL0     O14787   3.019  11.085   5.148 -0.1594 -0.3473 -0.8119
  113MOL0     C14788   2.925  10.983   5.144  0.1968 -0.5347  0.2366
  113MOL0     C14789   2.822  11.001   5.233 -0.2235  0.2715  0.3833
  113MOL0     C14790   2.715  10.917   5.235  0.4846 -0.4735 -0.8939
  113MOL0     C14791   2.699  10.816   5.142  0.1868  0.2936  0.0698
  113MOL0     O14792   2.591  10.728   5.132 -0.1082  0.3686  0.4640
  113MOL0     C14793   2.471  10.767   5.192 -0.0880 -0.7845 -0.2106
  113MOL0     C14794   2.370  10.659   5.180  0.5239  0.5108 -0.6498
  113MOL0     C14795   2.228  10.702   5.192 -0.3625 -0.5658  0.2738
  113MOL0     C14796   2.129  10.590   5.223 -0.3165 -0.1578  0.5945
  113MOL0     C14797   1.988  10.647   5.240  0.2299  0.2155  0.4338
  113MOL0     C14798   1.906  10.548   5.320  0.0183  0.7936 -0.5245
  113MOL0     C14799   1.850  10.423   5.244  0.3324  0.6233  0.1635
  113MOL0     C14800   1.741  10.463   5.136 -0.1252  0.4647 -0.0172
  113MOL0     N14801   1.622  10.512   5.202  0.2667  0.9368 -0.3499
  113MOL0     C14802   1.534  10.435   5.277  0.0556  0.1544 -0.9291
  113MOL0     C14803   1.437  10.520   5.324  0.2362 -0.5600  0.0088
  113MOL0     C14804   1.330  10.483   5.429 -0.1146  0.0017 -0.6637
  113MOL0     C14805   1.193  10.505   5.392  0.5004 -0.2912  0.3612
  113MOL0     C14806   1.155  10.433   5.262  0.3616 -0.7092  0.1589
  113MOL0     C14807   1.006  10.458   5.227  0.6553  0.1214  0.7232
  113MOL0     O14808   1.001  10.479   5.087  0.3168  0.1800 -0.1106
  113MOL0     C14809   0.868  10.494   5.041 -0.5883  0.0508  0.7672
  113MOL0     C14810   0.849  10.480   4.897  0.7631  0.4651  0.0563
  113MOL0     C14811   0.716  10.509   4.847 -0.3032 -0.1511 -0.3418
  113MOL0     C14812   0.606  10.534   4.937 -0.1988  0.5589  0.0769
  113MOL0     C14813   0.470  10.577   4.877  0.3378 -0.1113 -1.2945
  113MOL0     O14814   0.479  10.590   4.740 -0.1460  0.0293  0.0675
  113MOL0     C14815   0.381  10.648   4.672  0.7683  0.2272  0.3052
  113MOL0     C14816   0.298  10.571   4.583  0.1329  0.1308  0.6967
  113MOL0     C14817   0.191  10.638   4.518  0.1250 -0.6211  0.3137
  113MOL0     C14818   0.148  10.772   4.551 -0.7250  0.9322 -0.6353
  113MOL0     O14819   0.046  10.843   4.506  0.1019  0.2157 -0.0125
  113MOL0     C14820  -0.072  10.768   4.480  0.2654 -0.3461 -0.3147
  113MOL0     C14821  -0.180  10.873   4.436 -0.0889 -0.3517 -0.6667
  113MOL0     C14822  -0.318  10.801   4.426  0.1152 -0.6522 -0.0264
  113MOL0     C14823  -0.442  10.876   4.377 -0.4017  0.3981 -0.4691
  113MOL0     C14824  -0.563  10.778   4.386  0.8763 -0.4174 -0.6294
  113MOL0     C14825  -0.609  10.713   4.519 -0.7884  0.6029 -0.1061
  113MOL0     C14826  -0.603  10.819   4.636  0.6638  0.0143 -0.7896
  113MOL0     C14827  -0.672  10.771   4.770  0.1963 -0.0672 -0.5637
  113MOL0    Cl14828  -0.592  10.847   4.914  0.3407 -0.6561  0.0897
  113MOL0     C14829   0.224  10.838   4.639 -0.2765 -0.2114 -0.2839
  113MOL0     C14830   0.339  10.780   4.697  0.0998 -0.2654  0.7925
  113MOL0     O14831   0.363  10.592   4.946  0.0811 -0.0956  0.6195
  113MOL0     C14832   0.630  10.542   5.070 -0.3108  0.1663  0.4525
  113MOL0     C14833   0.760  10.517   5.125  1.2667  0.4789 -0.0793
  113MOL0     N14834   1.475  10.644   5.284 -0.0870 -0.7438  0.4863
  113MOL0     N14835   1.565  10.632   5.201  0.0422  0.3336  0.6693
  113MOL0     C14836   2.800  10.803   5.048  0.7529 -0.4277 -0.6004
  113MOL0     C14837   2.910  10.877   5.048 -0.2434 -0.3607  0.8302
  113MOL0     C14838   3.228  11.205   5.098  0.5747  0.2961 -0.2730
  113MOL0     C14839   3.214  11.296   5.208 -0.1234  0.3163  0.1514
  113MOL0     C14840   3.295  11.404   5.219 -0.3062  0.0319  0.6301
  113MOL0     C14841   3.397  11.437   5.130  0.6731  0.2679  0.2799
  113MOL0     O14842   3.474  11.550   5.149 -0.5366  0.1398 -0.1545
  113MOL0     C14843   3.544  11.603   5.029  0.1557  0.3126  0.5303
  113MOL0     C14844   3.693  11.572   5.072 -0.2641  0.6246  0.1970
  113MOL0     C14845   3.791  11.628   4.966 -0.1042 -0.0451  0.6258
  113MOL0     C14846   3.802  11.530   4.845  0.1330  0.5387  0.3348
  113MOL0     C14847   3.900  11.575   4.749  1.2374 -0.5387 -0.1853
  113MOL0     C14848   3.982  11.603   4.662  1.1293 -0.8956  0.8018
  113MOL0     C14849   3.409  11.347   5.022 -0.5871 -0.1247  1.2922
  113MOL0     C14850   3.332  11.232   5.010  0.0174  0.5147 -0.0770
  113MOL0     H14851   2.818  11.080   5.308 -2.4999 -2.1480  3.0527
  113MOL0     H14852   2.648  10.920   5.320  2.6027 -1.9587  0.9474
  113MOL0     H14853   2.431  10.861   5.153  0.9120  0.7820  2.2426
  113MOL0     H14854   2.481  10.779   5.301 -2.7581 -2.2846  0.2848
  113MOL0     H14855   2.385  10.575   5.249  1.0947 -0.9676 -2.4710
  113MOL0     H14856   2.378  10.612   5.081  1.5761 -4.2849  1.4191
  113MOL0     H14857   2.192  10.738   5.095 -0.0564 -1.6369 -0.2474
  113MOL0     H14858   2.219  10.776   5.272  1.2762 -0.3561  0.2867
  113MOL0     H14859   2.146  10.527   5.136  0.5848  1.0872 -0.1710
  113MOL0     H14860   2.160  10.534   5.311  0.0578  0.5718  0.9330
  113MOL0     H14861   1.941  10.682   5.148  1.3147 -1.3064 -0.7553
  113MOL0     H14862   1.988  10.738   5.299 -0.8839  0.7530 -0.3611
  113MOL0     H14863   1.826  10.613   5.356  1.0652  1.1617  1.3307
  113MOL0     H14864   1.950  10.507   5.412 -0.7905  0.2028 -0.3964
  113MOL0     H14865   1.940  10.381   5.199  2.0586  2.6117  1.5503
  113MOL0     H14866   1.798  10.345   5.300  0.5941 -0.6701 -1.3285
  113MOL0     H14867   1.722  10.375   5.073 -0.6803 -0.4439  1.3561
  113MOL0     H14868   1.784  10.536   5.067 -0.1184  0.2914 -0.2006
  113MOL0     H14869   1.542  10.330   5.305 -0.6043  0.5569  0.8429
  113MOL0     H14870   1.348  10.537   5.522  1.1865 -2.1019  0.4062
  113MOL0     H14871   1.339  10.377   5.456 -0.5434  0.5318  1.7436
  113MOL0     H14872   1.174  10.610   5.372 -4.1300 -1.2153 -1.4446
  113MOL0     H14873   1.130  10.472   5.476  0.1958  1.6109  0.9228
  113MOL0     H14874   1.211  10.479   5.181  0.3651  4.1918  2.5923
  113MOL0     H14875   1.171  10.325   5.272 -2.9590 -1.9490 -4.5899
  113MOL0     H14876   0.978  10.552   5.276 -0.6151 -0.7318  1.7111
  113MOL0     H14877   0.943  10.378   5.266  0.0628  0.2251  0.0159
  113MOL0     H14878   0.932  10.441   4.840  2.4420  2.1596  1.2062
  113MOL0     H14879   0.700  10.497   4.741  1.9401 -0.1234 -0.7281
  113MOL0     H14880   0.323  10.468   4.563  0.9333  0.0062  2.2023
  113MOL0     H14881   0.122  10.598   4.444 -1.7902  3.1820 -0.1767
  113MOL0     H14882  -0.110  10.732   4.575  1.2999  1.9370  1.0519
  113MOL0     H14883  -0.066  10.690   4.403  1.9328  0.2346 -0.8201
  113MOL0     H14884  -0.163  10.920   4.338 -0.7019  0.7610 -0.2606
  113MOL0     H14885  -0.181  10.954   4.510 -1.3801  0.3398 -1.3901
  113MOL0     H14886  -0.333  10.757   4.525  3.1151 -2.2815 -0.1747
  113MOL0     H14887  -0.308  10.716   4.358  1.7749 -2.8203  2.7228
  113MOL0     H14888  -0.465  10.964   4.438  0.1576  1.6341 -1.9751
  113MOL0     H14889  -0.421  10.914   4.276 -1.8427  1.3060 -0.4583
  113MOL0     H14890  -0.558  10.707   4.303 -1.5339  2.8433 -3.8933
  113MOL0     H14891  -0.654  10.835   4.362 -0.3018 -0.9217  2.2771
  113MOL0     H14892  -0.554  10.623   4.550 -0.4095  0.4952 -1.0678
  113MOL0     H14893  -0.706  10.662   4.512 -0.7240  0.4938 -0.1959
  113MOL0     H14894  -0.499  10.838   4.662  0.6567  1.7880 -1.9368
  113MOL0     H14895  -0.644  10.911   4.595  1.5672  0.0005 -1.7440
  113MOL0     H14896  -0.647  10.664   4.774 -1.3160 -0.4108  0.7051
  113MOL0     H14897  -0.780  10.784   4.782  0.2535 -0.2925  0.3397
  113MOL0     H14898   0.210  10.945   4.645  0.1726 -0.1953  0.7705
  113MOL0     H14899   0.386  10.848   4.768 -2.9411  1.9612  0.8918
  113MOL0     H14900   0.563  10.580   5.146 -0.2477 -0.5189  0.8637
  113MOL0     H14901   0.765  10.530   5.232 -2.4107 -1.7820  0.5319
  113MOL0     H14902   2.779  10.720   4.982  0.2467 -0.3715 -0.5181
  113MOL0     H14903   2.988  10.869   4.972 -1.9165  1.1955 -1.1677
  113MOL0     H14904   3.133  11.273   5.277 -1.2132  0.7766 -0.9335
  113MOL0     H14905   3.291  11.463   5.310  0.3138  2.6990 -0.9567
  113MOL0     H14906   3.520  11.709   5.015  1.3310  0.1729 -4.1032
  113MOL0     H14907   3.513  11.568   4.930  0.9967  1.8888 -0.3187
  113MOL0     H14908   3.716  11.614   5.171  1.2831 -0.6846  0.4375
  113MOL0     H14909   3.708  11.465   5.083  1.5068  0.8771  0.6149
  113MOL0     H14910   3.890  11.642   5.011  1.5575 -2.2179 -2.0402
  113MOL0     H14911   3.749  11.725   4.936  3.5653  2.2955  2.2841
  113MOL0     H14912   3.827  11.429   4.880 -2.2761 -0.6979 -1.2316
  113MOL0     H14913   3.712  11.516   4.785 -0.5760  2.8007  0.8006
  113MOL0     H14914   4.057  11.624   4.589 -0.4417  1.9836 -0.1370
  113MOL0     H14915   3.491  11.355   4.951 -2.0889  0.0864 -0.4938
  113MOL0     H14916   3.343  11.166   4.925 -0.3129  1.1540 -0.6193
  114MOL0     O14917   7.619  10.292   8.636  1.0489  0.8606 -0.0362
  114MOL0     C14918   7.653  10.193   8.701  0.2952  0.0169  0.4685
  114MOL0     O14919   7.581  10.134   8.800 -0.1364 -0.0445  0.5523
  114MOL0     C14920   7.447  10.163   8.826  0.4878  0.2935 -0.8101
  114MOL0     C14921   7.359  10.237   8.733  0.6168  0.4003  0.5845
  114MOL0     C14922   7.232  10.276   8.774 -1.4372  0.0264 -0.1771
  114MOL0     C14923   7.191  10.246   8.906  0.6726  0.1930  0.2536
  114MOL0     O14924   7.068  10.297   8.938 -0.1024  0.3914 -0.1369
  114MOL0     C14925   6.999  10.254   9.053  0.3385  0.2421 -0.2178
  114MOL0     C14926   6.860  10.314   9.051  0.7831 -0.7459  0.1850
  114MOL0     C14927   6.786  10.279   9.182  0.7647  0.0771  0.3879
  114MOL0     C14928   6.676  10.377   9.232 -0.4655  0.5143 -0.4759
  114MOL0     C14929   6.606  10.341   9.362  0.0852  0.3567  0.3208
  114MOL0     C14930   6.515  10.220   9.341  0.3516 -0.2254 -0.3977
  114MOL0     C14931   6.380  10.259   9.267 -0.4757 -0.1993 -0.8131
  114MOL0     C14932   6.292  10.140   9.244 -0.9633  0.1287 -0.0494
  114MOL0     N14933   6.242  10.093   9.376  1.2862 -1.0149  0.7066
  114MOL0     C14934   6.130  10.155   9.419  0.0386 -0.0730 -0.3097
  114MOL0     C14935   6.105  10.107   9.545 -0.1905 -0.4282  0.4566
  114MOL0     C14936   6.017  10.149   9.651  0.4904  0.3442  1.1002
  114MOL0     C14937   5.881  10.202   9.594  0.4775  0.2313 -0.8824
  114MOL0     C14938   5.787  10.092   9.526 -0.6768  0.3533 -0.3855
  114MOL0     C14939   5.656  10.151   9.479 -0.1692 -0.0245 -0.4739
  114MOL0     O14940   5.589  10.220   9.587  0.3812 -0.4768  0.0366
  114MOL0     C14941   5.450  10.206   9.598 -0.2857 -0.1419  0.3068
  114MOL0     C14942   5.401  10.241   9.723  0.3652  1.6235 -0.7268
  114MOL0     C14943   5.261  10.230   9.755  0.7553 -1.2371 -0.0008
  114MOL0     C14944   5.171  10.184   9.657 -0.2530  0.6790 -0.7610
  114MOL0     C14945   5.027  10.166   9.694  0.2602 -0.6842 -0.4770
  114MOL0     O14946   4.988  10.207   9.820 -0.1415  0.5471  0.0675
  114MOL0     C14947   4.863  10.179   9.855 -0.5474 -0.1608 -0.8982
  114MOL0     C14948   4.779  10.280   9.868  0.4791 -0.0213  0.7583
  114MOL0     C14949   4.641  10.264   9.904  0.5904 -0.4733 -0.2486
  114MOL0     C14950   4.584  10.138   9.922 -0.3009  0.2874  0.5539
  114MOL0     O14951   4.454  10.123   9.959 -0.4290 -0.3037 -0.1183
  114MOL0     C14952   4.404  10.002  10.018 -0.3887 -0.5819  0.6896
  114MOL0     C14953   4.259   9.997   9.989  0.7516 -0.1610  0.1590
  114MOL0     C14954   4.182   9.892  10.061  0.0744  0.8013 -0.9897
  114MOL0     C14955   4.035   9.900  10.037  0.7600  0.2726  0.1022
  114MOL0     C14956   3.971   9.793  10.121 -0.5073 -1.0296  0.2279
  114MOL0     C14957   3.826   9.804  10.144  0.6415 -0.5173 -0.1336
  114MOL0     C14958   3.772   9.683  10.215 -0.2741  0.3831 -0.0542
  114MOL0     C14959   3.621   9.677  10.194  0.0643 -0.6844 -0.2295
  114MOL0    Cl14960   3.541   9.812  10.279 -0.1250 -0.1238 -0.3354
  114MOL0     C14961   4.668  10.036   9.889 -1.0264 -0.4839 -0.4802
  114MOL0     C14962   4.803  10.055   9.859 -0.4596 -0.1013 -0.1284
  114MOL0     O14963   4.950  10.142   9.600  0.0470 -0.2849 -0.9404
  114MOL0     C14964   5.217  10.177   9.528 -0.2483  0.6888 -0.1880
  114MOL0     C14965   5.352  10.186   9.497 -0.6824  0.9603 -0.7959
  114MOL0     N14966   6.198  10.008   9.573  0.3460  0.3884  0.4148
  114MOL0     N14967   6.279  10.006   9.476  0.4563 -0.2883  0.6073
  114MOL0     C14968   7.271  10.167   8.993  0.1096  0.7685  1.0189
  114MOL0     C14969   7.398  10.124   8.951 -0.5924 -0.3099 -0.3458
  114MOL0     C14970   7.786  10.139   8.664 -0.8393 -1.0607 -0.2424
  114MOL0     C14971   7.866  10.177   8.550  0.1058  0.1933 -0.1227
  114MOL0     C14972   7.974  10.096   8.518  0.0010  0.4240  0.5970
  114MOL0     C14973   8.015   9.988   8.588  0.1872 -0.5699 -0.3154
  114MOL0     O14974   8.133   9.920   8.551 -0.3045  0.2367  0.2400
  114MOL0     C14975   8.184   9.816   8.637 -0.2936 -0.0125 -1.4702
  114MOL0     C14976   8.343   9.820   8.623 -0.0942 -0.4701 -1.0648
  114MOL0     C14977   8.413   9.719   8.713 -0.0165  1.2332 -0.2809
  114MOL0     C14978   8.554   9.687   8.651 -0.8798 -0.2671  0.7031
  114MOL0     C14979   8.588   9.538   8.640  0.4048 -1.0322  0.5505
  114MOL0     C14980   8.585   9.421   8.629 -0.5725  0.9254  0.5967
  114MOL0     C14981   7.941   9.953   8.700 -0.5569 -0.0678  0.2082
  114MOL0     C14982   7.833  10.027   8.744  0.3455 -0.5276  0.6239
  114MOL0     H14983   7.386  10.268   8.633 -1.6031  0.5367 -0.0356
  114MOL0     H14984   7.167  10.337   8.713  2.0469  0.2539 -4.0395
  114MOL0     H14985   7.064  10.308   9.122  2.0976 -0.3437 -1.3564
  114MOL0     H14986   6.998  10.146   9.072  1.5626  0.1834 -0.4302
  114MOL0     H14987   6.809  10.272   8.963  3.9255 -0.2053 -2.0558
  114MOL0     H14988   6.858  10.422   9.035 -0.9455 -0.7019  0.4308
  114MOL0     H14989   6.845  10.258   9.272  2.6485  0.1425 -0.7679
  114MOL0     H14990   6.723  10.192   9.158  1.3641 -0.1983 -0.2409
  114MOL0     H14991   6.715  10.474   9.265 -3.5893  0.5685  3.9031
  114MOL0     H14992   6.601  10.386   9.153  1.3991 -2.1637 -2.7418
  114MOL0     H14993   6.550  10.419   9.414 -1.0621  0.6197 -1.2385
  114MOL0     H14994   6.681  10.299   9.429  0.3967  2.4675  1.3856
  114MOL0     H14995   6.479  10.185   9.438  0.5301 -1.0066 -0.6048
  114MOL0     H14996   6.569  10.139   9.292  0.3622  0.8721 -2.2844
  114MOL0     H14997   6.310  10.324   9.321 -1.9085 -0.4155 -2.3372
  114MOL0     H14998   6.401  10.298   9.167 -1.5233  0.1752 -0.8927
  114MOL0     H14999   6.349  10.064   9.191  0.7422  1.2143  0.1205
  114MOL0     H15000   6.204  10.161   9.182 -0.8504 -0.3664 -0.3775
  114MOL0     H15001   6.069  10.233   9.377 -0.4499 -1.4675 -2.3432
  114MOL0     H15002   6.080  10.224   9.700  0.7913 -0.8909  2.6829
  114MOL0     H15003   5.995  10.061   9.712  0.3594 -0.0723  0.4678
  114MOL0     H15004   5.885  10.289   9.527 -2.1525  0.9138 -0.2612
  114MOL0     H15005   5.839  10.244   9.686  0.7790 -1.9244  0.2925
  114MOL0     H15006   5.840  10.032   9.451  0.0136 -1.3103  1.3315
  114MOL0     H15007   5.764  10.024   9.609 -0.7313  2.1980  1.1634
  114MOL0     H15008   5.588  10.070   9.450  0.1153 -0.6250  0.5026
  114MOL0     H15009   5.672  10.223   9.399  1.9683 -1.3411 -1.3037
  114MOL0     H15010   5.469  10.272   9.802 -0.8049  4.1963 -0.6346
  114MOL0     H15011   5.225  10.253   9.854  0.5024 -0.3460 -0.2841
  114MOL0     H15012   4.809  10.378   9.831  0.9512  0.3178  1.9954
  114MOL0     H15013   4.576  10.348   9.925  3.2213  1.3755  1.0861
  114MOL0     H15014   4.418  10.016  10.126 -2.1373  0.2966  0.8258
  114MOL0     H15015   4.462   9.913   9.989  1.7591  0.9771 -0.0943
  114MOL0     H15016   4.250   9.986   9.880  4.4703  0.0918 -0.2892
  114MOL0     H15017   4.225  10.099  10.006  1.8329  0.6683 -2.1646
  114MOL0     H15018   4.195   9.908  10.168  0.2222 -1.2990 -0.6330
  114MOL0     H15019   4.212   9.789  10.035 -0.0909  0.7628 -1.0296
  114MOL0     H15020   3.999   9.998  10.069 -2.2711  0.7116 -3.8530
  114MOL0     H15021   4.014   9.883   9.931  1.3522  1.1553 -0.1710
  114MOL0     H15022   4.026   9.773  10.214  0.4861 -2.8385 -0.6803
  114MOL0     H15023   3.984   9.693  10.077 -1.6437  0.1080 -2.9645
  114MOL0     H15024   3.790   9.811  10.041  0.0663 -1.5821 -0.0231
  114MOL0     H15025   3.802   9.891  10.205 -2.1260 -1.1306 -0.2254
  114MOL0     H15026   3.803   9.591  10.166  0.7913  2.6550 -4.1182
  114MOL0     H15027   3.801   9.700  10.319 -0.3307 -1.3974  0.2897
  114MOL0     H15028   3.584   9.588  10.246  0.4192 -0.4332  0.4656
  114MOL0     H15029   3.592   9.679  10.089  0.6629 -0.6430 -0.3966
  114MOL0     H15030   4.640   9.932   9.900  0.4042 -0.6550  2.6496
  114MOL0     H15031   4.872   9.974   9.837 -0.4660  0.1197 -0.9893
  114MOL0     H15032   5.148  10.155   9.446  1.2954  1.1764 -1.6732
  114MOL0     H15033   5.382  10.172   9.393  0.3414 -1.0482 -0.2792
  114MOL0     H15034   7.240  10.125   9.088  0.9291  2.5275  2.1162
  114MOL0     H15035   7.464  10.066   9.014  0.7273 -0.9343 -2.2232
  114MOL0     H15036   7.842  10.264   8.490  0.4625  2.5957  2.9396
  114MOL0     H15037   8.034  10.132   8.435  1.4334  1.9288  2.2089
  114MOL0     H15038   8.155   9.713   8.614 -1.5565 -0.5020  1.7735
  114MOL0     H15039   8.165   9.835   8.743  1.1843  0.4068 -1.2549
  114MOL0     H15040   8.379   9.806   8.521  1.6930 -1.2167 -0.3668
  114MOL0     H15041   8.381   9.914   8.664 -0.0272 -0.6622 -0.6790
  114MOL0     H15042   8.355   9.627   8.725  1.0068  0.8605  2.6310
  114MOL0     H15043   8.418   9.753   8.817 -5.7558  0.6302  0.4955
  114MOL0     H15044   8.568   9.725   8.549  0.9761  1.1534  1.4284
  114MOL0     H15045   8.634   9.736   8.707 -0.2081  1.4693 -1.6434
  114MOL0     H15046   8.584   9.314   8.642  2.4641  0.9384  1.7163
  114MOL0     H15047   7.956   9.869   8.766 -3.5053 -1.4356 -0.6939
  114MOL0     H15048   7.781   9.985   8.829  0.5636 -2.6494 -0.2237
  115MOL0     O15049   9.768   8.664  10.151 -0.0048 -0.0986 -0.2901
  115MOL0     C15050   9.764   8.570  10.073 -0.0074  0.5199  0.3510
  115MOL0     O15051   9.657   8.516  10.014 -0.5550  0.0706  0.1872
  115MOL0     C15052   9.537   8.565  10.049 -0.1704  0.1231  0.5501
  115MOL0     C15053   9.452   8.600   9.945  0.1967 -0.0766 -0.3094
  115MOL0     C15054   9.324   8.646   9.982 -0.0390  0.0730 -0.4239
  115MOL0     C15055   9.280   8.647  10.114  0.1122 -0.4938 -0.9069
  115MOL0     O15056   9.154   8.685  10.157 -0.5263 -0.7069 -0.9116
  115MOL0     C15057   9.061   8.715  10.060 -0.3544 -0.1163 -0.3825
  115MOL0     C15058   8.932   8.735  10.127  0.0060  0.5452  0.1405
  115MOL0     C15059   8.845   8.804  10.018  0.1632 -0.2317 -0.8269
  115MOL0     C15060   8.696   8.823  10.058  0.6799 -0.3957 -0.3114
  115MOL0     C15061   8.616   8.686  10.041  0.4145 -0.1143 -0.3366
  115MOL0     C15062   8.463   8.712  10.095 -1.0737  0.9587 -0.2283
  115MOL0     C15063   8.379   8.798  10.015 -0.1229  0.0133 -0.2921
  115MOL0     C15064   8.243   8.839  10.086 -0.0412  0.0505  0.1609
  115MOL0     N15065   8.153   8.731  10.124 -0.0374 -1.1039 -0.4718
  115MOL0     C15066   8.127   8.611  10.064  0.1638  0.1448 -0.4952
  115MOL0     C15067   8.033   8.549  10.131  0.5481  0.1634 -0.7950
  115MOL0     C15068   7.968   8.429  10.074 -0.2186  0.2394  0.3403
  115MOL0     C15069   7.873   8.463   9.954 -1.1944 -0.1675  0.1114
  115MOL0     C15070   7.836   8.332   9.877  0.3100 -0.9574 -0.2936
  115MOL0     C15071   7.733   8.243   9.949 -1.0733  0.2930 -0.1491
  115MOL0     O15072   7.611   8.315   9.975 -0.8718  0.3622 -0.0849
  115MOL0     C15073   7.520   8.252  10.052 -0.0259  0.9056 -0.5260
  115MOL0     C15074   7.536   8.124  10.114  0.1573 -1.1877  1.0740
  115MOL0     C15075   7.429   8.065  10.180  0.5988  0.8828 -0.2588
  115MOL0     C15076   7.308   8.133  10.189  0.6092 -0.5163 -0.9297
  115MOL0     C15077   7.171   8.075  10.231 -0.9419  0.2426 -0.3551
  115MOL0     O15078   7.176   7.942  10.246 -0.0713 -0.1863 -0.2331
  115MOL0     C15079   7.056   7.875  10.259 -0.3619  0.0752 -0.6150
  115MOL0     C15080   6.958   7.873  10.164  1.1765 -0.2540 -0.1486
  115MOL0     C15081   6.844   7.786  10.185  0.2934 -0.0260 -0.0735
  115MOL0     C15082   6.825   7.706  10.296 -0.4825  0.7169  0.0193
  115MOL0     O15083   6.721   7.620  10.291  0.3423  0.1682 -0.7912
  115MOL0     C15084   6.667   7.590  10.421  0.4589  0.6303  0.3073
  115MOL0     C15085   6.537   7.501  10.413 -0.2760  0.6396  1.1210
  115MOL0     C15086   6.424   7.598  10.370 -0.2490  0.0021 -0.4995
  115MOL0     C15087   6.288   7.533  10.394 -0.8914  0.8217 -0.6977
  115MOL0     C15088   6.173   7.616  10.335 -0.3554 -0.8751 -0.2839
  115MOL0     C15089   6.044   7.541  10.371  0.5867  0.0619 -0.3499
  115MOL0     C15090   5.911   7.605  10.315  0.0812  0.6857  0.1246
  115MOL0     C15091   5.886   7.627  10.165 -1.0719 -0.0616 -0.7353
  115MOL0    Cl15092   5.960   7.495  10.065  0.2847  0.2228 -0.4468
  115MOL0     C15093   6.929   7.705  10.389 -0.6344 -0.1193  1.0540
  115MOL0     C15094   7.041   7.791  10.375  0.3513  0.2121 -0.4040
  115MOL0     O15095   7.074   8.149  10.250 -0.0977  0.6077 -0.4471
  115MOL0     C15096   7.298   8.266  10.144 -0.5519 -1.3620 -0.5033
  115MOL0     C15097   7.397   8.319  10.070  0.2834 -0.4409  0.7023
  115MOL0     N15098   7.988   8.631  10.228  0.1290 -0.7340 -0.5013
  115MOL0     N15099   8.062   8.739  10.228 -0.5949 -0.7671 -0.0623
  115MOL0     C15100   9.367   8.592  10.215 -0.1996 -0.1997  0.7367
  115MOL0     C15101   9.492   8.555  10.180 -1.1649  0.6776 -0.1365
  115MOL0     C15102   9.895   8.510  10.044 -1.2868 -0.4860 -0.5377
  115MOL0     C15103  10.015   8.579  10.094  0.2282  0.7824  1.3199
  115MOL0     C15104  10.131   8.518  10.063 -0.3971  0.2503 -0.0142
  115MOL0     C15105  10.143   8.401   9.993  0.0924 -0.0217 -0.6658
  115MOL0     O15106  10.265   8.334   9.988 -0.3708  0.2854  0.0979
  115MOL0     C15107  10.287   8.246   9.874 -0.3843 -0.6407 -0.2333
  115MOL0     C15108  10.430   8.269   9.823 -0.0988 -0.2624 -0.4102
  115MOL0     C15109  10.455   8.185   9.699  0.2793 -0.4931  0.1917
  115MOL0     C15110  10.601   8.209   9.649  0.1117 -0.0001  0.1680
  115MOL0     C15111  10.637   8.115   9.547 -0.7614 -0.3243 -0.2550
  115MOL0     C15112  10.670   8.044   9.450  0.1633  0.6740 -0.3060
  115MOL0     C15113  10.022   8.332   9.962 -0.3411  0.1556 -0.2341
  115MOL0     C15114   9.901   8.387   9.981  0.1540  0.2242 -0.6814
  115MOL0     H15115   9.497   8.594   9.846  2.0904  0.7536  0.4551
  115MOL0     H15116   9.266   8.698   9.906 -0.3371  1.2147  0.5540
  115MOL0     H15117   9.056   8.633   9.988  0.1359  0.9575 -1.6972
  115MOL0     H15118   9.093   8.803  10.002  0.3243 -0.5205 -0.6401
  115MOL0     H15119   8.926   8.792  10.220  1.2222 -1.9242  1.8501
  115MOL0     H15120   8.884   8.638  10.144  0.4397  0.3639  0.3409
  115MOL0     H15121   8.847   8.744   9.927 -0.4676 -0.8393 -0.4490
  115MOL0     H15122   8.878   8.907  10.004 -0.8327  0.3432  0.7711
  115MOL0     H15123   8.692   8.857  10.162 -2.4607  3.3656 -1.4484
  115MOL0     H15124   8.665   8.891   9.979 -1.5538 -0.7365  0.2059
  115MOL0     H15125   8.674   8.606  10.088  0.7303  0.7387  0.7650
  115MOL0     H15126   8.615   8.658   9.936 -0.3222 -1.0326 -0.1004
  115MOL0     H15127   8.460   8.755  10.195  0.5800 -2.6661  1.5571
  115MOL0     H15128   8.413   8.615  10.086 -1.1394  1.0970 -1.6254
  115MOL0     H15129   8.448   8.882  10.000  1.6980 -0.9894  1.8236
  115MOL0     H15130   8.368   8.752   9.917 -1.0274  1.8013 -1.0795
  115MOL0     H15131   8.192   8.905  10.015  2.0384  1.3818 -0.1940
  115MOL0     H15132   8.265   8.903  10.172  0.5475  0.7876 -0.5153
  115MOL0     H15133   8.176   8.573   9.975  0.0016  0.8517 -0.8920
  115MOL0     H15134   7.915   8.374  10.152 -1.9525 -1.0575 -1.6074
  115MOL0     H15135   8.042   8.361  10.032 -1.1963 -0.6335 -0.0264
  115MOL0     H15136   7.922   8.528   9.881  1.1319  2.6698  3.8099
  115MOL0     H15137   7.793   8.513  10.009 -0.3419 -0.0302  1.2858
  115MOL0     H15138   7.787   8.363   9.784 -1.4066 -0.9156  0.5827
  115MOL0     H15139   7.925   8.276   9.845 -1.0563 -3.9888  0.8003
  115MOL0     H15140   7.781   8.210  10.042  0.3152  0.6027 -0.7248
  115MOL0     H15141   7.722   8.158   9.882  0.9827  0.5614 -0.9151
  115MOL0     H15142   7.627   8.066  10.106  2.1609  1.8186  0.0486
  115MOL0     H15143   7.442   7.964  10.218 -1.9162  1.2391  1.8349
  115MOL0     H15144   6.966   7.932  10.072 -2.2383 -1.0951 -1.1388
  115MOL0     H15145   6.773   7.796  10.104 -1.4293  2.4222  1.5778
  115MOL0     H15146   6.647   7.676  10.486  1.3685 -0.4905  2.1675
  115MOL0     H15147   6.736   7.527  10.479 -1.3031 -1.4113  0.3075
  115MOL0     H15148   6.507   7.468  10.513  4.4429  2.3524  3.4312
  115MOL0     H15149   6.550   7.412  10.351 -0.1982  1.3800  0.0395
  115MOL0     H15150   6.441   7.617  10.264  2.3745 -0.5761 -0.2633
  115MOL0     H15151   6.421   7.688  10.433  0.5619  0.2371 -0.7848
  115MOL0     H15152   6.283   7.434  10.348  0.3509  0.7046 -0.6070
  115MOL0     H15153   6.274   7.529  10.502  2.3275 -2.5494 -0.2009
  115MOL0     H15154   6.188   7.636  10.228  2.4681  0.2380  0.2400
  115MOL0     H15155   6.171   7.712  10.387  0.4768 -1.5214  0.9722
  115MOL0     H15156   6.024   7.560  10.477  1.6859 -1.3487  0.1454
  115MOL0     H15157   6.046   7.433  10.354 -2.4398 -0.0288 -0.6274
  115MOL0     H15158   5.831   7.540  10.352 -0.3709  0.9760 -0.3214
  115MOL0     H15159   5.884   7.699  10.364 -2.2313  0.8772 -1.3435
  115MOL0     H15160   5.940   7.720  10.146 -2.1612  1.1509  1.5697
  115MOL0     H15161   5.783   7.651  10.137 -0.4337  1.7861 -1.6757
  115MOL0     H15162   6.925   7.632  10.469 -2.0689 -1.1293  0.1026
  115MOL0     H15163   7.127   7.789  10.442  0.9678  1.4513 -1.1183
  115MOL0     H15164   7.210   8.329  10.151  2.2795  3.3571 -2.0306
  115MOL0     H15165   7.370   8.413  10.023  0.3332 -2.3296 -3.6337
  115MOL0     H15166   9.332   8.575  10.316 -2.5305 -0.3034 -0.0271
  115MOL0     H15167   9.560   8.519  10.256  0.4006  0.6847 -1.4762
  115MOL0     H15168  10.006   8.666  10.159  1.4052  2.3598 -0.5110
  115MOL0     H15169  10.220   8.564  10.105 -0.9710 -0.9758  2.8341
  115MOL0     H15170  10.213   8.266   9.795  1.5630  3.7449 -1.2779
  115MOL0     H15171  10.285   8.142   9.906  0.5150 -1.1336 -1.7187
  115MOL0     H15172  10.450   8.375   9.801 -1.8153 -0.1716 -1.6717
  115MOL0     H15173  10.499   8.247   9.906 -1.2819  0.7189  0.8825
  115MOL0     H15174  10.381   8.207   9.622  0.7862 -0.0647 -0.1803
  115MOL0     H15175  10.440   8.078   9.718 -1.4723 -0.2753  0.2234
  115MOL0     H15176  10.604   8.312   9.612 -0.2755 -0.5540 -1.4701
  115MOL0     H15177  10.676   8.205   9.729 -0.0294 -1.2535  0.2557
  115MOL0     H15178  10.704   7.975   9.376  1.7737  0.7675  0.3088
  115MOL0     H15179  10.026   8.237   9.911 -0.8668  1.1896 -2.3257
  115MOL0     H15180   9.810   8.343   9.941 -1.4230  2.2381  0.4736
  116MOL0     O15181   1.902   5.057   0.124  0.2834  0.2497  0.4591
  116MOL0     C15182   1.990   4.979   0.092 -0.0550 -0.6276  0.6127
  116MOL0     O15183   1.982   4.850   0.072  0.5681 -0.2212  0.0750
  116MOL0     C15184   1.856   4.787   0.066  0.7091 -1.0843  0.3599
  116MOL0     C15185   1.854   4.660   0.105  0.0765 -0.0693 -0.7105
  116MOL0     C15186   1.735   4.586   0.114  0.1977 -0.4902 -0.7146
  116MOL0     C15187   1.615   4.646   0.080  0.3550  0.1562  0.2517
  116MOL0     O15188   1.490   4.593   0.099 -0.1984  0.3214  0.5160
  116MOL0     C15189   1.465   4.482   0.180 -0.7471 -0.3403  0.0881
  116MOL0     C15190   1.444   4.536   0.323  0.2808 -0.1766  0.9114
  116MOL0     C15191   1.317   4.630   0.319  0.4304 -0.0860 -0.9656
  116MOL0     C15192   1.189   4.560   0.277 -0.6369  0.5462  0.2270
  116MOL0     C15193   1.068   4.654   0.309 -0.1260  0.6647  0.7218
  116MOL0     C15194   1.057   4.762   0.201  0.2211  0.2204  1.0036
  116MOL0     C15195   0.950   4.860   0.245 -1.2690 -0.2268  0.5001
  116MOL0     C15196   0.887   4.938   0.125  0.3153 -0.0944 -0.0491
  116MOL0     N15197   0.808   5.052   0.175  0.0960 -0.8040 -0.0999
  116MOL0     C15198   0.778   5.162   0.105 -1.1207 -0.4562  1.2947
  116MOL0     C15199   0.684   5.228   0.172 -0.5572 -0.3543 -0.0351
  116MOL0     C15200   0.605   5.339   0.120 -0.6108  0.0255 -0.1380
  116MOL0     C15201   0.474   5.303   0.056 -0.0885 -0.4016  0.1749
  116MOL0     C15202   0.387   5.421  -0.008 -1.0631  0.9186  0.3418
  116MOL0     C15203   0.247   5.378  -0.052 -0.0450 -0.7301  0.2375
  116MOL0     O15204   0.183   5.499  -0.104  0.1842 -0.8457  0.2476
  116MOL0     C15205   0.047   5.493  -0.141  0.1776  0.1675 -0.6881
  116MOL0     C15206  -0.020   5.618  -0.148 -0.7781 -0.5143  0.7451
  116MOL0     C15207  -0.152   5.617  -0.187 -0.0756  0.3478  0.6616
  116MOL0     C15208  -0.225   5.496  -0.186 -0.2554 -0.0969  0.4233
  116MOL0     C15209  -0.370   5.502  -0.204  0.3319  0.0890 -0.7729
  116MOL0     O15210  -0.440   5.419  -0.121  0.2279 -0.2901  0.8515
  116MOL0     C15211  -0.578   5.425  -0.119 -0.4635 -0.2329  0.0407
  116MOL0     C15212  -0.662   5.449  -0.230  0.3522 -0.3563 -0.6337
  116MOL0     C15213  -0.803   5.432  -0.213 -0.4727 -0.6741  0.7576
  116MOL0     C15214  -0.858   5.414  -0.088  0.2897 -0.4512  1.0182
  116MOL0     O15215  -0.992   5.426  -0.060  0.0677  0.0239  0.6907
  116MOL0     C15216  -1.078   5.487  -0.154  0.8992 -0.5870 -0.1112
  116MOL0     C15217  -1.203   5.537  -0.087  0.5405 -0.1553 -1.0858
  116MOL0     C15218  -1.286   5.635  -0.163 -0.1279  0.4246  0.2929
  116MOL0     C15219  -1.421   5.658  -0.100 -0.1769 -0.4360 -0.3219
  116MOL0     C15220  -1.508   5.761  -0.181 -0.1093 -0.1589  0.9946
  116MOL0     C15221  -1.641   5.791  -0.111 -1.0881  0.4103 -0.4036
  116MOL0     C15222  -1.726   5.897  -0.193 -0.5877 -0.4396 -0.6888
  116MOL0     C15223  -1.860   5.917  -0.115  0.3070 -0.7971  0.1684
  116MOL0    Cl15224  -1.936   5.754  -0.086 -0.1263  0.1713  0.2594
  116MOL0     C15225  -0.772   5.394   0.018 -0.6803 -0.5798 -0.4483
  116MOL0     C15226  -0.637   5.384   0.001  0.7850  0.4565 -0.6496
  116MOL0     O15227  -0.411   5.578  -0.288 -0.5778  0.0507 -0.1289
  116MOL0     C15228  -0.163   5.374  -0.156  0.2864 -1.3733 -0.5592
  116MOL0     C15229  -0.027   5.375  -0.144  0.5792  0.1158 -0.6638
  116MOL0     N15230   0.658   5.152   0.284 -0.6783  0.3570 -0.6933
  116MOL0     N15231   0.730   5.048   0.278  0.1572 -0.2599  0.1784
  116MOL0     C15232   1.621   4.779   0.034 -0.6983  0.3566  0.4654
  116MOL0     C15233   1.739   4.852   0.023 -0.3121 -0.5861 -0.4333
  116MOL0     C15234   2.125   5.022   0.087  0.0383  0.1446 -0.7265
  116MOL0     C15235   2.165   5.152   0.131  0.7171  0.4465 -0.3387
  116MOL0     C15236   2.299   5.198   0.127  1.1543 -0.2741 -0.2613
  116MOL0     C15237   2.403   5.123   0.078  0.2309  0.2211 -0.2380
  116MOL0     O15238   2.529   5.174   0.095 -0.0117  0.7968  0.6807
  116MOL0     C15239   2.605   5.107   0.200  0.2409  0.5621 -0.3241
  116MOL0     C15240   2.716   5.187   0.263 -0.1488 -0.4277 -0.2347
  116MOL0     C15241   2.840   5.195   0.180  0.2009 -0.5263 -0.7165
  116MOL0     C15242   2.964   5.193   0.265 -0.4343  0.6316  0.1606
  116MOL0     C15243   2.954   5.262   0.400 -1.1639  0.1032  0.2602
  116MOL0     C15244   2.969   5.330   0.504 -0.7108  0.6822 -0.1210
  116MOL0     C15245   2.359   4.994   0.031  0.6136  0.3720 -0.2669
  116MOL0     C15246   2.226   4.944   0.038 -0.1001  0.4892 -0.1702
  116MOL0     H15247   1.948   4.608   0.121 -1.0882 -2.5732 -1.4447
  116MOL0     H15248   1.730   4.483   0.147  0.6055  0.5934  3.1876
  116MOL0     H15249   1.544   4.406   0.180  1.5673  1.8581  3.2208
  116MOL0     H15250   1.379   4.425   0.143 -1.1146 -0.2391  0.7820
  116MOL0     H15251   1.537   4.587   0.350  0.0695 -0.4342  2.1536
  116MOL0     H15252   1.434   4.456   0.396 -2.4218  1.5188  2.5397
  116MOL0     H15253   1.337   4.713   0.250  0.8773  1.0917  0.5422
  116MOL0     H15254   1.307   4.676   0.417  1.2964  0.8593 -1.2991
  116MOL0     H15255   1.195   4.535   0.171  0.1369 -1.0138  0.6082
  116MOL0     H15256   1.171   4.466   0.331  0.4560 -0.0655 -0.4401
  116MOL0     H15257   1.084   4.697   0.408  1.9811 -1.5896  1.4661
  116MOL0     H15258   0.975   4.597   0.318  0.3212  0.0524  1.5276
  116MOL0     H15259   1.029   4.717   0.105 -0.0073  2.7423 -0.1844
  116MOL0     H15260   1.154   4.811   0.190  0.7468 -0.3387  2.7606
  116MOL0     H15261   0.863   4.806   0.282 -0.1858 -3.4800 -1.3041
  116MOL0     H15262   0.985   4.925   0.325 -3.9106  0.8140  0.8970
  116MOL0     H15263   0.821   4.870   0.070  0.0416  1.7190 -2.0999
  116MOL0     H15264   0.959   4.982   0.055  0.2161  1.0188  0.5178
  116MOL0     H15265   0.802   5.181   0.001 -1.8914 -3.5935  0.4168
  116MOL0     H15266   0.675   5.388   0.051  1.1194  0.3785  1.7586
  116MOL0     H15267   0.583   5.402   0.207 -1.5535 -1.3766  0.6653
  116MOL0     H15268   0.414   5.248   0.130  1.1712  0.7731  2.1517
  116MOL0     H15269   0.507   5.241  -0.028  0.8092  1.3782 -0.8415
  116MOL0     H15270   0.380   5.501   0.067  0.6153  0.5627  0.9298
  116MOL0     H15271   0.442   5.449  -0.098  0.6022 -2.5505  0.0999
  116MOL0     H15272   0.206   5.326   0.034  0.4759 -0.8460  0.4180
  116MOL0     H15273   0.251   5.305  -0.133 -0.3374 -0.3196 -0.1492
  116MOL0     H15274   0.030   5.714  -0.136  0.3461 -0.9003 -0.5486
  116MOL0     H15275  -0.196   5.711  -0.220  1.8571  0.3471 -2.3311
  116MOL0     H15276  -0.620   5.466  -0.329 -1.7658  0.2467 -1.4789
  116MOL0     H15277  -0.879   5.427  -0.291 -2.3878  2.1692  2.2645
  116MOL0     H15278  -1.099   5.409  -0.228 -1.3601 -0.3283  0.1830
  116MOL0     H15279  -1.032   5.571  -0.206 -1.2939  0.1619 -0.9304
  116MOL0     H15280  -1.173   5.586   0.006 -4.8706 -0.8904  1.4555
  116MOL0     H15281  -1.265   5.453  -0.054  0.7414 -0.7841 -2.2549
  116MOL0     H15282  -1.295   5.605  -0.268  2.7989 -3.2350  0.8742
  116MOL0     H15283  -1.227   5.728  -0.161 -0.3457  0.6923 -2.1349
  116MOL0     H15284  -1.478   5.565  -0.098 -3.2830  1.3191 -0.9269
  116MOL0     H15285  -1.399   5.703  -0.003  0.1122  1.8936 -1.3899
  116MOL0     H15286  -1.528   5.741  -0.287 -0.7203  0.9883  0.8730
  116MOL0     H15287  -1.452   5.855  -0.188  0.0846 -0.4089 -2.1719
  116MOL0     H15288  -1.615   5.819  -0.008 -0.8922  1.9207 -0.8334
  116MOL0     H15289  -1.690   5.694  -0.103 -2.1291  1.0055  0.7793
  116MOL0     H15290  -1.682   5.997  -0.204 -1.7303 -0.0615 -2.2630
  116MOL0     H15291  -1.760   5.854  -0.288 -1.3836  0.9491 -1.0581
  116MOL0     H15292  -1.936   5.975  -0.168 -0.7422 -1.8962  0.4207
  116MOL0     H15293  -1.836   5.972  -0.024 -2.3327  1.7054 -0.5262
  116MOL0     H15294  -0.808   5.381   0.119 -0.6326  0.1816 -0.3290
  116MOL0     H15295  -0.590   5.377   0.099 -1.4869  1.3991  0.6033
  116MOL0     H15296  -0.214   5.279  -0.147 -0.1898 -1.0634  0.1257
  116MOL0     H15297   0.026   5.280  -0.139  0.8437  0.2010 -1.6645
  116MOL0     H15298   1.534   4.831  -0.005  0.4572  2.7151  0.8992
  116MOL0     H15299   1.736   4.959   0.005 -0.4360 -0.7832 -1.7033
  116MOL0     H15300   2.086   5.215   0.170 -0.4993 -1.9325  1.3457
  116MOL0     H15301   2.311   5.299   0.166 -2.3412 -0.1141  0.7696
  116MOL0     H15302   2.659   5.019   0.162  0.6132  0.9120 -0.6161
  116MOL0     H15303   2.536   5.070   0.277 -0.3372  1.2086 -0.5204
  116MOL0     H15304   2.675   5.288   0.276 -0.1132 -0.3204 -0.9297
  116MOL0     H15305   2.723   5.137   0.360  2.0300 -2.5312 -1.3827
  116MOL0     H15306   2.830   5.283   0.115  1.2504  1.3241  1.4855
  116MOL0     H15307   2.843   5.110   0.112 -0.5270  0.3193 -1.8554
  116MOL0     H15308   2.991   5.090   0.291 -0.6084  0.4231 -0.4661
  116MOL0     H15309   3.054   5.222   0.211 -0.5099  3.0545  1.2372
  116MOL0     H15310   2.987   5.380   0.597  2.0581 -3.9011  2.1773
  116MOL0     H15311   2.436   4.932  -0.013 -1.3258 -0.5308 -2.6441
  116MOL0     H15312   2.198   4.846   0.001 -0.7474  0.9604 -0.9661
  117MOL0     O15313   8.026   0.096   7.870  0.1826 -0.3089  0.1561
  117MOL0     C15314   8.005  -0.014   7.923 -0.0780  0.3825  0.9615
  117MOL0     O15315   7.889  -0.081   7.925  0.8798 -0.4628  0.2080
  117MOL0     C15316   7.787  -0.030   7.850 -0.2543  0.6022  0.3373
  117MOL0     C15317   7.779  -0.066   7.720 -0.1345  0.1419  1.1860
  117MOL0     C15318   7.675  -0.037   7.626 -0.0295  0.8556  0.1319
  117MOL0     C15319   7.575   0.051   7.684 -1.3116 -0.3743 -0.2781
  117MOL0     O15320   7.489   0.119   7.595 -0.5535  0.4547  0.6647
  117MOL0     C15321   7.354   0.109   7.637 -0.3025 -0.5860  0.0784
  117MOL0     C15322   7.277   0.152   7.512 -0.5046  0.2222  0.3851
  117MOL0     C15323   7.131   0.129   7.534 -0.4419 -0.3412  0.4470
  117MOL0     C15324   7.051   0.231   7.451  0.0346  0.2016  0.1973
  117MOL0     C15325   6.898   0.203   7.459  0.2393 -0.4945 -0.6834
  117MOL0     C15326   6.823   0.269   7.351 -0.2136  0.2882 -0.2949
  117MOL0     C15327   6.674   0.234   7.347 -0.8211  0.1908  0.2185
  117MOL0     C15328   6.647   0.099   7.282  0.3136 -0.0608 -0.1183
  117MOL0     N15329   6.505   0.050   7.311 -0.0024  0.8157  0.0148
  117MOL0     C15330   6.393   0.071   7.239  0.1011 -0.3781 -0.5339
  117MOL0     C15331   6.292   0.015   7.304  0.1113 -0.3565 -1.1167
  117MOL0     C15332   6.144   0.027   7.261  0.9376 -1.1612 -0.0965
  117MOL0     C15333   6.050  -0.030   7.357  0.9727 -0.6656 -1.2898
  117MOL0     C15334   5.906   0.002   7.313  1.0889 -0.0289 -0.1210
  117MOL0     C15335   5.853  -0.053   7.185  0.8835 -0.1546 -0.4029
  117MOL0     O15336   5.743   0.032   7.165  0.3246 -0.5319  0.0885
  117MOL0     C15337   5.651  -0.011   7.078 -0.2306 -0.5972  0.0570
  117MOL0     C15338   5.525   0.037   7.107 -0.4737 -0.1758  0.6353
  117MOL0     C15339   5.409   0.001   7.039 -1.1693 -1.1858  0.2401
  117MOL0     C15340   5.413  -0.097   6.935 -0.2686  0.1630 -0.7753
  117MOL0     C15341   5.290  -0.120   6.843 -0.2827 -0.1703  0.1293
  117MOL0     O15342   5.181  -0.078   6.910  0.0998  0.3924  0.7987
  117MOL0     C15343   5.052  -0.125   6.871 -0.4180 -0.4343 -0.1364
  117MOL0     C15344   5.007  -0.142   6.742 -0.2181  0.6633  0.0990
  117MOL0     C15345   4.875  -0.178   6.714  0.2933 -0.4445 -0.7552
  117MOL0     C15346   4.791  -0.204   6.825 -0.0051 -0.0104 -0.4198
  117MOL0     O15347   4.662  -0.251   6.810 -0.6329 -0.5220 -0.1007
  117MOL0     C15348   4.587  -0.296   6.917  0.4577  1.1266  0.0599
  117MOL0     C15349   4.474  -0.401   6.877  0.2532 -0.4723 -0.5327
  117MOL0     C15350   4.379  -0.339   6.769 -0.4847 -0.3588  1.1884
  117MOL0     C15351   4.287  -0.442   6.700 -0.1145 -0.2450 -0.3952
  117MOL0     C15352   4.153  -0.381   6.666 -0.6351  0.3818  0.2098
  117MOL0     C15353   4.065  -0.364   6.783 -0.1772  0.8654 -0.1099
  117MOL0     C15354   4.029  -0.485   6.862  0.1027 -0.6262 -0.5890
  117MOL0     C15355   3.987  -0.596   6.769  0.0872  0.2424 -0.1493
  117MOL0    Cl15356   3.906  -0.722   6.857  0.4354 -0.2620  0.5529
  117MOL0     C15357   4.840  -0.171   6.952  0.7382 -0.2843 -0.3492
  117MOL0     C15358   4.965  -0.138   6.976  0.2662  0.7653  0.4708
  117MOL0     O15359   5.296  -0.202   6.753  0.3128 -0.1143  0.2240
  117MOL0     C15360   5.542  -0.163   6.916  0.2278 -0.5966  0.6636
  117MOL0     C15361   5.662  -0.114   6.979  0.2176 -0.4444  0.3735
  117MOL0     N15362   6.348  -0.036   7.422 -0.4839 -0.4256  1.2655
  117MOL0     N15363   6.475  -0.025   7.423  0.6186 -0.6578 -0.0881
  117MOL0     C15364   7.598   0.112   7.816 -0.4709  0.0247  0.5829
  117MOL0     C15365   7.704   0.069   7.898 -0.2125 -0.2948  1.0638
  117MOL0     C15366   8.113  -0.077   8.007 -0.0155 -0.1221  0.3366
  117MOL0     C15367   8.080  -0.165   8.117 -0.2408 -0.5942 -0.1164
  117MOL0     C15368   8.178  -0.235   8.181  0.1807 -0.7116 -0.1132
  117MOL0     C15369   8.316  -0.220   8.145 -0.6294 -0.2555  0.7015
  117MOL0     O15370   8.422  -0.290   8.208  0.2605  0.1168  0.6112
  117MOL0     C15371   8.394  -0.384   8.305 -0.6722  0.2034  0.2469
  117MOL0     C15372   8.515  -0.464   8.330 -0.5729 -0.3918 -0.3247
  117MOL0     C15373   8.623  -0.378   8.401 -0.1864  0.5825  0.2657
  117MOL0     C15374   8.758  -0.445   8.382 -0.6799 -0.3230 -0.3308
  117MOL0     C15375   8.762  -0.573   8.457 -0.2229 -0.7518  0.4480
  117MOL0     C15376   8.760  -0.681   8.513  0.9648 -0.5344  0.7978
  117MOL0     C15377   8.349  -0.129   8.047 -0.1858  0.2965  0.4707
  117MOL0     C15378   8.251  -0.051   7.979  0.2252 -0.6030  1.0705
  117MOL0     H15379   7.855  -0.132   7.678 -1.1291 -0.0636 -0.3991
  117MOL0     H15380   7.673  -0.078   7.526 -0.1203 -1.1652  0.8923
  117MOL0     H15381   7.336   0.170   7.726 -3.7947 -0.6207 -0.4843
  117MOL0     H15382   7.331   0.006   7.667 -1.9638  0.2348  1.8366
  117MOL0     H15383   7.304   0.093   7.424 -1.8764  1.7486 -1.1180
  117MOL0     H15384   7.300   0.257   7.492 -4.8412  2.0515  3.4045
  117MOL0     H15385   7.099   0.144   7.638 -1.1874  1.9841 -0.0533
  117MOL0     H15386   7.103   0.027   7.505  1.0168 -0.9390  1.0291
  117MOL0     H15387   7.074   0.332   7.486  0.9133  0.5606 -1.3331
  117MOL0     H15388   7.089   0.204   7.352 -2.3895 -2.6511 -0.0747
  117MOL0     H15389   6.864   0.238   7.557 -1.4932 -1.6801 -0.8006
  117MOL0     H15390   6.885   0.094   7.465  1.2531 -0.6797 -1.5501
  117MOL0     H15391   6.866   0.256   7.252  2.0305 -0.1421  0.6864
  117MOL0     H15392   6.829   0.377   7.369 -0.4845  0.3906 -0.8129
  117MOL0     H15393   6.639   0.245   7.450 -0.4458 -0.1353  0.3857
  117MOL0     H15394   6.627   0.312   7.286 -0.8301  0.8183  1.0052
  117MOL0     H15395   6.715   0.027   7.328  1.1598  1.9476  1.9484
  117MOL0     H15396   6.676   0.121   7.178  3.9791  0.0694  0.7841
  117MOL0     H15397   6.389   0.129   7.148  1.7422  2.7789  1.2157
  117MOL0     H15398   6.137  -0.026   7.166  3.2203 -0.3117 -0.7978
  117MOL0     H15399   6.130   0.136   7.260 -0.4979 -1.3266  0.2340
  117MOL0     H15400   6.074   0.003   7.459  1.0749 -0.3843 -1.4041
  117MOL0     H15401   6.063  -0.139   7.349 -1.9567 -1.0838 -1.4178
  117MOL0     H15402   5.834  -0.028   7.390  0.3882 -1.5199 -1.3073
  117MOL0     H15403   5.901   0.111   7.302 -3.3840  0.2776  2.4371
  117MOL0     H15404   5.828  -0.160   7.188 -2.6721  0.4581 -2.1473
  117MOL0     H15405   5.930  -0.034   7.109  1.7908  0.3762  0.6203
  117MOL0     H15406   5.527   0.121   7.177  4.9572  0.4754  0.0914
  117MOL0     H15407   5.320   0.061   7.060 -3.1002 -2.5736 -3.1730
  117MOL0     H15408   5.077  -0.142   6.659  0.1325  0.9624  0.3966
  117MOL0     H15409   4.849  -0.182   6.608  2.3999 -3.1441 -1.2661
  117MOL0     H15410   4.548  -0.219   6.983 -0.7685 -0.1625  0.8819
  117MOL0     H15411   4.647  -0.362   6.981 -0.5109  0.5656  0.4091
  117MOL0     H15412   4.417  -0.424   6.967 -2.9938  4.6816 -0.9129
  117MOL0     H15413   4.533  -0.491   6.855  2.4104  0.6194  0.4954
  117MOL0     H15414   4.440  -0.278   6.701 -1.5906  2.5382  2.6026
  117MOL0     H15415   4.324  -0.261   6.821  0.6618  0.8603  0.6375
  117MOL0     H15416   4.346  -0.478   6.614  1.7116  3.0943 -0.7130
  117MOL0     H15417   4.265  -0.528   6.763  0.0501 -2.2854 -2.9452
  117MOL0     H15418   4.108  -0.446   6.590  1.7426 -0.2538 -0.7560
  117MOL0     H15419   4.163  -0.283   6.618 -0.4866 -0.6129 -1.9338
  117MOL0     H15420   3.974  -0.314   6.749 -0.7059 -0.3019 -0.4361
  117MOL0     H15421   4.110  -0.283   6.841  0.4508  0.7135 -0.3788
  117MOL0     H15422   4.108  -0.499   6.937  1.5545  2.1792 -1.4423
  117MOL0     H15423   3.941  -0.451   6.917  1.6325 -0.9868  2.2758
  117MOL0     H15424   4.069  -0.644   6.715  1.4859  2.7605 -0.3784
  117MOL0     H15425   3.924  -0.558   6.688  0.2597 -2.5078 -1.7141
  117MOL0     H15426   4.772  -0.175   7.037  2.5270  1.5353  1.2701
  117MOL0     H15427   4.988  -0.120   7.081  2.9196  2.6179 -0.3062
  117MOL0     H15428   5.564  -0.238   6.841  0.1626 -2.5001  2.4557
  117MOL0     H15429   5.757  -0.158   6.953  2.1853  2.7464  1.5481
  117MOL0     H15430   7.535   0.191   7.855 -2.2414 -1.2160  0.3696
  117MOL0     H15431   7.730   0.118   7.991  2.0315  0.1722  0.2622
  117MOL0     H15432   7.977  -0.179   8.146 -0.0259 -1.1672  0.3906
  117MOL0     H15433   8.146  -0.319   8.242 -0.4146  0.8745  1.8821
  117MOL0     H15434   8.325  -0.455   8.258 -0.6331 -1.6404  2.7865
  117MOL0     H15435   8.340  -0.348   8.393 -3.6942 -2.5258 -0.2907
  117MOL0     H15436   8.490  -0.547   8.397  0.9165  0.3185  1.1794
  117MOL0     H15437   8.542  -0.497   8.229  0.5908 -0.2179 -0.0821
  117MOL0     H15438   8.604  -0.346   8.504  2.2788 -0.7394  1.2208
  117MOL0     H15439   8.627  -0.285   8.345 -1.2054 -0.1134 -1.0098
  117MOL0     H15440   8.775  -0.459   8.275 -1.5902 -0.4355 -0.4703
  117MOL0     H15441   8.837  -0.380   8.420 -0.4684  1.0673 -2.9366
  117MOL0     H15442   8.752  -0.761   8.585  1.2865  0.0666  1.5207
  117MOL0     H15443   8.452  -0.118   8.015 -0.3708  0.1190 -0.2083
  117MOL0     H15444   8.280   0.023   7.905 -0.1360 -0.5109  1.0188
  118MOL0     O15445   1.901   3.919   5.687 -0.4426  0.6580  1.0265
  118MOL0     C15446   1.912   3.860   5.582  0.3000  1.1744 -0.4323
  118MOL0     O15447   1.827   3.755   5.535  0.1837  0.5669  0.4460
  118MOL0     C15448   1.713   3.734   5.610 -0.3825  0.6403  0.2639
  118MOL0     C15449   1.598   3.746   5.542 -0.0503 -0.4419 -0.2164
  118MOL0     C15450   1.466   3.705   5.585 -0.9183 -0.5781 -0.4771
  118MOL0     C15451   1.465   3.656   5.717  0.1221  0.0702  0.0835
  118MOL0     O15452   1.343   3.625   5.772  0.1210 -0.7472  0.5961
  118MOL0     C15453   1.311   3.688   5.898  0.5200  0.0642  0.6024
  118MOL0     C15454   1.163   3.651   5.925 -0.3018 -0.2250 -0.4655
  118MOL0     C15455   1.129   3.659   6.075  0.5446  0.2318  0.4038
  118MOL0     C15456   0.990   3.598   6.088 -0.1026 -0.0892 -0.2677
  118MOL0     C15457   0.922   3.586   6.224  0.2882  0.3290 -0.4294
  118MOL0     C15458   0.793   3.499   6.213  0.5901  0.3986 -0.0728
  118MOL0     C15459   0.686   3.550   6.107  0.3206 -0.2154  0.7137
  118MOL0     C15460   0.568   3.459   6.096  0.1800  0.0427  0.7241
  118MOL0     N15461   0.493   3.453   6.220 -0.2577  0.7370 -0.2497
  118MOL0     C15462   0.383   3.529   6.263 -0.0945 -0.8230  1.1787
  118MOL0     C15463   0.325   3.470   6.374  0.4131 -1.0082  0.6666
  118MOL0     C15464   0.209   3.509   6.454  0.5523 -0.2006  0.1691
  118MOL0     C15465   0.091   3.533   6.365 -0.3463  0.4179 -0.7158
  118MOL0     C15466   0.050   3.410   6.285  0.8196 -0.3192 -0.2162
  118MOL0     C15467  -0.092   3.408   6.225 -1.2542 -0.1371 -0.2704
  118MOL0     O15468  -0.189   3.468   6.314  0.0502  0.7213 -0.6945
  118MOL0     C15469  -0.309   3.433   6.266  0.6914  0.0690  0.7058
  118MOL0     C15470  -0.353   3.481   6.143 -0.7131  0.3678 -0.6488
  118MOL0     C15471  -0.482   3.452   6.087 -0.6593 -0.5331 -0.7143
  118MOL0     C15472  -0.571   3.364   6.151  0.5996  0.5357 -1.3154
  118MOL0     C15473  -0.708   3.341   6.105 -0.1918 -0.1202  0.6041
  118MOL0     O15474  -0.768   3.221   6.130 -0.0034 -0.7022 -0.0162
  118MOL0     C15475  -0.899   3.193   6.099  0.1404  0.4436 -0.1634
  118MOL0     C15476  -0.921   3.079   6.022 -0.4667 -0.4912 -0.1272
  118MOL0     C15477  -1.052   3.042   5.977  0.1676 -0.2123  0.0811
  118MOL0     C15478  -1.162   3.112   6.021 -0.2666 -0.3159 -1.0671
  118MOL0     O15479  -1.277   3.051   5.985  0.1548  0.7383  0.5407
  118MOL0     C15480  -1.397   3.058   6.070  0.1688  0.2951 -0.2608
  118MOL0     C15481  -1.498   2.946   6.026 -0.6966 -0.8322  0.2175
  118MOL0     C15482  -1.580   2.888   6.151  0.0027  0.8063 -0.1342
  118MOL0     C15483  -1.656   2.759   6.115 -0.3236  0.3188  0.2055
  118MOL0     C15484  -1.765   2.768   6.007  0.5298 -0.1533 -0.2709
  118MOL0     C15485  -1.885   2.859   6.049  0.6457  0.0873 -0.0142
  118MOL0     C15486  -1.991   2.865   5.939 -0.0269  0.1696 -0.5679
  118MOL0     C15487  -2.104   2.954   5.990  0.6340 -0.2340 -0.0760
  118MOL0    Cl15488  -2.237   2.966   5.866 -0.0082  0.2939  0.3727
  118MOL0     C15489  -1.150   3.223   6.100 -0.4790 -0.2078 -0.2257
  118MOL0     C15490  -1.019   3.266   6.125  0.2526  0.8716  0.4095
  118MOL0     O15491  -0.766   3.435   6.050  0.5705 -0.6751  0.3734
  118MOL0     C15492  -0.520   3.317   6.275  0.4975 -0.2529  0.1895
  118MOL0     C15493  -0.398   3.350   6.333 -0.7551  0.7764  0.5268
  118MOL0     N15494   0.410   3.365   6.401  0.1632  0.7232 -0.0692
  118MOL0     N15495   0.497   3.345   6.308 -0.6771 -0.6147 -0.5973
  118MOL0     C15496   1.585   3.652   5.787 -0.1362  0.0425 -0.3699
  118MOL0     C15497   1.711   3.674   5.733 -0.4704  0.3671 -0.5328
  118MOL0     C15498   2.037   3.872   5.500 -0.1649  0.9515  0.0119
  118MOL0     C15499   2.113   3.988   5.501  0.2922  1.0029  0.0399
  118MOL0     C15500   2.231   3.996   5.429 -0.6064  0.5704  0.2773
  118MOL0     C15501   2.283   3.886   5.364  0.1808 -0.4520 -0.3043
  118MOL0     O15502   2.403   3.879   5.300 -0.5025  0.6746 -0.4019
  118MOL0     C15503   2.476   4.007   5.298  0.0659  0.0910 -0.7165
  118MOL0     C15504   2.595   3.967   5.214  0.0699  0.0862 -0.0754
  118MOL0     C15505   2.704   4.070   5.216  0.0512 -1.1831  0.2125
  118MOL0     C15506   2.840   4.020   5.172  0.4880 -0.0468 -0.8217
  118MOL0     C15507   2.919   4.128   5.107 -0.0158  0.2176  0.2752
  118MOL0     C15508   3.001   4.199   5.063  0.5494  0.7890  0.4110
  118MOL0     C15509   2.201   3.772   5.352 -0.2816  0.3231  0.2013
  118MOL0     C15510   2.084   3.764   5.419  0.4190  0.5556 -0.5822
  118MOL0     H15511   1.610   3.805   5.452  0.4541 -3.1911 -2.0463
  118MOL0     H15512   1.382   3.730   5.521  1.1137  0.4043 -2.9447
  118MOL0     H15513   1.310   3.797   5.900 -4.5046  0.2478  1.9070
  118MOL0     H15514   1.375   3.645   5.976 -0.0085  0.5308  1.2970
  118MOL0     H15515   1.138   3.551   5.888  2.4015 -0.1128 -2.8854
  118MOL0     H15516   1.105   3.728   5.874  0.6188  0.5798 -0.3117
  118MOL0     H15517   1.127   3.763   6.109 -1.3235  0.5209 -0.4880
  118MOL0     H15518   1.199   3.598   6.134 -0.4516 -1.6256 -0.2648
  118MOL0     H15519   0.925   3.666   6.032 -0.3967  0.6776  0.9506
  118MOL0     H15520   0.992   3.495   6.052  0.7090  0.0657 -0.6887
  118MOL0     H15521   0.904   3.685   6.266  1.1552  0.6132 -0.7238
  118MOL0     H15522   0.984   3.520   6.285 -1.4055 -1.6726 -0.7166
  118MOL0     H15523   0.752   3.479   6.312  2.0674 -0.8304  0.3321
  118MOL0     H15524   0.830   3.399   6.189 -1.5200 -0.0298 -1.9517
  118MOL0     H15525   0.640   3.647   6.130  0.9282  1.6149 -4.3690
  118MOL0     H15526   0.727   3.558   6.006 -0.6893 -3.0560 -0.0007
  118MOL0     H15527   0.596   3.356   6.071 -0.9360 -0.6406  2.1643
  118MOL0     H15528   0.506   3.488   6.011  2.3537  2.5920 -0.1365
  118MOL0     H15529   0.353   3.614   6.203 -1.8948 -3.7018 -2.3718
  118MOL0     H15530   0.240   3.605   6.497  1.6798 -0.7610  0.6478
  118MOL0     H15531   0.184   3.452   6.544  0.9825 -0.8279 -0.1041
  118MOL0     H15532   0.100   3.630   6.314 -2.4906  1.2980  0.4446
  118MOL0     H15533   0.008   3.552   6.433  0.3571 -0.3425  0.3731
  118MOL0     H15534   0.121   3.409   6.201 -1.8177 -0.7284 -2.5812
  118MOL0     H15535   0.057   3.321   6.347  0.3325  0.2126  0.6228
  118MOL0     H15536  -0.109   3.301   6.211 -0.9732 -0.3446  0.8325
  118MOL0     H15537  -0.090   3.462   6.130  0.5055  1.5509  0.6595
  118MOL0     H15538  -0.295   3.559   6.095 -1.4492  0.3457 -1.6168
  118MOL0     H15539  -0.516   3.509   6.001 -1.1800 -2.6061 -1.9638
  118MOL0     H15540  -0.837   3.020   5.987  0.7431  0.7946  0.5117
  118MOL0     H15541  -1.056   2.955   5.912  1.5272  0.4489 -0.9340
  118MOL0     H15542  -1.457   3.148   6.049 -1.4215 -0.6066  0.2307
  118MOL0     H15543  -1.377   3.044   6.177  1.6385 -0.3071 -0.5986
  118MOL0     H15544  -1.436   2.867   5.984 -0.3143  0.5747 -2.0372
  118MOL0     H15545  -1.568   2.977   5.948 -1.8774  0.2117  1.6397
  118MOL0     H15546  -1.663   2.955   6.176 -0.3890  0.8096 -1.3764
  118MOL0     H15547  -1.515   2.872   6.238 -0.1137  3.3880  0.5204
  118MOL0     H15548  -1.584   2.684   6.081 -1.5912 -0.9042  0.1274
  118MOL0     H15549  -1.705   2.719   6.204 -0.2411  1.5584  0.8340
  118MOL0     H15550  -1.809   2.668   6.015 -0.5547  0.4871  3.6537
  118MOL0     H15551  -1.723   2.805   5.913  2.1247 -2.8593 -0.7344
  118MOL0     H15552  -1.843   2.960   6.055  0.4127  0.4552 -2.9779
  118MOL0     H15553  -1.926   2.830   6.146 -3.0328 -0.4461 -1.5734
  118MOL0     H15554  -1.950   2.905   5.846  0.2235  0.6671 -0.2469
  118MOL0     H15555  -2.033   2.766   5.920 -0.3086  0.9090 -4.6203
  118MOL0     H15556  -2.067   3.056   6.005  1.6849 -0.8903  2.2624
  118MOL0     H15557  -2.142   2.915   6.085 -3.7004  0.2335 -1.3801
  118MOL0     H15558  -1.234   3.282   6.135  0.8632  1.1046  0.9413
  118MOL0     H15559  -0.998   3.362   6.172  2.0982 -0.8988  3.5851
  118MOL0     H15560  -0.584   3.254   6.336 -0.9203  0.3165 -0.6583
  118MOL0     H15561  -0.355   3.296   6.417  2.5095 -1.5935 -2.3796
  118MOL0     H15562   1.572   3.632   5.893  0.9035  2.7153  0.3652
  118MOL0     H15563   1.809   3.662   5.777 -0.5747  3.2402  0.7271
  118MOL0     H15564   2.077   4.070   5.561 -2.9021  2.2598 -3.2360
  118MOL0     H15565   2.286   4.088   5.445 -0.2381 -0.0338  2.9038
  118MOL0     H15566   2.510   4.035   5.398 -2.7908 -1.6166  0.8500
  118MOL0     H15567   2.434   4.091   5.241  0.0797  0.2709 -0.4671
  118MOL0     H15568   2.633   3.870   5.247  1.4765 -0.8971 -3.9680
  118MOL0     H15569   2.559   3.938   5.115  0.3256 -5.6976  1.1504
  118MOL0     H15570   2.704   4.111   5.318 -2.1623  1.5961 -0.7669
  118MOL0     H15571   2.675   4.150   5.147 -0.3193 -0.8767  0.7102
  118MOL0     H15572   2.892   3.981   5.259 -1.1689  0.7581  0.5855
  118MOL0     H15573   2.831   3.940   5.097  0.3325  1.4569 -2.4864
  118MOL0     H15574   3.080   4.248   5.010  0.2448 -0.0465 -0.8333
  118MOL0     H15575   2.226   3.680   5.300 -1.2485 -0.1921  0.6143
  118MOL0     H15576   2.019   3.678   5.412 -1.0111  1.2156  2.6235
  119MOL0     O15577   6.886   4.333   0.356  0.5734 -0.4883 -0.0416
  119MOL0     C15578   6.910   4.449   0.372 -0.3898  0.2969 -0.1649
  119MOL0     O15579   6.828   4.546   0.420  0.0607  0.5723 -0.0039
  119MOL0     C15580   6.707   4.504   0.475  0.8499  0.5304  0.6058
  119MOL0     C15581   6.677   4.386   0.542  0.3671  0.3529 -0.1276
  119MOL0     C15582   6.546   4.349   0.577  0.4552 -0.7574 -0.3757
  119MOL0     C15583   6.439   4.456   0.568 -0.2734  0.7044  0.2060
  119MOL0     O15584   6.306   4.430   0.599 -0.3776 -1.0710 -0.1637
  119MOL0     C15585   6.278   4.303   0.645  1.0791 -1.0397 -0.4653
  119MOL0     C15586   6.132   4.280   0.672  0.6554  0.2233 -0.5023
  119MOL0     C15587   6.045   4.328   0.557  0.2903 -0.0142  0.1403
  119MOL0     C15588   5.895   4.303   0.588  0.3405  0.3294 -0.2704
  119MOL0     C15589   5.803   4.375   0.491 -0.1594  0.7364 -0.3849
  119MOL0     C15590   5.805   4.300   0.364 -0.1735  0.6993 -0.2129
  119MOL0     C15591   5.745   4.362   0.236  0.0388 -0.0852 -0.2761
  119MOL0     C15592   5.614   4.446   0.259  0.2294  0.3141 -0.5022
  119MOL0     N15593   5.521   4.374   0.346 -0.0208  0.3319 -0.6431
  119MOL0     C15594   5.466   4.255   0.326  0.5579  0.2989 -0.3566
  119MOL0     C15595   5.374   4.244   0.424  0.9657 -0.0724  0.6261
  119MOL0     C15596   5.268   4.133   0.433  0.4024 -1.6668 -0.1854
  119MOL0     C15597   5.132   4.205   0.454  0.3945 -0.4248  0.2012
  119MOL0     C15598   5.058   4.195   0.323 -0.0393 -1.1010  0.0717
  119MOL0     C15599   4.919   4.258   0.355  0.8330  0.0353  0.4037
  119MOL0     O15600   4.837   4.192   0.260  0.5115  0.5199  0.0562
  119MOL0     C15601   4.703   4.201   0.264  0.1043 -0.3553 -0.1882
  119MOL0     C15602   4.619   4.138   0.168  0.0905  0.0313  0.0024
  119MOL0     C15603   4.481   4.147   0.172  0.4912 -0.2539  0.3695
  119MOL0     C15604   4.415   4.209   0.280 -0.7366 -0.9286 -0.0958
  119MOL0     C15605   4.264   4.235   0.273 -1.0549  0.2534 -1.2657
  119MOL0     O15606   4.196   4.231   0.388  0.1954 -0.2375 -0.1864
  119MOL0     C15607   4.061   4.229   0.380  0.0429  0.5415 -0.1185
  119MOL0     C15608   3.987   4.345   0.335  0.3328 -0.6864  0.0452
  119MOL0     C15609   3.843   4.354   0.344 -0.2712  0.2614  0.5527
  119MOL0     C15610   3.772   4.243   0.392  1.0719  0.4349  0.2960
  119MOL0     O15611   3.630   4.241   0.406  0.0160  0.0448 -0.2258
  119MOL0     C15612   3.556   4.336   0.336  0.3429  0.0257 -0.1449
  119MOL0     C15613   3.401   4.313   0.340  0.9654 -0.6760 -0.0077
  119MOL0     C15614   3.369   4.178   0.291  0.3281 -0.4542  0.3449
  119MOL0     C15615   3.217   4.162   0.273 -1.2617  0.4243  0.5420
  119MOL0     C15616   3.163   4.257   0.165 -0.0212 -0.4702  0.4118
  119MOL0     C15617   3.012   4.214   0.136 -0.8929  0.6781  0.4216
  119MOL0     C15618   2.968   4.291   0.014 -0.5428  0.2443  0.6615
  119MOL0     C15619   2.822   4.249  -0.032  0.5507  0.2938  0.1701
  119MOL0    Cl15620   2.809   4.083  -0.069 -0.1549  0.3515 -0.3661
  119MOL0     C15621   3.845   4.124   0.423  0.6246 -0.2410  0.5492
  119MOL0     C15622   3.984   4.119   0.427  0.1772  0.2555  0.7442
  119MOL0     O15623   4.212   4.258   0.162  0.4479  0.1654  0.5069
  119MOL0     C15624   4.496   4.268   0.380  0.7504  0.2090 -0.1535
  119MOL0     C15625   4.634   4.262   0.368  0.0391 -1.1161  0.3463
  119MOL0     N15626   5.393   4.348   0.510 -0.1999 -0.0253 -0.7111
  119MOL0     N15627   5.465   4.438   0.452  0.7843  0.0846 -0.0570
  119MOL0     C15628   6.479   4.584   0.538  0.2455  0.4045  0.7313
  119MOL0     C15629   6.612   4.606   0.488  0.9861 -0.1279 -0.1276
  119MOL0     C15630   7.047   4.492   0.334  0.1404 -1.2391 -0.0811
  119MOL0     C15631   7.109   4.459   0.211 -0.2107 -0.0383  0.2804
  119MOL0     C15632   7.244   4.506   0.181  0.4432 -0.1959 -0.8415
  119MOL0     C15633   7.307   4.582   0.274 -0.0029  0.5164  0.2231
  119MOL0     O15634   7.430   4.615   0.228 -0.1041  0.8234 -1.0309
  119MOL0     C15635   7.511   4.712   0.299 -0.1542  0.2170 -0.2805
  119MOL0     C15636   7.604   4.654   0.407  0.2339 -0.6179 -0.8792
  119MOL0     C15637   7.732   4.744   0.424 -0.0290  0.0554  0.1250
  119MOL0     C15638   7.816   4.758   0.300 -0.6465  0.3464 -0.0426
  119MOL0     C15639   7.911   4.870   0.304 -0.6122 -0.4150  0.6497
  119MOL0     C15640   7.985   4.965   0.311  0.1167 -0.1495  0.3090
  119MOL0     C15641   7.243   4.623   0.396  0.9109  0.1276  0.7068
  119MOL0     C15642   7.116   4.580   0.422  0.6473  0.2794  0.5028
  119MOL0     H15643   6.754   4.310   0.538 -0.0136  0.0046 -1.2834
  119MOL0     H15644   6.538   4.245   0.605 -0.0628  0.1048  3.1746
  119MOL0     H15645   6.317   4.309   0.747 -3.3736  0.4776  1.4362
  119MOL0     H15646   6.314   4.221   0.583 -2.8534 -3.1398 -0.2904
  119MOL0     H15647   6.106   4.328   0.766 -1.2361 -1.8042  0.0967
  119MOL0     H15648   6.117   4.174   0.696  3.4069  0.2060  1.7134
  119MOL0     H15649   6.071   4.271   0.467 -0.9329  2.5261 -1.9678
  119MOL0     H15650   6.054   4.436   0.556 -1.5242  0.1784  0.2676
  119MOL0     H15651   5.867   4.199   0.606 -1.2070  0.5680 -1.1110
  119MOL0     H15652   5.876   4.351   0.685 -0.8120  0.9062 -0.7594
  119MOL0     H15653   5.833   4.479   0.474  0.6077  0.5130 -0.4494
  119MOL0     H15654   5.703   4.369   0.534  0.0746 -2.3434 -0.0240
  119MOL0     H15655   5.757   4.202   0.377  0.7902  0.4311  1.6384
  119MOL0     H15656   5.911   4.281   0.346  0.6953  2.7553  2.1254
  119MOL0     H15657   5.824   4.414   0.182  1.2990 -0.9073  0.6915
  119MOL0     H15658   5.722   4.283   0.164 -0.6180  2.4113 -2.9648
  119MOL0     H15659   5.571   4.466   0.160  0.0836 -0.4786 -0.6093
  119MOL0     H15660   5.637   4.537   0.314  0.2472  0.0830 -0.1162
  119MOL0     H15661   5.471   4.183   0.244  0.4799  0.9580 -0.9435
  119MOL0     H15662   5.271   4.079   0.528  0.2489  0.9321  1.4039
  119MOL0     H15663   5.268   4.063   0.350  0.6913 -1.7323 -0.1331
  119MOL0     H15664   5.137   4.310   0.482  1.7540 -0.3197 -0.3400
  119MOL0     H15665   5.087   4.143   0.532 -0.7706  0.3105  0.1330
  119MOL0     H15666   5.093   4.256   0.240  1.1371  0.8024  1.8752
  119MOL0     H15667   5.051   4.089   0.297  0.4257 -0.2064 -4.3991
  119MOL0     H15668   4.928   4.367   0.356  1.8128 -0.0346  0.4060
  119MOL0     H15669   4.886   4.215   0.450  2.0864 -2.2167 -0.1050
  119MOL0     H15670   4.676   4.089   0.090  0.9012 -1.1001  1.2632
  119MOL0     H15671   4.426   4.125   0.081  2.5981  0.4509 -1.1410
  119MOL0     H15672   4.038   4.431   0.293 -1.9481  0.5059 -0.4529
  119MOL0     H15673   3.796   4.440   0.298  0.5962 -0.8561 -2.7568
  119MOL0     H15674   3.578   4.334   0.229 -0.5910 -1.3257 -0.3506
  119MOL0     H15675   3.570   4.438   0.373  2.4193 -0.0640 -0.5806
  119MOL0     H15676   3.359   4.388   0.272  0.1866 -1.0959  0.0096
  119MOL0     H15677   3.365   4.330   0.441 -0.4207 -1.2300 -0.3868
  119MOL0     H15678   3.407   4.113   0.371  1.1158 -1.2087 -0.6199
  119MOL0     H15679   3.420   4.150   0.199  0.2333 -3.7452  1.1651
  119MOL0     H15680   3.218   4.060   0.234  3.1342  1.3733 -2.4718
  119MOL0     H15681   3.170   4.174   0.371  0.6180  0.3758  1.5001
  119MOL0     H15682   3.227   4.254   0.076  0.7069 -0.8718  0.9411
  119MOL0     H15683   3.152   4.361   0.196 -3.6600 -1.2450  2.2811
  119MOL0     H15684   2.938   4.227   0.215 -0.3137 -3.5760  1.9245
  119MOL0     H15685   3.017   4.109   0.104 -2.3874  0.7200 -0.0053
  119MOL0     H15686   2.965   4.397   0.039 -2.2448  0.6630 -1.0812
  119MOL0     H15687   3.036   4.290  -0.073 -1.4455 -2.0812 -0.0878
  119MOL0     H15688   2.780   4.307  -0.114  0.1350  2.1093  1.6222
  119MOL0     H15689   2.755   4.261   0.053 -1.5636 -0.4646 -1.3241
  119MOL0     H15690   3.789   4.035   0.449 -0.9656  0.0888 -1.4874
  119MOL0     H15691   4.053   4.044   0.463  0.7446 -0.4625 -1.6907
  119MOL0     H15692   4.435   4.313   0.457  1.9361  0.1549  0.8386
  119MOL0     H15693   4.690   4.325   0.437  0.9695 -1.1620 -0.3504
  119MOL0     H15694   6.413   4.671   0.539  1.1218  1.2328  4.6447
  119MOL0     H15695   6.638   4.704   0.448 -0.5668  0.4418  0.1854
  119MOL0     H15696   7.049   4.404   0.139 -2.1096  0.0809  1.7063
  119MOL0     H15697   7.284   4.485   0.082 -1.6765 -0.5555 -1.6671
  119MOL0     H15698   7.440   4.782   0.342 -1.3324  0.8790 -3.0524
  119MOL0     H15699   7.564   4.767   0.221  1.0364 -2.2408 -1.3391
  119MOL0     H15700   7.545   4.651   0.499 -0.6013 -0.0871 -1.3831
  119MOL0     H15701   7.628   4.550   0.382  0.8761 -0.3492 -1.4211
  119MOL0     H15702   7.788   4.713   0.513 -1.0774 -0.1341  0.7340
  119MOL0     H15703   7.700   4.842   0.458 -1.8772 -1.9632  5.1317
  119MOL0     H15704   7.881   4.670   0.291  0.1575  0.6607  2.0826
  119MOL0     H15705   7.763   4.760   0.204 -0.5798  1.8085 -0.0634
  119MOL0     H15706   8.040   5.057   0.321 -1.1844  0.8349 -1.2569
  119MOL0     H15707   7.292   4.687   0.469  1.2170  1.1475 -0.3684
  119MOL0     H15708   7.071   4.618   0.513  0.3932  0.7539  0.1846
  120MOL0     O15709   3.503   2.714   7.983  0.1015  0.0578 -0.3616
  120MOL0     C15710   3.508   2.672   7.872 -0.6099  0.4582 -0.7950
  120MOL0     O15711   3.404   2.638   7.790 -0.4473  0.1114 -0.4115
  120MOL0     C15712   3.277   2.651   7.843 -0.8209 -0.3646  0.2435
  120MOL0     C15713   3.190   2.725   7.761 -0.4527 -0.0502 -0.1380
  120MOL0     C15714   3.062   2.755   7.809 -0.1837 -0.7729  0.0567
  120MOL0     C15715   3.024   2.705   7.935 -1.2506 -0.3419 -0.0700
  120MOL0     O15716   2.887   2.737   7.962  0.4418 -0.4852 -0.4476
  120MOL0     C15717   2.819   2.682   8.085  0.0879 -0.0383  0.8050
  120MOL0     C15718   2.688   2.758   8.088 -0.2369  0.5789 -0.2525
  120MOL0     C15719   2.585   2.680   8.167  0.3091  1.1337 -0.3184
  120MOL0     C15720   2.476   2.768   8.221 -0.4727 -0.1177 -0.8660
  120MOL0     C15721   2.382   2.667   8.293 -0.2417  0.2854 -0.0231
  120MOL0     C15722   2.321   2.718   8.414  0.1533 -0.2285  0.2818
  120MOL0     C15723   2.333   2.611   8.536  0.3927 -1.5561  1.1384
  120MOL0     C15724   2.281   2.669   8.665 -0.7649  0.8903 -0.1120
  120MOL0     N15725   2.134   2.665   8.680 -0.3709 -0.5417  0.6213
  120MOL0     C15726   2.039   2.770   8.674 -1.2441  0.1996 -0.7688
  120MOL0     C15727   1.920   2.717   8.670  0.1376  1.3882  0.4948
  120MOL0     C15728   1.789   2.799   8.668  0.1633 -0.4323 -0.0841
  120MOL0     C15729   1.666   2.713   8.676 -0.3321 -0.6509  0.2057
  120MOL0     C15730   1.555   2.822   8.690  0.6655 -0.5268 -0.1990
  120MOL0     C15731   1.420   2.774   8.739  0.2990  1.1943  0.0027
  120MOL0     O15732   1.372   2.660   8.655  0.2250 -0.4256 -0.7327
  120MOL0     C15733   1.276   2.576   8.706  0.1587  0.4251  0.2525
  120MOL0     C15734   1.244   2.557   8.836 -0.3794 -0.2788  0.2810
  120MOL0     C15735   1.145   2.465   8.878 -0.5009 -0.2929 -0.2460
  120MOL0     C15736   1.066   2.399   8.787  0.5333 -0.6891  0.3872
  120MOL0     C15737   0.933   2.340   8.819 -0.7323  0.4329  0.4230
  120MOL0     O15738   0.895   2.346   8.951  0.2607  0.2970  0.3253
  120MOL0     C15739   0.761   2.303   8.979  0.1686  0.1835  1.3137
  120MOL0     C15740   0.650   2.392   8.947  0.2331  0.6740 -0.4194
  120MOL0     C15741   0.522   2.355   8.976 -0.1462 -0.1174  0.8284
  120MOL0     C15742   0.500   2.231   9.041  0.5383  0.5035 -0.0133
  120MOL0     O15743   0.374   2.188   9.083 -0.0706  0.0931 -0.2478
  120MOL0     C15744   0.253   2.256   9.065 -0.5419  0.2746 -0.2383
  120MOL0     C15745   0.131   2.172   9.112  0.6241 -1.0991  0.2187
  120MOL0     C15746   0.005   2.249   9.056 -0.2500  0.4576  1.1328
  120MOL0     C15747  -0.124   2.177   9.108 -0.9418 -0.0084 -0.0482
  120MOL0     C15748  -0.246   2.235   9.038 -0.2217 -0.9572  0.5195
  120MOL0     C15749  -0.364   2.178   9.106  0.0839 -0.2782 -0.8043
  120MOL0     C15750  -0.482   2.180   9.015  0.2170  0.3708  0.3117
  120MOL0     C15751  -0.598   2.086   9.075  0.9422  0.0144  0.0988
  120MOL0    Cl15752  -0.716   2.032   8.948  0.2185  0.3369 -0.3691
  120MOL0     C15753   0.606   2.146   9.069  0.8732 -0.1829 -0.5129
  120MOL0     C15754   0.735   2.176   9.038 -1.0133  0.3392  0.6527
  120MOL0     O15755   0.864   2.309   8.722 -0.3070 -0.3067  1.1339
  120MOL0     C15756   1.117   2.399   8.651  0.2110 -0.0404  0.5037
  120MOL0     C15757   1.214   2.494   8.614  0.7577 -0.3820 -0.9030
  120MOL0     N15758   1.942   2.578   8.666 -0.0600  1.3235  0.7021
  120MOL0     N15759   2.068   2.555   8.677  0.4939 -0.0919  0.0756
  120MOL0     C15760   3.110   2.631   8.012  0.9966 -0.5470  0.3784
  120MOL0     C15761   3.235   2.597   7.965 -0.4075 -0.1442  0.0717
  120MOL0     C15762   3.631   2.633   7.808  0.0926 -0.2027 -0.0498
  120MOL0     C15763   3.641   2.561   7.689 -0.3739  0.5269 -0.3570
  120MOL0     C15764   3.759   2.540   7.624 -0.1721  0.1911  0.5746
  120MOL0     C15765   3.879   2.581   7.678  0.5479  0.3660  0.3608
  120MOL0     O15766   4.005   2.561   7.626 -0.3664  0.2176 -0.6823
  120MOL0     C15767   4.029   2.530   7.493 -0.2884 -0.7828 -0.1087
  120MOL0     C15768   4.130   2.420   7.497 -0.2947  0.2064  0.6114
  120MOL0     C15769   4.184   2.372   7.360 -0.6050  0.4661  0.9101
  120MOL0     C15770   4.267   2.241   7.379 -0.9329  0.0058  0.9722
  120MOL0     C15771   4.380   2.265   7.456  0.6484  0.5770 -0.4991
  120MOL0     C15772   4.478   2.287   7.529 -0.1590 -0.1004  0.1284
  120MOL0     C15773   3.871   2.648   7.797  0.3707 -0.5949 -0.2829
  120MOL0     C15774   3.754   2.680   7.861  0.3843  0.3260  0.4289
  120MOL0     H15775   3.222   2.758   7.662  1.5022 -1.0286  0.1280
  120MOL0     H15776   2.987   2.812   7.755 -2.4817 -2.4807  1.2581
  120MOL0     H15777   2.881   2.696   8.174 -1.2294 -0.2378  1.7873
  120MOL0     H15778   2.800   2.577   8.058  2.8467 -0.1283 -1.2440
  120MOL0     H15779   2.653   2.770   7.985  0.6609 -0.2655 -0.6665
  120MOL0     H15780   2.702   2.854   8.138 -0.2743 -0.3000  1.5327
  120MOL0     H15781   2.632   2.638   8.256 -0.2043  0.5573 -0.3167
  120MOL0     H15782   2.542   2.603   8.103  2.8550 -1.7375  1.2000
  120MOL0     H15783   2.518   2.838   8.295 -0.4305  1.9225 -2.7114
  120MOL0     H15784   2.429   2.824   8.140 -1.8912 -0.4124 -0.2866
  120MOL0     H15785   2.436   2.574   8.313 -0.8203 -0.0483  0.0045
  120MOL0     H15786   2.302   2.643   8.223  1.2426 -1.3779 -1.2256
  120MOL0     H15787   2.220   2.740   8.378  0.1253 -1.2329 -0.2962
  120MOL0     H15788   2.361   2.815   8.443  0.7007 -0.3361 -0.1057
  120MOL0     H15789   2.294   2.513   8.509  0.9376 -0.8616 -2.6222
  120MOL0     H15790   2.442   2.602   8.541  0.7192  0.5103 -0.7397
  120MOL0     H15791   2.321   2.770   8.682  1.3021 -0.0266  0.8657
  120MOL0     H15792   2.321   2.605   8.744 -3.0205 -0.2252  0.2119
  120MOL0     H15793   2.052   2.877   8.662  0.1364 -0.1864 -3.6459
  120MOL0     H15794   1.785   2.869   8.584  0.7592  0.7673  0.8508
  120MOL0     H15795   1.793   2.858   8.760  1.0049 -0.6104  0.0073
  120MOL0     H15796   1.665   2.642   8.760 -4.0817 -0.6543  0.3428
  120MOL0     H15797   1.661   2.654   8.584  0.1832  0.7185 -0.7372
  120MOL0     H15798   1.585   2.906   8.754  1.6350 -1.4896  0.6632
  120MOL0     H15799   1.536   2.861   8.590  4.6485 -0.4088 -1.0775
  120MOL0     H15800   1.355   2.861   8.722 -0.7830  0.7767  1.7037
  120MOL0     H15801   1.430   2.748   8.845  1.8057  0.4892 -0.2880
  120MOL0     H15802   1.279   2.620   8.917 -1.0019  0.1199  0.2418
  120MOL0     H15803   1.125   2.469   8.985  4.1880  3.1639  0.8390
  120MOL0     H15804   0.671   2.486   8.896 -0.0631 -1.1798 -4.4134
  120MOL0     H15805   0.445   2.429   8.957  2.2390  1.5993 -3.4994
  120MOL0     H15806   0.254   2.278   8.958 -0.7468 -0.2646 -0.3554
  120MOL0     H15807   0.247   2.349   9.120 -3.9162 -0.2618  0.4711
  120MOL0     H15808   0.114   2.188   9.219 -1.4043 -3.1155  0.2628
  120MOL0     H15809   0.139   2.066   9.086 -0.6569 -1.1770  0.0747
  120MOL0     H15810   0.013   2.253   8.947  1.4253 -0.2188  1.2007
  120MOL0     H15811   0.003   2.352   9.092  1.6544  0.4281  1.4643
  120MOL0     H15812  -0.105   2.071   9.090  0.6915 -0.1774  2.2075
  120MOL0     H15813  -0.145   2.178   9.216 -1.2075 -2.2460 -0.0262
  120MOL0     H15814  -0.244   2.211   8.931  0.1303  1.4405 -0.0936
  120MOL0     H15815  -0.251   2.344   9.048 -1.0481 -1.0682  1.4863
  120MOL0     H15816  -0.394   2.233   9.196 -2.9136 -2.3065 -0.4060
  120MOL0     H15817  -0.332   2.079   9.140  1.4318 -0.1113 -1.5117
  120MOL0     H15818  -0.523   2.281   9.006 -0.0751  0.0988 -1.9190
  120MOL0     H15819  -0.450   2.141   8.918  2.8025 -1.6371  1.8395
  120MOL0     H15820  -0.658   2.125   9.158  0.1240 -2.6572  0.8666
  120MOL0     H15821  -0.558   1.989   9.104  1.7347 -0.3599 -2.0393
  120MOL0     H15822   0.592   2.044   9.104 -1.8590 -0.2775 -1.6095
  120MOL0     H15823   0.810   2.100   9.060  0.3313  1.6052  0.6268
  120MOL0     H15824   1.068   2.354   8.566 -3.1093  3.3312  0.4000
  120MOL0     H15825   1.242   2.498   8.509  0.2495 -1.3049 -1.0866
  120MOL0     H15826   3.072   2.579   8.100 -1.8358 -0.0193 -0.4353
  120MOL0     H15827   3.301   2.535   8.025 -2.0712 -0.0061  2.1364
  120MOL0     H15828   3.553   2.506   7.657 -1.4842  0.3035  2.7007
  120MOL0     H15829   3.754   2.491   7.527  0.0230 -2.4129  1.8197
  120MOL0     H15830   4.080   2.615   7.446  0.9495 -1.0635  0.6607
  120MOL0     H15831   3.937   2.507   7.439 -0.2894 -2.2655  0.4951
  120MOL0     H15832   4.216   2.467   7.546  2.1276 -1.0557 -2.1424
  120MOL0     H15833   4.106   2.336   7.563 -1.3044  0.2543  0.3199
  120MOL0     H15834   4.243   2.453   7.316  0.3012 -1.2520 -1.1606
  120MOL0     H15835   4.112   2.349   7.281 -2.1707  0.4742  2.2838
  120MOL0     H15836   4.213   2.153   7.416  1.6092 -1.3729  1.6603
  120MOL0     H15837   4.309   2.224   7.279 -1.4222 -2.8023  1.1717
  120MOL0     H15838   4.557   2.294   7.601 -1.0282 -0.0256  1.0974
  120MOL0     H15839   3.963   2.670   7.850  1.3875 -0.2495 -2.0934
  120MOL0     H15840   3.758   2.721   7.961 -0.1488  4.2832 -0.9768
  121MOL0     O15841  10.096   8.328   8.730 -0.2780  0.3237  0.0563
  121MOL0     C15842  10.186   8.316   8.820  0.4386 -0.3870  0.5710
  121MOL0     O15843  10.162   8.277   8.951 -0.1289 -0.2850  0.5050
  121MOL0     C15844  10.048   8.239   8.993  0.8045  0.5019  0.4089
  121MOL0     C15845   9.998   8.108   8.966  0.0682 -0.0704  0.7368
  121MOL0     C15846   9.881   8.065   9.023 -0.3770 -0.6058 -0.4149
  121MOL0     C15847   9.810   8.140   9.113 -0.8645  0.4962 -0.8128
  121MOL0     O15848   9.705   8.098   9.189 -0.3260  1.1326  1.2280
  121MOL0     C15849   9.665   7.967   9.156  0.8768  0.5633 -0.3068
  121MOL0     C15850   9.539   7.945   9.237  0.1406  0.2233  0.0276
  121MOL0     C15851   9.408   8.021   9.180  0.3621 -1.0642 -0.5124
  121MOL0     C15852   9.307   8.055   9.295 -1.1527 -0.4042 -1.0105
  121MOL0     C15853   9.180   8.112   9.238  0.6001 -0.1972 -0.0261
  121MOL0     C15854   9.097   8.168   9.362 -0.5317  0.0448  0.0885
  121MOL0     C15855   8.955   8.213   9.319 -0.1759  1.1079  0.4549
  121MOL0     C15856   8.878   8.285   9.423 -0.0804  0.5664 -0.6444
  121MOL0     N15857   8.768   8.356   9.363  0.8476 -0.5018 -0.6293
  121MOL0     C15858   8.648   8.306   9.352  0.3095 -0.7628 -1.2185
  121MOL0     C15859   8.564   8.409   9.323  0.3854 -0.0456 -0.1056
  121MOL0     C15860   8.413   8.414   9.296 -0.8856  0.2673  0.2756
  121MOL0     C15861   8.364   8.549   9.225  1.0094 -0.1906 -0.3241
  121MOL0     C15862   8.209   8.560   9.199  0.1329 -0.2624  0.6401
  121MOL0     C15863   8.157   8.687   9.136  1.0926 -0.7245  0.9766
  121MOL0     O15864   8.018   8.699   9.178  0.0323 -0.2286 -0.3602
  121MOL0     C15865   7.948   8.814   9.138 -0.6073 -0.1595  0.1965
  121MOL0     C15866   7.815   8.815   9.165  0.2774 -0.3088 -0.0397
  121MOL0     C15867   7.742   8.939   9.167  0.0741  0.1434  0.1531
  121MOL0     C15868   7.811   9.059   9.127  0.1368 -0.1674  0.2517
  121MOL0     C15869   7.736   9.191   9.115 -0.2255 -0.1481  0.8187
  121MOL0     O15870   7.604   9.205   9.150 -0.5249 -0.7928 -0.2070
  121MOL0     C15871   7.543   9.313   9.110  0.3951  0.2439 -0.3201
  121MOL0     C15872   7.482   9.400   9.205  0.5165 -0.8710  0.6436
  121MOL0     C15873   7.417   9.519   9.172  0.1449 -0.1571 -0.4229
  121MOL0     C15874   7.429   9.565   9.040  0.1571  0.5691 -0.1850
  121MOL0     O15875   7.381   9.693   8.988  0.2026 -0.4916 -0.3211
  121MOL0     C15876   7.298   9.770   9.067 -0.0137 -0.7451 -0.0431
  121MOL0     C15877   7.158   9.712   9.061 -0.3448 -0.2193  0.6932
  121MOL0     C15878   7.070   9.767   9.165 -0.7146 -0.1687  0.7789
  121MOL0     C15879   6.927   9.716   9.131 -0.2040 -0.3341  0.4588
  121MOL0     C15880   6.836   9.802   9.218  0.8039  0.1832 -0.1164
  121MOL0     C15881   6.694   9.763   9.199  0.0230 -0.7412  0.2921
  121MOL0     C15882   6.606   9.814   9.326 -0.0403  0.0993  0.8242
  121MOL0     C15883   6.463   9.769   9.296 -0.2163 -0.3357 -0.3461
  121MOL0    Cl15884   6.460   9.593   9.288  0.4935 -0.0173 -0.6750
  121MOL0     C15885   7.485   9.473   8.944  0.5424 -0.3099 -1.0700
  121MOL0     C15886   7.542   9.350   8.978 -0.4689  0.3024 -0.1055
  121MOL0     O15887   7.804   9.289   9.090  0.4250 -0.1520 -0.6804
  121MOL0     C15888   7.941   9.049   9.087  0.0455  0.6131 -0.1590
  121MOL0     C15889   8.014   8.935   9.098 -0.7925 -0.5570 -0.5770
  121MOL0     N15890   8.649   8.516   9.313 -0.8387 -0.5201 -0.1123
  121MOL0     N15891   8.775   8.484   9.323 -0.2503  0.4040 -0.6675
  121MOL0     C15892   9.847   8.270   9.142 -0.2812 -0.5448 -0.1374
  121MOL0     C15893   9.970   8.317   9.078  1.3264  0.0917  0.1279
  121MOL0     C15894  10.332   8.346   8.779 -0.0154 -0.3415 -0.6201
  121MOL0     C15895  10.348   8.432   8.670 -0.8048 -0.5163  0.6154
  121MOL0     C15896  10.484   8.460   8.633  0.3042 -0.1244 -1.0050
  121MOL0     C15897  10.595   8.417   8.704 -0.8883  0.1162  0.2192
  121MOL0     O15898  10.729   8.458   8.659  0.3030  0.4701  0.2617
  121MOL0     C15899  10.840   8.378   8.704 -0.6882  0.1567  0.6069
  121MOL0     C15900  10.962   8.449   8.648  0.7422 -0.3797 -0.7208
  121MOL0     C15901  11.089   8.408   8.727  0.1356  0.3755 -0.9270
  121MOL0     C15902  11.202   8.508   8.685  0.2575  0.3090 -0.3469
  121MOL0     C15903  11.203   8.635   8.756 -0.6857 -0.0675 -0.0850
  121MOL0     C15904  11.237   8.739   8.800 -1.2282 -0.1531  0.1136
  121MOL0     C15905  10.576   8.330   8.814  0.1769 -0.0886 -0.2782
  121MOL0     C15906  10.442   8.310   8.859  0.7406  0.3000  0.3809
  121MOL0     H15907  10.045   8.034   8.902 -1.2832  1.1147 -1.7928
  121MOL0     H15908   9.853   7.962   9.006  0.5664 -1.1003  0.8636
  121MOL0     H15909   9.734   7.884   9.175  0.6237  0.0075 -1.6376
  121MOL0     H15910   9.642   7.960   9.049  2.8048 -1.9263 -0.6624
  121MOL0     H15911   9.551   7.982   9.339 -1.4808  4.1049 -1.0026
  121MOL0     H15912   9.523   7.837   9.244 -0.3076 -0.0250 -3.2323
  121MOL0     H15913   9.353   7.959   9.109  0.1197 -0.4078 -0.9120
  121MOL0     H15914   9.431   8.114   9.127  0.3385 -0.0268  1.2182
  121MOL0     H15915   9.280   7.963   9.348 -3.2510  0.8940  0.3163
  121MOL0     H15916   9.359   8.121   9.365 -0.2376  0.4271 -2.4106
  121MOL0     H15917   9.127   8.030   9.189 -0.9215 -1.0237  2.7593
  121MOL0     H15918   9.202   8.190   9.164  0.4875 -2.0867 -2.1567
  121MOL0     H15919   9.149   8.252   9.409 -1.0111 -1.8076  4.3751
  121MOL0     H15920   9.091   8.091   9.440 -0.2707 -0.9211 -0.8161
  121MOL0     H15921   8.970   8.277   9.231 -1.5540  0.5357 -0.2278
  121MOL0     H15922   8.899   8.126   9.284  0.8300  1.2737 -1.7358
  121MOL0     H15923   8.946   8.359   9.466  0.1944 -0.1165  0.1426
  121MOL0     H15924   8.833   8.215   9.494  0.6767  0.4983 -0.2200
  121MOL0     H15925   8.601   8.215   9.387  1.3296 -1.8563 -2.5370
  121MOL0     H15926   8.372   8.391   9.395 -0.2093 -1.2355  0.2371
  121MOL0     H15927   8.386   8.328   9.235 -2.5719  1.4539 -0.7363
  121MOL0     H15928   8.401   8.566   9.124 -4.2367 -0.4181 -2.5956
  121MOL0     H15929   8.396   8.631   9.290 -0.7957 -0.0941  0.4845
  121MOL0     H15930   8.182   8.471   9.141 -0.2590  1.8485 -2.7021
  121MOL0     H15931   8.160   8.562   9.296  0.6878 -0.9281  0.9432
  121MOL0     H15932   8.145   8.680   9.028 -0.0687 -2.3892  1.1754
  121MOL0     H15933   8.208   8.778   9.170 -3.5012  1.0053  4.1877
  121MOL0     H15934   7.762   8.721   9.177  0.4041 -0.7301 -2.3808
  121MOL0     H15935   7.638   8.938   9.200 -1.5394  0.2539 -4.2671
  121MOL0     H15936   7.486   9.381   9.311 -2.2992  1.3713  1.2826
  121MOL0     H15937   7.366   9.567   9.255  0.2597 -1.6983  0.5801
  121MOL0     H15938   7.295   9.874   9.034 -0.6294  0.3621  3.1402
  121MOL0     H15939   7.337   9.781   9.169  0.8957 -0.6121 -0.3910
  121MOL0     H15940   7.146   9.603   9.068 -0.7626 -0.2062  0.2927
  121MOL0     H15941   7.113   9.727   8.962  0.1538 -0.6890  0.3874
  121MOL0     H15942   7.077   9.876   9.162 -0.4106 -0.1936 -1.8601
  121MOL0     H15943   7.106   9.728   9.261  0.1244 -0.8739  0.2007
  121MOL0     H15944   6.889   9.730   9.030 -0.3750  1.5736  0.7539
  121MOL0     H15945   6.918   9.609   9.155 -0.8239  0.3124  3.6707
  121MOL0     H15946   6.830   9.905   9.182 -3.6134  0.2422  0.3028
  121MOL0     H15947   6.874   9.794   9.320  0.6567 -1.4732 -0.1680
  121MOL0     H15948   6.689   9.654   9.205  0.2519 -0.7065  1.2161
  121MOL0     H15949   6.657   9.814   9.109 -0.7125 -0.8281  0.5318
  121MOL0     H15950   6.641   9.781   9.424  0.8823  0.0967  0.5115
  121MOL0     H15951   6.601   9.923   9.320  2.2727  0.2034 -0.6008
  121MOL0     H15952   6.442   9.815   9.199  0.8316  1.3865  0.1825
  121MOL0     H15953   6.398   9.808   9.376  1.9100  0.6692  0.9758
  121MOL0     H15954   7.499   9.520   8.847 -0.8709  0.9453 -0.7011
  121MOL0     H15955   7.583   9.283   8.902  0.0059  1.2119 -0.6761
  121MOL0     H15956   7.993   9.134   9.046  0.3827  1.3731  1.7420
  121MOL0     H15957   8.120   8.930   9.073 -0.8691 -2.6006 -0.6539
  121MOL0     H15958   9.798   8.338   9.211  0.4845  1.0008 -1.0310
  121MOL0     H15959   9.991   8.422   9.096 -0.6890  0.7950 -1.1946
  121MOL0     H15960  10.261   8.457   8.610 -0.9719 -2.6539 -0.1420
  121MOL0     H15961  10.512   8.527   8.552 -0.6306 -0.2282 -1.4257
  121MOL0     H15962  10.839   8.278   8.661  2.5102 -2.2401  5.2339
  121MOL0     H15963  10.865   8.370   8.810  1.7457 -1.4503 -0.0241
  121MOL0     H15964  10.982   8.437   8.542  1.4747  1.0556 -0.7728
  121MOL0     H15965  10.950   8.556   8.667 -0.8707 -0.4788 -1.0660
  121MOL0     H15966  11.118   8.305   8.705 -1.5710 -0.5498  0.8803
  121MOL0     H15967  11.071   8.416   8.834 -1.6102  2.5810 -1.2982
  121MOL0     H15968  11.293   8.448   8.689 -0.4876 -1.2084 -3.2258
  121MOL0     H15969  11.186   8.517   8.578  2.2899  2.0806 -0.5454
  121MOL0     H15970  11.283   8.827   8.841  1.2521 -1.1864 -0.2199
  121MOL0     H15971  10.664   8.300   8.870  1.6524  0.9460 -1.9089
  121MOL0     H15972  10.435   8.243   8.945  1.3890  0.4058  0.5234
  122MOL0     O15973   7.525   3.741   6.476  0.1335 -0.2321  0.0080
  122MOL0     C15974   7.609   3.810   6.529 -0.6490  0.1025  0.2399
  122MOL0     O15975   7.595   3.922   6.615  0.6004  0.7680 -0.4664
  122MOL0     C15976   7.466   3.975   6.636  0.3259 -1.0592 -0.2666
  122MOL0     C15977   7.455   4.113   6.663  0.5104  0.4657 -0.4665
  122MOL0     C15978   7.326   4.168   6.689 -0.0427  0.1582 -0.1206
  122MOL0     C15979   7.211   4.094   6.688 -0.5328 -0.7726  0.1872
  122MOL0     O15980   7.094   4.168   6.698 -0.0311  0.4789  0.4311
  122MOL0     C15981   6.970   4.124   6.644 -0.2115 -0.4798 -0.5892
  122MOL0     C15982   6.867   4.239   6.673 -0.0774  0.0743  0.0592
  122MOL0     C15983   6.729   4.205   6.625  0.7102 -0.2459  0.7994
  122MOL0     C15984   6.633   4.326   6.654  0.4393  0.2938  0.0130
  122MOL0     C15985   6.487   4.300   6.611 -0.1158 -0.0217  0.1392
  122MOL0     C15986   6.394   4.374   6.706  0.0458 -0.4183 -0.1696
  122MOL0     C15987   6.239   4.349   6.683 -0.3375  0.0896 -0.3682
  122MOL0     C15988   6.154   4.461   6.747 -0.3324  0.3778  0.0637
  122MOL0     N15989   6.006   4.446   6.744 -0.5924  0.2106  1.0184
  122MOL0     C15990   5.921   4.448   6.642 -0.3313  0.4602  0.2692
  122MOL0     C15991   5.794   4.429   6.678  1.4363  0.0400 -0.1992
  122MOL0     C15992   5.662   4.431   6.594  0.5350 -0.1370  0.2554
  122MOL0     C15993   5.555   4.331   6.642  0.9145  0.4850  0.2167
  122MOL0     C15994   5.496   4.352   6.785 -0.9269 -0.1469  0.1491
  122MOL0     C15995   5.369   4.274   6.816  0.8129 -0.7283 -0.3408
  122MOL0     O15996   5.395   4.137   6.848  0.0202  0.3021 -0.5212
  122MOL0     C15997   5.284   4.058   6.857 -0.3366 -0.0974  1.2446
  122MOL0     C15998   5.164   4.088   6.930  0.9178 -0.3047  0.2137
  122MOL0     C15999   5.060   4.001   6.946  0.4807 -0.2597  0.2494
  122MOL0     C16000   5.063   3.885   6.875  0.3472 -0.1544 -0.7346
  122MOL0     C16001   4.947   3.780   6.875  0.0793 -0.5622  0.2157
  122MOL0     O16002   4.956   3.661   6.809 -0.8002 -0.0036  0.8831
  122MOL0     C16003   4.857   3.571   6.816  0.6624  0.5462  0.1478
  122MOL0     C16004   4.886   3.436   6.829  0.1551  0.6497  0.2821
  122MOL0     C16005   4.783   3.345   6.856  0.0045 -0.1413 -0.3427
  122MOL0     C16006   4.649   3.383   6.833  0.2682 -0.2775  0.3994
  122MOL0     O16007   4.535   3.308   6.862 -0.1068 -0.2044 -1.5247
  122MOL0     C16008   4.527   3.274   7.000  0.2571  0.3908 -0.1612
  122MOL0     C16009   4.395   3.210   7.024  0.1287  0.2739 -0.9623
  122MOL0     C16010   4.373   3.172   7.176  0.0841  0.8042  0.1294
  122MOL0     C16011   4.250   3.083   7.177  0.4132 -0.2688  0.7264
  122MOL0     C16012   4.195   3.092   7.314 -0.3776  0.3270 -0.3958
  122MOL0     C16013   4.109   2.978   7.346  0.7157 -0.2783 -0.9376
  122MOL0     C16014   3.969   2.995   7.283  0.0834 -0.2915 -0.3014
  122MOL0     C16015   3.879   2.869   7.313 -0.2634 -0.2435  0.7324
  122MOL0    Cl16016   3.847   2.853   7.480 -0.1794  0.5259 -0.3938
  122MOL0     C16017   4.623   3.510   6.786  0.3713 -0.1386 -0.3110
  122MOL0     C16018   4.723   3.605   6.789  0.0501 -0.1689 -0.8420
  122MOL0     O16019   4.855   3.825   6.943 -0.1731  0.5254  0.2611
  122MOL0     C16020   5.175   3.847   6.803  0.4320 -0.5603  0.7769
  122MOL0     C16021   5.283   3.927   6.799 -0.6967  0.1922  0.3497
  122MOL0     N16022   5.806   4.422   6.816 -0.4853 -0.4222 -0.6899
  122MOL0     N16023   5.928   4.436   6.854  0.1213  1.1458 -0.1264
  122MOL0     C16024   7.217   3.961   6.652 -0.0500 -0.0098  0.4513
  122MOL0     C16025   7.340   3.906   6.635 -0.0675  0.8054  0.3785
  122MOL0     C16026   7.754   3.769   6.504  0.2837  1.1808  0.1070
  122MOL0     C16027   7.867   3.831   6.566  0.2493  0.1245  0.1336
  122MOL0     C16028   7.997   3.800   6.537  0.0539 -0.1589  0.5945
  122MOL0     C16029   8.022   3.698   6.443  0.5326 -0.5096 -0.6188
  122MOL0     O16030   8.152   3.664   6.422  0.3429 -0.2310  0.6261
  122MOL0     C16031   8.201   3.548   6.358 -0.3910  0.5843 -0.5395
  122MOL0     C16032   8.182   3.426   6.445  1.0237 -0.0242  0.2145
  122MOL0     C16033   8.267   3.448   6.565  0.0278  0.5837  0.2844
  122MOL0     C16034   8.340   3.320   6.620 -1.1853 -0.0043  0.3254
  122MOL0     C16035   8.451   3.285   6.526  0.1670  0.0803  0.4928
  122MOL0     C16036   8.550   3.264   6.454 -0.4650 -0.0411  0.5487
  122MOL0     C16037   7.912   3.633   6.380 -0.7994  0.3353 -0.9542
  122MOL0     C16038   7.779   3.671   6.410 -0.2513 -0.6547 -0.4590
  122MOL0     H16039   7.539   4.181   6.660  2.2092 -1.5219 -0.7653
  122MOL0     H16040   7.311   4.274   6.706 -0.3492 -0.2430  2.7676
  122MOL0     H16041   6.932   4.029   6.682  0.5953 -0.5688  0.0006
  122MOL0     H16042   6.976   4.123   6.534  0.3992  2.6370 -0.6845
  122MOL0     H16043   6.897   4.336   6.632  0.3826 -0.7148 -1.5551
  122MOL0     H16044   6.869   4.257   6.781  0.5992 -1.3210  0.2992
  122MOL0     H16045   6.686   4.109   6.652  0.8290 -0.6606 -0.4315
  122MOL0     H16046   6.737   4.188   6.517  3.2061 -0.2478  0.9366
  122MOL0     H16047   6.640   4.365   6.756 -0.3723  0.0557  0.1722
  122MOL0     H16048   6.657   4.412   6.590  1.3198  0.9933  1.2392
  122MOL0     H16049   6.467   4.192   6.618  0.7365 -0.2263 -0.4845
  122MOL0     H16050   6.469   4.324   6.506  3.2631 -0.6872 -0.7125
  122MOL0     H16051   6.412   4.481   6.698  1.1665 -0.5472  0.4049
  122MOL0     H16052   6.411   4.335   6.808 -0.2610 -2.4912 -0.8590
  122MOL0     H16053   6.217   4.342   6.576  4.1547  1.0293 -1.5789
  122MOL0     H16054   6.213   4.250   6.721 -0.6105 -0.1054 -1.0399
  122MOL0     H16055   6.197   4.549   6.698  0.6769  0.9144  1.8167
  122MOL0     H16056   6.180   4.476   6.853  0.7968  0.4852 -0.2152
  122MOL0     H16057   5.959   4.459   6.541 -1.4008 -1.8651 -0.4621
  122MOL0     H16058   5.692   4.412   6.491 -0.6402 -0.6919 -0.0054
  122MOL0     H16059   5.619   4.532   6.592  0.4831 -0.1598 -1.4902
  122MOL0     H16060   5.589   4.227   6.639  0.0770  0.2179 -0.3588
  122MOL0     H16061   5.471   4.350   6.575  0.1184 -1.8367  0.4569
  122MOL0     H16062   5.576   4.321   6.852 -3.0733 -2.0195  2.0109
  122MOL0     H16063   5.474   4.458   6.803 -2.0239 -0.4093  0.4253
  122MOL0     H16064   5.304   4.268   6.728  0.9609  1.6644 -0.6721
  122MOL0     H16065   5.314   4.329   6.893  2.9288 -0.1702  0.8383
  122MOL0     H16066   5.174   4.173   6.998  1.1293  1.0789 -1.4855
  122MOL0     H16067   4.978   4.022   7.014  1.6885 -1.8215  2.3007
  122MOL0     H16068   4.988   3.399   6.831  0.2108  0.7283 -0.7042
  122MOL0     H16069   4.802   3.246   6.898 -0.4860  0.6238  1.8125
  122MOL0     H16070   4.537   3.364   7.061  2.6055  0.5527 -0.6694
  122MOL0     H16071   4.607   3.204   7.024  0.8437 -0.3143 -3.6527
  122MOL0     H16072   4.374   3.130   6.953  0.2946  2.4237 -3.5566
  122MOL0     H16073   4.312   3.278   7.003 -1.9134 -1.4283  0.9660
  122MOL0     H16074   4.356   3.263   7.234 -0.7961 -0.5652  2.1286
  122MOL0     H16075   4.454   3.117   7.224 -0.5752  1.5022  2.1702
  122MOL0     H16076   4.169   3.125   7.116  0.8524 -0.7423 -0.2028
  122MOL0     H16077   4.267   2.978   7.153  1.4701  0.4908 -2.2720
  122MOL0     H16078   4.137   3.182   7.337 -2.0135 -1.5195  3.5470
  122MOL0     H16079   4.279   3.092   7.385 -1.9188  0.3681  1.5014
  122MOL0     H16080   4.105   2.961   7.454  1.3265 -1.0652 -1.0278
  122MOL0     H16081   4.165   2.895   7.301  2.5251  0.6540 -0.5008
  122MOL0     H16082   3.923   3.082   7.332 -0.9654 -3.1478  4.4774
  122MOL0     H16083   3.970   2.986   7.174 -2.4247 -2.0241 -0.2474
  122MOL0     H16084   3.920   2.778   7.268  1.5468  1.2592 -0.8048
  122MOL0     H16085   3.788   2.888   7.255 -0.0203 -1.3852 -0.0415
  122MOL0     H16086   4.518   3.530   6.775 -0.0886 -0.9499  1.9359
  122MOL0     H16087   4.698   3.710   6.775  1.4402  0.2920 -0.0475
  122MOL0     H16088   5.172   3.753   6.750  1.2157  0.6135 -1.4761
  122MOL0     H16089   5.382   3.915   6.756  0.5420  2.7492  2.2398
  122MOL0     H16090   7.131   3.898   6.637  1.1006 -0.9699 -2.9658
  122MOL0     H16091   7.337   3.800   6.613 -0.9164  0.9952 -0.5140
  122MOL0     H16092   7.842   3.903   6.644 -1.3003 -2.0697  1.7885
  122MOL0     H16093   8.082   3.858   6.573  0.4522  1.4316 -2.5937
  122MOL0     H16094   8.310   3.552   6.345 -0.1658  2.7366  1.3594
  122MOL0     H16095   8.147   3.546   6.263 -0.7590  2.2458 -0.3993
  122MOL0     H16096   8.077   3.401   6.463  1.0640 -2.4546 -2.3482
  122MOL0     H16097   8.226   3.343   6.391  0.0101  1.4466 -3.1419
  122MOL0     H16098   8.194   3.490   6.635 -3.0388  1.3875 -3.0504
  122MOL0     H16099   8.342   3.525   6.547 -0.0967  0.5503 -0.4153
  122MOL0     H16100   8.392   3.346   6.712  1.8402 -3.9318 -0.0147
  122MOL0     H16101   8.274   3.233   6.632 -2.3833  0.7164 -0.6903
  122MOL0     H16102   8.630   3.237   6.388 -0.6011  1.6239 -0.3338
  122MOL0     H16103   7.943   3.553   6.314  3.2463 -0.2518  1.3114
  122MOL0     H16104   7.694   3.618   6.369  0.5384 -0.8933 -1.8380
  123MOL0     O16105  10.174   9.609   9.036  0.1764  0.1364 -0.2663
  123MOL0     C16106  10.146   9.669   8.933  0.1532  0.2461 -0.0686
  123MOL0     O16107  10.218   9.771   8.875 -0.8837 -0.5805  0.3993
  123MOL0     C16108  10.337   9.795   8.940  0.1209 -0.3810  0.3677
  123MOL0     C16109  10.341   9.869   9.057 -0.7775 -0.1845  0.3093
  123MOL0     C16110  10.448   9.863   9.143 -0.1817 -0.1903  0.0707
  123MOL0     C16111  10.568   9.792   9.104  0.3329 -0.0197  0.9390
  123MOL0     O16112  10.680   9.764   9.182  0.6431  0.0412  0.5282
  123MOL0     C16113  10.665   9.785   9.321  0.7951 -0.4612 -0.2518
  123MOL0     C16114  10.793   9.771   9.395  0.3513  0.6379 -0.3751
  123MOL0     C16115  10.918   9.867   9.346  0.1677 -0.0314 -0.5483
  123MOL0     C16116  11.039   9.844   9.439 -0.7660 -0.3830  0.2494
  123MOL0     C16117  11.137   9.739   9.371 -1.2625 -0.4047  0.5427
  123MOL0     C16118  11.283   9.739   9.433  0.6923 -0.1273  0.1428
  123MOL0     C16119  11.370   9.616   9.394  0.4569  0.1054  0.9251
  123MOL0     C16120  11.408   9.619   9.241 -0.1113  0.5218  0.6323
  123MOL0     N16121  11.504   9.511   9.200  0.3014 -0.3814 -0.0151
  123MOL0     C16122  11.572   9.422   9.276 -0.6616 -0.4199 -0.2384
  123MOL0     C16123  11.634   9.336   9.194  0.9634  0.1751  0.2296
  123MOL0     C16124  11.717   9.217   9.247 -0.7060  0.3003 -0.2050
  123MOL0     C16125  11.653   9.083   9.219 -0.4629  0.9235 -0.2653
  123MOL0     C16126  11.641   8.991   9.344  0.3119 -0.2833  0.4823
  123MOL0     C16127  11.580   8.855   9.308 -0.0873  0.2292 -0.2620
  123MOL0     O16128  11.537   8.794   9.431 -0.2099 -0.2963  0.5961
  123MOL0     C16129  11.397   8.779   9.451 -0.6813 -0.2280  0.0055
  123MOL0     C16130  11.340   8.664   9.516 -0.0860 -1.0554 -0.2614
  123MOL0     C16131  11.205   8.670   9.550  0.7214 -0.2831  0.1870
  123MOL0     C16132  11.122   8.783   9.521 -0.0342  0.2424 -0.1384
  123MOL0     C16133  10.980   8.786   9.560 -0.2019 -0.2589  0.3062
  123MOL0     O16134  10.911   8.891   9.505 -0.1259 -0.0138  0.2936
  123MOL0     C16135  10.783   8.907   9.548 -0.6439 -0.0196 -0.0196
  123MOL0     C16136  10.747   8.994   9.656 -0.0920 -0.7582 -0.6034
  123MOL0     C16137  10.612   9.024   9.695 -0.0004 -0.0846 -0.4025
  123MOL0     C16138  10.512   8.965   9.618 -0.0071 -0.3175  0.1447
  123MOL0     O16139  10.383   9.009   9.649 -0.1689  0.3875 -0.2413
  123MOL0     C16140  10.269   8.935   9.602 -0.8426  0.4928 -0.1776
  123MOL0     C16141  10.149   9.030   9.584 -0.1874  0.0726 -0.2741
  123MOL0     C16142  10.181   9.133   9.474  0.0281 -0.3604  0.3064
  123MOL0     C16143  10.131   9.081   9.341 -0.0593  0.2588  0.3173
  123MOL0     C16144  10.117   9.185   9.234 -0.1560  0.3180  0.0757
  123MOL0     C16145  10.012   9.296   9.268 -1.3252 -0.2904  0.2491
  123MOL0     C16146   9.875   9.244   9.246 -0.3852  0.5738  0.1910
  123MOL0     C16147   9.772   9.292   9.348  0.5717 -0.5534  0.3081
  123MOL0    Cl16148   9.619   9.200   9.306  0.3300 -0.2632 -0.4723
  123MOL0     C16149  10.545   8.893   9.502 -0.0451 -0.2967 -0.8249
  123MOL0     C16150  10.674   8.849   9.477 -0.9824 -0.4136  0.5259
  123MOL0     O16151  10.936   8.697   9.629 -0.3640  0.1364 -0.4328
  123MOL0     C16152  11.173   8.890   9.446 -0.6165  0.4479  0.0967
  123MOL0     C16153  11.308   8.886   9.405 -0.2438  0.5726  0.8762
  123MOL0     N16154  11.600   9.370   9.070  0.0326 -0.6575 -0.1920
  123MOL0     N16155  11.528   9.476   9.074 -0.0806  0.0999  1.4538
  123MOL0     C16156  10.561   9.714   8.991  1.1006  0.5819 -1.3059
  123MOL0     C16157  10.449   9.718   8.911 -0.0480  0.1144  0.3129
  123MOL0     C16158  10.037   9.625   8.845 -0.3749 -0.3188 -0.2038
  123MOL0     C16159   9.928   9.542   8.893  0.0409  0.3142 -0.4535
  123MOL0     C16160   9.812   9.536   8.827  0.3792  0.6368 -0.6129
  123MOL0     C16161   9.799   9.588   8.698  0.4251  0.0565 -0.5140
  123MOL0     O16162   9.682   9.552   8.633 -0.5172 -0.4059  0.0166
  123MOL0     C16163   9.636   9.668   8.565  0.0435  0.5043  0.4072
  123MOL0     C16164   9.610   9.782   8.658  0.3338  0.5263  0.5840
  123MOL0     C16165   9.479   9.857   8.612 -0.6474  0.3408 -0.3656
  123MOL0     C16166   9.480  10.000   8.670 -0.2621 -0.8346 -0.2941
  123MOL0     C16167   9.352  10.072   8.647 -0.2951  0.0394  0.4357
  123MOL0     C16168   9.239  10.122   8.624 -0.8518 -0.4194  0.5940
  123MOL0     C16169   9.914   9.649   8.638  0.8803  0.0410 -1.0646
  123MOL0     C16170  10.031   9.672   8.713  0.2130  0.3555 -1.0572
  123MOL0     H16171  10.262   9.941   9.078 -2.4415 -0.7250 -3.2426
  123MOL0     H16172  10.436   9.933   9.224  0.6836  1.4192 -1.1394
  123MOL0     H16173  10.587   9.726   9.371  0.6976  0.0697  0.2323
  123MOL0     H16174  10.634   9.888   9.337  1.2852 -0.3325 -0.1102
  123MOL0     H16175  10.817   9.665   9.400 -2.3666 -0.0029  1.7035
  123MOL0     H16176  10.778   9.801   9.499 -1.6881  0.0364 -0.4637
  123MOL0     H16177  10.883   9.970   9.353 -2.3847 -0.8060 -0.9720
  123MOL0     H16178  10.948   9.855   9.242 -0.2110  0.7182 -0.7463
  123MOL0     H16179  11.096   9.937   9.439  0.8603 -1.3377 -0.2414
  123MOL0     H16180  11.000   9.812   9.536 -1.2001  0.9484  0.5250
  123MOL0     H16181  11.159   9.778   9.271 -0.2809 -0.9781  0.5210
  123MOL0     H16182  11.086   9.645   9.350 -2.2814  1.0379 -4.9531
  123MOL0     H16183  11.267   9.735   9.541  1.4844 -0.4319  0.2592
  123MOL0     H16184  11.336   9.832   9.412  0.1803  0.2686  0.5782
  123MOL0     H16185  11.456   9.629   9.461 -0.2582  1.0003  1.7048
  123MOL0     H16186  11.318   9.522   9.417  2.5271 -1.4923 -0.5156
  123MOL0     H16187  11.467   9.707   9.213 -1.7209  2.2485  2.3877
  123MOL0     H16188  11.314   9.613   9.186  0.7505  0.0085 -0.8513
  123MOL0     H16189  11.569   9.424   9.385  2.3206 -2.3290 -0.0048
  123MOL0     H16190  11.723   9.235   9.355  1.5979 -1.4865  0.0329
  123MOL0     H16191  11.817   9.221   9.203 -0.0642  1.8953  1.2991
  123MOL0     H16192  11.730   9.029   9.162  1.3822 -1.7408  4.1950
  123MOL0     H16193  11.562   9.104   9.162 -2.1294 -2.7219  0.7596
  123MOL0     H16194  11.741   8.976   9.387 -0.2653  0.7366  2.2822
  123MOL0     H16195  11.571   9.042   9.411 -1.3430 -1.5366 -0.2272
  123MOL0     H16196  11.651   8.797   9.248  2.0688  1.1644  1.2682
  123MOL0     H16197  11.495   8.858   9.239  0.4038 -0.9887 -0.9452
  123MOL0     H16198  11.399   8.579   9.547 -1.1532 -1.1496  1.7310
  123MOL0     H16199  11.160   8.581   9.592 -1.5962  1.6831  2.1668
  123MOL0     H16200  10.827   9.034   9.718  1.6447  1.3264 -3.8902
  123MOL0     H16201  10.590   9.097   9.772  1.3094  1.4359 -1.4112
  123MOL0     H16202  10.251   8.854   9.674 -2.0216  1.1953  0.3385
  123MOL0     H16203  10.288   8.881   9.509 -0.7520  0.8328 -0.3588
  123MOL0     H16204  10.126   9.081   9.678  0.7778 -1.4939  0.8596
  123MOL0     H16205  10.060   8.969   9.567  0.6147 -0.8702 -1.2038
  123MOL0     H16206  10.291   9.137   9.467  0.1130 -1.2626  0.9667
  123MOL0     H16207  10.139   9.231   9.499 -1.0165 -0.8238  0.4029
  123MOL0     H16208  10.206   9.009   9.306 -0.8769 -0.2422 -0.4343
  123MOL0     H16209  10.036   9.032   9.365 -0.6186  1.9016  1.6012
  123MOL0     H16210  10.088   9.126   9.147 -2.5488  0.4315  0.7135
  123MOL0     H16211  10.214   9.232   9.216  0.3135  0.7327  3.1483
  123MOL0     H16212  10.034   9.370   9.190  0.2970 -1.2823 -0.2975
  123MOL0     H16213  10.026   9.342   9.366  0.1542 -1.0124  0.4106
  123MOL0     H16214   9.843   9.280   9.147 -1.5892 -2.3852 -0.5977
  123MOL0     H16215   9.879   9.135   9.245  1.1908  0.6039 -0.7701
  123MOL0     H16216   9.748   9.399   9.338  0.4282 -0.6301 -0.1918
  123MOL0     H16217   9.806   9.275   9.450  0.0780  0.2114  0.6124
  123MOL0     H16218  10.469   8.839   9.446 -1.2917  1.4593 -0.8956
  123MOL0     H16219  10.694   8.779   9.396  0.4061 -1.4453  1.7108
  123MOL0     H16220  11.123   8.977   9.406  0.0097 -0.2062 -2.3091
  123MOL0     H16221  11.345   8.970   9.347  1.8715 -2.9049 -3.3892
  123MOL0     H16222  10.652   9.656   8.978  2.0467  1.1266  1.8173
  123MOL0     H16223  10.451   9.659   8.820 -5.0394 -2.2968  1.4287
  123MOL0     H16224   9.936   9.486   8.985 -1.5442 -1.8076 -1.5350
  123MOL0     H16225   9.737   9.473   8.873  1.5643  0.8265  1.6897
  123MOL0     H16226   9.548   9.626   8.515  1.5277 -5.5002  2.0198
  123MOL0     H16227   9.709   9.694   8.488  1.2968 -0.2092  1.3090
  123MOL0     H16228   9.582   9.743   8.757  2.8159 -2.4216  0.2777
  123MOL0     H16229   9.693   9.853   8.662 -0.0543  0.9736  0.8205
  123MOL0     H16230   9.391   9.798   8.636 -0.8464 -0.1063 -2.0737
  123MOL0     H16231   9.485   9.866   8.503 -1.4758 -3.4791 -0.8602
  123MOL0     H16232   9.496   9.997   8.778  1.3347  1.3241 -0.4113
  123MOL0     H16233   9.569  10.050   8.632 -0.1022 -0.2746  0.7637
  123MOL0     H16234   9.139  10.156   8.606 -0.4160  1.6691  1.7623
  123MOL0     H16235   9.912   9.689   8.537  0.1421  4.4925  0.4916
  123MOL0     H16236  10.115   9.714   8.659 -1.0511 -0.2157 -3.6777
  124MOL0     O16237  11.242   0.720   2.487  0.7885 -0.3961 -0.6697
  124MOL0     C16238  11.297   0.761   2.587 -0.2363 -0.1247  0.1670
  124MOL0     O16239  11.246   0.834   2.691 -0.8662 -0.2982  0.2140
  124MOL0     C16240  11.113   0.838   2.691  0.7376  0.4387  0.2165
  124MOL0     C16241  11.041   0.913   2.601 -0.3237  1.1556  0.3082
  124MOL0     C16242  10.898   0.905   2.601 -0.1292  0.1958  0.2076
  124MOL0     C16243  10.830   0.834   2.693  0.1750  0.2858  0.4045
  124MOL0     O16244  10.694   0.842   2.690  0.2966 -0.2416  0.4265
  124MOL0     C16245  10.616   0.736   2.755 -0.3896  0.5371  0.6027
  124MOL0     C16246  10.460   0.753   2.721 -0.2571 -0.6617 -0.6528
  124MOL0     C16247  10.443   0.708   2.578  0.9488 -1.2282  0.3465
  124MOL0     C16248  10.289   0.698   2.541  0.5458 -0.1681  0.0931
  124MOL0     C16249  10.225   0.835   2.545  0.7242  0.5621  0.4804
  124MOL0     C16250  10.080   0.828   2.492 -0.3622 -0.5741 -0.5284
  124MOL0     C16251   9.991   0.765   2.605  0.2427 -0.6073  0.0248
  124MOL0     C16252   9.848   0.808   2.581  0.0323  0.0849 -0.2142
  124MOL0     N16253   9.779   0.790   2.710 -0.4055  0.5711 -0.4565
  124MOL0     C16254   9.720   0.669   2.748  0.6138  0.0420 -1.4503
  124MOL0     C16255   9.636   0.731   2.844 -0.2970  0.8635  0.2537
  124MOL0     C16256   9.519   0.655   2.885 -0.0355 -0.0474 -1.2000
  124MOL0     C16257   9.393   0.699   2.806  0.8224 -0.4968 -0.1089
  124MOL0     C16258   9.269   0.633   2.866  0.0154  0.5515 -0.6608
  124MOL0     C16259   9.140   0.679   2.792 -0.4332 -0.2112  0.5618
  124MOL0     O16260   9.017   0.620   2.844  0.2572 -0.3792  0.7436
  124MOL0     C16261   8.898   0.653   2.783  0.0797  0.3415  0.5017
  124MOL0     C16262   8.882   0.751   2.694  0.9122 -0.3331  0.1024
  124MOL0     C16263   8.754   0.781   2.626  0.4556  0.0240  0.0928
  124MOL0     C16264   8.642   0.706   2.671 -0.0917  0.7454  0.3654
  124MOL0     C16265   8.508   0.721   2.611  0.1465 -0.7337  0.1700
  124MOL0     O16266   8.410   0.658   2.668 -0.7320  0.2058  0.7938
  124MOL0     C16267   8.282   0.682   2.617 -0.6796 -0.3893  0.0515
  124MOL0     C16268   8.175   0.708   2.708 -0.4981 -0.5169  0.3817
  124MOL0     C16269   8.043   0.712   2.667 -0.2835  0.3458  0.7526
  124MOL0     C16270   8.012   0.701   2.530 -0.5252 -0.7103 -0.4150
  124MOL0     O16271   7.880   0.693   2.493 -0.4814 -0.0416  0.3796
  124MOL0     C16272   7.818   0.569   2.534  1.1081  0.7624  0.0601
  124MOL0     C16273   7.677   0.572   2.464  0.4908 -0.6730  0.6748
  124MOL0     C16274   7.584   0.469   2.518  0.7033  0.8163 -0.1312
  124MOL0     C16275   7.438   0.487   2.464  0.0695  0.1258 -0.8018
  124MOL0     C16276   7.331   0.442   2.559 -0.0094  0.0275 -0.6697
  124MOL0     C16277   7.197   0.485   2.519  0.3738  0.3825  0.1688
  124MOL0     C16278   7.084   0.393   2.580 -0.9582  0.6052 -0.8599
  124MOL0     C16279   6.940   0.448   2.562  0.3868  0.2978  0.1587
  124MOL0    Cl16280   6.801   0.405   2.672 -0.1415 -0.1169  0.1181
  124MOL0     C16281   8.113   0.679   2.440  0.3403 -0.2950  0.0895
  124MOL0     C16282   8.249   0.664   2.484  1.1390  0.8351  0.1360
  124MOL0     O16283   8.500   0.810   2.521 -0.2138 -0.3612 -0.1755
  124MOL0     C16284   8.665   0.608   2.765  0.8203 -0.4876  0.0691
  124MOL0     C16285   8.791   0.589   2.831  0.8031 -0.5715 -1.2164
  124MOL0     N16286   9.658   0.858   2.873  0.1883  0.0572 -0.2261
  124MOL0     N16287   9.750   0.895   2.797 -0.6259  1.0815  0.4191
  124MOL0     C16288  10.910   0.775   2.789 -0.7073  0.1590 -0.7722
  124MOL0     C16289  11.046   0.766   2.784  0.3496 -0.2987  0.1335
  124MOL0     C16290  11.442   0.741   2.580 -0.6664 -0.7794  0.2136
  124MOL0     C16291  11.505   0.652   2.494 -0.6621  0.5419  0.5770
  124MOL0     C16292  11.647   0.643   2.478  0.0516  0.0262  0.1879
  124MOL0     C16293  11.731   0.740   2.539 -0.4533 -0.3088  0.1096
  124MOL0     O16294  11.867   0.755   2.511  0.6133 -0.3877 -0.5871
  124MOL0     C16295  11.947   0.634   2.489  0.0633 -1.1317 -0.4034
  124MOL0     C16296  11.985   0.638   2.340 -0.0717  0.4269 -0.5441
  124MOL0     C16297  12.074   0.753   2.303 -0.1798 -0.1802 -0.5737
  124MOL0     C16298  12.097   0.748   2.149  0.2285 -1.4223 -0.6837
  124MOL0     C16299  12.166   0.638   2.091  0.5513 -1.0885  0.0628
  124MOL0     C16300  12.226   0.547   2.043 -0.8331 -0.5012 -1.1138
  124MOL0     C16301  11.670   0.824   2.633  0.5442 -0.2197 -0.1261
  124MOL0     C16302  11.531   0.832   2.641 -0.0364  0.0414 -0.3475
  124MOL0     H16303  11.092   0.970   2.524  2.8191 -1.8487 -0.1048
  124MOL0     H16304  10.844   0.960   2.525 -1.3155  2.8881  2.7925
  124MOL0     H16305  10.635   0.753   2.862  2.0170  0.7658  0.1976
  124MOL0     H16306  10.649   0.638   2.722  2.3399  1.1942  1.0955
  124MOL0     H16307  10.436   0.859   2.737 -1.1331 -1.3553  3.7214
  124MOL0     H16308  10.398   0.694   2.789 -0.9031  0.7078 -0.0134
  124MOL0     H16309  10.470   0.602   2.573 -3.4991 -2.5126 -0.8202
  124MOL0     H16310  10.496   0.768   2.504  0.2615 -1.8479 -0.6604
  124MOL0     H16311  10.294   0.650   2.442 -2.6285  1.1930 -0.8293
  124MOL0     H16312  10.244   0.633   2.616  0.3314  0.6303  0.6642
  124MOL0     H16313  10.281   0.902   2.479 -2.8362 -0.6683 -4.3711
  124MOL0     H16314  10.229   0.864   2.651 -2.2046 -0.3196  0.9155
  124MOL0     H16315  10.063   0.767   2.403  1.4858 -1.5103 -0.2938
  124MOL0     H16316  10.050   0.929   2.460 -0.2328 -0.9406 -1.8425
  124MOL0     H16317  10.016   0.659   2.614  0.9028 -0.6571 -1.8842
  124MOL0     H16318  10.022   0.812   2.699 -4.1012  1.6731  0.6174
  124MOL0     H16319   9.797   0.744   2.509 -0.5398 -1.2748  1.3390
  124MOL0     H16320   9.848   0.915   2.555  2.5784 -0.0440 -0.9965
  124MOL0     H16321   9.708   0.575   2.696  0.2068 -3.1497  3.6285
  124MOL0     H16322   9.504   0.673   2.992  2.7026  1.2389 -0.9426
  124MOL0     H16323   9.530   0.546   2.884 -3.2132 -0.5489  1.2105
  124MOL0     H16324   9.405   0.655   2.706 -2.0976 -1.5363 -0.0802
  124MOL0     H16325   9.388   0.808   2.795 -0.2641 -0.5682 -0.3970
  124MOL0     H16326   9.276   0.524   2.860 -1.4014  0.2435  1.9460
  124MOL0     H16327   9.249   0.662   2.970  0.6019 -3.2022  0.6563
  124MOL0     H16328   9.153   0.649   2.688 -0.2477  2.8922 -0.4246
  124MOL0     H16329   9.121   0.787   2.797 -0.5930 -0.0254 -2.5146
  124MOL0     H16330   8.961   0.815   2.657  2.6139 -1.2644  1.9694
  124MOL0     H16331   8.739   0.858   2.552  0.8168  0.6056  0.6136
  124MOL0     H16332   8.211   0.716   2.810  0.5677  0.2899 -0.0374
  124MOL0     H16333   7.966   0.731   2.741 -3.6192 -1.8813 -1.8218
  124MOL0     H16334   7.813   0.542   2.640  1.3260 -1.2376 -0.3889
  124MOL0     H16335   7.872   0.484   2.490 -0.4695 -0.4415  0.3362
  124MOL0     H16336   7.684   0.549   2.358 -2.0747 -1.4749  0.6031
  124MOL0     H16337   7.631   0.671   2.473  3.2995  0.8189 -0.2867
  124MOL0     H16338   7.587   0.467   2.628  0.0093  2.3044 -0.0657
  124MOL0     H16339   7.628   0.375   2.482  1.2310  0.0001  2.4261
  124MOL0     H16340   7.431   0.596   2.469 -0.9673  0.0214  1.5157
  124MOL0     H16341   7.419   0.468   2.358 -0.1376  0.2866 -0.7944
  124MOL0     H16342   7.350   0.485   2.658 -3.6071 -1.6544  0.9264
  124MOL0     H16343   7.331   0.333   2.564  0.9903 -0.0643 -2.0143
  124MOL0     H16344   7.187   0.471   2.411 -2.3797 -0.9020  0.5254
  124MOL0     H16345   7.186   0.593   2.534  1.6150  0.6424 -0.5637
  124MOL0     H16346   7.090   0.291   2.542 -1.8036 -1.3240  3.5374
  124MOL0     H16347   7.099   0.392   2.689 -0.3283  1.8778 -0.9109
  124MOL0     H16348   6.918   0.413   2.461  1.8489 -1.6262  0.4442
  124MOL0     H16349   6.935   0.557   2.567 -3.1776  0.3107 -1.0079
  124MOL0     H16350   8.082   0.643   2.342 -1.7883 -4.1780  1.9490
  124MOL0     H16351   8.314   0.626   2.406 -1.3065 -1.7169 -0.8140
  124MOL0     H16352   8.590   0.542   2.808 -1.1392  1.0729 -0.7778
  124MOL0     H16353   8.809   0.522   2.915 -0.3375 -0.2046 -0.6498
  124MOL0     H16354  10.854   0.730   2.870  0.3238  0.2937  0.0372
  124MOL0     H16355  11.104   0.701   2.848 -1.2668  0.9185  3.0491
  124MOL0     H16356  11.446   0.576   2.443  0.8217  1.0213 -2.0389
  124MOL0     H16357  11.686   0.572   2.406 -0.9820  0.0972 -0.4668
  124MOL0     H16358  11.887   0.548   2.520 -3.2463  1.6023  1.5475
  124MOL0     H16359  12.037   0.647   2.550  2.1976 -1.1868 -3.3363
  124MOL0     H16360  12.037   0.545   2.319 -1.7821 -0.9545  1.0195
  124MOL0     H16361  11.897   0.641   2.275  0.5457  3.5528 -1.4146
  124MOL0     H16362  12.165   0.740   2.362 -2.1060 -1.5427  2.3291
  124MOL0     H16363  12.029   0.846   2.338 -2.6470 -1.9348  1.2799
  124MOL0     H16364  11.992   0.743   2.118 -0.9124 -0.1652  2.4755
  124MOL0     H16365  12.126   0.847   2.111  1.0682 -1.1092  0.7121
  124MOL0     H16366  12.285   0.467   2.002  0.5746 -0.4389  0.6156
  124MOL0     H16367  11.724   0.891   2.698  1.8127  2.0267 -3.2535
  124MOL0     H16368  11.492   0.912   2.702  0.5849 -0.4503  0.7273
  125MOL0     O16369   5.702   1.103   2.681  0.3889 -0.2186 -1.3596
  125MOL0     C16370   5.723   1.039   2.583 -0.3732  0.0419  0.5826
  125MOL0     O16371   5.645   0.940   2.545 -0.5739 -0.5050 -0.1851
  125MOL0     C16372   5.539   0.907   2.627  0.3439  0.3094  0.5119
  125MOL0     C16373   5.558   0.851   2.755  0.0036 -0.5733  0.5370
  125MOL0     C16374   5.440   0.810   2.818  0.5080  0.5849 -0.0449
  125MOL0     C16375   5.316   0.794   2.745  0.2905 -0.1288 -0.2981
  125MOL0     O16376   5.206   0.755   2.814 -0.1741  0.0115 -0.5762
  125MOL0     C16377   5.169   0.614   2.785  0.7736 -0.5564  0.4550
  125MOL0     C16378   5.029   0.598   2.848 -0.2651  0.2626  0.4209
  125MOL0     C16379   4.969   0.468   2.798  0.1185 -0.1490 -0.5317
  125MOL0     C16380   4.817   0.446   2.838  0.6941  0.8478 -0.0594
  125MOL0     C16381   4.758   0.330   2.758  0.0976 -0.0383 -0.2074
  125MOL0     C16382   4.614   0.307   2.814 -0.3387  0.1063  0.2580
  125MOL0     C16383   4.551   0.193   2.734  0.3528 -0.9158 -0.2818
  125MOL0     C16384   4.403   0.179   2.778 -0.8938  0.0387  0.9252
  125MOL0     N16385   4.347   0.057   2.711  0.0682 -0.6544  1.2507
  125MOL0     C16386   4.326  -0.064   2.766  0.2214  0.5020 -0.0577
  125MOL0     C16387   4.268  -0.148   2.681  0.4662 -0.2088  0.0101
  125MOL0     C16388   4.218  -0.294   2.678 -0.1984  0.2044 -1.0234
  125MOL0     C16389   4.076  -0.320   2.724  0.7058 -0.0073 -0.0904
  125MOL0     C16390   3.971  -0.252   2.630 -0.2337 -0.5391 -0.0201
  125MOL0     C16391   3.831  -0.313   2.631 -0.4834  0.9842 -0.4719
  125MOL0     O16392   3.787  -0.284   2.765  1.2656 -0.1395 -0.6552
  125MOL0     C16393   3.672  -0.329   2.814  0.4147  0.6347 -0.3432
  125MOL0     C16394   3.655  -0.326   2.950  0.6453 -0.0661 -0.3442
  125MOL0     C16395   3.546  -0.380   3.014  0.2726 -0.9987  0.1234
  125MOL0     C16396   3.447  -0.435   2.941  1.0255 -0.5072  0.8261
  125MOL0     C16397   3.324  -0.488   3.001 -0.5436  0.0713  0.1193
  125MOL0     O16398   3.305  -0.488   3.131 -0.9669 -0.4838  0.0245
  125MOL0     C16399   3.189  -0.532   3.184 -0.3270 -0.3853  0.0898
  125MOL0     C16400   3.221  -0.582   3.312 -0.5522  0.0852 -0.6091
  125MOL0     C16401   3.117  -0.639   3.394  0.6947 -0.1495  0.0072
  125MOL0     C16402   2.983  -0.643   3.338  0.3185 -0.3847  0.8089
  125MOL0     O16403   2.880  -0.697   3.410 -0.8157 -0.1761  0.0601
  125MOL0     C16404   2.882  -0.696   3.554  0.0776  0.0501  0.0844
  125MOL0     C16405   2.736  -0.713   3.603  0.0522  1.1891  0.2008
  125MOL0     C16406   2.693  -0.860   3.586  0.7024  1.2008 -0.1643
  125MOL0     C16407   2.640  -0.894   3.445 -0.6463  0.9261  0.2221
  125MOL0     C16408   2.529  -0.802   3.401  0.0885  0.7813  0.2941
  125MOL0     C16409   2.461  -0.861   3.279  0.0877  0.5972  0.4429
  125MOL0     C16410   2.333  -0.784   3.228  1.5088 -0.2016  0.2427
  125MOL0     C16411   2.261  -0.834   3.099  0.6641  0.3368 -0.4789
  125MOL0    Cl16412   2.090  -0.778   3.108 -0.0995 -0.4935  0.2357
  125MOL0     C16413   2.956  -0.576   3.213 -0.1471 -0.1031  0.0777
  125MOL0     C16414   3.062  -0.530   3.135  0.4163 -0.6806 -0.3461
  125MOL0     O16415   3.247  -0.548   2.930  0.0716 -0.8099 -0.1974
  125MOL0     C16416   3.454  -0.431   2.798  0.5679  0.4439  0.0130
  125MOL0     C16417   3.569  -0.387   2.738 -0.5652  0.8602 -0.1914
  125MOL0     N16418   4.254  -0.066   2.573  0.1237  0.0018  0.1088
  125MOL0     N16419   4.300   0.055   2.582  0.4766 -0.3275  0.1613
  125MOL0     C16420   5.311   0.839   2.614  0.3378 -0.5419 -0.7113
  125MOL0     C16421   5.419   0.895   2.553  0.4589  0.0803 -0.2164
  125MOL0     C16422   5.833   1.075   2.488  1.0037  0.2176  0.0680
  125MOL0     C16423   5.838   1.010   2.367 -0.1953  0.3711 -0.3509
  125MOL0     C16424   5.943   1.047   2.275 -0.3870 -0.4156 -0.3817
  125MOL0     C16425   6.040   1.139   2.320 -1.2692 -0.5695  0.0213
  125MOL0     O16426   6.147   1.155   2.238  0.3693  0.4367  0.7585
  125MOL0     C16427   6.101   1.213   2.109 -0.6113 -0.6418  0.0534
  125MOL0     C16428   6.171   1.153   1.994  0.1772 -0.1860 -0.3790
  125MOL0     C16429   6.321   1.191   1.969 -0.2439  0.9542 -0.4120
  125MOL0     C16430   6.418   1.143   2.076 -0.5857  0.6067  0.5098
  125MOL0     C16431   6.440   0.993   2.066 -0.6218  0.5420 -0.7614
  125MOL0     C16432   6.471   0.874   2.039 -0.7776 -0.1922 -0.7430
  125MOL0     C16433   6.036   1.200   2.443  0.7093 -0.4148  0.0840
  125MOL0     C16434   5.928   1.171   2.525 -0.2486 -0.0200  0.0971
  125MOL0     H16435   5.657   0.856   2.800  0.7504  0.7830 -1.1596
  125MOL0     H16436   5.452   0.783   2.922  1.0588 -0.1002 -0.2782
  125MOL0     H16437   5.237   0.542   2.833  0.9588  0.2584  1.4403
  125MOL0     H16438   5.167   0.596   2.677  0.4347 -0.1880  0.3989
  125MOL0     H16439   4.964   0.682   2.823 -3.1997 -1.4365  1.6817
  125MOL0     H16440   5.034   0.590   2.957 -0.9985 -0.2005  0.4288
  125MOL0     H16441   5.034   0.384   2.821  0.9144  0.9876  1.5875
  125MOL0     H16442   4.964   0.473   2.688 -1.3639 -0.2761 -0.4866
  125MOL0     H16443   4.811   0.419   2.944 -3.0552  2.6306  0.3391
  125MOL0     H16444   4.751   0.532   2.827 -0.8894 -0.1026  1.4881
  125MOL0     H16445   4.807   0.234   2.781 -1.5944 -0.1817  3.5652
  125MOL0     H16446   4.745   0.354   2.652 -0.5242 -0.4704 -0.2385
  125MOL0     H16447   4.544   0.391   2.804 -1.0579 -0.6573 -1.5354
  125MOL0     H16448   4.630   0.278   2.919  0.3654 -0.5634 -0.0303
  125MOL0     H16449   4.554   0.216   2.627  1.3150 -0.0810 -0.0864
  125MOL0     H16450   4.594   0.097   2.767  1.9655  1.5082  6.2258
  125MOL0     H16451   4.345   0.266   2.743  0.1722  1.4047  2.4191
  125MOL0     H16452   4.407   0.176   2.887  0.2221 -0.2381  0.8859
  125MOL0     H16453   4.362  -0.105   2.860  1.0522  0.4119 -0.4064
  125MOL0     H16454   4.280  -0.347   2.751 -0.8885  1.9936  0.9795
  125MOL0     H16455   4.236  -0.329   2.576  0.5589  2.0466 -1.5708
  125MOL0     H16456   4.064  -0.268   2.820  0.5434 -0.0263 -0.0993
  125MOL0     H16457   4.071  -0.429   2.729 -1.4388  0.0887  2.5600
  125MOL0     H16458   3.959  -0.145   2.651 -0.3964 -0.6398  0.4075
  125MOL0     H16459   4.005  -0.254   2.526 -2.6781  3.8807 -1.1674
  125MOL0     H16460   3.844  -0.418   2.606  2.8313  1.6407 -1.9931
  125MOL0     H16461   3.766  -0.262   2.559  0.0409 -0.3355 -1.9277
  125MOL0     H16462   3.732  -0.289   3.016  2.8111  2.0726 -3.7457
  125MOL0     H16463   3.544  -0.371   3.122 -1.3239 -1.5804  0.1802
  125MOL0     H16464   3.321  -0.572   3.355 -1.4065 -1.5592  2.0049
  125MOL0     H16465   3.144  -0.666   3.495 -2.5112  0.6556  1.2068
  125MOL0     H16466   2.914  -0.598   3.591  0.5088 -0.4533  1.0876
  125MOL0     H16467   2.953  -0.767   3.597  0.7043  0.8899  0.4641
  125MOL0     H16468   2.670  -0.647   3.545 -1.8217  0.2227  1.1572
  125MOL0     H16469   2.733  -0.688   3.709  0.7721  1.1413  0.2393
  125MOL0     H16470   2.615  -0.881   3.660  1.5240  1.9502  0.9435
  125MOL0     H16471   2.779  -0.918   3.620  0.3150 -0.1291 -1.3807
  125MOL0     H16472   2.709  -0.884   3.361 -0.2683  1.9125  0.6246
  125MOL0     H16473   2.601  -0.996   3.454 -1.6842  1.2690 -0.1808
  125MOL0     H16474   2.573  -0.703   3.383  0.8297  0.2190 -1.0700
  125MOL0     H16475   2.452  -0.791   3.478 -1.8791 -0.0902 -1.4549
  125MOL0     H16476   2.434  -0.960   3.317  3.3052 -0.1356  1.1849
  125MOL0     H16477   2.533  -0.876   3.198  0.9448 -0.7150  1.4066
  125MOL0     H16478   2.265  -0.790   3.314  2.6471  0.6706  1.2469
  125MOL0     H16479   2.342  -0.679   3.201 -1.7496  0.3818  0.9851
  125MOL0     H16480   2.268  -0.942   3.081 -1.1566  0.2850 -1.0664
  125MOL0     H16481   2.307  -0.783   3.014 -2.6030  0.0652 -2.5815
  125MOL0     H16482   2.854  -0.570   3.178 -0.3234  0.9588  0.7590
  125MOL0     H16483   3.036  -0.474   3.046  3.5205 -2.0910 -2.3431
  125MOL0     H16484   3.375  -0.460   2.731 -0.2436  1.6204  0.4160
  125MOL0     H16485   3.586  -0.396   2.631 -0.3345  1.3226 -0.1978
  125MOL0     H16486   5.211   0.831   2.573 -0.9186 -0.9827  2.2310
  125MOL0     H16487   5.415   0.917   2.447 -0.5617 -2.2947 -0.7332
  125MOL0     H16488   5.759   0.943   2.334  0.5384  0.7854 -3.1482
  125MOL0     H16489   5.957   0.992   2.183  1.2020 -0.9768  0.1732
  125MOL0     H16490   6.118   1.321   2.106 -0.9994 -0.5851 -0.0739
  125MOL0     H16491   5.993   1.205   2.092 -0.7442  0.6945  0.1329
  125MOL0     H16492   6.161   1.046   2.010  0.9824 -0.4000 -1.2315
  125MOL0     H16493   6.109   1.177   1.907  0.4928 -2.2756 -1.2211
  125MOL0     H16494   6.328   1.300   1.965  0.6936  0.8720 -1.4404
  125MOL0     H16495   6.352   1.149   1.873  1.3467 -1.8748  1.1998
  125MOL0     H16496   6.517   1.188   2.067 -0.0917 -0.3871  0.7466
  125MOL0     H16497   6.385   1.171   2.177 -2.1003 -0.8343  0.4512
  125MOL0     H16498   6.487   0.771   2.015  0.2873  0.3890 -2.6945
  125MOL0     H16499   6.095   1.278   2.489 -0.5596 -1.5044  3.8794
  125MOL0     H16500   5.915   1.218   2.623 -3.4932 -1.7815  0.6697
  126MOL0     O16501   4.263   4.755   3.075  0.8413  0.1058  0.3704
  126MOL0     C16502   4.364   4.690   3.072 -0.0757  0.4038 -0.6962
  126MOL0     O16503   4.373   4.554   3.099  0.3386 -0.8775 -0.2963
  126MOL0     C16504   4.263   4.476   3.095  0.3085  0.0462  0.1738
  126MOL0     C16505   4.157   4.493   3.004  0.1132 -0.6011  0.0645
  126MOL0     C16506   4.034   4.418   3.024 -0.0771 -0.2710 -0.5240
  126MOL0     C16507   4.033   4.321   3.123 -0.7086  0.6328 -0.3364
  126MOL0     O16508   3.919   4.248   3.132  0.1633  0.6792  0.2099
  126MOL0     C16509   3.932   4.105   3.132 -0.6364 -0.2045 -0.6472
  126MOL0     C16510   3.817   4.025   3.085 -0.1877  0.3624  0.3078
  126MOL0     C16511   3.780   4.051   2.934  0.2308 -0.3082 -0.0681
  126MOL0     C16512   3.667   3.961   2.892  0.4679 -1.2072 -0.8612
  126MOL0     C16513   3.618   3.992   2.751  0.0101 -0.4880  0.5146
  126MOL0     C16514   3.524   3.878   2.706 -0.1788 -0.2074  0.0519
  126MOL0     C16515   3.484   3.877   2.554 -0.5569 -0.5077 -0.0823
  126MOL0     C16516   3.422   3.757   2.499 -0.6022  0.3328 -0.6352
  126MOL0     N16517   3.364   3.784   2.363  0.1447 -0.4321  0.1849
  126MOL0     C16518   3.264   3.874   2.334  0.1398 -0.2190 -0.4761
  126MOL0     C16519   3.242   3.866   2.200 -0.1400 -0.3952 -1.0281
  126MOL0     C16520   3.139   3.938   2.121 -0.6329 -0.3215 -1.1774
  126MOL0     C16521   3.042   3.839   2.055 -0.3479  0.3795 -0.2277
  126MOL0     C16522   2.960   3.915   1.954  0.0425  1.1261 -0.1176
  126MOL0     C16523   2.825   3.853   1.913 -0.2475  0.1175  0.3293
  126MOL0     O16524   2.757   3.951   1.831  0.4220  0.4320  0.4532
  126MOL0     C16525   2.637   3.915   1.784  0.6993 -1.2114 -0.2700
  126MOL0     C16526   2.569   3.790   1.808  0.2825  0.5714 -0.3124
  126MOL0     C16527   2.438   3.761   1.763  1.2756 -0.8398  0.8579
  126MOL0     C16528   2.383   3.852   1.665  0.4529  0.6182 -0.5003
  126MOL0     C16529   2.244   3.820   1.605  0.1218  0.7635  0.1151
  126MOL0     O16530   2.211   3.888   1.491 -0.7601 -0.1153  0.4054
  126MOL0     C16531   2.124   3.844   1.402  0.1888  0.2886  0.4208
  126MOL0     C16532   2.060   3.938   1.317 -0.0650 -0.5777 -0.5177
  126MOL0     C16533   1.981   3.903   1.210  0.3436  0.1762  0.1305
  126MOL0     C16534   1.938   3.774   1.193  0.5936  0.0394 -0.4817
  126MOL0     O16535   1.844   3.754   1.090 -0.0673 -0.3360 -0.4727
  126MOL0     C16536   1.831   3.622   1.036 -0.0077 -1.0707 -0.5038
  126MOL0     C16537   1.822   3.621   0.885  0.5969 -0.0140 -0.2317
  126MOL0     C16538   1.933   3.697   0.829 -0.4869 -1.1740 -0.9456
  126MOL0     C16539   1.930   3.706   0.675 -0.1661  0.7308  0.1346
  126MOL0     C16540   2.064   3.774   0.617 -0.5590 -0.0139  0.3299
  126MOL0     C16541   2.052   3.820   0.469 -0.1447 -0.1269  1.0527
  126MOL0     C16542   2.190   3.862   0.417  0.3212 -0.4000 -0.0968
  126MOL0     C16543   2.179   3.880   0.265 -1.2139  0.3551 -0.5953
  126MOL0    Cl16544   2.048   3.988   0.231  0.2970 -0.4759 -0.6823
  126MOL0     C16545   1.992   3.675   1.282  0.3750 -0.2256  0.2538
  126MOL0     C16546   2.085   3.707   1.382 -0.1783 -0.5009  0.3643
  126MOL0     O16547   2.190   3.723   1.649 -0.5047  0.2497 -0.1991
  126MOL0     C16548   2.446   3.978   1.636 -0.0902 -0.4327 -0.1215
  126MOL0     C16549   2.577   4.001   1.692 -0.4619 -0.9536  0.1112
  126MOL0     N16550   3.345   3.794   2.151  0.5253  0.9052  0.6450
  126MOL0     N16551   3.424   3.746   2.247  0.9201  0.0914  0.5085
  126MOL0     C16552   4.153   4.289   3.196 -0.5149  0.4964 -0.2122
  126MOL0     C16553   4.266   4.365   3.178 -0.8576  0.9498 -0.6351
  126MOL0     C16554   4.490   4.774   3.055  1.5763 -0.3239  0.5701
  126MOL0     C16555   4.611   4.733   3.087  1.1507 -0.1864 -0.2352
  126MOL0     C16556   4.732   4.807   3.056 -0.4266 -0.5084  0.0665
  126MOL0     C16557   4.720   4.936   3.007  0.2787 -0.8062  0.2619
  126MOL0     O16558   4.838   4.995   2.973 -0.7364  0.0608  0.2590
  126MOL0     C16559   4.855   5.136   2.986  0.1626  0.0474 -0.2651
  126MOL0     C16560   5.001   5.172   2.944 -0.3773  1.1286  0.2769
  126MOL0     C16561   5.096   5.097   3.044  0.4409 -0.5267  0.7394
  126MOL0     C16562   5.248   5.118   3.028  0.1330  0.2374 -0.5170
  126MOL0     C16563   5.294   5.239   3.096  0.0034  0.2461  0.6248
  126MOL0     C16564   5.328   5.347   3.135 -0.3581 -0.8711  0.3117
  126MOL0     C16565   4.591   4.996   2.979  0.0911 -0.2740 -0.8003
  126MOL0     C16566   4.481   4.907   2.995  0.4499 -0.0567  0.2351
  126MOL0     H16567   4.163   4.572   2.930  3.1818  1.2915  2.0860
  126MOL0     H16568   3.951   4.419   2.955 -1.1488 -1.0263  0.7055
  126MOL0     H16569   3.949   4.078   3.237 -4.2074  0.0747  0.1166
  126MOL0     H16570   4.015   4.072   3.068 -0.1906 -1.6627  0.6218
  126MOL0     H16571   3.731   4.038   3.152  0.4362 -0.6227  1.3249
  126MOL0     H16572   3.857   3.924   3.097  1.0386  0.9389  1.2599
  126MOL0     H16573   3.862   4.007   2.877  1.5893  0.7501  0.9873
  126MOL0     H16574   3.763   4.156   2.909  1.0279  0.5065  2.4791
  126MOL0     H16575   3.692   3.855   2.898  1.0851 -1.0026  0.4312
  126MOL0     H16576   3.587   3.972   2.965  1.3409  1.4399 -0.2106
  126MOL0     H16577   3.703   4.000   2.683  1.2610  1.6443  2.1789
  126MOL0     H16578   3.558   4.083   2.757 -2.6863 -2.2274  2.7269
  126MOL0     H16579   3.436   3.871   2.771  1.6725 -2.2207  2.5766
  126MOL0     H16580   3.583   3.787   2.720  1.8389  0.6782 -2.0999
  126MOL0     H16581   3.413   3.954   2.523 -0.9270 -1.7527 -2.5955
  126MOL0     H16582   3.576   3.894   2.497 -1.2473  1.8686 -0.6089
  126MOL0     H16583   3.352   3.719   2.574  1.1397 -1.6886  0.0593
  126MOL0     H16584   3.488   3.670   2.496 -0.4396  0.3452  1.2587
  126MOL0     H16585   3.203   3.933   2.402 -0.1644 -0.1505 -0.8018
  126MOL0     H16586   3.191   3.998   2.045  0.7846 -0.7931 -0.6246
  126MOL0     H16587   3.093   4.009   2.189 -1.7231 -0.5779 -1.6274
  126MOL0     H16588   2.984   3.799   2.139  0.0434 -0.1658 -0.2111
  126MOL0     H16589   3.090   3.747   2.019  1.6179  1.7575 -1.3151
  126MOL0     H16590   2.931   4.015   1.987 -3.6082  1.2086 -2.9168
  126MOL0     H16591   3.022   3.932   1.865  0.1863  2.1688  0.1671
  126MOL0     H16592   2.781   3.810   2.003  2.4449 -0.2119  1.5988
  126MOL0     H16593   2.843   3.766   1.849 -2.2975  0.7875 -1.2752
  126MOL0     H16594   2.622   3.716   1.866 -2.2837 -1.5217 -0.4558
  126MOL0     H16595   2.378   3.674   1.787 -0.5360  0.8303  2.7445
  126MOL0     H16596   2.082   4.039   1.349  1.8533 -1.5697  1.5887
  126MOL0     H16597   1.948   3.984   1.147 -0.9146  0.4953  1.1539
  126MOL0     H16598   1.735   3.583   1.071  0.5689 -1.9667  0.1323
  126MOL0     H16599   1.919   3.563   1.063  1.5806  1.1372 -0.6124
  126MOL0     H16600   1.722   3.659   0.864  0.7518  0.9104  0.6028
  126MOL0     H16601   1.831   3.519   0.846 -2.9736 -1.2748  1.8206
  126MOL0     H16602   2.030   3.658   0.862 -0.4495 -0.1411  0.2339
  126MOL0     H16603   1.936   3.797   0.874 -2.6712 -2.0995  1.5546
  126MOL0     H16604   1.932   3.609   0.626  2.4852  1.2111 -0.8778
  126MOL0     H16605   1.840   3.762   0.649  0.5348  2.2171  0.7941
  126MOL0     H16606   2.144   3.700   0.622  0.4077  0.9754 -0.1073
  126MOL0     H16607   2.087   3.856   0.686 -0.9767 -2.5748  3.7745
  126MOL0     H16608   1.989   3.908   0.451  2.9471  1.6719 -2.4629
  126MOL0     H16609   2.035   3.734   0.404 -3.2297 -0.7941  2.5614
  126MOL0     H16610   2.219   3.951   0.473 -0.0913  0.4998 -1.2744
  126MOL0     H16611   2.260   3.780   0.438 -1.9842 -3.2757 -2.7255
  126MOL0     H16612   2.173   3.783   0.216 -0.0500  0.6148 -1.3036
  126MOL0     H16613   2.272   3.923   0.227 -2.1407  0.4226 -2.9945
  126MOL0     H16614   1.946   3.577   1.274  0.4507 -0.0815 -3.9334
  126MOL0     H16615   2.124   3.634   1.452 -1.0830 -2.0555 -0.6962
  126MOL0     H16616   2.398   4.043   1.564  1.5523  0.5183 -0.4210
  126MOL0     H16617   2.615   4.099   1.666  1.8327 -1.9267 -0.4175
  126MOL0     H16618   4.147   4.211   3.271 -0.2795 -0.8019 -1.5105
  126MOL0     H16619   4.347   4.358   3.250 -0.8308  1.3583 -0.6254
  126MOL0     H16620   4.635   4.634   3.125 -0.1172 -0.4765 -0.1654
  126MOL0     H16621   4.835   4.774   3.071  0.7345  3.6566  3.1241
  126MOL0     H16622   4.845   5.169   3.090  0.3268 -0.3735 -0.1138
  126MOL0     H16623   4.782   5.183   2.919  0.7637  0.6366 -0.5165
  126MOL0     H16624   5.021   5.144   2.841  2.7313  1.3281  0.7275
  126MOL0     H16625   5.027   5.278   2.949  0.9975  1.1377 -3.8350
  126MOL0     H16626   5.072   4.992   3.024 -3.6511  0.4523 -0.4946
  126MOL0     H16627   5.071   5.117   3.149  1.5020 -2.8922  1.5059
  126MOL0     H16628   5.294   5.028   3.070 -0.2384 -0.6033 -1.8686
  126MOL0     H16629   5.282   5.109   2.925  3.6521 -0.2759  0.5446
  126MOL0     H16630   5.347   5.448   3.168 -0.0111 -0.5929 -0.7058
  126MOL0     H16631   4.572   5.096   2.941 -1.3543 -0.6834 -1.2421
  126MOL0     H16632   4.381   4.933   2.961 -0.4995 -1.8572  1.4927
  127MOL0     O16633   3.596   9.083   3.455 -0.4325 -0.7944  0.0276
  127MOL0     C16634   3.665   9.188   3.467  0.1150 -0.1771  0.2095
  127MOL0     O16635   3.614   9.319   3.468 -0.3656 -0.2584 -0.0845
  127MOL0     C16636   3.481   9.335   3.449 -0.7172 -1.0041 -0.1546
  127MOL0     C16637   3.387   9.279   3.355  1.0787  0.5567 -0.3254
  127MOL0     C16638   3.255   9.334   3.341 -0.3487  0.0737  0.2465
  127MOL0     C16639   3.214   9.427   3.442  0.1021  0.4264 -0.1959
  127MOL0     O16640   3.078   9.460   3.457 -0.5604 -0.1101 -0.6406
  127MOL0     C16641   3.038   9.597   3.446 -0.5319  0.1580  0.4925
  127MOL0     C16642   2.895   9.611   3.401  0.7085  0.6961 -0.0031
  127MOL0     C16643   2.797   9.538   3.487  0.0617  0.6145  0.5122
  127MOL0     C16644   2.659   9.582   3.443 -0.1304  0.0113  0.5241
  127MOL0     C16645   2.558   9.541   3.541 -1.0043 -0.1042 -0.0702
  127MOL0     C16646   2.415   9.552   3.493 -0.1771  0.2113  0.6283
  127MOL0     C16647   2.367   9.693   3.450  0.1298 -0.0032  0.6373
  127MOL0     C16648   2.221   9.686   3.404  0.1146  0.4478 -0.4757
  127MOL0     N16649   2.175   9.819   3.378 -0.0291  0.0567 -0.1116
  127MOL0     C16650   2.168   9.878   3.252  0.3905 -0.2996  0.3987
  127MOL0     C16651   2.108   9.999   3.280  1.3087 -0.1089 -0.2088
  127MOL0     C16652   2.092  10.115   3.203 -0.5032  0.1854  0.4817
  127MOL0     C16653   1.938  10.132   3.160 -0.2792  0.0075  0.0926
  127MOL0     C16654   1.848  10.207   3.266 -0.1869 -0.1755  0.6106
  127MOL0     C16655   1.698  10.189   3.243  0.5251 -0.4679 -0.3018
  127MOL0     O16656   1.656  10.055   3.258  0.0301 -0.0116 -1.0165
  127MOL0     C16657   1.525  10.031   3.277  0.6837 -0.0799 -0.1588
  127MOL0     C16658   1.495   9.907   3.329  0.3713  0.0030  0.5702
  127MOL0     C16659   1.358   9.873   3.358 -0.8417 -0.4242  0.3489
  127MOL0     C16660   1.253   9.963   3.338  0.4938  0.4310  1.0359
  127MOL0     C16661   1.111   9.924   3.352  0.0054  0.7566 -0.0220
  127MOL0     O16662   1.079   9.790   3.363 -0.2819 -0.2429  0.2464
  127MOL0     C16663   0.965   9.751   3.438 -0.9473 -0.6494  1.6528
  127MOL0     C16664   0.881   9.647   3.384 -0.3531  0.5625 -0.0432
  127MOL0     C16665   0.764   9.600   3.458 -0.3791  0.2489  0.6948
  127MOL0     C16666   0.736   9.651   3.582  0.1204 -0.1861 -0.7927
  127MOL0     O16667   0.639   9.596   3.655 -0.3179 -0.3970 -0.6869
  127MOL0     C16668   0.536   9.683   3.708  0.3991 -0.3765  1.0281
  127MOL0     C16669   0.415   9.636   3.617  0.1989  0.0880  0.2415
  127MOL0     C16670   0.292   9.716   3.644  0.2509  0.5563  0.0043
  127MOL0     C16671   0.173   9.637   3.581 -0.3958 -0.3610  0.3805
  127MOL0     C16672   0.035   9.711   3.593 -0.1028 -0.4555  0.4519
  127MOL0     C16673  -0.053   9.693   3.717  0.6110  0.0832 -0.7857
  127MOL0     C16674  -0.015   9.781   3.840  0.3189  0.2347 -0.0405
  127MOL0     C16675  -0.034   9.936   3.811 -0.6996 -0.6081 -0.2852
  127MOL0    Cl16676  -0.198   9.984   3.761 -0.1250  0.1286  0.2912
  127MOL0     C16677   0.815   9.761   3.620  0.2757  1.1260 -0.6360
  127MOL0     C16678   0.940   9.802   3.563  0.6406 -0.4022 -0.1993
  127MOL0     O16679   1.029  10.021   3.366 -0.4033  0.3937  0.4975
  127MOL0     C16680   1.285  10.091   3.295 -0.3157  0.4753  0.0137
  127MOL0     C16681   1.423  10.124   3.270  0.2148 -0.3684  0.6558
  127MOL0     N16682   2.054   9.999   3.405 -1.0742  0.2459  0.4163
  127MOL0     N16683   2.101   9.894   3.468  1.2593 -0.2255  0.2822
  127MOL0     C16684   3.300   9.480   3.543 -0.2515 -0.3057 -0.9077
  127MOL0     C16685   3.438   9.445   3.526  0.1211  0.1382 -0.1802
  127MOL0     C16686   3.807   9.172   3.500  0.6196  0.5303  0.4409
  127MOL0     C16687   3.870   9.047   3.499  0.0832  0.8790 -1.0676
  127MOL0     C16688   4.009   9.033   3.533  1.2962 -0.5352 -0.3880
  127MOL0     C16689   4.080   9.141   3.573 -0.0117  0.5002 -0.4370
  127MOL0     O16690   4.218   9.125   3.598 -0.1695 -0.2964 -0.0405
  127MOL0     C16691   4.283   9.002   3.592 -0.5648  0.3108 -0.2619
  127MOL0     C16692   4.264   8.921   3.715 -0.0784 -0.7753 -0.0425
  127MOL0     C16693   4.339   8.979   3.835  0.6633  0.2259  0.7242
  127MOL0     C16694   4.488   8.959   3.844 -0.2413  0.5369 -0.9301
  127MOL0     C16695   4.535   8.826   3.825  0.4949 -0.7392  0.1360
  127MOL0     C16696   4.561   8.709   3.794  0.0690 -0.8687  0.1965
  127MOL0     C16697   4.024   9.267   3.578  0.1829 -0.0811  0.6917
  127MOL0     C16698   3.886   9.282   3.546  0.2051 -0.1403 -0.5013
  127MOL0     H16699   3.433   9.204   3.292  1.6478 -2.5166  3.3895
  127MOL0     H16700   3.194   9.297   3.260  0.8050  1.1876 -1.1773
  127MOL0     H16701   3.104   9.664   3.390  2.3715 -0.7873  2.5365
  127MOL0     H16702   3.036   9.642   3.545  1.4791 -1.2576  1.2488
  127MOL0     H16703   2.881   9.566   3.303  2.5236  0.4085 -0.1577
  127MOL0     H16704   2.861   9.715   3.400  1.1432  0.8543  0.9442
  127MOL0     H16705   2.814   9.558   3.594  1.0531  3.7115 -0.1214
  127MOL0     H16706   2.807   9.432   3.461  0.2218  0.8261 -0.3059
  127MOL0     H16707   2.654   9.691   3.438 -2.6661 -0.0363  0.6067
  127MOL0     H16708   2.626   9.554   3.342  0.6383  2.5727 -0.5186
  127MOL0     H16709   2.562   9.594   3.636  0.4497  0.2956 -0.3386
  127MOL0     H16710   2.572   9.436   3.570 -0.0096 -0.4420 -1.6206
  127MOL0     H16711   2.357   9.508   3.575  0.4561 -1.7209  0.1005
  127MOL0     H16712   2.402   9.482   3.409  1.0033  0.6794  0.0329
  127MOL0     H16713   2.392   9.755   3.536  1.3657  2.5460 -1.4297
  127MOL0     H16714   2.431   9.724   3.367  0.5866 -0.3123  0.8675
  127MOL0     H16715   2.161   9.632   3.478  2.6983 -2.6189 -0.4338
  127MOL0     H16716   2.215   9.635   3.307  0.0792  1.8621 -1.2429
  127MOL0     H16717   2.217   9.848   3.161  0.0720  1.2624 -0.3339
  127MOL0     H16718   2.159  10.118   3.117  1.5281 -0.3079  1.9694
  127MOL0     H16719   2.119  10.204   3.261 -1.8766 -0.7441  2.6597
  127MOL0     H16720   1.898  10.032   3.145 -2.0737  0.3146  2.3590
  127MOL0     H16721   1.932  10.186   3.065  1.8887  0.0194 -0.0904
  127MOL0     H16722   1.873  10.176   3.368  3.2008 -1.4787 -0.4857
  127MOL0     H16723   1.871  10.314   3.264 -0.3724 -0.0633  2.6259
  127MOL0     H16724   1.666  10.212   3.141 -0.6772 -0.8237 -0.0324
  127MOL0     H16725   1.645  10.252   3.316  1.7815 -1.1222  1.2300
  127MOL0     H16726   1.579   9.840   3.346 -1.2746 -2.2518  0.1625
  127MOL0     H16727   1.343   9.767   3.375 -1.5537 -0.9718 -3.0540
  127MOL0     H16728   0.911   9.596   3.293 -1.0575  2.4515 -1.4116
  127MOL0     H16729   0.718   9.511   3.415 -2.0859  1.2695  0.3150
  127MOL0     H16730   0.569   9.784   3.682 -2.5077  0.2482 -0.6724
  127MOL0     H16731   0.522   9.667   3.815 -2.2043  0.5607  0.8910
  127MOL0     H16732   0.404   9.528   3.617  0.8214 -0.1653 -4.1913
  127MOL0     H16733   0.450   9.664   3.517  0.3858  0.6073  0.4483
  127MOL0     H16734   0.304   9.815   3.600  1.4292  0.7309  0.6866
  127MOL0     H16735   0.264   9.743   3.746 -4.0612  1.3341 -1.1753
  127MOL0     H16736   0.181   9.633   3.472  0.0570 -2.8667  0.4262
  127MOL0     H16737   0.160   9.535   3.619  2.2470  0.1710  3.1433
  127MOL0     H16738  -0.031   9.679   3.512  1.3254 -1.2977 -0.4156
  127MOL0     H16739   0.052   9.815   3.561  1.4908 -0.8961 -0.2387
  127MOL0     H16740  -0.050   9.586   3.738  1.2146 -0.4506 -3.3290
  127MOL0     H16741  -0.158   9.709   3.692  1.1093  0.3221 -2.9382
  127MOL0     H16742  -0.076   9.753   3.926  1.2939  0.2078  0.6707
  127MOL0     H16743   0.089   9.760   3.867  0.1697  0.8798  1.0874
  127MOL0     H16744   0.033   9.964   3.730  1.0208  0.7530  1.5193
  127MOL0     H16745  -0.008   9.995   3.899 -2.1868  1.4435 -1.1616
  127MOL0     H16746   0.797   9.808   3.716  2.0802 -1.8773  1.3306
  127MOL0     H16747   0.998   9.886   3.600 -0.3876  0.0561  0.4177
  127MOL0     H16748   1.216  10.166   3.259 -2.3737 -3.2854 -4.9779
  127MOL0     H16749   1.431  10.226   3.234  2.1244 -0.6168  0.2692
  127MOL0     H16750   3.278   9.571   3.597  3.6995 -0.2258  0.9750
  127MOL0     H16751   3.515   9.506   3.572  1.1194 -1.0773 -0.1693
  127MOL0     H16752   3.815   8.956   3.476 -1.1665  2.1659 -3.4365
  127MOL0     H16753   4.043   8.931   3.516  0.7759 -0.3494 -2.8537
  127MOL0     H16754   4.391   9.018   3.578 -0.4438  2.7972  2.5843
  127MOL0     H16755   4.253   8.951   3.500  0.8238 -2.1733  0.5820
  127MOL0     H16756   4.158   8.922   3.742 -0.8701  2.8482 -2.6142
  127MOL0     H16757   4.293   8.817   3.701 -0.2089 -0.8754  0.4163
  127MOL0     H16758   4.297   8.922   3.918  0.7317  0.8428  1.1931
  127MOL0     H16759   4.314   9.086   3.841 -2.8526 -0.2156 -2.3504
  127MOL0     H16760   4.526   9.016   3.760  0.3763 -1.2211 -1.8921
  127MOL0     H16761   4.529   9.002   3.936 -1.6330  0.1625 -0.1028
  127MOL0     H16762   4.586   8.610   3.760  1.5252 -1.1246  1.8786
  127MOL0     H16763   4.096   9.346   3.598  1.9064 -1.1661 -0.8711
  127MOL0     H16764   3.842   9.380   3.559 -1.1976 -0.6843 -0.8681
  128MOL0     O16765   5.902   6.706   5.180 -0.9911  1.0855 -0.2907
  128MOL0     C16766   5.842   6.797   5.117  0.3340 -0.1187 -1.0600
  128MOL0     O16767   5.902   6.908   5.066 -0.2742  0.1095  0.5668
  128MOL0     C16768   6.038   6.926   5.051 -0.5649  0.6269  0.0023
  128MOL0     C16769   6.127   6.829   4.993  0.3589 -0.5616  0.5691
  128MOL0     C16770   6.258   6.855   4.957 -0.2072 -0.8003  0.1739
  128MOL0     C16771   6.314   6.978   4.977  0.2692  0.2049  0.5213
  128MOL0     O16772   6.442   6.999   4.944 -0.6020  0.1875  0.9406
  128MOL0     C16773   6.512   7.119   4.979  0.0322  0.3912 -0.6636
  128MOL0     C16774   6.617   7.150   4.876  0.3713  0.0280 -0.3956
  128MOL0     C16775   6.566   7.252   4.769  1.0953  0.4861 -0.0627
  128MOL0     C16776   6.642   7.245   4.638 -0.3306  0.3017 -0.5504
  128MOL0     C16777   6.602   7.356   4.542 -0.2605 -0.4943  0.2127
  128MOL0     C16778   6.686   7.340   4.417  0.9396 -0.2377  0.1602
  128MOL0     C16779   6.830   7.374   4.430  0.1192 -1.3426 -1.7653
  128MOL0     C16780   6.860   7.533   4.437  0.1056  0.5474 -0.4540
  128MOL0     N16781   6.999   7.571   4.448  0.2165  0.3006  0.3811
  128MOL0     C16782   7.095   7.542   4.352  0.1699 -0.5937  0.3193
  128MOL0     C16783   7.205   7.602   4.398  0.3657  0.6270  0.0642
  128MOL0     C16784   7.333   7.628   4.326 -0.3899  0.8798 -0.6618
  128MOL0     C16785   7.370   7.499   4.246  0.9141 -0.3080 -0.1763
  128MOL0     C16786   7.384   7.368   4.323 -0.4176  0.3845  0.5473
  128MOL0     C16787   7.488   7.390   4.444  0.0150 -1.0422 -0.2997
  128MOL0     O16788   7.499   7.270   4.522 -0.0364  0.2530 -0.4816
  128MOL0     C16789   7.390   7.218   4.586 -0.0144 -0.0053 -0.6182
  128MOL0     C16790   7.272   7.297   4.613 -0.0482  0.2125  0.1753
  128MOL0     C16791   7.161   7.227   4.674 -1.1032  0.0954  0.3486
  128MOL0     C16792   7.168   7.086   4.708 -0.0297 -0.6135  0.2903
  128MOL0     C16793   7.060   7.009   4.771  0.1506 -1.0836 -0.0760
  128MOL0     O16794   7.055   6.874   4.764  0.1015 -0.4596  0.1867
  128MOL0     C16795   6.953   6.809   4.821  0.1714  0.7250  0.1961
  128MOL0     C16796   6.813   6.829   4.817 -0.4015 -0.3416  0.4866
  128MOL0     C16797   6.722   6.754   4.893 -0.8074 -0.2025 -0.2616
  128MOL0     C16798   6.765   6.651   4.977 -0.4420 -0.6880 -0.4399
  128MOL0     O16799   6.688   6.559   5.041  0.2237  0.5386 -0.8117
  128MOL0     C16800   6.546   6.586   5.035 -0.4116  0.5336  0.3084
  128MOL0     C16801   6.473   6.476   5.121  0.5458 -0.5670  0.1472
  128MOL0     C16802   6.332   6.463   5.078 -0.2142 -0.0822  0.6037
  128MOL0     C16803   6.258   6.371   5.173 -0.4861 -0.6915 -0.1407
  128MOL0     C16804   6.111   6.371   5.138  0.2701  0.3762  0.3166
  128MOL0     C16805   6.035   6.312   5.251 -0.7061  0.2767 -0.2575
  128MOL0     C16806   5.891   6.315   5.218 -0.3560 -0.8045  0.1725
  128MOL0     C16807   5.807   6.222   5.317  0.5052 -0.4159 -0.2880
  128MOL0    Cl16808   5.745   6.081   5.232  0.1217 -0.1081  0.0584
  128MOL0     C16809   6.896   6.622   4.972  0.1585  0.3098  0.9413
  128MOL0     C16810   6.993   6.697   4.904  1.0239  0.0502  0.1814
  128MOL0     O16811   6.978   7.080   4.832  0.0737  0.2523  0.3147
  128MOL0     C16812   7.291   7.021   4.689  0.7965  1.0746  0.4347
  128MOL0     C16813   7.403   7.087   4.627  0.4334 -0.3468 -0.2168
  128MOL0     N16814   7.184   7.646   4.528 -0.2919  0.1762 -0.2817
  128MOL0     N16815   7.058   7.630   4.546 -0.0028  0.6843 -0.7765
  128MOL0     C16816   6.235   7.077   5.032  0.8596  0.2359 -0.2837
  128MOL0     C16817   6.099   7.052   5.076  0.6207 -0.4930 -1.3310
  128MOL0     C16818   5.691   6.788   5.114 -0.4074 -0.1741 -0.0352
  128MOL0     C16819   5.632   6.666   5.111  0.4855 -0.2167  0.3123
  128MOL0     C16820   5.490   6.663   5.126  0.5983  0.5254 -0.2510
  128MOL0     C16821   5.415   6.784   5.152  0.2705  0.7243  0.4974
  128MOL0     O16822   5.286   6.753   5.193  0.1229 -0.4223  0.4731
  128MOL0     C16823   5.186   6.856   5.218  0.0553 -0.0428  0.2275
  128MOL0     C16824   5.096   6.817   5.337  0.0074 -0.4203  0.7948
  128MOL0     C16825   5.034   6.677   5.301  0.0146  0.2730 -0.4314
  128MOL0     C16826   4.921   6.639   5.395 -0.0772  0.6136  0.2930
  128MOL0     C16827   4.849   6.533   5.336 -0.4074 -0.2855 -0.1862
  128MOL0     C16828   4.761   6.461   5.284  0.3405  0.2024  1.3175
  128MOL0     C16829   5.478   6.906   5.148  1.0404 -1.0593  0.5342
  128MOL0     C16830   5.616   6.911   5.131  0.3780  0.3443  0.0069
  128MOL0     H16831   6.089   6.733   4.963 -1.0289 -0.4424  1.8166
  128MOL0     H16832   6.319   6.780   4.908 -1.0957 -1.1365 -0.4578
  128MOL0     H16833   6.553   7.108   5.079  4.4244  3.5472 -1.8279
  128MOL0     H16834   6.448   7.207   4.988  0.7919  0.9130 -0.2551
  128MOL0     H16835   6.663   7.058   4.840  0.9819 -1.0617  2.8714
  128MOL0     H16836   6.697   7.202   4.928  0.7144 -2.1567  1.3776
  128MOL0     H16837   6.573   7.354   4.807  1.4383  1.0427 -1.5494
  128MOL0     H16838   6.462   7.230   4.741  0.4993  0.9735  1.6812
  128MOL0     H16839   6.749   7.251   4.660 -0.1985  0.5163 -1.2296
  128MOL0     H16840   6.640   7.150   4.585  1.5302  1.0630 -2.0783
  128MOL0     H16841   6.638   7.450   4.586  2.2176  0.3531 -3.2113
  128MOL0     H16842   6.496   7.362   4.515  0.0209  1.1332 -0.6944
  128MOL0     H16843   6.642   7.401   4.338  3.1150 -2.8916 -3.3881
  128MOL0     H16844   6.681   7.238   4.378 -0.2586  0.1238 -0.6854
  128MOL0     H16845   6.859   7.324   4.523 -2.4972  4.6738  2.9898
  128MOL0     H16846   6.891   7.338   4.346  2.0184  0.0002 -1.0210
  128MOL0     H16847   6.807   7.593   4.513 -0.3857  1.9403 -1.8421
  128MOL0     H16848   6.822   7.565   4.339  2.5125 -0.6791 -1.8654
  128MOL0     H16849   7.080   7.502   4.252 -1.0118 -0.7014  0.5273
  128MOL0     H16850   7.404   7.649   4.407 -0.2686 -1.2617 -0.1614
  128MOL0     H16851   7.305   7.715   4.267 -3.8463  1.1416  1.0940
  128MOL0     H16852   7.470   7.508   4.202  1.5919 -1.8065  1.0022
  128MOL0     H16853   7.299   7.491   4.163  1.3657 -1.4292 -0.4630
  128MOL0     H16854   7.289   7.330   4.362 -2.0672  1.3747 -2.2234
  128MOL0     H16855   7.425   7.294   4.254 -3.8392  2.3817 -4.1300
  128MOL0     H16856   7.457   7.477   4.502  0.9679  1.8109 -3.6894
  128MOL0     H16857   7.582   7.431   4.405 -1.8243  4.4815  0.2286
  128MOL0     H16858   7.259   7.402   4.588  0.0936  0.7676  2.2333
  128MOL0     H16859   7.065   7.275   4.690 -0.9364 -0.4269  3.5499
  128MOL0     H16860   6.777   6.899   4.742  0.2518 -0.1552  0.3444
  128MOL0     H16861   6.622   6.797   4.890 -0.0518  1.6277 -2.2480
  128MOL0     H16862   6.515   6.590   4.930 -2.1965  2.0801  0.8578
  128MOL0     H16863   6.513   6.683   5.073 -2.8007  1.0391 -2.6809
  128MOL0     H16864   6.471   6.517   5.223 -2.2873 -3.4631  1.4455
  128MOL0     H16865   6.529   6.383   5.109  0.3089 -0.8900  1.3517
  128MOL0     H16866   6.314   6.417   4.980 -2.7665 -1.0319  1.4293
  128MOL0     H16867   6.298   6.567   5.084  1.6716  0.4991  2.3458
  128MOL0     H16868   6.297   6.269   5.184  2.9125  0.4808 -0.2164
  128MOL0     H16869   6.275   6.416   5.271 -1.3589 -3.1410  1.2229
  128MOL0     H16870   6.092   6.300   5.057  1.6427 -0.7118  0.9178
  128MOL0     H16871   6.070   6.469   5.110 -0.6589 -0.4299 -1.3013
  128MOL0     H16872   6.050   6.365   5.347 -0.2798  0.3335 -0.3499
  128MOL0     H16873   6.072   6.210   5.264  0.7549  0.8023  0.0068
  128MOL0     H16874   5.855   6.418   5.227  0.6426 -0.2358 -1.8338
  128MOL0     H16875   5.873   6.277   5.117 -1.4218 -0.7425  0.3280
  128MOL0     H16876   5.716   6.272   5.350 -0.9436 -3.7693  1.3109
  128MOL0     H16877   5.851   6.193   5.413 -0.2670 -1.5749 -0.2614
  128MOL0     H16878   6.945   6.537   5.018 -0.3691 -0.1204  0.7155
  128MOL0     H16879   7.097   6.666   4.904  0.9663 -0.2262 -1.6242
  128MOL0     H16880   7.312   6.923   4.730  0.6964  2.3554  3.9069
  128MOL0     H16881   7.497   7.035   4.606  0.8464  0.9202 -1.6714
  128MOL0     H16882   6.267   7.179   5.050  2.0763  0.0132 -1.0094
  128MOL0     H16883   6.032   7.128   5.115  0.5372 -0.8144 -0.8369
  128MOL0     H16884   5.684   6.578   5.076 -1.5193 -0.6436 -1.8342
  128MOL0     H16885   5.431   6.572   5.117  0.4429  0.6404 -0.4075
  128MOL0     H16886   5.134   6.884   5.126  1.0436  0.5472 -0.1620
  128MOL0     H16887   5.233   6.948   5.254  0.5203  0.0388 -0.5726
  128MOL0     H16888   5.152   6.803   5.430  0.0432  2.0098  1.1974
  128MOL0     H16889   5.022   6.895   5.359 -0.9313 -0.9823 -0.2527
  128MOL0     H16890   5.115   6.605   5.316 -0.8265 -0.9878 -1.6023
  128MOL0     H16891   4.997   6.671   5.198 -1.8593  1.6713  0.1058
  128MOL0     H16892   4.954   6.601   5.492 -1.1408 -0.8728  0.1191
  128MOL0     H16893   4.852   6.722   5.409  0.9686  1.2107  2.2582
  128MOL0     H16894   4.687   6.400   5.237  1.2604  0.9886 -1.3144
  128MOL0     H16895   5.424   6.996   5.178  1.4259 -1.5134  2.8294
  128MOL0     H16896   5.653   7.013   5.136 -1.0357  0.8635  0.5759
  129MOL0     O16897   7.111   8.718   1.079  0.2631  0.3511 -0.3800
  129MOL0     C16898   7.161   8.719   1.193  0.3543  0.1208  0.2067
  129MOL0     O16899   7.109   8.741   1.317 -0.1898 -0.2574 -0.2416
  129MOL0     C16900   6.974   8.775   1.342 -0.7190  0.2979 -0.5171
  129MOL0     C16901   6.871   8.740   1.254 -0.2244  0.8459 -0.6200
  129MOL0     C16902   6.740   8.777   1.287 -0.0104  0.4966 -0.5428
  129MOL0     C16903   6.699   8.830   1.410 -0.6283  0.2521  0.4595
  129MOL0     O16904   6.574   8.860   1.439  0.4464 -0.6572 -0.5929
  129MOL0     C16905   6.484   8.748   1.455 -0.2297 -0.3255 -0.8591
  129MOL0     C16906   6.364   8.795   1.382 -0.2247 -0.0143  1.4379
  129MOL0     C16907   6.268   8.672   1.346 -0.6536 -1.1099 -0.3077
  129MOL0     C16908   6.217   8.596   1.465  0.0080  0.3039  0.2483
  129MOL0     C16909   6.140   8.690   1.557 -0.1110 -0.0043 -0.4339
  129MOL0     C16910   6.090   8.609   1.676  0.5571  0.0490  0.0524
  129MOL0     C16911   6.034   8.693   1.791 -0.5485  0.4871  0.0004
  129MOL0     C16912   6.018   8.585   1.905  0.2364 -0.1081  0.7804
  129MOL0     N16913   5.963   8.639   2.031 -0.5026  0.5813  0.5855
  129MOL0     C16914   5.874   8.737   2.042 -0.2781  0.2639 -0.1768
  129MOL0     C16915   5.895   8.779   2.169  0.2349 -0.6414  0.4708
  129MOL0     C16916   5.811   8.882   2.237 -0.1254  0.2362 -0.1872
  129MOL0     C16917   5.726   8.822   2.349 -0.1256  0.1776 -0.6389
  129MOL0     C16918   5.610   8.916   2.411 -0.2456  0.2607 -0.1906
  129MOL0     C16919   5.483   8.843   2.454 -0.1937  0.2801  0.2342
  129MOL0     O16920   5.516   8.734   2.547  0.7644  0.0501 -0.0834
  129MOL0     C16921   5.404   8.670   2.601 -0.1609 -0.5605  0.2530
  129MOL0     C16922   5.262   8.698   2.576 -0.7045  0.7108 -0.3155
  129MOL0     C16923   5.161   8.623   2.643  0.5472  0.4198 -0.7138
  129MOL0     C16924   5.194   8.509   2.722 -0.2977 -0.3253  0.3222
  129MOL0     C16925   5.089   8.439   2.784  0.2570 -0.8990 -0.1829
  129MOL0     O16926   4.963   8.501   2.791 -0.1637 -0.7034 -0.1448
  129MOL0     C16927   4.866   8.419   2.830 -0.1014 -0.1447 -0.2673
  129MOL0     C16928   4.834   8.291   2.777  0.0971 -0.0718  0.1457
  129MOL0     C16929   4.713   8.225   2.806  0.3470 -0.4422 -0.6381
  129MOL0     C16930   4.615   8.282   2.893 -0.7041  0.2809 -0.2651
  129MOL0     O16931   4.488   8.229   2.908 -0.1444  0.2408 -0.2880
  129MOL0     C16932   4.448   8.114   2.829 -1.0067  0.4864  0.3447
  129MOL0     C16933   4.312   8.064   2.885 -0.2130  0.3031  0.3066
  129MOL0     C16934   4.199   8.179   2.887 -0.7059 -0.4143 -0.0283
  129MOL0     C16935   4.053   8.119   2.885 -0.4550 -0.3206 -0.8628
  129MOL0     C16936   3.945   8.218   2.824 -0.6058  0.5043  0.3688
  129MOL0     C16937   3.821   8.204   2.916 -0.0589 -0.2977 -0.3299
  129MOL0     C16938   3.695   8.194   2.832 -0.2469  0.6509  0.3306
  129MOL0     C16939   3.567   8.199   2.907  0.1718 -0.2716  0.5407
  129MOL0    Cl16940   3.419   8.222   2.810 -0.2089 -0.3450 -0.1786
  129MOL0     C16941   4.653   8.397   2.947 -0.1944  0.2197 -1.0589
  129MOL0     C16942   4.770   8.460   2.917 -0.0177 -0.3249 -0.1661
  129MOL0     O16943   5.117   8.330   2.835 -0.7538 -0.3438  0.5990
  129MOL0     C16944   5.331   8.478   2.750 -0.1509  0.0972  0.3538
  129MOL0     C16945   5.426   8.560   2.690 -1.0761 -0.0691  0.9762
  129MOL0     N16946   6.007   8.722   2.222  0.5616  0.3510  0.3164
  129MOL0     N16947   6.048   8.635   2.141 -1.0204  0.1361 -0.5142
  129MOL0     C16948   6.813   8.860   1.495  0.1360 -0.3021  0.3848
  129MOL0     C16949   6.945   8.831   1.464 -0.7082  0.4856  0.0378
  129MOL0     C16950   7.314   8.697   1.203  1.0834  0.4259 -0.6290
  129MOL0     C16951   7.386   8.671   1.318  0.8757 -0.3257 -1.1753
  129MOL0     C16952   7.522   8.636   1.314 -0.5338 -0.1804  0.6798
  129MOL0     C16953   7.592   8.649   1.198  0.5304  0.3679  0.2198
  129MOL0     O16954   7.723   8.616   1.200 -0.0595  0.4589 -0.1987
  129MOL0     C16955   7.816   8.718   1.150 -0.3389 -0.2313 -1.2469
  129MOL0     C16956   7.869   8.783   1.275 -0.3790 -0.7121 -0.4039
  129MOL0     C16957   7.981   8.886   1.248 -0.9531  0.2895 -0.5391
  129MOL0     C16958   8.002   8.982   1.371  0.3007  0.2667  0.8134
  129MOL0     C16959   8.022   8.909   1.496  0.1806  0.0348  1.1362
  129MOL0     C16960   8.042   8.857   1.605  0.5414  0.4797 -0.4821
  129MOL0     C16961   7.521   8.667   1.082  0.1248 -0.5017  0.3126
  129MOL0     C16962   7.379   8.685   1.086  0.2034 -0.3379 -0.3901
  129MOL0     H16963   6.897   8.700   1.156  2.9810 -1.5173  1.0194
  129MOL0     H16964   6.658   8.757   1.219  0.4465 -3.0413 -0.2468
  129MOL0     H16965   6.464   8.726   1.561 -0.6338 -0.7586 -1.0234
  129MOL0     H16966   6.531   8.660   1.410 -0.3589 -1.3327  0.8733
  129MOL0     H16967   6.392   8.848   1.291  1.0966 -0.7957  1.3664
  129MOL0     H16968   6.311   8.869   1.443 -1.6353 -1.2396  1.7656
  129MOL0     H16969   6.326   8.606   1.281  0.9731 -0.1108  0.0510
  129MOL0     H16970   6.182   8.720   1.298 -0.0248 -0.1259 -0.4894
  129MOL0     H16971   6.144   8.521   1.431  1.9375 -0.6007 -2.2936
  129MOL0     H16972   6.297   8.537   1.510  0.4945  0.1923 -0.7327
  129MOL0     H16973   6.059   8.741   1.503 -1.7591 -1.4126  0.6279
  129MOL0     H16974   6.200   8.767   1.606  0.6041 -1.8188  1.6645
  129MOL0     H16975   6.175   8.553   1.716  1.4821  0.8872 -0.6868
  129MOL0     H16976   6.012   8.542   1.640 -0.4163  0.8898  0.5693
  129MOL0     H16977   6.102   8.765   1.838 -2.5438  0.4611  3.2683
  129MOL0     H16978   5.948   8.754   1.758  0.2376  1.9478  0.5539
  129MOL0     H16979   6.119   8.546   1.920  0.8379  0.2024 -1.9370
  129MOL0     H16980   5.958   8.501   1.869  1.9253 -0.4111 -1.5422
  129MOL0     H16981   5.805   8.760   1.961  0.9756 -0.1267 -1.3991
  129MOL0     H16982   5.743   8.940   2.174 -1.4306 -1.0243  0.0181
  129MOL0     H16983   5.872   8.961   2.282 -0.9214  2.2352 -2.3775
  129MOL0     H16984   5.790   8.797   2.434  3.7173  0.5487 -3.1707
  129MOL0     H16985   5.670   8.736   2.311  2.9966 -1.7846 -1.1524
  129MOL0     H16986   5.658   8.959   2.499 -0.6276 -0.5455  0.4200
  129MOL0     H16987   5.569   8.992   2.343  2.3427  2.1619  0.2154
  129MOL0     H16988   5.437   8.792   2.368  1.7290 -1.9787  0.4329
  129MOL0     H16989   5.419   8.916   2.504  0.3069  0.1574  1.0686
  129MOL0     H16990   5.221   8.780   2.518 -2.3643  1.5443  1.8864
  129MOL0     H16991   5.057   8.649   2.624  0.5822  0.2069 -1.1920
  129MOL0     H16992   4.901   8.240   2.708  0.3141 -2.1921  1.8174
  129MOL0     H16993   4.695   8.132   2.753  0.9937 -0.7167 -0.3810
  129MOL0     H16994   4.529   8.041   2.830  1.6607  3.2781  1.6355
  129MOL0     H16995   4.440   8.139   2.722  3.4657 -1.1401 -0.5801
  129MOL0     H16996   4.317   8.031   2.989 -2.5925  1.8558  1.0138
  129MOL0     H16997   4.286   7.995   2.804 -1.7816  0.7028  0.4329
  129MOL0     H16998   4.210   8.257   2.811 -0.3748 -2.1431 -1.8445
  129MOL0     H16999   4.219   8.228   2.983  3.0666  0.9148 -1.2798
  129MOL0     H17000   4.047   8.035   2.814 -1.1001 -1.8375  0.8965
  129MOL0     H17001   4.027   8.083   2.985 -0.6342  0.3419 -0.6714
  129MOL0     H17002   3.938   8.182   2.721  1.6157  0.8713  0.0400
  129MOL0     H17003   3.974   8.323   2.825  1.2350  0.0280 -0.2310
  129MOL0     H17004   3.824   8.292   2.981  2.3825 -0.2950 -0.3646
  129MOL0     H17005   3.826   8.125   2.992  2.2085  0.8669  0.8381
  129MOL0     H17006   3.701   8.277   2.761 -1.5713  2.2295  1.9517
  129MOL0     H17007   3.696   8.099   2.779 -0.2334 -1.4950  3.9151
  129MOL0     H17008   3.575   8.289   2.968 -4.0314  0.0539  0.8967
  129MOL0     H17009   3.566   8.109   2.970 -0.8810 -1.6037 -1.2812
  129MOL0     H17010   4.592   8.436   3.027 -1.4004 -0.1179 -1.7975
  129MOL0     H17011   4.790   8.559   2.959  1.7514 -1.0116  0.7269
  129MOL0     H17012   5.359   8.400   2.820  2.9309 -0.0594 -0.9067
  129MOL0     H17013   5.528   8.531   2.714 -1.0972  1.3242  3.0246
  129MOL0     H17014   6.786   8.905   1.590  0.4121  0.3055  0.1757
  129MOL0     H17015   7.030   8.863   1.524  0.2780  2.9658 -2.4258
  129MOL0     H17016   7.333   8.672   1.413  1.3178 -0.6373 -0.9212
  129MOL0     H17017   7.593   8.611   1.392 -1.2281 -0.0621  1.3668
  129MOL0     H17018   7.766   8.804   1.104  1.5807  1.6810  0.0079
  129MOL0     H17019   7.894   8.680   1.084 -0.2203  1.4595 -2.1391
  129MOL0     H17020   7.790   8.824   1.339 -0.8336  1.0835 -2.0205
  129MOL0     H17021   7.911   8.699   1.330 -0.8486 -0.6474  0.0631
  129MOL0     H17022   7.965   8.945   1.158  1.0781 -2.2070 -2.7145
  129MOL0     H17023   8.081   8.848   1.224 -0.0006  3.6032 -2.4880
  129MOL0     H17024   8.087   9.049   1.354  1.8689 -1.4069  1.6901
  129MOL0     H17025   7.914   9.048   1.379  0.1322  0.4060 -1.5946
  129MOL0     H17026   8.072   8.826   1.703  2.2958  1.5152 -0.6405
  129MOL0     H17027   7.575   8.652   0.989  0.0913 -3.8751  0.7129
  129MOL0     H17028   7.317   8.695   0.997 -2.0239 -0.6476  1.0558
  130MOL0     O17029   1.026   5.846   8.917 -0.6963  0.5749  0.6066
  130MOL0     C17030   1.096   5.765   8.984  0.2887 -0.0193  0.7897
  130MOL0     O17031   1.057   5.659   9.047 -0.1316 -0.7833 -0.1884
  130MOL0     C17032   0.925   5.627   9.043 -0.1852 -0.3920  0.5995
  130MOL0     C17033   0.874   5.558   8.931  0.6217  0.4357 -0.1751
  130MOL0     C17034   0.741   5.518   8.936  0.0535  0.1997  0.1400
  130MOL0     C17035   0.649   5.543   9.048  1.4406 -0.2582  0.0468
  130MOL0     O17036   0.526   5.493   9.030 -0.0114  0.9850 -0.7561
  130MOL0     C17037   0.423   5.554   9.109 -0.2045  0.7031  0.3082
  130MOL0     C17038   0.283   5.491   9.088  0.5367 -0.1454  0.3048
  130MOL0     C17039   0.191   5.551   8.984 -0.0218  0.7044 -0.2556
  130MOL0     C17040   0.067   5.465   8.967  0.6343  0.5198 -0.3592
  130MOL0     C17041  -0.029   5.533   8.865  0.1278 -0.4135  0.0194
  130MOL0     C17042  -0.152   5.434   8.850  0.5306 -0.5709 -0.2751
  130MOL0     C17043  -0.272   5.515   8.809  0.4132  0.2156 -0.2764
  130MOL0     C17044  -0.389   5.418   8.780  0.4089 -0.5059  1.0576
  130MOL0     N17045  -0.491   5.420   8.879 -0.0141  0.4607 -0.6033
  130MOL0     C17046  -0.622   5.457   8.862  0.1487 -0.6342 -0.2726
  130MOL0     C17047  -0.674   5.438   8.984 -0.3731  0.4731  0.2394
  130MOL0     C17048  -0.815   5.469   9.030 -0.9964  0.0213 -0.0566
  130MOL0     C17049  -0.864   5.605   8.992  0.1023  0.4698  0.4499
  130MOL0     C17050  -0.824   5.719   9.086 -0.3218  0.0404  0.1314
  130MOL0     C17051  -0.853   5.866   9.039 -0.9835 -0.4754  0.6104
  130MOL0     O17052  -0.979   5.887   8.969  0.5555  0.6063  0.1865
  130MOL0     C17053  -1.096   5.923   9.035 -0.6714 -0.0310 -0.2017
  130MOL0     C17054  -1.209   5.939   8.960  0.5098  0.8568  0.9734
  130MOL0     C17055  -1.323   5.981   9.021  0.6059  0.5497  0.7755
  130MOL0     C17056  -1.342   6.015   9.156  0.0549  0.2927 -0.5523
  130MOL0     C17057  -1.469   6.076   9.205  0.1508  0.3724  0.4375
  130MOL0     O17058  -1.578   6.030   9.138  0.7347 -0.3761  0.3588
  130MOL0     C17059  -1.710   6.056   9.185  0.1504 -0.3020  0.9708
  130MOL0     C17060  -1.751   6.174   9.250  0.7452  0.9124  0.0444
  130MOL0     C17061  -1.886   6.188   9.300 -0.5357 -0.5565 -0.6326
  130MOL0     C17062  -1.981   6.091   9.268  0.2359  0.4018  1.2074
  130MOL0     O17063  -2.114   6.105   9.296  0.2087 -0.2561  0.8843
  130MOL0     C17064  -2.161   6.227   9.362  0.0102  0.1754  0.3613
  130MOL0     C17065  -2.310   6.224   9.368 -0.3990 -1.3367 -0.0786
  130MOL0     C17066  -2.364   6.348   9.450 -0.0465  0.2807  0.4658
  130MOL0     C17067  -2.516   6.353   9.457  0.3214 -0.1780  0.3557
  130MOL0     C17068  -2.573   6.494   9.458  0.0925  0.5797  0.4827
  130MOL0     C17069  -2.715   6.490   9.416  1.6217 -0.3928  0.0460
  130MOL0     C17070  -2.782   6.635   9.398  0.3518 -1.4458 -0.8556
  130MOL0     C17071  -2.912   6.616   9.329  0.8242  0.2961  0.2155
  130MOL0    Cl17072  -3.030   6.524   9.435 -0.1603  0.2510  0.2066
  130MOL0     C17073  -1.944   5.979   9.191  0.1865  0.3656 -0.1113
  130MOL0     C17074  -1.807   5.960   9.153 -0.2560 -0.2564  0.2426
  130MOL0     O17075  -1.468   6.147   9.306  0.7119  0.3318 -0.0808
  130MOL0     C17076  -1.223   6.004   9.232  0.1696 -0.0815 -0.2160
  130MOL0     C17077  -1.104   5.961   9.173 -0.6000 -0.0692  0.5678
  130MOL0     N17078  -0.585   5.362   9.064 -0.6198 -0.7097 -0.4385
  130MOL0     N17079  -0.479   5.342   8.995  0.6483 -0.0129  0.5533
  130MOL0     C17080   0.708   5.609   9.158 -0.1723  0.0271 -0.4357
  130MOL0     C17081   0.842   5.642   9.155 -0.5590 -0.4126 -1.1592
  130MOL0     C17082   1.243   5.798   8.985 -0.4974  0.2874 -0.0944
  130MOL0     C17083   1.324   5.716   9.065  0.0787  1.2003  0.5320
  130MOL0     C17084   1.462   5.738   9.072 -1.2338  0.0326 -0.2422
  130MOL0     C17085   1.527   5.835   8.988  0.0583 -1.2067 -0.3706
  130MOL0     O17086   1.664   5.825   8.982 -0.0961  0.2240  0.1765
  130MOL0     C17087   1.743   5.931   8.911 -0.1904  0.0087 -0.1357
  130MOL0     C17088   1.881   5.872   8.881  0.2636  0.4832  0.1704
  130MOL0     C17089   1.972   5.857   9.005  0.5406  0.1492 -0.0595
  130MOL0     C17090   2.112   5.794   8.968  0.6891 -0.4492  0.1089
  130MOL0     C17091   2.195   5.891   8.899 -0.4926  0.0554  0.0997
  130MOL0     C17092   2.271   5.974   8.860 -1.2354  0.6343  0.4652
  130MOL0     C17093   1.439   5.919   8.916  0.2760  0.1365 -0.4544
  130MOL0     C17094   1.298   5.903   8.922 -0.6476 -0.8622 -1.0025
  130MOL0     H17095   0.928   5.544   8.838  0.4823 -1.4822 -0.0007
  130MOL0     H17096   0.701   5.490   8.839 -0.5062 -1.0128  0.7017
  130MOL0     H17097   0.425   5.662   9.095  1.8598  0.7342  0.5879
  130MOL0     H17098   0.440   5.545   9.217 -0.5733  6.1284  1.0901
  130MOL0     H17099   0.230   5.479   9.184  1.3584 -3.3569  0.4872
  130MOL0     H17100   0.296   5.386   9.060 -1.3541 -0.8308  1.7507
  130MOL0     H17101   0.248   5.556   8.891  1.5629 -0.7706  0.5790
  130MOL0     H17102   0.160   5.653   9.006 -1.4514  0.5892 -1.5972
  130MOL0     H17103   0.093   5.366   8.927 -1.0550  0.6870 -1.9895
  130MOL0     H17104   0.028   5.464   9.069  3.9297  1.0979  1.0357
  130MOL0     H17105   0.019   5.550   8.768 -0.3342  0.1147 -0.1233
  130MOL0     H17106  -0.057   5.630   8.906  0.1263 -0.1616 -0.5666
  130MOL0     H17107  -0.171   5.389   8.948  1.2798  3.5595  2.0152
  130MOL0     H17108  -0.121   5.352   8.785  2.5180  0.1967 -0.3679
  130MOL0     H17109  -0.308   5.576   8.893 -2.3109 -2.8810  1.0230
  130MOL0     H17110  -0.246   5.574   8.720 -0.9614  3.7094  1.4329
  130MOL0     H17111  -0.358   5.319   8.746  0.1129  0.1672 -1.3744
  130MOL0     H17112  -0.448   5.461   8.698  0.9039 -0.7997  0.5360
  130MOL0     H17113  -0.668   5.504   8.776  1.5046  0.9631 -0.1793
  130MOL0     H17114  -0.820   5.452   9.137 -0.7197 -1.1542 -0.2268
  130MOL0     H17115  -0.872   5.388   8.984  1.2352 -1.1829 -0.8513
  130MOL0     H17116  -0.973   5.596   8.994  0.2394 -1.8578  0.4602
  130MOL0     H17117  -0.844   5.623   8.886 -2.0185  1.9760  0.2312
  130MOL0     H17118  -0.884   5.706   9.177  1.3812 -2.0106  1.0722
  130MOL0     H17119  -0.719   5.701   9.114 -0.8652 -2.7047  0.6296
  130MOL0     H17120  -0.777   5.885   8.963 -1.5203 -1.0786 -0.0871
  130MOL0     H17121  -0.844   5.931   9.126 -3.0135  2.2851 -1.0687
  130MOL0     H17122  -1.204   5.923   8.853 -3.0747  0.9163  0.6824
  130MOL0     H17123  -1.411   5.989   8.958  0.2249  0.2637  1.2545
  130MOL0     H17124  -1.689   6.263   9.254  0.4327  1.5683 -4.4329
  130MOL0     H17125  -1.909   6.281   9.351 -1.1213  0.4926 -2.6849
  130MOL0     H17126  -2.119   6.320   9.321  1.1439  0.6813  2.4783
  130MOL0     H17127  -2.127   6.210   9.465 -0.7431 -0.6031  0.4828
  130MOL0     H17128  -2.338   6.129   9.415 -1.6261 -2.8811 -3.6188
  130MOL0     H17129  -2.359   6.221   9.270  1.1564  0.1419 -0.9578
  130MOL0     H17130  -2.323   6.427   9.386 -0.2896 -0.0412 -0.0938
  130MOL0     H17131  -2.315   6.355   9.547  0.1549  0.6675  0.3402
  130MOL0     H17132  -2.562   6.297   9.376 -1.7431 -0.4789  1.6828
  130MOL0     H17133  -2.553   6.313   9.552  2.8619  1.1638  2.0441
  130MOL0     H17134  -2.526   6.566   9.391  1.8179  0.1147  1.1471
  130MOL0     H17135  -2.556   6.530   9.560  0.4579 -1.7582  1.3105
  130MOL0     H17136  -2.776   6.434   9.487 -1.1427  2.8995  0.5230
  130MOL0     H17137  -2.714   6.436   9.321  0.3490  1.3350 -1.0230
  130MOL0     H17138  -2.797   6.680   9.497  0.9315 -2.7097 -0.1688
  130MOL0     H17139  -2.715   6.699   9.340  2.4161 -2.0675  0.7182
  130MOL0     H17140  -2.894   6.568   9.232  2.5929  1.4072 -0.0582
  130MOL0     H17141  -2.958   6.713   9.308  0.8830  0.9324  2.7116
  130MOL0     H17142  -2.020   5.908   9.158 -0.0504 -0.0971  1.3601
  130MOL0     H17143  -1.778   5.882   9.084 -0.2580 -0.4407  0.4509
  130MOL0     H17144  -1.207   6.034   9.335  0.5115 -0.5113 -0.1444
  130MOL0     H17145  -1.020   5.969   9.241 -0.9413  2.1101  0.8335
  130MOL0     H17146   0.647   5.616   9.247 -0.7942 -1.2374 -0.7417
  130MOL0     H17147   0.871   5.675   9.254  1.4612  1.2224 -2.2098
  130MOL0     H17148   1.289   5.633   9.125  4.0093 -1.3723 -0.3553
  130MOL0     H17149   1.512   5.672   9.142 -2.1237 -0.0022  0.3772
  130MOL0     H17150   1.753   6.024   8.969 -0.3129  1.9901 -3.0578
  130MOL0     H17151   1.702   5.966   8.816 -0.3634 -0.8530 -0.3885
  130MOL0     H17152   1.865   5.782   8.821  1.0971  0.1399  0.4586
  130MOL0     H17153   1.935   5.939   8.814 -1.1075  0.8868 -0.5715
  130MOL0     H17154   1.926   5.796   9.083  0.0956  2.1263  1.3115
  130MOL0     H17155   1.992   5.959   9.040 -0.4287 -0.3925  2.2833
  130MOL0     H17156   2.172   5.765   9.055  3.6585  0.3563 -1.5247
  130MOL0     H17157   2.093   5.701   8.913  2.5227 -1.2048  0.6610
  130MOL0     H17158   2.341   6.050   8.833 -2.8926  2.1447  0.2523
  130MOL0     H17159   1.485   5.998   8.858 -1.1155  1.0072 -0.4229
  130MOL0     H17160   1.229   5.971   8.873  0.1860  2.7457  2.3739
  131MOL0     O17161   3.113   5.480   1.865  0.2392  0.2016  0.4900
  131MOL0     C17162   3.145   5.362   1.879 -0.2532  0.7406  0.8440
  131MOL0     O17163   3.082   5.257   1.813 -0.2496 -0.3453  0.3701
  131MOL0     C17164   3.006   5.262   1.696  0.2070 -0.4802 -0.4554
  131MOL0     C17165   3.017   5.363   1.602 -0.1914  0.6936 -0.3725
  131MOL0     C17166   2.927   5.368   1.494 -0.6821  0.0550  0.8314
  131MOL0     C17167   2.818   5.276   1.491 -0.7436  0.0399 -0.8243
  131MOL0     O17168   2.737   5.290   1.381 -0.5670 -0.1155  0.2957
  131MOL0     C17169   2.603   5.243   1.384  0.9564  0.2561 -0.6800
  131MOL0     C17170   2.511   5.309   1.495  0.7989  0.3992  0.2670
  131MOL0     C17171   2.395   5.217   1.532 -0.5183  0.9510  0.2977
  131MOL0     C17172   2.286   5.211   1.434 -0.2468  0.3280  0.3934
  131MOL0     C17173   2.175   5.134   1.495 -0.4315  0.0735 -0.2073
  131MOL0     C17174   2.097   5.224   1.600 -0.2270 -0.4420 -0.0284
  131MOL0     C17175   1.949   5.210   1.600 -0.5544  0.0555  0.7268
  131MOL0     C17176   1.898   5.072   1.638 -0.5139 -0.3624  0.6138
  131MOL0     N17177   1.755   5.074   1.670 -0.3568 -0.6315 -0.2964
  131MOL0     C17178   1.649   5.087   1.584  0.1253  0.3949 -0.0600
  131MOL0     C17179   1.545   5.105   1.669 -0.4532  0.2122  0.8407
  131MOL0     C17180   1.402   5.123   1.627 -0.3724  0.6869  0.0887
  131MOL0     C17181   1.362   5.269   1.635 -0.0424  0.0989  0.0334
  131MOL0     C17182   1.213   5.300   1.614  0.3132 -0.1495  0.8892
  131MOL0     C17183   1.205   5.445   1.565 -0.3781  0.8015  0.3409
  131MOL0     O17184   1.073   5.482   1.600  0.5022 -0.3094 -0.1854
  131MOL0     C17185   1.021   5.587   1.529  0.6004 -0.3022 -0.1639
  131MOL0     C17186   1.101   5.674   1.457  0.0871  0.3964  0.4733
  131MOL0     C17187   1.038   5.774   1.373  0.5502  0.4702 -0.1336
  131MOL0     C17188   0.894   5.785   1.386 -0.8036 -0.1261  0.3914
  131MOL0     C17189   0.815   5.889   1.310 -0.0220  0.0371  0.6041
  131MOL0     O17190   0.890   5.958   1.227 -1.3190  0.0983  0.3574
  131MOL0     C17191   0.828   6.050   1.139  0.4263 -0.2253 -0.8882
  131MOL0     C17192   0.826   6.034   1.002 -0.6972  0.4529  0.5003
  131MOL0     C17193   0.791   6.138   0.919 -0.4948  0.5640 -0.4267
  131MOL0     C17194   0.750   6.264   0.968 -0.2309  0.8380  0.2843
  131MOL0     O17195   0.719   6.363   0.880 -0.0879 -0.4708 -0.0540
  131MOL0     C17196   0.578   6.410   0.879 -1.1351 -0.1860 -1.0665
  131MOL0     C17197   0.492   6.358   0.763  0.4430 -0.4496 -0.8508
  131MOL0     C17198   0.479   6.457   0.646  0.1711 -0.2483  0.5803
  131MOL0     C17199   0.381   6.410   0.538  0.4289  0.6695  0.2674
  131MOL0     C17200   0.322   6.521   0.443  0.0016  0.3071 -0.4146
  131MOL0     C17201   0.207   6.470   0.363  0.6706 -0.1757 -0.2743
  131MOL0     C17202   0.173   6.571   0.248 -0.1177  0.6756 -0.7913
  131MOL0     C17203   0.037   6.533   0.189 -0.1163  1.0811 -0.2277
  131MOL0    Cl17204  -0.106   6.581   0.277 -0.0638 -0.1503  0.3116
  131MOL0     C17205   0.769   6.289   1.105  1.1500 -0.2335  0.8267
  131MOL0     C17206   0.804   6.187   1.186 -0.4463  1.5428 -0.1867
  131MOL0     O17207   0.694   5.895   1.327  0.1741 -0.2960 -0.1247
  131MOL0     C17208   0.823   5.722   1.486  1.3501 -0.8954 -0.0838
  131MOL0     C17209   0.881   5.614   1.551 -0.0332  0.2630  0.0726
  131MOL0     N17210   1.586   5.104   1.799  0.1740 -0.3044 -0.1206
  131MOL0     N17211   1.710   5.090   1.803 -0.1107 -0.2319 -0.2785
  131MOL0     C17212   2.805   5.171   1.582 -0.2662  0.0524 -1.0221
  131MOL0     C17213   2.896   5.171   1.683  0.0555 -0.3742  0.4572
  131MOL0     C17214   3.255   5.340   1.968 -0.3183  0.3637 -0.1253
  131MOL0     C17215   3.299   5.217   2.002 -0.7496  0.1172 -0.3335
  131MOL0     C17216   3.398   5.201   2.097 -0.1635  0.3338  0.2769
  131MOL0     C17217   3.452   5.313   2.165  0.0988  0.3213 -0.3811
  131MOL0     O17218   3.549   5.306   2.268  0.3595 -0.1360  0.3795
  131MOL0     C17219   3.609   5.177   2.291  0.6932  0.2533  0.6730
  131MOL0     C17220   3.745   5.191   2.362  1.0341 -0.2594  0.6485
  131MOL0     C17221   3.852   5.252   2.264  0.8831 -1.3143 -0.0449
  131MOL0     C17222   3.995   5.266   2.316 -1.1669  0.0853 -0.7305
  131MOL0     C17223   4.051   5.128   2.316  0.0978 -0.5570  0.0667
  131MOL0     C17224   4.079   5.007   2.335 -0.4601  0.0995  0.3773
  131MOL0     C17225   3.398   5.438   2.140  0.1848 -0.4796 -0.4338
  131MOL0     C17226   3.306   5.455   2.044  0.8160  0.8137 -0.9371
  131MOL0     H17227   3.095   5.437   1.619 -0.5136  0.5935  1.8799
  131MOL0     H17228   2.942   5.443   1.417  2.2214  0.5881  1.7849
  131MOL0     H17229   2.606   5.134   1.394 -0.1972  0.1976 -0.8110
  131MOL0     H17230   2.562   5.254   1.283  1.3290 -2.6862 -1.2341
  131MOL0     H17231   2.484   5.410   1.464  0.7371  0.7981  1.5750
  131MOL0     H17232   2.571   5.317   1.586 -1.3490 -1.0995  1.9058
  131MOL0     H17233   2.358   5.266   1.622  2.8862  3.5773  0.5153
  131MOL0     H17234   2.432   5.117   1.555 -4.8807 -0.6119  1.4355
  131MOL0     H17235   2.262   5.313   1.404  0.5132  0.5133  0.3912
  131MOL0     H17236   2.328   5.160   1.347 -0.9000  1.0580 -0.3707
  131MOL0     H17237   2.197   5.035   1.534 -0.9825 -0.0358 -0.1627
  131MOL0     H17238   2.101   5.125   1.414  1.2094 -1.2494 -1.6402
  131MOL0     H17239   2.118   5.329   1.578 -1.5325 -0.1029  0.2395
  131MOL0     H17240   2.141   5.206   1.699  0.0743 -0.7006 -0.2058
  131MOL0     H17241   1.914   5.287   1.670 -2.3654 -0.6013  0.6027
  131MOL0     H17242   1.924   5.227   1.495  2.9128 -2.4027 -0.6813
  131MOL0     H17243   1.944   5.029   1.728 -1.0233  1.2595  1.6951
  131MOL0     H17244   1.915   5.007   1.551  2.4913  3.0889 -1.6620
  131MOL0     H17245   1.647   5.082   1.475  1.4356 -0.5185 -0.0667
  131MOL0     H17246   1.345   5.053   1.689 -0.9321  0.5515 -0.5637
  131MOL0     H17247   1.383   5.093   1.524 -1.1259  1.2827  0.0440
  131MOL0     H17248   1.422   5.321   1.560  1.1362 -0.2275  0.7241
  131MOL0     H17249   1.398   5.313   1.728  2.7756 -0.4908 -0.6893
  131MOL0     H17250   1.169   5.234   1.538  0.3266 -0.9950  1.6085
  131MOL0     H17251   1.160   5.285   1.708 -3.1353 -2.7405 -1.2341
  131MOL0     H17252   1.222   5.439   1.457  1.9307  1.6478  0.5898
  131MOL0     H17253   1.282   5.515   1.600 -0.8806  1.5005  0.0797
  131MOL0     H17254   1.209   5.675   1.471  0.0977 -0.0208  0.4323
  131MOL0     H17255   1.090   5.843   1.309 -1.0624  0.5029 -1.4650
  131MOL0     H17256   0.865   5.938   0.968  2.5005  1.8406 -0.1222
  131MOL0     H17257   0.797   6.123   0.812 -1.9681  3.3172 -0.9963
  131MOL0     H17258   0.583   6.519   0.880 -1.1272 -0.1391  1.5263
  131MOL0     H17259   0.534   6.376   0.974  0.8964 -1.0593 -0.3704
  131MOL0     H17260   0.394   6.332   0.801  0.7265 -1.3361 -0.7096
  131MOL0     H17261   0.541   6.270   0.720  1.2194 -1.4873  1.9307
  131MOL0     H17262   0.579   6.483   0.608 -1.2877  1.1439 -2.7756
  131MOL0     H17263   0.431   6.552   0.673  0.1361  0.6684 -2.3003
  131MOL0     H17264   0.414   6.321   0.483  0.0370  0.1050  0.9211
  131MOL0     H17265   0.293   6.359   0.579  1.6312 -0.9508  0.9503
  131MOL0     H17266   0.404   6.542   0.374 -1.1696 -0.8430 -2.2197
  131MOL0     H17267   0.286   6.609   0.499  2.8098  0.9838  0.4823
  131MOL0     H17268   0.121   6.464   0.431 -1.0369 -3.7623 -2.4689
  131MOL0     H17269   0.221   6.367   0.328 -0.0506 -1.2028  2.2504
  131MOL0     H17270   0.182   6.673   0.288 -0.2266  0.5058 -0.3278
  131MOL0     H17271   0.247   6.557   0.169  2.0865  1.2378  1.0642
  131MOL0     H17272   0.030   6.426   0.172 -0.3032  1.1165 -0.3812
  131MOL0     H17273   0.029   6.577   0.089 -0.5449  3.5362  0.8048
  131MOL0     H17274   0.743   6.387   1.145  1.9749  1.6255 -2.7654
  131MOL0     H17275   0.813   6.199   1.294  0.6018 -0.2912 -0.0176
  131MOL0     H17276   0.717   5.744   1.494  1.5407 -0.3704  1.2423
  131MOL0     H17277   0.831   5.546   1.618  0.9190 -1.0093 -0.4616
  131MOL0     H17278   2.726   5.096   1.577 -3.0965  2.7195  0.4871
  131MOL0     H17279   2.889   5.092   1.757  1.1593 -0.0954  0.8753
  131MOL0     H17280   3.265   5.139   1.935 -0.1191  1.0668 -1.8158
  131MOL0     H17281   3.430   5.098   2.114 -4.6216 -0.9119  3.0020
  131MOL0     H17282   3.608   5.125   2.194  0.3287 -0.3899  1.0167
  131MOL0     H17283   3.544   5.121   2.359  1.1818  0.6104  1.4444
  131MOL0     H17284   3.739   5.253   2.451  0.4243 -2.2237  2.0515
  131MOL0     H17285   3.780   5.091   2.390  1.9202  0.1983  1.1794
  131MOL0     H17286   3.819   5.354   2.244 -3.2146 -2.5952 -0.9099
  131MOL0     H17287   3.852   5.202   2.166  2.5092  1.2773 -1.4883
  131MOL0     H17288   4.051   5.317   2.237  0.7340 -0.5356  0.1478
  131MOL0     H17289   4.005   5.323   2.409  0.1428  0.0223 -0.8108
  131MOL0     H17290   4.102   4.907   2.365  1.0952  0.5827  0.9072
  131MOL0     H17291   3.444   5.525   2.186  3.2497 -2.7121  1.0888
  131MOL0     H17292   3.263   5.554   2.047 -1.0268  0.0455 -0.0983
  132MOL0     O17293   7.319   1.115   3.213 -0.1532  0.1590 -0.2954
  132MOL0     C17294   7.411   1.027   3.210  0.1338 -0.9046 -0.4650
  132MOL0     O17295   7.391   0.896   3.186  0.1565 -0.5973  0.7917
  132MOL0     C17296   7.267   0.843   3.197  0.0768 -0.1120 -0.1317
  132MOL0     C17297   7.162   0.897   3.277 -0.6206  0.6592  1.0316
  132MOL0     C17298   7.038   0.851   3.259  0.5814 -0.2114  0.1048
  132MOL0     C17299   7.013   0.732   3.208  0.2124 -0.3765  0.8252
  132MOL0     O17300   6.884   0.687   3.221  0.0920 -1.1632  0.8178
  132MOL0     C17301   6.843   0.575   3.147 -0.0321  0.2037 -0.6176
  132MOL0     C17302   6.692   0.533   3.185 -0.3963  0.1859 -0.0755
  132MOL0     C17303   6.687   0.467   3.322  0.4771 -0.2026  0.3173
  132MOL0     C17304   6.540   0.472   3.364 -0.5437 -0.2915  0.8042
  132MOL0     C17305   6.515   0.408   3.494  0.1020 -0.0677 -0.3379
  132MOL0     C17306   6.364   0.389   3.524 -0.0421  0.5712 -0.3522
  132MOL0     C17307   6.280   0.311   3.418  0.2776  0.0517 -0.0362
  132MOL0     C17308   6.240   0.170   3.454 -0.3861 -0.0852  0.6776
  132MOL0     N17309   6.355   0.088   3.431 -0.2686  1.2784 -0.5746
  132MOL0     C17310   6.370  -0.030   3.494  0.5596 -0.3953  0.1941
  132MOL0     C17311   6.481  -0.092   3.444 -0.4397  0.1633 -0.0607
  132MOL0     C17312   6.537  -0.226   3.479 -0.0067 -0.3999 -1.4166
  132MOL0     C17313   6.669  -0.216   3.553  0.6802 -0.8885  0.8298
  132MOL0     C17314   6.717  -0.350   3.606  0.1332 -0.6912  0.0072
  132MOL0     C17315   6.860  -0.333   3.670 -0.3827 -0.0475  0.6655
  132MOL0     O17316   6.915  -0.460   3.697  0.1942  0.2480  0.1547
  132MOL0     C17317   6.903  -0.531   3.818 -0.1842 -0.5852  0.3982
  132MOL0     C17318   6.962  -0.664   3.812  0.7631  0.2150 -0.4243
  132MOL0     C17319   6.963  -0.731   3.932 -0.2797  0.2117 -0.0311
  132MOL0     C17320   6.918  -0.681   4.053  0.9588 -0.2746 -0.4553
  132MOL0     C17321   6.897  -0.776   4.155  0.8436  0.4214 -0.3154
  132MOL0     O17322   6.995  -0.866   4.200 -0.7011 -0.9841 -0.1492
  132MOL0     C17323   7.126  -0.826   4.193 -0.1332  0.5246  0.1390
  132MOL0     C17324   7.235  -0.912   4.154  0.8771 -0.4645  0.5654
  132MOL0     C17325   7.354  -0.858   4.145  0.1070  0.0420  0.4888
  132MOL0     C17326   7.382  -0.731   4.173  0.2051 -0.3262 -0.8132
  132MOL0     O17327   7.512  -0.698   4.165 -0.7447  0.0771 -0.6212
  132MOL0     C17328   7.569  -0.612   4.263  0.7417 -0.6795 -0.5359
  132MOL0     C17329   7.719  -0.641   4.273 -0.2022  0.6257  0.0668
  132MOL0     C17330   7.736  -0.791   4.310  0.8487 -0.3667 -0.1935
  132MOL0     C17331   7.892  -0.813   4.320 -0.3111 -1.1713 -0.2982
  132MOL0     C17332   7.932  -0.966   4.326 -0.3249  0.6231  0.2222
  132MOL0     C17333   8.078  -0.990   4.289  0.3993 -0.0836  0.4646
  132MOL0     C17334   8.166  -0.897   4.368 -0.2356  0.2530 -0.4601
  132MOL0     C17335   8.311  -0.945   4.364 -1.2333 -0.9142 -0.5103
  132MOL0    Cl17336   8.338  -1.098   4.466  0.0952  0.2127 -0.0541
  132MOL0     C17337   7.282  -0.647   4.210 -0.2796 -0.2962 -0.2434
  132MOL0     C17338   7.153  -0.690   4.215 -0.1032  0.2506 -0.5897
  132MOL0     O17339   6.783  -0.788   4.195 -0.5959 -0.0700 -0.3403
  132MOL0     C17340   6.873  -0.547   4.059 -0.0414  0.6670 -1.0250
  132MOL0     C17341   6.860  -0.472   3.947 -0.5459  0.1072  0.3614
  132MOL0     N17342   6.526  -0.006   3.344 -0.4148 -0.5301 -0.6070
  132MOL0     N17343   6.455   0.101   3.341 -0.4443 -0.1423  0.1853
  132MOL0     C17344   7.118   0.665   3.139  0.4853 -0.0492 -0.0738
  132MOL0     C17345   7.238   0.730   3.126  0.6052  0.0015  0.0534
  132MOL0     C17346   7.555   1.068   3.229 -0.3072  0.1250 -0.3161
  132MOL0     C17347   7.587   1.206   3.222 -0.4450  0.2807  0.9718
  132MOL0     C17348   7.719   1.249   3.232 -1.0554  0.9253 -0.3485
  132MOL0     C17349   7.820   1.159   3.258  0.2587  0.7837 -0.6403
  132MOL0     O17350   7.950   1.205   3.255  0.0205 -0.1530 -0.1107
  132MOL0     C17351   8.057   1.120   3.304  0.8371  0.0304 -1.0373
  132MOL0     C17352   8.194   1.189   3.311  0.1670  0.8119 -0.2975
  132MOL0     C17353   8.246   1.240   3.176  0.5492 -0.3585  1.7204
  132MOL0     C17354   8.391   1.246   3.167  0.1754  0.0416 -0.0506
  132MOL0     C17355   8.439   1.276   3.036  0.6929  0.8433 -0.2678
  132MOL0     C17356   8.491   1.284   2.931 -0.1559 -1.0673  0.1862
  132MOL0     C17357   7.786   1.020   3.273 -0.6829 -0.0285  0.3541
  132MOL0     C17358   7.659   0.978   3.277  0.0229 -0.0077  0.9397
  132MOL0     H17359   7.178   0.967   3.358 -1.0047 -0.3960  2.0523
  132MOL0     H17360   6.966   0.906   3.319  0.7282  1.0638 -0.8477
  132MOL0     H17361   6.912   0.498   3.182 -0.5238 -0.1950 -0.5069
  132MOL0     H17362   6.843   0.599   3.040  0.5313 -1.9875 -1.1562
  132MOL0     H17363   6.653   0.459   3.114 -0.3442 -1.4319  1.5239
  132MOL0     H17364   6.621   0.617   3.185 -1.0282 -0.3422  0.0141
  132MOL0     H17365   6.745   0.531   3.390  1.9375 -0.9953 -0.1371
  132MOL0     H17366   6.736   0.370   3.324  0.2438 -0.3314 -0.1068
  132MOL0     H17367   6.503   0.575   3.374 -3.5052 -0.8922 -2.0969
  132MOL0     H17368   6.485   0.419   3.286  2.4529 -0.0811 -1.6026
  132MOL0     H17369   6.568   0.473   3.565  0.3481  1.1488 -1.5876
  132MOL0     H17370   6.559   0.309   3.485  0.4708  0.0440  0.1850
  132MOL0     H17371   6.322   0.490   3.530  1.7003  1.2462  2.1785
  132MOL0     H17372   6.358   0.335   3.619  6.9101 -1.8637 -0.6993
  132MOL0     H17373   6.185   0.362   3.398  1.0395  1.2187 -0.8426
  132MOL0     H17374   6.335   0.304   3.324  1.7580 -1.2586  0.8928
  132MOL0     H17375   6.165   0.136   3.382 -0.2277  0.6204  0.1780
  132MOL0     H17376   6.201   0.161   3.556  2.1484  1.3200  1.8417
  132MOL0     H17377   6.311  -0.075   3.573 -0.8310  2.2349  0.7544
  132MOL0     H17378   6.544  -0.291   3.391  0.2923 -0.3856 -1.4018
  132MOL0     H17379   6.465  -0.275   3.546 -0.3636  1.2569 -0.5363
  132MOL0     H17380   6.653  -0.143   3.632  2.0666 -0.5813  0.8589
  132MOL0     H17381   6.741  -0.172   3.483  1.5487  1.7416  3.2103
  132MOL0     H17382   6.641  -0.382   3.678 -0.4436 -0.1997 -0.3664
  132MOL0     H17383   6.727  -0.418   3.521 -0.7232 -0.9601  0.1068
  132MOL0     H17384   6.862  -0.272   3.761 -3.0646  1.1837  0.0038
  132MOL0     H17385   6.919  -0.286   3.591 -0.4022 -0.8873  0.1442
  132MOL0     H17386   7.005  -0.712   3.725  0.3367 -0.2169 -0.4072
  132MOL0     H17387   6.999  -0.832   3.916 -0.0848  0.8051 -4.4639
  132MOL0     H17388   7.211  -1.015   4.128 -0.6258  0.2740 -1.1861
  132MOL0     H17389   7.431  -0.931   4.121  1.3752  0.5727  2.6274
  132MOL0     H17390   7.529  -0.640   4.362 -2.0630 -0.1229 -1.4145
  132MOL0     H17391   7.553  -0.508   4.235  0.8686 -0.9649 -1.6885
  132MOL0     H17392   7.769  -0.574   4.344  0.4439 -1.0655  1.2538
  132MOL0     H17393   7.764  -0.624   4.174  0.0139 -0.3634 -0.0145
  132MOL0     H17394   7.687  -0.850   4.232  0.5680  0.4709 -0.6566
  132MOL0     H17395   7.687  -0.808   4.407 -0.6152  2.6926 -0.2931
  132MOL0     H17396   7.926  -0.758   4.232 -0.6423 -0.0891  0.2380
  132MOL0     H17397   7.923  -0.765   4.413  0.7161 -1.3535 -0.5383
  132MOL0     H17398   7.876  -1.026   4.254  1.1701 -0.4949 -0.0666
  132MOL0     H17399   7.916  -1.021   4.419 -1.1298  1.6316  0.6841
  132MOL0     H17400   8.101  -0.962   4.186 -3.5414  3.1054  0.1902
  132MOL0     H17401   8.108  -1.093   4.305 -0.9171 -0.3588  1.3598
  132MOL0     H17402   8.162  -0.792   4.335  0.4639  0.8577  1.2590
  132MOL0     H17403   8.145  -0.886   4.475 -0.4767  3.4299 -0.7219
  132MOL0     H17404   8.376  -0.865   4.399 -3.0490  0.8593 -0.9720
  132MOL0     H17405   8.342  -0.965   4.261  2.1354  1.0703 -0.0152
  132MOL0     H17406   7.285  -0.545   4.247 -3.6506  0.8638 -2.6523
  132MOL0     H17407   7.076  -0.620   4.245 -1.8985 -1.8118 -0.1426
  132MOL0     H17408   6.840  -0.505   4.154 -2.5825  1.8520 -2.3461
  132MOL0     H17409   6.825  -0.369   3.959 -0.7482  0.1022 -0.1756
  132MOL0     H17410   7.105   0.572   3.085 -0.7436  0.7385 -1.2020
  132MOL0     H17411   7.310   0.687   3.058 -2.0782 -0.7730 -2.5023
  132MOL0     H17412   7.509   1.279   3.206  0.3296  1.3381  1.9004
  132MOL0     H17413   7.760   1.349   3.223 -0.5128  0.5159 -3.1945
  132MOL0     H17414   8.068   1.030   3.242 -0.6051 -1.1596  0.3378
  132MOL0     H17415   8.038   1.085   3.406  2.1144  0.8747 -0.4907
  132MOL0     H17416   8.188   1.276   3.376  0.0534 -0.5435  1.5946
  132MOL0     H17417   8.266   1.122   3.358 -1.7003  1.8848  4.7251
  132MOL0     H17418   8.204   1.339   3.157 -1.7680 -1.2187  2.1176
  132MOL0     H17419   8.217   1.180   3.089 -0.7400  1.0271  1.1600
  132MOL0     H17420   8.431   1.320   3.237  1.8543 -1.6230  0.8402
  132MOL0     H17421   8.429   1.146   3.190 -0.6361 -0.8612 -2.2618
  132MOL0     H17422   8.545   1.293   2.840 -1.0824  2.0482 -0.1404
  132MOL0     H17423   7.870   0.953   3.289 -1.0443 -0.6058 -0.1213
  132MOL0     H17424   7.646   0.873   3.300 -0.0794 -0.7284 -2.0453
  133MOL0     O17425  10.377   8.348   4.229  0.3565 -0.6432  0.4301
  133MOL0     C17426  10.439   8.307   4.327 -0.1089  0.5476 -0.3492
  133MOL0     O17427  10.407   8.328   4.454  0.4271  0.3497 -0.1728
  133MOL0     C17428  10.306   8.407   4.488  0.3278  0.6765 -0.6747
  133MOL0     C17429  10.243   8.369   4.611 -0.5969 -0.1729  0.8959
  133MOL0     C17430  10.127   8.438   4.651 -0.5594 -0.1470 -0.8581
  133MOL0     C17431  10.072   8.546   4.576  0.0789  0.4920 -0.0401
  133MOL0     O17432   9.955   8.608   4.623  0.4263  0.4499 -0.6559
  133MOL0     C17433   9.843   8.597   4.531 -0.5113 -0.4764  0.0009
  133MOL0     C17434   9.719   8.637   4.616  0.8359  0.1118 -0.7992
  133MOL0     C17435   9.596   8.550   4.600  0.6293 -0.4748 -0.4050
  133MOL0     C17436   9.475   8.620   4.661 -0.4655  0.6761 -0.1381
  133MOL0     C17437   9.354   8.534   4.694  0.4356 -0.6049  0.1465
  133MOL0     C17438   9.291   8.481   4.565  1.4209 -0.5223  0.0380
  133MOL0     C17439   9.142   8.432   4.585 -0.2377  0.3212  0.1563
  133MOL0     C17440   9.059   8.560   4.605 -0.3227 -0.7745  0.3277
  133MOL0     N17441   8.920   8.544   4.564 -0.0298 -0.0955  0.4962
  133MOL0     C17442   8.844   8.430   4.593  0.6261 -0.2814 -0.4203
  133MOL0     C17443   8.721   8.460   4.540 -1.5514  0.1888  0.0751
  133MOL0     C17444   8.598   8.380   4.561  0.1295  0.4831  0.2532
  133MOL0     C17445   8.480   8.474   4.611 -0.4418  0.3314  0.3289
  133MOL0     C17446   8.362   8.441   4.534  0.8298 -0.2279 -0.1377
  133MOL0     C17447   8.235   8.501   4.604  0.1810  0.5029  0.3637
  133MOL0     O17448   8.227   8.642   4.593  0.3938  0.2553 -0.3106
  133MOL0     C17449   8.113   8.699   4.633 -0.0268 -0.4210 -0.5235
  133MOL0     C17450   7.993   8.630   4.662 -0.3347  0.2725  0.1513
  133MOL0     C17451   7.879   8.691   4.709 -0.3298  0.4459 -1.3543
  133MOL0     C17452   7.872   8.839   4.713  0.1222  0.7106 -0.1481
  133MOL0     C17453   7.743   8.906   4.738  0.4342 -0.8579  0.3062
  133MOL0     O17454   7.640   8.823   4.767 -0.4894 -0.1094  0.5541
  133MOL0     C17455   7.518   8.871   4.797  0.7460 -0.0876  0.6291
  133MOL0     C17456   7.494   8.913   4.931  0.0756  0.3769  0.4046
  133MOL0     C17457   7.361   8.955   4.968 -1.0052  0.2723 -1.0083
  133MOL0     C17458   7.251   8.944   4.877  0.2872 -0.2424  0.1485
  133MOL0     O17459   7.126   8.986   4.923 -0.1513 -0.1684 -0.2290
  133MOL0     C17460   7.024   8.888   4.894 -0.0746  0.3421 -0.0554
  133MOL0     C17461   6.882   8.915   4.957 -0.1305 -0.3933  0.5827
  133MOL0     C17462   6.832   9.061   4.933 -0.6955  1.3815 -0.6094
  133MOL0     C17463   6.682   9.057   4.970 -0.0117  0.4330 -0.6278
  133MOL0     C17464   6.620   9.193   4.992 -0.3103 -0.6474 -0.5511
  133MOL0     C17465   6.658   9.284   4.877  0.0454 -0.8240  0.0969
  133MOL0     C17466   6.560   9.404   4.885  0.2439  0.8091 -0.2878
  133MOL0     C17467   6.424   9.371   4.821 -0.5798 -0.7177  0.9582
  133MOL0    Cl17468   6.313   9.514   4.852 -0.1676  0.2566  0.2238
  133MOL0     C17469   7.280   8.910   4.744 -0.6041  0.0751  0.1175
  133MOL0     C17470   7.410   8.870   4.702 -0.0518 -0.0126  0.2054
  133MOL0     O17471   7.739   9.033   4.733  0.8986  0.4740  0.1919
  133MOL0     C17472   7.989   8.906   4.666  0.2699 -0.1712  1.6351
  133MOL0     C17473   8.108   8.837   4.642  0.0067 -0.5542  0.3222
  133MOL0     N17474   8.729   8.578   4.467  0.1303  0.7225  0.2785
  133MOL0     N17475   8.844   8.626   4.483  0.2155 -0.0993 -0.4532
  133MOL0     C17476  10.142   8.598   4.472  0.5392 -0.5278  0.1551
  133MOL0     C17477  10.252   8.523   4.422  0.2948  0.3095 -0.1954
  133MOL0     C17478  10.551   8.205   4.296 -0.1941 -0.7061  0.1994
  133MOL0     C17479  10.646   8.178   4.397 -0.1109  1.0887 -0.3253
  133MOL0     C17480  10.733   8.067   4.381  0.2787 -0.0219 -0.2102
  133MOL0     C17481  10.724   7.977   4.262  0.5720  0.0351 -1.3068
  133MOL0     O17482  10.789   7.855   4.238 -0.5143 -1.6708  0.5881
  133MOL0     C17483  10.878   7.833   4.344 -0.5327  0.7893 -0.5628
  133MOL0     C17484  10.964   7.713   4.304  0.4497 -0.0338  0.0070
  133MOL0     C17485  11.054   7.651   4.410 -0.2943  0.3197 -0.0975
  133MOL0     C17486  10.990   7.574   4.521 -0.4154  0.3919  0.0429
  133MOL0     C17487  11.086   7.512   4.616  0.1039  0.5576 -0.3977
  133MOL0     C17488  11.148   7.457   4.708 -0.3371 -0.0096  0.8568
  133MOL0     C17489  10.626   8.012   4.167  0.0765  0.4609 -0.0077
  133MOL0     C17490  10.541   8.120   4.188  0.6116 -0.0865 -0.3193
  133MOL0     H17491  10.288   8.290   4.671  3.0276  1.8006  1.1041
  133MOL0     H17492  10.081   8.427   4.749 -4.0454 -0.6080 -2.4114
  133MOL0     H17493   9.817   8.496   4.499  0.6870 -1.5460  2.1352
  133MOL0     H17494   9.855   8.659   4.442 -3.7068 -1.0523 -0.9745
  133MOL0     H17495   9.691   8.741   4.599 -0.5102 -0.3006 -1.2467
  133MOL0     H17496   9.740   8.642   4.723 -0.9740 -0.7256 -0.3605
  133MOL0     H17497   9.613   8.453   4.647 -0.0385 -0.8790 -0.9848
  133MOL0     H17498   9.579   8.532   4.494 -0.5806  4.0720 -1.1962
  133MOL0     H17499   9.511   8.674   4.748  1.2900 -1.1006  0.3270
  133MOL0     H17500   9.440   8.700   4.595 -0.4205 -0.6472 -1.8628
  133MOL0     H17501   9.285   8.602   4.744 -2.3969 -2.1674 -1.3675
  133MOL0     H17502   9.394   8.457   4.761  1.5908  0.4352  0.6788
  133MOL0     H17503   9.362   8.404   4.533  1.2396  0.3486 -2.6719
  133MOL0     H17504   9.287   8.553   4.484  0.4179 -3.4779 -2.7474
  133MOL0     H17505   9.101   8.386   4.495 -1.0447 -0.9108  1.1378
  133MOL0     H17506   9.133   8.358   4.665  1.0511 -2.6176 -2.2427
  133MOL0     H17507   9.108   8.649   4.566  1.2444 -2.1421 -0.9648
  133MOL0     H17508   9.057   8.575   4.714 -3.0632 -0.4439  0.3085
  133MOL0     H17509   8.878   8.336   4.635 -0.1717 -0.4342 -0.0844
  133MOL0     H17510   8.618   8.296   4.628 -2.5295 -1.3558 -1.0888
  133MOL0     H17511   8.565   8.324   4.473  1.8705 -2.4737  1.3256
  133MOL0     H17512   8.505   8.578   4.586 -1.6106  0.5446 -0.0359
  133MOL0     H17513   8.470   8.469   4.720  0.7910 -0.8271  0.4222
  133MOL0     H17514   8.368   8.478   4.432  0.5940  1.1541  0.3290
  133MOL0     H17515   8.338   8.334   4.527 -1.0939  0.2025 -0.8307
  133MOL0     H17516   8.249   8.476   4.710  0.2324  2.4587  0.8631
  133MOL0     H17517   8.145   8.449   4.570 -0.2268  1.8413 -0.6645
  133MOL0     H17518   7.981   8.523   4.676 -1.0434  0.2629 -0.5362
  133MOL0     H17519   7.801   8.627   4.749  0.9156  0.4086  1.2313
  133MOL0     H17520   7.577   8.922   5.001 -1.6661 -1.4021  2.8926
  133MOL0     H17521   7.342   8.992   5.068  0.4051  0.5948 -0.8353
  133MOL0     H17522   7.065   8.791   4.926  4.4240  2.6020  1.8703
  133MOL0     H17523   7.016   8.880   4.785 -0.5851 -0.4130  0.0264
  133MOL0     H17524   6.881   8.889   5.063 -0.7323 -0.6271  0.5233
  133MOL0     H17525   6.816   8.841   4.911  0.1809 -0.1130 -0.3322
  133MOL0     H17526   6.838   9.097   4.830  2.0378 -0.9644 -1.4105
  133MOL0     H17527   6.888   9.126   5.001  0.5419  0.7986 -1.0382
  133MOL0     H17528   6.621   8.996   4.902 -0.6740 -0.9233  1.1074
  133MOL0     H17529   6.674   9.004   5.065  1.5616 -0.7596 -1.1100
  133MOL0     H17530   6.670   9.238   5.078 -0.2726 -3.8009  1.2034
  133MOL0     H17531   6.514   9.185   5.015 -0.0816 -3.1507 -0.0531
  133MOL0     H17532   6.646   9.223   4.787 -3.3392  1.9186 -1.5296
  133MOL0     H17533   6.763   9.313   4.885  0.2920 -1.5029 -0.5745
  133MOL0     H17534   6.540   9.428   4.990  0.5558  0.4212 -0.1376
  133MOL0     H17535   6.616   9.482   4.834  1.6438  0.0517  0.0521
  133MOL0     H17536   6.373   9.290   4.873  0.0387  0.3552  3.4013
  133MOL0     H17537   6.430   9.348   4.715  1.9164 -0.5009  0.9942
  133MOL0     H17538   7.201   8.914   4.670  0.5411 -2.0508 -1.3282
  133MOL0     H17539   7.425   8.822   4.605 -0.8427  0.5433 -0.2094
  133MOL0     H17540   7.994   9.014   4.662  0.4440 -0.1221 -3.7595
  133MOL0     H17541   8.201   8.889   4.621 -1.9910  2.6202 -1.3446
  133MOL0     H17542  10.109   8.689   4.422 -0.7009 -1.3058 -0.5070
  133MOL0     H17543  10.321   8.557   4.346  3.2044  1.1261  2.5919
  133MOL0     H17544  10.648   8.239   4.487  1.7402 -0.3682  0.6979
  133MOL0     H17545  10.813   8.047   4.452  0.8255 -0.5509 -0.9524
  133MOL0     H17546  10.815   7.809   4.430 -1.0012  1.3843 -0.7363
  133MOL0     H17547  10.949   7.915   4.358  0.9000 -0.0976 -2.1446
  133MOL0     H17548  10.907   7.633   4.256  1.6725  0.2277 -2.0066
  133MOL0     H17549  11.034   7.743   4.225 -2.3766 -0.6088 -2.9486
  133MOL0     H17550  11.110   7.735   4.453 -0.1425  0.7386 -1.0838
  133MOL0     H17551  11.124   7.589   4.354  0.9391  0.9563  0.6954
  133MOL0     H17552  10.930   7.642   4.582  0.5244  1.7974 -0.5315
  133MOL0     H17553  10.929   7.496   4.474  1.6853 -1.8221  0.8005
  133MOL0     H17554  11.217   7.418   4.780  0.8266 -0.9876 -0.7230
  133MOL0     H17555  10.611   7.940   4.087 -1.4333 -0.4232  1.0252
  133MOL0     H17556  10.461   8.138   4.118 -0.9888 -0.2728  1.3841
  134MOL0     O17557   8.509   6.080   6.738  0.3638 -1.1274 -0.3902
  134MOL0     C17558   8.445   6.171   6.680 -0.5836 -0.6015  0.9051
  134MOL0     O17559   8.306   6.178   6.661  0.7829 -0.4299  0.8858
  134MOL0     C17560   8.249   6.060   6.627  0.1918  0.2502 -0.2654
  134MOL0     C17561   8.117   6.033   6.673 -0.3278  0.3580  0.0633
  134MOL0     C17562   8.046   5.923   6.614  0.4686  0.0314  0.2420
  134MOL0     C17563   8.106   5.833   6.521 -0.4927 -0.5013  0.1930
  134MOL0     O17564   8.021   5.735   6.469  0.2827 -0.3745 -0.1557
  134MOL0     C17565   7.899   5.696   6.540  0.0550  0.7345  0.2132
  134MOL0     C17566   7.917   5.629   6.679 -0.8041  0.3578  0.8413
  134MOL0     C17567   7.787   5.590   6.749 -0.4868  0.2367  0.0074
  134MOL0     C17568   7.708   5.475   6.677  0.0817  1.1904 -0.4454
  134MOL0     C17569   7.641   5.395   6.791  0.6061 -0.8102 -0.4210
  134MOL0     C17570   7.529   5.470   6.864 -0.0385 -0.6134  0.4612
  134MOL0     C17571   7.490   5.405   6.998 -0.9538  0.2720 -0.0376
  134MOL0     C17572   7.364   5.475   7.069 -0.0729  0.7172  0.2280
  134MOL0     N17573   7.334   5.403   7.193 -0.1894 -0.5830  0.0872
  134MOL0     C17574   7.260   5.289   7.209 -0.0713  1.0782 -0.4703
  134MOL0     C17575   7.263   5.246   7.339  0.8200  0.1762 -0.3583
  134MOL0     C17576   7.200   5.122   7.412  0.1623 -0.4089  0.1913
  134MOL0     C17577   7.055   5.144   7.449 -0.7828 -0.7537 -1.0478
  134MOL0     C17578   7.028   5.279   7.506  0.5906 -0.5283 -1.1697
  134MOL0     C17579   6.925   5.270   7.620  0.3985  0.3066 -0.5430
  134MOL0     O17580   6.795   5.246   7.559 -0.4597 -0.0814 -0.8913
  134MOL0     C17581   6.671   5.283   7.611  0.0243 -0.7689 -0.4025
  134MOL0     C17582   6.643   5.319   7.743  0.1016  0.1686 -0.6917
  134MOL0     C17583   6.513   5.331   7.796 -0.3477  0.0459  0.2570
  134MOL0     C17584   6.405   5.317   7.708 -0.7979  0.0762 -0.0815
  134MOL0     C17585   6.269   5.342   7.760  0.3268 -1.2856  0.4262
  134MOL0     O17586   6.168   5.318   7.666  0.1904 -0.3726  0.5823
  134MOL0     C17587   6.045   5.352   7.700 -0.3091 -0.8344  0.9217
  134MOL0     C17588   5.982   5.472   7.661  0.1811 -0.8403  0.6859
  134MOL0     C17589   5.846   5.503   7.685  0.3363 -0.8543 -0.7894
  134MOL0     C17590   5.762   5.403   7.735 -0.7783  0.9320 -0.3108
  134MOL0     O17591   5.634   5.434   7.746  0.4187  0.8684  0.3509
  134MOL0     C17592   5.543   5.314   7.725 -0.4262  0.4082  0.7400
  134MOL0     C17593   5.412   5.370   7.666  0.0470 -0.1148 -0.2277
  134MOL0     C17594   5.295   5.271   7.654  0.4237 -0.2212 -0.2508
  134MOL0     C17595   5.181   5.348   7.594 -0.5688 -0.0786  0.3286
  134MOL0     C17596   5.038   5.297   7.616  0.1851  0.5396  0.5288
  134MOL0     C17597   4.926   5.404   7.602  0.2649  0.1632  0.4216
  134MOL0     C17598   4.792   5.343   7.571  0.4852  0.0724 -0.4939
  134MOL0     C17599   4.764   5.220   7.666  0.2339  0.8779  0.3145
  134MOL0    Cl17600   4.739   5.258   7.846 -0.1213  0.1824  0.0481
  134MOL0     C17601   5.830   5.285   7.786 -0.3440  0.0873  0.0088
  134MOL0     C17602   5.965   5.267   7.767 -0.1556 -0.2332 -0.4601
  134MOL0     O17603   6.246   5.399   7.870 -0.6243 -0.2930 -0.2755
  134MOL0     C17604   6.433   5.277   7.584  0.3101 -0.4343  0.3612
  134MOL0     C17605   6.564   5.262   7.539  0.7568  0.3040  0.6294
  134MOL0     N17606   7.323   5.354   7.399 -0.1676  0.1037 -0.8020
  134MOL0     N17607   7.378   5.439   7.321 -0.1116 -0.0420  0.3729
  134MOL0     C17608   8.241   5.849   6.493  0.5930 -0.0543 -0.9470
  134MOL0     C17609   8.313   5.966   6.540  0.0332 -0.7509  0.6121
  134MOL0     C17610   8.537   6.274   6.621 -0.0884 -0.0539 -0.5892
  134MOL0     C17611   8.481   6.396   6.586  0.2014 -1.2087 -0.7387
  134MOL0     C17612   8.556   6.496   6.524 -0.1081 -0.5581  0.1796
  134MOL0     C17613   8.688   6.461   6.489 -0.5607 -0.9656  0.1447
  134MOL0     O17614   8.766   6.556   6.419 -0.2300 -1.0334  0.2198
  134MOL0     C17615   8.857   6.631   6.504 -0.4399  0.0191 -0.9594
  134MOL0     C17616   9.002   6.578   6.509  0.3266 -0.2871 -0.1726
  134MOL0     C17617   9.082   6.628   6.378  0.0395 -0.3333  0.5175
  134MOL0     C17618   9.097   6.526   6.266  0.5433 -0.5481 -0.7199
  134MOL0     C17619   9.190   6.425   6.321  1.2429  0.8061 -0.1915
  134MOL0     C17620   9.256   6.334   6.373  0.7078  0.1819 -0.1430
  134MOL0     C17621   8.751   6.336   6.526 -0.0270  0.6426  0.1788
  134MOL0     C17622   8.671   6.239   6.596 -0.8574 -0.0285 -0.6055
  134MOL0     H17623   8.063   6.103   6.736  0.6182 -0.4093  1.7883
  134MOL0     H17624   7.941   5.921   6.641  0.0985  3.6078 -0.4493
  134MOL0     H17625   7.856   5.613   6.483  0.4221 -0.9883  2.3308
  134MOL0     H17626   7.824   5.776   6.543 -1.5760 -0.7585  0.7592
  134MOL0     H17627   7.964   5.699   6.750 -3.4596  1.3763  1.7405
  134MOL0     H17628   7.987   5.544   6.680  2.5072  2.8531  0.9726
  134MOL0     H17629   7.726   5.680   6.762  1.0263  1.5030 -1.2760
  134MOL0     H17630   7.823   5.554   6.845 -1.2321  3.4021  1.6067
  134MOL0     H17631   7.619   5.507   6.622 -0.0652 -1.7266 -2.0806
  134MOL0     H17632   7.771   5.416   6.610  0.5397  0.1669  0.8485
  134MOL0     H17633   7.715   5.364   6.865 -1.1963 -0.9034  1.4487
  134MOL0     H17634   7.595   5.302   6.755  1.5698 -0.9407 -1.3803
  134MOL0     H17635   7.447   5.482   6.792  1.0033  0.0875 -0.6549
  134MOL0     H17636   7.568   5.566   6.897  2.3864 -1.3218 -0.0849
  134MOL0     H17637   7.470   5.299   6.979 -3.3627  0.3385  1.7009
  134MOL0     H17638   7.578   5.418   7.061  0.7315  0.9191 -2.3647
  134MOL0     H17639   7.275   5.462   7.007 -1.6548  2.5197  1.9736
  134MOL0     H17640   7.379   5.580   7.097 -2.7062  1.4570 -0.8216
  134MOL0     H17641   7.221   5.235   7.124  0.1934 -1.4060  0.9025
  134MOL0     H17642   7.260   5.090   7.498 -1.6934 -0.7873  1.3942
  134MOL0     H17643   7.208   5.041   7.339  1.5713  0.2981 -0.4783
  134MOL0     H17644   7.043   5.064   7.522  3.1872 -0.4646  0.1632
  134MOL0     H17645   6.991   5.128   7.362  0.0229 -3.9188 -1.1670
  134MOL0     H17646   7.121   5.317   7.550  1.5655 -2.2473 -1.6475
  134MOL0     H17647   6.994   5.341   7.423 -3.0925 -1.9052 -0.8550
  134MOL0     H17648   6.916   5.363   7.677  2.1151 -0.2831  0.7828
  134MOL0     H17649   6.946   5.194   7.696 -0.2553 -1.3622 -1.9722
  134MOL0     H17650   6.722   5.344   7.813  2.0259  4.7371 -4.0328
  134MOL0     H17651   6.513   5.371   7.897  0.9717  1.4677 -0.2670
  134MOL0     H17652   6.042   5.546   7.609  0.3570 -0.1029  1.8941
  134MOL0     H17653   5.805   5.594   7.642  1.4215  0.9129  1.6759
  134MOL0     H17654   5.522   5.281   7.827 -0.9359  1.3352  0.9470
  134MOL0     H17655   5.574   5.227   7.666 -0.3398  0.5929  0.5081
  134MOL0     H17656   5.446   5.419   7.574  1.3327  3.0080  1.7264
  134MOL0     H17657   5.380   5.451   7.733 -0.0737 -0.0063 -0.4170
  134MOL0     H17658   5.275   5.223   7.750 -1.0876  2.4290  0.8569
  134MOL0     H17659   5.323   5.189   7.587 -1.1529 -1.9530  1.1264
  134MOL0     H17660   5.186   5.451   7.632  3.9082  0.3350 -0.7653
  134MOL0     H17661   5.201   5.350   7.487  1.6470 -1.4598  0.6430
  134MOL0     H17662   5.037   5.247   7.713 -1.3716 -1.3625 -0.4056
  134MOL0     H17663   5.018   5.224   7.536 -0.3561  0.6598  0.5511
  134MOL0     H17664   4.967   5.467   7.522  0.5192 -0.4570  0.0537
  134MOL0     H17665   4.937   5.460   7.695 -0.2992 -0.7187  1.0412
  134MOL0     H17666   4.716   5.420   7.587 -0.0995 -0.5805  0.0001
  134MOL0     H17667   4.794   5.309   7.468 -1.5797 -1.2415 -0.1699
  134MOL0     H17668   4.843   5.145   7.655 -1.3922 -1.0404  1.0987
  134MOL0     H17669   4.674   5.180   7.619 -0.0718  2.1939 -0.2696
  134MOL0     H17670   5.768   5.212   7.837 -2.0397  1.1014 -0.5033
  134MOL0     H17671   6.013   5.175   7.801  2.1673  1.7615  2.2543
  134MOL0     H17672   6.354   5.273   7.510  0.7069  1.2762 -0.2226
  134MOL0     H17673   6.581   5.227   7.437 -0.6768 -2.9398  1.3679
  134MOL0     H17674   8.286   5.778   6.425 -0.6635 -0.8547 -0.9861
  134MOL0     H17675   8.414   5.979   6.503  0.0016 -0.8800  0.4850
  134MOL0     H17676   8.376   6.419   6.600 -0.3199 -2.8588 -1.5657
  134MOL0     H17677   8.518   6.597   6.507 -1.8257 -0.6786  2.7013
  134MOL0     H17678   8.820   6.635   6.607 -0.4835 -1.3018 -0.9053
  134MOL0     H17679   8.868   6.736   6.475  0.9996  0.2451  0.2757
  134MOL0     H17680   9.051   6.607   6.602 -2.7393 -0.1147  1.5306
  134MOL0     H17681   8.995   6.469   6.509 -5.7124 -0.2119 -1.0935
  134MOL0     H17682   9.178   6.675   6.402  0.9601 -1.4563 -0.8221
  134MOL0     H17683   9.023   6.708   6.334  2.3544  2.5735  2.3679
  134MOL0     H17684   9.002   6.490   6.227  1.4300 -0.9119 -2.6500
  134MOL0     H17685   9.142   6.579   6.181  1.5779  1.3201  0.8938
  134MOL0     H17686   9.314   6.269   6.435 -3.0871 -1.8281  1.6217
  134MOL0     H17687   8.854   6.314   6.498  0.4098 -0.4772  2.4061
  134MOL0     H17688   8.718   6.146   6.628 -2.1170 -0.3404  0.4032
  135MOL0     O17689   1.501   4.216  10.062  0.3228  0.9463  0.0203
  135MOL0     C17690   1.541   4.307  10.130 -0.4120  0.2062  0.7533
  135MOL0     O17691   1.466   4.355  10.233 -0.1747 -0.8464  0.4859
  135MOL0     C17692   1.347   4.304  10.262  1.1475 -0.1770  0.4478
  135MOL0     C17693   1.233   4.372  10.217 -0.1639 -0.0375  0.2304
  135MOL0     C17694   1.106   4.331  10.254  0.6300  0.0734  0.1198
  135MOL0     C17695   1.098   4.204  10.322  0.5673 -0.7561 -0.6756
  135MOL0     O17696   0.975   4.145  10.359 -0.0804  0.1931 -0.6828
  135MOL0     C17697   0.861   4.223  10.337 -0.9114 -0.0119  0.5902
  135MOL0     C17698   0.735   4.134  10.355  0.0978 -0.5479  0.0153
  135MOL0     C17699   0.612   4.230  10.364 -0.3433 -0.7055  0.0873
  135MOL0     C17700   0.474   4.152  10.361 -0.5314 -0.1179  0.9208
  135MOL0     C17701   0.352   4.239  10.357 -0.2052 -0.7441  1.1344
  135MOL0     C17702   0.232   4.151  10.324  0.5701 -0.3408  0.5109
  135MOL0     C17703   0.109   4.248  10.311  0.5759 -0.2882 -0.2230
  135MOL0     C17704   0.040   4.240  10.449 -0.6515 -0.4191  0.2979
  135MOL0     N17705  -0.093   4.290  10.448 -0.8657  0.1087 -0.2697
  135MOL0     C17706  -0.204   4.225  10.404  0.1833 -0.4342  0.9056
  135MOL0     C17707  -0.300   4.321  10.398  0.0768  0.1715  0.4022
  135MOL0     C17708  -0.440   4.308  10.342  0.5443  0.4171  0.4619
  135MOL0     C17709  -0.549   4.300  10.453 -0.2579  1.1325  1.6750
  135MOL0     C17710  -0.532   4.409  10.560  0.2175  0.0850  0.2280
  135MOL0     C17711  -0.545   4.555  10.509  0.8330 -0.1834 -0.7297
  135MOL0     O17712  -0.609   4.647  10.608 -0.3784 -0.6481  1.3259
  135MOL0     C17713  -0.749   4.647  10.615  0.1501  0.7753 -0.8720
  135MOL0     C17714  -0.826   4.530  10.596 -1.1033  0.3600 -0.3410
  135MOL0     C17715  -0.961   4.517  10.620 -0.0323 -0.2331 -0.4658
  135MOL0     C17716  -1.035   4.620  10.684 -0.6847 -0.3076 -0.1064
  135MOL0     C17717  -1.179   4.614  10.724 -1.0558 -1.0279  0.1010
  135MOL0     O17718  -1.243   4.722  10.775 -0.2926  0.1110  0.4312
  135MOL0     C17719  -1.375   4.727  10.774  0.2304  0.8146 -0.8076
  135MOL0     C17720  -1.450   4.727  10.659  0.4511  1.1163  0.0222
  135MOL0     C17721  -1.586   4.730  10.676 -0.6482  0.2137  0.7994
  135MOL0     C17722  -1.646   4.750  10.802  0.8659 -0.0561  0.3890
  135MOL0     O17723  -1.781   4.780  10.820  0.4667 -0.5624  0.1292
  135MOL0     C17724  -1.854   4.813  10.705  0.5212  0.1287  0.5590
  135MOL0     C17725  -1.972   4.898  10.734 -0.0187 -0.6157 -0.2931
  135MOL0     C17726  -2.081   4.899  10.626  0.6715  0.0518 -0.7064
  135MOL0     C17727  -2.200   5.000  10.655 -0.1499  0.0191 -0.3408
  135MOL0     C17728  -2.298   5.011  10.543  0.0848 -0.5399  0.1948
  135MOL0     C17729  -2.428   5.071  10.591  0.1569 -0.1472 -0.1048
  135MOL0     C17730  -2.546   5.068  10.483 -0.4483  0.0355 -0.3516
  135MOL0     C17731  -2.678   5.126  10.524  0.1186  0.5325  0.5714
  135MOL0    Cl17732  -2.818   5.106  10.416 -0.0261  0.1333  0.4237
  135MOL0     C17733  -1.568   4.758  10.915 -1.8606  0.3579 -0.5508
  135MOL0     C17734  -1.431   4.738  10.904  0.7040  0.0570 -0.5673
  135MOL0     O17735  -1.232   4.517  10.671  0.3704 -0.3845  0.2239
  135MOL0     C17736  -0.962   4.738  10.713  0.2980  0.1245 -0.7715
  135MOL0     C17737  -0.823   4.751  10.675  1.0328  0.8114  0.0487
  135MOL0     N17738  -0.240   4.446  10.433  0.1771 -0.0126 -0.6132
  135MOL0     N17739  -0.120   4.425  10.466 -0.2168  0.6199 -0.4178
  135MOL0     C17740   1.212   4.139  10.376 -1.1409  0.2859 -0.4477
  135MOL0     C17741   1.337   4.192  10.346 -0.3248 -0.0911  0.5339
  135MOL0     C17742   1.653   4.381  10.093 -0.5969 -0.3641  0.3829
  135MOL0     C17743   1.715   4.461  10.190 -0.4080 -0.1409  0.7127
  135MOL0     C17744   1.827   4.528  10.159 -0.4451 -0.0042  0.0567
  135MOL0     C17745   1.900   4.511  10.039 -0.7081 -0.1586  0.4671
  135MOL0     O17746   2.021   4.564  10.022  0.2580 -0.4597  0.5365
  135MOL0     C17747   2.104   4.630  10.116 -0.6520 -0.0301 -0.7726
  135MOL0     C17748   2.129   4.778  10.066 -0.7764  0.3070 -0.5946
  135MOL0     C17749   2.218   4.787   9.938  0.0191  0.4110  0.1434
  135MOL0     C17750   2.198   4.921   9.873  0.6581 -1.7267 -0.0576
  135MOL0     C17751   2.231   5.031   9.963  0.3902 -0.2613  0.0388
  135MOL0     C17752   2.267   5.116  10.043  0.3335  0.2160 -0.7902
  135MOL0     C17753   1.841   4.423   9.947 -0.0141  0.4587 -0.4608
  135MOL0     C17754   1.721   4.364   9.973  0.5942  0.2369 -0.7654
  135MOL0     H17755   1.250   4.451  10.144 -1.6047  0.1772  0.1084
  135MOL0     H17756   1.024   4.384  10.207 -1.0403  0.5432  3.2490
  135MOL0     H17757   0.872   4.251  10.232 -2.5198  1.5189  0.7859
  135MOL0     H17758   0.862   4.306  10.408 -0.8681 -0.8881  1.6309
  135MOL0     H17759   0.734   4.079  10.450  1.2828 -0.1116  0.2982
  135MOL0     H17760   0.731   4.053  10.282  1.6997 -0.4600 -0.2167
  135MOL0     H17761   0.607   4.292  10.273  2.2563 -1.2173 -0.4900
  135MOL0     H17762   0.617   4.292  10.454  0.7625  0.0226 -0.4529
  135MOL0     H17763   0.478   4.082  10.277 -2.2808 -1.5794  1.9826
  135MOL0     H17764   0.467   4.087  10.449 -0.2683  1.8792  2.4938
  135MOL0     H17765   0.362   4.309  10.273  2.6104 -0.5434  1.5613
  135MOL0     H17766   0.345   4.296  10.450 -2.0430  0.7049  0.1889
  135MOL0     H17767   0.224   4.079  10.405  0.7846 -2.7453 -1.4797
  135MOL0     H17768   0.235   4.107  10.223 -2.2475 -1.0145  0.6406
  135MOL0     H17769   0.142   4.348  10.280  0.8945 -0.3026  0.0565
  135MOL0     H17770   0.039   4.215  10.235 -2.5267 -0.3558  2.4558
  135MOL0     H17771   0.105   4.290  10.521  0.0372  0.2972 -0.7859
  135MOL0     H17772   0.030   4.134  10.473 -0.4956 -0.8389 -1.3879
  135MOL0     H17773  -0.219   4.121  10.378  1.4898 -0.7809  1.4329
  135MOL0     H17774  -0.453   4.231  10.266 -1.5708  0.2438  0.9502
  135MOL0     H17775  -0.450   4.405  10.291  2.2196  0.4971  0.2349
  135MOL0     H17776  -0.534   4.199  10.493  0.0695  1.6410  2.8901
  135MOL0     H17777  -0.648   4.311  10.407 -0.0149 -0.9650  0.5522
  135MOL0     H17778  -0.602   4.385  10.640 -0.9088  0.5606 -0.5859
  135MOL0     H17779  -0.431   4.396  10.600  1.0321 -3.6240 -2.4863
  135MOL0     H17780  -0.599   4.561  10.414 -0.0548  1.8450 -0.1543
  135MOL0     H17781  -0.443   4.588  10.491  1.2517 -1.3848 -0.6285
  135MOL0     H17782  -0.785   4.443  10.546  2.0720  2.4428 -1.7456
  135MOL0     H17783  -1.011   4.422  10.605 -1.8185  0.4420  0.8421
  135MOL0     H17784  -1.408   4.724  10.559 -0.9880 -0.7104 -0.5706
  135MOL0     H17785  -1.647   4.732  10.586 -2.1797 -3.6932  1.5644
  135MOL0     H17786  -1.877   4.725  10.645  0.1340 -0.0442  0.9587
  135MOL0     H17787  -1.800   4.868  10.626 -1.1053  2.7738  1.1466
  135MOL0     H17788  -1.930   4.998  10.748 -2.4689  0.2560  1.6372
  135MOL0     H17789  -2.021   4.876  10.829  2.0539  0.0358  0.9779
  135MOL0     H17790  -2.133   4.803  10.616 -2.0495  0.8431  3.5430
  135MOL0     H17791  -2.031   4.912  10.529 -1.2324 -2.4732 -2.1585
  135MOL0     H17792  -2.241   4.968  10.752  3.6947 -1.3673  1.0074
  135MOL0     H17793  -2.158   5.101  10.663  1.7584 -0.3941 -3.5189
  135MOL0     H17794  -2.319   4.911  10.503 -1.6715  0.4645 -1.6097
  135MOL0     H17795  -2.256   5.077  10.467  1.0247 -1.2480  0.0735
  135MOL0     H17796  -2.412   5.179  10.599 -0.0810 -0.1680  0.6789
  135MOL0     H17797  -2.463   5.018  10.680  0.3300 -2.5209 -1.3601
  135MOL0     H17798  -2.510   5.119  10.393  0.6011 -3.5680 -2.1571
  135MOL0     H17799  -2.558   4.962  10.458 -1.7552 -0.5318  2.3384
  135MOL0     H17800  -2.669   5.235  10.532 -1.0899  0.6942 -0.0505
  135MOL0     H17801  -2.706   5.090  10.624 -1.0861  3.4177  1.3797
  135MOL0     H17802  -1.605   4.762  11.017 -1.1501  0.2833 -0.2816
  135MOL0     H17803  -1.375   4.715  10.994 -2.3272  0.7014  1.6547
  135MOL0     H17804  -0.995   4.824  10.770 -1.0737 -1.7296  1.3649
  135MOL0     H17805  -0.767   4.840  10.703 -2.4544  2.6624  1.8150
  135MOL0     H17806   1.192   4.057  10.444  0.6652  1.7740  2.0514
  135MOL0     H17807   1.421   4.136  10.385 -0.8597 -1.1444  0.2031
  135MOL0     H17808   1.668   4.465  10.288 -2.6869 -0.7072 -0.2929
  135MOL0     H17809   1.876   4.591  10.233 -2.6693  1.1420  0.6509
  135MOL0     H17810   2.198   4.576  10.131 -1.5423 -0.8685  3.0078
  135MOL0     H17811   2.068   4.638  10.219  0.8984 -2.7160  0.0883
  135MOL0     H17812   2.035   4.827  10.039 -0.7764  1.8478  1.9080
  135MOL0     H17813   2.161   4.842  10.148  0.1866 -0.7814 -0.1009
  135MOL0     H17814   2.204   4.704   9.869 -3.7599 -1.8491  3.2062
  135MOL0     H17815   2.326   4.784   9.953 -0.0069  1.4550  0.6430
  135MOL0     H17816   2.265   4.923   9.786 -0.2382  0.9993 -0.7942
  135MOL0     H17817   2.092   4.922   9.849  0.4177 -2.4604  0.9318
  135MOL0     H17818   2.281   5.186  10.123  0.5360  0.2743 -0.8753
  135MOL0     H17819   1.892   4.407   9.852 -0.8624  0.5002 -0.9254
  135MOL0     H17820   1.674   4.299   9.900  2.9269  0.3669 -2.4807
  136MOL0     O17821   7.922   9.869   1.752  0.3463  0.1326  0.0034
  136MOL0     C17822   7.940   9.748   1.787  0.7011 -0.5321 -0.8735
  136MOL0     O17823   7.856   9.647   1.780 -0.2001 -0.0088  0.2307
  136MOL0     C17824   7.722   9.650   1.749 -0.3829 -0.1516  0.3418
  136MOL0     C17825   7.644   9.756   1.712 -0.1565  0.0415 -0.2758
  136MOL0     C17826   7.511   9.741   1.680 -0.0614 -0.2954 -0.2917
  136MOL0     C17827   7.452   9.612   1.689  0.1373 -0.4436  0.7302
  136MOL0     O17828   7.321   9.616   1.677 -0.2337  0.5406 -0.4248
  136MOL0     C17829   7.247   9.492   1.658 -0.1012 -0.5718 -0.1798
  136MOL0     C17830   7.197   9.436   1.789  0.6986  0.0177 -0.1039
  136MOL0     C17831   7.100   9.319   1.769 -0.0514  0.1243 -0.0466
  136MOL0     C17832   6.972   9.359   1.685  0.8025  0.8663  0.4042
  136MOL0     C17833   6.849   9.273   1.712 -0.8617  0.9080 -0.7770
  136MOL0     C17834   6.728   9.317   1.633 -0.2408  0.7545  0.3950
  136MOL0     C17835   6.607   9.219   1.627  0.0669 -0.2077 -0.2342
  136MOL0     C17836   6.535   9.197   1.758  0.3224  0.1630  0.5059
  136MOL0     N17837   6.392   9.153   1.748 -1.1412 -0.5629 -0.0042
  136MOL0     C17838   6.317   9.155   1.857  0.4504  0.5416 -0.5762
  136MOL0     C17839   6.204   9.085   1.823 -0.0602  0.0720  0.0890
  136MOL0     C17840   6.090   9.074   1.921 -0.2519  0.0687 -0.1261
  136MOL0     C17841   5.957   9.127   1.873  0.1786 -0.3595  0.1925
  136MOL0     C17842   5.855   9.099   1.981  0.0091 -0.3165  0.9391
  136MOL0     C17843   5.712   9.143   1.933  1.1706  1.5038 -0.1339
  136MOL0     O17844   5.620   9.030   1.960  0.5419 -0.5242  0.1846
  136MOL0     C17845   5.482   9.062   1.940 -0.0849  1.0890  0.2289
  136MOL0     C17846   5.432   9.184   1.876 -0.1710 -1.0332 -0.0325
  136MOL0     C17847   5.292   9.200   1.880  0.1696 -1.0049  0.0262
  136MOL0     C17848   5.209   9.104   1.941 -0.2278  0.2092  0.7829
  136MOL0     C17849   5.061   9.126   1.938 -0.4340 -0.5450  0.6134
  136MOL0     O17850   4.976   9.019   1.922 -0.2461 -0.8699  0.0176
  136MOL0     C17851   4.836   9.020   1.895  0.5469  0.4000 -0.1393
  136MOL0     C17852   4.769   8.900   1.913 -0.0991 -0.3108  0.4233
  136MOL0     C17853   4.631   8.889   1.876 -0.2678  0.2844 -0.8973
  136MOL0     C17854   4.558   9.005   1.845 -0.3162  0.3063  0.1566
  136MOL0     O17855   4.424   9.006   1.834 -0.5214 -0.0105 -0.0692
  136MOL0     C17856   4.349   8.948   1.943 -0.7189 -0.5097  0.8616
  136MOL0     C17857   4.202   8.913   1.894 -0.0594 -0.5983 -0.8771
  136MOL0     C17858   4.206   8.822   1.775 -0.1557 -0.1917  0.5780
  136MOL0     C17859   4.061   8.791   1.715 -0.4406 -0.6417  0.1172
  136MOL0     C17860   4.060   8.681   1.610  0.0710  0.7387  1.0601
  136MOL0     C17861   3.910   8.644   1.565 -0.1963 -0.1325  0.7708
  136MOL0     C17862   3.931   8.533   1.462 -0.0539 -0.4252  0.7729
  136MOL0     C17863   3.806   8.461   1.411 -0.1396 -0.2019 -0.4707
  136MOL0    Cl17864   3.851   8.356   1.273 -0.0521 -0.3496 -0.6223
  136MOL0     C17865   4.624   9.132   1.828 -0.3597 -0.0050  0.0406
  136MOL0     C17866   4.763   9.138   1.863  0.8472  0.1287  0.3908
  136MOL0     O17867   5.024   9.242   1.931 -0.4290 -0.1572  0.3549
  136MOL0     C17868   5.261   8.990   2.002  0.9541 -0.9992  0.1733
  136MOL0     C17869   5.394   8.969   2.004 -0.3311 -0.1965 -0.1881
  136MOL0     N17870   6.220   9.031   1.697  0.3018  0.1238  0.0173
  136MOL0     N17871   6.336   9.069   1.662 -0.8254  0.9587 -0.5239
  136MOL0     C17872   7.532   9.504   1.723 -0.1773 -0.6444  0.0920
  136MOL0     C17873   7.664   9.526   1.756 -0.1418 -0.1090 -0.2053
  136MOL0     C17874   8.077   9.720   1.841  0.3912  0.1467  0.3760
  136MOL0     C17875   8.107   9.609   1.920 -0.0638  0.4774 -0.2875
  136MOL0     C17876   8.235   9.577   1.958 -0.4400 -1.4354 -0.5729
  136MOL0     C17877   8.340   9.673   1.933  0.1570 -0.5137  0.1223
  136MOL0     O17878   8.473   9.647   1.958 -0.0260  0.8039 -1.0689
  136MOL0     C17879   8.511   9.530   2.038  1.0232 -0.0983 -0.0827
  136MOL0     C17880   8.648   9.479   2.004  0.7529  0.5408 -0.0419
  136MOL0     C17881   8.754   9.574   2.051  0.1129 -0.2889  0.4207
  136MOL0     C17882   8.891   9.513   2.028  0.6742 -0.2856  0.0268
  136MOL0     C17883   8.938   9.529   1.892 -0.1736 -0.3606 -0.0657
  136MOL0     C17884   8.980   9.535   1.774 -0.0023  0.0219  0.2939
  136MOL0     C17885   8.304   9.778   1.858 -0.5406 -0.2895  0.0643
  136MOL0     C17886   8.177   9.811   1.814  0.7267  0.4533 -0.6147
  136MOL0     H17887   7.681   9.858   1.707  0.2228 -0.1551 -2.5890
  136MOL0     H17888   7.456   9.829   1.647 -3.4843 -1.3295  2.0963
  136MOL0     H17889   7.306   9.414   1.609  1.6985  0.6174  0.0209
  136MOL0     H17890   7.160   9.512   1.594  1.3695  2.2354 -1.4782
  136MOL0     H17891   7.146   9.511   1.850 -0.2588 -0.9187  0.2646
  136MOL0     H17892   7.282   9.408   1.852 -0.1151 -2.2118  0.0910
  136MOL0     H17893   7.070   9.287   1.869 -0.2571 -2.5667 -0.8865
  136MOL0     H17894   7.143   9.236   1.711 -1.9074 -0.6537 -0.3860
  136MOL0     H17895   6.944   9.463   1.702  0.7178  0.7849  0.7756
  136MOL0     H17896   6.994   9.358   1.578 -0.5340  3.2770  0.0624
  136MOL0     H17897   6.823   9.265   1.818  1.7148 -0.2572 -0.1515
  136MOL0     H17898   6.877   9.170   1.691  1.0193  1.2653 -0.2971
  136MOL0     H17899   6.758   9.331   1.529 -1.9155  1.2254 -0.0653
  136MOL0     H17900   6.697   9.415   1.668  1.7485  1.8704 -0.8127
  136MOL0     H17901   6.530   9.259   1.561 -1.1030 -0.7354  0.7658
  136MOL0     H17902   6.635   9.123   1.583 -0.6653  0.0164 -1.2332
  136MOL0     H17903   6.540   9.284   1.824  0.1647  0.9165 -0.4485
  136MOL0     H17904   6.579   9.112   1.811 -1.8803 -1.0891  0.4910
  136MOL0     H17905   6.335   9.203   1.953  1.0494 -1.6920  0.4955
  136MOL0     H17906   6.116   9.129   2.012  0.4349 -1.0824  0.4031
  136MOL0     H17907   6.085   8.969   1.951  0.7152  0.5911  2.0189
  136MOL0     H17908   5.924   9.078   1.781  1.4676 -0.7547 -0.0856
  136MOL0     H17909   5.980   9.231   1.845 -1.1913 -0.4856 -1.5547
  136MOL0     H17910   5.839   8.992   1.993 -1.9349 -0.1869 -0.0484
  136MOL0     H17911   5.885   9.155   2.070  1.9219  1.4220 -0.6814
  136MOL0     H17912   5.714   9.150   1.824  1.2002 -0.7910 -0.3303
  136MOL0     H17913   5.679   9.237   1.978  1.3871  1.0333  1.0508
  136MOL0     H17914   5.505   9.256   1.839  0.6594 -1.4356  0.7714
  136MOL0     H17915   5.254   9.295   1.843  0.8586 -0.7790 -0.1275
  136MOL0     H17916   4.829   8.812   1.933  2.4412  1.7466  2.5457
  136MOL0     H17917   4.578   8.794   1.866  1.7594 -0.8758 -1.0130
  136MOL0     H17918   4.354   9.020   2.025 -0.1999 -1.0424  1.3061
  136MOL0     H17919   4.415   8.866   1.975  0.9580  0.8465  1.0385
  136MOL0     H17920   4.140   9.003   1.894  0.0984 -0.0994  4.8312
  136MOL0     H17921   4.169   8.852   1.978  1.3720 -0.0391  0.1410
  136MOL0     H17922   4.259   8.728   1.790  0.9206  0.7177  3.0942
  136MOL0     H17923   4.261   8.878   1.699 -0.5093  0.6132  0.9003
  136MOL0     H17924   3.984   8.770   1.789 -1.1585 -1.5023 -0.8370
  136MOL0     H17925   4.024   8.883   1.670  1.0133  0.5292  1.2093
  136MOL0     H17926   4.097   8.586   1.649 -2.1710  0.7656  3.5080
  136MOL0     H17927   4.124   8.703   1.524 -2.0733 -2.8185 -1.6993
  136MOL0     H17928   3.855   8.720   1.509 -1.5483 -1.3640  0.3582
  136MOL0     H17929   3.854   8.609   1.653 -0.5681 -1.2981  0.0865
  136MOL0     H17930   3.966   8.579   1.369  1.0276 -0.8611  0.9491
  136MOL0     H17931   4.003   8.460   1.499  0.4490 -0.0321  0.5823
  136MOL0     H17932   3.724   8.525   1.377 -1.0105 -1.7261 -1.4059
  136MOL0     H17933   3.760   8.399   1.488 -1.3480 -0.8041 -1.6300
  136MOL0     H17934   4.566   9.218   1.797 -1.1465 -0.8800 -1.0168
  136MOL0     H17935   4.818   9.230   1.849  1.1223 -0.1061 -0.1024
  136MOL0     H17936   5.183   8.926   2.044 -2.8413  1.5837 -2.2852
  136MOL0     H17937   5.440   8.886   2.057  0.8171  1.0962  0.8917
  136MOL0     H17938   7.486   9.406   1.721 -1.3210 -0.1805  1.8085
  136MOL0     H17939   7.716   9.442   1.800 -0.7156 -0.2275  0.2552
  136MOL0     H17940   8.031   9.534   1.940  0.3665 -0.7453 -2.7611
  136MOL0     H17941   8.250   9.488   2.018 -1.5568 -1.1390  0.1668
  136MOL0     H17942   8.435   9.452   2.028  0.1757  0.5358  1.1836
  136MOL0     H17943   8.515   9.558   2.143  1.9356  2.4758 -0.7265
  136MOL0     H17944   8.671   9.386   2.057 -0.4504  1.3065  1.9579
  136MOL0     H17945   8.651   9.465   1.896 -2.3408 -1.7488  0.0463
  136MOL0     H17946   8.743   9.597   2.157 -0.5692 -0.8607  0.4840
  136MOL0     H17947   8.738   9.673   2.007 -0.0344  1.1008  3.3560
  136MOL0     H17948   8.947   9.573   2.100 -2.4082  0.0983  2.3199
  136MOL0     H17949   8.886   9.407   2.054  0.8656 -0.5838 -1.1002
  136MOL0     H17950   9.028   9.551   1.680  1.0814  0.1791  0.8528
  136MOL0     H17951   8.383   9.846   1.830  0.8001 -1.3459  1.1497
  136MOL0     H17952   8.159   9.898   1.752  2.9509  0.7028 -0.9901
  137MOL0     O17953  10.208   6.726   3.883  0.4358 -0.1709  0.0423
  137MOL0     C17954  10.135   6.807   3.940 -0.7808 -0.4373  0.1359
  137MOL0     O17955  10.167   6.884   4.059  0.0325  0.0103  0.2194
  137MOL0     C17956  10.285   6.856   4.128 -0.3549  0.5731  0.5289
  137MOL0     C17957  10.306   6.735   4.200 -0.1193  0.5259  1.1066
  137MOL0     C17958  10.426   6.709   4.261 -0.0699 -0.8035 -0.8642
  137MOL0     C17959  10.529   6.798   4.253 -0.2778  0.7878  0.4713
  137MOL0     O17960  10.640   6.751   4.315  0.5200  0.5633 -0.4164
  137MOL0     C17961  10.767   6.814   4.293 -0.1733 -0.2106  0.2252
  137MOL0     C17962  10.875   6.740   4.373 -0.2110 -0.5644  0.2509
  137MOL0     C17963  10.900   6.601   4.324  0.2566  0.2203 -0.6027
  137MOL0     C17964  10.962   6.512   4.429 -0.2375  0.1608 -0.0514
  137MOL0     C17965  11.022   6.388   4.365  0.3440 -0.4441  0.6320
  137MOL0     C17966  10.915   6.291   4.296 -0.1798  0.5161 -0.7391
  137MOL0     C17967  10.811   6.252   4.398  0.7510  0.1204  0.0112
  137MOL0     C17968  10.734   6.124   4.342 -0.3570 -0.8223 -0.0465
  137MOL0     N17969  10.817   6.001   4.355  0.6314  0.2648 -0.3873
  137MOL0     C17970  10.844   5.936   4.471  0.4418  1.0988 -0.1360
  137MOL0     C17971  10.898   5.817   4.431  0.1428  0.9788  0.5924
  137MOL0     C17972  10.928   5.703   4.523  0.4153 -0.0377 -0.2285
  137MOL0     C17973  10.820   5.591   4.534  0.1476 -0.3987 -0.0229
  137MOL0     C17974  10.819   5.516   4.670 -0.0588 -0.0683  0.1386
  137MOL0     C17975  10.740   5.388   4.666 -0.2571  0.7476  0.0753
  137MOL0     O17976  10.684   5.359   4.787  0.3033  0.0667 -0.3301
  137MOL0     C17977  10.598   5.255   4.787  0.1224 -0.8843  0.3949
  137MOL0     C17978  10.488   5.266   4.868  0.7337 -0.2715  0.3432
  137MOL0     C17979  10.381   5.184   4.868  0.0016 -0.4649 -0.0659
  137MOL0     C17980  10.391   5.064   4.793  0.4790 -0.6794  1.2395
  137MOL0     C17981  10.282   4.955   4.806 -0.9389 -0.8252  0.6065
  137MOL0     O17982  10.186   4.973   4.896  0.6718  1.0471 -0.1050
  137MOL0     C17983  10.079   4.889   4.879 -0.4387 -0.6000  0.3997
  137MOL0     C17984  10.082   4.768   4.942  0.5793 -0.2583 -0.6384
  137MOL0     C17985   9.969   4.690   4.941 -0.2396  0.6510  0.4322
  137MOL0     C17986   9.851   4.728   4.879 -1.1042  0.2561  0.2053
  137MOL0     O17987   9.738   4.659   4.890 -0.5458 -0.2916 -0.6879
  137MOL0     C17988   9.712   4.609   5.021  0.3705  0.1115  0.6484
  137MOL0     C17989   9.565   4.546   5.043  0.7156  0.1741 -1.1881
  137MOL0     C17990   9.472   4.665   5.056  0.4614  1.3242 -0.3195
  137MOL0     C17991   9.448   4.704   5.193  0.7992 -0.6647  0.1571
  137MOL0     C17992   9.418   4.855   5.210  0.0893 -0.5738 -0.2745
  137MOL0     C17993   9.284   4.907   5.145 -1.4082  0.3377 -0.9461
  137MOL0     C17994   9.168   4.844   5.228 -0.7181 -0.2226  0.1114
  137MOL0     C17995   9.037   4.910   5.177 -0.5740 -0.0036  0.1837
  137MOL0    Cl17996   8.902   4.815   5.229  0.2178  0.1136 -0.2260
  137MOL0     C17997   9.852   4.853   4.810 -0.1819  0.3343 -0.5624
  137MOL0     C17998   9.968   4.927   4.811  0.2317 -0.8317  0.6462
  137MOL0     O17999  10.301   4.849   4.740 -0.0281 -0.8729  0.0059
  137MOL0     C18000  10.497   5.061   4.699  0.3545  0.3623  0.0070
  137MOL0     C18001  10.601   5.141   4.703 -0.4661 -0.2642 -0.9037
  137MOL0     N18002  10.894   5.810   4.291  0.5706 -0.4882  0.5343
  137MOL0     N18003  10.846   5.925   4.253 -0.1990  0.0855  0.2006
  137MOL0     C18004  10.512   6.926   4.202  0.4562  0.6649  0.5174
  137MOL0     C18005  10.394   6.953   4.128  0.4142  0.0341  0.3887
  137MOL0     C18006  10.008   6.826   3.873  0.5186 -0.3075 -0.1635
  137MOL0     C18007   9.922   6.920   3.934 -0.0710 -0.2419  0.1778
  137MOL0     C18008   9.788   6.933   3.892  0.3252 -0.1911  0.6012
  137MOL0     C18009   9.741   6.857   3.780 -0.3548  0.5739  0.1501
  137MOL0     O18010   9.608   6.869   3.735  0.1809 -0.0057  1.2335
  137MOL0     C18011   9.553   6.763   3.642  0.1206 -0.5353 -0.2237
  137MOL0     C18012   9.412   6.794   3.591 -1.0059  0.3265  0.6568
  137MOL0     C18013   9.410   6.923   3.513  0.6655 -0.1838 -0.7572
  137MOL0     C18014   9.266   6.965   3.456 -0.3986  0.1855 -0.3646
  137MOL0     C18015   9.154   6.929   3.544  0.1991 -0.0431  0.6337
  137MOL0     C18016   9.064   6.906   3.618  0.5326 -0.0253 -0.2896
  137MOL0     C18017   9.824   6.756   3.728 -0.0420 -0.4208  0.3469
  137MOL0     C18018   9.960   6.743   3.772 -0.3986 -0.3567 -0.0471
  137MOL0     H18019  10.223   6.665   4.200  1.2138 -1.2382 -1.2386
  137MOL0     H18020  10.449   6.614   4.308 -1.1712 -1.7800 -2.1857
  137MOL0     H18021  10.770   6.919   4.325  4.2723 -0.0868  0.0882
  137MOL0     H18022  10.798   6.807   4.189 -3.2596 -0.9158 -0.7498
  137MOL0     H18023  10.863   6.736   4.482  1.9132  1.9892  0.6881
  137MOL0     H18024  10.969   6.795   4.361  1.2424 -3.0412 -0.3451
  137MOL0     H18025  10.973   6.611   4.243 -0.6864  3.1119 -1.1830
  137MOL0     H18026  10.803   6.571   4.284  0.4099  1.1176 -1.6823
  137MOL0     H18027  11.046   6.570   4.466 -1.4310  1.2955  0.9805
  137MOL0     H18028  10.901   6.491   4.518  1.5784 -0.1057  1.1686
  137MOL0     H18029  11.074   6.341   4.449 -1.9065 -0.1455  2.2870
  137MOL0     H18030  11.103   6.419   4.298 -0.0682 -1.7536 -0.5279
  137MOL0     H18031  10.967   6.201   4.263  2.1129  2.8735 -4.1782
  137MOL0     H18032  10.871   6.329   4.204 -0.8554 -0.9769 -1.0698
  137MOL0     H18033  10.845   6.220   4.497 -2.1935  2.7914  2.0903
  137MOL0     H18034  10.738   6.332   4.416 -0.4826 -0.8001 -0.7050
  137MOL0     H18035  10.691   6.133   4.242 -0.9403 -0.9076  0.1953
  137MOL0     H18036  10.653   6.116   4.414  0.2011  2.7149  1.2142
  137MOL0     H18037  10.828   5.965   4.574 -2.0000 -2.4698  0.6806
  137MOL0     H18038  10.928   5.745   4.624  1.7918  0.3693 -0.3820
  137MOL0     H18039  11.028   5.663   4.503  0.3703  0.1720 -0.8807
  137MOL0     H18040  10.825   5.529   4.444 -1.4251  3.3614 -3.0147
  137MOL0     H18041  10.719   5.631   4.516  1.2867  2.2781 -0.9972
  137MOL0     H18042  10.922   5.488   4.694 -0.5009 -3.1148 -0.9754
  137MOL0     H18043  10.780   5.571   4.756  0.1118  0.9566 -0.4221
  137MOL0     H18044  10.806   5.304   4.643 -1.0290 -0.1390  1.0192
  137MOL0     H18045  10.655   5.400   4.599  0.5407  0.9854 -0.9197
  137MOL0     H18046  10.482   5.345   4.942  0.6268 -0.7662  0.8634
  137MOL0     H18047  10.297   5.194   4.935  0.6751 -3.4639  1.3772
  137MOL0     H18048  10.172   4.726   4.986 -1.3879 -1.3533  2.7221
  137MOL0     H18049   9.984   4.591   4.983  3.2641  1.0278  0.3852
  137MOL0     H18050   9.730   4.682   5.099 -2.1852  1.4438  0.0755
  137MOL0     H18051   9.788   4.531   5.034 -0.7896 -0.9258  1.3599
  137MOL0     H18052   9.567   4.489   5.137  2.0948  0.6404 -0.9175
  137MOL0     H18053   9.536   4.487   4.956 -1.7503  0.0407 -0.3698
  137MOL0     H18054   9.383   4.624   5.007  1.6493 -1.1488 -0.5569
  137MOL0     H18055   9.504   4.748   4.992  0.5483  1.1987 -0.4406
  137MOL0     H18056   9.378   4.642   5.251 -0.6202  0.8911  0.1756
  137MOL0     H18057   9.545   4.691   5.242  0.2559 -1.2007  1.1300
  137MOL0     H18058   9.501   4.917   5.174 -2.3725  3.1796 -0.0733
  137MOL0     H18059   9.418   4.883   5.316  0.5868 -2.2384  0.1977
  137MOL0     H18060   9.279   4.885   5.038 -1.5942 -0.3026 -0.8147
  137MOL0     H18061   9.288   5.014   5.163  1.8021  0.5116 -2.0384
  137MOL0     H18062   9.160   4.738   5.202  0.6098 -0.0761 -0.9948
  137MOL0     H18063   9.188   4.848   5.335  2.2675  0.6294 -0.4005
  137MOL0     H18064   9.032   4.921   5.068  1.1352 -0.1837  0.0467
  137MOL0     H18065   9.023   5.014   5.207  0.5266  0.8465 -2.0033
  137MOL0     H18066   9.763   4.898   4.767 -0.9687 -0.9374 -0.3084
  137MOL0     H18067   9.969   5.023   4.761 -0.8186 -1.6307 -0.9973
  137MOL0     H18068  10.496   4.976   4.632  3.0730 -1.3078  1.8717
  137MOL0     H18069  10.683   5.124   4.633  3.4306  0.3812  3.0621
  137MOL0     H18070  10.583   7.006   4.217  0.1563  1.0429 -0.0431
  137MOL0     H18071  10.383   7.042   4.068 -0.9957 -0.7448 -0.5682
  137MOL0     H18072   9.957   6.984   4.014  0.5734 -1.3875  0.8342
  137MOL0     H18073   9.726   7.009   3.940 -0.2024  2.2104 -3.4584
  137MOL0     H18074   9.539   6.667   3.691 -3.4405 -0.4339 -0.7768
  137MOL0     H18075   9.620   6.761   3.556 -0.8700 -0.6462 -1.0200
  137MOL0     H18076   9.377   6.718   3.521 -2.8188  1.8546 -0.1761
  137MOL0     H18077   9.338   6.789   3.671 -0.3868 -2.6411  1.1710
  137MOL0     H18078   9.487   6.917   3.436  1.0591 -3.8362 -0.2259
  137MOL0     H18079   9.451   6.997   3.583  2.6817 -0.5290 -1.4979
  137MOL0     H18080   9.260   7.074   3.444 -1.5641 -0.0067 -1.8553
  137MOL0     H18081   9.255   6.913   3.361  0.2838 -0.7113  0.0377
  137MOL0     H18082   8.975   6.897   3.678  1.4101  1.1651  1.2851
  137MOL0     H18083   9.792   6.690   3.649 -1.0209  1.4463 -0.8978
  137MOL0     H18084  10.022   6.665   3.728  1.8425  2.1469 -1.6838
  138MOL0     O18085   5.626   5.719   1.962  0.2374 -0.7884 -0.4382
  138MOL0     C18086   5.690   5.779   1.875  0.4162 -0.2280  0.1233
  138MOL0     O18087   5.637   5.820   1.751 -0.6622  0.4525 -0.6222
  138MOL0     C18088   5.507   5.805   1.712  0.6422 -0.4527 -0.0639
  138MOL0     C18089   5.486   5.853   1.583 -0.0220  1.2720  0.4602
  138MOL0     C18090   5.353   5.836   1.530 -0.0612 -1.4108 -0.1119
  138MOL0     C18091   5.239   5.791   1.605 -0.8888 -0.4280  0.1679
  138MOL0     O18092   5.113   5.780   1.552  0.2435 -0.1259 -0.1190
  138MOL0     C18093   5.073   5.868   1.440  0.9017  0.1322 -0.4125
  138MOL0     C18094   4.922   5.866   1.417 -0.4799 -0.0759  0.6200
  138MOL0     C18095   4.846   5.922   1.544 -0.2813  0.3533 -0.3280
  138MOL0     C18096   4.698   5.974   1.519  0.3244 -0.6969 -0.5482
  138MOL0     C18097   4.622   6.028   1.640 -0.9459  0.8638  0.0449
  138MOL0     C18098   4.486   6.082   1.608  0.3801  0.6035 -0.3699
  138MOL0     C18099   4.422   6.135   1.733 -0.5265  0.4341 -0.0225
  138MOL0     C18100   4.479   6.272   1.778  0.5955 -0.4840  0.4541
  138MOL0     N18101   4.397   6.328   1.888  0.5066  0.3003  0.2446
  138MOL0     C18102   4.271   6.386   1.876 -0.7177 -1.2589 -0.4104
  138MOL0     C18103   4.241   6.411   2.007 -0.3428  0.6603 -0.2041
  138MOL0     C18104   4.117   6.483   2.048  0.3108 -0.1973 -0.6257
  138MOL0     C18105   4.029   6.401   2.144  0.4248  0.1120 -0.1944
  138MOL0     C18106   3.960   6.291   2.061  0.2085  1.3666  0.7266
  138MOL0     C18107   3.810   6.287   2.084  0.0234 -0.8358 -0.0155
  138MOL0     O18108   3.749   6.416   2.077  0.8084  0.3281 -0.1353
  138MOL0     C18109   3.610   6.424   2.089  0.3061  0.4706  0.0665
  138MOL0     C18110   3.557   6.547   2.116 -0.4203 -0.2044  0.6163
  138MOL0     C18111   3.419   6.566   2.131 -0.2868 -0.2327  0.4280
  138MOL0     C18112   3.330   6.459   2.135 -0.1721  0.5300 -0.6874
  138MOL0     C18113   3.183   6.479   2.145 -0.5700  0.6670 -0.7311
  138MOL0     O18114   3.135   6.605   2.118 -0.5309 -1.0568  0.5073
  138MOL0     C18115   2.997   6.636   2.125  0.1605 -1.2662 -0.3427
  138MOL0     C18116   2.962   6.760   2.177 -0.1354  0.7408 -0.4468
  138MOL0     C18117   2.828   6.794   2.199  0.0933  0.8092 -0.4019
  138MOL0     C18118   2.727   6.711   2.152  0.6535 -0.8551  0.5106
  138MOL0     O18119   2.594   6.742   2.169  1.2426 -0.2552  0.3167
  138MOL0     C18120   2.561   6.832   2.278 -0.6012 -0.5141  0.3942
  138MOL0     C18121   2.407   6.843   2.290  0.1358 -1.1520  0.2385
  138MOL0     C18122   2.350   6.749   2.402  0.3929  0.3863 -1.0111
  138MOL0     C18123   2.202   6.701   2.377 -0.8278 -0.4146 -0.0784
  138MOL0     C18124   2.174   6.580   2.467  0.2689  0.0003 -0.9254
  138MOL0     C18125   2.049   6.511   2.425  0.2933  0.4401  0.5631
  138MOL0     C18126   2.013   6.392   2.523  0.3310 -0.2711 -0.3887
  138MOL0     C18127   2.104   6.268   2.502 -0.6639 -0.7104  0.7797
  138MOL0    Cl18128   2.064   6.135   2.612  0.1619 -0.2588 -0.2735
  138MOL0     C18129   2.759   6.591   2.082  0.8701 -0.7439 -0.5172
  138MOL0     C18130   2.894   6.551   2.083  0.0040  0.7903  0.6906
  138MOL0     O18131   3.106   6.380   2.164 -0.4030 -0.1450  0.1343
  138MOL0     C18132   3.388   6.333   2.112 -0.1235  0.4691 -0.7172
  138MOL0     C18133   3.529   6.313   2.090 -1.1582 -0.3350  0.2170
  138MOL0     N18134   4.333   6.352   2.091  0.2486 -0.1156  0.0950
  138MOL0     N18135   4.418   6.301   2.021 -0.1243 -0.2433 -0.2776
  138MOL0     C18136   5.274   5.758   1.738  0.4510  0.2413 -0.2870
  138MOL0     C18137   5.397   5.760   1.794  0.3575  0.7879  0.3135
  138MOL0     C18138   5.821   5.841   1.918  1.1847  0.0972 -0.5477
  138MOL0     C18139   5.880   5.930   1.833  0.6718  0.3816  0.3593
  138MOL0     C18140   6.005   5.982   1.871 -0.0940  0.2626 -0.6851
  138MOL0     C18141   6.078   5.950   1.987 -0.0501 -0.3409 -0.0690
  138MOL0     O18142   6.207   5.992   2.004 -0.1972  0.4188 -0.2407
  138MOL0     C18143   6.298   5.905   2.068  0.2759 -0.2793 -0.0618
  138MOL0     C18144   6.426   5.886   1.985  0.3140 -0.4130 -0.1471
  138MOL0     C18145   6.498   6.023   1.978  0.8129 -0.8652 -0.6485
  138MOL0     C18146   6.637   5.990   1.909  0.7020 -0.2255  0.1762
  138MOL0     C18147   6.711   6.114   1.890 -0.5399 -0.1489  0.7770
  138MOL0     C18148   6.755   6.221   1.864 -0.4802 -0.0193 -0.2451
  138MOL0     C18149   6.006   5.873   2.076  0.2632  0.6607 -0.4274
  138MOL0     C18150   5.883   5.811   2.035 -0.3792  0.7872  0.0971
  138MOL0     H18151   5.564   5.871   1.510 -1.0932 -2.4914 -1.9282
  138MOL0     H18152   5.349   5.853   1.423  3.8352 -1.0662 -0.3501
  138MOL0     H18153   5.115   5.851   1.340  0.8067  1.0580 -0.6240
  138MOL0     H18154   5.102   5.970   1.466 -1.0646  0.8382 -0.8737
  138MOL0     H18155   4.894   5.761   1.411  2.1711 -0.8854  1.1661
  138MOL0     H18156   4.899   5.915   1.322  0.8854 -2.7283 -1.2015
  138MOL0     H18157   4.902   5.997   1.602 -0.4513 -2.0443  3.2611
  138MOL0     H18158   4.844   5.837   1.613  0.5428 -2.2897 -3.3102
  138MOL0     H18159   4.692   6.053   1.444 -2.5499  0.6063  0.9031
  138MOL0     H18160   4.644   5.894   1.466 -2.5964  0.1777  0.9241
  138MOL0     H18161   4.679   6.101   1.699 -0.2703  1.3121 -1.1185
  138MOL0     H18162   4.614   5.940   1.704  0.3940 -0.1224 -1.0704
  138MOL0     H18163   4.435   6.004   1.551 -0.8275 -0.6789  2.2944
  138MOL0     H18164   4.503   6.166   1.539  1.0109  2.0600  1.4644
  138MOL0     H18165   4.314   6.145   1.719 -0.5170 -0.4476 -0.8575
  138MOL0     H18166   4.440   6.064   1.814 -3.1266  1.5682  1.7037
  138MOL0     H18167   4.472   6.338   1.691  0.9080 -3.9603 -2.4455
  138MOL0     H18168   4.581   6.248   1.811 -0.0868 -0.5207  2.6410
  138MOL0     H18169   4.214   6.415   1.788 -1.3419  0.8342  0.6076
  138MOL0     H18170   4.061   6.512   1.959 -1.6199 -2.7157 -0.3389
  138MOL0     H18171   4.145   6.579   2.091 -1.5185  0.6778 -1.3229
  138MOL0     H18172   3.957   6.466   2.194  1.1268 -0.1663  1.2012
  138MOL0     H18173   4.082   6.360   2.230 -0.1015 -1.2682 -0.4996
  138MOL0     H18174   3.978   6.295   1.954  0.9421 -0.4479  0.7479
  138MOL0     H18175   3.997   6.192   2.089  0.0594  0.3812 -2.2967
  138MOL0     H18176   3.786   6.233   2.175  0.1905 -1.6179 -0.4228
  138MOL0     H18177   3.765   6.226   2.004  0.7423 -0.7162 -0.5231
  138MOL0     H18178   3.629   6.627   2.132  1.1768 -1.5824  0.5226
  138MOL0     H18179   3.390   6.669   2.150 -1.4255  0.2721 -3.2579
  138MOL0     H18180   3.036   6.828   2.216  0.9677  0.0110 -1.2013
  138MOL0     H18181   2.807   6.889   2.249 -1.5291  0.2054  0.1221
  138MOL0     H18182   2.596   6.926   2.234  0.1621 -0.9148  0.1418
  138MOL0     H18183   2.601   6.803   2.376 -0.7028 -0.2661  0.5113
  138MOL0     H18184   2.356   6.832   2.194 -1.4303  1.3225  0.6740
  138MOL0     H18185   2.376   6.945   2.314 -0.4480 -0.9308 -1.3376
  138MOL0     H18186   2.361   6.785   2.504 -0.7752 -0.5760 -0.5301
  138MOL0     H18187   2.418   6.663   2.399  0.1392  0.1954 -1.6322
  138MOL0     H18188   2.132   6.783   2.397 -0.4230 -0.3050  0.9219
  138MOL0     H18189   2.185   6.680   2.271 -1.7331 -4.9385  0.7576
  138MOL0     H18190   2.171   6.615   2.570 -0.1470  0.7141 -1.1724
  138MOL0     H18191   2.262   6.516   2.463 -0.5099 -1.2136  0.4971
  138MOL0     H18192   2.060   6.458   2.330 -0.7751 -1.1135  1.2617
  138MOL0     H18193   1.972   6.588   2.412 -2.0202 -1.8457 -0.1230
  138MOL0     H18194   2.030   6.429   2.624 -1.9539  1.2002 -0.4675
  138MOL0     H18195   1.906   6.371   2.519  0.2447  0.2302 -0.8625
  138MOL0     H18196   2.210   6.295   2.505 -0.7723 -0.3525  1.4516
  138MOL0     H18197   2.068   6.231   2.406 -2.5606  1.0263  0.7524
  138MOL0     H18198   2.672   6.533   2.055 -0.0707 -1.1373  2.8665
  138MOL0     H18199   2.927   6.456   2.044 -1.0772  0.0521  1.5274
  138MOL0     H18200   3.330   6.241   2.105 -0.0260  0.3064  0.4154
  138MOL0     H18201   3.567   6.214   2.069  0.1131  0.9404 -4.8657
  138MOL0     H18202   5.184   5.718   1.784 -0.0823  1.3555 -0.3244
  138MOL0     H18203   5.403   5.714   1.892 -0.9206 -0.8625 -0.3311
  138MOL0     H18204   5.839   5.961   1.737 -0.7814 -1.3354  0.3713
  138MOL0     H18205   6.054   6.048   1.800  1.0301 -1.4348 -1.5543
  138MOL0     H18206   6.253   5.806   2.076 -1.0007  0.4221  2.5796
  138MOL0     H18207   6.329   5.940   2.167 -0.9239 -1.0506  0.6105
  138MOL0     H18208   6.490   5.823   2.047  0.9588  0.5373  0.1816
  138MOL0     H18209   6.409   5.855   1.882 -1.6122  0.7291 -0.2239
  138MOL0     H18210   6.515   6.062   2.079  0.3433  1.2815 -1.3480
  138MOL0     H18211   6.444   6.105   1.930 -0.4914 -1.1783  0.2354
  138MOL0     H18212   6.698   5.930   1.977  0.8469  1.3399  1.4784
  138MOL0     H18213   6.624   5.951   1.808  1.7378 -0.7859  0.2482
  138MOL0     H18214   6.816   6.309   1.853  1.9150 -1.6630 -0.9009
  138MOL0     H18215   6.022   5.840   2.178 -3.0522 -0.3620 -0.1246
  138MOL0     H18216   5.830   5.752   2.110  0.0510  2.2650  1.6305
  139MOL0     O18217   4.477   7.875   7.150  0.0563  0.5276 -0.2505
  139MOL0     C18218   4.481   7.870   7.275 -0.7363  0.3098  0.7793
  139MOL0     O18219   4.375   7.877   7.353 -0.3706  0.4364 -0.3551
  139MOL0     C18220   4.248   7.858   7.294  0.2896  0.1888  0.5242
  139MOL0     C18221   4.166   7.751   7.329 -0.1701 -0.3434 -0.4494
  139MOL0     C18222   4.036   7.732   7.266 -0.2242 -1.8239 -0.1506
  139MOL0     C18223   3.990   7.825   7.173 -1.3935 -0.3875 -0.0645
  139MOL0     O18224   3.874   7.815   7.105 -0.4914 -0.0125 -0.3758
  139MOL0     C18225   3.776   7.920   7.131  0.0842  0.2671 -0.1358
  139MOL0     C18226   3.632   7.878   7.104  0.1394 -0.2630 -0.1249
  139MOL0     C18227   3.594   7.805   6.980  0.4809  0.3134  0.3341
  139MOL0     C18228   3.445   7.776   6.960 -0.2139  0.2797 -0.2549
  139MOL0     C18229   3.412   7.660   7.054  0.0480 -0.4779  0.2633
  139MOL0     C18230   3.268   7.613   7.033  0.4210 -0.3127 -0.2894
  139MOL0     C18231   3.229   7.517   6.917 -0.7122 -0.4336 -0.2316
  139MOL0     C18232   3.089   7.484   6.928 -0.1290  0.2302  0.1516
  139MOL0     N18233   2.999   7.600   6.906 -0.0795 -0.7810  0.1911
  139MOL0     C18234   2.922   7.623   6.790 -0.7371  0.3559  0.3998
  139MOL0     C18235   2.832   7.726   6.818 -0.9003  0.2598 -0.2532
  139MOL0     C18236   2.740   7.798   6.722  0.0407  0.5902 -0.6312
  139MOL0     C18237   2.685   7.923   6.773  0.4130 -0.0036  0.2305
  139MOL0     C18238   2.619   8.009   6.657  0.4890 -0.3995  0.1947
  139MOL0     C18239   2.499   7.947   6.585  0.3679  0.8213 -0.0895
  139MOL0     O18240   2.393   7.930   6.679  0.5230  0.3934  0.5150
  139MOL0     C18241   2.262   7.953   6.633  1.3523 -0.0516 -0.6256
  139MOL0     C18242   2.168   7.937   6.733 -0.7113 -0.3472 -0.2531
  139MOL0     C18243   2.037   7.968   6.703 -0.4217  1.0044 -0.2811
  139MOL0     C18244   1.997   8.004   6.568 -0.5422 -0.3019  0.9856
  139MOL0     C18245   1.857   8.031   6.531  0.9666 -0.0378  0.4445
  139MOL0     O18246   1.775   8.045   6.647 -0.6276 -0.5793 -0.0086
  139MOL0     C18247   1.649   8.094   6.624 -0.0133 -0.4860  0.2698
  139MOL0     C18248   1.625   8.219   6.562  0.3282  0.5297  0.1275
  139MOL0     C18249   1.494   8.261   6.534  0.0288 -0.4334  0.0985
  139MOL0     C18250   1.387   8.182   6.576 -0.2444  0.7491 -0.6065
  139MOL0     O18251   1.256   8.215   6.541 -0.6643 -1.6605 -0.2987
  139MOL0     C18252   1.223   8.355   6.535 -0.7351 -0.0541 -0.4768
  139MOL0     C18253   1.089   8.367   6.465 -0.3696  0.1845 -0.2884
  139MOL0     C18254   1.036   8.510   6.477  0.9697 -0.0617  0.7940
  139MOL0     C18255   0.890   8.500   6.429  0.4479  0.7693 -0.0113
  139MOL0     C18256   0.832   8.640   6.388  0.0048  0.1529  0.6540
  139MOL0     C18257   0.682   8.623   6.348  0.1918  0.0230  0.0115
  139MOL0     C18258   0.603   8.756   6.320 -0.6423  0.4145 -0.2728
  139MOL0     C18259   0.505   8.735   6.197  0.0402  0.0453  0.5994
  139MOL0    Cl18260   0.352   8.654   6.248  0.3138  0.3063  0.0969
  139MOL0     C18261   1.411   8.058   6.642  1.0045 -0.6280  0.8348
  139MOL0     C18262   1.540   8.011   6.655  0.6641 -0.3204 -0.3313
  139MOL0     O18263   1.828   8.067   6.422  0.1173 -0.2213  0.5425
  139MOL0     C18264   2.093   8.009   6.469  1.2437  0.0999 -0.8907
  139MOL0     C18265   2.230   7.995   6.501  0.8141  0.6549  0.2763
  139MOL0     N18266   2.849   7.769   6.948 -0.4784  0.2535 -0.2282
  139MOL0     N18267   2.948   7.682   6.995  0.0157  0.1767  0.3097
  139MOL0     C18268   4.075   7.932   7.142 -0.4039 -0.2215 -0.3660
  139MOL0     C18269   4.200   7.953   7.197  0.4538  0.1195 -0.0578
  139MOL0     C18270   4.611   7.853   7.334  0.3513  0.1129 -0.1033
  139MOL0     C18271   4.620   7.805   7.468  0.0181 -0.3356  0.3460
  139MOL0     C18272   4.745   7.779   7.521  0.4991 -0.0906  0.5489
  139MOL0     C18273   4.865   7.796   7.453  0.1278  1.0098 -1.0415
  139MOL0     O18274   4.973   7.754   7.512 -0.6178  0.6725 -0.0603
  139MOL0     C18275   5.014   7.824   7.632  0.1272  0.2319  0.2276
  139MOL0     C18276   5.084   7.958   7.597  1.7805  0.6325  0.7116
  139MOL0     C18277   5.164   8.019   7.708 -0.2113  0.3265 -0.3827
  139MOL0     C18278   5.321   7.986   7.691  0.6836 -0.9368 -1.2232
  139MOL0     C18279   5.332   7.846   7.680  0.5481  0.9814  0.6495
  139MOL0     C18280   5.342   7.719   7.684  0.1314  0.1466 -0.2827
  139MOL0     C18281   4.858   7.834   7.312  0.5810  0.9449 -0.6289
  139MOL0     C18282   4.733   7.862   7.253 -0.4320  0.9958  0.3564
  139MOL0     H18283   4.207   7.684   7.404  4.9996  3.0689  0.2987
  139MOL0     H18284   3.981   7.649   7.309 -0.1989 -1.8525 -0.1741
  139MOL0     H18285   3.806   8.001   7.065  1.6228  0.5005  0.8094
  139MOL0     H18286   3.780   7.948   7.237  0.1429  3.3194 -0.8571
  139MOL0     H18287   3.580   7.972   7.088  0.4260 -0.0554  0.1584
  139MOL0     H18288   3.594   7.837   7.198  0.2163 -0.2883 -0.1042
  139MOL0     H18289   3.650   7.711   6.973 -1.3337 -0.9055  1.2947
  139MOL0     H18290   3.611   7.872   6.896 -1.9360  0.6015  0.0074
  139MOL0     H18291   3.390   7.863   6.997 -0.8514 -0.9524  1.9058
  139MOL0     H18292   3.429   7.753   6.854  2.1286  0.6532 -0.7429
  139MOL0     H18293   3.426   7.691   7.158 -1.1852  0.1968  0.2398
  139MOL0     H18294   3.480   7.579   7.026  1.1051  0.2297  0.7105
  139MOL0     H18295   3.211   7.706   7.038  2.9360  1.3251 -0.1229
  139MOL0     H18296   3.243   7.550   7.119  4.1947 -1.1286  0.3776
  139MOL0     H18297   3.245   7.556   6.816 -4.2296  1.9370 -0.0679
  139MOL0     H18298   3.289   7.426   6.927  2.2806  1.3060 -1.0693
  139MOL0     H18299   3.062   7.452   7.029  1.0878 -0.1641  0.3622
  139MOL0     H18300   3.061   7.404   6.860  0.5718 -1.6243  1.9473
  139MOL0     H18301   2.941   7.574   6.695 -0.6085 -0.0394  0.6264
  139MOL0     H18302   2.651   7.738   6.702  0.8703 -0.7868 -0.2611
  139MOL0     H18303   2.792   7.821   6.628  0.0502 -2.0748 -1.3351
  139MOL0     H18304   2.759   7.989   6.820 -0.6869  2.2661 -1.0595
  139MOL0     H18305   2.598   7.902   6.835 -1.0554  1.1530 -1.3285
  139MOL0     H18306   2.586   8.102   6.706 -3.4853 -0.4111 -2.0524
  139MOL0     H18307   2.691   8.042   6.582  0.1393  0.3672  0.1765
  139MOL0     H18308   2.516   7.846   6.548 -2.5231 -0.1628  1.0036
  139MOL0     H18309   2.477   8.024   6.510  0.8412  2.6462  1.5399
  139MOL0     H18310   2.214   7.903   6.825  0.7903  1.0189 -0.4411
  139MOL0     H18311   1.962   7.960   6.781 -0.3858 -1.7712 -0.4523
  139MOL0     H18312   1.703   8.293   6.545  0.7340 -0.0276 -0.4921
  139MOL0     H18313   1.491   8.355   6.480  0.5783  0.3055  1.3072
  139MOL0     H18314   1.296   8.417   6.482 -0.5548 -2.2996 -3.0775
  139MOL0     H18315   1.224   8.385   6.640 -0.6467 -3.4482  0.6224
  139MOL0     H18316   1.021   8.292   6.507  0.6555  0.0488  1.2064
  139MOL0     H18317   1.105   8.347   6.359 -1.5081  0.3737 -0.5119
  139MOL0     H18318   1.085   8.558   6.392 -1.7434 -0.3174 -1.0722
  139MOL0     H18319   1.056   8.569   6.567 -3.3426  3.0832  0.0147
  139MOL0     H18320   0.877   8.433   6.344 -0.4536  0.0183  0.6978
  139MOL0     H18321   0.831   8.447   6.504 -2.1744 -1.8170 -3.5815
  139MOL0     H18322   0.876   8.675   6.295  1.0904 -0.5187  0.8863
  139MOL0     H18323   0.832   8.716   6.467 -2.8785  0.7214  0.2324
  139MOL0     H18324   0.637   8.583   6.439  2.9750  3.3367  3.2225
  139MOL0     H18325   0.686   8.556   6.262  1.9597 -0.3872  0.3558
  139MOL0     H18326   0.552   8.797   6.408  0.2152  3.5240 -1.0752
  139MOL0     H18327   0.672   8.837   6.295 -1.6709  0.3798 -3.6817
  139MOL0     H18328   0.546   8.669   6.120 -1.4146 -1.0411  0.7083
  139MOL0     H18329   0.476   8.830   6.151 -2.6225 -0.5168  0.9736
  139MOL0     H18330   1.332   7.994   6.679 -1.7140  3.2131  2.4015
  139MOL0     H18331   1.557   7.909   6.690  2.5499 -0.4276 -1.4200
  139MOL0     H18332   2.068   8.033   6.366 -0.4938  1.5399 -0.1898
  139MOL0     H18333   2.290   8.010   6.412  1.2339  0.6092  0.5504
  139MOL0     H18334   4.058   8.014   7.073  3.3435  1.9469  1.0098
  139MOL0     H18335   4.259   8.042   7.178  1.0599 -0.4243 -0.7534
  139MOL0     H18336   4.529   7.806   7.526 -0.3083  1.8548 -0.1062
  139MOL0     H18337   4.740   7.733   7.619 -0.7227  0.0708  0.5876
  139MOL0     H18338   5.082   7.753   7.680  2.4184 -1.4450 -4.7585
  139MOL0     H18339   4.928   7.841   7.696 -0.4299 -0.9042 -0.1909
  139MOL0     H18340   5.157   7.945   7.516  1.4756 -1.6197  0.7437
  139MOL0     H18341   5.015   8.038   7.572  2.0517  1.4948  2.5449
  139MOL0     H18342   5.113   7.997   7.802  0.7287  1.8243  0.5206
  139MOL0     H18343   5.163   8.127   7.690 -1.5950  0.5652  1.0093
  139MOL0     H18344   5.355   8.038   7.601  0.8765 -1.6046 -1.5461
  139MOL0     H18345   5.389   8.026   7.767  0.3018 -1.1544 -0.7666
  139MOL0     H18346   5.333   7.612   7.683 -2.9976  0.3050 -0.3661
  139MOL0     H18347   4.950   7.829   7.255  1.9360 -3.5276  1.4962
  139MOL0     H18348   4.720   7.897   7.152  0.7001  2.4483  0.6872
  140MOL0     O18349   2.457   0.038   0.342 -0.2401  0.0916  0.5141
  140MOL0     C18350   2.520  -0.048   0.277  0.6261 -0.5592 -0.3856
  140MOL0     O18351   2.460  -0.144   0.196 -0.6553 -0.0958 -0.6718
  140MOL0     C18352   2.323  -0.168   0.194 -0.2347  0.8184  0.0547
  140MOL0     C18353   2.239  -0.132   0.298  0.1909  0.1067 -0.1037
  140MOL0     C18354   2.104  -0.173   0.296  0.2165  1.0292  0.5583
  140MOL0     C18355   2.053  -0.234   0.178  0.2832 -0.2069  1.1091
  140MOL0     O18356   1.919  -0.259   0.171  0.1735  0.1713 -0.0240
  140MOL0     C18357   1.852  -0.248   0.038 -0.0014 -0.2727 -0.5875
  140MOL0     C18358   1.744  -0.146   0.064  0.6284  0.3633  0.8776
  140MOL0     C18359   1.618  -0.207   0.117  0.9059 -0.8452 -0.2781
  140MOL0     C18360   1.506  -0.098   0.121  0.7453 -0.0620 -1.4135
  140MOL0     C18361   1.369  -0.165   0.155  0.4219 -0.6020  0.8130
  140MOL0     C18362   1.252  -0.075   0.122 -0.3922 -0.1412 -0.4292
  140MOL0     C18363   1.113  -0.124   0.157  0.9356  0.2088 -0.4506
  140MOL0     C18364   1.004  -0.010   0.148 -0.9155 -0.4629  0.2220
  140MOL0     N18365   0.885  -0.060   0.225  0.3091  0.8892 -0.0192
  140MOL0     C18366   0.882  -0.098   0.356  0.0536 -0.9252  0.3879
  140MOL0     C18367   0.756  -0.119   0.390  0.6143 -0.9819 -0.6373
  140MOL0     C18368   0.697  -0.147   0.532 -0.7866 -0.1313  1.8310
  140MOL0     C18369   0.699  -0.024   0.624  0.0055  0.0587 -0.1567
  140MOL0     C18370   0.833   0.034   0.670 -0.5345  0.1226 -0.5456
  140MOL0     C18371   0.922  -0.045   0.769 -0.5096 -0.6485 -0.1612
  140MOL0     O18372   1.004  -0.130   0.693  0.5897 -0.7658  0.1980
  140MOL0     C18373   1.127  -0.088   0.650  0.2241 -0.5924  0.0649
  140MOL0     C18374   1.183   0.043   0.669 -0.2173  0.7783  0.0238
  140MOL0     C18375   1.307   0.075   0.612 -0.4129 -0.5110 -0.3063
  140MOL0     C18376   1.382  -0.028   0.543  0.4273 -0.8253 -0.5804
  140MOL0     C18377   1.523  -0.009   0.503 -0.1280 -0.4848  0.6228
  140MOL0     O18378   1.561   0.120   0.479  0.0591 -0.2755  0.6689
  140MOL0     C18379   1.678   0.156   0.421  0.6370  0.5010  0.3831
  140MOL0     C18380   1.783   0.077   0.373 -0.0360  0.5882 -0.4363
  140MOL0     C18381   1.903   0.130   0.326  0.1935  0.2610 -0.2993
  140MOL0     C18382   1.918   0.267   0.311  0.1920 -0.1082 -0.3334
  140MOL0     O18383   2.026   0.328   0.249  0.2908  0.3749 -0.3750
  140MOL0     C18384   2.143   0.256   0.212 -0.4647  0.1512 -0.3524
  140MOL0     C18385   2.256   0.355   0.193 -0.0924 -0.5188 -0.4102
  140MOL0     C18386   2.369   0.284   0.117 -0.0204 -0.0952  1.0751
  140MOL0     C18387   2.496   0.371   0.115  0.4023 -1.0154 -0.5169
  140MOL0     C18388   2.628   0.280   0.109  0.4314  0.2835 -0.2251
  140MOL0     C18389   2.763   0.351   0.100 -0.0297 -0.0984  0.7234
  140MOL0     C18390   2.880   0.274   0.036  0.4087 -0.6031 -0.3139
  140MOL0     C18391   2.886   0.284  -0.113 -0.3071 -0.7188  0.1504
  140MOL0    Cl18392   3.054   0.227  -0.146 -0.5542  0.0678  0.0574
  140MOL0     C18393   1.810   0.345   0.336 -0.1421 -0.5401  0.5311
  140MOL0     C18394   1.694   0.292   0.392 -0.5267  0.1801  0.6318
  140MOL0     O18395   1.586  -0.110   0.499  0.6943 -0.0527  0.1747
  140MOL0     C18396   1.322  -0.157   0.534 -0.6247  0.2854  0.6618
  140MOL0     C18397   1.198  -0.181   0.579  0.0832  0.3086  0.6693
  140MOL0     N18398   0.683  -0.090   0.275 -0.0235 -0.0241 -0.0488
  140MOL0     N18399   0.759  -0.045   0.184  0.3822 -0.4087  0.7144
  140MOL0     C18400   2.141  -0.272   0.075  0.0335  0.4431 -0.3700
  140MOL0     C18401   2.271  -0.239   0.085 -0.4259  0.3544 -0.0783
  140MOL0     C18402   2.665  -0.041   0.269 -0.4761 -0.0290 -0.9364
  140MOL0     C18403   2.733   0.028   0.374  1.1808  0.0291 -0.0460
  140MOL0     C18404   2.870   0.010   0.382 -0.6403 -0.3706 -0.4296
  140MOL0     C18405   2.942  -0.054   0.284  0.4491 -0.5574 -0.2686
  140MOL0     O18406   3.082  -0.045   0.297 -0.1061 -0.3781  0.5865
  140MOL0     C18407   3.170  -0.094   0.193  0.8300  0.1205 -0.1207
  140MOL0     C18408   3.200  -0.002   0.077 -0.0968 -0.2182 -0.8714
  140MOL0     C18409   3.321  -0.044   0.003 -0.2872  0.0836  0.4044
  140MOL0     C18410   3.373   0.071  -0.083  0.2909 -0.1339  0.6535
  140MOL0     C18411   3.496   0.037  -0.153  0.6530  0.8580 -0.5316
  140MOL0     C18412   3.587  -0.015  -0.218 -0.0377 -0.6171  0.3592
  140MOL0     C18413   2.873  -0.112   0.176 -0.5533  0.2147 -0.0052
  140MOL0     C18414   2.741  -0.112   0.168  0.4301 -0.8595  0.3628
  140MOL0     H18415   2.266  -0.071   0.383 -0.8362  2.4982 -1.4013
  140MOL0     H18416   2.027  -0.142   0.366  0.3124  0.1335  1.0812
  140MOL0     H18417   1.814  -0.349   0.021  0.6994 -0.8598  1.0678
  140MOL0     H18418   1.904  -0.206  -0.049 -4.2386  0.8308 -2.8480
  140MOL0     H18419   1.728  -0.094  -0.031 -2.8814  3.1184  2.7410
  140MOL0     H18420   1.783  -0.071   0.133  1.5332  0.9247 -0.2190
  140MOL0     H18421   1.649  -0.226   0.220 -0.7220  1.9372  0.8612
  140MOL0     H18422   1.592  -0.295   0.057 -0.6328  0.2559 -1.3132
  140MOL0     H18423   1.541  -0.022   0.192  2.1709 -1.6332 -0.3421
  140MOL0     H18424   1.510  -0.068   0.016  0.9517 -2.6525 -2.2106
  140MOL0     H18425   1.358  -0.209   0.255  0.4467 -0.3221  0.9405
  140MOL0     H18426   1.364  -0.251   0.088  4.5700 -0.2891 -0.1981
  140MOL0     H18427   1.265  -0.059   0.015  3.8061 -0.3194 -0.0964
  140MOL0     H18428   1.266   0.021   0.173 -4.3188 -0.4877  1.7139
  140MOL0     H18429   1.088  -0.211   0.096 -1.5402  0.7704 -0.3314
  140MOL0     H18430   1.133  -0.151   0.261  2.5715 -1.3267 -1.1111
  140MOL0     H18431   0.988   0.013   0.042  1.9497  0.5680 -0.0803
  140MOL0     H18432   1.055   0.068   0.205  1.6482 -1.8141 -0.0834
  140MOL0     H18433   0.969  -0.098   0.422  1.3786 -2.0701 -1.2653
  140MOL0     H18434   0.743  -0.236   0.576 -1.3430 -1.2339  0.3029
  140MOL0     H18435   0.599  -0.186   0.503  0.3644 -2.2143  0.4098
  140MOL0     H18436   0.657  -0.057   0.720  2.0680 -0.3580  0.6431
  140MOL0     H18437   0.642   0.056   0.575  1.2016  0.8515 -0.2932
  140MOL0     H18438   0.897   0.072   0.589  1.4815  1.0762  1.3604
  140MOL0     H18439   0.796   0.121   0.726  0.8230  0.0154  0.5826
  140MOL0     H18440   0.844  -0.102   0.821 -1.3144  0.5092 -0.0457
  140MOL0     H18441   0.982   0.021   0.832 -0.9044  2.2106 -2.5142
  140MOL0     H18442   1.130   0.121   0.723 -2.4091  0.8309 -2.0540
  140MOL0     H18443   1.337   0.179   0.616  2.1991 -1.1990  2.8450
  140MOL0     H18444   1.762  -0.026   0.350  0.0779  0.3124  0.6407
  140MOL0     H18445   1.965   0.058   0.276 -0.3894 -0.0159 -0.6352
  140MOL0     H18446   2.122   0.212   0.114  0.1210  0.9136 -0.8265
  140MOL0     H18447   2.180   0.193   0.294  1.0588  1.9772  0.4399
  140MOL0     H18448   2.304   0.365   0.290  1.7543 -1.4755 -1.1578
  140MOL0     H18449   2.234   0.454   0.151 -0.9180  0.2374  1.7084
  140MOL0     H18450   2.336   0.265   0.015 -0.7391  0.7369  1.1356
  140MOL0     H18451   2.374   0.185   0.164 -3.3382 -1.7291 -1.6470
  140MOL0     H18452   2.494   0.440   0.030  1.7743  1.4180  1.2910
  140MOL0     H18453   2.500   0.440   0.200 -1.6478 -0.2676 -0.9599
  140MOL0     H18454   2.614   0.204   0.031  0.5758 -1.6742  1.5783
  140MOL0     H18455   2.629   0.227   0.205 -1.0667  0.8206  0.1262
  140MOL0     H18456   2.792   0.384   0.201  0.0057  0.8963  0.4062
  140MOL0     H18457   2.740   0.445   0.048 -2.6963 -1.0682  0.0047
  140MOL0     H18458   2.976   0.304   0.080 -0.6145 -0.2369  1.7887
  140MOL0     H18459   2.869   0.170   0.068  0.9590 -0.8982 -1.0606
  140MOL0     H18460   2.865   0.387  -0.145 -1.5184 -0.8967  0.3165
  140MOL0     H18461   2.799   0.221  -0.135 -0.7694  0.1125 -0.4929
  140MOL0     H18462   1.808   0.449   0.306  4.6338 -0.1299  0.9640
  140MOL0     H18463   1.621   0.366   0.422  2.4627  3.6669 -0.1233
  140MOL0     H18464   1.375  -0.234   0.479  2.5556  1.3601  2.0114
  140MOL0     H18465   1.152  -0.276   0.553  0.2111  0.0408  1.4001
  140MOL0     H18466   2.117  -0.332  -0.013  0.5974  0.7479 -0.7395
  140MOL0     H18467   2.339  -0.258   0.003  0.5204  2.0829  0.2699
  140MOL0     H18468   2.685   0.084   0.454  0.5011 -0.5062 -0.0739
  140MOL0     H18469   2.922   0.068   0.457  1.7701 -1.6452 -1.0094
  140MOL0     H18470   3.133  -0.187   0.149  1.7115  0.1851 -1.0697
  140MOL0     H18471   3.264  -0.123   0.243  0.1365 -0.8201  0.6807
  140MOL0     H18472   3.117   0.014   0.007 -1.1907 -0.1433  0.4020
  140MOL0     H18473   3.224   0.096   0.119  0.8716 -0.8864  0.1705
  140MOL0     H18474   3.289  -0.125  -0.063 -2.1169  0.9086  0.2263
  140MOL0     H18475   3.395  -0.081   0.075 -2.4613 -5.0784  0.3975
  140MOL0     H18476   3.292   0.078  -0.157  1.9493  2.3922 -1.1058
  140MOL0     H18477   3.384   0.161  -0.021 -0.3670  0.2530  0.2272
  140MOL0     H18478   3.657  -0.068  -0.278 -2.3647 -2.5442 -0.8514
  140MOL0     H18479   2.937  -0.171   0.112 -1.0095 -0.9176  0.5500
  140MOL0     H18480   2.690  -0.173   0.094  4.3629  0.1412 -3.5657
  141MOL0     O18481   3.676   4.817   4.666 -0.2723 -0.0287 -0.0972
  141MOL0     C18482   3.763   4.738   4.693 -0.3017 -0.5411 -0.0884
  141MOL0     O18483   3.759   4.605   4.678  0.1210 -0.6762  0.5935
  141MOL0     C18484   3.634   4.547   4.680  0.2616 -0.5647  0.4629
  141MOL0     C18485   3.538   4.562   4.578  0.8741 -0.3088 -0.1283
  141MOL0     C18486   3.408   4.504   4.595  0.0867 -0.0605 -0.6707
  141MOL0     C18487   3.376   4.433   4.710 -0.4396 -0.2670 -0.0081
  141MOL0     O18488   3.253   4.369   4.734 -0.5246 -0.1702 -0.2186
  141MOL0     C18489   3.161   4.366   4.624 -1.1990 -0.2962  0.3413
  141MOL0     C18490   3.033   4.313   4.689  1.1188 -0.2580 -0.4979
  141MOL0     C18491   2.906   4.332   4.604 -0.2768  0.3404 -0.5256
  141MOL0     C18492   2.928   4.291   4.454  0.3514 -0.4656  0.2076
  141MOL0     C18493   2.802   4.279   4.370  0.4464 -0.3408  0.1181
  141MOL0     C18494   2.692   4.381   4.405 -0.4381  0.0089 -0.0673
  141MOL0     C18495   2.588   4.390   4.293 -0.0077  0.0900 -0.2151
  141MOL0     C18496   2.510   4.254   4.268 -0.1429 -0.3242  0.5188
  141MOL0     N18497   2.388   4.255   4.351  0.3182  0.5774  0.0542
  141MOL0     C18498   2.259   4.263   4.306 -0.6095 -0.1431  0.2950
  141MOL0     C18499   2.184   4.236   4.413 -0.5928  0.2676  0.2343
  141MOL0     C18500   2.035   4.254   4.438 -0.1186  0.2071  0.3398
  141MOL0     C18501   1.982   4.150   4.534 -0.2397  0.9040 -0.2315
  141MOL0     C18502   2.004   4.006   4.494  0.4539 -0.2979  1.0287
  141MOL0     C18503   1.940   3.912   4.596 -0.0563  0.5992 -0.0787
  141MOL0     O18504   1.796   3.883   4.570 -0.2302 -0.3004 -0.1266
  141MOL0     C18505   1.700   3.943   4.647  0.4851 -0.1558 -0.2831
  141MOL0     C18506   1.568   3.917   4.611  0.3587  0.4288 -0.9914
  141MOL0     C18507   1.465   3.963   4.684 -0.4990  0.1136 -0.2810
  141MOL0     C18508   1.487   4.042   4.795  0.2361 -0.2959  0.2454
  141MOL0     C18509   1.376   4.100   4.865 -0.3068 -0.5157 -0.4582
  141MOL0     O18510   1.259   4.071   4.821 -0.2445  0.3419 -0.3283
  141MOL0     C18511   1.147   4.123   4.881 -0.2709 -0.0408 -1.6187
  141MOL0     C18512   1.102   4.079   5.003 -0.2646 -1.0243  0.6997
  141MOL0     C18513   0.985   4.136   5.059  0.8096  0.1479 -1.6303
  141MOL0     C18514   0.913   4.250   5.006 -0.1916  0.2564  0.0221
  141MOL0     O18515   0.809   4.322   5.064  0.6581  0.8750  0.1914
  141MOL0     C18516   0.784   4.296   5.205  0.6092  0.4925  0.5818
  141MOL0     C18517   0.729   4.424   5.264 -0.0214  0.1354  0.4484
  141MOL0     C18518   0.599   4.470   5.183 -0.9490 -0.6082  0.2595
  141MOL0     C18519   0.527   4.593   5.235  0.6366 -0.4458 -0.1318
  141MOL0     C18520   0.394   4.619   5.160 -0.6279  0.6311 -0.3047
  141MOL0     C18521   0.289   4.538   5.237 -0.3847  0.9654 -0.2356
  141MOL0     C18522   0.141   4.550   5.198  0.2399  0.4715 -0.1029
  141MOL0     C18523   0.046   4.510   5.311  1.3020 -0.0826 -1.0122
  141MOL0    Cl18524   0.097   4.366   5.391  0.1284 -0.3529 -0.3414
  141MOL0     C18525   0.957   4.281   4.879 -0.9064 -0.6620 -0.3697
  141MOL0     C18526   1.078   4.231   4.825 -1.1766  0.8408  0.0383
  141MOL0     O18527   1.402   4.169   4.963  0.0207 -0.4393 -0.4754
  141MOL0     C18528   1.617   4.082   4.827  0.8843 -0.4383 -0.2765
  141MOL0     C18529   1.723   4.027   4.761  0.1961  0.3613 -0.1291
  141MOL0     N18530   2.263   4.219   4.527 -0.2312 -1.0196  1.1550
  141MOL0     N18531   2.385   4.233   4.485  0.1331  0.6496 -0.3715
  141MOL0     C18532   3.476   4.425   4.807 -0.4085 -0.1320 -0.1195
  141MOL0     C18533   3.602   4.483   4.799  0.9987 -0.1922  0.1346
  141MOL0     C18534   3.885   4.802   4.738 -0.2180  0.1444 -0.2544
  141MOL0     C18535   4.007   4.730   4.749 -0.9505  0.0169  0.0248
  141MOL0     C18536   4.125   4.804   4.784  1.0881 -0.1656  0.2796
  141MOL0     C18537   4.121   4.939   4.817 -1.1407  0.2223  0.8857
  141MOL0     O18538   4.243   4.991   4.849 -0.1923 -0.6405  0.0283
  141MOL0     C18539   4.250   5.132   4.862 -0.7912 -0.1350 -0.6276
  141MOL0     C18540   4.398   5.160   4.886  1.0817 -0.1257 -0.8190
  141MOL0     C18541   4.427   5.154   5.031 -0.3718 -0.9479  0.4996
  141MOL0     C18542   4.585   5.165   5.049 -0.2407 -0.7198  0.7361
  141MOL0     C18543   4.638   5.298   5.031  0.7163  0.4287 -0.3821
  141MOL0     C18544   4.687   5.401   5.013  0.0193 -0.5186 -0.3283
  141MOL0     C18545   4.001   5.006   4.809  0.5415 -0.0237 -0.2037
  141MOL0     C18546   3.886   4.937   4.776  0.1378 -0.2049  0.0055
  141MOL0     H18547   3.566   4.619   4.490 -2.5109 -0.3984 -1.4355
  141MOL0     H18548   3.341   4.508   4.510 -1.0921  0.4449  0.2680
  141MOL0     H18549   3.198   4.297   4.547  0.7550  0.1602  0.8185
  141MOL0     H18550   3.140   4.465   4.585  2.0315  0.7028  0.8284
  141MOL0     H18551   3.016   4.367   4.783 -0.0775  3.4549 -2.6198
  141MOL0     H18552   3.046   4.206   4.706 -1.2302 -0.1717  2.6071
  141MOL0     H18553   2.874   4.436   4.593 -3.0866 -0.6359 -3.5733
  141MOL0     H18554   2.821   4.269   4.634 -3.0205  1.1878 -5.3494
  141MOL0     H18555   2.985   4.374   4.412 -0.0629  1.4288  3.1006
  141MOL0     H18556   2.983   4.198   4.439 -0.0638 -0.7205  0.2523
  141MOL0     H18557   2.768   4.175   4.371  1.4730 -0.7380 -1.7492
  141MOL0     H18558   2.814   4.290   4.262 -0.5405 -2.1701 -0.2240
  141MOL0     H18559   2.749   4.475   4.404 -0.3362 -0.0215  1.4376
  141MOL0     H18560   2.649   4.360   4.503 -1.6366 -1.8167 -0.9191
  141MOL0     H18561   2.511   4.456   4.335  0.2811 -0.5362  1.3792
  141MOL0     H18562   2.622   4.418   4.193 -2.1603  0.6007 -0.8688
  141MOL0     H18563   2.560   4.158   4.282 -2.3482 -1.5697  0.2643
  141MOL0     H18564   2.481   4.262   4.163  2.3318  2.3219 -0.0762
  141MOL0     H18565   2.225   4.286   4.205  0.8578  0.8211 -0.0077
  141MOL0     H18566   1.979   4.244   4.345 -0.4790 -1.3431  0.7053
  141MOL0     H18567   2.024   4.355   4.480 -0.2651 -0.6934  2.6330
  141MOL0     H18568   1.874   4.164   4.542 -1.3103 -4.0536 -2.0900
  141MOL0     H18569   2.032   4.171   4.629  1.6464 -1.0732 -0.6964
  141MOL0     H18570   1.955   3.992   4.397  1.7836  2.9310 -0.2544
  141MOL0     H18571   2.110   3.976   4.501  0.8154  0.5465 -0.4427
  141MOL0     H18572   1.961   3.967   4.688  0.9871 -1.3705  0.8988
  141MOL0     H18573   1.997   3.819   4.596 -2.1410 -0.8090 -2.4497
  141MOL0     H18574   1.560   3.860   4.519  0.8828  3.3269 -2.9491
  141MOL0     H18575   1.361   3.943   4.658 -1.3415  2.4348  1.0425
  141MOL0     H18576   1.155   4.000   5.055  1.0749  0.4873  1.7162
  141MOL0     H18577   0.959   4.088   5.153  1.7648  2.1155 -0.2907
  141MOL0     H18578   0.875   4.274   5.262  1.3498 -0.1162 -0.7981
  141MOL0     H18579   0.707   4.219   5.203 -0.5022  1.5061 -3.4763
  141MOL0     H18580   0.814   4.491   5.253  1.0444 -0.7746  2.6222
  141MOL0     H18581   0.692   4.410   5.366  0.6082  1.4241  0.8648
  141MOL0     H18582   0.530   4.386   5.198 -2.5083  0.0315 -2.6404
  141MOL0     H18583   0.614   4.471   5.075  2.1396 -1.1165  0.6143
  141MOL0     H18584   0.512   4.590   5.343 -0.5536  1.7471 -0.1780
  141MOL0     H18585   0.583   4.685   5.220 -1.3476  1.0247  0.9507
  141MOL0     H18586   0.400   4.594   5.054 -1.8053 -1.3140  0.0366
  141MOL0     H18587   0.367   4.725   5.161 -0.1483  0.7543  0.0346
  141MOL0     H18588   0.302   4.575   5.339 -0.4733 -0.3861  0.2912
  141MOL0     H18589   0.311   4.431   5.238 -0.6713  0.9045  0.5107
  141MOL0     H18590   0.108   4.647   5.160 -2.9768 -0.7480 -0.8156
  141MOL0     H18591   0.120   4.482   5.115 -1.2782  0.1654  0.4952
  141MOL0     H18592  -0.058   4.488   5.283  1.5226  0.9528 -2.7517
  141MOL0     H18593   0.041   4.592   5.383  2.0405 -0.7298 -0.1871
  141MOL0     H18594   0.915   4.369   4.830 -1.4216 -0.2262  0.8122
  141MOL0     H18595   1.125   4.275   4.737  0.0358 -0.6048 -0.0992
  141MOL0     H18596   1.642   4.159   4.900  1.4300 -1.3906  0.5711
  141MOL0     H18597   1.823   4.058   4.788 -0.1340  0.8203  0.5943
  141MOL0     H18598   3.458   4.376   4.902  1.2832  0.5902  0.6116
  141MOL0     H18599   3.673   4.476   4.881 -2.1201  3.0750  3.5045
  141MOL0     H18600   4.005   4.630   4.708  1.5178  0.2445 -0.7818
  141MOL0     H18601   4.222   4.754   4.782 -0.7265 -4.2207  2.6777
  141MOL0     H18602   4.192   5.160   4.951 -0.5798 -4.6418  1.1679
  141MOL0     H18603   4.213   5.189   4.777  0.0476 -3.6995 -3.6233
  141MOL0     H18604   4.456   5.079   4.840  2.7606  1.6162 -1.8989
  141MOL0     H18605   4.440   5.252   4.844  0.0889  0.6939 -0.0561
  141MOL0     H18606   4.399   5.057   5.074  0.9135 -2.1126 -1.1528
  141MOL0     H18607   4.370   5.228   5.088 -0.0829 -0.1443 -0.2359
  141MOL0     H18608   4.609   5.136   5.152  2.2721 -2.2657 -0.1933
  141MOL0     H18609   4.635   5.094   4.984 -2.0784  0.8657 -2.6863
  141MOL0     H18610   4.735   5.496   5.008 -0.2281 -0.4541 -2.4426
  141MOL0     H18611   4.007   5.113   4.823  0.7988  0.2990 -2.3797
  141MOL0     H18612   3.788   4.982   4.764 -1.1556 -2.5464  1.0152
  142MOL0     O18613   8.299   4.243   6.537 -0.2415 -0.1987 -0.6916
  142MOL0     C18614   8.282   4.150   6.461 -0.0426 -0.2554  0.8855
  142MOL0     O18615   8.160   4.122   6.400  0.0238 -0.1680 -0.3798
  142MOL0     C18616   8.048   4.185   6.436 -0.0360  0.0023  0.0393
  142MOL0     C18617   7.980   4.143   6.550 -0.3643  0.8763  0.8173
  142MOL0     C18618   7.866   4.207   6.583  0.3588  0.1372  0.0917
  142MOL0     C18619   7.813   4.312   6.505 -1.0193 -0.1817  0.9058
  142MOL0     O18620   7.691   4.365   6.553 -0.2550  0.2853  0.3484
  142MOL0     C18621   7.644   4.483   6.496  1.0772 -0.1626  0.6936
  142MOL0     C18622   7.547   4.461   6.377 -1.0952 -0.6038 -0.2704
  142MOL0     C18623   7.427   4.379   6.420 -0.4197  1.1718  0.0715
  142MOL0     C18624   7.311   4.405   6.317 -0.2617 -0.1154  1.1174
  142MOL0     C18625   7.183   4.326   6.349 -0.3744 -0.0910 -0.9011
  142MOL0     C18626   7.103   4.319   6.220 -0.4607 -0.4109  1.6885
  142MOL0     C18627   6.968   4.266   6.245  0.2101 -0.5601  0.6110
  142MOL0     C18628   6.968   4.114   6.235 -1.6011 -0.0863 -0.0388
  142MOL0     N18629   6.839   4.048   6.246  0.0875 -0.1680  0.1088
  142MOL0     C18630   6.720   4.115   6.238 -0.0607  0.2403  0.3690
  142MOL0     C18631   6.626   4.028   6.263 -0.8519  0.9516  0.1765
  142MOL0     C18632   6.478   4.061   6.275 -0.0569 -0.2941  0.0490
  142MOL0     C18633   6.410   4.022   6.138 -0.4820 -0.0339 -0.1171
  142MOL0     C18634   6.261   4.057   6.147  0.7020  0.4477 -0.8093
  142MOL0     C18635   6.167   4.001   6.034  0.1358 -0.0960  0.7307
  142MOL0     O18636   6.169   3.858   6.034 -0.0848  0.3652 -0.2285
  142MOL0     C18637   6.050   3.785   6.018  0.5003  0.3404  0.3377
  142MOL0     C18638   6.049   3.646   6.047 -0.2358  0.2954 -0.2215
  142MOL0     C18639   5.931   3.577   6.056 -1.1314 -0.1950 -0.7531
  142MOL0     C18640   5.809   3.632   6.014  0.5287 -0.2318  0.0662
  142MOL0     C18641   5.683   3.552   6.003  0.6358 -0.1461 -0.6316
  142MOL0     O18642   5.569   3.624   5.980 -0.1375  0.2574  0.5209
  142MOL0     C18643   5.443   3.573   6.011 -0.6875  0.4384  0.2970
  142MOL0     C18644   5.400   3.443   6.033 -0.7770  0.0943  0.4952
  142MOL0     C18645   5.270   3.419   6.062  0.5587 -0.0458  0.0165
  142MOL0     C18646   5.169   3.510   6.037 -0.0749 -0.5363 -0.3574
  142MOL0     O18647   5.034   3.498   6.051  0.5273 -0.2102  0.3033
  142MOL0     C18648   4.974   3.368   6.067 -0.0956  0.9768 -0.1692
  142MOL0     C18649   4.823   3.396   6.057 -0.4186  0.3599  0.6030
  142MOL0     C18650   4.753   3.257   6.052 -0.9892 -0.0146 -0.9448
  142MOL0     C18651   4.608   3.297   6.009  0.3420  0.3254 -0.9102
  142MOL0     C18652   4.530   3.175   5.966  0.3992  0.6950  0.1764
  142MOL0     C18653   4.394   3.210   5.912  0.9612  0.6620 -0.3795
  142MOL0     C18654   4.289   3.211   6.026  0.0120  0.3217 -0.1284
  142MOL0     C18655   4.150   3.286   6.001 -0.4848  0.4029  0.5191
  142MOL0    Cl18656   4.021   3.171   6.054  1.1012  0.1928  0.3340
  142MOL0     C18657   5.209   3.643   6.020  0.2323 -0.2033  0.3384
  142MOL0     C18658   5.341   3.673   6.007 -0.2236 -0.2168 -0.5634
  142MOL0     O18659   5.689   3.434   6.039 -1.4860  0.0519  0.3938
  142MOL0     C18660   5.811   3.764   5.972 -0.2336 -0.3578 -1.6602
  142MOL0     C18661   5.932   3.845   5.984  1.0676 -0.5823  0.2685
  142MOL0     N18662   6.694   3.914   6.290  0.6742  0.4057  0.1532
  142MOL0     N18663   6.819   3.914   6.269  0.2354 -0.8663 -0.4210
  142MOL0     C18664   7.881   4.345   6.385 -0.3491  0.4845  0.2969
  142MOL0     C18665   7.986   4.263   6.347  0.9424 -0.6106 -0.5350
  142MOL0     C18666   8.402   4.075   6.415 -0.8268 -0.0974 -0.3493
  142MOL0     C18667   8.528   4.119   6.462  0.2958 -0.2760 -0.0099
  142MOL0     C18668   8.633   4.034   6.431  0.0525  0.2611 -0.4160
  142MOL0     C18669   8.622   3.923   6.358 -0.6617  0.6530 -0.4167
  142MOL0     O18670   8.736   3.845   6.354  0.2918 -0.6500  0.0559
  142MOL0     C18671   8.729   3.700   6.357  0.9896 -0.2330  0.1670
  142MOL0     C18672   8.719   3.647   6.490  0.7507  0.1201  0.3893
  142MOL0     C18673   8.595   3.687   6.576  0.8765  0.5325 -0.3570
  142MOL0     C18674   8.577   3.587   6.686 -0.1330  0.4027  0.6721
  142MOL0     C18675   8.669   3.622   6.792 -0.1362  0.2617 -0.9583
  142MOL0     C18676   8.734   3.646   6.892  1.0000 -1.0058 -0.2107
  142MOL0     C18677   8.496   3.880   6.311 -0.2197  0.6893 -0.7460
  142MOL0     C18678   8.388   3.955   6.346 -0.0542 -0.5971  0.5970
  142MOL0     H18679   8.037   4.075   6.612 -0.3218  1.1128  1.0368
  142MOL0     H18680   7.809   4.157   6.662 -3.0151 -1.3294 -2.9860
  142MOL0     H18681   7.727   4.539   6.451  1.1058 -1.7488 -1.3670
  142MOL0     H18682   7.606   4.549   6.575  0.6476 -0.8708  1.0845
  142MOL0     H18683   7.595   4.424   6.286 -1.0751  2.0022 -1.4196
  142MOL0     H18684   7.521   4.561   6.341 -1.5806 -1.0507 -1.2034
  142MOL0     H18685   7.396   4.411   6.520 -2.3872 -1.3171  0.3642
  142MOL0     H18686   7.448   4.271   6.423 -1.6314  0.9300  0.8826
  142MOL0     H18687   7.284   4.511   6.306  1.3465  0.1141 -1.6709
  142MOL0     H18688   7.352   4.371   6.221 -2.6537  1.0442 -0.3980
  142MOL0     H18689   7.127   4.363   6.435  0.4489  0.0043 -0.3847
  142MOL0     H18690   7.210   4.222   6.374 -1.4219 -0.1782 -0.0959
  142MOL0     H18691   7.152   4.260   6.142 -3.6773 -0.5973 -0.3814
  142MOL0     H18692   7.106   4.424   6.188  0.6309 -0.2587  2.2353
  142MOL0     H18693   6.935   4.309   6.340  0.5936 -0.2496  0.6071
  142MOL0     H18694   6.896   4.301   6.170  0.3675  0.2523  0.8291
  142MOL0     H18695   7.047   4.077   6.302  0.9655  3.4208 -0.8705
  142MOL0     H18696   6.998   4.091   6.132 -0.4157  3.3477 -0.5718
  142MOL0     H18697   6.704   4.217   6.204 -0.0953  0.1147  0.0035
  142MOL0     H18698   6.456   4.163   6.308 -1.1568 -0.2933 -0.6132
  142MOL0     H18699   6.447   4.002   6.362  1.0838 -0.0894  0.6159
  142MOL0     H18700   6.423   3.914   6.125 -0.2066  0.0989 -1.0424
  142MOL0     H18701   6.459   4.076   6.056  0.6536 -0.6833  0.1168
  142MOL0     H18702   6.222   4.017   6.241 -0.9214  3.2802 -0.1754
  142MOL0     H18703   6.257   4.166   6.138 -0.6142  0.4112 -0.9025
  142MOL0     H18704   6.178   4.038   5.932 -4.2734 -0.1115  0.0698
  142MOL0     H18705   6.069   4.034   6.071 -2.0102 -4.6101 -0.2432
  142MOL0     H18706   6.140   3.597   6.080 -0.7931 -1.0678 -0.6438
  142MOL0     H18707   5.943   3.474   6.089  0.9177  0.6723  1.4866
  142MOL0     H18708   5.479   3.369   6.038 -0.1044  0.8818  2.5658
  142MOL0     H18709   5.235   3.318   6.080 -0.5605 -0.3598 -3.2531
  142MOL0     H18710   5.010   3.331   6.164  1.9590 -1.9532 -1.8731
  142MOL0     H18711   5.012   3.299   5.991 -2.9741 -1.1044  0.1294
  142MOL0     H18712   4.805   3.449   5.963 -0.5318 -2.0576 -0.7970
  142MOL0     H18713   4.800   3.455   6.147 -2.2692 -0.2585  0.5639
  142MOL0     H18714   4.744   3.206   6.149 -3.4958  0.2666 -0.9584
  142MOL0     H18715   4.801   3.186   5.984  0.1046  1.5607 -1.8696
  142MOL0     H18716   4.561   3.343   6.096 -0.7979 -1.3767 -0.5554
  142MOL0     H18717   4.608   3.359   5.919 -0.4732 -0.5278 -1.5265
  142MOL0     H18718   4.536   3.092   6.038 -0.4071 -1.4222 -2.0471
  142MOL0     H18719   4.586   3.126   5.885 -0.5658 -2.1387  1.0921
  142MOL0     H18720   4.361   3.134   5.840 -1.2382  0.9956  0.2068
  142MOL0     H18721   4.385   3.310   5.869  0.5003  1.1731  0.8493
  142MOL0     H18722   4.270   3.105   6.042  0.7714  0.0822 -0.7442
  142MOL0     H18723   4.332   3.261   6.113  0.6260 -1.4920  0.6395
  142MOL0     H18724   4.139   3.299   5.893 -0.6393  0.1095  0.5003
  142MOL0     H18725   4.151   3.387   6.044 -1.2550  0.0041  1.4971
  142MOL0     H18726   5.140   3.726   6.011  1.0347  0.2382 -5.5586
  142MOL0     H18727   5.372   3.774   5.981  0.8068 -0.1687  0.7462
  142MOL0     H18728   5.720   3.820   5.956 -1.4660 -2.3157 -1.7202
  142MOL0     H18729   5.923   3.952   5.968 -0.2457 -0.9367 -1.8206
  142MOL0     H18730   7.835   4.411   6.313 -2.9869 -1.3654  0.1289
  142MOL0     H18731   8.019   4.289   6.246 -2.7156  0.9948 -1.4766
  142MOL0     H18732   8.543   4.210   6.519 -0.4708 -0.2606  0.1838
  142MOL0     H18733   8.733   4.067   6.460  0.9120  0.3467 -3.1408
  142MOL0     H18734   8.816   3.653   6.311 -1.2996 -3.0568 -1.6370
  142MOL0     H18735   8.643   3.668   6.297  1.0234  1.2523 -0.7299
  142MOL0     H18736   8.710   3.539   6.477 -0.4274  0.1472  0.8655
  142MOL0     H18737   8.809   3.658   6.551  1.4136 -1.5387 -0.2394
  142MOL0     H18738   8.499   3.673   6.525  1.9875  1.0393 -2.7467
  142MOL0     H18739   8.592   3.787   6.619  0.0773 -0.0510  1.0137
  142MOL0     H18740   8.479   3.586   6.733 -0.8822 -0.6370 -0.8168
  142MOL0     H18741   8.598   3.485   6.652  2.4434  1.3524 -0.9134
  142MOL0     H18742   8.793   3.676   6.976  1.6826 -2.3504 -0.1888
  142MOL0     H18743   8.462   3.790   6.262 -4.7727  2.4577 -1.4176
  142MOL0     H18744   8.287   3.927   6.316  0.2768 -1.0161 -0.1592
  143MOL0     O18745   2.819   2.991  10.119 -0.1751 -0.2254  0.4129
  143MOL0     C18746   2.717   3.014  10.184 -0.4851  0.3552  0.2559
  143MOL0     O18747   2.701   3.113  10.265  0.6100  0.3457 -0.4016
  143MOL0     C18748   2.803   3.183  10.314 -0.5518 -0.4034  0.4428
  143MOL0     C18749   2.794   3.214  10.449  0.4439  1.0182 -0.5749
  143MOL0     C18750   2.884   3.304  10.503  0.5874 -0.1121 -0.3082
  143MOL0     C18751   2.971   3.369  10.427 -0.6478 -0.0024 -0.3798
  143MOL0     O18752   3.052   3.474  10.474  1.1185 -0.3056 -0.2234
  143MOL0     C18753   3.052   3.520  10.610 -0.3171 -0.2868  0.5925
  143MOL0     C18754   3.156   3.622  10.630  0.0488  0.1166  0.4272
  143MOL0     C18755   3.300   3.566  10.617 -0.0191 -0.3229 -0.5438
  143MOL0     C18756   3.393   3.686  10.593 -1.1805  0.0410 -0.2006
  143MOL0     C18757   3.537   3.652  10.628  0.6259 -0.1550  0.6253
  143MOL0     C18758   3.613   3.588  10.513 -0.4973  0.5116 -0.4117
  143MOL0     C18759   3.750   3.541  10.562 -0.0999 -0.7722 -0.0783
  143MOL0     C18760   3.766   3.397  10.591  0.2715 -0.3881  0.8460
  143MOL0     N18761   3.688   3.330  10.699 -0.2314  0.5397 -0.1572
  143MOL0     C18762   3.565   3.264  10.687 -0.1580  0.0784  0.3148
  143MOL0     C18763   3.536   3.237  10.814 -0.6954 -0.0920 -0.3373
  143MOL0     C18764   3.422   3.157  10.857 -0.2919  0.0627  0.1622
  143MOL0     C18765   3.289   3.223  10.869 -0.1585 -0.2555  0.7381
  143MOL0     C18766   3.206   3.158  10.985 -0.0920 -0.0141  0.0940
  143MOL0     C18767   3.071   3.219  11.005 -0.3922  0.2328  0.2732
  143MOL0     O18768   2.978   3.184  10.897  0.1892  0.0275  0.2860
  143MOL0     C18769   2.859   3.109  10.908  0.3582 -0.2876 -0.1484
  143MOL0     C18770   2.831   3.016  11.009  0.8211 -0.3836 -0.8345
  143MOL0     C18771   2.713   2.939  10.999  0.2231 -0.7005 -0.5506
  143MOL0     C18772   2.617   2.969  10.898 -0.6369 -0.2732 -0.2161
  143MOL0     C18773   2.487   2.901  10.901 -0.5065  0.2026 -0.8206
  143MOL0     O18774   2.457   2.855  11.027  0.0793 -0.7038  0.5017
  143MOL0     C18775   2.337   2.792  11.051 -0.4462 -0.1604  0.0536
  143MOL0     C18776   2.215   2.832  11.005  0.1560 -0.1267 -0.4539
  143MOL0     C18777   2.098   2.762  11.041  0.4802 -0.5805 -0.5203
  143MOL0     C18778   2.109   2.662  11.142 -0.4774  0.1604 -0.2008
  143MOL0     O18779   1.995   2.598  11.188  0.1973  0.2833 -0.1670
  143MOL0     C18780   1.969   2.620  11.328  0.1349 -0.5070  0.1238
  143MOL0     C18781   1.899   2.495  11.361  0.9876  0.6016 -0.2381
  143MOL0     C18782   1.821   2.513  11.487  1.2042 -0.2944 -0.5112
  143MOL0     C18783   1.750   2.384  11.534 -0.2429 -0.2099  0.0377
  143MOL0     C18784   1.744   2.379  11.684 -0.5877 -0.0053  0.0759
  143MOL0     C18785   1.652   2.481  11.743  0.0721 -1.6572  1.3715
  143MOL0     C18786   1.642   2.445  11.893  0.3003  0.7155 -0.1834
  143MOL0     C18787   1.551   2.537  11.982  0.0134 -0.0205  0.1755
  143MOL0    Cl18788   1.610   2.700  11.979  0.2471 -0.3619  0.1173
  143MOL0     C18789   2.240   2.620  11.192  0.6571 -0.3551  0.3292
  143MOL0     C18790   2.353   2.684  11.137 -0.0849 -0.0058  0.3958
  143MOL0     O18791   2.410   2.904  10.802 -0.0642  0.6969  0.2777
  143MOL0     C18792   2.641   3.060  10.797 -0.5595 -0.0610 -1.0050
  143MOL0     C18793   2.770   3.121  10.802 -0.6392 -0.0812  1.0410
  143MOL0     N18794   3.626   3.305  10.892  0.0711  1.3129 -0.5349
  143MOL0     N18795   3.714   3.361  10.825 -0.1951 -0.5420 -0.0846
  143MOL0     C18796   2.989   3.324  10.294 -0.7318  0.2397 -1.2449
  143MOL0     C18797   2.905   3.233  10.235 -0.3012 -0.4341 -0.0728
  143MOL0     C18798   2.601   2.923  10.171 -0.3914 -0.4887 -0.2419
  143MOL0     C18799   2.475   2.946  10.220  1.2828 -0.2510  0.4036
  143MOL0     C18800   2.369   2.852  10.211  0.5519 -0.8287  0.0570
  143MOL0     C18801   2.386   2.727  10.155 -0.5900  0.3983  0.1221
  143MOL0     O18802   2.290   2.641  10.122  1.2665  0.0392 -0.0508
  143MOL0     C18803   2.179   2.692  10.052 -0.3002 -0.5980 -0.2132
  143MOL0     C18804   2.118   2.580   9.966 -0.1507 -0.1359 -0.1560
  143MOL0     C18805   1.972   2.602   9.910  0.4050 -0.0167 -0.7504
  143MOL0     C18806   1.862   2.635  10.016  0.3149  0.0186  0.0191
  143MOL0     C18807   1.878   2.548  10.129 -0.1773  0.6041  0.6880
  143MOL0     C18808   1.883   2.484  10.233  0.9210 -0.6851  0.1943
  143MOL0     C18809   2.512   2.699  10.105  0.3480 -0.4802 -0.4831
  143MOL0     C18810   2.616   2.795  10.114  0.2305 -0.2883  0.5326
  143MOL0     H18811   2.723   3.164  10.515 -0.2457 -0.6048 -2.4325
  143MOL0     H18812   2.866   3.329  10.607  0.2594 -1.7580  0.0600
  143MOL0     H18813   3.076   3.429  10.666  1.1847 -0.9106 -0.9644
  143MOL0     H18814   2.953   3.562  10.630 -0.3072  0.2015 -0.3237
  143MOL0     H18815   3.152   3.669  10.729  0.8674 -2.3529  1.6988
  143MOL0     H18816   3.156   3.695  10.548  0.7041 -0.7342 -0.3546
  143MOL0     H18817   3.315   3.503  10.529  1.4479 -1.0046  0.1679
  143MOL0     H18818   3.325   3.509  10.707 -2.1428  1.6812  1.4586
  143MOL0     H18819   3.396   3.711  10.486  0.2795 -3.4873 -1.1226
  143MOL0     H18820   3.362   3.757  10.670 -2.5406 -2.3133  1.5478
  143MOL0     H18821   3.554   3.600  10.723 -0.4797 -0.8761  0.4427
  143MOL0     H18822   3.580   3.752  10.640 -1.2382  1.5360 -4.2935
  143MOL0     H18823   3.623   3.665  10.437 -0.2696 -0.2142 -1.1285
  143MOL0     H18824   3.554   3.501  10.482  0.6841 -0.1056 -1.0010
  143MOL0     H18825   3.818   3.563  10.480  3.1361  2.0116  3.0361
  143MOL0     H18826   3.779   3.603  10.647 -2.5739  2.1785 -1.2043
  143MOL0     H18827   3.873   3.381  10.608  0.5954 -0.2591 -0.8855
  143MOL0     H18828   3.741   3.348  10.497  1.8643  1.0178 -0.3803
  143MOL0     H18829   3.511   3.238  10.597  0.8474 -1.4717  0.1225
  143MOL0     H18830   3.449   3.095  10.942 -1.0091 -1.3853 -0.6366
  143MOL0     H18831   3.398   3.081  10.783 -0.1667 -0.7445  0.9381
  143MOL0     H18832   3.240   3.217  10.772 -2.7146  2.0224  1.7276
  143MOL0     H18833   3.308   3.329  10.889 -2.1696  0.4315 -0.7061
  143MOL0     H18834   3.201   3.051  10.962  0.4365  0.1195 -0.7012
  143MOL0     H18835   3.269   3.163  11.074 -0.2831 -0.9368  0.2899
  143MOL0     H18836   3.088   3.327  10.996  0.6789 -0.1075 -2.9410
  143MOL0     H18837   3.028   3.198  11.104 -2.2970 -0.2819 -0.6189
  143MOL0     H18838   2.910   3.001  11.083 -1.6478 -2.6125  1.5676
  143MOL0     H18839   2.694   2.874  11.084 -1.2864  1.1792  0.6697
  143MOL0     H18840   2.218   2.914  10.934  0.5684 -0.2829 -0.6197
  143MOL0     H18841   2.002   2.793  11.002  0.9120  2.2094  0.4328
  143MOL0     H18842   1.907   2.704  11.359 -0.4492 -2.1572  3.9878
  143MOL0     H18843   2.063   2.640  11.379 -0.2153  1.2067  0.1374
  143MOL0     H18844   1.969   2.411  11.363  0.5764  0.2552 -0.2581
  143MOL0     H18845   1.830   2.467  11.281  1.7323 -2.1933 -0.0014
  143MOL0     H18846   1.740   2.584  11.466  2.2760  0.6269 -1.7289
  143MOL0     H18847   1.896   2.533  11.564  0.7481 -0.6564  0.0346
  143MOL0     H18848   1.651   2.373  11.488  0.1418 -0.2968 -0.7961
  143MOL0     H18849   1.818   2.302  11.506 -0.3898 -0.0146 -0.9380
  143MOL0     H18850   1.840   2.398  11.732 -1.3055  1.3101  1.0761
  143MOL0     H18851   1.707   2.284  11.723 -1.5206  0.6205  0.7772
  143MOL0     H18852   1.561   2.487  11.682  0.5143  0.9209  0.8564
  143MOL0     H18853   1.688   2.584  11.739 -0.7834 -1.3707 -1.3634
  143MOL0     H18854   1.605   2.342  11.891  2.1437 -0.0073 -2.7575
  143MOL0     H18855   1.742   2.446  11.935  1.3568  0.6753 -2.5373
  143MOL0     H18856   1.536   2.505  12.085 -2.2086  2.0320  0.5977
  143MOL0     H18857   1.447   2.538  11.948 -1.0441  0.4072  3.1167
  143MOL0     H18858   2.255   2.535  11.257  1.3200  0.1203  0.8065
  143MOL0     H18859   2.449   2.640  11.161  0.0880 -0.8412 -1.6084
  143MOL0     H18860   2.580   3.079  10.709 -1.1870  1.2090 -0.3203
  143MOL0     H18861   2.807   3.185  10.722 -1.2218 -1.3922 -0.3475
  143MOL0     H18862   3.066   3.379  10.241  2.8898 -1.8123  1.4260
  143MOL0     H18863   2.911   3.229  10.126  0.7044 -1.8648  0.0149
  143MOL0     H18864   2.448   3.034  10.278  0.6249 -1.2433  1.6313
  143MOL0     H18865   2.273   2.889  10.244  0.6222  1.0749 -1.6671
  143MOL0     H18866   2.214   2.769   9.983  0.2793 -0.9242 -0.2966
  143MOL0     H18867   2.096   2.718  10.119 -1.4015 -1.1310 -1.3373
  143MOL0     H18868   2.179   2.557   9.879  1.2770 -1.9643  1.2348
  143MOL0     H18869   2.116   2.483  10.016  4.1983 -0.0713  0.5223
  143MOL0     H18870   1.934   2.511   9.864 -0.3009 -0.5998  0.9230
  143MOL0     H18871   1.979   2.682   9.835  0.3316  2.1597  1.4478
  143MOL0     H18872   1.862   2.743  10.034 -2.4249  0.6803 -3.0351
  143MOL0     H18873   1.771   2.620   9.957  0.9493  1.0972 -1.2829
  143MOL0     H18874   1.885   2.426  10.323  0.4326 -0.9887  0.0148
  143MOL0     H18875   2.540   2.600  10.071  2.6118 -0.1725  0.3301
  143MOL0     H18876   2.708   2.768  10.063 -1.1972 -1.0142 -1.7958
  144MOL0     O18877   5.151   9.345  11.063 -0.0753  0.1932  0.1986
  144MOL0     C18878   5.272   9.326  11.073  0.4278  0.0954  0.4657
  144MOL0     O18879   5.326   9.206  11.102  0.4149  0.3433 -0.0649
  144MOL0     C18880   5.244   9.117  11.169  0.5045  0.7775 -0.3669
  144MOL0     C18881   5.145   9.149  11.272 -0.0829  0.7487  0.1901
  144MOL0     C18882   5.061   9.047  11.327 -0.2002  0.1075 -0.0665
  144MOL0     C18883   5.093   8.912  11.297 -0.8759 -0.3759  0.0014
  144MOL0     O18884   5.008   8.826  11.358  0.5721  0.2972  0.3284
  144MOL0     C18885   5.059   8.695  11.381 -1.0440  0.1849  0.9512
  144MOL0     C18886   4.935   8.597  11.356 -0.4989 -0.4071 -0.2361
  144MOL0     C18887   4.841   8.615  11.482 -0.4012  0.5293  0.6707
  144MOL0     C18888   4.726   8.525  11.454  0.4725 -0.0261 -0.1507
  144MOL0     C18889   4.624   8.506  11.564  0.5172 -0.0617  0.8090
  144MOL0     C18890   4.559   8.630  11.623  0.8816  0.1944  0.2352
  144MOL0     C18891   4.449   8.687  11.532 -0.7223  0.8051  0.3302
  144MOL0     C18892   4.435   8.840  11.557 -0.9851  0.7541 -0.5697
  144MOL0     N18893   4.301   8.890  11.526  0.2552  0.0439 -0.4533
  144MOL0     C18894   4.244   8.915  11.401 -0.5169 -0.4632 -0.0545
  144MOL0     C18895   4.117   8.944  11.414  0.1623  0.3925  0.2575
  144MOL0     C18896   4.018   8.979  11.307 -1.0527  0.2207  0.7629
  144MOL0     C18897   3.968   8.868  11.207  0.1288  0.6121 -0.3083
  144MOL0     C18898   3.891   8.746  11.275  0.2604  0.6855  0.5965
  144MOL0     C18899   3.794   8.673  11.177  0.1661  0.1450  0.5738
  144MOL0     O18900   3.718   8.605  11.270  0.0487 -0.2744  0.0268
  144MOL0     C18901   3.643   8.505  11.214  0.5856 -0.4773  0.2268
  144MOL0     C18902   3.603   8.498  11.080  0.2040 -0.2174  0.1921
  144MOL0     C18903   3.506   8.402  11.036 -1.0329  0.1602  0.4633
  144MOL0     C18904   3.437   8.328  11.127  0.8758 -0.3840  0.7518
  144MOL0     C18905   3.323   8.257  11.080  0.4437  0.3065 -0.2987
  144MOL0     O18906   3.239   8.317  10.989 -0.7511  0.1863  0.3818
  144MOL0     C18907   3.110   8.279  10.989  0.3547 -0.6053 -0.3478
  144MOL0     C18908   3.017   8.330  11.084  0.0466 -0.3747  0.1243
  144MOL0     C18909   2.886   8.275  11.087 -0.8206  0.1787  0.1351
  144MOL0     C18910   2.848   8.175  11.003 -0.4682 -1.0534 -0.5272
  144MOL0     O18911   2.719   8.118  10.996 -0.0232 -0.2024  0.2598
  144MOL0     C18912   2.624   8.159  11.098 -0.6401  0.4019 -0.3020
  144MOL0     C18913   2.540   8.281  11.048  0.3013  0.4980 -0.1717
  144MOL0     C18914   2.504   8.287  10.902 -0.4234 -0.2213  0.9935
  144MOL0     C18915   2.389   8.384  10.876 -0.1233  0.3321  0.0664
  144MOL0     C18916   2.315   8.353  10.742  1.2973  0.2859 -0.0376
  144MOL0     C18917   2.230   8.219  10.750  0.6988  0.3173  1.0519
  144MOL0     C18918   2.130   8.213  10.633  0.3263 -0.6510 -0.4824
  144MOL0     C18919   2.179   8.217  10.488  0.1619  0.6756  0.2050
  144MOL0    Cl18920   2.055   8.169  10.354  0.7131 -0.1407 -0.3203
  144MOL0     C18921   2.940   8.135  10.906 -0.5459  0.1412  0.0887
  144MOL0     C18922   3.071   8.186  10.896 -0.3301 -0.0843  0.1827
  144MOL0     O18923   3.302   8.149  11.142 -0.1776  0.0140 -0.7519
  144MOL0     C18924   3.471   8.342  11.261 -1.2147 -0.3537  0.3147
  144MOL0     C18925   3.577   8.424  11.305  0.1918 -0.3785  0.5481
  144MOL0     N18926   4.081   8.909  11.544 -0.5229 -0.1324  0.2182
  144MOL0     N18927   4.195   8.873  11.608  0.3653 -0.4450  0.2914
  144MOL0     C18928   5.195   8.885  11.198 -0.6732 -0.0039  0.7708
  144MOL0     C18929   5.268   8.982  11.139 -0.0813  0.3286  0.5350
  144MOL0     C18930   5.363   9.443  11.044 -0.2545 -0.0860 -0.1466
  144MOL0     C18931   5.320   9.562  10.991  0.1665 -0.2849  0.1982
  144MOL0     C18932   5.413   9.671  10.979  0.0448  0.4165  0.3077
  144MOL0     C18933   5.552   9.654  11.006  0.2509 -0.6436 -0.2588
  144MOL0     O18934   5.647   9.754  10.997 -0.4951 -0.1157 -0.9840
  144MOL0     C18935   5.631   9.855  10.891 -0.2381 -0.1286 -0.5459
  144MOL0     C18936   5.667   9.813  10.752 -0.5701 -0.1108 -0.0717
  144MOL0     C18937   5.632   9.920  10.645 -0.1710  0.9265 -0.1031
  144MOL0     C18938   5.716  10.054  10.671  0.2604 -0.2132  0.1136
  144MOL0     C18939   5.738  10.135  10.549  0.2735  0.2378  0.2475
  144MOL0     C18940   5.771  10.194  10.452  0.1451 -0.6629 -0.7597
  144MOL0     C18941   5.594   9.526  11.052  0.3053 -0.7719  0.2984
  144MOL0     C18942   5.500   9.423  11.080 -0.5072  0.4255 -0.5852
  144MOL0     H18943   5.131   9.251  11.307 -2.8464  0.9534 -1.2423
  144MOL0     H18944   4.990   9.074  11.405  1.2543 -0.0099  1.3457
  144MOL0     H18945   5.093   8.692  11.485  0.4280  0.7463  0.4964
  144MOL0     H18946   5.141   8.661  11.318 -1.4146 -1.3994  1.2570
  144MOL0     H18947   4.973   8.495  11.344 -0.8807 -0.2795 -3.5572
  144MOL0     H18948   4.871   8.616  11.270  0.3660 -2.2214 -1.3373
  144MOL0     H18949   4.804   8.713  11.512 -0.1075  0.4144  1.4331
  144MOL0     H18950   4.889   8.576  11.572 -1.7382  0.0608  1.2142
  144MOL0     H18951   4.680   8.559  11.360  1.7629 -0.5085 -0.9888
  144MOL0     H18952   4.764   8.423  11.441 -2.8937 -1.7982  2.3247
  144MOL0     H18953   4.677   8.461  11.648 -0.2073 -0.3013  1.1404
  144MOL0     H18954   4.540   8.444  11.532 -0.8184  3.2031 -2.8043
  144MOL0     H18955   4.635   8.708  11.635  3.2392 -1.2522 -3.4401
  144MOL0     H18956   4.518   8.596  11.719  2.3934  0.5623  1.0398
  144MOL0     H18957   4.482   8.671  11.429 -0.5092  0.8890  0.3851
  144MOL0     H18958   4.352   8.644  11.557 -0.3935  1.5897  3.4275
  144MOL0     H18959   4.513   8.895  11.503  0.6199 -3.3997 -3.0283
  144MOL0     H18960   4.444   8.852  11.666  3.0449  0.3590 -0.7027
  144MOL0     H18961   4.299   8.926  11.308 -1.3855  2.0669 -0.3547
  144MOL0     H18962   4.062   9.057  11.246  2.4335 -0.9670  1.5107
  144MOL0     H18963   3.932   9.014  11.364 -1.0605  0.9737  0.2919
  144MOL0     H18964   4.059   8.824  11.165 -0.9807 -0.0880 -2.1209
  144MOL0     H18965   3.899   8.904  11.130 -1.6519  1.8622  1.7433
  144MOL0     H18966   3.956   8.676  11.328 -2.3022  0.6489  4.0137
  144MOL0     H18967   3.830   8.792  11.353 -1.4026  1.7503 -1.2074
  144MOL0     H18968   3.854   8.616  11.105 -1.2512 -2.2181  1.1268
  144MOL0     H18969   3.725   8.738  11.123  0.5694 -0.7688 -1.1232
  144MOL0     H18970   3.643   8.561  11.001  0.7022 -1.9096 -0.9589
  144MOL0     H18971   3.481   8.404  10.930 -0.2031 -2.1405  0.1619
  144MOL0     H18972   3.031   8.408  11.158  0.3729 -0.2364 -0.0841
  144MOL0     H18973   2.818   8.303  11.166  0.6158 -1.9254  2.2268
  144MOL0     H18974   2.671   8.177  11.195 -0.3690 -1.6635 -0.0154
  144MOL0     H18975   2.557   8.075  11.117  0.6788 -0.8031 -0.7541
  144MOL0     H18976   2.592   8.375  11.067  1.0240  0.6635 -2.6376
  144MOL0     H18977   2.449   8.287  11.109 -0.1275 -2.0554 -0.4074
  144MOL0     H18978   2.467   8.186  10.879 -0.7618  0.3758 -1.2333
  144MOL0     H18979   2.592   8.315  10.844  1.0260  2.1450  4.0526
  144MOL0     H18980   2.317   8.385  10.958  0.5993 -3.7457  0.9530
  144MOL0     H18981   2.433   8.484  10.868  2.4077 -0.6357  0.7324
  144MOL0     H18982   2.392   8.351  10.665  0.4836 -1.5958 -0.8652
  144MOL0     H18983   2.253   8.442  10.725  0.8917 -0.2481 -1.4650
  144MOL0     H18984   2.171   8.222  10.842  1.7763  0.9391  1.7398
  144MOL0     H18985   2.293   8.131  10.763 -1.9140 -1.6556  1.3532
  144MOL0     H18986   2.066   8.126  10.648  0.9505 -0.9116  0.7735
  144MOL0     H18987   2.069   8.304  10.631  0.8641 -0.2431  0.7120
  144MOL0     H18988   2.260   8.144  10.479 -1.1274 -0.7944  0.1195
  144MOL0     H18989   2.213   8.316  10.456  0.4580 -0.4418 -3.4587
  144MOL0     H18990   2.909   8.058  10.836  1.5164  0.2085 -1.0020
  144MOL0     H18991   3.139   8.159  10.816 -2.8739  0.3238 -2.2612
  144MOL0     H18992   3.426   8.274  11.333 -0.1030 -2.4830 -0.8790
  144MOL0     H18993   3.596   8.430  11.412  0.7232 -2.1566  0.5781
  144MOL0     H18994   5.226   8.785  11.168 -2.0006  0.5326 -2.8219
  144MOL0     H18995   5.339   8.964  11.059 -0.6416 -0.6136  0.2324
  144MOL0     H18996   5.213   9.567  10.977  0.0345  2.9707  1.4960
  144MOL0     H18997   5.369   9.768  10.960  1.0386  0.2963 -3.1671
  144MOL0     H18998   5.693   9.940  10.922 -0.2699 -0.1373 -0.4573
  144MOL0     H18999   5.529   9.892  10.903  0.4698  2.6296 -2.0347
  144MOL0     H19000   5.774   9.791  10.752  0.0242  2.4194  1.4169
  144MOL0     H19001   5.606   9.722  10.742 -2.4589  0.7797  2.2472
  144MOL0     H19002   5.524   9.936  10.647 -0.0528  2.1414 -1.5196
  144MOL0     H19003   5.661   9.878  10.548 -0.6545 -0.4057  0.3129
  144MOL0     H19004   5.657  10.102  10.749 -1.6845 -1.6283 -0.4034
  144MOL0     H19005   5.816  10.026  10.705  0.1049  0.0115  0.7579
  144MOL0     H19006   5.797  10.256  10.369 -1.8481 -1.6961 -2.2320
  144MOL0     H19007   5.698   9.510  11.080 -0.2823 -0.4624  2.9566
  144MOL0     H19008   5.547   9.334  11.119  0.9088  1.3765 -0.0271
  145MOL0     O19009   8.238   2.778   2.335  0.8418 -0.5267 -0.2163
  145MOL0     C19010   8.302   2.811   2.238  0.5602 -0.1940  0.4958
  145MOL0     O19011   8.248   2.855   2.126 -0.9141 -0.2407 -0.1792
  145MOL0     C19012   8.117   2.851   2.110 -0.0074 -1.2326  0.8503
  145MOL0     C19013   8.038   2.960   2.077 -0.4535 -0.1226 -0.2282
  145MOL0     C19014   7.908   2.964   2.053  0.2187 -0.0356  0.0861
  145MOL0     C19015   7.833   2.839   2.053  0.2764  0.2934  0.0358
  145MOL0     O19016   7.696   2.825   2.032 -0.7348 -0.2331 -1.1818
  145MOL0     C19017   7.621   2.907   2.119 -1.4922  0.8619 -0.0277
  145MOL0     C19018   7.470   2.858   2.123 -0.0722  0.4317  0.6548
  145MOL0     C19019   7.391   2.941   2.221 -0.2408  0.8111  0.2871
  145MOL0     C19020   7.247   2.885   2.237  0.1112  0.5671 -0.5646
  145MOL0     C19021   7.157   2.989   2.310 -0.4987  0.7148 -0.3636
  145MOL0     C19022   7.013   2.930   2.329  0.8814 -1.3182  0.2064
  145MOL0     C19023   6.915   3.031   2.389  0.3388 -0.2941 -0.6288
  145MOL0     C19024   6.908   3.022   2.551 -0.0683  0.3809  0.2152
  145MOL0     N19025   7.036   3.016   2.619  0.4535  0.9592  0.7082
  145MOL0     C19026   7.107   3.117   2.683  0.2716  0.1558  0.2273
  145MOL0     C19027   7.203   3.056   2.753  0.0843 -0.4155  0.1214
  145MOL0     C19028   7.308   3.130   2.835 -0.6247 -0.3182 -0.7457
  145MOL0     C19029   7.442   3.129   2.762 -0.0716  0.2463 -0.3163
  145MOL0     C19030   7.433   3.217   2.634  0.2742  0.5017 -0.4231
  145MOL0     C19031   7.564   3.250   2.565  0.0883  0.1030  0.1797
  145MOL0     O19032   7.546   3.297   2.436  0.6263 -0.2549 -1.1754
  145MOL0     C19033   7.665   3.323   2.382  0.2694  0.1631 -0.3052
  145MOL0     C19034   7.741   3.231   2.312 -0.3762 -0.0635 -0.5711
  145MOL0     C19035   7.866   3.272   2.257  0.4415  0.1350  0.3620
  145MOL0     C19036   7.896   3.410   2.256 -0.1447 -0.0827 -1.0071
  145MOL0     C19037   8.025   3.456   2.204 -0.1464 -0.3859  0.1524
  145MOL0     O19038   8.122   3.355   2.199  0.5758 -0.4545  0.4801
  145MOL0     C19039   8.249   3.388   2.160  0.4138  0.8884 -0.5462
  145MOL0     C19040   8.314   3.501   2.212 -0.6828  0.7121 -0.2057
  145MOL0     C19041   8.454   3.512   2.209  0.7922  0.1542 -0.0765
  145MOL0     C19042   8.537   3.427   2.139 -0.0999  0.5048 -0.0905
  145MOL0     O19043   8.669   3.447   2.171 -0.1323  0.3289 -0.2153
  145MOL0     C19044   8.758   3.388   2.078 -0.1045  0.7823  0.4612
  145MOL0     C19045   8.901   3.452   2.102 -0.1542  0.2716 -0.5654
  145MOL0     C19046   9.013   3.379   2.025  0.0702  0.3136 -0.4035
  145MOL0     C19047   9.151   3.439   2.059 -1.0490 -0.2001 -0.9814
  145MOL0     C19048   9.263   3.370   1.970  0.3578  0.7674  0.0242
  145MOL0     C19049   9.402   3.399   2.024 -0.4900  0.8454  0.5969
  145MOL0     C19050   9.508   3.352   1.936  0.3926  0.2503  0.1888
  145MOL0     C19051   9.645   3.386   2.009 -0.1762  0.9425 -0.1102
  145MOL0    Cl19052   9.778   3.391   1.889  0.0219 -0.1025 -0.4717
  145MOL0     C19053   8.475   3.307   2.086  0.7033  0.1672 -0.2075
  145MOL0     C19054   8.333   3.287   2.104  0.4614  0.2797 -0.2870
  145MOL0     O19055   8.037   3.573   2.169 -0.2311 -0.1763 -0.2494
  145MOL0     C19056   7.810   3.501   2.319 -0.4579  0.4079  0.1264
  145MOL0     C19057   7.698   3.459   2.382 -0.3618 -0.3596  0.3147
  145MOL0     N19058   7.183   2.919   2.750 -0.4260 -0.4836  0.4104
  145MOL0     N19059   7.083   2.900   2.669 -1.0692 -0.8133  0.1215
  145MOL0     C19060   7.900   2.723   2.072  0.0567  0.2031 -0.9069
  145MOL0     C19061   8.042   2.728   2.105 -0.3456  0.2364 -0.0018
  145MOL0     C19062   8.451   2.822   2.253 -0.6807 -0.1515 -0.0497
  145MOL0     C19063   8.532   2.897   2.164  0.4040 -0.0731 -0.1414
  145MOL0     C19064   8.674   2.909   2.187  0.0917  0.0287 -0.6624
  145MOL0     C19065   8.734   2.872   2.306 -0.0232  0.4264 -0.0911
  145MOL0     O19066   8.871   2.891   2.318  0.2677  0.7342 -0.3405
  145MOL0     C19067   8.941   2.839   2.435 -0.8522  0.1742 -0.4262
  145MOL0     C19068   9.092   2.860   2.417 -0.1798  0.4221  0.4828
  145MOL0     C19069   9.140   3.011   2.418  0.2199  0.4366 -0.1848
  145MOL0     C19070   9.126   3.087   2.288 -0.6867  0.6465  0.6412
  145MOL0     C19071   9.231   3.054   2.187 -0.1529 -0.1761 -0.3908
  145MOL0     C19072   9.312   3.043   2.099 -0.0123 -0.4634  0.0895
  145MOL0     C19073   8.650   2.813   2.401 -0.8816 -0.4634  0.7170
  145MOL0     C19074   8.513   2.785   2.379 -0.5303 -0.7120  0.2378
  145MOL0     H19075   8.089   3.052   2.051 -0.1721 -0.7898 -2.2052
  145MOL0     H19076   7.861   3.055   2.019 -0.0866  0.0593  0.7331
  145MOL0     H19077   7.634   3.012   2.089  1.4208  0.9876  1.3728
  145MOL0     H19078   7.660   2.890   2.219 -0.1339  2.7550 -0.1701
  145MOL0     H19079   7.456   2.751   2.140 -2.7666  0.6619  0.3016
  145MOL0     H19080   7.434   2.878   2.022  3.6069  0.4698 -0.8193
  145MOL0     H19081   7.378   3.046   2.194 -3.9583  0.3395 -0.1849
  145MOL0     H19082   7.443   2.940   2.318  0.5122 -2.1980 -0.0310
  145MOL0     H19083   7.196   2.863   2.143 -2.0497 -0.0012  0.6648
  145MOL0     H19084   7.251   2.796   2.301  1.1269  1.9551  1.4182
  145MOL0     H19085   7.145   3.080   2.250  0.0274  0.9549 -0.1112
  145MOL0     H19086   7.210   3.022   2.400 -2.2887  3.9221 -0.3333
  145MOL0     H19087   7.029   2.832   2.374  3.5499 -0.5596  1.1407
  145MOL0     H19088   6.986   2.915   2.224  2.1693  1.9218 -0.7277
  145MOL0     H19089   6.951   3.131   2.363  0.5236 -0.2633 -0.2681
  145MOL0     H19090   6.821   3.006   2.340  0.3656  0.8745 -1.2969
  145MOL0     H19091   6.861   2.924   2.561  0.7780 -0.0765 -0.1827
  145MOL0     H19092   6.848   3.104   2.594  0.6731  2.0451 -1.7391
  145MOL0     H19093   7.077   3.221   2.673  1.6056  0.4976 -0.4421
  145MOL0     H19094   7.326   3.070   2.925 -0.2696  0.9733  0.0822
  145MOL0     H19095   7.272   3.228   2.867  1.1732 -0.5648  2.5278
  145MOL0     H19096   7.462   3.028   2.726 -0.6114 -0.3053  0.8698
  145MOL0     H19097   7.527   3.166   2.819 -0.6386  2.0114 -0.5386
  145MOL0     H19098   7.383   3.159   2.556  1.3068 -0.8495 -0.1140
  145MOL0     H19099   7.369   3.302   2.659 -3.0223 -2.0631  0.5765
  145MOL0     H19100   7.625   3.161   2.547  2.7754  2.0921 -1.4816
  145MOL0     H19101   7.618   3.316   2.633 -2.9066  0.5036  2.3261
  145MOL0     H19102   7.714   3.125   2.314 -1.6067  0.2387 -0.2865
  145MOL0     H19103   7.935   3.201   2.212 -0.7460 -0.1682 -1.0509
  145MOL0     H19104   8.260   3.578   2.265 -0.2752  0.4706  0.5771
  145MOL0     H19105   8.490   3.599   2.263  1.0883 -0.7851  1.2878
  145MOL0     H19106   8.736   3.421   1.976  1.4921 -0.2333 -0.2571
  145MOL0     H19107   8.772   3.280   2.092 -0.2300  0.9218  1.8680
  145MOL0     H19108   8.920   3.464   2.209 -1.2486  0.6850 -0.3989
  145MOL0     H19109   8.906   3.555   2.068  2.8273  0.6107  0.6144
  145MOL0     H19110   8.998   3.392   1.917  0.9089 -1.2528 -0.7322
  145MOL0     H19111   9.005   3.275   2.055 -0.9560  0.9108  1.5346
  145MOL0     H19112   9.148   3.546   2.041  3.9117  0.5333  0.9861
  145MOL0     H19113   9.177   3.433   2.165 -0.6566  0.4956 -1.0360
  145MOL0     H19114   9.267   3.394   1.864  2.2746  1.6366  0.2310
  145MOL0     H19115   9.249   3.263   1.986 -1.1985  0.4066 -3.0671
  145MOL0     H19116   9.412   3.352   2.122  0.1507  1.7099  0.9541
  145MOL0     H19117   9.420   3.506   2.037 -2.2452  1.4071 -1.1282
  145MOL0     H19118   9.497   3.249   1.901 -2.7785  0.3197  0.6671
  145MOL0     H19119   9.505   3.414   1.847 -1.4894  0.1898  0.1704
  145MOL0     H19120   9.682   3.313   2.082  3.1242  2.3824 -0.1874
  145MOL0     H19121   9.636   3.480   2.064  3.0085 -0.2859  2.9602
  145MOL0     H19122   8.537   3.231   2.038  0.3381  0.5555 -1.3164
  145MOL0     H19123   8.266   3.205   2.078 -0.2407  0.9349 -0.5712
  145MOL0     H19124   7.827   3.608   2.322  4.3590 -0.1252 -0.0846
  145MOL0     H19125   7.624   3.525   2.426 -0.5206  0.3250 -0.9397
  145MOL0     H19126   7.838   2.633   2.071 -0.3007  0.4368 -0.1748
  145MOL0     H19127   8.102   2.638   2.102 -0.2687  0.0167  3.6432
  145MOL0     H19128   8.495   2.946   2.075  0.1025  2.4210  1.2422
  145MOL0     H19129   8.729   2.973   2.119 -2.5167  1.2295 -1.7833
  145MOL0     H19130   8.925   2.731   2.447 -2.4350  0.6100  1.9008
  145MOL0     H19131   8.913   2.886   2.529  0.0914  0.9893 -0.5349
  145MOL0     H19132   9.155   2.793   2.475  1.3260  0.5254 -0.9600
  145MOL0     H19133   9.127   2.815   2.324 -0.9903 -1.0824  0.8813
  145MOL0     H19134   9.246   3.014   2.447  0.6813  2.7780 -1.8636
  145MOL0     H19135   9.083   3.071   2.489 -2.2655 -0.2208 -1.5335
  145MOL0     H19136   9.029   3.068   2.241  1.5493 -1.7031 -3.5733
  145MOL0     H19137   9.137   3.194   2.309  0.5993  0.9092 -1.1998
  145MOL0     H19138   9.379   3.032   2.017  3.4686  2.4049  2.2640
  145MOL0     H19139   8.694   2.778   2.494  1.4489 -2.1102 -0.8954
  145MOL0     H19140   8.446   2.750   2.457  1.1842  2.3055  3.2992
  146MOL0     O19141   0.729   1.457   4.409 -0.0650  0.1613 -0.6560
  146MOL0     C19142   0.732   1.334   4.402  0.4471 -0.2287 -0.5293
  146MOL0     O19143   0.628   1.257   4.396 -0.4731 -0.6217  0.0698
  146MOL0     C19144   0.510   1.317   4.363 -0.3854  0.5102 -0.3402
  146MOL0     C19145   0.446   1.273   4.248 -0.1038 -0.1041  0.0065
  146MOL0     C19146   0.317   1.315   4.213 -0.4142 -0.5692  0.0844
  146MOL0     C19147   0.255   1.414   4.291 -0.1210 -0.6608  0.7087
  146MOL0     O19148   0.130   1.469   4.258 -0.0744 -0.4144  0.0458
  146MOL0     C19149   0.028   1.374   4.207 -1.0194  0.2131 -0.7834
  146MOL0     C19150  -0.113   1.431   4.213 -0.6907 -0.1121 -0.6986
  146MOL0     C19151  -0.142   1.551   4.128  0.5949 -0.4001  0.5976
  146MOL0     C19152  -0.287   1.594   4.148  0.4599 -0.7031 -0.8726
  146MOL0     C19153  -0.319   1.720   4.067  0.3022 -0.2495  1.1958
  146MOL0     C19154  -0.469   1.738   4.081  0.7143  0.1680 -0.0728
  146MOL0     C19155  -0.515   1.861   4.001  0.2391  0.4614 -0.1189
  146MOL0     C19156  -0.646   1.922   4.048 -0.1124  0.2779 -0.1231
  146MOL0     N19157  -0.760   1.837   4.003  0.4888 -0.4337 -1.3344
  146MOL0     C19158  -0.840   1.859   3.890 -1.2253  0.2517  0.1120
  146MOL0     C19159  -0.930   1.753   3.885 -0.3653 -0.9421  0.1079
  146MOL0     C19160  -1.031   1.746   3.784 -0.3776 -0.3748 -0.3358
  146MOL0     C19161  -1.164   1.788   3.843 -0.1434 -0.6685 -0.4257
  146MOL0     C19162  -1.172   1.948   3.852 -0.4573  0.1734 -0.3043
  146MOL0     C19163  -1.295   2.016   3.916 -0.6781  0.0719 -0.2961
  146MOL0     O19164  -1.393   2.039   3.815  0.2495 -0.8883 -0.3176
  146MOL0     C19165  -1.520   2.025   3.856  0.4806  0.4730  0.0201
  146MOL0     C19166  -1.602   1.961   3.759  0.5277 -0.1740  0.6279
  146MOL0     C19167  -1.740   1.960   3.782  1.3494  0.2193 -1.1502
  146MOL0     C19168  -1.798   2.021   3.898 -0.0433 -0.3443 -0.4574
  146MOL0     C19169  -1.946   2.014   3.914 -0.5285  0.0408 -0.3585
  146MOL0     O19170  -1.986   2.080   4.027  0.4948  0.2239  0.6126
  146MOL0     C19171  -2.114   2.071   4.061  0.9284 -0.3759  0.0065
  146MOL0     C19172  -2.226   2.128   3.992  0.6391  0.0447  0.2847
  146MOL0     C19173  -2.357   2.126   4.054 -1.2499 -0.4238 -0.0125
  146MOL0     C19174  -2.378   2.066   4.180  0.3621 -0.1234  0.1978
  146MOL0     O19175  -2.498   2.053   4.245  0.3600  0.5031 -0.0048
  146MOL0     C19176  -2.621   2.080   4.174  0.7433 -0.0072 -0.2404
  146MOL0     C19177  -2.741   2.087   4.274  0.5264 -0.2679  0.2563
  146MOL0     C19178  -2.733   1.955   4.360  0.7871  0.2524  0.2818
  146MOL0     C19179  -2.843   1.956   4.463 -0.3098 -0.1555  0.8180
  146MOL0     C19180  -2.843   2.067   4.566  0.3963  0.0671  0.0415
  146MOL0     C19181  -2.718   2.093   4.633  0.0655  0.1345 -0.5002
  146MOL0     C19182  -2.743   2.191   4.753  0.3515 -0.3416  0.7689
  146MOL0     C19183  -2.608   2.224   4.824  0.0705 -0.4255 -0.6239
  146MOL0    Cl19184  -2.668   2.318   4.964  0.2122 -0.5203 -0.4533
  146MOL0     C19185  -2.267   2.017   4.255 -0.8482  0.6199 -0.4295
  146MOL0     C19186  -2.136   2.024   4.193 -0.2048  0.2841  0.0332
  146MOL0     O19187  -2.022   1.965   3.830  0.5373  0.2267  0.1237
  146MOL0     C19188  -1.720   2.093   3.992 -0.0137  0.3828 -0.4694
  146MOL0     C19189  -1.580   2.101   3.963  0.3710  0.6030 -0.7315
  146MOL0     N19190  -0.899   1.671   3.988  0.5833 -0.4241  0.2198
  146MOL0     N19191  -0.805   1.720   4.058  0.1578  0.6166 -0.1235
  146MOL0     C19192   0.318   1.462   4.406 -0.7246  0.1486  0.4349
  146MOL0     C19193   0.446   1.410   4.440 -0.6949  0.5436 -0.9358
  146MOL0     C19194   0.863   1.273   4.402  0.0359 -0.2775  0.1676
  146MOL0     C19195   0.887   1.135   4.411 -0.5454 -0.9901  0.2123
  146MOL0     C19196   1.025   1.093   4.426  0.0952  0.3087 -0.4880
  146MOL0     C19197   1.129   1.182   4.436 -0.1337 -0.4745 -0.5402
  146MOL0     O19198   1.260   1.150   4.471 -0.1372 -0.0954  0.6143
  146MOL0     C19199   1.286   1.015   4.495 -0.1304 -0.2127  0.8169
  146MOL0     C19200   1.440   0.983   4.502 -0.4798  0.0834 -0.3897
  146MOL0     C19201   1.467   0.837   4.509  0.0348 -0.4011 -0.8137
  146MOL0     C19202   1.606   0.803   4.564  0.1288 -0.7430 -0.1542
  146MOL0     C19203   1.703   0.810   4.456  0.2750 -0.4796  0.4586
  146MOL0     C19204   1.798   0.824   4.377  0.6355  0.6540 -1.1887
  146MOL0     C19205   1.101   1.314   4.417  0.5540  0.1473  0.0187
  146MOL0     C19206   0.974   1.358   4.403 -0.8491  0.2105  0.7373
  146MOL0     H19207   0.495   1.194   4.193 -1.2246  1.0190 -2.8109
  146MOL0     H19208   0.267   1.269   4.128  1.6148  0.9655 -2.0358
  146MOL0     H19209   0.022   1.286   4.272 -0.1233  0.8407  0.1831
  146MOL0     H19210   0.039   1.339   4.104  0.4023  2.3824 -1.4420
  146MOL0     H19211  -0.141   1.468   4.312 -1.4370 -2.7241  0.1477
  146MOL0     H19212  -0.186   1.353   4.189 -1.1925  0.5222 -1.2645
  146MOL0     H19213  -0.132   1.517   4.024  2.6438  1.4153  0.1243
  146MOL0     H19214  -0.078   1.640   4.127 -3.0598  2.4656  0.4133
  146MOL0     H19215  -0.359   1.515   4.123  0.0463  0.1421 -2.5234
  146MOL0     H19216  -0.295   1.618   4.254 -1.8878  3.3682 -1.7327
  146MOL0     H19217  -0.289   1.701   3.964 -1.3065  1.3269  0.3651
  146MOL0     H19218  -0.271   1.813   4.100  0.8522  0.1145 -0.5140
  146MOL0     H19219  -0.488   1.757   4.188 -1.8165  0.1874 -0.4716
  146MOL0     H19220  -0.528   1.653   4.046 -2.3579  2.0604  0.1480
  146MOL0     H19221  -0.446   1.944   4.016  1.2172 -0.1772 -0.9776
  146MOL0     H19222  -0.523   1.829   3.897 -1.2976 -1.3013  0.4707
  146MOL0     H19223  -0.671   2.019   4.004 -4.5656 -0.7428 -0.3501
  146MOL0     H19224  -0.648   1.930   4.157  0.8344  1.9423 -0.2021
  146MOL0     H19225  -0.839   1.953   3.835 -1.9984 -0.5457 -1.3272
  146MOL0     H19226  -1.045   1.640   3.762 -0.7173 -0.1616 -1.2192
  146MOL0     H19227  -1.014   1.792   3.686 -1.4412  0.0939 -0.3254
  146MOL0     H19228  -1.186   1.730   3.932  0.2016 -2.4954 -1.4894
  146MOL0     H19229  -1.242   1.764   3.770 -2.8948  2.2135  1.2857
  146MOL0     H19230  -1.088   1.968   3.920 -2.2699 -2.2559  2.9747
  146MOL0     H19231  -1.153   1.977   3.749  1.3058 -1.7985 -0.5883
  146MOL0     H19232  -1.265   2.117   3.946  1.9420  0.9442 -4.7951
  146MOL0     H19233  -1.329   1.951   3.997 -0.6546  1.5172  0.9054
  146MOL0     H19234  -1.554   1.923   3.669 -0.7867  3.5317 -1.8597
  146MOL0     H19235  -1.801   1.908   3.710 -0.3663  2.3780 -1.3699
  146MOL0     H19236  -2.217   2.164   3.890  2.6811 -2.3491 -0.4618
  146MOL0     H19237  -2.437   2.173   3.998  0.0519  1.0061 -0.7617
  146MOL0     H19238  -2.622   2.005   4.095  4.0245  0.3329 -0.7656
  146MOL0     H19239  -2.610   2.175   4.120  2.0914  0.4128  0.7197
  146MOL0     H19240  -2.836   2.105   4.223  0.7156  0.2487  0.0784
  146MOL0     H19241  -2.732   2.176   4.336 -0.3235  0.8249 -1.1339
  146MOL0     H19242  -2.637   1.954   4.412  0.9672 -1.4347 -0.0199
  146MOL0     H19243  -2.748   1.864   4.301 -0.9601  1.2719 -0.9405
  146MOL0     H19244  -2.934   1.964   4.403  0.3298 -0.4438 -0.2184
  146MOL0     H19245  -2.862   1.856   4.503 -0.7345 -0.4829 -0.1777
  146MOL0     H19246  -2.921   2.042   4.638  0.3604 -1.9125 -0.6404
  146MOL0     H19247  -2.873   2.158   4.513  0.4631 -1.3419 -2.6008
  146MOL0     H19248  -2.646   2.131   4.559  1.2083 -0.6418  0.1772
  146MOL0     H19249  -2.676   2.003   4.679  1.7467  1.1450  0.0479
  146MOL0     H19250  -2.772   2.292   4.723  3.5491  0.3149 -0.6244
  146MOL0     H19251  -2.817   2.152   4.822  1.6616 -0.2073  2.3127
  146MOL0     H19252  -2.552   2.288   4.755 -1.4211 -0.3195 -1.7940
  146MOL0     H19253  -2.557   2.131   4.850  2.6741  0.4284 -2.2555
  146MOL0     H19254  -2.289   1.991   4.358  1.9959  2.5225  0.8113
  146MOL0     H19255  -2.061   1.976   4.255 -3.8934 -4.0171  1.7952
  146MOL0     H19256  -1.758   2.135   4.083 -2.3608 -0.1018 -1.1680
  146MOL0     H19257  -1.524   2.144   4.046  0.5125 -1.0058  0.0495
  146MOL0     H19258   0.266   1.533   4.469  2.8164  2.8714  0.5873
  146MOL0     H19259   0.491   1.455   4.528 -0.4442 -1.2025 -0.1137
  146MOL0     H19260   0.806   1.063   4.402 -3.8877  2.5446 -0.6114
  146MOL0     H19261   1.035   0.986   4.444 -4.2101 -0.1396  0.3684
  146MOL0     H19262   1.246   0.968   4.404 -2.8253  2.4358  0.4645
  146MOL0     H19263   1.236   0.969   4.581 -0.0442 -0.0559  0.9505
  146MOL0     H19264   1.480   1.025   4.409  0.8254  1.0715  0.5782
  146MOL0     H19265   1.488   1.040   4.583 -0.8308  3.4234 -2.3302
  146MOL0     H19266   1.458   0.788   4.411  5.6426  2.3300 -3.1130
  146MOL0     H19267   1.396   0.790   4.578  2.0571  0.8449  2.3224
  146MOL0     H19268   1.634   0.866   4.649 -3.4236 -1.7284  1.9915
  146MOL0     H19269   1.601   0.700   4.601 -2.1972 -0.8532 -0.6035
  146MOL0     H19270   1.887   0.843   4.321  1.0676 -1.1845 -1.1894
  146MOL0     H19271   1.181   1.384   4.439 -1.6235  1.8429  3.4342
  146MOL0     H19272   0.957   1.465   4.402 -1.6609  0.0904  1.2416
  147MOL0     O19273   4.088   0.321   2.382  0.0964 -0.0930 -0.3096
  147MOL0     C19274   4.161   0.377   2.468  0.5300 -0.9657 -0.2480
  147MOL0     O19275   4.117   0.414   2.587 -0.3805  0.0124 -0.1063
  147MOL0     C19276   3.991   0.371   2.627 -0.1368 -0.3806  0.4793
  147MOL0     C19277   3.975   0.240   2.676 -0.2769  0.6413  1.0884
  147MOL0     C19278   3.850   0.183   2.715 -0.8111 -0.0068  0.4001
  147MOL0     C19279   3.743   0.267   2.701  0.2229 -0.6263 -0.2571
  147MOL0     O19280   3.613   0.237   2.733  0.7523 -0.8366  0.1672
  147MOL0     C19281   3.559   0.107   2.710 -0.0497 -0.2633  0.1435
  147MOL0     C19282   3.407   0.102   2.696  0.3912 -0.3333  0.3814
  147MOL0     C19283   3.368  -0.047   2.664  0.0835  0.1731  0.6933
  147MOL0     C19284   3.215  -0.058   2.664 -0.1318 -0.3062 -0.2769
  147MOL0     C19285   3.173  -0.205   2.623  0.5107  0.1607 -0.7879
  147MOL0     C19286   3.053  -0.218   2.524 -0.2940 -0.1175  0.6448
  147MOL0     C19287   2.915  -0.187   2.591 -0.4646 -0.3867 -0.6959
  147MOL0     C19288   2.865  -0.282   2.693  0.2156  0.5938 -0.4401
  147MOL0     N19289   2.864  -0.427   2.667  0.0918  0.1014  0.2705
  147MOL0     C19290   2.962  -0.514   2.711  0.7386 -0.8272  0.6365
  147MOL0     C19291   2.927  -0.634   2.656 -0.5771 -0.0497 -0.0860
  147MOL0     C19292   3.009  -0.762   2.666 -0.7392 -0.3163 -0.0106
  147MOL0     C19293   3.169  -0.728   2.666 -0.7285  0.9724 -0.3108
  147MOL0     C19294   3.248  -0.860   2.668 -0.4097 -0.5222  0.1338
  147MOL0     C19295   3.399  -0.842   2.711  0.4809  0.4254 -0.8342
  147MOL0     O19296   3.457  -0.748   2.628 -0.6565  0.4520  0.0337
  147MOL0     C19297   3.595  -0.744   2.625  0.0675  0.1361  0.1826
  147MOL0     C19298   3.675  -0.791   2.727  0.2487 -1.0442 -0.6531
  147MOL0     C19299   3.811  -0.770   2.714 -1.6821  0.2805  0.1453
  147MOL0     C19300   3.876  -0.713   2.603 -1.1839 -0.2425 -0.6493
  147MOL0     C19301   4.027  -0.704   2.598 -0.1407  0.8034  0.6957
  147MOL0     O19302   4.071  -0.638   2.480 -0.0016 -0.3291  0.8047
  147MOL0     C19303   4.206  -0.618   2.456 -0.7596 -0.5280 -0.5412
  147MOL0     C19304   4.309  -0.710   2.487  0.3014 -0.7544 -0.4802
  147MOL0     C19305   4.447  -0.679   2.465 -0.3489  0.4098 -0.4066
  147MOL0     C19306   4.484  -0.560   2.403 -0.0715 -0.7662 -0.6075
  147MOL0     O19307   4.610  -0.523   2.360 -0.4659 -0.1873  0.5238
  147MOL0     C19308   4.703  -0.624   2.328 -0.2645 -0.0601  0.6981
  147MOL0     C19309   4.815  -0.653   2.428 -0.2064  0.3577 -0.5343
  147MOL0     C19310   4.875  -0.523   2.482  0.2635  0.7557  0.4554
  147MOL0     C19311   4.999  -0.570   2.561 -1.1601  0.1249  0.6400
  147MOL0     C19312   5.028  -0.457   2.659 -0.8957  0.1736 -0.2628
  147MOL0     C19313   5.072  -0.326   2.595 -0.8665  0.1366 -0.2292
  147MOL0     C19314   5.133  -0.238   2.697  0.0540 -0.1605  0.0095
  147MOL0     C19315   5.168  -0.093   2.638 -0.0545  0.1528  0.3033
  147MOL0    Cl19316   5.226   0.009   2.778  0.1278  0.1240 -0.4562
  147MOL0     C19317   4.383  -0.476   2.363  0.2033  0.0427  0.1026
  147MOL0     C19318   4.251  -0.505   2.383 -0.7126 -0.0438 -0.5273
  147MOL0     O19319   4.099  -0.761   2.679 -0.8575 -0.4618 -0.1471
  147MOL0     C19320   3.793  -0.667   2.507  0.8866 -1.1238  0.0138
  147MOL0     C19321   3.654  -0.679   2.514 -0.3964  0.0315  0.6687
  147MOL0     N19322   2.809  -0.621   2.585 -0.1205 -0.0826 -0.3762
  147MOL0     N19323   2.770  -0.495   2.599  0.6367  0.2038 -0.0031
  147MOL0     C19324   3.763   0.402   2.663 -0.0079 -0.3754  0.6450
  147MOL0     C19325   3.881   0.453   2.617 -0.2666  0.6373  0.6166
  147MOL0     C19326   4.287   0.416   2.423 -0.0497 -0.2095 -0.0564
  147MOL0     C19327   4.372   0.480   2.508 -0.3483 -0.3306  0.3055
  147MOL0     C19328   4.505   0.511   2.472 -0.0779  0.1673 -0.6097
  147MOL0     C19329   4.548   0.506   2.338  0.2707 -0.1367 -0.7405
  147MOL0     O19330   4.680   0.533   2.300 -0.5140  0.9042  0.9681
  147MOL0     C19331   4.754   0.609   2.399 -0.2750 -0.7039 -0.2844
  147MOL0     C19332   4.873   0.650   2.328 -0.4036 -0.3211 -0.9756
  147MOL0     C19333   4.957   0.767   2.402 -0.4240 -0.5922 -0.3688
  147MOL0     C19334   5.081   0.820   2.329 -0.4865  0.7812  0.3886
  147MOL0     C19335   5.188   0.724   2.313 -0.4353  0.6607  0.7506
  147MOL0     C19336   5.278   0.645   2.306  0.5340  0.1898  0.0688
  147MOL0     C19337   4.451   0.457   2.250  0.6862  0.4695  0.0276
  147MOL0     C19338   4.327   0.409   2.290  0.2359  0.3482  0.6256
  147MOL0     H19339   4.059   0.172   2.677  1.3837  2.5801  3.0034
  147MOL0     H19340   3.837   0.082   2.755 -1.1745  0.6515  2.0410
  147MOL0     H19341   3.604   0.051   2.792  1.7751 -0.9608 -1.2610
  147MOL0     H19342   3.600   0.060   2.620 -2.7693 -2.0702 -0.2703
  147MOL0     H19343   3.391   0.167   2.609 -1.6504 -0.2874  0.7441
  147MOL0     H19344   3.349   0.150   2.775 -1.3336 -2.5507  0.5449
  147MOL0     H19345   3.415  -0.119   2.731 -0.1924 -2.9699 -2.2052
  147MOL0     H19346   3.406  -0.063   2.563 -0.3170  3.6485 -0.1431
  147MOL0     H19347   3.180  -0.047   2.767  0.1225 -3.0429  0.1904
  147MOL0     H19348   3.160   0.017   2.606  1.8913  0.8875 -0.7319
  147MOL0     H19349   3.163  -0.255   2.720 -0.0316 -1.3397 -1.5832
  147MOL0     H19350   3.256  -0.257   2.575  0.7548 -1.7726  1.5476
  147MOL0     H19351   3.045  -0.323   2.495 -0.7560 -1.0663  3.8218
  147MOL0     H19352   3.070  -0.162   2.431 -2.2471 -1.6079 -0.7102
  147MOL0     H19353   2.906  -0.088   2.636  0.1037  0.0913 -1.5995
  147MOL0     H19354   2.831  -0.183   2.521 -1.2827  0.3826  0.2975
  147MOL0     H19355   2.761  -0.247   2.701  0.3101  1.5458 -2.7729
  147MOL0     H19356   2.909  -0.266   2.792  0.1478  0.9561 -0.4664
  147MOL0     H19357   3.049  -0.484   2.769  0.2667 -0.9797  1.4419
  147MOL0     H19358   2.998  -0.822   2.575  3.5374  1.6139 -2.1392
  147MOL0     H19359   2.980  -0.810   2.760 -0.0957  1.1575  0.9933
  147MOL0     H19360   3.179  -0.684   2.766  0.1328  1.6689 -0.6825
  147MOL0     H19361   3.200  -0.662   2.584  1.2319  0.1922 -0.2639
  147MOL0     H19362   3.204  -0.923   2.746 -1.1970  0.1501  0.2453
  147MOL0     H19363   3.242  -0.901   2.567 -4.3000  0.3644 -0.1327
  147MOL0     H19364   3.447  -0.939   2.727 -1.7404 -0.5328  0.3421
  147MOL0     H19365   3.394  -0.805   2.814  0.6436  0.8991 -0.9891
  147MOL0     H19366   3.631  -0.822   2.821 -0.2723 -1.2170 -0.9444
  147MOL0     H19367   3.886  -0.801   2.786 -1.4014 -0.3115 -0.3864
  147MOL0     H19368   4.285  -0.807   2.530 -1.0617  0.1934  1.0186
  147MOL0     H19369   4.514  -0.754   2.507 -2.5802 -1.6678 -0.3751
  147MOL0     H19370   4.768  -0.582   2.250 -0.3398  1.1242  1.2421
  147MOL0     H19371   4.659  -0.713   2.284 -1.1080  0.0693  1.2609
  147MOL0     H19372   4.888  -0.718   2.378 -0.8896 -0.7323 -0.1567
  147MOL0     H19373   4.781  -0.706   2.517  3.8016  1.3646  1.8762
  147MOL0     H19374   4.805  -0.478   2.552 -0.1039  0.2114  0.4429
  147MOL0     H19375   4.906  -0.465   2.394 -1.3600 -1.5958 -1.8257
  147MOL0     H19376   4.970  -0.666   2.603 -0.8029 -1.1681 -1.8757
  147MOL0     H19377   5.084  -0.577   2.493 -2.3151 -0.4395 -0.8077
  147MOL0     H19378   5.112  -0.498   2.715 -0.7285 -1.2757 -1.5106
  147MOL0     H19379   4.947  -0.450   2.733  1.1336  2.4141  1.9232
  147MOL0     H19380   4.987  -0.268   2.558 -1.1283 -0.5050 -0.6482
  147MOL0     H19381   5.149  -0.350   2.521  0.5809  2.3795  0.4285
  147MOL0     H19382   5.056  -0.222   2.773  1.7016  0.8995  1.5154
  147MOL0     H19383   5.217  -0.283   2.751  0.8950  1.9552  0.5409
  147MOL0     H19384   5.084  -0.045   2.588 -0.1938 -0.5574 -0.1628
  147MOL0     H19385   5.239  -0.092   2.555  0.2004 -0.1897  0.5134
  147MOL0     H19386   4.405  -0.375   2.331  1.6780  0.0652  1.1029
  147MOL0     H19387   4.180  -0.426   2.360  1.6669  2.3687 -0.0584
  147MOL0     H19388   3.824  -0.617   2.416 -2.7016 -0.2679 -0.8622
  147MOL0     H19389   3.591  -0.646   2.433  1.2266  0.2887 -0.5502
  147MOL0     H19390   3.678   0.470   2.666  0.2181  0.1004 -1.6334
  147MOL0     H19391   3.896   0.556   2.585  0.0552  0.3660 -0.1050
  147MOL0     H19392   4.347   0.498   2.612 -3.0336 -3.7591  0.4264
  147MOL0     H19393   4.567   0.538   2.557  0.3220  2.6752 -1.6120
  147MOL0     H19394   4.783   0.542   2.480 -0.8318  0.5421  0.9780
  147MOL0     H19395   4.694   0.685   2.449  1.3213  0.5147 -0.1167
  147MOL0     H19396   4.944   0.568   2.315  3.3611  2.0983  2.1814
  147MOL0     H19397   4.841   0.683   2.229 -0.9201 -0.5522 -0.8907
  147MOL0     H19398   4.992   0.740   2.502  4.1749 -0.5975 -1.7351
  147MOL0     H19399   4.892   0.852   2.421  1.3393  0.6409  0.3684
  147MOL0     H19400   5.060   0.856   2.228  1.7948 -1.0610 -0.8339
  147MOL0     H19401   5.121   0.910   2.377  0.9933 -0.6678  2.0176
  147MOL0     H19402   5.344   0.562   2.312 -0.2011 -0.3014  3.6198
  147MOL0     H19403   4.485   0.444   2.147  0.1831  0.2709 -0.1138
  147MOL0     H19404   4.260   0.367   2.215  1.5658 -0.5424 -0.1057
  148MOL0     O19405   1.358   5.239   9.956  0.1171  0.4792 -0.6089
  148MOL0     C19406   1.319   5.319  10.044 -0.2001  0.1189 -0.7337
  148MOL0     O19407   1.186   5.322  10.100 -0.2723 -0.0085  0.1555
  148MOL0     C19408   1.096   5.242  10.036 -0.0438 -0.0949  0.6995
  148MOL0     C19409   1.031   5.143  10.116 -0.6044 -0.2301  0.3714
  148MOL0     C19410   0.940   5.054  10.062 -0.2138 -0.2729 -0.0479
  148MOL0     C19411   0.908   5.059   9.923 -0.2778  0.1754  0.1399
  148MOL0     O19412   0.820   4.962   9.884 -0.0251 -0.2100 -0.3411
  148MOL0     C19413   0.713   5.014   9.802 -0.1077 -0.1624  0.6810
  148MOL0     C19414   0.598   4.914   9.814 -0.1716 -0.2435 -0.5371
  148MOL0     C19415   0.461   4.954   9.745 -0.5654 -0.4545 -0.8585
  148MOL0     C19416   0.346   4.858   9.783  0.0382  0.1039 -0.6508
  148MOL0     C19417   0.206   4.908   9.738 -0.2224  0.2371 -0.0157
  148MOL0     C19418   0.092   4.807   9.784 -0.1853 -0.0937 -0.3942
  148MOL0     C19419  -0.046   4.866   9.791 -0.2573  0.4578 -0.7195
  148MOL0     C19420  -0.163   4.770   9.812  0.3263 -0.0661 -0.9632
  148MOL0     N19421  -0.289   4.841   9.828  0.2981  0.3703 -0.0272
  148MOL0     C19422  -0.327   4.916   9.933  0.5767  0.0068 -0.1511
  148MOL0     C19423  -0.457   4.952   9.899 -0.0295  0.2557 -0.5260
  148MOL0     C19424  -0.555   5.024   9.984  1.2415 -0.9023 -0.2042
  148MOL0     C19425  -0.659   5.107   9.883 -1.5280  0.1965  0.1248
  148MOL0     C19426  -0.753   5.206   9.965  0.3707 -0.0628  0.5317
  148MOL0     C19427  -0.898   5.202   9.910 -1.4357  0.1519 -0.3503
  148MOL0     O19428  -0.970   5.104   9.991  0.1090  0.2670  0.5872
  148MOL0     C19429  -1.102   5.122   9.995 -0.6909 -0.0028  0.6653
  148MOL0     C19430  -1.187   5.060   9.902 -0.0412 -1.1357 -0.1113
  148MOL0     C19431  -1.325   5.078   9.917 -0.3282 -0.9419  0.5500
  148MOL0     C19432  -1.371   5.155  10.028  0.2313  0.5828  0.1829
  148MOL0     C19433  -1.513   5.178  10.032 -0.2299  0.7860  0.1834
  148MOL0     O19434  -1.560   5.272  10.123  0.8066  0.1648 -0.1627
  148MOL0     C19435  -1.696   5.290  10.121  0.1156 -0.5605  0.6128
  148MOL0     C19436  -1.751   5.386  10.026  0.9584  0.2893 -0.3820
  148MOL0     C19437  -1.890   5.402  10.019  0.6119 -0.0397  0.1164
  148MOL0     C19438  -1.968   5.332  10.105  0.0359 -0.2530  0.6844
  148MOL0     O19439  -2.106   5.343  10.100 -0.2348  0.6874 -0.4080
  148MOL0     C19440  -2.188   5.385   9.994 -0.3424 -0.0049  1.1268
  148MOL0     C19441  -2.335   5.366  10.033  0.3313 -0.3542 -0.5211
  148MOL0     C19442  -2.417   5.392   9.917 -0.1846 -0.0545 -0.1542
  148MOL0     C19443  -2.566   5.367   9.938  0.2017  0.4329 -0.3627
  148MOL0     C19444  -2.644   5.377   9.806 -0.2361 -0.2258  0.0841
  148MOL0     C19445  -2.794   5.368   9.836  0.0560  0.0126  0.6401
  148MOL0     C19446  -2.891   5.424   9.730  0.2415 -0.1697  0.5040
  148MOL0     C19447  -3.037   5.382   9.757  0.3328 -0.3926 -0.3815
  148MOL0    Cl19448  -3.130   5.436   9.608 -0.1429 -0.1827 -0.3565
  148MOL0     C19449  -1.917   5.242  10.195 -0.0550  0.1764 -0.2362
  148MOL0     C19450  -1.782   5.217  10.202 -0.0864  0.0153  0.1287
  148MOL0     O19451  -1.586   5.102   9.968  0.0831  0.3603  0.3111
  148MOL0     C19452  -1.282   5.224  10.111  0.7517 -0.2266 -0.1271
  148MOL0     C19453  -1.145   5.204  10.088 -0.0321 -0.0948 -0.9691
  148MOL0     N19454  -0.483   4.907   9.768 -0.1923 -0.1430 -0.3100
  148MOL0     N19455  -0.387   4.826   9.742  0.2470  0.0862  0.7880
  148MOL0     C19456   0.974   5.150   9.841 -0.9094 -0.2444 -0.1216
  148MOL0     C19457   1.065   5.249   9.899 -0.5768 -0.3864  0.0075
  148MOL0     C19458   1.419   5.417  10.087  0.7430 -0.2857  0.1946
  148MOL0     C19459   1.390   5.506  10.189  0.2302  0.8194 -1.4807
  148MOL0     C19460   1.480   5.610  10.232 -0.0557  1.2236  0.0537
  148MOL0     C19461   1.615   5.614  10.173  0.2242  0.0052 -0.7273
  148MOL0     O19462   1.714   5.687  10.228  0.2089 -0.1350  0.1378
  148MOL0     C19463   1.688   5.771  10.338 -0.1379  0.5207  0.1945
  148MOL0     C19464   1.793   5.878  10.364  0.6990 -1.2876 -0.4191
  148MOL0     C19465   1.937   5.830  10.368 -0.0076  0.4556 -0.3025
  148MOL0     C19466   1.985   5.770  10.489  0.0984 -0.3172 -0.3530
  148MOL0     C19467   2.135   5.775  10.493 -0.1870 -0.3704  0.2151
  148MOL0     C19468   2.256   5.788  10.495 -0.0920  0.1867  0.0642
  148MOL0     C19469   1.640   5.526  10.067 -0.2135  0.0441 -0.3917
  148MOL0     C19470   1.547   5.431  10.025 -0.4330  0.9535  0.3370
  148MOL0     H19471   1.066   5.119  10.216  0.7113  3.1037  0.8541
  148MOL0     H19472   0.908   4.966  10.115  1.7619 -1.7091 -1.1000
  148MOL0     H19473   0.749   5.033   9.700 -0.4319  2.9232  1.0565
  148MOL0     H19474   0.682   5.107   9.849 -0.7991 -0.5622  1.0386
  148MOL0     H19475   0.571   4.900   9.919 -1.7354  3.5196 -0.2925
  148MOL0     H19476   0.639   4.820   9.776  0.3050 -0.1114 -0.3597
  148MOL0     H19477   0.485   4.975   9.640  0.8123  0.1312 -0.4524
  148MOL0     H19478   0.425   5.050   9.783  2.7182  0.7861 -0.5542
  148MOL0     H19479   0.361   4.763   9.731 -0.4084 -0.4731  0.2569
  148MOL0     H19480   0.342   4.842   9.891 -0.4380 -0.5248 -0.7568
  148MOL0     H19481   0.201   4.931   9.631  1.4395 -1.6092 -0.5518
  148MOL0     H19482   0.192   5.003   9.789  1.5886 -0.0534  1.1129
  148MOL0     H19483   0.109   4.777   9.887 -4.2292  0.4134  0.5944
  148MOL0     H19484   0.088   4.723   9.713  1.0264  0.0381 -0.6529
  148MOL0     H19485  -0.053   4.943   9.869 -1.0309  0.0585 -0.3843
  148MOL0     H19486  -0.065   4.918   9.697  3.1978  0.7436 -1.3891
  148MOL0     H19487  -0.145   4.711   9.902 -4.1719 -2.1181 -1.1372
  148MOL0     H19488  -0.167   4.697   9.730  2.0806 -0.4298 -0.7755
  148MOL0     H19489  -0.290   4.916  10.035  0.2016 -0.3185 -0.0106
  148MOL0     H19490  -0.506   5.094  10.053  1.1310  0.7383 -1.7024
  148MOL0     H19491  -0.614   4.949  10.037 -2.7430  1.7172 -0.5143
  148MOL0     H19492  -0.730   5.030   9.849 -3.0140  1.1064  1.0462
  148MOL0     H19493  -0.614   5.164   9.801 -3.7606  1.1581 -0.5080
  148MOL0     H19494  -0.753   5.177  10.070  1.5757  0.4515  0.6931
  148MOL0     H19495  -0.707   5.305   9.963  0.2427  0.0266  1.7050
  148MOL0     H19496  -0.889   5.171   9.806  0.1486 -1.6358  0.2511
  148MOL0     H19497  -0.945   5.300   9.916 -2.2765 -0.1494 -1.6364
  148MOL0     H19498  -1.144   4.999   9.823  3.4582 -0.3338  0.9788
  148MOL0     H19499  -1.401   5.026   9.861 -0.2899  1.1642 -1.6490
  148MOL0     H19500  -1.693   5.441   9.952 -0.2063 -1.4116 -2.6956
  148MOL0     H19501  -1.924   5.478   9.950  0.1880 -2.7205 -2.8813
  148MOL0     H19502  -2.167   5.314   9.914  0.3176  1.2892  0.1254
  148MOL0     H19503  -2.170   5.488   9.960  0.4858  0.5454  3.0971
  148MOL0     H19504  -2.375   5.427  10.114  0.4518  1.3164 -1.6656
  148MOL0     H19505  -2.349   5.261  10.062  1.4816 -0.8681 -1.6835
  148MOL0     H19506  -2.383   5.320   9.841  2.0638 -1.2811  1.8902
  148MOL0     H19507  -2.407   5.495   9.881 -0.5768  0.9813  2.4921
  148MOL0     H19508  -2.587   5.264   9.969  0.5012  0.4082 -0.2324
  148MOL0     H19509  -2.599   5.432  10.019  0.4396  1.3643 -0.9920
  148MOL0     H19510  -2.613   5.293   9.743  2.6869  1.1465 -0.4588
  148MOL0     H19511  -2.624   5.476   9.765 -0.7766  0.1646  0.7430
  148MOL0     H19512  -2.809   5.437   9.920  0.8101 -1.4626  2.0350
  148MOL0     H19513  -2.820   5.266   9.865  1.7226 -0.7265 -0.3339
  148MOL0     H19514  -2.880   5.532   9.712  1.7513 -0.3471  0.2485
  148MOL0     H19515  -2.865   5.378   9.634  1.9201  1.7948 -0.0573
  148MOL0     H19516  -3.080   5.426   9.847  2.9085  2.4448 -0.3539
  148MOL0     H19517  -3.049   5.273   9.756 -0.0798 -0.3476 -1.3161
  148MOL0     H19518  -1.979   5.177  10.256 -0.6006 -0.9458 -1.9046
  148MOL0     H19519  -1.741   5.148  10.276  1.8263  0.4213 -0.4899
  148MOL0     H19520  -1.314   5.286  10.195  0.1728 -0.5560 -0.0986
  148MOL0     H19521  -1.077   5.254  10.156 -1.6570 -0.9833  1.4501
  148MOL0     H19522   0.947   5.138   9.737 -0.3341  1.5738 -0.5219
  148MOL0     H19523   1.110   5.335   9.850 -3.8454  3.5561  3.1670
  148MOL0     H19524   1.294   5.514  10.239  1.7272  1.7794  1.4485
  148MOL0     H19525   1.444   5.667  10.316 -2.4976  1.5454 -1.1158
  148MOL0     H19526   1.673   5.698  10.418  0.8611 -0.5816 -0.5930
  148MOL0     H19527   1.592   5.824  10.328  0.1552  1.3114  1.3435
  148MOL0     H19528   1.799   5.946  10.278  1.6108 -1.6165 -0.6262
  148MOL0     H19529   1.769   5.943  10.448  3.8538  1.5446 -1.4741
  148MOL0     H19530   1.997   5.916  10.339  4.2246 -2.1025  0.0637
  148MOL0     H19531   1.940   5.755  10.288  1.0898  1.6877 -1.4621
  148MOL0     H19532   1.947   5.834  10.570 -0.8635 -0.6900 -0.5019
  148MOL0     H19533   1.947   5.669  10.504  0.3779 -0.4978 -0.8286
  148MOL0     H19534   2.362   5.800  10.488 -0.0347 -0.6057 -0.5333
  148MOL0     H19535   1.738   5.526  10.020 -0.9069 -2.1775 -2.0042
  148MOL0     H19536   1.565   5.361   9.943  0.9041  0.3273  1.1170
  149MOL0     O19537   9.480   4.554   7.389 -0.5071 -0.7184  0.3834
  149MOL0     C19538   9.542   4.461   7.346 -0.8042 -0.1498 -0.0037
  149MOL0     O19539   9.494   4.332   7.332 -0.1598 -0.0748 -0.5720
  149MOL0     C19540   9.353   4.319   7.314 -1.1939 -0.3145 -0.1241
  149MOL0     C19541   9.258   4.304   7.407  0.2236 -0.0529 -0.4125
  149MOL0     C19542   9.134   4.258   7.376  0.2904  0.4452 -0.6921
  149MOL0     C19543   9.096   4.235   7.248 -0.5328  0.0681  0.6712
  149MOL0     O19544   8.967   4.212   7.205 -0.1905 -0.1017 -0.5200
  149MOL0     C19545   8.909   4.090   7.262 -0.2521 -0.9431 -1.2335
  149MOL0     C19546   8.765   4.062   7.219 -0.4751  0.4401 -0.2446
  149MOL0     C19547   8.702   3.944   7.285  0.1619 -0.2922 -0.3807
  149MOL0     C19548   8.553   3.943   7.238 -1.4532 -0.4459  0.9865
  149MOL0     C19549   8.478   3.829   7.292  0.2962 -0.0949  0.1638
  149MOL0     C19550   8.466   3.795   7.446 -0.0175 -0.1297 -0.1383
  149MOL0     C19551   8.374   3.675   7.473  0.1511 -0.3696  0.4910
  149MOL0     C19552   8.234   3.677   7.404 -0.2019  1.1292  0.4631
  149MOL0     N19553   8.147   3.572   7.464 -0.4242  0.3104 -0.0455
  149MOL0     C19554   8.077   3.589   7.582 -0.6870 -0.5772  1.0407
  149MOL0     C19555   7.987   3.487   7.572  0.6461 -0.2496 -0.3300
  149MOL0     C19556   7.887   3.463   7.688 -0.0248  0.5596  0.0630
  149MOL0     C19557   7.736   3.480   7.644 -0.1974  0.0614 -0.1776
  149MOL0     C19558   7.662   3.506   7.775 -0.9095  0.0783 -0.7604
  149MOL0     C19559   7.513   3.484   7.739 -1.1378 -0.1011 -0.3309
  149MOL0     O19560   7.435   3.537   7.845 -0.7972 -0.5959  0.5366
  149MOL0     C19561   7.299   3.504   7.839  0.3058 -0.0097  0.1880
  149MOL0     C19562   7.213   3.565   7.930 -0.7460  0.2347  0.7708
  149MOL0     C19563   7.078   3.538   7.932 -0.0324 -0.0485 -0.9761
  149MOL0     C19564   7.018   3.440   7.849 -0.7020 -0.5188 -0.0655
  149MOL0     C19565   6.871   3.407   7.865 -1.0923 -0.4844 -0.1290
  149MOL0     O19566   6.816   3.290   7.813 -1.1356 -1.4884 -0.7687
  149MOL0     C19567   6.685   3.293   7.777  0.2043 -0.0463 -0.4817
  149MOL0     C19568   6.606   3.181   7.803 -0.8217 -0.2217  0.5262
  149MOL0     C19569   6.470   3.173   7.761 -0.9160 -0.3138  0.2996
  149MOL0     C19570   6.406   3.286   7.706 -0.3445  0.0013  0.0011
  149MOL0     O19571   6.272   3.295   7.692  0.9020 -0.1777  0.1743
  149MOL0     C19572   6.181   3.201   7.760 -0.4094  0.7749  0.6465
  149MOL0     C19573   6.052   3.287   7.768 -0.0822  0.0851  0.5066
  149MOL0     C19574   5.967   3.242   7.883  0.4675 -0.8998 -0.6009
  149MOL0     C19575   6.017   3.298   8.021  0.1298 -0.6928 -0.5224
  149MOL0     C19576   5.922   3.247   8.129  0.2879 -0.8509  0.1645
  149MOL0     C19577   5.957   3.314   8.265 -0.0995 -0.9886  0.4497
  149MOL0     C19578   5.918   3.468   8.277 -0.7763 -0.4670 -0.1605
  149MOL0     C19579   5.941   3.507   8.411  0.8818 -1.0156 -0.6315
  149MOL0    Cl19580   6.097   3.452   8.468  0.1851 -0.0316  0.3873
  149MOL0     C19581   6.480   3.399   7.686 -0.3982  0.0337 -0.0902
  149MOL0     C19582   6.616   3.402   7.722  0.6024 -1.0583 -0.1820
  149MOL0     O19583   6.809   3.479   7.943 -0.9316 -0.1837 -0.3982
  149MOL0     C19584   7.100   3.380   7.760  0.6944 -0.4137  0.6428
  149MOL0     C19585   7.231   3.415   7.752 -0.2730  0.0274 -0.5337
  149MOL0     N19586   8.004   3.408   7.459  0.3646 -0.5532  0.8041
  149MOL0     N19587   8.103   3.465   7.392 -0.0014 -0.2184  0.1554
  149MOL0     C19588   9.192   4.256   7.146 -0.6416 -0.2082 -0.1272
  149MOL0     C19589   9.326   4.296   7.181  1.0210 -0.7875  0.0486
  149MOL0     C19590   9.690   4.483   7.333  1.0870 -1.3037  0.1827
  149MOL0     C19591   9.746   4.614   7.317 -0.4495 -0.1603 -0.8466
  149MOL0     C19592   9.875   4.635   7.314 -0.1512  0.8067  0.0569
  149MOL0     C19593   9.964   4.522   7.326  0.2581 -1.3228  0.0548
  149MOL0     O19594  10.100   4.539   7.320 -0.6842  1.0716  0.6043
  149MOL0     C19595  10.149   4.672   7.307 -0.1128 -1.1337 -0.4430
  149MOL0     C19596  10.301   4.666   7.277  0.1519 -0.6181 -0.8411
  149MOL0     C19597  10.380   4.576   7.355 -0.5762 -0.4033 -0.4946
  149MOL0     C19598  10.523   4.624   7.362 -0.4853 -0.7098  0.2806
  149MOL0     C19599  10.595   4.632   7.235  1.2096  0.3784 -0.4040
  149MOL0     C19600  10.680   4.641   7.150 -0.2926  0.2023 -0.1722
  149MOL0     C19601   9.912   4.395   7.340  0.0237 -0.0360  0.0463
  149MOL0     C19602   9.767   4.369   7.328  0.0331  0.0240 -1.2882
  149MOL0     H19603   9.276   4.333   7.509  1.1331  0.1157 -0.6100
  149MOL0     H19604   9.048   4.248   7.442  0.1634  2.0850 -0.5755
  149MOL0     H19605   8.907   4.100   7.371 -1.4904 -0.6170 -1.2696
  149MOL0     H19606   8.966   4.002   7.232 -1.8641 -1.5462 -2.7639
  149MOL0     H19607   8.773   4.048   7.111  4.2937 -2.0086  0.1866
  149MOL0     H19608   8.706   4.151   7.245 -0.6558 -0.1870  1.6371
  149MOL0     H19609   8.701   3.948   7.394 -1.3376 -1.2303 -0.3275
  149MOL0     H19610   8.738   3.848   7.248 -3.1062 -1.5785 -0.5922
  149MOL0     H19611   8.507   4.037   7.271  0.4295  0.6069  0.7435
  149MOL0     H19612   8.550   3.931   7.129 -2.2657 -2.0336  1.1607
  149MOL0     H19613   8.511   3.734   7.249  1.9115  0.5117  0.0290
  149MOL0     H19614   8.373   3.848   7.266  0.0184  0.5692  1.6331
  149MOL0     H19615   8.426   3.877   7.507  3.3009  0.3686  1.5732
  149MOL0     H19616   8.560   3.785   7.500  0.5839  0.3652 -1.0866
  149MOL0     H19617   8.427   3.583   7.449 -0.3242 -0.3645 -0.6201
  149MOL0     H19618   8.351   3.684   7.580 -1.3064  3.4517  0.0199
  149MOL0     H19619   8.235   3.658   7.296  0.4511  2.3334  0.2471
  149MOL0     H19620   8.188   3.775   7.419 -0.4891  1.1674 -0.6119
  149MOL0     H19621   8.088   3.668   7.655  2.0456  0.7267 -0.5982
  149MOL0     H19622   7.914   3.530   7.770  2.5799 -2.6252  2.0964
  149MOL0     H19623   7.907   3.360   7.720 -1.7660  0.0551 -0.3755
  149MOL0     H19624   7.713   3.387   7.590  0.7495  1.3199 -2.9453
  149MOL0     H19625   7.731   3.565   7.575 -0.2703 -1.2691 -1.8793
  149MOL0     H19626   7.691   3.453   7.866 -0.9381  1.2485 -0.0395
  149MOL0     H19627   7.688   3.607   7.808 -3.3869  0.7886 -0.7176
  149MOL0     H19628   7.492   3.377   7.731  1.1573 -0.4744 -3.3957
  149MOL0     H19629   7.509   3.528   7.638  2.1909 -0.3538 -0.7020
  149MOL0     H19630   7.258   3.628   8.005 -2.5360  0.5225  1.6629
  149MOL0     H19631   7.027   3.584   8.015  1.9667 -2.7732  1.9919
  149MOL0     H19632   6.644   3.104   7.869  1.5270  0.0101 -0.4634
  149MOL0     H19633   6.412   3.083   7.779  1.4264 -1.9503  0.1104
  149MOL0     H19634   6.218   3.189   7.863 -0.8860  0.0176  0.7403
  149MOL0     H19635   6.172   3.105   7.708  3.0399  0.9330 -0.4969
  149MOL0     H19636   5.988   3.286   7.679 -1.7876 -0.9347  1.7076
  149MOL0     H19637   6.078   3.393   7.781 -0.2454  0.2446 -0.3655
  149MOL0     H19638   5.958   3.133   7.880  0.4445 -0.8836 -2.7274
  149MOL0     H19639   5.868   3.288   7.878  1.2319  1.6979  3.5230
  149MOL0     H19640   6.119   3.273   8.050 -0.4800 -0.7631  1.7166
  149MOL0     H19641   6.015   3.408   8.018  1.5752 -0.5215  2.0375
  149MOL0     H19642   5.916   3.138   8.133  2.4894 -1.0506 -0.2923
  149MOL0     H19643   5.822   3.289   8.117  0.5339 -0.8357 -2.5422
  149MOL0     H19644   6.063   3.291   8.278 -0.1167 -1.7328 -0.5755
  149MOL0     H19645   5.890   3.261   8.334 -1.3510  0.0390  0.0551
  149MOL0     H19646   5.978   3.527   8.207  1.1752 -1.4893  0.5530
  149MOL0     H19647   5.812   3.475   8.251 -0.4103 -0.2071 -1.6376
  149MOL0     H19648   5.869   3.456   8.475 -0.6046  0.7634 -0.8240
  149MOL0     H19649   5.925   3.615   8.413  0.2564 -1.1020  1.2215
  149MOL0     H19650   6.441   3.487   7.635 -0.8572  0.4796  0.9963
  149MOL0     H19651   6.659   3.501   7.714  1.2092 -1.2149  0.9714
  149MOL0     H19652   7.066   3.298   7.697 -0.1533  1.6747 -1.7822
  149MOL0     H19653   7.294   3.348   7.693  0.9380 -0.4947  1.2580
  149MOL0     H19654   9.167   4.227   7.045  1.4618  1.5100 -1.2240
  149MOL0     H19655   9.399   4.306   7.101  0.6544 -1.8057 -0.4298
  149MOL0     H19656   9.674   4.695   7.307  1.3916  2.1410  2.6075
  149MOL0     H19657   9.909   4.736   7.292  1.6198  0.8040  2.3734
  149MOL0     H19658  10.121   4.717   7.403  0.3775 -3.1991  0.7202
  149MOL0     H19659  10.103   4.732   7.228  2.8131  2.0646  0.0594
  149MOL0     H19660  10.298   4.635   7.172 -1.9067  4.7246 -2.7208
  149MOL0     H19661  10.346   4.766   7.276 -0.6771 -0.1644  1.1844
  149MOL0     H19662  10.380   4.476   7.312 -0.4082  0.2201 -2.0089
  149MOL0     H19663  10.334   4.570   7.454 -3.1918 -0.3664 -1.6270
  149MOL0     H19664  10.525   4.724   7.407  1.5301  0.3464 -1.9276
  149MOL0     H19665  10.577   4.559   7.432  0.0071  0.9948  1.5693
  149MOL0     H19666  10.751   4.633   7.070 -2.0580 -0.2887 -1.7873
  149MOL0     H19667   9.989   4.319   7.342 -0.6413 -0.7779 -1.1835
  149MOL0     H19668   9.741   4.265   7.339  3.4879 -1.0380 -1.9507
  150MOL0     O19669   9.278  10.364   9.501 -0.3315  0.3959  0.0723
  150MOL0     C19670   9.336  10.394   9.395 -0.8716 -1.0655  0.0362
  150MOL0     O19671   9.280  10.469   9.292 -0.3498  0.0982  0.0646
  150MOL0     C19672   9.161  10.536   9.308 -0.1904  1.1662  0.4405
  150MOL0     C19673   9.043  10.465   9.308  0.4416  0.2469 -1.0311
  150MOL0     C19674   8.920  10.530   9.328  0.2989  0.6314  0.6689
  150MOL0     C19675   8.911  10.667   9.350 -0.0962  0.3390 -0.0131
  150MOL0     O19676   8.797  10.745   9.356 -0.4291 -0.2770 -0.1932
  150MOL0     C19677   8.675  10.693   9.412 -0.2336 -0.1488  0.2869
  150MOL0     C19678   8.579  10.805   9.419  0.7690 -0.1496 -0.8679
  150MOL0     C19679   8.481  10.788   9.540 -0.3165  0.0828  0.0787
  150MOL0     C19680   8.356  10.862   9.523  0.1785  0.3900 -0.3276
  150MOL0     C19681   8.354  10.987   9.611 -0.5988  0.8020 -0.1645
  150MOL0     C19682   8.222  11.020   9.670  0.3820 -1.3347  0.3149
  150MOL0     C19683   8.136  11.097   9.569 -0.8746 -0.1969  0.3529
  150MOL0     C19684   7.987  11.115   9.608 -0.5419  0.1843  0.1875
  150MOL0     N19685   7.968  11.205   9.724 -0.1463 -0.6048  0.3213
  150MOL0     C19686   7.928  11.160   9.845  0.5191  0.6805  0.7918
  150MOL0     C19687   7.923  11.273   9.925 -0.4395 -0.0111 -0.7733
  150MOL0     C19688   7.868  11.285  10.065  0.0614 -0.6925 -0.5449
  150MOL0     C19689   7.709  11.318  10.067  0.2316 -0.0536  0.2700
  150MOL0     C19690   7.679  11.446   9.996  0.3896 -0.5281  0.4534
  150MOL0     C19691   7.543  11.502  10.045  0.2886  0.3189 -0.4090
  150MOL0     O19692   7.441  11.412  10.017  0.1577  0.4313  0.0054
  150MOL0     C19693   7.351  11.394  10.117  1.3899  0.1354 -0.0014
  150MOL0     C19694   7.229  11.362  10.061  0.5870 -0.2508 -0.1278
  150MOL0     C19695   7.116  11.343  10.134 -0.2010 -0.4525  0.4456
  150MOL0     C19696   7.130  11.343  10.279 -0.7174  0.5590  0.5555
  150MOL0     C19697   7.013  11.303  10.361 -0.2846 -0.2037 -0.2707
  150MOL0     O19698   6.885  11.306  10.301 -0.2463 -0.0395 -0.6808
  150MOL0     C19699   6.774  11.291  10.376 -0.0176 -0.4872 -0.0393
  150MOL0     C19700   6.709  11.165  10.396  0.2367 -0.6293  0.1832
  150MOL0     C19701   6.589  11.170  10.471 -0.0425  0.1231 -0.6618
  150MOL0     C19702   6.538  11.292  10.527 -0.8173 -0.0810 -0.1111
  150MOL0     O19703   6.426  11.316  10.612 -0.3065  0.0362  0.7833
  150MOL0     C19704   6.355  11.202  10.645 -0.3968 -0.6605  0.4267
  150MOL0     C19705   6.217  11.248  10.701 -1.1711 -0.2165  0.3205
  150MOL0     C19706   6.108  11.150  10.656 -0.2020 -1.2110  1.1365
  150MOL0     C19707   5.978  11.193  10.707 -0.0783  0.0596  0.8610
  150MOL0     C19708   5.875  11.093  10.652  0.1386  0.1002 -0.3234
  150MOL0     C19709   5.744  11.090  10.739 -0.3327 -0.2727  0.0618
  150MOL0     C19710   5.644  10.974  10.708  0.5849 -0.1789  0.1205
  150MOL0     C19711   5.643  10.864  10.811 -0.4054  0.1407 -0.2191
  150MOL0    Cl19712   5.809  10.786  10.816  0.1329 -0.1870 -0.0267
  150MOL0     C19713   6.616  11.404  10.516 -1.0209 -0.0953 -0.1647
  150MOL0     C19714   6.726  11.410  10.440 -0.1840 -0.0923 -0.3349
  150MOL0     O19715   7.034  11.304  10.480  0.7775 -0.4999 -0.2088
  150MOL0     C19716   7.264  11.370  10.332  0.6046 -0.7369  0.2247
  150MOL0     C19717   7.374  11.401  10.254 -0.5305  0.6084  0.6548
  150MOL0     N19718   7.960  11.383   9.851 -0.2400  1.0406  0.2030
  150MOL0     N19719   7.995  11.337   9.739 -0.2568  0.3317  0.1010
  150MOL0     C19720   9.031  10.744   9.348  0.3021  0.4227  0.6159
  150MOL0     C19721   9.158  10.676   9.326 -0.9899  0.0031 -0.7957
  150MOL0     C19722   9.475  10.352   9.378  0.5585 -0.4222  0.9844
  150MOL0     C19723   9.547  10.312   9.488  1.0129 -0.4431 -0.7289
  150MOL0     C19724   9.680  10.263   9.480  0.9632  0.0627 -0.3445
  150MOL0     C19725   9.738  10.259   9.351 -0.2449  0.0599 -0.6703
  150MOL0     O19726   9.868  10.222   9.333 -0.0658 -0.2256 -1.1533
  150MOL0     C19727   9.967  10.218   9.441 -0.4466 -0.0094 -0.2494
  150MOL0     C19728  10.109  10.202   9.381  0.9543 -0.2749 -0.5399
  150MOL0     C19729  10.210  10.137   9.480 -0.1221 -0.8563  0.1886
  150MOL0     C19730  10.327  10.065   9.422  0.0926 -0.7144  0.0723
  150MOL0     C19731  10.428  10.026   9.523  0.1066 -0.5382 -0.1048
  150MOL0     C19732  10.513  10.010   9.606  0.0742 -0.2027  0.8286
  150MOL0     C19733   9.662  10.303   9.247 -0.2121  0.1594  0.2448
  150MOL0     C19734   9.533  10.346   9.255  0.0459 -1.1859 -0.3856
  150MOL0     H19735   9.047  10.358   9.289 -1.2615 -0.6842  2.8883
  150MOL0     H19736   8.827  10.477   9.311  0.4421  1.0822 -1.7789
  150MOL0     H19737   8.699  10.658   9.512  0.5135 -1.6119 -0.3807
  150MOL0     H19738   8.627  10.614   9.353  0.5865  0.9519 -2.0021
  150MOL0     H19739   8.520  10.811   9.328 -2.8309 -1.6793  1.1383
  150MOL0     H19740   8.637  10.897   9.424 -1.0571  1.0952 -1.5866
  150MOL0     H19741   8.540  10.812   9.628  1.4789 -3.0826 -0.1169
  150MOL0     H19742   8.452  10.682   9.537  0.7056 -0.2495  1.3568
  150MOL0     H19743   8.330  10.894   9.422  1.9132  1.9329 -0.3478
  150MOL0     H19744   8.281  10.798   9.570  1.5421 -0.8477  0.2640
  150MOL0     H19745   8.410  11.062   9.555  2.5000 -1.2168 -0.0320
  150MOL0     H19746   8.416  10.976   9.700 -2.0597  2.1705  1.0767
  150MOL0     H19747   8.241  11.102   9.740 -0.7651 -2.1284  1.6015
  150MOL0     H19748   8.171  10.931   9.707 -1.3920  0.2170  1.7689
  150MOL0     H19749   8.178  11.196   9.547  1.7521 -1.8906 -3.2841
  150MOL0     H19750   8.140  11.042   9.475 -3.0258  0.2044 -0.0288
  150MOL0     H19751   7.930  11.022   9.617 -0.7390 -0.0383 -2.4241
  150MOL0     H19752   7.946  11.175   9.526  1.5068  1.3097 -0.0947
  150MOL0     H19753   7.890  11.063   9.873 -0.4048  0.6982 -0.3127
  150MOL0     H19754   7.925  11.352  10.130 -0.6379 -0.8211  0.2270
  150MOL0     H19755   7.899  11.193  10.116 -0.0328 -2.0376 -2.7918
  150MOL0     H19756   7.687  11.332  10.173  1.4984  1.9902  0.3160
  150MOL0     H19757   7.657  11.235  10.019 -0.2897  0.0832  0.5874
  150MOL0     H19758   7.750  11.529  10.010 -0.5551  0.8696 -2.3320
  150MOL0     H19759   7.669  11.426   9.889 -0.5500  0.4998  0.3300
  150MOL0     H19760   7.539  11.596   9.990 -2.3233 -0.6137 -1.9669
  150MOL0     H19761   7.563  11.525  10.150  1.7748  3.3364 -1.2179
  150MOL0     H19762   7.227  11.346   9.954  1.8620 -0.5259 -0.1344
  150MOL0     H19763   7.024  11.329  10.079 -2.9478  2.9855  3.6458
  150MOL0     H19764   6.737  11.066  10.362  0.1038 -1.0419  1.2273
  150MOL0     H19765   6.543  11.072  10.479  1.0312 -0.4768 -1.5038
  150MOL0     H19766   6.416  11.157  10.724  2.3165 -0.0533 -1.1927
  150MOL0     H19767   6.339  11.139  10.557 -0.0446 -0.8803  0.5160
  150MOL0     H19768   6.192  11.348  10.664  0.0945 -0.4091 -1.1663
  150MOL0     H19769   6.225  11.253  10.810  0.0493  1.8500  0.1970
  150MOL0     H19770   6.146  11.051  10.683  0.0872 -2.5118 -3.2270
  150MOL0     H19771   6.104  11.161  10.547 -1.8403  3.1052  1.4732
  150MOL0     H19772   5.989  11.192  10.816  1.8994  2.7669  0.8028
  150MOL0     H19773   5.945  11.290  10.667 -0.6307 -0.2713  0.5014
  150MOL0     H19774   5.925  10.995  10.654  0.5200  0.2711 -1.1365
  150MOL0     H19775   5.852  11.118  10.548 -1.5214 -0.1870 -0.0542
  150MOL0     H19776   5.700  11.187  10.713  2.5954  0.2977 -3.6515
  150MOL0     H19777   5.779  11.086  10.843  1.7019 -0.2058 -0.5846
  150MOL0     H19778   5.548  11.025  10.716  1.3565  1.1987  1.1243
  150MOL0     H19779   5.647  10.936  10.605  0.2872 -2.6426  0.9805
  150MOL0     H19780   5.569  10.786  10.794 -0.0652 -0.2239 -0.0385
  150MOL0     H19781   5.619  10.907  10.909  1.7139 -0.2395  0.5129
  150MOL0     H19782   6.584  11.499  10.559  3.6144  2.4150 -1.5484
  150MOL0     H19783   6.782  11.500  10.419 -1.0458 -0.1625 -3.3606
  150MOL0     H19784   7.292  11.362  10.436 -0.6288  1.4754  0.7765
  150MOL0     H19785   7.470  11.408  10.304  0.1500  0.8853 -0.6590
  150MOL0     H19786   9.027  10.851   9.360 -2.8275  0.5542 -0.7376
  150MOL0     H19787   9.238  10.749   9.335 -3.0060  2.2954 -0.5173
  150MOL0     H19788   9.505  10.306   9.588 -0.1712 -0.5352 -1.2164
  150MOL0     H19789   9.725  10.219   9.569  1.2450 -1.4093 -1.1880
  150MOL0     H19790   9.964  10.135   9.511 -0.0520  1.3772  1.4666
  150MOL0     H19791   9.975  10.307   9.503  0.1405 -1.0062  1.1464
  150MOL0     H19792  10.093  10.137   9.294 -0.7170 -0.4123 -0.1630
  150MOL0     H19793  10.131  10.305   9.351 -4.5483  0.2957 -4.1465
  150MOL0     H19794  10.157  10.058   9.534  0.2314 -1.8334 -0.8451
  150MOL0     H19795  10.248  10.214   9.547  0.2544  1.2558 -2.2817
  150MOL0     H19796  10.294   9.980   9.361  0.7622 -2.0511  1.5287
  150MOL0     H19797  10.386  10.130   9.357 -0.5220 -0.2681 -0.0601
  150MOL0     H19798  10.575  10.011   9.693  0.9345 -1.7575  0.2639
  150MOL0     H19799   9.717  10.309   9.153  1.7966 -3.4662  1.0215
  150MOL0     H19800   9.482  10.373   9.164  1.3223 -0.7417 -0.9886
  151MOL0     O19801   6.189   5.574   9.332 -0.1612  0.0226  0.3819
  151MOL0     C19802   6.277   5.499   9.284 -0.2790 -0.6622  0.6413
  151MOL0     O19803   6.271   5.364   9.272 -0.3100  0.4929 -0.1551
  151MOL0     C19804   6.156   5.305   9.319  1.0765 -0.5209 -0.3247
  151MOL0     C19805   6.152   5.233   9.437  0.9907  0.0976  0.7371
  151MOL0     C19806   6.032   5.177   9.483 -0.3025 -0.3165 -0.2864
  151MOL0     C19807   5.910   5.202   9.423  0.1502  0.4099  0.2386
  151MOL0     O19808   5.790   5.147   9.470  0.2273  0.0277 -0.2252
  151MOL0     C19809   5.781   5.163   9.612  0.3700 -0.7313  0.3762
  151MOL0     C19810   5.636   5.127   9.638  0.6912  0.6500  0.6928
  151MOL0     C19811   5.586   5.162   9.767 -0.7216  0.0933 -0.5977
  151MOL0     C19812   5.442   5.111   9.779  0.9029 -0.0023  0.0944
  151MOL0     C19813   5.371   5.163   9.915 -1.3029  0.5135  1.0306
  151MOL0     C19814   5.233   5.121   9.905  0.8631 -0.1465 -0.5230
  151MOL0     C19815   5.137   5.167  10.016 -0.4178  0.0043 -1.0655
  151MOL0     C19816   5.162   5.089  10.147  0.2105 -0.8916  0.5084
  151MOL0     N19817   5.066   5.133  10.256 -0.4834  0.9165 -0.2389
  151MOL0     C19818   4.930   5.122  10.240  0.0233  0.1129  0.6063
  151MOL0     C19819   4.880   5.175  10.353  0.3886  0.1895  0.5671
  151MOL0     C19820   4.736   5.212  10.373 -0.2238 -0.5890 -0.2397
  151MOL0     C19821   4.693   5.199  10.516  1.2001  0.5232 -0.0854
  151MOL0     C19822   4.543   5.235  10.543 -0.1877  0.4576  0.0086
  151MOL0     C19823   4.432   5.151  10.482  0.1172 -0.3527  0.3400
  151MOL0     O19824   4.404   5.178  10.340  0.0064  0.3541 -0.1630
  151MOL0     C19825   4.304   5.093  10.294 -0.5146 -0.0969 -0.1716
  151MOL0     C19826   4.184   5.136  10.243 -0.1556 -0.1224  0.2189
  151MOL0     C19827   4.096   5.042  10.198 -0.4379 -0.0689 -0.0453
  151MOL0     C19828   4.127   4.899  10.195 -0.2571 -0.6718  0.7206
  151MOL0     C19829   4.019   4.804  10.162 -0.3750 -1.0433 -0.3332
  151MOL0     O19830   3.897   4.859  10.133 -0.2071 -0.0988  0.0035
  151MOL0     C19831   3.779   4.785  10.116 -0.5278  0.1778  0.5126
  151MOL0     C19832   3.763   4.650  10.094  0.2499  0.7859 -0.0739
  151MOL0     C19833   3.645   4.579  10.067 -0.3917  0.0794  0.1708
  151MOL0     C19834   3.525   4.651  10.079 -1.1023 -0.4169 -0.7679
  151MOL0     O19835   3.414   4.578  10.110 -0.2494 -0.0043  0.5531
  151MOL0     C19836   3.285   4.615  10.060 -0.3640 -0.2995  0.0129
  151MOL0     C19837   3.195   4.493  10.042 -0.1170 -0.1140  1.4601
  151MOL0     C19838   3.058   4.516   9.982 -0.2683  0.2486  0.1359
  151MOL0     C19839   2.987   4.389   9.958  0.4575 -0.0691 -0.6484
  151MOL0     C19840   2.838   4.397   9.919  0.1915 -0.4026 -0.9083
  151MOL0     C19841   2.768   4.264   9.921  0.3393 -0.3925 -1.0532
  151MOL0     C19842   2.629   4.283   9.879  0.0469  0.3197  0.1693
  151MOL0     C19843   2.563   4.141   9.880  0.8223 -0.9136 -0.2234
  151MOL0    Cl19844   2.633   4.056   9.744  0.3258  0.1801  0.1587
  151MOL0     C19845   3.530   4.792  10.079  1.1803 -0.0409 -0.0080
  151MOL0     C19846   3.657   4.855  10.100 -0.8278 -0.3483 -0.2448
  151MOL0     O19847   4.045   4.684  10.158  0.7351 -0.4210  0.1232
  151MOL0     C19848   4.249   4.864  10.251 -0.0100  0.3970 -0.6206
  151MOL0     C19849   4.340   4.958  10.302  0.4841  0.1447  0.9220
  151MOL0     N19850   4.998   5.205  10.435  0.1863 -0.1625 -0.3058
  151MOL0     N19851   5.110   5.165  10.373  0.2265  0.2530 -0.5854
  151MOL0     C19852   5.907   5.298   9.319 -0.0094  0.9462 -0.2431
  151MOL0     C19853   6.031   5.344   9.262 -0.4272 -0.2454  0.9390
  151MOL0     C19854   6.407   5.558   9.260  0.1561 -0.2853  0.3666
  151MOL0     C19855   6.504   5.482   9.203  0.3502  0.3453  0.0699
  151MOL0     C19856   6.637   5.531   9.174 -0.4126  0.3454  0.2091
  151MOL0     C19857   6.672   5.662   9.225 -0.3373  0.3452  0.4237
  151MOL0     O19858   6.799   5.721   9.216 -0.4460 -0.2070  0.0863
  151MOL0     C19859   6.890   5.661   9.128  0.1568  0.1661  0.1587
  151MOL0     C19860   7.023   5.724   9.156  0.9998  0.0202 -0.9441
  151MOL0     C19861   7.062   5.722   9.308  1.2494  0.1335 -0.4972
  151MOL0     C19862   7.209   5.746   9.354 -0.3721  0.1428  0.1027
  151MOL0     C19863   7.232   5.724   9.495  0.9570 -0.4516  0.1780
  151MOL0     C19864   7.261   5.692   9.602 -0.7562  0.3145 -0.1422
  151MOL0     C19865   6.577   5.733   9.296 -0.1496 -0.0659  0.2633
  151MOL0     C19866   6.443   5.688   9.300 -0.6644  0.6573  0.8371
  151MOL0     H19867   6.248   5.204   9.479  0.1854 -1.8422  1.3645
  151MOL0     H19868   6.045   5.100   9.559  1.0451 -0.4812 -0.6539
  151MOL0     H19869   5.796   5.268   9.640 -0.1584 -1.2351  2.8062
  151MOL0     H19870   5.833   5.094   9.679  0.9785 -0.9481 -0.3177
  151MOL0     H19871   5.627   5.019   9.624  0.8394  0.3123  2.8543
  151MOL0     H19872   5.572   5.181   9.568 -1.4048 -1.2353  1.0663
  151MOL0     H19873   5.581   5.271   9.775 -0.6973 -0.0107  1.2115
  151MOL0     H19874   5.648   5.117   9.845 -3.1078  0.0296  1.3807
  151MOL0     H19875   5.392   5.159   9.694  0.7234 -1.1497 -0.4707
  151MOL0     H19876   5.428   5.005   9.753  2.6589  0.0840 -1.4109
  151MOL0     H19877   5.363   5.271   9.930  1.3119  1.3639 -2.5392
  151MOL0     H19878   5.429   5.109   9.991 -0.0022 -1.7227 -1.3601
  151MOL0     H19879   5.235   5.012   9.893  2.9657 -0.1192 -0.7305
  151MOL0     H19880   5.191   5.162   9.813 -0.1964  1.9340  0.8184
  151MOL0     H19881   5.154   5.273  10.040 -1.9471 -0.0878  0.6882
  151MOL0     H19882   5.031   5.166   9.989  0.0047  1.5559 -3.0614
  151MOL0     H19883   5.262   5.108  10.188  0.5949  0.6108 -1.0245
  151MOL0     H19884   5.166   4.982  10.124  2.5005 -0.7742  0.0673
  151MOL0     H19885   4.870   5.107  10.151  0.7707 -0.1208  0.1368
  151MOL0     H19886   4.668   5.145  10.320 -1.3865  0.7684 -0.5132
  151MOL0     H19887   4.711   5.317  10.354 -2.7727 -1.0565  0.2061
  151MOL0     H19888   4.764   5.261  10.571  0.7141  0.5201  0.5639
  151MOL0     H19889   4.691   5.097  10.556  0.9695  0.6123  0.1316
  151MOL0     H19890   4.529   5.230  10.652 -1.4740  3.0421  0.0269
  151MOL0     H19891   4.522   5.337  10.511  1.5303  1.0093  0.5400
  151MOL0     H19892   4.343   5.175  10.540  0.5148 -1.1187  1.2817
  151MOL0     H19893   4.452   5.045  10.503 -0.0555 -0.9243 -2.0760
  151MOL0     H19894   4.152   5.239  10.255 -1.4608 -0.4116 -0.5737
  151MOL0     H19895   4.004   5.078  10.154 -1.1663 -0.1915  1.3225
  151MOL0     H19896   3.853   4.590  10.087  0.2977  0.6558  1.3867
  151MOL0     H19897   3.642   4.472  10.049 -0.2227  0.1704 -0.4101
  151MOL0     H19898   3.304   4.658   9.961  1.4574  0.4889  0.6689
  151MOL0     H19899   3.228   4.690  10.116 -1.2623 -0.6356 -0.4320
  151MOL0     H19900   3.166   4.461  10.142 -2.3756 -0.6746  0.6852
  151MOL0     H19901   3.235   4.410   9.984 -4.3282  1.3192 -4.5871
  151MOL0     H19902   3.054   4.568   9.886 -1.6475  0.0822  0.0860
  151MOL0     H19903   2.997   4.570  10.055 -0.0499  1.0940 -0.2886
  151MOL0     H19904   3.040   4.332   9.881 -0.2803 -0.5601 -0.7995
  151MOL0     H19905   2.988   4.328  10.049 -1.7084  0.1016 -0.4661
  151MOL0     H19906   2.822   4.446   9.822 -1.6735 -0.2411 -0.5483
  151MOL0     H19907   2.785   4.466   9.985 -2.9838 -2.1352 -1.4642
  151MOL0     H19908   2.772   4.231  10.026 -2.7521  2.2477  0.0775
  151MOL0     H19909   2.823   4.193   9.859  1.8769  0.7155 -0.9976
  151MOL0     H19910   2.568   4.347   9.943 -0.3226  0.0055  0.1400
  151MOL0     H19911   2.622   4.334   9.782 -0.5545  1.4941  0.8176
  151MOL0     H19912   2.454   4.145   9.866  0.8378  0.7531 -0.0507
  151MOL0     H19913   2.591   4.088   9.971 -0.9912  0.8084  1.4572
  151MOL0     H19914   3.439   4.850  10.092  1.4882  0.2452  0.9494
  151MOL0     H19915   3.662   4.963  10.093 -0.3436 -0.4570 -2.0038
  151MOL0     H19916   4.274   4.759  10.261  2.8747  0.9991 -0.6152
  151MOL0     H19917   4.439   4.925  10.333 -0.6774 -1.6604  3.0593
  151MOL0     H19918   5.814   5.341   9.281 -0.8819  0.2664  1.0746
  151MOL0     H19919   6.012   5.426   9.192 -4.6793 -2.6439 -1.1384
  151MOL0     H19920   6.481   5.378   9.180 -0.5814  0.2023  1.5493
  151MOL0     H19921   6.713   5.479   9.117  0.4378  2.1852 -0.4250
  151MOL0     H19922   6.855   5.685   9.027  0.7329  3.5990  0.6588
  151MOL0     H19923   6.905   5.554   9.146 -0.3153 -0.1878 -1.3969
  151MOL0     H19924   7.096   5.673   9.092  1.3429  1.5666 -1.8433
  151MOL0     H19925   7.010   5.832   9.146 -3.9185 -0.0379  1.7282
  151MOL0     H19926   7.034   5.623   9.346  1.7143  0.3915  0.5287
  151MOL0     H19927   6.995   5.793   9.357  1.8055  0.4480 -0.1831
  151MOL0     H19928   7.276   5.680   9.297 -0.7653  0.3628 -0.6266
  151MOL0     H19929   7.232   5.853   9.350 -4.3445  1.1177 -0.8176
  151MOL0     H19930   7.296   5.658   9.698  0.1886  0.4074 -0.4393
  151MOL0     H19931   6.601   5.827   9.344  1.2589 -1.0721  1.6403
  151MOL0     H19932   6.361   5.729   9.359 -1.4716 -1.4612  1.2919
  152MOL0     O19933   4.880   0.377   3.209 -0.4935 -0.0388  0.1011
  152MOL0     C19934   4.956   0.285   3.167  0.1427 -0.5730 -1.0080
  152MOL0     O19935   4.920   0.155   3.160 -0.6251  0.1039  0.2446
  152MOL0     C19936   4.791   0.110   3.170 -0.6930  0.9001 -0.7662
  152MOL0     C19937   4.692   0.153   3.258  0.0444 -0.0233 -0.2097
  152MOL0     C19938   4.569   0.094   3.273  0.1419 -0.2187 -0.4683
  152MOL0     C19939   4.532  -0.014   3.203 -0.1475  0.6437 -0.0783
  152MOL0     O19940   4.412  -0.090   3.212 -0.3269  0.3904  0.1750
  152MOL0     C19941   4.327  -0.066   3.327  0.1102 -0.2918 -0.1897
  152MOL0     C19942   4.199  -0.149   3.318 -0.5133  0.9309  1.0102
  152MOL0     C19943   4.072  -0.088   3.369 -0.1294  0.6291 -0.2020
  152MOL0     C19944   3.963  -0.196   3.360  0.2965  0.2837 -0.4803
  152MOL0     C19945   3.828  -0.154   3.412  1.1157  0.0405 -0.1734
  152MOL0     C19946   3.736  -0.288   3.417 -0.2124 -0.4583 -0.5092
  152MOL0     C19947   3.601  -0.257   3.487  0.2792 -0.4543  0.0385
  152MOL0     C19948   3.513  -0.376   3.500  0.9838  0.3177 -0.0491
  152MOL0     N19949   3.374  -0.341   3.533 -0.7394  0.1272 -0.2210
  152MOL0     C19950   3.285  -0.383   3.624 -0.9466 -0.3431  0.0526
  152MOL0     C19951   3.171  -0.311   3.622  0.4462 -1.0364 -0.6870
  152MOL0     C19952   3.039  -0.317   3.687  0.6014  0.5947  0.3381
  152MOL0     C19953   3.029  -0.434   3.791  0.5176 -0.2877  0.1424
  152MOL0     C19954   2.895  -0.418   3.859 -0.7123  0.3921  0.8746
  152MOL0     C19955   2.874  -0.509   3.985  0.1392 -0.4952 -0.0127
  152MOL0     O19956   2.790  -0.619   3.958  0.0730  0.5879  0.4216
  152MOL0     C19957   2.653  -0.602   3.958 -0.4286  0.1371 -0.2399
  152MOL0     C19958   2.588  -0.485   3.979  0.0014  0.4372  1.1052
  152MOL0     C19959   2.453  -0.485   3.990  0.5885 -0.2208  0.0800
  152MOL0     C19960   2.372  -0.597   3.978 -0.5966 -0.5130  0.0483
  152MOL0     C19961   2.230  -0.594   4.007  0.3986  0.5563 -0.0456
  152MOL0     O19962   2.159  -0.712   3.981  0.5452  0.8959 -0.3363
  152MOL0     C19963   2.033  -0.731   4.027  0.1099  0.3858  0.9901
  152MOL0     C19964   2.006  -0.863   4.067 -0.2690 -0.0453 -0.8076
  152MOL0     C19965   1.875  -0.888   4.103  0.2339  0.4700 -0.2600
  152MOL0     C19966   1.777  -0.792   4.105  0.4738 -0.5041 -0.4694
  152MOL0     O19967   1.652  -0.842   4.138  0.8067 -0.5362  0.5561
  152MOL0     C19968   1.543  -0.751   4.126 -0.0729  0.5865  0.6730
  152MOL0     C19969   1.423  -0.845   4.138  0.9638  0.5655  0.2933
  152MOL0     C19970   1.282  -0.776   4.137 -0.1794 -0.2100  0.3757
  152MOL0     C19971   1.150  -0.864   4.140  0.0043 -0.4201  0.0533
  152MOL0     C19972   1.020  -0.780   4.172 -0.2313 -0.2766  0.5255
  152MOL0     C19973   0.974  -0.723   4.042  0.0776  0.1997  1.5513
  152MOL0     C19974   0.863  -0.622   4.075 -0.4086  0.3154  0.1111
  152MOL0     C19975   0.808  -0.547   3.950 -0.0445 -0.2020  1.2047
  152MOL0    Cl19976   0.680  -0.437   4.021 -0.1541 -0.1264  0.2229
  152MOL0     C19977   1.805  -0.661   4.062 -0.1385  0.1501 -0.1664
  152MOL0     C19978   1.932  -0.631   4.023 -0.9035  0.7107  0.0626
  152MOL0     O19979   2.184  -0.493   4.060  0.3784 -0.3333 -0.5150
  152MOL0     C19980   2.441  -0.714   3.936 -0.4351  0.6996 -0.8094
  152MOL0     C19981   2.577  -0.714   3.923  0.4973  0.4063 -0.5546
  152MOL0     N19982   3.202  -0.218   3.532  0.5065 -0.2847  0.1966
  152MOL0     N19983   3.315  -0.236   3.475 -0.1714 -0.3727 -0.5145
  152MOL0     C19984   4.619  -0.055   3.109  0.8151  0.5495 -0.0446
  152MOL0     C19985   4.748   0.002   3.088  0.4574  0.9518 -0.1351
  152MOL0     C19986   5.097   0.320   3.160  0.8412  0.1826  0.1401
  152MOL0     C19987   5.137   0.454   3.190  0.1814 -0.6078 -0.1867
  152MOL0     C19988   5.272   0.487   3.182 -0.4320  0.4567 -1.3560
  152MOL0     C19989   5.363   0.382   3.168 -0.8260 -0.0354 -0.2279
  152MOL0     O19990   5.497   0.401   3.146 -0.2501  0.1161 -0.5552
  152MOL0     C19991   5.560   0.464   3.264 -0.1146 -0.6161  0.2473
  152MOL0     C19992   5.611   0.361   3.369  0.2891 -0.3582 -0.4361
  152MOL0     C19993   5.691   0.242   3.315  0.2845 -1.3284  0.2633
  152MOL0     C19994   5.727   0.146   3.435 -0.1361  0.4167 -1.1568
  152MOL0     C19995   5.752   0.010   3.398  0.3004 -0.1090 -0.1998
  152MOL0     C19996   5.762  -0.102   3.355  0.0512 -0.0745  0.8850
  152MOL0     C19997   5.332   0.249   3.146  0.0001 -0.1628 -0.3386
  152MOL0     C19998   5.191   0.221   3.144 -0.0432 -1.3565  0.7184
  152MOL0     H19999   4.718   0.246   3.306 -2.2659 -0.1664  1.4711
  152MOL0     H20000   4.507   0.127   3.356  1.2506 -0.6659  0.5646
  152MOL0     H20001   4.288   0.037   3.328 -2.0550 -0.7309 -5.5280
  152MOL0     H20002   4.380  -0.098   3.416 -1.0299  0.4324  0.7853
  152MOL0     H20003   4.218  -0.241   3.374 -2.1865  1.1338  1.9840
  152MOL0     H20004   4.181  -0.185   3.217 -2.3139  0.9248  1.2875
  152MOL0     H20005   4.059   0.004   3.310  2.3512 -0.2192 -2.2286
  152MOL0     H20006   4.096  -0.064   3.473  0.0975  1.9622 -0.5461
  152MOL0     H20007   3.962  -0.244   3.262  2.6478  0.8958 -0.8525
  152MOL0     H20008   3.995  -0.276   3.428 -0.7093 -0.6746 -1.0890
  152MOL0     H20009   3.784  -0.081   3.343  1.0975 -0.9845 -1.2801
  152MOL0     H20010   3.820  -0.101   3.508  2.0607 -1.2966  0.6759
  152MOL0     H20011   3.780  -0.369   3.476 -0.8913  0.8012  1.8524
  152MOL0     H20012   3.728  -0.322   3.313 -0.8689 -0.9228 -0.3114
  152MOL0     H20013   3.615  -0.221   3.589  1.7438  1.7300 -0.8676
  152MOL0     H20014   3.546  -0.184   3.428 -1.0784 -0.3156  1.4361
  152MOL0     H20015   3.545  -0.449   3.574  0.8523  0.3287  0.0184
  152MOL0     H20016   3.492  -0.433   3.408  1.3985 -1.5583  0.9791
  152MOL0     H20017   3.303  -0.460   3.699  0.7318 -0.0385 -0.0140
  152MOL0     H20018   2.967  -0.332   3.606  2.3020  0.8073 -1.2958
  152MOL0     H20019   3.009  -0.221   3.729 -2.4776 -0.8080  1.6983
  152MOL0     H20020   3.119  -0.442   3.854  2.1337  0.7639 -1.9053
  152MOL0     H20021   3.032  -0.530   3.739  0.7756 -0.5726  0.6789
  152MOL0     H20022   2.892  -0.314   3.894  4.3539 -0.0961  3.7839
  152MOL0     H20023   2.807  -0.431   3.795 -1.1152 -1.7363  1.7903
  152MOL0     H20024   2.839  -0.452   4.071  2.4989  3.2066 -1.2239
  152MOL0     H20025   2.971  -0.542   4.024 -0.1373 -0.6814  0.5168
  152MOL0     H20026   2.631  -0.387   3.991 -0.4126  0.3989  3.2701
  152MOL0     H20027   2.398  -0.392   4.001  0.7597 -0.0197 -0.7389
  152MOL0     H20028   2.072  -0.948   4.075  0.3023  0.5333  1.8180
  152MOL0     H20029   1.847  -0.989   4.131 -0.0804  1.4167  3.3115
  152MOL0     H20030   1.539  -0.712   4.023 -1.1465 -1.8627 -0.2735
  152MOL0     H20031   1.546  -0.661   4.189  2.0689  0.0560  1.4133
  152MOL0     H20032   1.432  -0.906   4.228 -0.1997 -0.6377 -0.3809
  152MOL0     H20033   1.423  -0.911   4.051 -3.2783 -0.2470  0.6878
  152MOL0     H20034   1.272  -0.716   4.046  2.5234  1.9578  1.3609
  152MOL0     H20035   1.286  -0.702   4.218 -0.6741  1.8320 -1.3447
  152MOL0     H20036   1.136  -0.905   4.040 -1.9600 -2.2520  0.9807
  152MOL0     H20037   1.173  -0.949   4.206  2.2268 -0.2397 -0.4290
  152MOL0     H20038   1.036  -0.703   4.247 -2.2680  0.7503  0.0017
  152MOL0     H20039   0.944  -0.845   4.216 -0.1309 -0.2923  0.6743
  152MOL0     H20040   0.947  -0.810   3.982  2.8312 -0.6500  1.4035
  152MOL0     H20041   1.057  -0.673   3.992  1.2030 -0.4197  2.7367
  152MOL0     H20042   0.783  -0.684   4.116  2.3807 -2.8124  1.2764
  152MOL0     H20043   0.888  -0.561   4.162  0.0930 -1.1205  0.9939
  152MOL0     H20044   0.767  -0.609   3.869  0.1578  0.9526  0.1744
  152MOL0     H20045   0.887  -0.485   3.907 -0.2823 -0.2073  0.7541
  152MOL0     H20046   1.728  -0.584   4.064  0.0225  0.3440  2.1011
  152MOL0     H20047   1.950  -0.541   3.964 -1.3013 -0.2718 -1.6348
  152MOL0     H20048   2.375  -0.797   3.912  2.2138 -1.8349  0.0234
  152MOL0     H20049   2.616  -0.810   3.894 -0.3582  0.6261 -2.5441
  152MOL0     H20050   4.579  -0.138   3.051  1.2751  0.0530  0.3496
  152MOL0     H20051   4.819  -0.043   3.020 -1.9047 -1.7843 -1.0145
  152MOL0     H20052   5.078   0.544   3.204  1.6285  0.6937 -2.0228
  152MOL0     H20053   5.299   0.592   3.176  1.6753 -0.0459 -1.4804
  152MOL0     H20054   5.495   0.537   3.312 -1.3812 -1.4918 -0.0765
  152MOL0     H20055   5.650   0.514   3.227  1.1010 -2.3087  0.7910
  152MOL0     H20056   5.671   0.414   3.443  0.0142  0.1860 -0.5946
  152MOL0     H20057   5.522   0.335   3.428 -0.3453  3.1803  0.3766
  152MOL0     H20058   5.783   0.277   3.268 -0.5762  3.2765  1.4707
  152MOL0     H20059   5.629   0.192   3.240 -1.7192  2.5544 -0.9806
  152MOL0     H20060   5.804   0.190   3.499 -0.4428 -0.4493 -0.1674
  152MOL0     H20061   5.644   0.120   3.501  1.4157  1.1093  1.1857
  152MOL0     H20062   5.751  -0.203   3.323 -4.7836  0.7335 -0.7475
  152MOL0     H20063   5.406   0.169   3.143  0.7869  0.5745 -0.9086
  152MOL0     H20064   5.162   0.116   3.141 -0.0633 -1.3635  1.1136
  153MOL0     O20065   8.339   9.038   9.008 -0.0164 -0.1064  0.5389
  153MOL0     C20066   8.352   8.968   8.906  0.4078 -0.6957 -0.7374
  153MOL0     O20067   8.290   9.000   8.780 -0.1694  0.2578 -0.2810
  153MOL0     C20068   8.212   9.115   8.766  0.0035 -0.3872 -0.9874
  153MOL0     C20069   8.270   9.228   8.708  0.4511  0.0583  1.0600
  153MOL0     C20070   8.190   9.338   8.684 -0.4124 -0.2681 -0.0317
  153MOL0     C20071   8.048   9.346   8.722  0.2147  0.4092 -0.5756
  153MOL0     O20072   7.979   9.466   8.696 -1.3531  0.6876 -0.2362
  153MOL0     C20073   7.837   9.459   8.680  0.2202  0.9496  0.1894
  153MOL0     C20074   7.788   9.603   8.653  0.6620  0.2545  0.0148
  153MOL0     C20075   7.642   9.596   8.608 -0.7928 -0.2198 -1.1677
  153MOL0     C20076   7.577   9.727   8.637  0.1180 -0.0042  0.2426
  153MOL0     C20077   7.431   9.706   8.621  0.2209  0.3850  0.3206
  153MOL0     C20078   7.353   9.828   8.677 -0.9909  0.2614  0.6288
  153MOL0     C20079   7.210   9.825   8.661  0.6059  0.2590 -0.6381
  153MOL0     C20080   7.143   9.940   8.719  0.7344  0.4105 -0.1513
  153MOL0     N20081   7.002   9.936   8.748  0.4827 -0.5910  0.2782
  153MOL0     C20082   6.906   9.987   8.657 -0.4168  0.1723 -0.2746
  153MOL0     C20083   6.796   9.998   8.733 -0.1742  0.8151  0.1542
  153MOL0     C20084   6.663  10.040   8.673 -0.2337 -0.2952 -0.5623
  153MOL0     C20085   6.589  10.122   8.773 -0.1004  0.1937  0.4746
  153MOL0     C20086   6.453  10.167   8.725  0.8567  0.1104  0.2143
  153MOL0     C20087   6.356  10.044   8.743  0.3134  0.3545  0.3692
  153MOL0     O20088   6.227  10.091   8.694  0.2858  0.1760 -0.0157
  153MOL0     C20089   6.130  10.117   8.790  0.3305  0.3489  0.3625
  153MOL0     C20090   6.124  10.237   8.866  0.0011  0.8920 -0.1621
  153MOL0     C20091   6.020  10.260   8.953  0.4587 -0.3351  1.2737
  153MOL0     C20092   5.910  10.166   8.956  1.1783  0.1916 -0.4884
  153MOL0     C20093   5.788  10.187   9.042 -0.8083  0.2099 -0.4496
  153MOL0     O20094   5.672  10.123   9.004 -0.4907 -0.8317 -0.5860
  153MOL0     C20095   5.551  10.165   9.049  0.1558 -0.1702  0.2371
  153MOL0     C20096   5.519  10.301   9.079  0.5291  0.0802  0.4184
  153MOL0     C20097   5.395  10.335   9.133  0.3052 -0.1081  0.3419
  153MOL0     C20098   5.302  10.230   9.144  0.2381 -0.7037 -0.2800
  153MOL0     O20099   5.183  10.261   9.193 -0.1036  0.2834  0.2734
  153MOL0     C20100   5.064  10.181   9.192  0.4803  0.5164  0.5571
  153MOL0     C20101   4.990  10.200   9.060 -0.5412  0.2205  0.7397
  153MOL0     C20102   4.926  10.338   9.046 -0.1825 -0.6221  0.8483
  153MOL0     C20103   4.851  10.364   8.910 -0.1479  0.8106 -0.0764
  153MOL0     C20104   4.827  10.512   8.874  1.2680 -0.9556  0.5088
  153MOL0     C20105   4.763  10.582   8.994 -0.4098 -0.1257 -0.1382
  153MOL0     C20106   4.624  10.525   9.029  0.0399  0.4501 -0.5380
  153MOL0     C20107   4.536  10.488   8.914  0.3119  0.1415 -0.6198
  153MOL0    Cl20108   4.372  10.430   8.972  0.0092  0.7472 -0.1188
  153MOL0     C20109   5.333  10.102   9.103 -0.4167 -0.8086  0.6271
  153MOL0     C20110   5.453  10.065   9.054  0.1646 -0.4544 -0.2728
  153MOL0     O20111   5.811  10.254   9.145  0.1689  0.0104 -0.0093
  153MOL0     C20112   5.923  10.045   8.880  0.0942  0.1977 -0.6048
  153MOL0     C20113   6.031  10.023   8.799 -0.4425  0.1810  0.7120
  153MOL0     N20114   6.822   9.956   8.863  0.6541 -0.2494 -0.1382
  153MOL0     N20115   6.943   9.920   8.877  0.5061  0.4570  0.0707
  153MOL0     C20116   7.996   9.232   8.785  0.2770 -0.4048  0.5642
  153MOL0     C20117   8.069   9.115   8.795 -0.4309 -0.2575 -0.0997
  153MOL0     C20118   8.434   8.852   8.909 -0.4532 -0.4715  0.2662
  153MOL0     C20119   8.420   8.757   8.806 -0.1115 -0.2161 -0.0068
  153MOL0     C20120   8.503   8.634   8.800  0.8003 -0.5274 -0.2603
  153MOL0     C20121   8.586   8.611   8.903 -0.2093 -0.1435 -0.6493
  153MOL0     O20122   8.659   8.493   8.914  0.5808  0.3345 -0.4333
  153MOL0     C20123   8.788   8.495   8.971 -0.3524 -0.2368  0.1121
  153MOL0     C20124   8.881   8.399   8.899  0.3042 -0.6314  0.3884
  153MOL0     C20125   8.879   8.395   8.744  0.0348 -1.0626 -1.0714
  153MOL0     C20126   8.917   8.535   8.691  0.0078 -0.3193 -0.5981
  153MOL0     C20127   8.914   8.528   8.550  0.6362  0.1156  1.1042
  153MOL0     C20128   8.928   8.500   8.433  0.8258  0.1389 -0.0466
  153MOL0     C20129   8.590   8.695   9.017  0.8288  0.1136 -0.4187
  153MOL0     C20130   8.513   8.819   9.018 -0.0194  0.8757 -1.0752
  153MOL0     H20131   8.372   9.236   8.671 -0.4851 -1.2896 -2.1319
  153MOL0     H20132   8.225   9.428   8.635  0.8699  0.9230  2.8532
  153MOL0     H20133   7.788   9.414   8.766 -3.1092 -1.6328 -2.7425
  153MOL0     H20134   7.809   9.398   8.593 -3.1593 -1.2359  2.5894
  153MOL0     H20135   7.856   9.646   8.578  2.1959  2.0440  2.3011
  153MOL0     H20136   7.798   9.664   8.742 -0.1935 -0.6675  0.7644
  153MOL0     H20137   7.583   9.519   8.659  1.7614 -1.0563  0.6818
  153MOL0     H20138   7.634   9.585   8.499 -0.7285  0.9208 -1.3030
  153MOL0     H20139   7.591   9.768   8.737 -3.2973  3.3366 -0.4332
  153MOL0     H20140   7.613   9.806   8.570 -3.1014  0.8493 -0.6428
  153MOL0     H20141   7.392   9.618   8.673  1.2776 -0.8754 -0.9228
  153MOL0     H20142   7.407   9.700   8.514  0.8017  0.6749  0.1681
  153MOL0     H20143   7.386   9.912   8.616 -2.4827  0.6106  0.2646
  153MOL0     H20144   7.376   9.852   8.782 -0.9829 -0.5080  0.8120
  153MOL0     H20145   7.178   9.805   8.559 -2.8316 -3.2241  0.8485
  153MOL0     H20146   7.165   9.741   8.716 -1.5715  2.3620  1.0717
  153MOL0     H20147   7.164  10.022   8.649 -0.6830  1.1118  0.2103
  153MOL0     H20148   7.197   9.958   8.813 -0.5162 -0.7683  0.8339
  153MOL0     H20149   6.924  10.015   8.554  0.0764  2.8105  0.4448
  153MOL0     H20150   6.599   9.959   8.636 -1.0735 -0.1536  0.5257
  153MOL0     H20151   6.683  10.105   8.587 -3.3910  0.0998 -1.0928
  153MOL0     H20152   6.649  10.209   8.798  0.2679  0.2404 -0.5210
  153MOL0     H20153   6.577  10.064   8.865 -0.4341 -0.8294 -0.1938
  153MOL0     H20154   6.414  10.242   8.794 -2.8790 -1.7957  0.4556
  153MOL0     H20155   6.450  10.207   8.623 -0.1621  0.0578  0.2109
  153MOL0     H20156   6.349   9.997   8.842  4.1628 -2.6818 -0.5588
  153MOL0     H20157   6.378   9.959   8.678 -2.0038  1.4834 -2.0617
  153MOL0     H20158   6.198  10.316   8.852  1.0612 -0.1559 -0.6826
  153MOL0     H20159   6.014  10.347   9.019  1.5080  1.6744 -1.1227
  153MOL0     H20160   5.596  10.376   9.066  0.5363  0.6353  3.1032
  153MOL0     H20161   5.368  10.436   9.164 -2.6386 -1.1494  1.4929
  153MOL0     H20162   5.000  10.216   9.273 -0.8793 -0.8759  0.1245
  153MOL0     H20163   5.088  10.075   9.208  2.9681  0.8523 -0.3598
  153MOL0     H20164   4.905  10.131   9.062  0.5626 -1.1841  1.3218
  153MOL0     H20165   5.055  10.178   8.974  1.4143  1.4412  1.8221
  153MOL0     H20166   5.010  10.408   9.038 -0.4714 -0.4767 -1.7875
  153MOL0     H20167   4.863  10.364   9.132  1.4890  0.5618  1.7612
  153MOL0     H20168   4.909  10.312   8.834 -0.8089  0.0955 -0.0969
  153MOL0     H20169   4.756  10.309   8.906  0.6712 -0.9958  2.3783
  153MOL0     H20170   4.761  10.513   8.787  0.7438 -2.4320  0.8604
  153MOL0     H20171   4.920  10.562   8.845 -0.8678  3.6090  0.7018
  153MOL0     H20172   4.760  10.691   8.987  0.7944  0.0368  1.5027
  153MOL0     H20173   4.826  10.561   9.080  2.6505 -2.2315 -2.7015
  153MOL0     H20174   4.631  10.433   9.087 -0.3354 -0.1496 -1.4232
  153MOL0     H20175   4.567  10.604   9.080 -1.4747  0.1250 -1.6341
  153MOL0     H20176   4.579  10.407   8.853 -0.4593 -0.4573 -0.3884
  153MOL0     H20177   4.528  10.568   8.840 -2.1788 -0.3251 -0.9565
  153MOL0     H20178   5.248  10.034   9.105 -0.9002 -0.2000  1.1707
  153MOL0     H20179   5.475   9.963   9.024  1.9311  0.6707 -3.2379
  153MOL0     H20180   5.859   9.958   8.891  0.5175 -0.2387 -1.4740
  153MOL0     H20181   6.030   9.932   8.739  1.5562  0.0263  0.8417
  153MOL0     H20182   7.893   9.225   8.817  0.6666 -2.7681  1.5201
  153MOL0     H20183   8.009   9.034   8.835 -1.3875  1.2997  1.8298
  153MOL0     H20184   8.350   8.765   8.723 -0.3004 -3.6758 -0.3344
  153MOL0     H20185   8.489   8.564   8.718 -1.2360  1.2030 -1.4858
  153MOL0     H20186   8.785   8.470   9.077  1.2196 -0.1562  0.1884
  153MOL0     H20187   8.822   8.598   8.958 -2.6838  0.3221 -3.1630
  153MOL0     H20188   8.979   8.421   8.942  0.6119 -1.5055  0.1703
  153MOL0     H20189   8.849   8.302   8.940 -4.0212  0.0769 -0.7743
  153MOL0     H20190   8.785   8.361   8.702 -1.1823 -1.3432  1.6538
  153MOL0     H20191   8.962   8.330   8.715  0.0526 -1.7152  0.3562
  153MOL0     H20192   8.850   8.613   8.729 -1.6570 -0.7598 -2.4508
  153MOL0     H20193   9.016   8.566   8.726  0.2483 -2.2843  0.6038
  153MOL0     H20194   8.940   8.494   8.327  2.3823  1.2918  0.0309
  153MOL0     H20195   8.663   8.673   9.094 -1.5656 -0.0831  1.9165
  153MOL0     H20196   8.524   8.887   9.102 -2.9173  2.0782 -1.5466
  154MOL0     O20197   9.479   4.194   6.139 -0.3486 -0.6602 -0.0654
  154MOL0     C20198   9.467   4.186   6.261 -0.1954  0.0703  0.4199
  154MOL0     O20199   9.354   4.205   6.334 -0.1947  0.7676  0.2418
  154MOL0     C20200   9.241   4.242   6.267  0.5866  0.4049 -0.3898
  154MOL0     C20201   9.128   4.188   6.326 -0.9474  0.0248  0.4116
  154MOL0     C20202   8.998   4.208   6.270 -0.8746 -0.6865 -0.2793
  154MOL0     C20203   8.978   4.296   6.165 -0.3296 -0.1153 -0.5343
  154MOL0     O20204   8.862   4.316   6.098 -0.0463 -0.7213 -0.2128
  154MOL0     C20205   8.730   4.287   6.146  0.1206 -0.1537  0.1201
  154MOL0     C20206   8.672   4.429   6.143 -0.7230 -0.1707  0.0283
  154MOL0     C20207   8.524   4.415   6.178 -0.3596  0.5801  0.0876
  154MOL0     C20208   8.445   4.533   6.123 -0.1135  0.0000  0.5339
  154MOL0     C20209   8.297   4.526   6.144 -0.9698  1.2103  0.5760
  154MOL0     C20210   8.226   4.639   6.068  0.7599  0.9930 -0.1099
  154MOL0     C20211   8.075   4.610   6.067 -0.9963  0.6879 -0.1713
  154MOL0     C20212   8.014   4.751   6.056  0.4010  0.2683  0.3798
  154MOL0     N20213   7.871   4.719   6.064  0.3106  0.2034  0.0528
  154MOL0     C20214   7.781   4.786   5.991 -0.1556  0.5237  0.5435
  154MOL0     C20215   7.667   4.780   6.057 -0.0749  0.1383 -0.7594
  154MOL0     C20216   7.534   4.831   6.004  0.5502  0.0602 -0.1974
  154MOL0     C20217   7.437   4.713   5.985 -0.1975  0.3095 -0.4105
  154MOL0     C20218   7.308   4.765   5.924 -0.1874 -0.7472 -0.9246
  154MOL0     C20219   7.230   4.865   6.019 -0.2620 -0.3056 -1.1737
  154MOL0     O20220   7.100   4.885   5.956 -0.6570 -0.5920  0.2104
  154MOL0     C20221   6.997   4.799   5.993  0.9409 -0.0107 -0.0119
  154MOL0     C20222   6.998   4.700   6.085 -0.1656  0.1162  0.5637
  154MOL0     C20223   6.880   4.637   6.127 -0.3384 -0.2362  0.5224
  154MOL0     C20224   6.759   4.665   6.065  0.8461 -1.0256 -0.6227
  154MOL0     C20225   6.634   4.582   6.104 -0.2519 -0.4852 -0.2300
  154MOL0     O20226   6.519   4.630   6.075  0.0362 -0.0175  0.7242
  154MOL0     C20227   6.409   4.562   6.123 -0.8077 -0.9206  0.5029
  154MOL0     C20228   6.379   4.545   6.259 -0.3652 -0.5841  0.5690
  154MOL0     C20229   6.263   4.481   6.300  1.7157 -0.5339 -0.1910
  154MOL0     C20230   6.162   4.459   6.207 -0.1516  0.3526 -0.3657
  154MOL0     O20231   6.043   4.429   6.267 -0.0831  0.8336 -0.0968
  154MOL0     C20232   5.973   4.321   6.206  0.5876  0.2751  0.3020
  154MOL0     C20233   5.909   4.235   6.312  0.4742 -0.3490  0.4608
  154MOL0     C20234   6.005   4.159   6.400  0.1815  0.5550 -0.7419
  154MOL0     C20235   5.927   4.090   6.513  0.0868  0.0169 -0.9311
  154MOL0     C20236   6.031   4.026   6.599  0.2031 -0.3137  0.3486
  154MOL0     C20237   5.989   3.972   6.744  0.1547 -0.3927  0.4156
  154MOL0     C20238   5.859   3.889   6.732 -0.5624 -1.0091  0.5998
  154MOL0     C20239   5.797   3.871   6.873 -0.3242 -0.0689 -0.0006
  154MOL0    Cl20240   5.673   3.751   6.838 -0.1796  0.3285 -0.6180
  154MOL0     C20241   6.183   4.487   6.073 -0.2217 -0.1778 -0.1699
  154MOL0     C20242   6.312   4.526   6.029 -0.0257  0.3172  1.1287
  154MOL0     O20243   6.662   4.469   6.144  0.5196  0.0069 -0.1939
  154MOL0     C20244   6.760   4.775   5.970  0.0480  0.4578 -0.2353
  154MOL0     C20245   6.878   4.840   5.941  0.5537  0.6793  0.7406
  154MOL0     N20246   7.683   4.700   6.171  0.5910 -0.6293  0.4508
  154MOL0     N20247   7.809   4.673   6.179  0.3574 -0.4547 -0.1807
  154MOL0     C20248   9.091   4.369   6.125  0.0877  0.5189 -0.0828
  154MOL0     C20249   9.214   4.343   6.178  0.2526 -0.5096  0.0990
  154MOL0     C20250   9.580   4.138   6.331  0.2804 -0.2370 -0.1002
  154MOL0     C20251   9.697   4.112   6.264 -0.9792 -0.2673 -0.5602
  154MOL0     C20252   9.815   4.084   6.337 -0.0002  0.1750  0.5653
  154MOL0     C20253   9.812   4.071   6.476 -0.5808 -0.5187  0.8147
  154MOL0     O20254   9.936   4.056   6.528  0.3690 -0.3099 -0.2063
  154MOL0     C20255   9.956   4.079   6.674 -0.3934 -0.9290  0.6235
  154MOL0     C20256  10.105   4.060   6.709 -0.5589  0.4914  0.1711
  154MOL0     C20257  10.129   4.062   6.864 -0.4884 -0.1730  0.6676
  154MOL0     C20258  10.252   3.972   6.904 -0.1331  0.4280 -0.6111
  154MOL0     C20259  10.380   3.994   6.835  0.4895  0.0058 -0.5589
  154MOL0     C20260  10.497   4.004   6.807  0.2186 -0.6652 -1.1460
  154MOL0     C20261   9.691   4.080   6.544 -1.2064 -0.8682 -0.2500
  154MOL0     C20262   9.578   4.112   6.472  0.4324 -0.9328  0.0452
  154MOL0     H20263   9.131   4.132   6.419 -0.0343  0.7343  0.8213
  154MOL0     H20264   8.915   4.152   6.312  0.4370 -0.8586  2.2507
  154MOL0     H20265   8.728   4.243   6.246  3.6144  0.2650  0.5012
  154MOL0     H20266   8.672   4.229   6.074  0.2792  1.8691 -1.7288
  154MOL0     H20267   8.674   4.485   6.049 -1.0703 -0.8359 -0.3868
  154MOL0     H20268   8.739   4.488   6.205  2.2754 -3.9342  0.7358
  154MOL0     H20269   8.503   4.403   6.285 -0.8302 -1.4602 -0.1904
  154MOL0     H20270   8.490   4.322   6.132 -0.2987 -0.5071  2.1172
  154MOL0     H20271   8.475   4.627   6.170  0.1882  0.1358  0.0774
  154MOL0     H20272   8.471   4.547   6.018  1.4182 -1.4086  0.6856
  154MOL0     H20273   8.270   4.527   6.250  0.9900  0.1687  1.1306
  154MOL0     H20274   8.268   4.429   6.102  1.6392 -0.1065  1.6280
  154MOL0     H20275   8.269   4.645   5.968  0.8798 -0.8202 -0.2087
  154MOL0     H20276   8.234   4.735   6.120 -0.6085  2.4864 -2.4416
  154MOL0     H20277   8.044   4.539   5.989 -0.0237 -0.7365  0.7074
  154MOL0     H20278   8.053   4.578   6.169 -1.8984  0.0854 -0.5388
  154MOL0     H20279   8.034   4.797   5.959 -0.4605  0.0031  0.0657
  154MOL0     H20280   8.037   4.825   6.134 -1.4797  0.8580  0.4385
  154MOL0     H20281   7.781   4.828   5.891 -2.6470  1.3417  0.8196
  154MOL0     H20282   7.543   4.879   5.907  0.0761 -0.7675 -0.6633
  154MOL0     H20283   7.495   4.903   6.077 -1.8791 -1.7885  0.4920
  154MOL0     H20284   7.424   4.667   6.084  0.1821 -0.7028 -0.8196
  154MOL0     H20285   7.475   4.646   5.908  1.3040 -1.1259  1.4487
  154MOL0     H20286   7.338   4.824   5.837  0.1952  1.4843  0.6386
  154MOL0     H20287   7.247   4.678   5.900  0.7982 -2.7934  3.0166
  154MOL0     H20288   7.277   4.964   6.022 -1.7595  0.4040  1.4207
  154MOL0     H20289   7.223   4.822   6.120  1.6588 -1.5429 -1.5011
  154MOL0     H20290   7.097   4.672   6.119  0.1796  0.4455 -0.1416
  154MOL0     H20291   6.899   4.562   6.203  0.5694  0.2605  0.7995
  154MOL0     H20292   6.440   4.587   6.339 -3.4659  0.7995  2.3708
  154MOL0     H20293   6.243   4.455   6.403 -0.3925 -2.5673 -1.0277
  154MOL0     H20294   6.029   4.243   6.154 -2.6784 -1.1531 -1.3851
  154MOL0     H20295   5.898   4.369   6.143  2.1253  1.1068 -0.9569
  154MOL0     H20296   5.841   4.162   6.267  0.2170  0.0647  0.1697
  154MOL0     H20297   5.849   4.296   6.380 -2.2650 -2.2330 -0.0984
  154MOL0     H20298   6.083   4.222   6.445  1.2456  0.5292 -2.4794
  154MOL0     H20299   6.052   4.079   6.342  1.3734  0.3422  0.4612
  154MOL0     H20300   5.875   4.172   6.565  0.4061  0.1783 -0.8638
  154MOL0     H20301   5.854   4.018   6.474 -0.4086 -0.2486  0.4199
  154MOL0     H20302   6.118   4.091   6.612  0.0171  0.1602 -0.7545
  154MOL0     H20303   6.072   3.937   6.550  1.5699 -0.2901  1.3682
  154MOL0     H20304   5.974   4.068   6.794 -0.9398  2.2954 -4.4552
  154MOL0     H20305   6.071   3.913   6.786 -0.4885 -2.3397 -0.9187
  154MOL0     H20306   5.781   3.937   6.671  0.6840  1.1349  0.5759
  154MOL0     H20307   5.881   3.800   6.672  0.0342  0.1132 -0.9219
  154MOL0     H20308   5.748   3.961   6.911  0.5530 -0.6070  2.5721
  154MOL0     H20309   5.862   3.827   6.948 -0.5905  0.8557  0.7935
  154MOL0     H20310   6.102   4.476   6.001  0.6116 -0.9690 -1.0087
  154MOL0     H20311   6.324   4.553   5.925  1.3057 -1.9806  0.6291
  154MOL0     H20312   6.668   4.804   5.920 -0.6385 -2.0820 -0.5857
  154MOL0     H20313   6.864   4.912   5.860 -1.9896  1.6535  1.9314
  154MOL0     H20314   9.084   4.431   6.035 -0.7916 -2.0699 -1.9202
  154MOL0     H20315   9.292   4.398   6.125  0.7702 -1.1607  0.1679
  154MOL0     H20316   9.699   4.123   6.156 -2.3905 -0.8054 -0.6603
  154MOL0     H20317   9.910   4.054   6.294 -0.7837 -0.6374 -0.6645
  154MOL0     H20318   9.892   4.009   6.730 -2.8010 -1.9552 -3.0686
  154MOL0     H20319   9.919   4.178   6.701  0.5450 -0.4437  0.1537
  154MOL0     H20320  10.140   3.969   6.660  0.3842  2.0773 -2.3473
  154MOL0     H20321  10.165   4.135   6.656 -1.4514  0.1738 -1.3323
  154MOL0     H20322  10.044   4.024   6.921 -1.9162  1.9045  0.0235
  154MOL0     H20323  10.141   4.162   6.907 -0.3499  0.1488 -0.0990
  154MOL0     H20324  10.278   4.007   7.005  4.0936 -1.5999 -0.7754
  154MOL0     H20325  10.228   3.865   6.904  0.6671  0.1912 -2.9221
  154MOL0     H20326  10.599   3.996   6.776  0.4280  0.8879 -0.9345
  154MOL0     H20327   9.680   4.081   6.652 -2.4293  0.2153 -0.3624
  154MOL0     H20328   9.486   4.129   6.526  2.1586 -0.4550  3.0346
  155MOL0     O20329   1.362   1.940  10.206 -0.0992 -0.3454  0.5100
  155MOL0     C20330   1.349   1.864  10.109 -0.7048 -0.1366 -0.0813
  155MOL0     O20331   1.449   1.816  10.034  0.3479 -0.0989  0.3375
  155MOL0     C20332   1.576   1.875  10.038  0.7054  0.3291  0.5025
  155MOL0     C20333   1.674   1.835  10.129  0.7774  0.1274  0.4523
  155MOL0     C20334   1.796   1.888  10.115 -0.2443 -0.4513 -0.7434
  155MOL0     C20335   1.834   1.973  10.019 -0.5745  0.6453  0.0235
  155MOL0     O20336   1.964   2.037  10.037  0.1159 -0.3801  0.9414
  155MOL0     C20337   2.012   2.112   9.926 -0.2130  0.2964 -0.8014
  155MOL0     C20338   2.162   2.111   9.907  0.4641  0.0414 -0.5839
  155MOL0     C20339   2.246   2.164  10.021 -0.3099  0.3143  0.2088
  155MOL0     C20340   2.397   2.140   9.983  0.2697  0.5037  0.3183
  155MOL0     C20341   2.482   2.262   9.947  0.5426 -0.0489  0.4259
  155MOL0     C20342   2.631   2.238   9.957 -0.7108  0.1562  0.2582
  155MOL0     C20343   2.719   2.361   9.935  0.1734 -0.1792  0.2913
  155MOL0     C20344   2.702   2.431   9.800  0.4746  0.6674 -0.7183
  155MOL0     N20345   2.809   2.526   9.794  0.1035  0.1491  0.4339
  155MOL0     C20346   2.933   2.493   9.757 -0.0865  0.1059  0.8656
  155MOL0     C20347   3.005   2.608   9.760  1.1402 -0.6738  0.4213
  155MOL0     C20348   3.146   2.629   9.719  0.6603 -0.0021  0.2129
  155MOL0     C20349   3.153   2.713   9.590  0.1753  0.2859 -0.4747
  155MOL0     C20350   3.302   2.707   9.533 -0.1343 -0.7099  0.4835
  155MOL0     C20351   3.319   2.813   9.425 -0.2069 -0.3247 -0.6219
  155MOL0     O20352   3.300   2.934   9.496  0.5061 -0.2679 -0.2667
  155MOL0     C20353   3.311   3.057   9.426  0.6544 -0.3196 -0.2824
  155MOL0     C20354   3.314   3.172   9.506 -0.7748 -0.3241  0.5947
  155MOL0     C20355   3.307   3.302   9.447 -0.6532  0.2982  0.2852
  155MOL0     C20356   3.314   3.311   9.302  0.5808 -0.4750 -0.1300
  155MOL0     C20357   3.304   3.448   9.238  0.5302 -0.1454  0.2026
  155MOL0     O20358   3.331   3.455   9.100  0.1377  0.1482 -0.1616
  155MOL0     C20359   3.269   3.540   9.023  1.4347 -0.7860  0.3034
  155MOL0     C20360   3.338   3.613   8.933  0.5661 -1.2371  0.4773
  155MOL0     C20361   3.273   3.701   8.840 -0.0127 -0.0394  0.2721
  155MOL0     C20362   3.140   3.732   8.843 -0.4560 -0.2984  0.0745
  155MOL0     O20363   3.094   3.809   8.742 -0.5830  1.1975  0.3256
  155MOL0     C20364   2.952   3.846   8.724 -0.5063  0.0137 -0.5052
  155MOL0     C20365   2.942   3.940   8.607  0.3669  0.1934  0.4540
  155MOL0     C20366   2.795   3.972   8.571 -0.1436 -0.7964 -0.8474
  155MOL0     C20367   2.786   4.062   8.450 -0.5280  0.5485  0.1340
  155MOL0     C20368   2.645   4.044   8.382  0.0756 -0.6277  1.2013
  155MOL0     C20369   2.530   4.098   8.472 -0.3858 -0.5510  0.1957
  155MOL0     C20370   2.392   4.028   8.456 -0.6355  0.1257 -0.9641
  155MOL0     C20371   2.263   4.106   8.513 -0.6597  0.4038  0.5173
  155MOL0    Cl20372   2.119   4.008   8.538  0.2541 -0.1057  0.0824
  155MOL0     C20373   3.060   3.663   8.938 -0.1799 -0.0023  0.8818
  155MOL0     C20374   3.125   3.561   9.018 -0.2028  0.3475  0.4866
  155MOL0     O20375   3.269   3.546   9.302 -0.7904 -0.1285 -0.3503
  155MOL0     C20376   3.309   3.191   9.232  0.3332 -0.1149 -0.7449
  155MOL0     C20377   3.312   3.061   9.292 -0.3686 -0.5602 -0.2429
  155MOL0     N20378   2.919   2.711   9.793  0.4125 -0.8241  0.5987
  155MOL0     N20379   2.800   2.660   9.805  0.2683  0.4949  0.1774
  155MOL0     C20380   1.737   2.015   9.928  0.8844  0.6348 -1.2274
  155MOL0     C20381   1.609   1.968   9.934 -0.0103  0.2909  0.6634
  155MOL0     C20382   1.206   1.818  10.078  0.2587 -0.4069 -0.6539
  155MOL0     C20383   1.176   1.778   9.944  0.7269  0.3434  0.2551
  155MOL0     C20384   1.038   1.736   9.905 -0.4619  0.1589  0.4444
  155MOL0     C20385   0.941   1.745  10.011 -0.4454 -1.0079  0.7296
  155MOL0     O20386   0.802   1.736  10.003 -0.1518  0.3591  0.2702
  155MOL0     C20387   0.745   1.706   9.878 -0.6959 -0.0360  0.1915
  155MOL0     C20388   0.604   1.685   9.896  0.2184 -0.2425 -0.1887
  155MOL0     C20389   0.525   1.825   9.917  0.1740  0.0488  0.1003
  155MOL0     C20390   0.378   1.808   9.942 -0.1744  0.3005  0.0730
  155MOL0     C20391   0.345   1.789  10.080  0.3973  1.3587  0.0096
  155MOL0     C20392   0.332   1.760  10.195  0.0690  0.3665  0.1651
  155MOL0     C20393   0.982   1.774  10.140  0.1066 -0.0109  0.0734
  155MOL0     C20394   1.107   1.811  10.178 -1.4740 -0.3320  0.5388
  155MOL0     H20395   1.662   1.755  10.201  4.3275 -1.9178 -0.9593
  155MOL0     H20396   1.875   1.866  10.187 -0.8826 -1.7948 -0.4102
  155MOL0     H20397   1.968   2.212   9.926  0.3511  0.5495 -0.3527
  155MOL0     H20398   1.980   2.057   9.837 -3.0913 -0.9931  0.8618
  155MOL0     H20399   2.179   2.160   9.811 -3.1101 -2.3384 -2.6620
  155MOL0     H20400   2.195   2.009   9.889 -1.4086 -0.7435  0.1729
  155MOL0     H20401   2.213   2.134  10.121  0.6157  1.9195  1.0277
  155MOL0     H20402   2.239   2.272  10.035  3.4753  0.3326  3.5536
  155MOL0     H20403   2.450   2.088  10.064  4.4319 -0.7159 -2.8216
  155MOL0     H20404   2.398   2.078   9.893 -1.1348  3.0349 -1.5875
  155MOL0     H20405   2.462   2.334  10.026 -0.4446 -2.1567  2.1923
  155MOL0     H20406   2.441   2.300   9.853 -2.5737  0.6100  1.9182
  155MOL0     H20407   2.652   2.158   9.886 -1.2624 -1.1033  1.4589
  155MOL0     H20408   2.654   2.194  10.055 -0.2915  1.0336  0.5677
  155MOL0     H20409   2.720   2.430  10.020  0.0609  0.6967 -0.4154
  155MOL0     H20410   2.816   2.311   9.944  0.5310  0.8475  3.6134
  155MOL0     H20411   2.599   2.469   9.797 -0.5280 -1.8568 -1.2017
  155MOL0     H20412   2.722   2.363   9.716  0.1878 -0.9367  0.4657
  155MOL0     H20413   2.980   2.400   9.728 -1.5826 -0.1239 -1.0601
  155MOL0     H20414   3.199   2.534   9.715 -1.4607 -1.2469 -0.0989
  155MOL0     H20415   3.190   2.689   9.799 -1.9334 -1.5580  3.0403
  155MOL0     H20416   3.134   2.819   9.609 -1.8956  0.0227 -0.8272
  155MOL0     H20417   3.081   2.675   9.517 -0.9844 -2.0878  1.7499
  155MOL0     H20418   3.385   2.725   9.602 -1.2216  0.5926  1.5268
  155MOL0     H20419   3.316   2.605   9.496  2.5602 -0.4654  0.6856
  155MOL0     H20420   3.230   2.802   9.363 -0.1681  2.7338 -1.3863
  155MOL0     H20421   3.413   2.810   9.369 -1.0491  0.1857 -2.1069
  155MOL0     H20422   3.314   3.156   9.613 -2.8650 -0.4358  0.6088
  155MOL0     H20423   3.304   3.389   9.511  0.0296 -1.8829  3.5306
  155MOL0     H20424   3.445   3.604   8.919  0.7234  1.8909 -1.3846
  155MOL0     H20425   3.338   3.746   8.765  0.6790  0.0275  0.8901
  155MOL0     H20426   2.921   3.904   8.811  1.5689 -2.5098  2.1026
  155MOL0     H20427   2.880   3.766   8.705 -3.8505  3.1882 -2.6121
  155MOL0     H20428   2.985   3.898   8.515 -2.6011  4.7066 -3.4465
  155MOL0     H20429   2.994   4.035   8.621  1.4524  0.7160 -4.7516
  155MOL0     H20430   2.758   4.024   8.660  2.7219  1.3732 -0.7831
  155MOL0     H20431   2.755   3.873   8.548  0.3141 -1.0717 -0.4712
  155MOL0     H20432   2.784   4.168   8.477  2.4251  1.3629 -2.2971
  155MOL0     H20433   2.865   4.035   8.379 -0.9243 -0.6474  0.1140
  155MOL0     H20434   2.624   3.940   8.356  0.7093  0.0113 -2.4953
  155MOL0     H20435   2.651   4.103   8.290  0.9724 -0.3615  1.4212
  155MOL0     H20436   2.521   4.198   8.429 -1.3551 -0.6311  0.1936
  155MOL0     H20437   2.562   4.099   8.577 -1.2746  0.3846  0.4717
  155MOL0     H20438   2.371   4.004   8.352 -0.4947 -3.9347 -0.2146
  155MOL0     H20439   2.392   3.935   8.515  1.4942  0.5670 -0.1967
  155MOL0     H20440   2.231   4.191   8.452  0.1204 -0.8468 -1.7731
  155MOL0     H20441   2.280   4.129   8.618  0.1030 -0.5607  0.6262
  155MOL0     H20442   2.954   3.682   8.943  0.1541  2.6434 -0.4006
  155MOL0     H20443   3.062   3.506   9.087  1.0467  0.7952  2.0674
  155MOL0     H20444   3.290   3.191   9.125 -0.3717 -4.4547 -0.8155
  155MOL0     H20445   3.305   2.970   9.235 -2.2163 -0.3871 -0.3464
  155MOL0     H20446   1.747   2.097   9.858 -2.3823  0.2689 -2.2631
  155MOL0     H20447   1.533   2.004   9.865 -0.7382  0.1011  1.3548
  155MOL0     H20448   1.255   1.782   9.870 -0.7789  1.3076 -1.3595
  155MOL0     H20449   1.014   1.697   9.807  1.0990  1.0360 -0.3175
  155MOL0     H20450   0.796   1.625   9.826 -1.3252  1.4112 -2.9646
  155MOL0     H20451   0.762   1.794   9.814  0.4315 -0.3947 -0.0227
  155MOL0     H20452   0.566   1.638   9.805 -2.1045 -0.1339  0.6385
  155MOL0     H20453   0.590   1.612   9.977  1.0658 -1.1529 -0.8469
  155MOL0     H20454   0.549   1.880   9.825  2.0952  1.0901  1.1347
  155MOL0     H20455   0.561   1.884  10.002 -2.7995  3.5303 -0.7942
  155MOL0     H20456   0.329   1.897   9.900 -1.1248 -1.3222 -2.5649
  155MOL0     H20457   0.342   1.724   9.881  0.8147 -1.5910  1.9651
  155MOL0     H20458   0.326   1.712  10.291 -2.9597 -1.1470 -0.6674
  155MOL0     H20459   0.903   1.770  10.215 -0.1810 -0.7854 -0.2565
  155MOL0     H20460   1.139   1.860  10.269 -0.8432  0.4064 -0.0716
  156MOL0     O20461   2.314   2.956   5.133  0.3646  0.8229  0.7437
  156MOL0     C20462   2.384   3.051   5.175  0.2509 -0.1005  0.1402
  156MOL0     O20463   2.371   3.109   5.292  0.0690  0.6623 -0.6198
  156MOL0     C20464   2.280   3.053   5.373 -0.4632  0.1411 -0.6184
  156MOL0     C20465   2.328   2.952   5.466 -0.2482 -0.6366 -0.1872
  156MOL0     C20466   2.235   2.908   5.563 -0.4150  0.2779  0.4443
  156MOL0     C20467   2.109   2.963   5.574  0.9948 -0.2006  0.1699
  156MOL0     O20468   2.025   2.912   5.681 -0.5951 -0.0648 -0.1288
  156MOL0     C20469   1.889   2.946   5.690  0.5574 -0.1008 -0.6766
  156MOL0     C20470   1.819   2.869   5.799 -1.3128 -0.0352 -0.3179
  156MOL0     C20471   1.671   2.875   5.791  0.6913 -0.0406  0.2462
  156MOL0     C20472   1.602   2.828   5.919 -0.0583 -0.3880 -0.9384
  156MOL0     C20473   1.447   2.824   5.917  0.4306  0.7137  0.2455
  156MOL0     C20474   1.400   2.690   5.965  0.6382 -0.0722  0.0246
  156MOL0     C20475   1.246   2.706   5.996 -0.0868 -0.2671  0.2783
  156MOL0     C20476   1.165   2.778   5.892 -0.0533 -0.6161  1.2969
  156MOL0     N20477   1.023   2.779   5.918  0.0268  0.9170 -0.2143
  156MOL0     C20478   0.930   2.698   5.848  0.9170 -0.6868 -0.5295
  156MOL0     C20479   0.805   2.755   5.871 -0.5506 -0.6869  0.2561
  156MOL0     C20480   0.676   2.713   5.811  0.1771  0.0302 -0.0422
  156MOL0     C20481   0.551   2.723   5.906  0.2818  0.7194 -0.9488
  156MOL0     C20482   0.426   2.701   5.822  1.0797 -0.4918 -0.3606
  156MOL0     C20483   0.294   2.689   5.914  0.4274  1.0334  0.3280
  156MOL0     O20484   0.187   2.634   5.830 -0.6179 -0.2768  0.1259
  156MOL0     C20485   0.059   2.660   5.875 -0.1383  0.5930  0.7184
  156MOL0     C20486  -0.038   2.728   5.801 -0.5026 -0.1814  0.1007
  156MOL0     C20487  -0.174   2.744   5.842 -0.8305  0.2702 -0.5312
  156MOL0     C20488  -0.216   2.679   5.963 -0.3870 -0.5062 -0.0927
  156MOL0     C20489  -0.363   2.684   5.994  0.3156 -0.3277 -0.3508
  156MOL0     O20490  -0.437   2.781   5.932 -0.6428 -0.4828 -0.1875
  156MOL0     C20491  -0.576   2.770   5.935  0.3614  0.2562  0.3656
  156MOL0     C20492  -0.642   2.733   6.056  0.2018  0.0856  0.1465
  156MOL0     C20493  -0.779   2.722   6.058  0.0084 -0.2530  0.6196
  156MOL0     C20494  -0.855   2.741   5.937 -0.6524  0.4530  0.4987
  156MOL0     O20495  -0.985   2.706   5.923  0.0737 -0.3246  0.6929
  156MOL0     C20496  -1.055   2.689   6.049  0.0023 -0.0456  0.5293
  156MOL0     C20497  -1.204   2.645   6.031 -0.3145  0.5189  0.0685
  156MOL0     C20498  -1.215   2.501   5.967 -0.3036  0.0016  0.2947
  156MOL0     C20499  -1.363   2.457   5.951 -0.4494  0.2665 -0.2289
  156MOL0     C20500  -1.390   2.340   5.864  0.4965  0.1333  0.5072
  156MOL0     C20501  -1.330   2.207   5.913 -0.2255 -0.3523 -0.2200
  156MOL0     C20502  -1.387   2.086   5.844  1.3746 -0.2850 -0.1259
  156MOL0     C20503  -1.340   2.069   5.700 -0.0531  0.6151  0.1412
  156MOL0    Cl20504  -1.450   2.143   5.577 -0.3265 -0.1307  0.1551
  156MOL0     C20505  -0.789   2.793   5.824  0.4307  0.2000  0.6806
  156MOL0     C20506  -0.652   2.813   5.820  0.1220  0.0506 -0.2833
  156MOL0     O20507  -0.399   2.588   6.061 -0.4671  0.0779  0.0994
  156MOL0     C20508  -0.118   2.611   6.033  0.4430  0.9152 -1.4163
  156MOL0     C20509   0.016   2.595   5.993  0.4754 -0.0699  0.1939
  156MOL0     N20510   0.827   2.866   5.959  0.1254  0.8312  0.1437
  156MOL0     N20511   0.948   2.874   5.989  0.2569 -0.2264  0.1265
  156MOL0     C20512   2.074   3.074   5.496  0.1103 -0.0594  0.4304
  156MOL0     C20513   2.150   3.115   5.386 -0.7250  0.1178 -1.1146
  156MOL0     C20514   2.493   3.116   5.097  0.2661  0.1516 -0.6385
  156MOL0     C20515   2.596   3.184   5.160  0.0367 -0.3650 -0.4118
  156MOL0     C20516   2.705   3.222   5.083  0.2114 -0.4209 -0.0510
  156MOL0     C20517   2.720   3.190   4.949 -1.0688  0.3932 -0.1570
  156MOL0     O20518   2.846   3.217   4.892 -0.2209  0.5071 -0.0908
  156MOL0     C20519   2.868   3.188   4.755  0.7070  0.1656 -0.9837
  156MOL0     C20520   3.004   3.228   4.719 -0.1313  0.1619  0.6717
  156MOL0     C20521   3.020   3.379   4.742  0.0685  0.6570  0.5301
  156MOL0     C20522   3.158   3.417   4.686 -0.7886 -1.4008  0.5982
  156MOL0     C20523   3.243   3.490   4.782  0.3920  0.9068 -0.0622
  156MOL0     C20524   3.298   3.536   4.874 -0.3151  0.0197 -0.5614
  156MOL0     C20525   2.618   3.117   4.887 -0.3392  0.5826  0.7095
  156MOL0     C20526   2.507   3.075   4.963  0.2157  0.2536  0.0353
  156MOL0     H20527   2.427   2.909   5.460 -0.8637 -2.1968  0.2710
  156MOL0     H20528   2.263   2.837   5.641  0.4686  1.8638  1.6317
  156MOL0     H20529   1.853   2.924   5.589 -0.2054 -2.6985  0.0802
  156MOL0     H20530   1.876   3.053   5.706 -0.1519 -0.0598 -1.4282
  156MOL0     H20531   1.848   2.920   5.892 -0.9031  0.6209 -0.7958
  156MOL0     H20532   1.865   2.770   5.803  2.1424  1.3602 -1.2120
  156MOL0     H20533   1.640   2.814   5.705 -2.3538  1.5897  0.0509
  156MOL0     H20534   1.643   2.979   5.775 -1.5428 -0.8017 -1.3312
  156MOL0     H20535   1.641   2.729   5.941 -2.6798 -1.3474 -0.2753
  156MOL0     H20536   1.634   2.885   6.007 -3.6246 -0.7940  0.8044
  156MOL0     H20537   1.419   2.840   5.812  2.1146 -0.1386 -0.3759
  156MOL0     H20538   1.419   2.913   5.974 -0.5084  0.9581 -0.5648
  156MOL0     H20539   1.459   2.666   6.054  1.3476 -4.2211 -1.3325
  156MOL0     H20540   1.422   2.616   5.888 -1.6466 -2.7516  1.7402
  156MOL0     H20541   1.194   2.610   6.001 -3.0420  1.0539 -1.7363
  156MOL0     H20542   1.233   2.758   6.091 -1.8024  0.5816 -0.3668
  156MOL0     H20543   1.178   2.743   5.789 -3.5793  4.2069 -1.2081
  156MOL0     H20544   1.196   2.883   5.888  1.5775 -1.0822 -1.8797
  156MOL0     H20545   0.941   2.611   5.784 -3.2815 -1.7550 -0.1390
  156MOL0     H20546   0.693   2.612   5.772 -1.5561  0.3268 -1.6945
  156MOL0     H20547   0.668   2.773   5.720  1.6371 -0.8510 -0.7976
  156MOL0     H20548   0.554   2.813   5.967  1.7248 -0.0114  0.1237
  156MOL0     H20549   0.552   2.638   5.975 -0.5509  1.6608  0.2563
  156MOL0     H20550   0.427   2.783   5.750 -0.0702  0.5814  0.7804
  156MOL0     H20551   0.429   2.610   5.762  0.6650  0.2231 -1.4992
  156MOL0     H20552   0.261   2.783   5.959 -3.3440 -1.0183  2.3687
  156MOL0     H20553   0.305   2.627   6.004 -1.4074  1.8181  1.1507
  156MOL0     H20554   0.005   2.769   5.710 -1.4885  2.1826  0.6285
  156MOL0     H20555  -0.239   2.804   5.779 -1.2361  2.2767  1.6525
  156MOL0     H20556  -0.595   2.716   6.152  1.5258 -2.9362 -0.8908
  156MOL0     H20557  -0.832   2.676   6.140  1.0313 -3.1355 -0.1912
  156MOL0     H20558  -1.065   2.787   6.095 -0.6801 -1.2426  3.1070
  156MOL0     H20559  -1.010   2.619   6.119 -1.2306 -1.5722 -0.1384
  156MOL0     H20560  -1.240   2.723   5.963  1.5233  0.3834 -1.1107
  156MOL0     H20561  -1.249   2.628   6.129  1.2011 -3.9453  0.2280
  156MOL0     H20562  -1.169   2.428   6.035 -0.4548  3.1705  4.1141
  156MOL0     H20563  -1.170   2.497   5.867 -3.7066 -0.9296 -1.3307
  156MOL0     H20564  -1.398   2.433   6.052 -1.0638  1.1185 -0.2263
  156MOL0     H20565  -1.416   2.548   5.920  0.3962  1.5972  1.9900
  156MOL0     H20566  -1.368   2.371   5.761 -0.8236 -1.3932 -0.2800
  156MOL0     H20567  -1.498   2.322   5.863  0.2776  1.3276 -0.0491
  156MOL0     H20568  -1.350   2.205   6.021 -0.2644  2.4806 -0.0967
  156MOL0     H20569  -1.223   2.219   5.892 -0.5425  2.5989 -0.6657
  156MOL0     H20570  -1.357   1.999   5.904 -2.0223 -1.3227  0.2983
  156MOL0     H20571  -1.495   2.071   5.837  1.7113 -2.3265 -2.3965
  156MOL0     H20572  -1.339   1.960   5.693  4.8528  0.4591 -0.7905
  156MOL0     H20573  -1.237   2.103   5.683 -0.4583  1.3354 -0.9685
  156MOL0     H20574  -0.850   2.812   5.737 -1.0100  1.7508  1.9453
  156MOL0     H20575  -0.608   2.835   5.723  0.3536 -1.9671 -0.6644
  156MOL0     H20576  -0.159   2.557   6.118 -0.5867 -0.8161 -2.9437
  156MOL0     H20577   0.080   2.526   6.047  1.3425  0.9384  0.4905
  156MOL0     H20578   1.985   3.133   5.512  1.8890  2.9300 -0.0025
  156MOL0     H20579   2.125   3.203   5.328  3.4736  0.5311 -2.5756
  156MOL0     H20580   2.598   3.211   5.265 -2.5099  1.1542 -0.6587
  156MOL0     H20581   2.778   3.288   5.128 -1.1537  0.3622  1.1036
  156MOL0     H20582   2.802   3.249   4.692 -1.7365 -1.6604 -0.3277
  156MOL0     H20583   2.858   3.082   4.730  2.5827 -0.2326 -0.2362
  156MOL0     H20584   3.084   3.168   4.765  1.1425  1.9810  0.9164
  156MOL0     H20585   3.019   3.200   4.614  0.8102 -0.0930  0.8626
  156MOL0     H20586   3.006   3.401   4.848 -1.7779 -2.4101  1.0346
  156MOL0     H20587   2.947   3.435   4.683  0.1823  3.2631  2.6386
  156MOL0     H20588   3.212   3.322   4.678  0.4497 -0.9180  2.5702
  156MOL0     H20589   3.158   3.473   4.592  1.2106 -0.7902  0.9157
  156MOL0     H20590   3.359   3.582   4.949  0.1636  0.2585 -1.0977
  156MOL0     H20591   2.639   3.082   4.786 -3.6903 -1.4177  0.5608
  156MOL0     H20592   2.442   2.993   4.934  2.8919 -1.9204 -0.2182
  157MOL0     O20593   3.263   3.625   1.780  0.5806 -0.1274 -0.2081
  157MOL0     C20594   3.211   3.519   1.757 -0.7038 -0.4039 -0.7755
  157MOL0     O20595   3.277   3.400   1.765  0.4121  0.1054  1.1998
  157MOL0     C20596   3.402   3.392   1.810  1.0836  0.2708 -0.8209
  157MOL0     C20597   3.444   3.433   1.932 -0.0093 -0.1632  0.1806
  157MOL0     C20598   3.584   3.433   1.963  0.3258  1.2006 -0.1994
  157MOL0     C20599   3.686   3.371   1.884 -0.2018 -0.2681 -0.2617
  157MOL0     O20600   3.821   3.379   1.930  0.5661  0.3289 -0.4605
  157MOL0     C20601   3.896   3.266   1.886 -0.2773  0.1762 -0.7249
  157MOL0     C20602   4.003   3.224   1.978  0.2347  0.2669 -1.0186
  157MOL0     C20603   4.081   3.097   1.934 -0.2276 -0.7361  0.0703
  157MOL0     C20604   4.119   3.100   1.787 -0.6942 -0.0032  0.3282
  157MOL0     C20605   4.224   2.995   1.754  0.2698  0.0067  0.5517
  157MOL0     C20606   4.211   2.951   1.605 -1.1614 -0.8053  0.0156
  157MOL0     C20607   4.318   2.853   1.557  0.2321 -0.1025 -0.5075
  157MOL0     C20608   4.456   2.918   1.540  0.2574 -0.0364 -0.0456
  157MOL0     N20609   4.574   2.828   1.523  0.4479 -0.7138 -0.5980
  157MOL0     C20610   4.695   2.821   1.601 -0.0677  0.4738 -0.6113
  157MOL0     C20611   4.765   2.732   1.523  0.2022  0.1560  0.0529
  157MOL0     C20612   4.898   2.677   1.547 -0.0621 -0.7184 -0.8232
  157MOL0     C20613   4.900   2.597   1.683 -0.2280 -0.0448 -0.1909
  157MOL0     C20614   5.036   2.586   1.741 -0.3183  1.1451 -0.7976
  157MOL0     C20615   5.030   2.504   1.877  0.3479  0.5599  0.2100
  157MOL0     O20616   5.133   2.576   1.961 -0.0736 -0.3319  0.3577
  157MOL0     C20617   5.146   2.543   2.095  0.4585  0.1921  0.3306
  157MOL0     C20618   5.121   2.407   2.135 -0.4952  0.7684 -0.0443
  157MOL0     C20619   5.138   2.361   2.265  0.2409 -0.4473 -0.0873
  157MOL0     C20620   5.177   2.460   2.360  0.7979  0.0604 -0.0053
  157MOL0     C20621   5.160   2.422   2.503  0.3149 -0.2063 -0.1894
  157MOL0     O20622   5.101   2.293   2.519  0.4926 -1.0412 -0.4010
  157MOL0     C20623   5.034   2.255   2.630 -0.8193 -0.2487 -0.4599
  157MOL0     C20624   4.983   2.330   2.732 -0.1120 -0.3179  0.3297
  157MOL0     C20625   4.886   2.282   2.818  0.7621  0.0393 -0.8969
  157MOL0     C20626   4.845   2.149   2.813 -0.5971  0.8334  0.0413
  157MOL0     O20627   4.742   2.111   2.899  0.0858 -0.6797 -0.6416
  157MOL0     C20628   4.689   1.976   2.882 -0.0960 -0.1090  0.8107
  157MOL0     C20629   4.602   1.937   3.001 -0.7540 -0.7044  0.4448
  157MOL0     C20630   4.671   1.949   3.127 -0.1316 -0.3065 -0.2560
  157MOL0     C20631   4.581   1.900   3.250 -0.5402 -0.2249  0.0661
  157MOL0     C20632   4.660   1.924   3.383  0.0530  0.4351  0.1050
  157MOL0     C20633   4.747   1.807   3.421 -0.4038  0.1686  0.1918
  157MOL0     C20634   4.779   1.819   3.571  0.3539  0.3992 -0.4674
  157MOL0     C20635   4.903   1.738   3.616  0.1508 -0.0492  0.3390
  157MOL0    Cl20636   5.044   1.823   3.567 -0.0131 -0.1577  0.4447
  157MOL0     C20637   4.906   2.063   2.709  0.0923  0.4906 -0.0824
  157MOL0     C20638   4.995   2.124   2.616  0.6986 -0.2521  0.6515
  157MOL0     O20639   5.202   2.503   2.593  0.2832 -0.0657 -0.1798
  157MOL0     C20640   5.203   2.595   2.322  0.2171 -0.4435  0.2281
  157MOL0     C20641   5.183   2.633   2.189  0.8946 -0.3640 -0.6644
  157MOL0     N20642   4.692   2.693   1.411  0.3587  0.1209  0.1190
  157MOL0     N20643   4.574   2.751   1.413 -0.0867 -0.1571 -0.3458
  157MOL0     C20644   3.639   3.316   1.765 -0.3885 -0.2639  0.2045
  157MOL0     C20645   3.497   3.329   1.732 -0.5028  0.5306  0.3645
  157MOL0     C20646   3.075   3.518   1.719  0.5444 -0.2076  0.6607
  157MOL0     C20647   2.984   3.418   1.768  0.1709 -0.1874 -0.1435
  157MOL0     C20648   2.847   3.425   1.754  0.3905 -0.9160  0.9012
  157MOL0     C20649   2.793   3.528   1.667 -0.4076  0.1278 -0.1357
  157MOL0     O20650   2.660   3.515   1.640  0.0132  0.5283 -0.5685
  157MOL0     C20651   2.609   3.589   1.526  0.0261  0.3627 -0.6893
  157MOL0     C20652   2.482   3.526   1.472 -0.1976 -0.3239 -0.9037
  157MOL0     C20653   2.435   3.584   1.335  0.4681  0.3936 -0.5318
  157MOL0     C20654   2.346   3.481   1.265  0.0547  0.2725  0.2743
  157MOL0     C20655   2.287   3.536   1.149  0.3559 -0.7110 -0.0890
  157MOL0     C20656   2.225   3.592   1.059 -1.1823 -0.1158 -0.0958
  157MOL0     C20657   2.881   3.630   1.615 -0.0887 -0.0161  0.4157
  157MOL0     C20658   3.017   3.615   1.631 -1.1433  0.4555 -0.1711
  157MOL0     H20659   3.382   3.485   2.004  0.3833  3.8931 -2.0876
  157MOL0     H20660   3.598   3.477   2.061  2.1627 -0.0963  0.1636
  157MOL0     H20661   3.954   3.294   1.797  1.0980  2.4475  0.7525
  157MOL0     H20662   3.823   3.187   1.870  0.3333 -0.5955  0.2044
  157MOL0     H20663   3.950   3.213   2.073  0.3492 -1.1709 -1.1015
  157MOL0     H20664   4.077   3.305   1.982  1.1688 -0.5005 -2.1651
  157MOL0     H20665   4.014   3.011   1.942 -2.4946  0.6119 -2.4881
  157MOL0     H20666   4.171   3.096   1.995  0.7306 -0.8340 -1.2978
  157MOL0     H20667   4.030   3.080   1.725 -0.2825  3.0310 -1.4330
  157MOL0     H20668   4.146   3.204   1.767 -1.2134  0.2958  1.1008
  157MOL0     H20669   4.226   2.911   1.824  0.7992  1.6016  2.5458
  157MOL0     H20670   4.322   3.040   1.771  0.4165 -0.5095  1.1239
  157MOL0     H20671   4.190   3.039   1.544 -3.2565 -1.8004 -0.7852
  157MOL0     H20672   4.112   2.905   1.599 -0.5213 -2.0201 -2.0826
  157MOL0     H20673   4.318   2.786   1.644 -0.6388  0.0772 -0.3624
  157MOL0     H20674   4.289   2.791   1.472  0.9388 -0.4486 -0.5039
  157MOL0     H20675   4.485   2.971   1.632  1.3507 -2.4266  1.0794
  157MOL0     H20676   4.441   2.979   1.451 -2.4319 -0.0339  0.3271
  157MOL0     H20677   4.730   2.874   1.688  2.5743 -0.5132 -0.9956
  157MOL0     H20678   4.979   2.750   1.544  3.1661 -3.9765 -0.0799
  157MOL0     H20679   4.923   2.614   1.461  0.9179  0.8745 -1.7448
  157MOL0     H20680   4.852   2.503   1.654  0.8413 -1.1047  1.3318
  157MOL0     H20681   4.827   2.635   1.756  0.1395  2.5597 -1.0711
  157MOL0     H20682   5.110   2.537   1.677 -0.0572  1.9313 -1.1128
  157MOL0     H20683   5.071   2.686   1.768 -1.6062  0.9674  1.8415
  157MOL0     H20684   5.058   2.400   1.862  0.7498  0.3950  1.8886
  157MOL0     H20685   4.936   2.507   1.933 -0.5487 -0.2655 -1.1976
  157MOL0     H20686   5.093   2.330   2.064  1.2731 -1.3740  1.4439
  157MOL0     H20687   5.120   2.255   2.285 -0.5761 -0.2136  0.4669
  157MOL0     H20688   5.011   2.434   2.748 -0.3085 -0.2981  0.5706
  157MOL0     H20689   4.846   2.344   2.897  1.4080  0.2922 -0.7591
  157MOL0     H20690   4.768   1.900   2.881  1.2646  1.2478  1.3911
  157MOL0     H20691   4.623   1.974   2.795 -0.3979 -0.6134  1.0475
  157MOL0     H20692   4.585   1.829   3.002  1.8763 -1.1900  0.9047
  157MOL0     H20693   4.513   1.999   2.992 -2.0523 -2.5443 -0.0672
  157MOL0     H20694   4.701   2.052   3.147  3.0949 -1.5607  2.1021
  157MOL0     H20695   4.763   1.890   3.122  1.4685  1.9784  0.4656
  157MOL0     H20696   4.493   1.964   3.240 -1.7260 -1.9335 -0.9959
  157MOL0     H20697   4.537   1.801   3.236 -3.2280  0.6829  1.2690
  157MOL0     H20698   4.584   1.931   3.462  0.8762  0.6043  0.8875
  157MOL0     H20699   4.700   2.026   3.391 -0.6651  0.9193 -1.8588
  157MOL0     H20700   4.835   1.812   3.357 -1.0568  0.3087 -0.7213
  157MOL0     H20701   4.699   1.713   3.393  1.4603 -0.5384 -0.7537
  157MOL0     H20702   4.785   1.925   3.597 -3.3484  1.1067 -1.8511
  157MOL0     H20703   4.693   1.780   3.627 -0.1299 -3.9198 -3.6743
  157MOL0     H20704   4.893   1.646   3.557  0.5082 -0.5371  1.0238
  157MOL0     H20705   4.908   1.716   3.723  0.1109  0.6347  0.4866
  157MOL0     H20706   4.882   1.958   2.697 -0.1722  0.3053  1.7378
  157MOL0     H20707   5.037   2.068   2.533 -2.4717 -1.1408 -0.5347
  157MOL0     H20708   5.225   2.674   2.392  1.5230  0.2081 -0.8775
  157MOL0     H20709   5.209   2.736   2.165 -1.0491  1.1077  2.8786
  157MOL0     H20710   3.693   3.258   1.691 -1.7214  0.1326 -1.1464
  157MOL0     H20711   3.447   3.297   1.641 -0.9877 -1.7937  1.3665
  157MOL0     H20712   3.018   3.339   1.834 -1.5261  1.8306  3.3965
  157MOL0     H20713   2.779   3.346   1.784  1.1684 -2.4822 -1.2247
  157MOL0     H20714   2.678   3.583   1.441  0.5040 -4.2508 -0.1978
  157MOL0     H20715   2.598   3.693   1.558  1.3627  0.4595 -0.4761
  157MOL0     H20716   2.493   3.418   1.461 -1.3313 -0.5913  0.3951
  157MOL0     H20717   2.413   3.537   1.556  0.5131 -3.7903  0.2859
  157MOL0     H20718   2.521   3.591   1.267  1.2829 -3.2220 -0.0681
  157MOL0     H20719   2.383   3.678   1.351  0.4915 -0.0417  2.5439
  157MOL0     H20720   2.406   3.400   1.222  0.4402  0.6827  0.0263
  157MOL0     H20721   2.264   3.447   1.327 -1.5146  1.3238 -1.1284
  157MOL0     H20722   2.173   3.643   0.981 -0.5565 -1.0488 -1.1697
  157MOL0     H20723   2.853   3.716   1.555  1.9451 -0.1899 -0.8797
  157MOL0     H20724   3.095   3.682   1.595  0.5395 -0.2494  1.8969
  158MOL0     O20725   1.224   6.891   8.478  0.0617  0.2683  0.4259
  158MOL0     C20726   1.312   6.805   8.445  0.2235 -0.4489 -0.6046
  158MOL0     O20727   1.290   6.665   8.458 -0.0506 -0.2152 -0.1572
  158MOL0     C20728   1.162   6.628   8.501  0.6910 -0.6165  0.3092
  158MOL0     C20729   1.120   6.664   8.630  0.1750 -0.3019 -0.3574
  158MOL0     C20730   0.982   6.632   8.669  0.3645  0.3527 -0.1632
  158MOL0     C20731   0.900   6.550   8.588 -0.2727 -0.3648 -1.0124
  158MOL0     O20732   0.793   6.512   8.662 -0.3979 -0.3389 -0.0358
  158MOL0     C20733   0.681   6.446   8.590 -0.5697 -1.3511 -0.1840
  158MOL0     C20734   0.567   6.404   8.686 -0.0463  1.0279  0.1467
  158MOL0     C20735   0.438   6.355   8.611 -0.2272 -0.0768 -0.1277
  158MOL0     C20736   0.322   6.291   8.694  0.2638 -0.3044 -0.1216
  158MOL0     C20737   0.225   6.196   8.607 -1.3327 -0.0695  0.0215
  158MOL0     C20738   0.164   6.266   8.488  0.2824  0.5527  0.0383
  158MOL0     C20739   0.063   6.174   8.410  0.4068  0.9963  0.1357
  158MOL0     C20740  -0.057   6.114   8.503 -0.4636  0.5893 -0.1452
  158MOL0     N20741  -0.150   6.059   8.407 -0.4576 -0.2039  0.9374
  158MOL0     C20742  -0.126   5.941   8.339 -0.1398 -0.2140  0.4186
  158MOL0     C20743  -0.244   5.909   8.276 -0.7882  0.5735 -0.3439
  158MOL0     C20744  -0.264   5.761   8.225  0.1144 -0.1467  0.1184
  158MOL0     C20745  -0.403   5.734   8.167  0.1036  0.3647 -0.4403
  158MOL0     C20746  -0.418   5.591   8.103 -0.6251  0.4106 -0.0745
  158MOL0     C20747  -0.569   5.569   8.080 -0.2968  0.3975 -0.3164
  158MOL0     O20748  -0.586   5.445   8.009 -0.1391  0.2014  0.2889
  158MOL0     C20749  -0.711   5.411   7.961 -0.8798 -0.0866  0.4425
  158MOL0     C20750  -0.809   5.510   7.930  0.1709  0.6283 -0.4355
  158MOL0     C20751  -0.915   5.467   7.856  0.2918 -0.4247  0.6878
  158MOL0     C20752  -0.947   5.331   7.851 -0.7191  0.0637 -0.8555
  158MOL0     C20753  -1.082   5.287   7.799 -0.4928  0.9780  0.2383
  158MOL0     O20754  -1.175   5.380   7.772 -0.1183  0.1071 -0.4172
  158MOL0     C20755  -1.304   5.348   7.743 -0.8352 -0.1544  0.1040
  158MOL0     C20756  -1.402   5.412   7.820  0.5011  0.1333  0.0232
  158MOL0     C20757  -1.531   5.408   7.775 -0.4444 -0.0775  0.3820
  158MOL0     C20758  -1.575   5.330   7.670 -0.3053 -0.8443 -0.6085
  158MOL0     O20759  -1.705   5.309   7.627  0.0716 -0.8762 -0.6599
  158MOL0     C20760  -1.813   5.393   7.663  0.0043 -0.5696 -0.4922
  158MOL0     C20761  -1.917   5.381   7.557  0.8678 -0.8431  0.3822
  158MOL0     C20762  -2.056   5.392   7.624  0.8747 -0.9082  0.9356
  158MOL0     C20763  -2.172   5.398   7.529 -0.8716 -0.0357  0.3318
  158MOL0     C20764  -2.303   5.401   7.610 -0.1371 -1.0500 -0.2063
  158MOL0     C20765  -2.410   5.436   7.502  0.3252  0.9649 -0.1924
  158MOL0     C20766  -2.544   5.448   7.578  0.6248  0.0800  0.1125
  158MOL0     C20767  -2.652   5.424   7.467  0.4012 -0.3145  0.1533
  158MOL0    Cl20768  -2.662   5.563   7.353  0.5099 -0.1497 -0.5851
  158MOL0     C20769  -1.473   5.256   7.594  0.4351 -0.5767 -0.1359
  158MOL0     C20770  -1.338   5.272   7.637  0.6417 -0.1302 -0.0706
  158MOL0     O20771  -1.104   5.162   7.797  1.1610 -0.2973  0.2872
  158MOL0     C20772  -0.861   5.237   7.902  0.0665 -0.1104 -0.1893
  158MOL0     C20773  -0.736   5.277   7.945  0.8136  0.0731 -0.3199
  158MOL0     N20774  -0.333   6.013   8.298  0.6840 -0.0004 -0.0189
  158MOL0     N20775  -0.278   6.092   8.381  0.6193 -0.6070 -0.2495
  158MOL0     C20776   0.949   6.506   8.469 -0.4573  0.2859  0.6456
  158MOL0     C20777   1.074   6.542   8.427 -0.1699  0.1228 -0.0153
  158MOL0     C20778   1.449   6.846   8.397  0.5830 -0.7040  0.4421
  158MOL0     C20779   1.560   6.759   8.377 -0.3278  0.2418 -0.1211
  158MOL0     C20780   1.682   6.813   8.353 -0.9479  0.0527 -0.2753
  158MOL0     C20781   1.694   6.945   8.324 -0.4421  0.1101  0.9080
  158MOL0     O20782   1.821   7.006   8.287  0.0697 -0.5458  0.5641
  158MOL0     C20783   1.914   7.039   8.394  0.2856  1.1165  0.0316
  158MOL0     C20784   1.867   7.171   8.458 -0.0838  0.3965  0.6024
  158MOL0     C20785   1.974   7.252   8.538 -0.0962  0.6683 -0.1552
  158MOL0     C20786   2.020   7.177   8.662  0.4955 -0.3380  0.6893
  158MOL0     C20787   2.109   7.259   8.748  0.1177  0.4140 -0.5268
  158MOL0     C20788   2.178   7.328   8.818  0.3076  0.3896  0.2799
  158MOL0     C20789   1.586   7.029   8.324  0.4770  0.1529  0.5492
  158MOL0     C20790   1.462   6.981   8.363  0.1181  0.6697  0.4361
  158MOL0     H20791   1.180   6.735   8.685 -0.9269  1.5186 -1.4087
  158MOL0     H20792   0.948   6.664   8.767 -1.5145  0.2354 -0.7472
  158MOL0     H20793   0.714   6.350   8.549  1.7695 -0.7693  0.1531
  158MOL0     H20794   0.650   6.518   8.513  2.5443 -0.8784 -1.1837
  158MOL0     H20795   0.548   6.478   8.764  0.3525 -1.4160  2.7094
  158MOL0     H20796   0.617   6.326   8.743 -1.5415  1.4028  2.0642
  158MOL0     H20797   0.459   6.276   8.538 -1.1425 -0.8960  0.4781
  158MOL0     H20798   0.390   6.440   8.562 -0.8996  0.0607  0.7679
  158MOL0     H20799   0.372   6.229   8.769  0.0634  0.1939  0.4281
  158MOL0     H20800   0.266   6.367   8.748  0.9935 -0.1605  0.4454
  158MOL0     H20801   0.161   6.139   8.674 -2.1476  0.9596  0.1422
  158MOL0     H20802   0.294   6.130   8.554  0.3724 -0.0902  2.1183
  158MOL0     H20803   0.234   6.300   8.412 -0.9889  0.2069 -1.3432
  158MOL0     H20804   0.109   6.344   8.542 -2.8156 -2.0200  0.9677
  158MOL0     H20805   0.019   6.224   8.324  0.2938 -0.1552 -0.4990
  158MOL0     H20806   0.111   6.087   8.364 -1.3923  1.2443 -2.3989
  158MOL0     H20807  -0.099   6.197   8.561 -0.0210  1.2624 -0.7555
  158MOL0     H20808  -0.026   6.035   8.571 -1.1621 -1.6460 -2.2835
  158MOL0     H20809  -0.034   5.885   8.335  0.3272  0.5842 -0.6080
  158MOL0     H20810  -0.254   5.690   8.307 -0.1046 -0.9571 -0.5398
  158MOL0     H20811  -0.191   5.733   8.149  0.8598  0.4782  0.5857
  158MOL0     H20812  -0.425   5.801   8.083 -0.1236  2.3814  1.1618
  158MOL0     H20813  -0.477   5.759   8.244  0.9962 -0.9359  0.9024
  158MOL0     H20814  -0.362   5.586   8.009 -1.2640 -0.1990 -0.4377
  158MOL0     H20815  -0.389   5.514   8.174  3.6064 -0.0308 -2.0033
  158MOL0     H20816  -0.599   5.653   8.017 -1.3979 -0.8710 -1.5464
  158MOL0     H20817  -0.629   5.581   8.170  0.6275 -2.1754  0.7638
  158MOL0     H20818  -0.778   5.613   7.942 -2.9215  1.6891 -0.5642
  158MOL0     H20819  -0.961   5.557   7.815  3.6449  1.3990  0.5791
  158MOL0     H20820  -1.358   5.460   7.907 -0.1648  0.6815  0.0617
  158MOL0     H20821  -1.603   5.464   7.835 -0.6058 -0.7055  0.7819
  158MOL0     H20822  -1.780   5.498   7.665 -1.6947  0.0592  3.5926
  158MOL0     H20823  -1.846   5.375   7.765 -1.6766 -0.1224 -0.9248
  158MOL0     H20824  -1.905   5.284   7.508  1.4066 -0.9053  0.6239
  158MOL0     H20825  -1.908   5.461   7.483 -2.2432  0.4659  1.2725
  158MOL0     H20826  -2.054   5.485   7.681  3.1233 -0.0413 -0.4643
  158MOL0     H20827  -2.082   5.312   7.695 -1.4894  0.5155  1.7820
  158MOL0     H20828  -2.164   5.481   7.458 -2.7434 -0.0304  0.0870
  158MOL0     H20829  -2.156   5.307   7.469 -1.2341  0.9275 -1.2757
  158MOL0     H20830  -2.286   5.482   7.682  1.7657  0.4130 -2.1626
  158MOL0     H20831  -2.322   5.304   7.656  3.4404 -2.7268 -1.8649
  158MOL0     H20832  -2.421   5.358   7.426 -2.5282 -0.8213  1.8325
  158MOL0     H20833  -2.403   5.533   7.452 -0.0561  2.3169  2.2341
  158MOL0     H20834  -2.555   5.363   7.647  1.2125  1.0549  1.4704
  158MOL0     H20835  -2.568   5.543   7.626  1.0745 -0.5214  1.6114
  158MOL0     H20836  -2.752   5.400   7.503  0.6115 -0.1309  0.8905
  158MOL0     H20837  -2.638   5.330   7.413  2.4865  0.8943 -1.5566
  158MOL0     H20838  -1.494   5.190   7.510  0.7736  0.5040 -1.0875
  158MOL0     H20839  -1.259   5.213   7.591  0.6594 -0.5193  0.4381
  158MOL0     H20840  -0.883   5.131   7.902  1.2178 -0.3830 -1.7318
  158MOL0     H20841  -0.664   5.200   7.967 -0.1875 -0.0081  3.3928
  158MOL0     H20842   0.889   6.440   8.407 -1.4500  0.3337  1.5206
  158MOL0     H20843   1.084   6.503   8.327  0.5987 -2.1200  0.8828
  158MOL0     H20844   1.555   6.653   8.400  1.2788  0.0872 -0.3722
  158MOL0     H20845   1.768   6.747   8.352 -0.5387  0.4511  2.0542
  158MOL0     H20846   2.016   7.053   8.356  0.1816 -0.5236 -0.9497
  158MOL0     H20847   1.918   6.953   8.463  1.8324 -2.2300 -3.8254
  158MOL0     H20848   1.831   7.227   8.371 -2.4868  0.0120  1.2833
  158MOL0     H20849   1.777   7.154   8.518 -0.0110  3.0272  1.5739
  158MOL0     H20850   1.921   7.344   8.565 -1.0211 -0.2725  1.3950
  158MOL0     H20851   2.058   7.267   8.470 -0.5080 -1.3323 -1.1923
  158MOL0     H20852   1.939   7.134   8.721 -1.0805  0.5075 -0.7663
  158MOL0     H20853   2.080   7.092   8.628 -1.5415 -1.5207 -0.0883
  158MOL0     H20854   2.237   7.405   8.865  0.8518  0.9080 -1.1928
  158MOL0     H20855   1.601   7.134   8.300 -2.5945  0.3295 -1.0328
  158MOL0     H20856   1.377   7.047   8.349  0.1674  0.2119 -2.6185
  159MOL0     O20857   0.206   4.785   4.018 -0.5509  0.3491  0.1477
  159MOL0     C20858   0.214   4.719   4.122  0.6556 -0.2099 -0.0437
  159MOL0     O20859   0.110   4.683   4.211 -0.3497 -0.6251 -0.2827
  159MOL0     C20860  -0.023   4.667   4.173 -0.5616  0.8121 -0.1112
  159MOL0     C20861  -0.068   4.676   4.038  0.5041  0.2212  0.3877
  159MOL0     C20862  -0.206   4.668   4.002  0.3010 -0.4636 -0.4516
  159MOL0     C20863  -0.305   4.653   4.103 -0.2203  0.1916  0.0690
  159MOL0     O20864  -0.440   4.640   4.079  0.8929 -0.6194 -0.6928
  159MOL0     C20865  -0.487   4.588   3.955 -0.8951  0.1838 -1.4380
  159MOL0     C20866  -0.621   4.520   3.971 -0.0782  0.3085 -0.2339
  159MOL0     C20867  -0.724   4.621   3.999  0.9569 -0.2920 -0.2188
  159MOL0     C20868  -0.844   4.578   4.079  0.4823 -0.2363 -0.6371
  159MOL0     C20869  -0.927   4.485   3.987 -0.7224  0.3531  0.2688
  159MOL0     C20870  -1.070   4.491   4.038 -0.0995  0.0141 -0.4944
  159MOL0     C20871  -1.171   4.418   3.949  0.7649 -0.3174 -0.0836
  159MOL0     C20872  -1.178   4.461   3.805  0.0808  0.2693 -0.1897
  159MOL0     N20873  -1.185   4.606   3.795 -0.4764  0.5304  0.1157
  159MOL0     C20874  -1.297   4.680   3.805 -0.1070  0.1038  0.4903
  159MOL0     C20875  -1.249   4.807   3.804  0.0035 -0.0813  0.1926
  159MOL0     C20876  -1.323   4.934   3.831  0.7572  0.3376 -0.0991
  159MOL0     C20877  -1.456   4.920   3.912 -0.3411  0.5594  0.7902
  159MOL0     C20878  -1.518   5.057   3.938  0.0958 -0.9277 -0.4232
  159MOL0     C20879  -1.638   5.026   4.019 -0.0370  0.0943 -0.2062
  159MOL0     O20880  -1.729   4.951   3.951 -0.0930 -0.4104  0.0397
  159MOL0     C20881  -1.847   4.904   4.016  0.4350 -0.4738 -0.6318
  159MOL0     C20882  -1.860   4.925   4.157  1.0582 -0.5953  0.1690
  159MOL0     C20883  -1.973   4.901   4.226  0.8101  0.1600 -0.5681
  159MOL0     C20884  -2.077   4.842   4.160 -0.6164  0.2833 -0.3367
  159MOL0     C20885  -2.200   4.803   4.234  0.1686 -0.8144  0.2138
  159MOL0     O20886  -2.317   4.791   4.167 -0.5897  0.2538 -0.1322
  159MOL0     C20887  -2.424   4.756   4.245 -0.0922  0.6894 -0.2712
  159MOL0     C20888  -2.498   4.862   4.308 -0.1570 -0.2686 -0.8034
  159MOL0     C20889  -2.614   4.828   4.383 -0.4106 -0.6673 -0.4839
  159MOL0     C20890  -2.659   4.695   4.397 -0.1622 -0.4003  0.4590
  159MOL0     O20891  -2.774   4.674   4.464 -0.1293  0.8807 -0.4649
  159MOL0     C20892  -2.855   4.557   4.431 -0.0289 -0.1097 -0.1544
  159MOL0     C20893  -2.972   4.562   4.529  0.4730 -0.2221  1.1024
  159MOL0     C20894  -3.090   4.638   4.477 -0.1429 -0.4129 -0.5087
  159MOL0     C20895  -3.229   4.605   4.538  0.6970 -0.0550 -0.7810
  159MOL0     C20896  -3.339   4.679   4.457 -0.1270 -0.4146 -0.5838
  159MOL0     C20897  -3.475   4.673   4.535 -0.0286  0.2989  0.2869
  159MOL0     C20898  -3.495   4.776   4.648  0.7985 -0.6850 -0.2041
  159MOL0     C20899  -3.626   4.744   4.719 -0.3294  0.2299  0.1433
  159MOL0    Cl20900  -3.669   4.852   4.868  0.2480  0.0498  0.3908
  159MOL0     C20901  -2.574   4.594   4.338 -0.1670  0.6439  1.3627
  159MOL0     C20902  -2.458   4.621   4.264 -0.2889  0.2232  0.3947
  159MOL0     O20903  -2.186   4.795   4.356  0.2759 -0.1510 -0.0116
  159MOL0     C20904  -2.073   4.820   4.028 -0.0024  0.5678  0.1145
  159MOL0     C20905  -1.951   4.839   3.959  0.5254  0.4898  0.5134
  159MOL0     N20906  -1.112   4.806   3.769 -0.0819  0.0813 -0.1789
  159MOL0     N20907  -1.080   4.681   3.759 -0.4970  0.2179  0.5105
  159MOL0     C20908  -0.257   4.648   4.241  0.0981  0.4851 -0.1755
  159MOL0     C20909  -0.121   4.655   4.277  0.3465  0.1413  0.0323
  159MOL0     C20910   0.350   4.687   4.176 -1.1964 -0.4276 -0.2635
  159MOL0     C20911   0.459   4.745   4.107 -0.1502 -0.3761 -0.5448
  159MOL0     C20912   0.591   4.728   4.151 -0.1783  0.1966 -0.6557
  159MOL0     C20913   0.612   4.641   4.264  0.0961 -0.1597 -0.5788
  159MOL0     O20914   0.730   4.612   4.322 -0.1435 -0.4016  0.4423
  159MOL0     C20915   0.846   4.688   4.298  0.1894 -0.4988  0.0699
  159MOL0     C20916   0.970   4.633   4.380  0.0075  0.2511 -0.3521
  159MOL0     C20917   1.101   4.687   4.333 -0.5890  0.3918  0.2967
  159MOL0     C20918   1.126   4.831   4.372 -0.3812  0.0144 -0.5248
  159MOL0     C20919   1.260   4.862   4.341  0.1618 -0.2698 -1.0841
  159MOL0     C20920   1.368   4.898   4.306  0.1104  0.2350 -0.0178
  159MOL0     C20921   0.506   4.583   4.329 -0.3475 -1.4366 -0.0682
  159MOL0     C20922   0.373   4.606   4.286  0.1092 -0.8890 -0.6819
  159MOL0     H20923   0.005   4.671   3.958  0.2059 -0.2865  0.1458
  159MOL0     H20924  -0.242   4.691   3.902 -0.3017 -2.8607 -0.8478
  159MOL0     H20925  -0.413   4.516   3.921 -3.8287 -2.8449 -1.9615
  159MOL0     H20926  -0.500   4.664   3.878  0.3612  1.8766 -0.0672
  159MOL0     H20927  -0.621   4.446   4.052 -2.7483 -1.0293 -1.3329
  159MOL0     H20928  -0.658   4.470   3.881 -0.7245 -1.4607  0.9477
  159MOL0     H20929  -0.750   4.687   3.916  2.7144 -1.7910 -2.0721
  159MOL0     H20930  -0.676   4.686   4.073 -0.2646  0.0168  0.3273
  159MOL0     H20931  -0.815   4.518   4.165 -0.1638  1.4831  0.8365
  159MOL0     H20932  -0.897   4.670   4.106 -2.3693 -1.6817 -0.9235
  159MOL0     H20933  -0.892   4.381   3.994  3.0605  1.4676  0.3076
  159MOL0     H20934  -0.917   4.518   3.884 -0.1558 -1.0851 -0.1671
  159MOL0     H20935  -1.092   4.597   4.053  3.2430  0.4415  3.2090
  159MOL0     H20936  -1.075   4.439   4.135 -1.7173 -0.8026 -0.9872
  159MOL0     H20937  -1.171   4.310   3.960  0.0607 -0.2630  0.5698
  159MOL0     H20938  -1.272   4.435   3.987  0.2480 -2.0805 -0.5995
  159MOL0     H20939  -1.265   4.408   3.764  0.3500 -0.7140  0.4941
  159MOL0     H20940  -1.093   4.418   3.752 -0.1122 -0.1035 -0.1995
  159MOL0     H20941  -1.398   4.642   3.803  0.0335 -0.2787  0.4745
  159MOL0     H20942  -1.338   4.981   3.733 -0.9089 -1.3379 -0.6961
  159MOL0     H20943  -1.263   4.993   3.900  0.8903  0.2237 -0.1167
  159MOL0     H20944  -1.431   4.886   4.013 -1.1874  1.1182  1.1938
  159MOL0     H20945  -1.520   4.850   3.857  0.8746  1.4558 -1.9180
  159MOL0     H20946  -1.452   5.121   3.996 -0.9044  1.1590 -1.4548
  159MOL0     H20947  -1.533   5.106   3.841 -0.8698 -0.8164 -0.2343
  159MOL0     H20948  -1.689   5.119   4.043  0.5550  0.5340 -0.6283
  159MOL0     H20949  -1.608   4.983   4.115  1.1162 -2.1369 -1.4754
  159MOL0     H20950  -1.786   4.972   4.220  1.7357 -0.2242 -0.8852
  159MOL0     H20951  -1.958   4.911   4.333 -0.0195 -1.0070 -0.3171
  159MOL0     H20952  -2.458   4.961   4.291 -2.3083  0.4958 -1.7354
  159MOL0     H20953  -2.674   4.903   4.434 -0.6135 -0.5179 -0.9403
  159MOL0     H20954  -2.801   4.466   4.457 -2.8963 -1.1858  2.7184
  159MOL0     H20955  -2.887   4.564   4.327  0.8226  1.3209 -0.3456
  159MOL0     H20956  -2.941   4.598   4.627 -0.7726 -1.5652  2.0139
  159MOL0     H20957  -3.000   4.458   4.545 -0.1360 -0.9767 -3.4880
  159MOL0     H20958  -3.093   4.635   4.368  1.5396  0.1303 -0.6032
  159MOL0     H20959  -3.069   4.743   4.500 -1.9672  0.5393 -2.8181
  159MOL0     H20960  -3.250   4.498   4.532 -4.0932  0.6952 -2.0366
  159MOL0     H20961  -3.220   4.619   4.646  1.8175 -1.8612 -0.5956
  159MOL0     H20962  -3.350   4.643   4.355  0.9676 -2.8473  0.0950
  159MOL0     H20963  -3.316   4.786   4.454  0.5090 -0.4103  1.8761
  159MOL0     H20964  -3.482   4.574   4.581  1.9702 -0.3535 -0.6731
  159MOL0     H20965  -3.564   4.682   4.473 -1.3504 -1.6895  1.7746
  159MOL0     H20966  -3.410   4.765   4.717  1.2510 -1.2867 -0.8461
  159MOL0     H20967  -3.482   4.880   4.617  1.2583 -0.6948 -0.0521
  159MOL0     H20968  -3.614   4.643   4.760  0.5584  1.2391  2.5930
  159MOL0     H20969  -3.708   4.759   4.649  1.1309 -0.9124 -1.9118
  159MOL0     H20970  -2.610   4.493   4.353  1.1953 -0.0147  0.4021
  159MOL0     H20971  -2.402   4.537   4.224  0.8041  0.6705  0.9321
  159MOL0     H20972  -2.148   4.772   3.965  0.0574  0.8814 -0.1985
  159MOL0     H20973  -1.953   4.804   3.856 -0.1944  2.7951 -0.3207
  159MOL0     H20974  -0.338   4.620   4.307 -3.9509  1.3402 -4.2959
  159MOL0     H20975  -0.095   4.640   4.382  0.0360 -2.7934 -0.2085
  159MOL0     H20976   0.429   4.812   4.027 -0.7884  1.8217  1.4344
  159MOL0     H20977   0.663   4.783   4.091 -2.0727 -0.9990 -4.3222
  159MOL0     H20978   0.830   4.790   4.332  3.3146 -0.0628  0.5218
  159MOL0     H20979   0.871   4.695   4.192  1.3395  1.3557  0.4254
  159MOL0     H20980   0.942   4.659   4.483 -1.7511 -1.2007 -0.4217
  159MOL0     H20981   0.969   4.524   4.376 -3.4754  0.1057  0.9641
  159MOL0     H20982   1.107   4.667   4.226 -1.3389 -0.7076  0.4366
  159MOL0     H20983   1.175   4.628   4.388 -0.3575 -0.0995 -0.5195
  159MOL0     H20984   1.060   4.908   4.333 -2.1777 -0.1420  1.9477
  159MOL0     H20985   1.115   4.836   4.481 -0.4680  3.2395 -0.5886
  159MOL0     H20986   1.468   4.921   4.276  1.8182 -1.1030  3.9144
  159MOL0     H20987   0.526   4.509   4.405 -2.4661 -0.8449  1.1489
  159MOL0     H20988   0.286   4.555   4.328 -0.5751 -0.4152 -1.4979
  160MOL0     O20989   4.273   5.460  11.239  0.4983  0.2357  0.4291
  160MOL0     C20990   4.261   5.345  11.274 -0.0798 -0.5770 -0.4006
  160MOL0     O20991   4.143   5.275  11.269 -0.6161 -0.8867 -0.2662
  160MOL0     C20992   4.040   5.345  11.211 -0.5202 -0.2350 -0.6332
  160MOL0     C20993   4.020   5.343  11.074 -0.3471 -0.3152 -0.0986
  160MOL0     C20994   3.918   5.405  11.018  0.3376 -0.7388  0.1346
  160MOL0     C20995   3.820   5.476  11.094  0.7754  0.0853  0.7068
  160MOL0     O20996   3.719   5.555  11.042 -0.4267 -0.0250 -0.4418
  160MOL0     C20997   3.674   5.508  10.912 -0.4856  0.8657 -1.0528
  160MOL0     C20998   3.535   5.578  10.878 -1.3349  0.0642  0.7476
  160MOL0     C20999   3.495   5.545  10.727 -0.8387 -0.2713 -1.0077
  160MOL0     C21000   3.396   5.647  10.676 -0.2735  0.6371  0.0784
  160MOL0     C21001   3.299   5.572  10.581  0.4952  0.2728  0.3076
  160MOL0     C21002   3.180   5.525  10.661  1.0541  0.4803 -0.1733
  160MOL0     C21003   3.101   5.432  10.562  0.3101 -0.7173 -0.2344
  160MOL0     C21004   2.971   5.391  10.627  0.4120 -0.7273 -0.5714
  160MOL0     N21005   2.883   5.292  10.558  0.4900  0.0569 -0.2007
  160MOL0     C21006   2.853   5.291  10.426 -0.3129 -0.7073 -0.2670
  160MOL0     C21007   2.760   5.188  10.414  0.1846 -1.2167 -0.4693
  160MOL0     C21008   2.714   5.142  10.275 -0.5268 -0.0267  0.1411
  160MOL0     C21009   2.656   4.998  10.279  0.5945  1.0539  0.3693
  160MOL0     C21010   2.497   4.991  10.297 -0.5921 -0.3638  0.0031
  160MOL0     C21011   2.462   5.027  10.442  0.9521 -0.0963 -0.3627
  160MOL0     O21012   2.329   5.008  10.463  0.3513 -0.0311  0.0667
  160MOL0     C21013   2.274   4.886  10.488 -0.3382 -0.3410  0.1745
  160MOL0     C21014   2.136   4.878  10.470  0.8168 -0.0853  0.5757
  160MOL0     C21015   2.071   4.752  10.482 -1.4154  0.1796 -0.2694
  160MOL0     C21016   2.152   4.642  10.520 -0.4351  0.0225  0.4064
  160MOL0     C21017   2.092   4.507  10.524 -0.4534  0.2333 -0.2749
  160MOL0     O21018   1.957   4.495  10.532  0.0693 -0.4339  0.6781
  160MOL0     C21019   1.893   4.372  10.502  0.5216  0.5346  0.4575
  160MOL0     C21020   1.785   4.335  10.576  0.1481  0.0531  0.1715
  160MOL0     C21021   1.721   4.215  10.548 -0.1811  0.7599  0.4902
  160MOL0     C21022   1.755   4.125  10.446  0.0838  0.2612 -0.1711
  160MOL0     O21023   1.671   4.019  10.424  0.3696  0.4878 -0.1783
  160MOL0     C21024   1.709   3.924  10.328  0.9815  1.1290  0.3932
  160MOL0     C21025   1.600   3.808  10.320 -0.6325  0.0013 -0.4972
  160MOL0     C21026   1.492   3.840  10.215 -0.1311 -0.7832  0.2214
  160MOL0     C21027   1.381   3.737  10.188  0.2614  0.3316 -0.0852
  160MOL0     C21028   1.275   3.780  10.085  0.1445  0.0109 -0.3912
  160MOL0     C21029   1.199   3.909  10.121  0.1394  0.2237 -0.4719
  160MOL0     C21030   1.116   3.957  10.005 -0.1128  0.2487  0.2915
  160MOL0     C21031   1.034   4.082  10.036 -0.0018 -0.5052  0.0600
  160MOL0    Cl21032   0.952   4.138   9.884 -0.2562  0.1423 -0.1575
  160MOL0     C21033   1.859   4.178  10.365 -0.1504 -0.2983 -0.3357
  160MOL0     C21034   1.932   4.290  10.394 -0.4139 -0.2657 -0.3264
  160MOL0     O21035   2.167   4.412  10.507 -0.0107 -0.0447  0.4471
  160MOL0     C21036   2.291   4.660  10.537 -1.0514  0.6975  0.1486
  160MOL0     C21037   2.354   4.780  10.531 -0.4570  0.6887 -0.3551
  160MOL0     N21038   2.722   5.149  10.545  0.1049 -0.4185 -0.9207
  160MOL0     N21039   2.801   5.205  10.625 -0.4730  0.7201  0.0147
  160MOL0     C21040   3.835   5.474  11.234 -0.9151  0.1217  0.4978
  160MOL0     C21041   3.941   5.400  11.289 -0.5609  0.0996  0.6873
  160MOL0     C21042   4.361   5.271  11.357  0.4050 -0.4206  0.0468
  160MOL0     C21043   4.489   5.327  11.374  0.8004 -0.3546 -0.2438
  160MOL0     C21044   4.594   5.263  11.440  0.7250  0.2143 -0.6700
  160MOL0     C21045   4.572   5.129  11.489 -2.0764 -0.2603  0.4671
  160MOL0     O21046   4.681   5.063  11.539  0.1506 -0.3730  0.7334
  160MOL0     C21047   4.658   5.007  11.667  0.7496  1.1659  0.0781
  160MOL0     C21048   4.730   5.084  11.772  0.6871  0.2879  0.4752
  160MOL0     C21049   4.717   5.026  11.925  1.0037  0.1467 -0.2543
  160MOL0     C21050   4.574   5.022  11.980  0.3810 -0.4639 -0.5224
  160MOL0     C21051   4.535   5.159  12.018 -0.5274 -0.2012 -0.6573
  160MOL0     C21052   4.522   5.278  12.038  0.1035 -0.2909  0.9014
  160MOL0     C21053   4.438   5.073  11.478 -1.3651 -0.3811  0.4219
  160MOL0     C21054   4.335   5.146  11.412 -0.0856  0.1007 -0.0112
  160MOL0     H21055   4.094   5.295  11.011 -1.3851  0.2203 -1.7693
  160MOL0     H21056   3.915   5.409  10.909 -1.2176 -3.9462 -0.0665
  160MOL0     H21057   3.662   5.399  10.911  1.7401  0.4706  1.9429
  160MOL0     H21058   3.742   5.525  10.828 -1.6737 -1.7602 -2.6883
  160MOL0     H21059   3.541   5.687  10.884  1.3060  0.0434 -0.2507
  160MOL0     H21060   3.452   5.541  10.940 -3.7023 -0.2962 -2.3986
  160MOL0     H21061   3.444   5.448  10.731 -1.6471  0.1743  0.0084
  160MOL0     H21062   3.581   5.547  10.660  1.3311  3.2961  1.5436
  160MOL0     H21063   3.341   5.690  10.761 -0.9397  0.2624 -0.1543
  160MOL0     H21064   3.445   5.723  10.614  1.4954 -1.9565 -1.9000
  160MOL0     H21065   3.349   5.490  10.527 -0.7287  1.0115 -2.0874
  160MOL0     H21066   3.272   5.635  10.496  3.1964 -0.3935 -1.1929
  160MOL0     H21067   3.134   5.619  10.693 -0.2395  0.8055 -2.6825
  160MOL0     H21068   3.197   5.473  10.755 -2.8307  0.9177  0.9473
  160MOL0     H21069   3.070   5.480  10.469  0.9836  0.2869  0.0517
  160MOL0     H21070   3.164   5.344  10.546 -1.6935 -2.7795  2.1896
  160MOL0     H21071   2.901   5.474  10.638  3.4637  1.7894  1.7818
  160MOL0     H21072   2.998   5.349  10.725  0.5928 -0.6283 -0.5772
  160MOL0     H21073   2.896   5.338  10.339  0.1253 -0.7410 -0.0695
  160MOL0     H21074   2.797   5.147  10.204 -1.3099  1.1112 -0.7267
  160MOL0     H21075   2.634   5.204  10.234 -0.9003 -0.7252 -0.1931
  160MOL0     H21076   2.693   4.943  10.366 -2.5382 -0.7625  0.7220
  160MOL0     H21077   2.671   4.951  10.182  1.0193  0.5571  0.6717
  160MOL0     H21078   2.445   5.068  10.238  0.8202  0.8584  0.2990
  160MOL0     H21079   2.454   4.894  10.271 -0.2966 -0.5788  0.3065
  160MOL0     H21080   2.490   5.132  10.452  2.6924 -0.7040  2.2199
  160MOL0     H21081   2.529   4.974  10.510  1.4352  0.0170 -0.7499
  160MOL0     H21082   2.080   4.966  10.440  1.1875 -0.6514 -1.9674
  160MOL0     H21083   1.969   4.724  10.455 -1.2553  0.1272 -0.8170
  160MOL0     H21084   1.749   4.393  10.660 -1.7174  0.2132 -0.6980
  160MOL0     H21085   1.632   4.194  10.606  0.1100  0.7201  0.9289
  160MOL0     H21086   1.800   3.873  10.359  1.6032  0.6700 -1.9478
  160MOL0     H21087   1.720   3.969  10.228  1.6838 -1.8362 -0.9799
  160MOL0     H21088   1.550   3.799  10.417  0.4077  2.3164  0.3405
  160MOL0     H21089   1.656   3.716  10.305  1.6505  0.9377  1.4498
  160MOL0     H21090   1.555   3.856  10.127  0.2267  1.8995  0.8654
  160MOL0     H21091   1.444   3.932  10.251  1.8027 -0.5018  2.3126
  160MOL0     H21092   1.434   3.644  10.167  2.4235  0.3891  4.0494
  160MOL0     H21093   1.338   3.717  10.287 -1.3364  0.4580 -0.7247
  160MOL0     H21094   1.193   3.707  10.079 -3.4184  3.3140  2.6263
  160MOL0     H21095   1.324   3.788   9.988  0.4346  1.6095 -0.1449
  160MOL0     H21096   1.264   3.992  10.151 -3.9473  3.3417  0.6879
  160MOL0     H21097   1.137   3.882  10.207  1.7700  1.6097  1.2277
  160MOL0     H21098   1.186   3.985   9.926  0.7928 -0.0658  0.9775
  160MOL0     H21099   1.058   3.874   9.963  1.9533 -1.6191  0.9887
  160MOL0     H21100   1.092   4.157  10.091  0.4959 -2.1495  1.8976
  160MOL0     H21101   0.956   4.051  10.106  0.3039 -2.1059 -0.2688
  160MOL0     H21102   1.883   4.112  10.282  0.1865 -1.1818  0.4408
  160MOL0     H21103   2.017   4.308  10.328  0.2995  1.1005  0.9049
  160MOL0     H21104   2.359   4.577  10.552  0.4552  1.7295 -0.7997
  160MOL0     H21105   2.459   4.788  10.554  0.0605 -1.1922 -1.8352
  160MOL0     H21106   3.767   5.529  11.298 -1.5669  0.5892 -0.5634
  160MOL0     H21107   3.963   5.386  11.395  1.9985 -0.5026  0.1434
  160MOL0     H21108   4.506   5.423  11.327 -1.2986 -0.5816 -1.6655
  160MOL0     H21109   4.691   5.310  11.449 -0.0290  1.9146 -0.9928
  160MOL0     H21110   4.681   4.901  11.671 -2.6967  0.2907 -0.0906
  160MOL0     H21111   4.550   5.005  11.682  0.7738 -1.8337  0.3790
  160MOL0     H21112   4.836   5.086  11.744 -0.1271  1.4330 -2.9787
  160MOL0     H21113   4.687   5.184  11.773 -0.5575 -0.2337  0.2636
  160MOL0     H21114   4.772   5.092  11.992 -1.1243  1.2968  0.4441
  160MOL0     H21115   4.752   4.922  11.925 -0.6048 -0.4849  2.2457
  160MOL0     H21116   4.495   4.991  11.910  1.4045 -0.8323 -1.5589
  160MOL0     H21117   4.559   4.957  12.067 -1.4301  1.4217  0.6543
  160MOL0     H21118   4.503   5.383  12.039 -2.8757 -0.7250 -0.2143
  160MOL0     H21119   4.411   4.974  11.513 -0.2432 -0.6963  0.4249
  160MOL0     H21120   4.237   5.101  11.399 -1.3373  2.9675 -1.4809
  161MOL0     O21121   0.437   2.937  10.470 -0.4231  0.5588  0.0931
  161MOL0     C21122   0.496   2.854  10.401  0.0540 -0.2113 -0.7535
  161MOL0     O21123   0.429   2.758  10.315 -0.0807 -0.1569  0.3869
  161MOL0     C21124   0.293   2.762  10.287 -0.1622 -0.0130  0.4353
  161MOL0     C21125   0.194   2.845  10.350  0.0566 -0.4084 -0.2223
  161MOL0     C21126   0.056   2.830  10.316 -1.0029 -0.5726  0.4892
  161MOL0     C21127   0.014   2.741  10.218 -1.5477 -0.4827 -0.1748
  161MOL0     O21128  -0.117   2.726  10.188 -0.6336 -0.2333 -0.5610
  161MOL0     C21129  -0.167   2.694  10.053  0.0062  0.1473  0.6332
  161MOL0     C21130  -0.315   2.734  10.032  0.2366 -0.2199 -0.2453
  161MOL0     C21131  -0.394   2.654   9.929 -0.1770  0.3165  0.2964
  161MOL0     C21132  -0.545   2.662   9.933 -0.2630 -0.8292  0.1742
  161MOL0     C21133  -0.599   2.700   9.796  0.1669 -0.0976 -0.1419
  161MOL0     C21134  -0.757   2.701   9.797 -0.3334  0.8841  0.2170
  161MOL0     C21135  -0.799   2.722   9.655  0.2260 -0.5399  0.1818
  161MOL0     C21136  -0.935   2.652   9.638 -0.0750 -0.6848  0.4049
  161MOL0     N21137  -1.041   2.718   9.712  0.5782  0.5970 -0.2525
  161MOL0     C21138  -1.146   2.641   9.771  0.2518 -0.2441  0.1401
  161MOL0     C21139  -1.216   2.732   9.838 -0.2779  0.3244  0.0822
  161MOL0     C21140  -1.334   2.720   9.925  0.4274  0.2773  0.5479
  161MOL0     C21141  -1.457   2.711   9.834 -0.7051  0.3197 -0.4191
  161MOL0     C21142  -1.586   2.650   9.900  0.2322 -0.4350 -0.7072
  161MOL0     C21143  -1.652   2.763   9.993  0.3323 -0.5233 -0.2677
  161MOL0     O21144  -1.722   2.869   9.915 -0.2363  0.2858  0.0290
  161MOL0     C21145  -1.839   2.927   9.959  0.2977 -0.0754 -0.0876
  161MOL0     C21146  -1.901   3.000   9.860 -0.3226 -0.4901 -0.3737
  161MOL0     C21147  -2.008   3.085   9.892 -0.1063 -0.0458 -0.4948
  161MOL0     C21148  -2.057   3.091  10.014 -0.0803  0.4077  0.0257
  161MOL0     C21149  -2.163   3.190  10.031 -0.4969  0.3982 -0.1535
  161MOL0     O21150  -2.200   3.283   9.935  0.2332  1.0011 -0.0949
  161MOL0     C21151  -2.310   3.360   9.940 -0.2354 -0.3036 -0.5685
  161MOL0     C21152  -2.311   3.486  10.001  0.3172  0.4608 -0.9386
  161MOL0     C21153  -2.426   3.572   9.990 -0.7056 -0.1838 -0.3239
  161MOL0     C21154  -2.528   3.533   9.897 -0.4458  0.0630  0.1525
  161MOL0     O21155  -2.620   3.626   9.861  0.1426 -0.4667 -0.1740
  161MOL0     C21156  -2.728   3.583   9.776  0.3370 -0.9104  0.8115
  161MOL0     C21157  -2.680   3.629   9.637  0.0000 -0.2520  0.4051
  161MOL0     C21158  -2.781   3.580   9.527  0.0353  0.2112  0.1643
  161MOL0     C21159  -2.777   3.434   9.502 -0.4409 -0.1218  0.3513
  161MOL0     C21160  -2.887   3.393   9.404 -0.4063  0.6859  0.3505
  161MOL0     C21161  -2.822   3.355   9.273 -0.0957  0.5627  1.1475
  161MOL0     C21162  -2.928   3.302   9.175  0.5509 -0.2512  0.1895
  161MOL0     C21163  -2.880   3.257   9.042  1.0612 -0.6791  0.0544
  161MOL0    Cl21164  -2.802   3.098   9.065  0.0736  0.2165  0.0387
  161MOL0     C21165  -2.518   3.399   9.834 -0.6454  0.2904  0.0394
  161MOL0     C21166  -2.413   3.317   9.858 -0.0825 -0.1700  0.4608
  161MOL0     O21167  -2.218   3.173  10.143 -0.5776 -0.0035  0.7029
  161MOL0     C21168  -1.996   3.016  10.117  0.3127 -0.0956  0.3977
  161MOL0     C21169  -1.893   2.924  10.086  0.0884  0.4825 -0.5256
  161MOL0     N21170  -1.150   2.856   9.826  0.1878 -0.5147 -0.7966
  161MOL0     N21171  -1.056   2.853   9.744 -0.4361 -0.0740 -0.1474
  161MOL0     C21172   0.117   2.660  10.150  0.4422 -0.9909  0.4311
  161MOL0     C21173   0.256   2.674  10.178 -0.8474  0.3718  0.3342
  161MOL0     C21174   0.635   2.848  10.413 -0.0531 -0.6435  0.3916
  161MOL0     C21175   0.713   2.798  10.310  0.0513 -0.3081 -0.0215
  161MOL0     C21176   0.850   2.803  10.311 -0.4092  0.1392 -0.0235
  161MOL0     C21177   0.914   2.844  10.426  0.3334  0.1342 -1.3001
  161MOL0     O21178   1.050   2.834  10.428  0.2348  0.6996 -0.5141
  161MOL0     C21179   1.125   2.923  10.515 -0.0934  0.1748 -0.2051
  161MOL0     C21180   1.259   2.978  10.458  0.2402  0.5931  0.2172
  161MOL0     C21181   1.373   2.884  10.468  0.9321  0.0151  0.6832
  161MOL0     C21182   1.337   2.755  10.385 -0.3158 -0.0639 -0.1275
  161MOL0     C21183   1.454   2.677  10.348  0.2995 -0.1039 -0.4032
  161MOL0     C21184   1.554   2.624  10.311 -0.5638  0.2969 -0.6559
  161MOL0     C21185   0.835   2.889  10.538 -0.2096  1.0855 -0.4908
  161MOL0     C21186   0.696   2.893  10.527 -1.0132 -0.1699  0.3932
  161MOL0     H21187   0.214   2.917  10.429 -4.3703 -1.6091  2.3342
  161MOL0     H21188  -0.014   2.901  10.360 -0.3096 -0.5044  1.5048
  161MOL0     H21189  -0.164   2.587  10.030  0.6485  0.6073 -1.7151
  161MOL0     H21190  -0.122   2.743   9.966  2.9445  0.5546  2.2706
  161MOL0     H21191  -0.323   2.840  10.010 -0.6959 -0.3826 -0.7519
  161MOL0     H21192  -0.364   2.715  10.127 -0.2164 -2.4192 -0.8599
  161MOL0     H21193  -0.377   2.546   9.932 -0.7928  0.1812 -0.6728
  161MOL0     H21194  -0.361   2.692   9.832 -0.9857 -1.4667 -0.7113
  161MOL0     H21195  -0.591   2.568   9.964  1.0701 -2.1000 -1.5231
  161MOL0     H21196  -0.581   2.742   9.999  0.5044  1.0408 -1.5628
  161MOL0     H21197  -0.558   2.634   9.718  2.7872 -2.7049  3.1368
  161MOL0     H21198  -0.566   2.804   9.782 -1.0997  0.8445  2.9579
  161MOL0     H21199  -0.787   2.789   9.854  0.0181  0.4757  1.0448
  161MOL0     H21200  -0.808   2.622   9.853 -1.9866  1.9907  0.3139
  161MOL0     H21201  -0.809   2.830   9.644  2.3037 -0.4277 -1.3147
  161MOL0     H21202  -0.727   2.684   9.581  1.1690 -0.0845  0.8363
  161MOL0     H21203  -0.923   2.544   9.649 -3.1095 -1.6195 -3.2378
  161MOL0     H21204  -0.967   2.665   9.534  2.2601  1.6202 -0.1340
  161MOL0     H21205  -1.172   2.536   9.763 -0.5062 -0.0522  0.0121
  161MOL0     H21206  -1.345   2.809   9.987 -0.6522 -0.6004  1.6735
  161MOL0     H21207  -1.330   2.633   9.991 -0.5660 -1.2438 -1.2912
  161MOL0     H21208  -1.441   2.639   9.754 -0.0804 -1.3844  1.1853
  161MOL0     H21209  -1.485   2.809   9.793 -2.3967  0.3449  0.7016
  161MOL0     H21210  -1.667   2.625   9.831  1.0108  0.9022 -2.1720
  161MOL0     H21211  -1.558   2.564   9.962  1.1380  1.8651  2.3260
  161MOL0     H21212  -1.567   2.810  10.044  1.6223 -3.9404  1.0453
  161MOL0     H21213  -1.707   2.710  10.071  1.6175 -1.8290 -0.2007
  161MOL0     H21214  -1.860   2.998   9.759  0.7391  2.1339 -0.0799
  161MOL0     H21215  -2.070   3.134   9.817  1.0154 -1.6687 -2.5958
  161MOL0     H21216  -2.225   3.514  10.060 -0.5999  0.5899  0.3624
  161MOL0     H21217  -2.427   3.675  10.023  0.3096  0.1079 -1.1364
  161MOL0     H21218  -2.824   3.627   9.806  0.3384 -3.1244  4.7129
  161MOL0     H21219  -2.751   3.476   9.780  2.3924 -1.3926  1.1057
  161MOL0     H21220  -2.580   3.591   9.617  0.3094 -1.1418  3.1912
  161MOL0     H21221  -2.675   3.738   9.640  1.0638 -0.2966  0.5102
  161MOL0     H21222  -2.762   3.643   9.439 -0.2625 -1.7989 -1.4160
  161MOL0     H21223  -2.886   3.605   9.549 -0.6898 -1.7132 -0.9086
  161MOL0     H21224  -2.677   3.414   9.463 -1.7316 -3.0520 -1.8417
  161MOL0     H21225  -2.797   3.374   9.591 -2.1873 -0.8891 -0.5121
  161MOL0     H21226  -2.959   3.475   9.386  0.1357  1.1323  0.1955
  161MOL0     H21227  -2.947   3.313   9.448  1.6583 -1.6441 -0.8186
  161MOL0     H21228  -2.741   3.286   9.300 -0.0553 -0.3365 -1.1050
  161MOL0     H21229  -2.771   3.441   9.229  2.6845  0.8221  4.4341
  161MOL0     H21230  -2.975   3.224   9.235  1.4754 -0.4051  0.7311
  161MOL0     H21231  -3.011   3.372   9.159  0.8009 -0.3226 -1.6929
  161MOL0     H21232  -2.808   3.326   8.995 -1.1795 -0.9965 -4.3753
  161MOL0     H21233  -2.967   3.251   8.976 -0.5457  0.0551  2.0096
  161MOL0     H21234  -2.591   3.348   9.772 -0.0379 -0.2873 -0.2214
  161MOL0     H21235  -2.402   3.225   9.801  1.6743  0.2426  0.0874
  161MOL0     H21236  -2.036   3.022  10.217 -0.4538 -1.8587  0.2390
  161MOL0     H21237  -1.843   2.857  10.156  1.5426 -3.1679 -4.5814
  161MOL0     H21238   0.094   2.587  10.073  0.0142  1.5027 -1.9538
  161MOL0     H21239   0.331   2.605  10.142 -0.0635  1.6937 -0.6270
  161MOL0     H21240   0.661   2.758  10.224 -0.8868 -1.5831  1.0913
  161MOL0     H21241   0.916   2.770  10.231 -0.3659  2.1540 -0.8692
  161MOL0     H21242   1.148   2.863  10.603 -0.1721 -0.5065 -0.6457
  161MOL0     H21243   1.077   3.013  10.556  1.3416  0.4959  0.8411
  161MOL0     H21244   1.258   3.004  10.352 -0.2057 -1.3847 -0.3168
  161MOL0     H21245   1.290   3.066  10.515  0.5623 -0.1430  1.2116
  161MOL0     H21246   1.395   2.869  10.574  2.0033 -1.9397  0.2360
  161MOL0     H21247   1.461   2.923  10.417  1.7438 -2.8241 -0.3076
  161MOL0     H21248   1.268   2.692  10.442 -0.7267  1.3524  0.9986
  161MOL0     H21249   1.287   2.769  10.288  0.5103 -1.5235 -0.7870
  161MOL0     H21250   1.633   2.561  10.278 -0.8800 -0.0753 -0.7016
  161MOL0     H21251   0.891   2.916  10.628 -0.5723  1.4011 -0.3589
  161MOL0     H21252   0.631   2.921  10.610 -2.4204 -0.5257 -0.5484
  162MOL0     O21253  10.947   7.970   7.378  0.5003 -0.0897  0.3455
  162MOL0     C21254  10.965   8.063   7.458  0.8796  1.0484 -0.2749
  162MOL0     O21255  10.877   8.093   7.562  0.3785  0.2696 -0.0383
  162MOL0     C21256  10.749   8.040   7.554 -0.9711  0.3936  0.5497
  162MOL0     C21257  10.644   8.104   7.488  0.1245  0.2835 -1.3355
  162MOL0     C21258  10.515   8.046   7.487 -0.2305 -0.8309 -0.0417
  162MOL0     C21259  10.492   7.920   7.544  0.9215 -0.2668 -1.2918
  162MOL0     O21260  10.366   7.865   7.523 -0.0221 -0.1721  0.4683
  162MOL0     C21261  10.347   7.737   7.590 -0.4079 -0.1503 -0.1005
  162MOL0     C21262  10.203   7.701   7.566  0.7019 -0.4791 -0.0891
  162MOL0     C21263  10.171   7.564   7.614 -0.7706  0.5369 -0.7943
  162MOL0     C21264  10.034   7.525   7.550  1.1041  0.1684  0.2758
  162MOL0     C21265   9.994   7.384   7.593 -1.1192 -0.2763 -0.8920
  162MOL0     C21266   9.865   7.348   7.518 -0.1654 -0.9906  0.0381
  162MOL0     C21267   9.827   7.199   7.559 -0.6750 -0.8851 -0.5466
  162MOL0     C21268   9.728   7.138   7.446 -1.1608  0.2870 -0.3668
  162MOL0     N21269   9.587   7.175   7.496 -0.5934 -0.6303  0.4525
  162MOL0     C21270   9.516   7.110   7.582  0.8557  0.0573  0.2028
  162MOL0     C21271   9.397   7.177   7.605 -0.5423  0.7259 -0.3172
  162MOL0     C21272   9.298   7.139   7.709 -0.0549 -0.5063 -0.3116
  162MOL0     C21273   9.306   7.237   7.829 -0.4047  0.8528  0.5712
  162MOL0     C21274   9.227   7.197   7.950 -0.4447 -1.1141 -0.0289
  162MOL0     C21275   9.075   7.199   7.939  0.5400 -0.2159  0.0353
  162MOL0     O21276   9.021   7.184   8.072  0.2412 -0.7483 -0.3533
  162MOL0     C21277   8.881   7.184   8.077 -0.5376 -0.3065 -0.8755
  162MOL0     C21278   8.795   7.170   7.967  0.6672  0.9760 -1.1165
  162MOL0     C21279   8.655   7.172   7.980  0.0001  0.9286  0.1656
  162MOL0     C21280   8.595   7.170   8.112  0.5230  0.4268 -0.4795
  162MOL0     C21281   8.452   7.171   8.135  0.8365 -0.2149  0.3296
  162MOL0     O21282   8.375   7.155   8.025 -0.7422 -0.1523 -0.3849
  162MOL0     C21283   8.245   7.151   8.048 -0.1872 -1.0014  1.3276
  162MOL0     C21284   8.158   7.266   8.070  0.2608 -0.5878 -0.5688
  162MOL0     C21285   8.020   7.236   8.104 -0.1923  0.0760  0.3461
  162MOL0     C21286   7.974   7.098   8.108  0.9647 -0.3038 -0.4981
  162MOL0     O21287   7.852   7.055   8.133  0.1952  0.7525 -0.2279
  162MOL0     C21288   7.762   7.147   8.199 -0.3735  0.2088  0.6520
  162MOL0     C21289   7.625   7.070   8.215 -0.5275 -0.7145 -0.7888
  162MOL0     C21290   7.510   7.145   8.269  0.5953 -0.4906 -0.2615
  162MOL0     C21291   7.473   7.280   8.200  0.3737  0.8996 -0.1176
  162MOL0     C21292   7.327   7.307   8.248  0.1267  0.0812 -0.2206
  162MOL0     C21293   7.274   7.426   8.164 -0.1083 -0.4439  0.4474
  162MOL0     C21294   7.348   7.556   8.203  0.8525 -0.4246  0.5643
  162MOL0     C21295   7.286   7.686   8.131 -0.3243 -0.1833 -0.1000
  162MOL0    Cl21296   7.364   7.829   8.211  0.1150  0.3683  0.2658
  162MOL0     C21297   8.067   6.994   8.083  0.4208  0.1343 -0.2422
  162MOL0     C21298   8.200   7.024   8.049  0.1683  0.2568 -0.8844
  162MOL0     O21299   8.414   7.196   8.251 -0.4457  0.0646  0.2784
  162MOL0     C21300   8.686   7.189   8.217  0.4528  0.3277  0.4310
  162MOL0     C21301   8.818   7.191   8.199  0.4141 -0.3130  0.0926
  162MOL0     N21302   9.399   7.279   7.521  0.0049 -0.0762  0.0912
  162MOL0     N21303   9.512   7.282   7.454 -0.5402 -0.2302  0.6076
  162MOL0     C21304  10.601   7.858   7.610  0.0817 -0.4810 -0.0567
  162MOL0     C21305  10.727   7.914   7.611 -1.1348  1.0219 -0.4921
  162MOL0     C21306  11.078   8.149   7.439 -0.3438 -0.2294  0.5058
  162MOL0     C21307  11.193   8.099   7.365  0.1477 -0.5115 -0.2206
  162MOL0     C21308  11.313   8.177   7.350 -0.2249 -0.0944 -0.0464
  162MOL0     C21309  11.315   8.309   7.398  0.2661  0.0721 -0.1506
  162MOL0     O21310  11.429   8.396   7.396  0.3103  0.0743  0.3340
  162MOL0     C21311  11.554   8.334   7.348 -0.7725 -0.4107  0.2314
  162MOL0     C21312  11.662   8.440   7.357 -0.0747  0.1344 -0.2139
  162MOL0     C21313  11.788   8.391   7.294 -0.9353 -0.0585 -0.4012
  162MOL0     C21314  11.902   8.499   7.295 -0.0801  0.4070 -0.0764
  162MOL0     C21315  11.851   8.618   7.235 -0.3905 -0.1916  1.0443
  162MOL0     C21316  11.815   8.730   7.204 -0.3033  0.9206  0.7161
  162MOL0     C21317  11.201   8.361   7.459  0.4551  0.4243  1.3414
  162MOL0     C21318  11.083   8.283   7.481  0.0104 -0.9224  1.1526
  162MOL0     H21319  10.659   8.199   7.437 -2.5299  1.0531 -0.8403
  162MOL0     H21320  10.447   8.105   7.426  2.0920  1.9153 -0.1860
  162MOL0     H21321  10.355   7.761   7.696  1.0935 -1.1889  0.0536
  162MOL0     H21322  10.423   7.664   7.560 -1.2535 -1.4872  0.8833
  162MOL0     H21323  10.183   7.706   7.459  2.1495 -0.6635 -0.3880
  162MOL0     H21324  10.144   7.772   7.625  0.3062 -1.4927  0.7670
  162MOL0     H21325  10.166   7.559   7.723  0.8819 -0.3872 -0.7246
  162MOL0     H21326  10.246   7.489   7.584  0.1704  1.5681 -1.0861
  162MOL0     H21327   9.954   7.596   7.572  0.5449 -0.4562  0.2550
  162MOL0     H21328  10.050   7.532   7.442  3.2257  2.1483  0.6374
  162MOL0     H21329   9.984   7.391   7.702 -0.1841  0.3266 -0.8271
  162MOL0     H21330  10.072   7.313   7.564 -0.1548 -0.7562  2.4770
  162MOL0     H21331   9.880   7.356   7.410 -0.8545 -3.4872 -0.3146
  162MOL0     H21332   9.783   7.414   7.548  1.0442  0.0933  1.1059
  162MOL0     H21333   9.906   7.127   7.539 -1.8771 -1.5110 -3.5309
  162MOL0     H21334   9.793   7.184   7.662  0.0270 -1.6900 -0.4188
  162MOL0     H21335   9.741   7.029   7.444 -0.8655  0.3247 -1.3405
  162MOL0     H21336   9.751   7.175   7.346 -1.4656 -0.3685 -0.6878
  162MOL0     H21337   9.539   7.016   7.632 -2.4621 -0.3086  1.3241
  162MOL0     H21338   9.307   7.039   7.751 -0.1204  0.4033  2.0549
  162MOL0     H21339   9.198   7.136   7.664  0.1714  0.3953 -0.9114
  162MOL0     H21340   9.268   7.336   7.799 -1.4560  0.4972  0.6745
  162MOL0     H21341   9.407   7.261   7.864 -1.0748  2.9989  1.2266
  162MOL0     H21342   9.269   7.103   7.987  2.6471 -0.1556 -0.7689
  162MOL0     H21343   9.248   7.267   8.031  0.2100  0.0033 -1.1188
  162MOL0     H21344   9.037   7.126   7.867 -0.2480 -0.7934  1.0212
  162MOL0     H21345   9.042   7.297   7.903 -1.5326 -1.2566 -1.0937
  162MOL0     H21346   8.837   7.166   7.867  1.1797  1.6924 -0.9378
  162MOL0     H21347   8.597   7.165   7.889  0.5053  2.3988 -0.2929
  162MOL0     H21348   8.205   7.362   8.055 -0.1840 -0.4939 -1.4049
  162MOL0     H21349   7.962   7.326   8.118  1.2971  1.1341 -0.0207
  162MOL0     H21350   7.736   7.223   8.126 -2.3559 -2.1966 -1.3019
  162MOL0     H21351   7.807   7.175   8.295 -2.2448 -2.7268  2.5462
  162MOL0     H21352   7.649   6.993   8.290  1.6128  0.4779 -0.1797
  162MOL0     H21353   7.594   7.022   8.122 -2.2485 -0.3466 -0.4508
  162MOL0     H21354   7.535   7.177   8.371 -4.0260  0.2201  0.8697
  162MOL0     H21355   7.427   7.074   8.279  0.4204  0.0251  2.7849
  162MOL0     H21356   7.538   7.367   8.211 -0.2257  1.2415  0.8409
  162MOL0     H21357   7.487   7.258   8.094  0.6137 -0.8958  0.2606
  162MOL0     H21358   7.332   7.315   8.357 -0.9962 -3.8613  0.2792
  162MOL0     H21359   7.265   7.223   8.215 -0.6940  0.6960 -0.2835
  162MOL0     H21360   7.166   7.437   8.171 -0.0231  1.4502 -0.6100
  162MOL0     H21361   7.285   7.400   8.059 -3.2205 -0.4187  0.0291
  162MOL0     H21362   7.348   7.565   8.312  0.3696  3.0784  0.3786
  162MOL0     H21363   7.445   7.556   8.153 -0.1305  0.4165 -1.4951
  162MOL0     H21364   7.177   7.682   8.143 -0.2232 -3.4246  0.6279
  162MOL0     H21365   7.312   7.686   8.025  1.2352  0.8149  0.2477
  162MOL0     H21366   8.030   6.892   8.088 -1.8861  0.8925 -0.6794
  162MOL0     H21367   8.264   6.941   8.025 -1.1362 -1.2096  0.4195
  162MOL0     H21368   8.658   7.203   8.321 -1.8285  0.5454 -0.1757
  162MOL0     H21369   8.885   7.212   8.282  3.0179  0.4931 -2.0618
  162MOL0     H21370  10.596   7.757   7.649  0.2855 -0.1021  0.9650
  162MOL0     H21371  10.801   7.869   7.676 -0.4088 -0.3520 -2.1642
  162MOL0     H21372  11.200   7.992   7.348  0.3434 -0.5459  0.0792
  162MOL0     H21373  11.403   8.124   7.320  0.7639  1.5256 -0.0204
  162MOL0     H21374  11.536   8.305   7.244 -4.0545  3.1510 -0.4376
  162MOL0     H21375  11.587   8.247   7.406 -2.7946 -0.6142  1.1552
  162MOL0     H21376  11.632   8.519   7.288 -1.3359 -0.2383 -0.1296
  162MOL0     H21377  11.683   8.465   7.461 -0.4041 -1.0910  0.1663
  162MOL0     H21378  11.766   8.363   7.191 -2.3405 -3.3021  0.6328
  162MOL0     H21379  11.822   8.296   7.336 -1.1346 -1.6930 -3.6312
  162MOL0     H21380  11.933   8.512   7.399  0.9485  0.2589 -0.3570
  162MOL0     H21381  11.993   8.473   7.241  0.0121  1.6061 -0.5415
  162MOL0     H21382  11.798   8.833   7.182 -1.7965 -0.0054 -3.3790
  162MOL0     H21383  11.191   8.468   7.477 -0.7396  1.1505 -2.6246
  162MOL0     H21384  11.001   8.337   7.528  2.1999  2.2479  1.6860
  163MOL0     O21385   4.756   1.861  10.881  0.0977 -0.5469  0.0634
  163MOL0     C21386   4.835   1.825  10.793 -0.8347  0.0284  0.4238
  163MOL0     O21387   4.810   1.719  10.701 -0.3398  0.3697  0.3259
  163MOL0     C21388   4.700   1.647  10.710 -0.0176 -0.3716  0.1299
  163MOL0     C21389   4.570   1.689  10.744 -1.0112 -0.5484 -0.2156
  163MOL0     C21390   4.464   1.603  10.747  0.2845 -0.5042  0.1512
  163MOL0     C21391   4.486   1.466  10.726 -0.1407 -0.0363  0.8545
  163MOL0     O21392   4.388   1.374  10.740  0.4935 -0.6067 -0.4251
  163MOL0     C21393   4.273   1.405  10.663  0.6524 -0.4384  0.0169
  163MOL0     C21394   4.169   1.298  10.679  0.3970 -0.1986 -0.5770
  163MOL0     C21395   4.061   1.306  10.574 -0.3515 -0.7645 -0.0521
  163MOL0     C21396   3.992   1.179  10.555  0.0177 -0.7888  0.1247
  163MOL0     C21397   3.874   1.191  10.461  1.1694 -0.4995 -0.5786
  163MOL0     C21398   3.744   1.245  10.535 -0.0542 -0.4135  0.2866
  163MOL0     C21399   3.620   1.234  10.438 -0.2543  0.3143  0.4278
  163MOL0     C21400   3.497   1.172  10.518 -0.7520  0.2913  0.2685
  163MOL0     N21401   3.412   1.097  10.432  0.0852 -0.0167  0.2733
  163MOL0     C21402   3.442   0.976  10.360  0.5739 -0.3816  0.0634
  163MOL0     C21403   3.322   0.919  10.340 -0.2493  0.2769  0.6145
  163MOL0     C21404   3.297   0.786  10.270  0.5815  0.3542  0.0589
  163MOL0     C21405   3.336   0.672  10.366  0.9722  0.4406 -0.0199
  163MOL0     C21406   3.250   0.684  10.497  0.2710  1.1501  0.1829
  163MOL0     C21407   3.106   0.708  10.484 -0.2365 -0.2437  0.8192
  163MOL0     O21408   3.037   0.578  10.472 -1.0154 -0.2399  0.8785
  163MOL0     C21409   2.910   0.568  10.508  0.4640  0.0448 -0.7321
  163MOL0     C21410   2.847   0.446  10.478 -0.1872 -0.0782  0.6079
  163MOL0     C21411   2.708   0.440  10.486 -0.7609  0.2135 -0.2924
  163MOL0     C21412   2.635   0.546  10.523 -0.3566 -0.7934  0.7174
  163MOL0     C21413   2.488   0.552  10.513  0.2702 -0.4810  0.2408
  163MOL0     O21414   2.427   0.431  10.496 -0.1988  0.0768  0.0979
  163MOL0     C21415   2.287   0.430  10.486  1.1820  0.1746 -0.5185
  163MOL0     C21416   2.226   0.381  10.363  0.3122 -0.0800 -0.7381
  163MOL0     C21417   2.092   0.388  10.357  0.4616  0.1348  0.1292
  163MOL0     C21418   2.015   0.427  10.462  0.4719  0.0201  0.2038
  163MOL0     O21419   1.879   0.428  10.457 -0.1981 -0.2756  0.5338
  163MOL0     C21420   1.814   0.479  10.329 -0.3523  0.7113 -0.9147
  163MOL0     C21421   1.667   0.479  10.361  0.3446  0.6409 -0.4127
  163MOL0     C21422   1.563   0.461  10.246 -0.7422 -0.6598 -0.2311
  163MOL0     C21423   1.438   0.387  10.289 -0.3637 -0.4021 -0.3110
  163MOL0     C21424   1.351   0.367  10.168 -0.0262  0.2289 -0.1009
  163MOL0     C21425   1.245   0.258  10.195  0.5114 -0.1102 -0.1996
  163MOL0     C21426   1.182   0.234  10.066  1.0928  0.0246  1.1651
  163MOL0     C21427   1.050   0.320  10.042 -0.4136  0.4915  0.2431
  163MOL0    Cl21428   0.978   0.255   9.883 -0.0331  0.3382 -0.2000
  163MOL0     C21429   2.074   0.459  10.583  0.3513  0.1636  0.0783
  163MOL0     C21430   2.207   0.469  10.595 -0.3570  0.2137  0.0559
  163MOL0     O21431   2.431   0.661  10.506 -0.0621  0.1731 -0.2115
  163MOL0     C21432   2.697   0.660  10.571  0.5255  0.6654 -0.3268
  163MOL0     C21433   2.837   0.677  10.560  0.0714  1.0163 -1.1779
  163MOL0     N21434   3.220   1.009  10.371 -0.2957  0.2507  0.4040
  163MOL0     N21435   3.281   1.113  10.422  0.3309 -0.7578 -0.0131
  163MOL0     C21436   4.607   1.429  10.679  0.2247 -0.7719 -0.3453
  163MOL0     C21437   4.712   1.513  10.670  0.5678 -0.4471 -0.3836
  163MOL0     C21438   4.977   1.883  10.801  0.2470  0.4357  0.5195
  163MOL0     C21439   4.988   2.002  10.867 -0.6702 -0.5060  0.0982
  163MOL0     C21440   5.115   2.054  10.877  0.2801 -0.0442  0.0014
  163MOL0     C21441   5.224   1.996  10.817 -0.2316  0.1974 -0.3872
  163MOL0     O21442   5.341   2.052  10.838 -0.1800  1.2400 -0.1545
  163MOL0     C21443   5.466   1.984  10.803 -1.0640 -0.1363  0.3951
  163MOL0     C21444   5.579   2.084  10.838  0.4215  0.7959  0.8211
  163MOL0     C21445   5.703   2.054  10.746 -0.0932 -0.3764  0.4135
  163MOL0     C21446   5.684   2.083  10.595 -0.0985 -0.0074 -0.0838
  163MOL0     C21447   5.812   2.121  10.523  0.5182  0.1268 -0.3678
  163MOL0     C21448   5.916   2.143  10.463  0.5700 -0.9949 -0.9056
  163MOL0     C21449   5.205   1.880  10.734 -0.9881 -0.5270 -0.6888
  163MOL0     C21450   5.085   1.820  10.731 -0.5362 -0.0782  0.1947
  163MOL0     H21451   4.554   1.795  10.762  1.1088 -0.0479 -0.9900
  163MOL0     H21452   4.366   1.647  10.765  0.2785  0.1068 -1.2427
  163MOL0     H21453   4.313   1.406  10.561  2.2177 -5.4277  0.3143
  163MOL0     H21454   4.216   1.493  10.691  0.6670 -0.3703 -0.1661
  163MOL0     H21455   4.127   1.298  10.780 -0.0021 -5.1149 -0.5125
  163MOL0     H21456   4.219   1.202  10.663 -1.4133 -1.3334  0.2834
  163MOL0     H21457   4.102   1.335  10.477  2.7958 -1.6995  0.8747
  163MOL0     H21458   3.984   1.373  10.614  0.0043  0.2268 -0.9723
  163MOL0     H21459   4.067   1.108  10.520 -0.9959 -2.8750  1.9405
  163MOL0     H21460   3.955   1.157  10.656 -1.0946  2.6526  0.6051
  163MOL0     H21461   3.861   1.091  10.420  0.9420 -0.2689 -1.0852
  163MOL0     H21462   3.893   1.255  10.374 -1.7352  2.8878  0.9955
  163MOL0     H21463   3.756   1.349  10.565  0.2018 -0.4270  0.2364
  163MOL0     H21464   3.729   1.187  10.627  2.2697  2.7975  2.9217
  163MOL0     H21465   3.594   1.332  10.398  2.2577  0.5090 -0.9531
  163MOL0     H21466   3.653   1.173  10.354 -2.4388 -0.0317 -0.2447
  163MOL0     H21467   3.430   1.247  10.560 -1.4668  0.9906 -1.9791
  163MOL0     H21468   3.536   1.111  10.599  0.0153  0.6241  0.1568
  163MOL0     H21469   3.541   0.944  10.329  0.8912  1.2868 -0.7728
  163MOL0     H21470   3.366   0.773  10.186  0.6775 -0.9748  0.3241
  163MOL0     H21471   3.192   0.781  10.239  0.7866 -0.2979 -0.5710
  163MOL0     H21472   3.443   0.679  10.387  1.1074 -0.7474 -0.2084
  163MOL0     H21473   3.310   0.575  10.322  0.2692  1.0931 -1.0747
  163MOL0     H21474   3.259   0.584  10.540  1.2054  0.8719 -0.6098
  163MOL0     H21475   3.285   0.758  10.569  1.2795  0.2327  0.6751
  163MOL0     H21476   3.071   0.781  10.410 -4.1390 -0.6378  2.0641
  163MOL0     H21477   3.081   0.740  10.585 -0.6192 -2.9593  1.6792
  163MOL0     H21478   2.902   0.357  10.447 -2.5337 -1.1981 -0.6388
  163MOL0     H21479   2.651   0.350  10.463  0.3914 -0.9838  1.2331
  163MOL0     H21480   2.281   0.337  10.281  1.1781  1.4268 -0.9999
  163MOL0     H21481   2.037   0.363  10.267 -0.1368  1.7347  0.0128
  163MOL0     H21482   1.841   0.404  10.254  0.7040 -1.6291  1.6051
  163MOL0     H21483   1.846   0.578  10.296  0.2865  0.4649 -1.0563
  163MOL0     H21484   1.648   0.565  10.426  1.2075 -0.2203  1.0462
  163MOL0     H21485   1.649   0.397  10.432  1.2940  0.8517  0.0985
  163MOL0     H21486   1.613   0.413  10.161  3.1263 -0.0059  1.5006
  163MOL0     H21487   1.549   0.566  10.219  2.8878 -0.3695 -1.4087
  163MOL0     H21488   1.465   0.285  10.319 -0.1573 -1.1663 -2.8837
  163MOL0     H21489   1.380   0.445  10.361  1.3709  2.0802 -0.7961
  163MOL0     H21490   1.411   0.329  10.085 -0.2743 -0.6011  0.0846
  163MOL0     H21491   1.306   0.463  10.139 -0.3643  1.0963  2.9539
  163MOL0     H21492   1.158   0.284  10.257  0.4016  0.5556 -0.6260
  163MOL0     H21493   1.295   0.172  10.241  1.6575  0.6245 -0.0549
  163MOL0     H21494   1.258   0.241   9.987  0.0760 -2.3707 -0.1486
  163MOL0     H21495   1.144   0.132  10.055 -0.3320  0.4442  1.9847
  163MOL0     H21496   1.068   0.428  10.053  0.5414  0.4091 -0.3363
  163MOL0     H21497   0.976   0.279  10.111 -0.8037 -2.7898 -1.9016
  163MOL0     H21498   2.007   0.492  10.661 -2.6747  0.8643 -2.6106
  163MOL0     H21499   2.254   0.492  10.691  0.8981 -1.3292 -0.1389
  163MOL0     H21500   2.648   0.752  10.600  1.3157  2.0162 -2.9297
  163MOL0     H21501   2.876   0.778  10.572 -0.1841  1.0042 -0.1308
  163MOL0     H21502   4.627   1.328  10.647 -0.7645 -0.9133 -0.5757
  163MOL0     H21503   4.803   1.468  10.633 -0.6896 -0.2750 -4.0772
  163MOL0     H21504   4.911   2.055  10.924  1.5901  3.2629  0.0131
  163MOL0     H21505   5.124   2.151  10.926 -2.2156 -0.6259  1.8297
  163MOL0     H21506   5.474   1.978  10.694  2.1927  2.3745  0.3310
  163MOL0     H21507   5.481   1.886  10.849  2.1323 -1.2352 -2.4819
  163MOL0     H21508   5.538   2.183  10.820 -2.2601 -0.6310 -1.8683
  163MOL0     H21509   5.613   2.075  10.942  0.5719  0.2460  0.7301
  163MOL0     H21510   5.725   1.947  10.750  0.3264 -0.2887  0.6330
  163MOL0     H21511   5.789   2.112  10.781 -0.8445 -0.2737  2.1987
  163MOL0     H21512   5.637   1.994  10.553  1.3007 -0.7444 -0.1655
  163MOL0     H21513   5.611   2.161  10.571  0.5256  0.8270  0.6354
  163MOL0     H21514   6.005   2.156  10.405 -1.1521  2.7982 -3.0633
  163MOL0     H21515   5.276   1.820  10.677 -0.5885 -1.1931  0.4620
  163MOL0     H21516   5.071   1.723  10.684  0.6633  0.4887 -1.4171
  164MOL0     O21517   5.947   5.653   0.113  0.5308 -0.3635  1.1621
  164MOL0     C21518   6.052   5.697   0.071 -0.4352 -0.3709  0.8978
  164MOL0     O21519   6.056   5.810  -0.005 -0.1535  0.3257 -0.5234
  164MOL0     C21520   5.940   5.880  -0.023  0.6102  0.5715  0.0059
  164MOL0     C21521   5.923   6.015   0.019 -0.0455  0.0238  0.4648
  164MOL0     C21522   5.813   6.099  -0.034 -0.0936  0.4559 -0.2091
  164MOL0     C21523   5.723   6.038  -0.112  0.0996  0.5584 -0.1037
  164MOL0     O21524   5.631   6.127  -0.156  0.7086 -0.6785  0.3420
  164MOL0     C21525   5.517   6.072  -0.232  0.6795  0.2114  0.5328
  164MOL0     C21526   5.407   6.030  -0.131  0.5197 -0.3582 -0.1577
  164MOL0     C21527   5.323   6.153  -0.071 -0.0615 -0.0348  0.6488
  164MOL0     C21528   5.263   6.255  -0.174 -0.9794 -0.4722  0.3362
  164MOL0     C21529   5.199   6.381  -0.110  0.6264  0.1497  0.7422
  164MOL0     C21530   5.120   6.460  -0.208  0.5345 -1.1318  0.8258
  164MOL0     C21531   5.133   6.614  -0.193 -0.6145 -0.1660  0.2064
  164MOL0     C21532   5.047   6.692  -0.292 -0.1657 -0.5585 -0.2150
  164MOL0     N21533   5.061   6.836  -0.278 -0.3806 -0.8972 -0.0748
  164MOL0     C21534   4.982   6.923  -0.203 -0.2396  1.3026  0.5730
  164MOL0     C21535   5.028   7.046  -0.213 -0.2390  0.0332 -0.2325
  164MOL0     C21536   4.950   7.155  -0.150  0.2582  1.3396  0.5897
  164MOL0     C21537   4.889   7.255  -0.248 -0.4987 -1.0917 -0.6251
  164MOL0     C21538   4.832   7.172  -0.370 -0.6543  0.4632  0.6770
  164MOL0     C21539   4.783   7.261  -0.485 -0.5511  0.6974  0.0735
  164MOL0     O21540   4.662   7.323  -0.441 -0.0907 -1.0377 -0.3213
  164MOL0     C21541   4.543   7.262  -0.452 -0.5856  0.2122  1.2529
  164MOL0     C21542   4.524   7.126  -0.496  0.3914 -0.3774 -0.0071
  164MOL0     C21543   4.398   7.058  -0.501  0.0586  0.6886 -0.1741
  164MOL0     C21544   4.285   7.148  -0.499 -0.5272  0.5148 -0.2667
  164MOL0     C21545   4.145   7.094  -0.496 -0.4759  0.1213  0.0043
  164MOL0     O21546   4.045   7.182  -0.455 -0.4653 -0.0289 -0.5836
  164MOL0     C21547   3.921   7.145  -0.497  0.0832 -0.6449  0.8673
  164MOL0     C21548   3.882   7.192  -0.627  1.7640 -0.5851  0.1948
  164MOL0     C21549   3.747   7.184  -0.666 -0.3708  0.1548  0.0304
  164MOL0     C21550   3.662   7.120  -0.576  0.9378 -0.6963 -0.4617
  164MOL0     O21551   3.529   7.095  -0.618 -0.6991 -0.0989 -0.3716
  164MOL0     C21552   3.448   7.208  -0.654  0.5562  0.3964  0.1819
  164MOL0     C21553   3.381   7.163  -0.794  0.3583 -0.3996  0.5520
  164MOL0     C21554   3.271   7.258  -0.829  0.4898 -0.3528  0.4338
  164MOL0     C21555   3.192   7.213  -0.950 -0.3696 -0.0433 -0.1439
  164MOL0     C21556   3.070   7.303  -0.977  0.2955  0.8550  0.1973
  164MOL0     C21557   2.968   7.296  -0.866  0.1752  0.0543  0.0373
  164MOL0     C21558   2.847   7.382  -0.906 -0.3219 -0.4727  0.3287
  164MOL0     C21559   2.716   7.367  -0.827 -0.2023 -0.1202  0.1114
  164MOL0    Cl21560   2.616   7.510  -0.871 -0.4329 -0.1618 -0.0776
  164MOL0     C21561   3.701   7.067  -0.453  0.0289 -0.2993 -0.1366
  164MOL0     C21562   3.832   7.085  -0.415  0.6412 -0.0473  0.1224
  164MOL0     O21563   4.120   6.981  -0.535 -0.8482  0.8131 -0.3161
  164MOL0     C21564   4.303   7.283  -0.464  0.0151  0.0984 -0.2732
  164MOL0     C21565   4.428   7.346  -0.449  0.4241 -0.6221  0.4496
  164MOL0     N21566   5.141   7.048  -0.288  0.1405  0.3556  0.6642
  164MOL0     N21567   5.159   6.923  -0.326 -0.1843  0.1468  0.2160
  164MOL0     C21568   5.739   5.898  -0.156  1.3390  0.4621  0.3106
  164MOL0     C21569   5.841   5.820  -0.106 -0.6661 -0.4101  0.1897
  164MOL0     C21570   6.177   5.620   0.094 -0.3987 -0.8886 -0.7524
  164MOL0     C21571   6.191   5.510   0.179  0.7096  0.5696 -0.7935
  164MOL0     C21572   6.316   5.459   0.210 -0.6135  0.2719 -1.1499
  164MOL0     C21573   6.427   5.512   0.152 -0.9926  0.1730 -0.6960
  164MOL0     O21574   6.548   5.458   0.192  0.0924 -0.1997 -0.1499
  164MOL0     C21575   6.655   5.556   0.213  0.8159  0.2067 -0.1865
  164MOL0     C21576   6.751   5.532   0.095 -0.8237  0.1918 -0.0048
  164MOL0     C21577   6.877   5.454   0.134  0.0591  0.3784  0.2564
  164MOL0     C21578   6.958   5.424  -0.004  0.3240  0.6242 -0.1302
  164MOL0     C21579   7.093   5.362   0.022 -0.3779 -0.2855 -0.6710
  164MOL0     C21580   7.206   5.323   0.025 -0.6430 -0.3849  0.7938
  164MOL0     C21581   6.415   5.614   0.057  1.1602 -0.1376  0.3378
  164MOL0     C21582   6.287   5.663   0.022 -0.3016 -0.8829 -0.1238
  164MOL0     H21583   5.991   6.058   0.092 -0.1036  2.9916 -1.0702
  164MOL0     H21584   5.803   6.207  -0.026  1.2637  0.6006 -0.2439
  164MOL0     H21585   5.548   5.993  -0.302 -0.0878 -0.7437  1.2457
  164MOL0     H21586   5.486   6.155  -0.296  0.7878 -0.2106 -0.0792
  164MOL0     H21587   5.446   5.973  -0.046  0.0428  1.6218  1.4658
  164MOL0     H21588   5.335   5.970  -0.188 -0.3426 -1.0352  1.5759
  164MOL0     H21589   5.380   6.212   0.001 -1.0457  1.6874  0.0910
  164MOL0     H21590   5.235   6.118  -0.016 -0.4000 -0.0882  0.0827
  164MOL0     H21591   5.325   6.284  -0.259  0.9561 -2.7240  0.8779
  164MOL0     H21592   5.180   6.201  -0.221 -0.6000 -0.3550 -0.4965
  164MOL0     H21593   5.277   6.454  -0.087  1.7893 -0.3371 -1.3491
  164MOL0     H21594   5.136   6.354  -0.025 -0.7579 -0.4480 -0.4156
  164MOL0     H21595   5.014   6.436  -0.197 -0.0796  1.3336  0.7234
  164MOL0     H21596   5.162   6.443  -0.308 -0.4799 -1.7288  0.4918
  164MOL0     H21597   5.096   6.644  -0.095 -1.3207 -2.6070  0.7548
  164MOL0     H21598   5.238   6.644  -0.198 -1.0852  2.1978  2.3559
  164MOL0     H21599   4.944   6.655  -0.298  0.4243 -2.5632  0.9640
  164MOL0     H21600   5.087   6.665  -0.390 -1.3681  2.8713 -1.8003
  164MOL0     H21601   4.883   6.899  -0.164 -0.4571 -0.5235 -0.9694
  164MOL0     H21602   5.029   7.202  -0.091  2.4138 -1.4248  0.1369
  164MOL0     H21603   4.876   7.116  -0.079  0.1771  0.1718 -0.1094
  164MOL0     H21604   4.974   7.316  -0.281  0.3637 -0.9274  1.7279
  164MOL0     H21605   4.813   7.316  -0.200 -2.9987 -3.7089 -1.0107
  164MOL0     H21606   4.913   7.121  -0.424 -2.3708 -1.3148 -0.3832
  164MOL0     H21607   4.770   7.084  -0.351  0.1874 -0.1529  0.6345
  164MOL0     H21608   4.775   7.201  -0.576  0.8430 -2.9390  2.1268
  164MOL0     H21609   4.850   7.339  -0.523  2.5628 -2.2632 -1.0969
  164MOL0     H21610   4.609   7.060  -0.509  0.3719 -0.2235 -0.9826
  164MOL0     H21611   4.394   6.951  -0.518  1.5186  0.4399  0.8407
  164MOL0     H21612   3.952   7.250  -0.686 -0.2767  1.3056 -0.5088
  164MOL0     H21613   3.709   7.228  -0.757  4.1121  0.7711 -1.7712
  164MOL0     H21614   3.511   7.294  -0.677  0.2369 -0.0894 -2.8332
  164MOL0     H21615   3.367   7.218  -0.581  1.5587 -1.3509  1.6093
  164MOL0     H21616   3.324   7.072  -0.771 -1.8257  1.0179  0.9681
  164MOL0     H21617   3.446   7.168  -0.882 -0.7901  1.3788 -0.2397
  164MOL0     H21618   3.296   7.364  -0.836 -0.2135 -0.1553  0.7211
  164MOL0     H21619   3.204   7.271  -0.743 -1.7219 -0.1916 -1.2099
  164MOL0     H21620   3.262   7.212  -1.034 -3.4318 -0.8388 -2.9133
  164MOL0     H21621   3.164   7.107  -0.941  2.5816 -0.9392 -0.5100
  164MOL0     H21622   3.028   7.272  -1.073  1.3547 -0.5728  0.1656
  164MOL0     H21623   3.097   7.409  -0.980  2.1432  0.6204  3.6370
  164MOL0     H21624   3.010   7.336  -0.774 -1.1131  1.2992  0.1250
  164MOL0     H21625   2.941   7.192  -0.842  1.9076 -0.1589  1.2267
  164MOL0     H21626   2.885   7.483  -0.886  3.1207 -2.4113  5.4640
  164MOL0     H21627   2.823   7.371  -1.012 -0.1852  2.7607 -0.1482
  164MOL0     H21628   2.737   7.377  -0.720 -1.1447  0.4498  0.2510
  164MOL0     H21629   2.670   7.270  -0.849 -3.7152  1.1500  1.2557
  164MOL0     H21630   3.623   7.031  -0.386 -1.4109  4.4131  1.0794
  164MOL0     H21631   3.862   7.052  -0.316 -1.2269 -0.4388  0.6123
  164MOL0     H21632   4.214   7.345  -0.455  0.3764  0.6785 -0.5621
  164MOL0     H21633   4.432   7.451  -0.423  1.7379 -0.7407  0.8041
  164MOL0     H21634   5.660   5.840  -0.204 -2.2200  2.7586  2.8619
  164MOL0     H21635   5.852   5.716  -0.137 -2.2273 -0.3751 -0.6143
  164MOL0     H21636   6.100   5.468   0.221  1.1194  0.8272  0.3937
  164MOL0     H21637   6.336   5.398   0.298  0.9270  2.7105  0.3265
  164MOL0     H21638   6.702   5.531   0.309  3.3740  1.4661 -1.0280
  164MOL0     H21639   6.632   5.661   0.234  2.6652  0.1521  2.6639
  164MOL0     H21640   6.692   5.493   0.012 -3.9043 -2.6373  3.2073
  164MOL0     H21641   6.786   5.627   0.053  0.6138 -0.3606 -0.1325
  164MOL0     H21642   6.855   5.360   0.185 -0.4499  1.1634  1.5132
  164MOL0     H21643   6.942   5.517   0.196  0.0657  2.7885 -2.0090
  164MOL0     H21644   6.897   5.360  -0.068  0.0285  2.5242 -1.8565
  164MOL0     H21645   6.976   5.515  -0.061  0.8871 -0.5535 -1.9255
  164MOL0     H21646   7.303   5.282   0.004 -0.9747 -0.3962 -0.8068
  164MOL0     H21647   6.506   5.663   0.023 -0.3589  1.6279 -1.4465
  164MOL0     H21648   6.283   5.745  -0.049  0.3962  1.1352  2.0360
  165MOL0     O21649   4.857   6.233   7.790 -0.1000  0.2821  0.8776
  165MOL0     C21650   4.913   6.327   7.740 -0.2437 -0.0269 -0.3796
  165MOL0     O21651   4.856   6.451   7.711  0.3065  0.3272 -0.0468
  165MOL0     C21652   4.726   6.477   7.740  0.3485  0.3967 -0.6839
  165MOL0     C21653   4.689   6.607   7.770 -0.1182 -0.7934 -0.4016
  165MOL0     C21654   4.564   6.642   7.814  0.1228  0.3390 -0.7174
  165MOL0     C21655   4.466   6.544   7.820  0.6647  0.2448 -0.6760
  165MOL0     O21656   4.342   6.598   7.851  0.5401 -0.0825  0.4013
  165MOL0     C21657   4.224   6.541   7.781  0.2232 -0.2504 -0.1613
  165MOL0     C21658   4.090   6.578   7.833 -1.1529 -1.0860 -0.3490
  165MOL0     C21659   4.061   6.540   7.980 -0.8211  0.5390 -0.1185
  165MOL0     C21660   4.162   6.596   8.083 -0.1066 -0.6844  0.1286
  165MOL0     C21661   4.134   6.581   8.233  0.7598 -0.0221 -0.0325
  165MOL0     C21662   4.119   6.442   8.283 -0.2049 -0.0210 -0.1762
  165MOL0     C21663   4.075   6.430   8.422 -0.0896 -0.3653 -0.0423
  165MOL0     C21664   4.181   6.476   8.531  0.4470 -0.5840  0.9818
  165MOL0     N21665   4.288   6.385   8.536 -0.4900  0.2117  0.6455
  165MOL0     C21666   4.407   6.387   8.460  0.0082  0.1772 -0.4451
  165MOL0     C21667   4.465   6.266   8.485  0.7510  0.5578  0.0167
  165MOL0     C21668   4.596   6.220   8.435  0.3905 -0.2778 -0.9699
  165MOL0     C21669   4.710   6.275   8.525  0.2753  0.0737  0.9283
  165MOL0     C21670   4.844   6.268   8.460 -0.8645  0.6455  0.6048
  165MOL0     C21671   4.960   6.321   8.544  0.2428  0.3659 -0.4337
  165MOL0     O21672   4.958   6.245   8.666 -0.1823 -0.0452  0.0446
  165MOL0     C21673   5.075   6.250   8.737 -0.4173  0.6220  0.2289
  165MOL0     C21674   5.101   6.143   8.825  0.0350  0.4238  0.5385
  165MOL0     C21675   5.224   6.139   8.893  0.5577  0.3304 -0.7473
  165MOL0     C21676   5.324   6.233   8.873 -0.3381 -0.2103 -0.1013
  165MOL0     C21677   5.449   6.234   8.953 -0.0500 -0.7344 -0.1511
  165MOL0     O21678   5.549   6.310   8.905  0.2464 -0.7960 -0.2687
  165MOL0     C21679   5.667   6.296   8.967 -0.4375 -1.3616  0.5419
  165MOL0     C21680   5.774   6.234   8.897 -0.4747 -0.1596 -0.0849
  165MOL0     C21681   5.903   6.246   8.952 -0.3225 -0.0708  0.2662
  165MOL0     C21682   5.920   6.298   9.081 -0.1502 -0.0844  0.0586
  165MOL0     O21683   6.048   6.291   9.121  0.2159  0.1133  0.4729
  165MOL0     C21684   6.088   6.372   9.231 -0.4371  0.2324  0.2836
  165MOL0     C21685   6.240   6.359   9.260 -0.8232  0.0616  0.2607
  165MOL0     C21686   6.283   6.470   9.344 -0.5590 -1.3085 -0.8206
  165MOL0     C21687   6.426   6.506   9.349 -0.3591  0.2490  0.3089
  165MOL0     C21688   6.507   6.382   9.373 -0.4324  0.3042 -0.4844
  165MOL0     C21689   6.657   6.430   9.404 -0.2985  0.1277  0.2424
  165MOL0     C21690   6.778   6.320   9.397 -0.1146 -0.1442 -0.0517
  165MOL0     C21691   6.756   6.203   9.491 -0.4801 -0.6956 -0.4262
  165MOL0    Cl21692   6.890   6.096   9.466 -0.3459 -0.1090 -0.3622
  165MOL0     C21693   5.816   6.357   9.153 -0.8935  0.1195 -0.5548
  165MOL0     C21694   5.692   6.357   9.095  0.1484 -0.5502 -0.1728
  165MOL0     O21695   5.452   6.161   9.054  0.5655 -0.4787 -0.7096
  165MOL0     C21696   5.305   6.329   8.782  0.4401 -0.7385 -0.0631
  165MOL0     C21697   5.180   6.344   8.720 -0.1257  0.1829  0.2134
  165MOL0     N21698   4.386   6.201   8.588 -0.7950  0.5133 -0.3070
  165MOL0     N21699   4.287   6.276   8.615  0.2529 -0.6307  0.3453
  165MOL0     C21700   4.498   6.410   7.788 -0.6848  1.0851 -0.2319
  165MOL0     C21701   4.631   6.379   7.750  0.3972 -0.0308  0.1761
  165MOL0     C21702   5.055   6.320   7.696  0.2639  0.1181  0.1796
  165MOL0     C21703   5.123   6.421   7.622 -0.3950 -0.1112 -0.5928
  165MOL0     C21704   5.262   6.404   7.591  0.3959  0.1914  0.4470
  165MOL0     C21705   5.331   6.290   7.632 -1.6848  0.0511  0.2529
  165MOL0     O21706   5.468   6.268   7.613 -0.1384  0.2214  1.0040
  165MOL0     C21707   5.538   6.358   7.539 -0.6630  0.5010  0.0210
  165MOL0     C21708   5.679   6.314   7.518 -0.0999 -0.2339 -0.2283
  165MOL0     C21709   5.760   6.281   7.647 -0.7515 -0.0260 -0.2244
  165MOL0     C21710   5.720   6.138   7.717 -0.0667 -0.3955  0.2500
  165MOL0     C21711   5.739   6.020   7.627  0.2691  0.1707 -0.5536
  165MOL0     C21712   5.733   5.926   7.550  0.2921  0.1435  0.8046
  165MOL0     C21713   5.263   6.189   7.701 -0.2521 -0.9365 -0.2209
  165MOL0     C21714   5.133   6.204   7.731  0.9675  0.0269 -0.1556
  165MOL0     H21715   4.767   6.681   7.763 -1.2217  0.2529 -2.4265
  165MOL0     H21716   4.513   6.734   7.842 -1.4166 -1.0190  1.2845
  165MOL0     H21717   4.230   6.433   7.797 -1.6869 -0.0653  2.5167
  165MOL0     H21718   4.232   6.574   7.677 -1.8940 -2.2768 -1.0840
  165MOL0     H21719   4.023   6.535   7.759 -2.8697  1.4458 -0.3857
  165MOL0     H21720   4.087   6.687   7.826 -2.3893 -1.0815 -0.0796
  165MOL0     H21721   4.077   6.432   7.972 -1.3457  0.5653 -2.1014
  165MOL0     H21722   3.957   6.559   8.007 -1.7089 -0.8330 -2.2431
  165MOL0     H21723   4.261   6.554   8.065  0.1920 -0.0894  0.3393
  165MOL0     H21724   4.174   6.704   8.071  2.9397 -1.2058 -3.4116
  165MOL0     H21725   4.031   6.615   8.226  0.8916  0.4454  0.3113
  165MOL0     H21726   4.205   6.642   8.290  0.5236  2.1802 -1.9227
  165MOL0     H21727   4.218   6.395   8.275 -0.7440 -1.6218  1.7291
  165MOL0     H21728   4.048   6.389   8.218 -0.8726 -0.1669  0.6602
  165MOL0     H21729   3.989   6.497   8.432  0.0791 -0.0172 -0.8517
  165MOL0     H21730   4.037   6.329   8.439  2.0640 -1.2867 -0.3653
  165MOL0     H21731   4.142   6.474   8.633 -1.1866 -0.1175  0.3967
  165MOL0     H21732   4.222   6.577   8.519  0.5012 -0.4641  2.0825
  165MOL0     H21733   4.429   6.469   8.393 -4.6637  0.6234 -1.7836
  165MOL0     H21734   4.601   6.255   8.331 -2.0163  0.4748 -0.8828
  165MOL0     H21735   4.590   6.111   8.429 -2.8316 -0.2343 -0.1694
  165MOL0     H21736   4.711   6.245   8.630 -1.5104  2.6425  1.7463
  165MOL0     H21737   4.699   6.383   8.529 -0.6154  0.2275 -2.3153
  165MOL0     H21738   4.860   6.161   8.440 -2.4428  0.5049 -0.0400
  165MOL0     H21739   4.857   6.309   8.360 -0.8926 -0.2115  0.2376
  165MOL0     H21740   4.936   6.427   8.555 -4.7476 -0.6290  0.9201
  165MOL0     H21741   5.056   6.303   8.495  0.6379  0.9206  0.1252
  165MOL0     H21742   5.028   6.064   8.840  0.2461  0.3514  1.2315
  165MOL0     H21743   5.254   6.074   8.976  4.4353  0.2670 -1.9949
  165MOL0     H21744   5.766   6.190   8.798  0.1507  1.6617 -0.9965
  165MOL0     H21745   5.988   6.206   8.898  1.1255 -0.8735  2.9600
  165MOL0     H21746   6.033   6.346   9.323 -0.8479 -1.0127 -0.2802
  165MOL0     H21747   6.065   6.470   9.189 -0.8311 -1.7944 -4.9375
  165MOL0     H21748   6.296   6.366   9.166  2.3532 -1.1909  1.9076
  165MOL0     H21749   6.264   6.263   9.306 -0.3947 -0.2538 -0.6068
  165MOL0     H21750   6.256   6.442   9.446  0.6740 -1.2001 -0.4609
  165MOL0     H21751   6.234   6.563   9.315 -1.3107 -0.4731  2.6723
  165MOL0     H21752   6.457   6.547   9.253 -0.5268 -2.2585 -0.9142
  165MOL0     H21753   6.437   6.586   9.422  0.7263 -0.6025  1.1179
  165MOL0     H21754   6.500   6.321   9.282  3.3061 -2.1880  0.6951
  165MOL0     H21755   6.466   6.319   9.452 -2.5184 -0.5173 -2.1152
  165MOL0     H21756   6.652   6.472   9.505 -2.2115  2.0037 -0.5590
  165MOL0     H21757   6.691   6.513   9.340 -1.2644  0.0697 -0.3733
  165MOL0     H21758   6.798   6.278   9.299  3.2898  1.0166  0.0068
  165MOL0     H21759   6.874   6.364   9.427 -0.5803  3.3256 -2.9664
  165MOL0     H21760   6.667   6.152   9.452 -1.9805  3.0860 -2.5353
  165MOL0     H21761   6.741   6.240   9.593 -0.2205 -0.3016 -0.5261
  165MOL0     H21762   5.832   6.426   9.235 -0.3878 -1.1365  0.4427
  165MOL0     H21763   5.610   6.420   9.130 -1.2982 -0.9742 -2.5801
  165MOL0     H21764   5.387   6.393   8.751 -1.3342  0.7526 -1.9147
  165MOL0     H21765   5.165   6.426   8.651  0.3973 -0.0312 -0.1641
  165MOL0     H21766   4.419   6.336   7.790 -0.0999  0.4068 -1.1533
  165MOL0     H21767   4.645   6.273   7.734  2.9510 -0.1279  2.2614
  165MOL0     H21768   5.066   6.512   7.604  0.2975  0.1625 -1.4548
  165MOL0     H21769   5.305   6.484   7.531 -4.0727  0.1047 -3.4344
  165MOL0     H21770   5.543   6.453   7.593  0.6599  0.3408  0.2183
  165MOL0     H21771   5.488   6.372   7.443  0.4529 -1.0445 -0.8257
  165MOL0     H21772   5.690   6.228   7.452 -0.8611 -0.9835  0.5966
  165MOL0     H21773   5.734   6.401   7.481 -0.2125 -0.0192  0.1051
  165MOL0     H21774   5.740   6.359   7.721 -1.4904  0.3776 -0.8475
  165MOL0     H21775   5.866   6.283   7.619 -0.8791  0.5098 -0.6711
  165MOL0     H21776   5.793   6.122   7.797 -0.1070 -1.3166  0.1170
  165MOL0     H21777   5.619   6.140   7.758 -1.0704  2.7783 -2.0192
  165MOL0     H21778   5.739   5.847   7.478  2.3936 -0.0041  1.0748
  165MOL0     H21779   5.308   6.097   7.736  2.0100 -0.8864 -2.6180
  165MOL0     H21780   5.078   6.117   7.765  1.0723 -0.0544 -0.1948
  166MOL0     O21781   5.841   6.530   1.266  0.6284  0.2808  0.6274
  166MOL0     C21782   5.809   6.414   1.255 -0.2169 -0.3679 -0.6540
  166MOL0     O21783   5.891   6.303   1.257 -0.2638  0.4109 -0.3049
  166MOL0     C21784   6.026   6.311   1.275 -0.5758 -0.4216 -0.4673
  166MOL0     C21785   6.101   6.198   1.309  0.3162 -0.2163 -0.1698
  166MOL0     C21786   6.240   6.196   1.297 -0.0334  0.3698  0.1953
  166MOL0     C21787   6.316   6.304   1.283 -0.0610  0.0920  0.9533
  166MOL0     O21788   6.451   6.306   1.286  1.1222 -0.1887 -0.0633
  166MOL0     C21789   6.522   6.182   1.308 -0.0849 -0.9663 -0.0530
  166MOL0     C21790   6.667   6.211   1.274  0.2559 -0.6888 -0.3818
  166MOL0     C21791   6.753   6.087   1.296 -0.0101  0.8958  0.6357
  166MOL0     C21792   6.897   6.135   1.315 -0.8009  0.9282 -0.1230
  166MOL0     C21793   6.999   6.043   1.265 -0.0578 -0.3898  0.0990
  166MOL0     C21794   7.138   6.113   1.242  0.1649  0.5749 -0.3880
  166MOL0     C21795   7.235   6.007   1.176 -0.5639  0.5542  0.3441
  166MOL0     C21796   7.268   5.882   1.263 -0.1382  0.0462 -0.4119
  166MOL0     N21797   7.359   5.920   1.370 -0.5132 -0.1089  0.3824
  166MOL0     C21798   7.324   5.943   1.498 -0.1838  0.3724  0.5657
  166MOL0     C21799   7.443   5.970   1.558  0.6711 -0.3251 -0.5408
  166MOL0     C21800   7.452   6.010   1.700  0.2350  0.1807  0.4360
  166MOL0     C21801   7.433   6.162   1.721  0.2344  0.9499 -0.3509
  166MOL0     C21802   7.281   6.183   1.755 -0.6752  0.8772 -0.1330
  166MOL0     C21803   7.252   6.172   1.907  0.1039 -0.1620  0.5609
  166MOL0     O21804   7.233   6.037   1.947  0.0931  0.0212 -0.4728
  166MOL0     C21805   7.145   6.003   2.042  0.1721  0.9641  0.6977
  166MOL0     C21806   7.071   6.095   2.125  0.0295 -0.9627 -0.0791
  166MOL0     C21807   6.975   6.043   2.218 -0.0286 -0.1356  0.1205
  166MOL0     C21808   6.953   5.902   2.239  0.5217 -0.5495  0.2478
  166MOL0     C21809   6.853   5.863   2.334 -1.5101  0.5005 -0.4562
  166MOL0     O21810   6.899   5.763   2.423 -0.3756  0.0020  0.1834
  166MOL0     C21811   6.815   5.733   2.531 -0.4012  0.2741 -0.0807
  166MOL0     C21812   6.770   5.600   2.554  0.8282 -0.2265 -0.4537
  166MOL0     C21813   6.694   5.563   2.662 -0.3434  0.6209  0.3478
  166MOL0     C21814   6.663   5.657   2.755 -0.3612  0.5075 -0.5362
  166MOL0     O21815   6.605   5.631   2.884 -0.1817  0.0634 -0.0801
  166MOL0     C21816   6.610   5.498   2.942 -0.1751 -0.0851 -1.0188
  166MOL0     C21817   6.472   5.465   2.993 -0.5373 -0.6033 -0.4484
  166MOL0     C21818   6.361   5.489   2.885  0.4829  0.3128 -0.1413
  166MOL0     C21819   6.229   5.449   2.939 -0.8872 -0.6262 -0.3098
  166MOL0     C21820   6.118   5.460   2.836 -0.7378  0.1621 -0.4967
  166MOL0     C21821   5.992   5.401   2.902  0.1551 -0.6806  0.3120
  166MOL0     C21822   5.886   5.386   2.795  0.3141 -0.7396  0.5181
  166MOL0     C21823   5.745   5.368   2.846 -0.7055  0.0043  0.1926
  166MOL0    Cl21824   5.662   5.297   2.711 -0.1164 -0.3595  0.1767
  166MOL0     C21825   6.692   5.787   2.736 -0.5633  0.2981  0.6780
  166MOL0     C21826   6.763   5.834   2.616 -0.3911  0.5112 -0.7586
  166MOL0     O21827   6.739   5.900   2.330  0.3350 -0.6812  0.1374
  166MOL0     C21828   7.042   5.821   2.171 -0.2465 -0.2480  0.7394
  166MOL0     C21829   7.133   5.863   2.070  0.0609  0.5259 -0.6849
  166MOL0     N21830   7.544   5.967   1.465  0.1501  0.1716 -0.0315
  166MOL0     N21831   7.495   5.938   1.350  0.7448 -0.4442  0.6640
  166MOL0     C21832   6.255   6.428   1.266  0.6735 -0.0572 -0.3563
  166MOL0     C21833   6.115   6.434   1.268 -0.7249  1.1333  0.6641
  166MOL0     C21834   5.664   6.393   1.257  0.4039  0.1501 -0.4342
  166MOL0     C21835   5.604   6.267   1.231  0.4022 -0.3054 -0.3181
  166MOL0     C21836   5.461   6.254   1.225  0.5871  0.6145  0.2768
  166MOL0     C21837   5.381   6.359   1.262  0.3390  0.8847  0.0711
  166MOL0     O21838   5.246   6.351   1.272 -0.2335 -0.8997 -0.0545
  166MOL0     C21839   5.174   6.230   1.251  0.5047 -0.1302 -0.0958
  166MOL0     C21840   5.022   6.253   1.295  0.5904  0.1060  0.1222
  166MOL0     C21841   4.961   6.350   1.193  0.0981 -0.5201  0.7036
  166MOL0     C21842   4.813   6.321   1.162  0.5112  0.4350 -0.1753
  166MOL0     C21843   4.734   6.320   1.285 -0.5363  0.2702  0.6133
  166MOL0     C21844   4.677   6.338   1.391  0.0796  0.3054  0.5353
  166MOL0     C21845   5.437   6.480   1.286  0.4042 -0.0833  0.1901
  166MOL0     C21846   5.573   6.497   1.288  0.1631  0.0203 -0.2890
  166MOL0     H21847   6.041   6.110   1.333  0.4012 -0.3531 -0.4486
  166MOL0     H21848   6.287   6.099   1.315  1.0575  0.0371 -3.6900
  166MOL0     H21849   6.481   6.100   1.247 -1.9304  2.5606 -4.1683
  166MOL0     H21850   6.517   6.156   1.414  1.0467 -0.8955  0.0299
  166MOL0     H21851   6.701   6.288   1.344 -1.3076  0.7711 -1.1468
  166MOL0     H21852   6.682   6.250   1.173  0.4620  2.0078  0.6158
  166MOL0     H21853   6.744   6.016   1.213 -1.1526  3.3295 -1.4535
  166MOL0     H21854   6.707   6.038   1.382  1.0870  2.3892  2.1402
  166MOL0     H21855   6.911   6.223   1.251  1.6856  1.8666  1.5337
  166MOL0     H21856   6.910   6.161   1.421 -0.6161  0.2529  0.0235
  166MOL0     H21857   6.964   6.002   1.169 -0.7992  1.8060 -0.6391
  166MOL0     H21858   6.999   5.959   1.335 -1.7894  0.7773  1.5916
  166MOL0     H21859   7.176   6.162   1.332  0.3263 -1.4867  0.7180
  166MOL0     H21860   7.126   6.194   1.169 -1.5879  0.9874  0.3159
  166MOL0     H21861   7.202   5.985   1.074  0.3569 -0.9915  0.3375
  166MOL0     H21862   7.332   6.055   1.162 -0.3038 -0.0807 -0.0808
  166MOL0     H21863   7.325   5.812   1.202  0.7075  0.0412  0.3589
  166MOL0     H21864   7.181   5.837   1.312  0.7810  0.7636  2.0123
  166MOL0     H21865   7.224   5.939   1.541 -1.0189  1.2205 -1.1904
  166MOL0     H21866   7.549   5.991   1.747  0.6809  1.3275  0.0186
  166MOL0     H21867   7.377   5.951   1.753 -1.2591  1.2719 -0.3753
  166MOL0     H21868   7.457   6.202   1.623 -0.3757 -2.2476 -1.9432
  166MOL0     H21869   7.499   6.199   1.800 -1.4052  1.2354  0.9565
  166MOL0     H21870   7.258   6.285   1.724  1.3329  1.1169 -0.9894
  166MOL0     H21871   7.216   6.113   1.702 -0.3769  0.3794  0.1592
  166MOL0     H21872   7.165   6.236   1.924  0.3676  1.4205 -3.0433
  166MOL0     H21873   7.333   6.215   1.966 -0.0226  1.8604 -0.6302
  166MOL0     H21874   7.077   6.202   2.110 -1.2978 -1.0150 -1.2558
  166MOL0     H21875   6.935   6.118   2.285 -0.7768 -0.4969  0.0876
  166MOL0     H21876   6.786   5.525   2.477  4.1115 -0.6460  0.4599
  166MOL0     H21877   6.662   5.460   2.673  1.3188  0.0087 -0.3521
  166MOL0     H21878   6.672   5.497   3.032 -1.9591 -1.2110  0.2729
  166MOL0     H21879   6.639   5.419   2.872 -1.3984 -1.1724 -0.3417
  166MOL0     H21880   6.455   5.529   3.080 -1.2487  0.4529 -1.3338
  166MOL0     H21881   6.461   5.361   3.027  0.5192  0.2304  2.7184
  166MOL0     H21882   6.382   5.449   2.786  0.3989  0.1346 -0.0891
  166MOL0     H21883   6.364   5.598   2.877  1.1697  0.2955 -0.1312
  166MOL0     H21884   6.235   5.346   2.975  5.3352 -0.2985  0.7103
  166MOL0     H21885   6.203   5.516   3.022  0.5890 -1.9353  1.2813
  166MOL0     H21886   6.153   5.410   2.745 -0.1135  0.8046 -0.6144
  166MOL0     H21887   6.107   5.560   2.793  0.0375  0.0309 -1.0326
  166MOL0     H21888   5.968   5.478   2.976  1.5905  1.4620 -1.3361
  166MOL0     H21889   6.009   5.303   2.947 -0.1575 -0.6038  0.6030
  166MOL0     H21890   5.875   5.471   2.728 -1.3315 -1.9088 -0.7809
  166MOL0     H21891   5.907   5.306   2.724 -0.1238  0.5974 -1.1990
  166MOL0     H21892   5.704   5.466   2.870  2.0925  1.9662 -2.2760
  166MOL0     H21893   5.744   5.298   2.931  2.0497 -1.0845 -0.5410
  166MOL0     H21894   6.652   5.861   2.805  0.9167  0.2660  1.6180
  166MOL0     H21895   6.783   5.941   2.611  0.4909  0.3801 -0.1525
  166MOL0     H21896   7.044   5.718   2.204  0.6351 -1.2646 -2.1495
  166MOL0     H21897   7.176   5.788   2.005 -2.3288 -1.6213  0.0560
  166MOL0     H21898   6.322   6.512   1.247  0.0604  0.8595  1.3722
  166MOL0     H21899   6.084   6.536   1.248  5.6127  4.0661  3.1592
  166MOL0     H21900   5.672   6.183   1.224 -0.1390 -0.8152  0.4036
  166MOL0     H21901   5.411   6.160   1.205 -0.9037  1.4254  0.0657
  166MOL0     H21902   5.223   6.166   1.325 -2.1232  0.2492  2.1722
  166MOL0     H21903   5.187   6.180   1.155 -1.4891 -0.9093 -0.0273
  166MOL0     H21904   4.970   6.157   1.306  3.9225 -1.6791  1.5930
  166MOL0     H21905   5.022   6.305   1.392 -1.7386  1.9077 -0.7284
  166MOL0     H21906   5.003   6.358   1.092 -2.1205  0.5442 -0.2040
  166MOL0     H21907   4.960   6.452   1.231 -0.7052  0.3125 -1.4456
  166MOL0     H21908   4.781   6.394   1.088  4.0165  3.2856  0.8407
  166MOL0     H21909   4.807   6.225   1.110 -2.2667 -1.7143  3.6125
  166MOL0     H21910   4.623   6.362   1.479 -2.4611 -1.3163 -0.4655
  166MOL0     H21911   5.365   6.561   1.293 -0.4773 -0.9073  0.9583
  166MOL0     H21912   5.607   6.600   1.297 -2.1363  0.7584  0.4213
  167MOL0     O21913   5.696   0.228   8.722 -0.3226 -0.7092  0.0638
  167MOL0     C21914   5.723   0.113   8.713  0.3189 -0.3004 -0.6390
  167MOL0     O21915   5.645   0.008   8.757  0.1789 -1.3280  0.4035
  167MOL0     C21916   5.511   0.030   8.775  0.8999 -0.5435  0.2244
  167MOL0     C21917   5.435   0.111   8.697  0.3632 -0.2582  0.2436
  167MOL0     C21918   5.295   0.127   8.723  0.1495 -0.1466  0.0829
  167MOL0     C21919   5.234   0.057   8.832 -0.4267 -0.3940  0.1053
  167MOL0     O21920   5.102   0.057   8.871 -0.3129  0.5894  0.5687
  167MOL0     C21921   5.013   0.124   8.783  0.5014  0.3629  0.2503
  167MOL0     C21922   4.879   0.065   8.803  0.5979 -0.3543  0.4288
  167MOL0     C21923   4.753   0.144   8.746  0.0992  0.0775 -0.4133
  167MOL0     C21924   4.626   0.047   8.745  0.3882 -0.2587  0.5461
  167MOL0     C21925   4.500   0.101   8.680  0.1426  0.6074  0.0187
  167MOL0     C21926   4.532   0.157   8.539 -0.5337 -0.6850 -0.0108
  167MOL0     C21927   4.403   0.186   8.465 -0.3541 -0.0703 -0.3707
  167MOL0     C21928   4.410   0.179   8.311  0.3154  0.7435  0.0875
  167MOL0     N21929   4.290   0.236   8.259 -0.2955 -0.0006  0.3566
  167MOL0     C21930   4.172   0.166   8.243 -0.4108 -0.5599 -1.2986
  167MOL0     C21931   4.101   0.261   8.172 -0.2958  0.3168  1.0079
  167MOL0     C21932   3.960   0.226   8.129 -0.6605  0.0548 -0.2935
  167MOL0     C21933   3.856   0.246   8.231  0.7644 -1.0463  0.7140
  167MOL0     C21934   3.840   0.384   8.309  0.2702 -0.0805  0.0502
  167MOL0     C21935   3.700   0.391   8.370  0.5082  0.3077  0.1382
  167MOL0     O21936   3.605   0.402   8.258  0.4573  0.5513 -0.1553
  167MOL0     C21937   3.469   0.364   8.288  0.6801 -0.0118 -0.1452
  167MOL0     C21938   3.395   0.312   8.185  0.1680 -0.3094 -0.7765
  167MOL0     C21939   3.255   0.284   8.202  0.8976 -0.0614 -0.4971
  167MOL0     C21940   3.194   0.312   8.329  1.3055  0.6160  0.5057
  167MOL0     C21941   3.053   0.279   8.359 -0.2029  0.2770 -1.0648
  167MOL0     O21942   3.008   0.157   8.311  0.3345 -0.4199  0.0035
  167MOL0     C21943   2.871   0.132   8.335  0.2691 -0.9174  0.8854
  167MOL0     C21944   2.855   0.007   8.394  0.5816 -0.0652  0.0571
  167MOL0     C21945   2.734  -0.053   8.382  0.7101 -0.0015  1.1248
  167MOL0     C21946   2.627   0.008   8.317 -0.5114  0.1232  0.4961
  167MOL0     O21947   2.512  -0.063   8.310 -0.0620  0.2732 -0.9361
  167MOL0     C21948   2.384   0.005   8.298 -0.3224  0.0862 -0.1655
  167MOL0     C21949   2.278  -0.091   8.334 -0.0848 -0.2538 -0.5208
  167MOL0     C21950   2.145  -0.020   8.352 -0.1807  0.7777 -1.2677
  167MOL0     C21951   2.026  -0.111   8.358  0.4667  1.1974  0.2537
  167MOL0     C21952   1.895  -0.046   8.414 -0.4899 -0.4492  0.5256
  167MOL0     C21953   1.771  -0.127   8.414  0.4168  0.4185  0.3858
  167MOL0     C21954   1.646  -0.048   8.452 -0.7149 -0.3442  0.6977
  167MOL0     C21955   1.515  -0.114   8.398 -0.9567 -0.0245 -0.8076
  167MOL0    Cl21956   1.367  -0.030   8.462  0.3900 -0.2141  0.3753
  167MOL0     C21957   2.637   0.139   8.274  0.2934  0.9690 -0.2309
  167MOL0     C21958   2.762   0.204   8.281 -0.6935  0.4937  0.4551
  167MOL0     O21959   2.986   0.346   8.435  0.6891  0.2000 -0.1904
  167MOL0     C21960   3.266   0.369   8.432 -0.8453  0.6458 -0.5220
  167MOL0     C21961   3.405   0.391   8.411 -0.7016 -1.1149 -0.6794
  167MOL0     N21962   4.176   0.379   8.144 -0.2424 -1.0764  0.4114
  167MOL0     N21963   4.297   0.347   8.185  0.3166 -0.0428  0.6036
  167MOL0     C21964   5.313  -0.013   8.920  0.4532  0.2086  0.0674
  167MOL0     C21965   5.451  -0.025   8.891 -0.0487 -0.4051 -0.2051
  167MOL0     C21966   5.858   0.079   8.667  0.8197  0.5883 -0.7007
  167MOL0     C21967   5.892  -0.061   8.644  0.3436 -0.4372  0.1944
  167MOL0     C21968   6.026  -0.088   8.612 -0.6352  0.5337 -0.4841
  167MOL0     C21969   6.125   0.010   8.622  0.6647  0.1538 -0.1514
  167MOL0     O21970   6.254  -0.030   8.591  0.3256 -0.1628  0.1595
  167MOL0     C21971   6.308  -0.145   8.659  0.6599  0.5361  1.2527
  167MOL0     C21972   6.330  -0.123   8.813  0.0145 -1.1375  0.4117
  167MOL0     C21973   6.481  -0.108   8.851  0.0257 -0.1239  0.8145
  167MOL0     C21974   6.549   0.011   8.787 -0.1645 -0.2538  0.5860
  167MOL0     C21975   6.587  -0.011   8.645  0.5630 -0.7511  1.3595
  167MOL0     C21976   6.611  -0.011   8.527  0.3257 -0.1261 -0.5044
  167MOL0     C21977   6.090   0.145   8.632 -0.1089 -0.7025  0.9527
  167MOL0     C21978   5.958   0.180   8.654  0.0794  0.6081  0.0003
  167MOL0     H21979   5.480   0.170   8.617  1.8926 -0.4772  0.9059
  167MOL0     H21980   5.233   0.171   8.646  0.4284 -3.9379 -2.6124
  167MOL0     H21981   5.028   0.098   8.678 -0.2077  1.0382 -0.0348
  167MOL0     H21982   5.007   0.233   8.796  2.4214  0.6151 -0.6215
  167MOL0     H21983   4.851   0.070   8.909 -2.4197 -0.2601 -0.2795
  167MOL0     H21984   4.869  -0.040   8.774 -3.0003 -0.2999  0.9535
  167MOL0     H21985   4.767   0.194   8.650 -1.3409  1.3796  0.0104
  167MOL0     H21986   4.750   0.223   8.822 -1.6179  1.0309 -1.4062
  167MOL0     H21987   4.652  -0.049   8.698 -0.2726 -2.1792  3.7618
  167MOL0     H21988   4.606   0.028   8.851 -0.1000  0.5214  0.5987
  167MOL0     H21989   4.468   0.191   8.733  1.5186  2.8880 -2.7441
  167MOL0     H21990   4.424   0.023   8.672  1.3254 -0.4980 -0.9563
  167MOL0     H21991   4.591   0.076   8.496  0.2671  0.2553 -0.7484
  167MOL0     H21992   4.588   0.250   8.526 -2.5023  0.2806 -2.3126
  167MOL0     H21993   4.321   0.125   8.504  0.4899 -0.9129  0.1330
  167MOL0     H21994   4.378   0.289   8.493  2.8341  0.2113  1.9094
  167MOL0     H21995   4.428   0.077   8.276 -0.6553  0.6334 -0.0988
  167MOL0     H21996   4.501   0.233   8.282  0.5457  1.4210  1.9412
  167MOL0     H21997   4.142   0.073   8.289 -2.4547  0.6790  0.0404
  167MOL0     H21998   3.973   0.127   8.085  0.1166 -0.8130  1.7762
  167MOL0     H21999   3.937   0.299   8.051 -1.5339  0.5788  0.4250
  167MOL0     H22000   3.869   0.163   8.301 -0.3673 -1.3949  0.5317
  167MOL0     H22001   3.761   0.227   8.179  0.6709  0.1814  0.3836
  167MOL0     H22002   3.911   0.372   8.391 -2.0028 -0.8785  2.0317
  167MOL0     H22003   3.851   0.472   8.246  1.1477 -3.0046 -4.4043
  167MOL0     H22004   3.689   0.479   8.434 -0.9745  0.5779 -0.4638
  167MOL0     H22005   3.686   0.295   8.421  2.0528  0.1295  0.2832
  167MOL0     H22006   3.435   0.282   8.088  0.8171  3.2567 -1.7729
  167MOL0     H22007   3.214   0.228   8.119  1.4692  1.1210 -1.6063
  167MOL0     H22008   2.935  -0.049   8.441  0.6214 -1.0630 -1.1310
  167MOL0     H22009   2.729  -0.154   8.423 -1.0053 -0.6351 -0.4984
  167MOL0     H22010   2.372   0.036   8.194  1.5056  2.6846  0.3028
  167MOL0     H22011   2.375   0.094   8.361 -2.5714  1.2600 -2.0070
  167MOL0     H22012   2.303  -0.145   8.426 -2.3796 -1.4838 -0.5497
  167MOL0     H22013   2.255  -0.164   8.256 -1.6984 -0.6409  0.2694
  167MOL0     H22014   2.131   0.030   8.255  0.1175  3.6225  0.0545
  167MOL0     H22015   2.143   0.054   8.432 -1.1752  0.1454 -0.6957
  167MOL0     H22016   2.002  -0.150   8.258 -0.1315 -0.3154  0.9630
  167MOL0     H22017   2.055  -0.189   8.429 -1.9339  2.4966  2.8489
  167MOL0     H22018   1.876   0.046   8.358 -0.1543  0.0576  1.2260
  167MOL0     H22019   1.921  -0.020   8.517 -1.1532 -1.1583  0.8824
  167MOL0     H22020   1.779  -0.205   8.491  0.9579  1.3129  1.2630
  167MOL0     H22021   1.767  -0.171   8.314  0.8711  3.3040 -0.9902
  167MOL0     H22022   1.633  -0.042   8.560 -2.6933 -0.9151  0.5472
  167MOL0     H22023   1.653   0.056   8.420 -0.6668 -0.7322 -0.6204
  167MOL0     H22024   1.511  -0.219   8.430  0.3582 -0.1632 -1.0471
  167MOL0     H22025   1.513  -0.103   8.289 -0.6775 -0.7139 -0.8856
  167MOL0     H22026   2.551   0.190   8.232 -0.4977 -3.2035 -4.5748
  167MOL0     H22027   2.773   0.302   8.235  1.9973 -1.2168 -2.9695
  167MOL0     H22028   3.232   0.377   8.535  1.6837  2.0706  0.3122
  167MOL0     H22029   3.462   0.442   8.489  2.0220 -0.4391 -2.9282
  167MOL0     H22030   5.283  -0.075   9.004 -0.8627 -0.6609 -1.0102
  167MOL0     H22031   5.517  -0.082   8.955 -0.7990  0.3747  1.3072
  167MOL0     H22032   5.823  -0.139   8.674 -0.4926 -0.2486 -1.1084
  167MOL0     H22033   6.056  -0.191   8.602  0.7821  0.5589  2.4330
  167MOL0     H22034   6.403  -0.176   8.613 -0.4889 -0.3057 -0.7081
  167MOL0     H22035   6.239  -0.230   8.663  1.5227 -0.3671 -1.1739
  167MOL0     H22036   6.279  -0.031   8.842  1.0220 -0.7077  0.8758
  167MOL0     H22037   6.284  -0.197   8.880  0.0099  0.2332  1.9901
  167MOL0     H22038   6.529  -0.201   8.819 -1.5996  0.1835 -2.9619
  167MOL0     H22039   6.483  -0.094   8.960 -0.5668 -2.2094  1.1320
  167MOL0     H22040   6.486   0.101   8.783  1.8188  1.1582 -2.2156
  167MOL0     H22041   6.645   0.035   8.832  0.3762  0.3097 -0.8067
  167MOL0     H22042   6.611  -0.013   8.419 -1.2199 -0.7441 -0.5184
  167MOL0     H22043   6.174   0.213   8.624 -0.0448 -0.9695 -4.7114
  167MOL0     H22044   5.935   0.286   8.660 -4.8232 -0.2454  0.2711
  168MOL0     O22045  10.312   7.959   0.257 -1.0039 -0.1851 -0.0620
  168MOL0     C22046  10.396   8.008   0.336  0.6675  0.7223  0.3132
  168MOL0     O22047  10.415   8.138   0.360 -0.4272 -0.2034 -0.0552
  168MOL0     C22048  10.312   8.215   0.313 -0.5410  0.3115 -0.0115
  168MOL0     C22049  10.185   8.201   0.348  0.0759 -0.0388 -0.0858
  168MOL0     C22050  10.081   8.281   0.304  0.0864  0.0720 -0.5319
  168MOL0     C22051  10.111   8.403   0.234 -0.7618  0.2597 -0.2078
  168MOL0     O22052  10.012   8.489   0.186 -0.1619  0.2891 -0.0957
  168MOL0     C22053   9.889   8.506   0.260  0.0880  0.6282 -0.2770
  168MOL0     C22054   9.796   8.604   0.189  0.4188 -0.6584  0.6691
  168MOL0     C22055   9.700   8.682   0.272 -0.0840 -0.6366  0.0358
  168MOL0     C22056   9.632   8.790   0.176 -0.0202  0.4585 -1.2004
  168MOL0     C22057   9.498   8.825   0.232  0.2497  0.3720 -0.4362
  168MOL0     C22058   9.518   8.912   0.363  0.0739 -0.0343  0.1538
  168MOL0     C22059   9.389   8.951   0.423  0.3375 -0.1231 -0.8820
  168MOL0     C22060   9.405   9.081   0.507  0.0013  0.8543 -0.2911
  168MOL0     N22061   9.288   9.098   0.596 -0.3665 -0.2664  0.0919
  168MOL0     C22062   9.174   9.171   0.582  0.6197  0.1329  0.7576
  168MOL0     C22063   9.106   9.156   0.700  0.2211  0.1298  0.2864
  168MOL0     C22064   8.972   9.231   0.733 -0.8323 -0.6091  0.0381
  168MOL0     C22065   8.869   9.243   0.620  0.0265 -0.5234  0.4230
  168MOL0     C22066   8.742   9.328   0.639  1.0950 -0.7690  0.6417
  168MOL0     C22067   8.642   9.321   0.519  0.1077 -0.5408 -0.0468
  168MOL0     O22068   8.598   9.183   0.505 -0.4284  0.1598  0.5421
  168MOL0     C22069   8.490   9.124   0.570 -0.0600  0.4857 -0.1382
  168MOL0     C22070   8.430   9.189   0.673  0.4467 -0.7917  0.3016
  168MOL0     C22071   8.311   9.135   0.734  0.7028 -0.5806  0.3790
  168MOL0     C22072   8.261   9.012   0.688 -0.0049 -0.1116 -0.3518
  168MOL0     C22073   8.146   8.950   0.764  0.8041 -0.7748  0.0393
  168MOL0     O22074   8.058   8.878   0.690  0.3689 -0.4359  0.0843
  168MOL0     C22075   7.927   8.857   0.721 -0.1103 -0.0225 -0.0603
  168MOL0     C22076   7.868   8.787   0.619 -0.6666 -0.1326 -0.5062
  168MOL0     C22077   7.733   8.788   0.619 -0.0508  0.6798 -0.3599
  168MOL0     C22078   7.664   8.829   0.727 -0.4800 -1.0194  0.1756
  168MOL0     O22079   7.534   8.826   0.732  0.5193 -0.7030 -0.4797
  168MOL0     C22080   7.462   8.717   0.669  0.2276 -0.3431 -0.5940
  168MOL0     C22081   7.314   8.748   0.689  0.1436 -1.0091  0.6478
  168MOL0     C22082   7.233   8.623   0.642 -0.3742 -0.1288 -0.5680
  168MOL0     C22083   7.096   8.619   0.707  0.3013 -0.5524  0.3829
  168MOL0     C22084   7.005   8.538   0.621 -0.2035  1.5265  0.9812
  168MOL0     C22085   6.882   8.474   0.689 -0.3785  0.6430 -0.0591
  168MOL0     C22086   6.800   8.398   0.588  0.0943 -0.0630 -0.7205
  168MOL0     C22087   6.658   8.370   0.647  0.5681 -0.0558 -0.5586
  168MOL0    Cl22088   6.580   8.531   0.694 -0.2480 -0.1315 -0.0664
  168MOL0     C22089   7.724   8.877   0.841  0.6927 -0.1512 -0.4220
  168MOL0     C22090   7.856   8.902   0.838 -0.2299 -1.3710  0.0591
  168MOL0     O22091   8.126   8.978   0.879 -0.0782 -0.0197 -0.1469
  168MOL0     C22092   8.332   8.942   0.591  0.6441 -0.5985 -0.0333
  168MOL0     C22093   8.450   8.997   0.536  0.4463  0.5005  0.2309
  168MOL0     N22094   9.179   9.083   0.787  0.3682 -0.9859 -0.2388
  168MOL0     N22095   9.286   9.052   0.721  0.2501 -0.2920 -0.8061
  168MOL0     C22096  10.247   8.418   0.201 -0.5209 -1.0168 -0.3240
  168MOL0     C22097  10.345   8.322   0.240  0.1512 -0.0356 -0.4106
  168MOL0     C22098  10.480   7.921   0.411  0.1794 -0.2646  0.0661
  168MOL0     C22099  10.463   7.777   0.400  0.2806 -0.6632  0.8880
  168MOL0     C22100  10.542   7.685   0.474  0.0276 -0.5528 -0.4054
  168MOL0     C22101  10.642   7.740   0.563 -0.0714 -0.3311  0.1103
  168MOL0     O22102  10.692   7.639   0.640 -0.1636 -0.2903  0.2789
  168MOL0     C22103  10.790   7.665   0.738  0.0629 -0.5417 -0.2030
  168MOL0     C22104  10.840   7.530   0.790 -0.3647 -0.1354 -0.3454
  168MOL0     C22105  10.887   7.434   0.675  0.5757 -0.0956 -0.0620
  168MOL0     C22106  11.009   7.487   0.592  0.6081  0.8401  0.4010
  168MOL0     C22107  11.124   7.496   0.675 -0.5008 -0.8254 -0.5420
  168MOL0     C22108  11.228   7.506   0.738  0.0611  0.6705 -0.5643
  168MOL0     C22109  10.678   7.881   0.559 -0.4669 -0.1534 -0.3921
  168MOL0     C22110  10.591   7.966   0.483  0.5130 -0.2070  0.4512
  168MOL0     H22111  10.161   8.112   0.406 -0.1653  2.5767  4.2727
  168MOL0     H22112   9.978   8.257   0.329  1.1515 -4.2735  0.5795
  168MOL0     H22113   9.912   8.537   0.363 -0.2198  0.6909 -0.2272
  168MOL0     H22114   9.837   8.410   0.258  0.5826  0.3665 -1.3323
  168MOL0     H22115   9.748   8.552   0.106  0.9938 -3.2323  1.8408
  168MOL0     H22116   9.859   8.682   0.144 -0.4010 -1.5960 -2.3304
  168MOL0     H22117   9.762   8.736   0.345 -1.7434 -0.0455  1.0617
  168MOL0     H22118   9.625   8.625   0.329 -1.5567  2.5222  1.4995
  168MOL0     H22119   9.684   8.884   0.154  1.3040 -0.4032 -1.8735
  168MOL0     H22120   9.607   8.741   0.081 -1.3686 -2.7427  0.6482
  168MOL0     H22121   9.428   8.743   0.246 -1.2304  1.3506 -1.7633
  168MOL0     H22122   9.451   8.896   0.162 -0.5616  0.8763  0.6019
  168MOL0     H22123   9.573   9.003   0.340 -0.0012 -0.1391 -0.4601
  168MOL0     H22124   9.590   8.856   0.424  4.3300  1.1982 -3.2502
  168MOL0     H22125   9.310   8.970   0.350  0.1841 -1.2976 -1.0290
  168MOL0     H22126   9.349   8.868   0.482  1.1126 -0.2155 -0.4701
  168MOL0     H22127   9.407   9.170   0.444 -0.3908  0.9385 -0.1893
  168MOL0     H22128   9.490   9.073   0.576 -2.5503  2.6058  3.4041
  168MOL0     H22129   9.160   9.238   0.498 -0.6722 -0.8146  0.1839
  168MOL0     H22130   9.004   9.333   0.758  0.4912 -1.3585  1.5223
  168MOL0     H22131   8.925   9.193   0.824  0.7943  1.8958  2.0763
  168MOL0     H22132   8.855   9.137   0.595  2.9167 -1.2019  1.2820
  168MOL0     H22133   8.921   9.292   0.538 -0.1492 -0.6280  0.2479
  168MOL0     H22134   8.680   9.300   0.724 -0.7421  1.5792  0.1733
  168MOL0     H22135   8.764   9.435   0.640 -0.5517 -0.3917 -0.1387
  168MOL0     H22136   8.696   9.361   0.432  1.1149  1.2274  1.3342
  168MOL0     H22137   8.557   9.389   0.516  1.0598  0.6666 -1.6408
  168MOL0     H22138   8.459   9.286   0.711  0.1628  0.1544 -1.7849
  168MOL0     H22139   8.259   9.185   0.815  2.5149  0.4700  0.9571
  168MOL0     H22140   7.938   8.774   0.537  0.9153  0.8228  0.6281
  168MOL0     H22141   7.690   8.755   0.526  1.9763  0.4800 -1.2896
  168MOL0     H22142   7.483   8.629   0.730 -2.1858 -2.9688 -3.2544
  168MOL0     H22143   7.487   8.698   0.564 -1.9611 -1.9317 -0.9080
  168MOL0     H22144   7.280   8.834   0.630 -0.6119 -2.0116 -0.4331
  168MOL0     H22145   7.289   8.772   0.792 -0.0165  2.1738 -0.0240
  168MOL0     H22146   7.284   8.526   0.649 -0.7483 -0.4364 -1.8403
  168MOL0     H22147   7.219   8.633   0.534  1.3775  2.6905 -0.6298
  168MOL0     H22148   7.113   8.573   0.804  2.6295 -1.4854 -0.3848
  168MOL0     H22149   7.053   8.720   0.713  0.2975 -0.4232 -1.2414
  168MOL0     H22150   7.072   8.458   0.589  0.9942  2.7531  0.3318
  168MOL0     H22151   6.962   8.589   0.535 -1.7365 -2.4832 -0.9030
  168MOL0     H22152   6.831   8.560   0.732 -1.2316  1.0683 -1.8529
  168MOL0     H22153   6.916   8.404   0.767  0.7691  1.6083  0.3494
  168MOL0     H22154   6.794   8.458   0.496  1.5428 -0.8780 -1.3752
  168MOL0     H22155   6.858   8.308   0.568  1.3120  1.0253 -2.3739
  168MOL0     H22156   6.673   8.291   0.721  1.3678 -0.0835 -0.7439
  168MOL0     H22157   6.588   8.329   0.572 -0.3001  1.4269 -0.5996
  168MOL0     H22158   7.654   8.888   0.923  0.5487  0.1936 -0.5880
  168MOL0     H22159   7.916   8.948   0.916  1.7494 -2.4400 -0.7563
  168MOL0     H22160   8.295   8.843   0.569 -2.1644 -0.0098  1.5501
  168MOL0     H22161   8.485   8.942   0.450 -0.9169 -2.9954  1.7158
  168MOL0     H22162  10.268   8.498   0.131 -1.2492  0.5686  1.2045
  168MOL0     H22163  10.452   8.337   0.227  0.4260  0.2000  1.7762
  168MOL0     H22164  10.406   7.727   0.323 -0.2907 -1.4414  1.8033
  168MOL0     H22165  10.533   7.577   0.481 -0.5121 -0.6301 -2.0262
  168MOL0     H22166  10.738   7.713   0.822  1.1133  0.9364 -0.3601
  168MOL0     H22167  10.873   7.728   0.705 -0.6126  1.9941  2.4187
  168MOL0     H22168  10.927   7.548   0.854  0.1936  1.8273 -1.5802
  168MOL0     H22169  10.760   7.479   0.845 -1.8027 -1.2709 -3.2810
  168MOL0     H22170  10.799   7.431   0.609  1.6775 -0.9837 -1.5316
  168MOL0     H22171  10.907   7.332   0.708  2.5608 -0.0909 -1.0928
  168MOL0     H22172  11.035   7.411   0.518  0.1259  0.2255  0.8554
  168MOL0     H22173  10.995   7.586   0.547  0.4395  0.5724 -0.1317
  168MOL0     H22174  11.326   7.502   0.781 -0.4723 -2.5018  0.6682
  168MOL0     H22175  10.756   7.926   0.618 -2.9115  1.7125  1.6727
  168MOL0     H22176  10.608   8.073   0.482  2.5268 -0.4905 -0.0895
  169MOL0     O22177   6.875   5.309   9.792  0.1502  0.0417 -0.2474
  169MOL0     C22178   6.964   5.333   9.719  0.1762 -0.7236  0.6261
  169MOL0     O22179   6.962   5.307   9.582  0.8119 -0.4541 -0.0004
  169MOL0     C22180   6.856   5.237   9.518 -0.5398  0.5119 -0.6081
  169MOL0     C22181   6.893   5.143   9.428  0.5130  0.7638  0.1606
  169MOL0     C22182   6.801   5.073   9.354 -0.6909  0.9728 -0.2830
  169MOL0     C22183   6.666   5.086   9.389 -0.8747  1.5062  0.1434
  169MOL0     O22184   6.586   5.001   9.312 -0.2114  0.4759 -0.1917
  169MOL0     C22185   6.440   5.011   9.332 -0.5525 -0.5835 -1.2372
  169MOL0     C22186   6.387   4.910   9.227  0.5927 -0.0124 -0.5176
  169MOL0     C22187   6.244   4.923   9.226 -0.0526 -0.7396  0.0597
  169MOL0     C22188   6.184   4.816   9.132  0.3446 -0.0882 -0.9888
  169MOL0     C22189   6.038   4.778   9.162 -0.2647 -0.0147  0.7594
  169MOL0     C22190   5.946   4.896   9.123  0.9231 -0.5081 -0.4004
  169MOL0     C22191   5.811   4.873   9.198 -0.1399  0.1781 -0.2724
  169MOL0     C22192   5.708   4.967   9.145  0.4525 -0.7281 -0.1764
  169MOL0     N22193   5.572   4.944   9.198 -0.4086  0.7620 -0.5835
  169MOL0     C22194   5.514   5.011   9.308  0.1841 -0.0420 -0.3620
  169MOL0     C22195   5.401   4.943   9.336  1.2247 -0.0588  0.3368
  169MOL0     C22196   5.328   4.948   9.469 -0.1009 -0.2556 -0.3724
  169MOL0     C22197   5.187   4.904   9.474  0.0234  0.2340  0.5360
  169MOL0     C22198   5.107   4.943   9.608 -0.0939 -0.3141 -0.1071
  169MOL0     C22199   4.964   4.914   9.601  0.0265  0.5071  0.0407
  169MOL0     O22200   4.897   4.943   9.717  0.8899 -0.6046 -0.6011
  169MOL0     C22201   4.778   4.875   9.747  0.1261  0.1031  0.3846
  169MOL0     C22202   4.718   4.906   9.867 -0.0259 -0.4524 -0.1281
  169MOL0     C22203   4.595   4.845   9.891 -0.8834  0.1487  0.1171
  169MOL0     C22204   4.532   4.764   9.799  0.1435  1.1327  0.2773
  169MOL0     C22205   4.385   4.726   9.808 -0.2001  0.4717 -0.1083
  169MOL0     O22206   4.324   4.652   9.710  0.1061  0.6353  0.2978
  169MOL0     C22207   4.201   4.608   9.745  0.5273  1.1614  0.0720
  169MOL0     C22208   4.107   4.610   9.645 -0.3834  0.4921  0.4227
  169MOL0     C22209   3.979   4.561   9.657  0.1853 -1.2599  0.0380
  169MOL0     C22210   3.933   4.491   9.770  0.2709  0.9446 -0.3369
  169MOL0     O22211   3.806   4.437   9.763  0.5171  0.3421 -0.0974
  169MOL0     C22212   3.766   4.321   9.847 -0.3860 -0.0050  0.3147
  169MOL0     C22213   3.610   4.286   9.824 -0.0082  0.4301 -0.2520
  169MOL0     C22214   3.598   4.258   9.668 -0.2054  0.6569  0.6264
  169MOL0     C22215   3.617   4.101   9.653 -0.1777  0.8149 -0.4668
  169MOL0     C22216   3.577   4.058   9.515 -0.5259  0.7640  0.3716
  169MOL0     C22217   3.526   3.913   9.515 -0.7254 -0.8057  0.7160
  169MOL0     C22218   3.374   3.908   9.530  0.4111  0.1632  1.5641
  169MOL0     C22219   3.327   3.771   9.579  0.1296 -0.0955 -0.5970
  169MOL0    Cl22220   3.147   3.802   9.627  0.0576 -0.2862  0.0595
  169MOL0     C22221   4.031   4.477   9.875 -0.0264  1.2115  1.0760
  169MOL0     C22222   4.154   4.540   9.860  0.0938  0.0559  0.0586
  169MOL0     O22223   4.334   4.748   9.921  0.6629  0.3014 -0.1076
  169MOL0     C22224   4.599   4.731   9.679  0.1615  0.2198 -0.4419
  169MOL0     C22225   4.715   4.789   9.654 -0.6591  0.3646 -0.3548
  169MOL0     N22226   5.376   4.852   9.237  0.1743 -0.1147  0.3995
  169MOL0     N22227   5.479   4.853   9.148  0.0677 -0.0857  0.1087
  169MOL0     C22228   6.622   5.184   9.482  0.0027 -0.3656 -1.0134
  169MOL0     C22229   6.722   5.262   9.545  0.9413  0.4646 -0.1164
  169MOL0     C22230   7.083   5.380   9.782 -0.5148 -0.3329 -0.2001
  169MOL0     C22231   7.203   5.396   9.719 -0.3246  0.2361  0.7212
  169MOL0     C22232   7.321   5.426   9.791  0.0099  0.0444 -0.2956
  169MOL0     C22233   7.317   5.464   9.924  0.1626  0.0299 -1.0278
  169MOL0     O22234   7.423   5.481  10.010 -0.2725  0.1167  0.0419
  169MOL0     C22235   7.564   5.472   9.975 -0.1379  0.3342 -0.5038
  169MOL0     C22236   7.620   5.344  10.026  0.3610  0.9941 -0.2848
  169MOL0     C22237   7.763   5.329   9.979  0.0470 -0.6130  0.6472
  169MOL0     C22238   7.779   5.305   9.829  0.7518  0.4848  0.0483
  169MOL0     C22239   7.703   5.192   9.780  0.0390  0.6845 -0.8837
  169MOL0     C22240   7.650   5.087   9.746  0.6918 -0.8177  0.6726
  169MOL0     C22241   7.194   5.462   9.982 -0.1690 -0.8637 -0.0032
  169MOL0     C22242   7.076   5.420   9.916 -0.2194  0.6490  0.2676
  169MOL0     H22243   7.000   5.138   9.413  0.4781  0.2756  0.0590
  169MOL0     H22244   6.843   5.006   9.280  3.0127  1.4345  1.1777
  169MOL0     H22245   6.406   5.110   9.300 -0.9106 -0.0374  0.7470
  169MOL0     H22246   6.403   4.983   9.431  0.9059  1.0896 -0.1501
  169MOL0     H22247   6.416   4.810   9.261  0.5140  0.2400  0.3147
  169MOL0     H22248   6.431   4.921   9.127  0.1792 -2.2928 -1.0001
  169MOL0     H22249   6.200   5.016   9.192 -4.2886 -2.3382  0.5756
  169MOL0     H22250   6.200   4.917   9.326 -2.7391 -0.0023 -0.9867
  169MOL0     H22251   6.192   4.839   9.026  2.0433  1.4956 -0.5722
  169MOL0     H22252   6.242   4.727   9.160  0.9028  0.2197 -1.1598
  169MOL0     H22253   6.042   4.764   9.271 -2.2680  2.3466  1.2306
  169MOL0     H22254   6.005   4.687   9.112 -0.2202  1.1560 -1.5406
  169MOL0     H22255   5.940   4.910   9.014 -0.4530  0.7085 -0.1988
  169MOL0     H22256   5.997   4.986   9.158  1.6775  0.3439 -3.3725
  169MOL0     H22257   5.778   4.769   9.191 -1.7820  0.4376  2.4727
  169MOL0     H22258   5.805   4.888   9.306  0.7693 -0.5051 -0.1141
  169MOL0     H22259   5.695   4.960   9.037  0.4558  2.1296 -0.4568
  169MOL0     H22260   5.740   5.068   9.172  1.6298 -0.3804 -2.6474
  169MOL0     H22261   5.555   5.094   9.365 -0.6390 -0.6834  1.2035
  169MOL0     H22262   5.340   5.046   9.515  0.3556  0.4343 -1.9030
  169MOL0     H22263   5.377   4.886   9.544 -0.6109  0.9332  0.9967
  169MOL0     H22264   5.174   4.798   9.452 -1.0503  1.1967 -4.9458
  169MOL0     H22265   5.138   4.938   9.382 -1.5053 -0.0521  1.1990
  169MOL0     H22266   5.147   4.889   9.694 -0.5582  2.0330  1.6862
  169MOL0     H22267   5.119   5.050   9.629 -0.8502 -0.6816  2.6715
  169MOL0     H22268   4.956   4.807   9.581 -2.2320  0.8444 -1.1561
  169MOL0     H22269   4.910   4.965   9.520 -0.0246 -0.2143 -0.3864
  169MOL0     H22270   4.774   4.966   9.938 -1.3698 -1.0401  1.5105
  169MOL0     H22271   4.540   4.862   9.983 -0.6708  3.1294 -0.2119
  169MOL0     H22272   4.137   4.669   9.559  0.3606  2.3222  1.8636
  169MOL0     H22273   3.922   4.563   9.565  2.1033  0.0018 -1.2224
  169MOL0     H22274   3.787   4.356   9.948 -1.1728 -0.6158  0.7019
  169MOL0     H22275   3.826   4.233   9.823  0.5945  0.1976  1.8588
  169MOL0     H22276   3.539   4.365   9.850 -2.9729 -1.5150 -1.8501
  169MOL0     H22277   3.587   4.205   9.894 -0.2488  1.2692  0.6497
  169MOL0     H22278   3.672   4.322   9.619 -2.0090  4.1683  2.1394
  169MOL0     H22279   3.500   4.293   9.633 -1.1012 -0.8780  1.4464
  169MOL0     H22280   3.716   4.064   9.679 -1.7265 -4.7806 -1.2510
  169MOL0     H22281   3.549   4.056   9.725 -2.4706  0.6284 -2.6074
  169MOL0     H22282   3.669   4.062   9.455 -2.1188  0.0450 -2.2948
  169MOL0     H22283   3.515   4.125   9.456  2.2027  3.2178  0.0536
  169MOL0     H22284   3.580   3.871   9.600  0.4940  0.9500  0.8660
  169MOL0     H22285   3.564   3.861   9.426  1.3742  0.7064  0.6435
  169MOL0     H22286   3.337   3.992   9.590 -2.3653  0.8827 -0.9306
  169MOL0     H22287   3.326   3.921   9.433  0.2742  1.1936  1.7633
  169MOL0     H22288   3.365   3.736   9.675 -1.4269 -0.1729  0.0087
  169MOL0     H22289   3.324   3.680   9.518 -0.4041 -1.2046  1.0142
  169MOL0     H22290   4.015   4.415   9.962 -0.9976 -0.5498 -0.3042
  169MOL0     H22291   4.230   4.515   9.934  0.3064 -0.4834 -0.3268
  169MOL0     H22292   4.556   4.658   9.612  0.3949  0.1173 -0.4823
  169MOL0     H22293   4.752   4.753   9.559 -0.9404 -2.1689  0.4112
  169MOL0     H22294   6.519   5.204   9.512  0.5662  2.9392 -0.9056
  169MOL0     H22295   6.703   5.345   9.611 -0.2083  0.9293 -0.9936
  169MOL0     H22296   7.218   5.365   9.616 -1.3249 -1.0353  0.9394
  169MOL0     H22297   7.420   5.439   9.748  0.1697 -0.8286 -0.2134
  169MOL0     H22298   7.616   5.551  10.030 -0.1476 -0.1057  0.1493
  169MOL0     H22299   7.572   5.486   9.867  0.8189  0.9082 -0.3631
  169MOL0     H22300   7.600   5.355  10.133 -1.2134  4.3135 -0.7963
  169MOL0     H22301   7.554   5.272   9.976  0.7672  0.6857 -0.3796
  169MOL0     H22302   7.818   5.247  10.027  1.9196 -1.3180 -2.4033
  169MOL0     H22303   7.819   5.415  10.015  0.8129 -1.4245  1.4553
  169MOL0     H22304   7.754   5.397   9.775  1.7143 -0.4951 -2.1635
  169MOL0     H22305   7.885   5.286   9.807  0.4867  0.4013 -1.1710
  169MOL0     H22306   7.607   4.995   9.713  2.0125 -1.0338 -0.5628
  169MOL0     H22307   7.185   5.487  10.087  2.3513 -0.3729  0.1699
  169MOL0     H22308   6.986   5.403   9.975  0.4585  1.2116  1.5094
  170MOL0     O22309   4.863   1.526   6.672 -0.5311 -0.0578  0.2417
  170MOL0     C22310   4.838   1.626   6.596  0.6008  0.8833 -1.3903
  170MOL0     O22311   4.721   1.696   6.606  0.0356  0.2868  0.1095
  170MOL0     C22312   4.617   1.653   6.688  1.2616  0.5510 -0.1964
  170MOL0     C22313   4.623   1.574   6.804 -0.4787  0.8097 -0.6882
  170MOL0     C22314   4.507   1.530   6.868 -0.5894  0.0347 -0.2664
  170MOL0     C22315   4.379   1.567   6.824  0.2998 -0.0798 -0.0532
  170MOL0     O22316   4.262   1.523   6.875  0.3508 -0.1209  0.0980
  170MOL0     C22317   4.259   1.378   6.877 -0.3601 -0.0508 -0.2405
  170MOL0     C22318   4.243   1.320   7.018 -0.0235 -0.0622  0.0110
  170MOL0     C22319   4.103   1.265   7.049  0.1040 -0.3905  0.4205
  170MOL0     C22320   3.988   1.377   7.037 -0.1585  0.5939 -0.1225
  170MOL0     C22321   3.865   1.338   7.114  0.6425 -0.5378  0.0241
  170MOL0     C22322   3.779   1.231   7.039 -0.0045  0.6375  0.2554
  170MOL0     C22323   3.738   1.254   6.889  0.0039  0.3276 -0.2250
  170MOL0     C22324   3.656   1.375   6.849  0.3450 -0.7267 -0.1958
  170MOL0     N22325   3.517   1.354   6.899 -0.0596  0.4051  0.0444
  170MOL0     C22326   3.463   1.418   7.003 -0.0427  0.3744  0.9091
  170MOL0     C22327   3.331   1.396   7.000  0.8296  0.4068 -0.0624
  170MOL0     C22328   3.242   1.452   7.106 -0.1282 -0.9333  0.3048
  170MOL0     C22329   3.262   1.603   7.137 -0.8667 -0.5254 -0.4369
  170MOL0     C22330   3.185   1.639   7.263 -0.6766  0.3856  0.4281
  170MOL0     C22331   3.042   1.674   7.237  1.1633  0.7221 -0.6744
  170MOL0     O22332   2.966   1.550   7.256  0.4532 -0.1915 -0.1156
  170MOL0     C22333   2.832   1.549   7.258 -0.3331  0.1040 -0.3595
  170MOL0     C22334   2.753   1.649   7.197  0.5088 -0.5966  0.4280
  170MOL0     C22335   2.610   1.645   7.198 -0.6343  0.4142 -0.7301
  170MOL0     C22336   2.547   1.544   7.277  0.4691 -0.8103  0.4374
  170MOL0     C22337   2.401   1.522   7.287  0.4456  0.2123 -0.1644
  170MOL0     O22338   2.352   1.425   7.367  0.5879 -0.0990  0.6316
  170MOL0     C22339   2.213   1.399   7.362  0.8888 -0.6862  0.0940
  170MOL0     C22340   2.138   1.407   7.479  0.8197  0.1349 -0.2851
  170MOL0     C22341   1.998   1.377   7.474  0.1682 -0.9758 -0.1920
  170MOL0     C22342   1.934   1.329   7.356 -0.1758 -0.0101  0.5424
  170MOL0     O22343   1.802   1.302   7.354  0.4764  0.1845 -0.8364
  170MOL0     C22344   1.722   1.328   7.237  0.2640  0.2892 -0.3991
  170MOL0     C22345   1.575   1.365   7.267  0.9381 -0.3102 -1.4794
  170MOL0     C22346   1.561   1.521   7.263  0.6231  0.4371  0.2060
  170MOL0     C22347   1.424   1.572   7.248  0.0748  0.6746  0.9514
  170MOL0     C22348   1.409   1.718   7.218  0.0113 -0.0682  0.7515
  170MOL0     C22349   1.493   1.823   7.300  0.0521  0.2023 -0.2254
  170MOL0     C22350   1.465   1.826   7.448 -0.7522  0.3735 -0.0972
  170MOL0     C22351   1.318   1.850   7.481 -0.3039  0.4541  0.2961
  170MOL0    Cl22352   1.299   1.890   7.647 -0.0221  0.5476 -0.3578
  170MOL0     C22353   2.017   1.314   7.243  0.0082 -0.1913 -0.0615
  170MOL0     C22354   2.154   1.346   7.241 -0.1398 -0.7843  0.1308
  170MOL0     O22355   2.321   1.598   7.236 -0.6129  0.1143  0.6023
  170MOL0     C22356   2.627   1.454   7.348  0.3326  0.1218 -0.8168
  170MOL0     C22357   2.771   1.455   7.341 -0.6814  0.1830  0.2487
  170MOL0     N22358   3.297   1.300   6.900 -0.4839  0.2836  0.2404
  170MOL0     N22359   3.414   1.283   6.840  0.1763  0.3455 -0.7460
  170MOL0     C22360   4.376   1.656   6.710  0.6729 -0.4012 -0.0707
  170MOL0     C22361   4.490   1.693   6.649 -0.8075 -0.2334  0.1015
  170MOL0     C22362   4.935   1.667   6.489 -0.9974  0.1835  0.4933
  170MOL0     C22363   4.905   1.766   6.398 -0.1122  0.6513  0.0311
  170MOL0     C22364   5.000   1.802   6.305  0.1341  0.2894 -0.0535
  170MOL0     C22365   5.133   1.758   6.302  0.1185 -0.3351 -0.5939
  170MOL0     O22366   5.206   1.817   6.206  0.5291 -0.1164 -0.3240
  170MOL0     C22367   5.330   1.778   6.171  0.3249 -0.3079 -0.5263
  170MOL0     C22368   5.371   1.884   6.071  0.2577  0.0971  0.1001
  170MOL0     C22369   5.291   1.900   5.939 -0.1478  0.6248  0.2107
  170MOL0     C22370   5.179   2.005   5.954 -0.6152 -0.2520  0.1445
  170MOL0     C22371   5.060   1.986   5.872 -0.4098 -0.1110 -1.0380
  170MOL0     C22372   4.970   1.963   5.793  0.1821  0.5657  0.7864
  170MOL0     C22373   5.170   1.670   6.404 -0.6261  0.1571  0.5565
  170MOL0     C22374   5.066   1.617   6.480  0.4967  0.5163 -0.1981
  170MOL0     H22375   4.713   1.531   6.847 -0.8935 -1.0458 -1.5867
  170MOL0     H22376   4.516   1.484   6.966 -0.3563  0.8263  0.0982
  170MOL0     H22377   4.351   1.339   6.833  1.6984  0.8693  2.9499
  170MOL0     H22378   4.175   1.349   6.813  1.2882 -1.2265 -2.0125
  170MOL0     H22379   4.284   1.394   7.086 -0.0603 -0.1028  0.0773
  170MOL0     H22380   4.293   1.223   7.026  1.3727  0.5910 -0.4068
  170MOL0     H22381   4.107   1.238   7.155 -0.5433 -1.4714  0.1840
  170MOL0     H22382   4.084   1.180   6.982  2.5756  1.0623 -2.3448
  170MOL0     H22383   4.028   1.475   7.068 -1.1350  1.7913 -2.3596
  170MOL0     H22384   3.969   1.379   6.929  2.0848  0.0902 -0.5828
  170MOL0     H22385   3.806   1.429   7.129 -0.1821 -1.0941  0.2306
  170MOL0     H22386   3.886   1.311   7.218 -2.8427  4.0649  2.3125
  170MOL0     H22387   3.688   1.209   7.095 -0.1407 -1.0331 -0.5667
  170MOL0     H22388   3.839   1.140   7.030 -0.3594  0.3589  0.6777
  170MOL0     H22389   3.831   1.267   6.834 -0.8736  0.5173 -1.7047
  170MOL0     H22390   3.698   1.164   6.841  0.5332 -1.2730  2.1355
  170MOL0     H22391   3.658   1.383   6.740  1.0702  2.0840 -0.0528
  170MOL0     H22392   3.696   1.470   6.886 -0.6110 -0.4576  0.1797
  170MOL0     H22393   3.521   1.488   7.061  1.5703 -1.7660  2.0156
  170MOL0     H22394   3.255   1.395   7.198  1.0495 -1.6953 -0.3038
  170MOL0     H22395   3.141   1.422   7.073  0.0539  0.7355 -1.9714
  170MOL0     H22396   3.230   1.666   7.053 -1.7801 -2.4430 -1.5856
  170MOL0     H22397   3.367   1.624   7.160 -0.9652 -1.2507  0.7759
  170MOL0     H22398   3.204   1.565   7.341  1.5367 -0.3813 -0.7642
  170MOL0     H22399   3.234   1.733   7.289  1.4817 -0.2225 -1.1429
  170MOL0     H22400   3.044   1.712   7.135  3.3623 -1.9595 -1.7682
  170MOL0     H22401   2.999   1.750   7.303  2.5714  0.1701  0.9747
  170MOL0     H22402   2.788   1.731   7.135 -4.6448  4.0841  2.9097
  170MOL0     H22403   2.560   1.709   7.127  3.0240  2.6108 -1.5882
  170MOL0     H22404   2.171   1.438   7.577 -0.2931  0.7545 -0.0860
  170MOL0     H22405   1.927   1.401   7.552 -0.3044 -1.9383 -0.3120
  170MOL0     H22406   1.727   1.234   7.183  0.9567  0.0620  0.0522
  170MOL0     H22407   1.770   1.410   7.182  1.8934  0.0627  0.6239
  170MOL0     H22408   1.542   1.321   7.361 -0.7749  1.6563 -1.1079
  170MOL0     H22409   1.525   1.322   7.179  0.4046 -0.4182 -1.1245
  170MOL0     H22410   1.612   1.554   7.173  0.3998 -1.2290 -0.5689
  170MOL0     H22411   1.617   1.557   7.349  1.3305  1.6702 -0.7524
  170MOL0     H22412   1.366   1.507   7.182  2.0592  0.4024 -0.6130
  170MOL0     H22413   1.375   1.562   7.346 -1.5989  1.4639  0.2321
  170MOL0     H22414   1.305   1.748   7.238  0.5265  0.9061  2.0952
  170MOL0     H22415   1.432   1.728   7.112 -4.7469 -0.8728 -0.6325
  170MOL0     H22416   1.487   1.924   7.258  0.0420  0.7925  1.1413
  170MOL0     H22417   1.599   1.795   7.300 -0.5193 -2.1479  0.6606
  170MOL0     H22418   1.500   1.733   7.493 -0.3030  0.2525 -0.6792
  170MOL0     H22419   1.521   1.911   7.488 -0.4843  0.2474 -0.1986
  170MOL0     H22420   1.278   1.750   7.463 -0.6739  0.9390 -1.7316
  170MOL0     H22421   1.277   1.930   7.419  0.9030  0.6938 -0.2341
  170MOL0     H22422   1.969   1.287   7.149 -0.8260 -1.7944  0.7851
  170MOL0     H22423   2.220   1.336   7.156  2.1471  2.1788  1.3456
  170MOL0     H22424   2.587   1.398   7.432  0.3611  2.3108  0.7554
  170MOL0     H22425   2.834   1.389   7.399  1.2899  4.2998  3.3877
  170MOL0     H22426   4.280   1.692   6.674  0.3939  1.2874  2.1360
  170MOL0     H22427   4.475   1.761   6.566  1.4192  0.1093 -0.0945
  170MOL0     H22428   4.803   1.803   6.389 -1.2028 -1.9693  0.7111
  170MOL0     H22429   4.966   1.870   6.228 -2.8161 -0.1673  0.7195
  170MOL0     H22430   5.327   1.678   6.127  0.1000 -0.7133  0.3978
  170MOL0     H22431   5.401   1.772   6.254 -1.8396 -0.3911  1.4254
  170MOL0     H22432   5.372   1.978   6.126 -2.0767 -0.5502  1.3942
  170MOL0     H22433   5.476   1.875   6.042  0.3334 -0.2210  0.4652
  170MOL0     H22434   5.255   1.802   5.907  4.0093 -0.5564 -1.5800
  170MOL0     H22435   5.355   1.918   5.852  0.2671 -1.1633  0.1020
  170MOL0     H22436   5.157   2.030   6.058 -1.1766  1.7345 -0.4037
  170MOL0     H22437   5.228   2.100   5.931 -0.4841  0.3376  2.5790
  170MOL0     H22438   4.893   1.945   5.720 -1.3135  0.6379  2.2815
  170MOL0     H22439   5.274   1.640   6.416  0.3674  2.6587 -1.0903
  170MOL0     H22440   5.098   1.538   6.548 -2.5497 -0.5821  0.1553
  171MOL0     O22441   6.263   5.373   5.756 -0.0978 -0.7138 -0.8478
  171MOL0     C22442   6.263   5.496   5.761 -0.2534  0.1312  0.7381
  171MOL0     O22443   6.148   5.573   5.749 -1.2648  0.6941  0.6263
  171MOL0     C22444   6.029   5.509   5.742 -0.0471 -0.2224  0.1004
  171MOL0     C22445   5.970   5.470   5.620  0.3066 -0.1816  0.3920
  171MOL0     C22446   5.837   5.422   5.620  0.7523 -0.3040 -0.0056
  171MOL0     C22447   5.774   5.406   5.746  0.2001  0.2765  0.2121
  171MOL0     O22448   5.644   5.360   5.755  0.5373 -0.8868  0.1065
  171MOL0     C22449   5.619   5.257   5.662  0.4648 -0.4161 -0.2697
  171MOL0     C22450   5.499   5.193   5.719  0.5047 -0.2554 -0.5501
  171MOL0     C22451   5.417   5.114   5.619  0.5140 -0.3971 -0.2561
  171MOL0     C22452   5.305   5.037   5.689  0.2236  0.4560  0.0530
  171MOL0     C22453   5.180   5.104   5.746  0.1859  0.1192  0.4586
  171MOL0     C22454   5.104   5.174   5.643  0.3352 -0.5414 -0.1198
  171MOL0     C22455   4.938   5.211   5.673  0.0824 -0.0320 -0.3146
  171MOL0     C22456   4.927   5.325   5.775 -0.3125  0.5367 -0.7872
  171MOL0     N22457   4.791   5.357   5.819 -0.2362 -0.1013 -0.0322
  171MOL0     C22458   4.707   5.275   5.877 -0.6021  0.7130 -0.4483
  171MOL0     C22459   4.602   5.341   5.919  0.3654 -0.0404 -0.4651
  171MOL0     C22460   4.485   5.296   6.013 -0.0254  0.3291 -0.1582
  171MOL0     C22461   4.397   5.185   5.944 -0.5053 -0.1672 -0.0228
  171MOL0     C22462   4.322   5.246   5.827  0.2985  0.6364 -0.7380
  171MOL0     C22463   4.234   5.140   5.758 -0.7749  0.1873 -0.3555
  171MOL0     O22464   4.155   5.225   5.667 -0.1405  0.2353  0.1549
  171MOL0     C22465   4.034   5.172   5.641  0.6955 -0.3266  0.0134
  171MOL0     C22466   3.912   5.226   5.674  0.3265 -0.4651  0.4994
  171MOL0     C22467   3.786   5.167   5.649 -0.3739 -0.0951  0.1240
  171MOL0     C22468   3.785   5.047   5.566 -0.1432 -0.0597 -0.3518
  171MOL0     C22469   3.661   4.986   5.535  0.1880  0.5874 -0.2893
  171MOL0     O22470   3.544   5.027   5.598 -1.0404  0.1384  0.0195
  171MOL0     C22471   3.419   4.984   5.562  0.5598 -0.4351 -0.4293
  171MOL0     C22472   3.360   4.920   5.452 -0.9290  0.5565  0.0394
  171MOL0     C22473   3.222   4.890   5.438  0.0729  1.1332  0.9439
  171MOL0     C22474   3.133   4.922   5.541  0.1869 -0.8630  0.3669
  171MOL0     O22475   3.001   4.902   5.522 -0.1506 -0.5885 -0.7469
  171MOL0     C22476   2.909   4.977   5.604  0.3276 -0.0805  0.3120
  171MOL0     C22477   2.768   4.917   5.589  0.5879 -0.2084  0.9451
  171MOL0     C22478   2.769   4.779   5.649 -0.7942  0.6339  0.3160
  171MOL0     C22479   2.639   4.694   5.619  0.7178 -1.1744 -0.7048
  171MOL0     C22480   2.524   4.738   5.710 -0.3826  0.2699 -1.1328
  171MOL0     C22481   2.386   4.702   5.644  0.4394  0.0424  0.6320
  171MOL0     C22482   2.272   4.762   5.730 -0.3347  0.0360  0.8338
  171MOL0     C22483   2.134   4.698   5.685 -1.0024  1.1808  0.3433
  171MOL0    Cl22484   2.085   4.779   5.534  0.0763  0.3253  0.2565
  171MOL0     C22485   3.189   4.990   5.648 -0.4512 -0.6001 -0.4873
  171MOL0     C22486   3.328   5.008   5.660  0.2571  0.3119 -1.1013
  171MOL0     O22487   3.670   4.890   5.457 -0.1678 -0.2900 -0.4756
  171MOL0     C22488   3.911   4.991   5.526  0.8486 -0.1361 -0.6310
  171MOL0     C22489   4.030   5.051   5.568  0.5300 -0.0893  0.3451
  171MOL0     N22490   4.614   5.465   5.868 -0.8747 -0.2359  0.7534
  171MOL0     N22491   4.728   5.470   5.803 -0.5183 -0.8745 -1.1852
  171MOL0     C22492   5.830   5.444   5.861 -0.6328  0.1197  0.0584
  171MOL0     C22493   5.962   5.490   5.861 -0.1856 -0.5050  0.4236
  171MOL0     C22494   6.392   5.571   5.740 -0.2364  0.6173  0.1305
  171MOL0     C22495   6.396   5.713   5.746 -0.7033 -0.2744 -0.2249
  171MOL0     C22496   6.516   5.771   5.718  0.0581 -0.4640  0.3052
  171MOL0     C22497   6.633   5.705   5.684 -0.4871  0.4174 -0.3684
  171MOL0     O22498   6.759   5.762   5.643  0.4429  0.5442  0.4128
  171MOL0     C22499   6.766   5.911   5.639 -0.0378 -0.2977  0.3029
  171MOL0     C22500   6.897   5.956   5.577  0.0183 -0.4518  0.0553
  171MOL0     C22501   6.996   5.857   5.529 -0.4116  0.0280  0.1743
  171MOL0     C22502   7.108   5.913   5.441 -0.8150  0.2752  0.7858
  171MOL0     C22503   7.174   6.034   5.500  0.2514  0.9487 -0.8732
  171MOL0     C22504   7.214   6.136   5.548  0.6739 -0.7402  0.1349
  171MOL0     C22505   6.632   5.569   5.698  0.5744  0.1596 -1.0571
  171MOL0     C22506   6.511   5.499   5.725 -0.6816 -0.4558 -0.1609
  171MOL0     H22507   6.009   5.486   5.520 -0.8777  0.0814 -0.0438
  171MOL0     H22508   5.791   5.406   5.523  0.6986  0.2837 -0.0815
  171MOL0     H22509   5.706   5.194   5.640  1.2824  0.4882  0.3090
  171MOL0     H22510   5.586   5.312   5.575 -4.5843  1.0477  2.2016
  171MOL0     H22511   5.434   5.263   5.772  2.9790  0.2418  2.0682
  171MOL0     H22512   5.536   5.129   5.800 -0.7698  1.7197  1.7303
  171MOL0     H22513   5.469   5.027   5.577  2.3835 -0.1318  1.3637
  171MOL0     H22514   5.385   5.173   5.533  1.2672 -0.2130 -0.4182
  171MOL0     H22515   5.263   4.964   5.620 -1.3978  1.5822 -0.2269
  171MOL0     H22516   5.351   4.980   5.771  1.3763  0.7554 -0.3580
  171MOL0     H22517   5.199   5.171   5.831 -0.0873  1.7491 -0.7190
  171MOL0     H22518   5.101   5.032   5.768 -0.4570  1.4046  2.7495
  171MOL0     H22519   5.106   5.120   5.548 -0.3226  1.5586 -1.4054
  171MOL0     H22520   5.155   5.270   5.629 -0.1848 -0.2734 -0.2128
  171MOL0     H22521   4.897   5.237   5.575  1.7837 -2.3945 -1.7635
  171MOL0     H22522   4.893   5.118   5.709 -0.8317  0.3667 -0.4183
  171MOL0     H22523   4.973   5.417   5.737  1.8489  0.6264  1.7357
  171MOL0     H22524   4.994   5.299   5.857  0.6940 -0.9080 -1.9988
  171MOL0     H22525   4.744   5.174   5.889  2.8853  1.5222 -2.8176
  171MOL0     H22526   4.416   5.381   6.021 -0.0223  0.5591 -2.0239
  171MOL0     H22527   4.502   5.257   6.114 -4.4300 -1.0642  0.2774
  171MOL0     H22528   4.333   5.136   6.018 -0.6099  1.8454  1.3059
  171MOL0     H22529   4.460   5.104   5.907  0.9735 -0.0585  2.0855
  171MOL0     H22530   4.261   5.329   5.861  1.5539  1.0927  0.4936
  171MOL0     H22531   4.389   5.283   5.749  2.6191 -0.7467  0.4772
  171MOL0     H22532   4.177   5.079   5.828  1.2657  0.7722  1.9487
  171MOL0     H22533   4.294   5.065   5.706  0.2973 -0.6276  1.9539
  171MOL0     H22534   3.918   5.316   5.734  0.5974 -2.2594  3.3340
  171MOL0     H22535   3.701   5.206   5.705 -0.3348 -0.7542  0.6527
  171MOL0     H22536   3.421   4.895   5.366 -1.0217  0.1519  0.0934
  171MOL0     H22537   3.184   4.833   5.354  1.6373 -1.0920  1.6569
  171MOL0     H22538   2.902   5.083   5.577  0.5156 -0.1313  0.0599
  171MOL0     H22539   2.930   4.954   5.709  0.5918 -1.5657 -0.0461
  171MOL0     H22540   2.738   4.915   5.484 -0.4528 -1.6124  1.2407
  171MOL0     H22541   2.691   4.981   5.635  1.4714  1.2996  0.4024
  171MOL0     H22542   2.776   4.806   5.755  2.6094  1.9121 -0.0847
  171MOL0     H22543   2.857   4.726   5.612  0.3476  2.6453 -0.0463
  171MOL0     H22544   2.611   4.707   5.514 -0.6625  0.6876 -0.1520
  171MOL0     H22545   2.663   4.590   5.643  1.6805 -0.3016  2.5916
  171MOL0     H22546   2.523   4.847   5.710 -2.0235  0.2895 -0.8176
  171MOL0     H22547   2.533   4.684   5.805  0.1056  0.0624 -1.2992
  171MOL0     H22548   2.380   4.593   5.641  1.3496 -0.0010 -0.6961
  171MOL0     H22549   2.387   4.747   5.544  0.2058 -0.1111  0.5600
  171MOL0     H22550   2.286   4.759   5.838  1.3060  3.9716  0.8883
  171MOL0     H22551   2.279   4.867   5.700  0.2142 -0.3865 -0.6027
  171MOL0     H22552   2.072   4.720   5.772  0.7656  2.4853  1.3493
  171MOL0     H22553   2.147   4.591   5.668 -0.9292  1.5868 -2.7367
  171MOL0     H22554   3.120   5.030   5.722  0.9604  1.4254 -0.1618
  171MOL0     H22555   3.351   5.068   5.747 -0.7862  0.8017 -1.1457
  171MOL0     H22556   3.915   4.895   5.477 -1.0962 -0.2066 -0.7329
  171MOL0     H22557   4.119   5.005   5.527  0.4625  2.8616 -3.7608
  171MOL0     H22558   5.787   5.434   5.961  1.8854 -0.0330  1.1966
  171MOL0     H22559   6.005   5.529   5.953 -0.0605 -0.5701  0.3932
  171MOL0     H22560   6.303   5.767   5.762 -0.5749  0.0444 -0.5361
  171MOL0     H22561   6.509   5.879   5.713  0.7106 -0.4428 -0.3197
  171MOL0     H22562   6.760   5.957   5.738 -1.6478 -0.7684  0.4634
  171MOL0     H22563   6.685   5.951   5.577  0.0064  1.5484  1.3817
  171MOL0     H22564   6.878   6.025   5.494  1.8902  0.4438  0.3142
  171MOL0     H22565   6.937   6.022   5.654  1.4140 -1.8808  0.6157
  171MOL0     H22566   6.939   5.779   5.479  1.9359 -1.1413 -0.8192
  171MOL0     H22567   7.049   5.806   5.610  1.1507  0.2437 -0.6900
  171MOL0     H22568   7.180   5.832   5.426  0.9773  1.9274  0.0834
  171MOL0     H22569   7.072   5.942   5.342  2.6302 -2.4889 -1.5385
  171MOL0     H22570   7.268   6.214   5.598  2.4273 -0.6784 -1.7102
  171MOL0     H22571   6.724   5.519   5.672 -0.1152  0.3006 -4.1819
  171MOL0     H22572   6.510   5.390   5.717  2.4041 -0.8029  2.1593
  172MOL0     O22573   1.709   0.906   5.576 -0.5669 -0.5325 -0.5053
  172MOL0     C22574   1.696   1.024   5.573  0.8884 -0.3770  0.3261
  172MOL0     O22575   1.582   1.091   5.579 -0.8563  0.4397  0.4209
  172MOL0     C22576   1.462   1.033   5.600 -0.8871  1.0960 -0.3520
  172MOL0     C22577   1.360   1.125   5.624  0.3890  0.0709 -1.2838
  172MOL0     C22578   1.218   1.078   5.635  0.1426  0.6823 -0.0762
  172MOL0     C22579   1.193   0.946   5.641  0.2660  0.3962  0.2558
  172MOL0     O22580   1.057   0.921   5.646 -0.3881 -0.2844 -0.0966
  172MOL0     C22581   1.020   0.791   5.586 -0.0513 -0.8069 -0.2999
  172MOL0     C22582   0.874   0.783   5.635 -0.0012  0.0695 -0.0057
  172MOL0     C22583   0.783   0.894   5.600 -0.3780  0.8784  0.1377
  172MOL0     C22584   0.636   0.851   5.626 -1.0898 -0.8653 -0.3076
  172MOL0     C22585   0.543   0.932   5.543 -0.8814  0.0816 -0.0701
  172MOL0     C22586   0.392   0.924   5.591 -1.3635  0.1036  0.7720
  172MOL0     C22587   0.309   1.019   5.496 -0.6664  0.3654 -0.4287
  172MOL0     C22588   0.266   1.140   5.564 -0.9407  0.6486 -0.7128
  172MOL0     N22589   0.136   1.130   5.638 -0.2906 -0.2701 -0.6928
  172MOL0     C22590   0.018   1.111   5.588  0.0427  0.7190 -0.0780
  172MOL0     C22591  -0.073   1.130   5.687  0.2765  0.3045  0.3573
  172MOL0     C22592  -0.216   1.115   5.662  0.1930 -0.0096  0.1327
  172MOL0     C22593  -0.311   1.232   5.701 -0.3231  0.3865 -0.0954
  172MOL0     C22594  -0.345   1.240   5.850 -0.2552  0.2560  0.2788
  172MOL0     C22595  -0.467   1.327   5.886  0.4353 -0.8825  0.8310
  172MOL0     O22596  -0.569   1.299   5.788  0.4525  0.2123  0.2575
  172MOL0     C22597  -0.696   1.349   5.810  0.2862  0.0153 -0.2695
  172MOL0     C22598  -0.797   1.317   5.717  0.0887  0.1844  0.6430
  172MOL0     C22599  -0.926   1.373   5.726  0.1545 -0.0552  0.1185
  172MOL0     C22600  -0.952   1.464   5.830 -0.5794 -1.0454 -0.6673
  172MOL0     C22601  -1.076   1.543   5.843  0.7196  0.4863 -0.3115
  172MOL0     O22602  -1.180   1.518   5.749 -0.0465 -0.9855 -0.4269
  172MOL0     C22603  -1.287   1.603   5.750 -0.7764  0.1841  1.0421
  172MOL0     C22604  -1.340   1.652   5.870  0.8621 -0.2134 -0.0700
  172MOL0     C22605  -1.455   1.738   5.873  0.3303  0.2996 -0.6799
  172MOL0     C22606  -1.512   1.772   5.752 -0.1911 -1.2177 -0.6208
  172MOL0     O22607  -1.619   1.857   5.758 -0.1554 -0.2495 -0.6652
  172MOL0     C22608  -1.738   1.813   5.683 -0.1425 -0.3918 -1.6038
  172MOL0     C22609  -1.861   1.894   5.736  1.2654  0.0917 -0.1668
  172MOL0     C22610  -1.877   2.011   5.641  0.2156 -0.0150  0.4489
  172MOL0     C22611  -2.008   2.088   5.662  0.1075  0.1033  0.4974
  172MOL0     C22612  -1.990   2.199   5.761 -0.8933 -0.5186  0.8088
  172MOL0     C22613  -2.121   2.273   5.770 -0.1652  0.4808  0.4119
  172MOL0     C22614  -2.120   2.402   5.852 -0.5086  0.2036 -0.0696
  172MOL0     C22615  -2.249   2.485   5.824  0.6884  0.5203 -0.7413
  172MOL0    Cl22616  -2.250   2.561   5.661  0.1147  0.1280 -0.7808
  172MOL0     C22617  -1.463   1.710   5.631 -0.3355 -0.6984 -0.7517
  172MOL0     C22618  -1.340   1.641   5.631  0.5505 -0.2815  0.5991
  172MOL0     O22619  -1.083   1.607   5.946  0.5294  0.1844 -0.3450
  172MOL0     C22620  -0.847   1.497   5.928  0.0829 -0.3051  0.1889
  172MOL0     C22621  -0.723   1.430   5.917  0.3037  0.0927 -0.0834
  172MOL0     N22622   0.005   1.163   5.802  0.5163  0.0987  0.2087
  172MOL0     N22623   0.122   1.157   5.769 -0.8847 -0.2497 -0.7102
  172MOL0     C22624   1.294   0.850   5.615  0.1983  0.0242 -0.8146
  172MOL0     C22625   1.424   0.893   5.589  0.2019  0.4212 -1.2691
  172MOL0     C22626   1.821   1.105   5.537  0.6373  0.1508  0.4981
  172MOL0     C22627   1.824   1.240   5.501  0.0820 -0.2563  0.4972
  172MOL0     C22628   1.945   1.311   5.477  0.9147 -0.3416  0.4227
  172MOL0     C22629   2.067   1.254   5.480  0.1368  0.0469  0.1391
  172MOL0     O22630   2.175   1.332   5.463 -0.4461 -0.2869 -0.7764
  172MOL0     C22631   2.306   1.273   5.435  0.0651  0.0916  0.0406
  172MOL0     C22632   2.400   1.367   5.368  0.5102 -0.1411  0.2077
  172MOL0     C22633   2.529   1.298   5.320 -0.2328 -0.2018  0.6804
  172MOL0     C22634   2.595   1.348   5.188  0.8520  0.2697 -0.0352
  172MOL0     C22635   2.697   1.452   5.208 -0.0858 -0.8071  0.3506
  172MOL0     C22636   2.756   1.554   5.212  0.1053  0.0393  0.7973
  172MOL0     C22637   2.064   1.118   5.508  0.3356  0.6488 -0.7496
  172MOL0     C22638   1.946   1.045   5.543  0.4129  0.2497 -0.3103
  172MOL0     H22639   1.375   1.232   5.636 -1.8567  0.2340  0.7514
  172MOL0     H22640   1.134   1.145   5.648 -0.7121 -0.0420 -1.6440
  172MOL0     H22641   1.070   0.705   5.631 -0.2934 -0.6887  0.2047
  172MOL0     H22642   1.024   0.787   5.476  1.5065  0.5137 -0.3199
  172MOL0     H22643   0.874   0.762   5.742 -2.8357 -0.6308 -0.0662
  172MOL0     H22644   0.837   0.692   5.586  0.1668  0.2872 -0.5429
  172MOL0     H22645   0.782   0.926   5.495  1.9410  1.2814  0.1945
  172MOL0     H22646   0.802   0.978   5.667 -1.3712 -0.2476  1.9245
  172MOL0     H22647   0.621   0.743   5.616 -2.2659 -1.0455  2.4227
  172MOL0     H22648   0.617   0.860   5.733 -0.3615  0.2780 -0.2630
  172MOL0     H22649   0.554   0.913   5.436  1.4295  2.4265 -0.3589
  172MOL0     H22650   0.569   1.037   5.563  0.3572  0.1885 -2.0065
  172MOL0     H22651   0.381   0.958   5.694  3.9254  3.6380  0.5355
  172MOL0     H22652   0.360   0.819   5.584 -0.4755 -0.1269 -0.2936
  172MOL0     H22653   0.364   1.053   5.408  1.0510 -0.0572  0.4286
  172MOL0     H22654   0.225   0.956   5.466 -0.4568  0.9109 -2.3153
  172MOL0     H22655   0.245   1.224   5.497 -1.2628  0.0517 -1.3725
  172MOL0     H22656   0.351   1.177   5.623  0.8298 -1.1671 -1.9847
  172MOL0     H22657  -0.017   1.092   5.487 -0.7204  2.6900 -0.2490
  172MOL0     H22658  -0.245   1.034   5.729  0.2227 -1.6370 -1.7402
  172MOL0     H22659  -0.242   1.074   5.564 -2.9871  1.7368  0.1298
  172MOL0     H22660  -0.402   1.213   5.645  0.2060  0.3116 -0.9528
  172MOL0     H22661  -0.274   1.327   5.663 -0.5927  0.0836 -1.1280
  172MOL0     H22662  -0.370   1.144   5.897 -2.9812  0.2887 -0.9131
  172MOL0     H22663  -0.255   1.278   5.898  0.9497 -1.5081 -0.4690
  172MOL0     H22664  -0.435   1.430   5.873 -1.0219 -0.7087 -2.6636
  172MOL0     H22665  -0.510   1.306   5.984 -3.5262  0.9362 -0.2967
  172MOL0     H22666  -0.768   1.251   5.636  2.1586  2.9932 -1.0858
  172MOL0     H22667  -1.006   1.342   5.661 -0.6151 -0.4848  1.2482
  172MOL0     H22668  -1.300   1.619   5.966  0.5814  0.3234  0.2333
  172MOL0     H22669  -1.489   1.768   5.972  1.3041 -1.7611  0.3415
  172MOL0     H22670  -1.763   1.712   5.718  0.8501 -0.4982 -1.1804
  172MOL0     H22671  -1.734   1.802   5.574  0.1964 -1.0096 -1.5398
  172MOL0     H22672  -1.849   1.927   5.840 -1.5392 -0.0325  0.2726
  172MOL0     H22673  -1.956   1.843   5.719  1.3371  1.0429 -4.7743
  172MOL0     H22674  -1.896   1.975   5.540  0.9554 -2.0418  0.9875
  172MOL0     H22675  -1.788   2.073   5.636  0.3414 -0.0262  1.9431
  172MOL0     H22676  -2.037   2.127   5.564  2.3126  0.7483  0.0441
  172MOL0     H22677  -2.090   2.024   5.697 -1.4388  0.4514 -2.1605
  172MOL0     H22678  -1.905   2.259   5.726 -0.3105 -2.8617 -2.2781
  172MOL0     H22679  -1.969   2.158   5.861 -0.5597  2.4072  2.0498
  172MOL0     H22680  -2.186   2.207   5.828  0.6225 -0.9938 -0.3157
  172MOL0     H22681  -2.156   2.283   5.667  0.7616 -0.4720 -0.0147
  172MOL0     H22682  -2.105   2.380   5.958  2.3918  3.0341  0.2679
  172MOL0     H22683  -2.033   2.463   5.827 -2.2908  2.9034 -0.0606
  172MOL0     H22684  -2.254   2.571   5.892  0.1680 -2.0715  2.8041
  172MOL0     H22685  -2.334   2.419   5.845  1.4021  0.2283  1.5623
  172MOL0     H22686  -1.515   1.732   5.539 -1.4176 -1.0747 -0.2456
  172MOL0     H22687  -1.305   1.610   5.533 -0.7129  3.2728 -1.1401
  172MOL0     H22688  -0.857   1.579   5.998  1.8357  0.1935 -0.1066
  172MOL0     H22689  -0.645   1.461   5.986 -1.1221  0.4981  1.4176
  172MOL0     H22690   1.282   0.743   5.625  0.0489  0.2381  2.0407
  172MOL0     H22691   1.497   0.817   5.563 -0.3014 -1.0294  1.1670
  172MOL0     H22692   1.732   1.296   5.489  1.7756  2.6252  0.1163
  172MOL0     H22693   1.927   1.418   5.472 -0.4415 -0.6024 -1.5390
  172MOL0     H22694   2.282   1.184   5.377  0.7524 -1.2964  1.7862
  172MOL0     H22695   2.355   1.232   5.524 -0.4990 -0.4204  0.1187
  172MOL0     H22696   2.339   1.396   5.282  1.8559  4.1333  0.4603
  172MOL0     H22697   2.417   1.444   5.444  0.8156 -1.7304  1.8360
  172MOL0     H22698   2.494   1.196   5.298 -1.0851 -0.5823  3.4394
  172MOL0     H22699   2.609   1.278   5.392  1.8560 -4.1894 -2.3246
  172MOL0     H22700   2.642   1.266   5.133  2.6329  1.7657 -0.8484
  172MOL0     H22701   2.514   1.389   5.127 -1.1608 -3.4276 -0.1139
  172MOL0     H22702   2.805   1.648   5.227 -0.1697  0.6140 -1.5939
  172MOL0     H22703   2.152   1.056   5.497 -0.0305 -0.0204 -0.0185
  172MOL0     H22704   1.952   0.939   5.567  1.8822  0.6759  1.4093
  173MOL0     O22705  10.254   2.995   3.107  0.7935 -0.3063  0.1791
  173MOL0     C22706  10.376   3.019   3.103  0.0002 -0.8182 -0.4648
  173MOL0     O22707  10.453   3.035   3.218  0.4250 -0.8147  0.5647
  173MOL0     C22708  10.402   3.004   3.341  0.2119  0.3101 -0.9730
  173MOL0     C22709  10.437   3.093   3.443  0.2215  0.0157 -0.0153
  173MOL0     C22710  10.379   3.090   3.567 -0.1223  0.2251 -0.0484
  173MOL0     C22711  10.296   2.984   3.595  1.4870 -1.0619 -1.7953
  173MOL0     O22712  10.218   2.978   3.709  0.2363 -0.0378  0.1105
  173MOL0     C22713  10.170   3.100   3.767 -0.9266 -0.0605 -0.1085
  173MOL0     C22714  10.063   3.080   3.881 -0.1136  1.0359  0.3873
  173MOL0     C22715   9.934   3.015   3.843  0.3392  0.0214  0.0284
  173MOL0     C22716   9.812   3.060   3.937 -0.0917 -0.4965 -0.3248
  173MOL0     C22717   9.682   2.981   3.912 -0.8114  0.0798  0.2965
  173MOL0     C22718   9.627   3.000   3.764 -0.3758  0.3905  1.3466
  173MOL0     C22719   9.482   2.948   3.738  0.2693  0.3822 -0.3055
  173MOL0     C22720   9.434   2.966   3.600  0.0913  0.3386  0.6589
  173MOL0     N22721   9.291   2.931   3.592 -0.1265 -0.0999 -0.2977
  173MOL0     C22722   9.175   2.989   3.632  0.5899  0.5108  0.0842
  173MOL0     C22723   9.083   2.897   3.609  0.2651  0.2758  0.8996
  173MOL0     C22724   8.933   2.896   3.630  0.0530  0.2413  0.9364
  173MOL0     C22725   8.861   2.768   3.681 -0.0647  0.7550  0.5022
  173MOL0     C22726   8.784   2.699   3.567 -0.1738 -0.2428 -0.4919
  173MOL0     C22727   8.676   2.607   3.621 -0.0194  0.3211  0.8599
  173MOL0     O22728   8.576   2.687   3.674 -0.0348  1.0937  0.9110
  173MOL0     C22729   8.447   2.635   3.694  0.8732 -0.5873  0.0021
  173MOL0     C22730   8.334   2.715   3.662 -0.2056 -0.2975 -0.1206
  173MOL0     C22731   8.203   2.664   3.681  0.6672 -0.7783  0.3220
  173MOL0     C22732   8.177   2.528   3.719 -1.0946  0.0747 -0.2171
  173MOL0     C22733   8.040   2.475   3.720 -0.2068  0.4900 -0.5890
  173MOL0     O22734   8.030   2.340   3.715  0.5682  0.2627 -0.0051
  173MOL0     C22735   7.909   2.272   3.714  0.1079 -1.4781 -0.0309
  173MOL0     C22736   7.810   2.297   3.621 -0.2321  0.5198  0.2154
  173MOL0     C22737   7.690   2.224   3.626 -0.0450  0.0538 -0.0515
  173MOL0     C22738   7.664   2.128   3.721  0.1907 -0.1887  0.3547
  173MOL0     O22739   7.553   2.047   3.716  0.7140 -0.9257 -0.1052
  173MOL0     C22740   7.477   2.033   3.839 -0.2120 -0.0542 -0.2318
  173MOL0     C22741   7.369   1.932   3.815  0.1269 -0.5581  0.2697
  173MOL0     C22742   7.283   1.982   3.697  0.9145  0.5504 -0.3010
  173MOL0     C22743   7.142   1.923   3.699  0.5257  0.0408 -0.0713
  173MOL0     C22744   7.032   2.008   3.647 -0.9010  0.4924 -0.9331
  173MOL0     C22745   6.899   1.938   3.668 -0.1135  0.2430  0.4743
  173MOL0     C22746   6.781   2.031   3.620 -0.6774  0.5815  0.1697
  173MOL0     C22747   6.797   2.079   3.474  0.0052  0.6863  0.2767
  173MOL0    Cl22748   6.770   1.935   3.367  0.3938  0.3447 -0.2389
  173MOL0     C22749   7.756   2.112   3.821  0.4800  0.3562 -0.1749
  173MOL0     C22750   7.878   2.178   3.811  0.2095 -0.0731 -0.1289
  173MOL0     O22751   7.948   2.557   3.723  0.3331 -0.5028  0.4285
  173MOL0     C22752   8.300   2.452   3.752 -0.2816  0.3079  0.9768
  173MOL0     C22753   8.428   2.503   3.732  0.2018  0.2010 -0.0611
  173MOL0     N22754   9.143   2.791   3.534 -0.4030 -0.2871 -0.1469
  173MOL0     N22755   9.269   2.816   3.525  0.6211  0.6199 -0.5983
  173MOL0     C22756  10.270   2.884   3.495  0.1225 -0.2199 -0.0357
  173MOL0     C22757  10.321   2.903   3.368  0.5474  0.5031  0.6258
  173MOL0     C22758  10.431   3.049   2.976 -0.3009  0.0243  0.0441
  173MOL0     C22759  10.371   2.983   2.867 -0.0487  0.0077 -0.2678
  173MOL0     C22760  10.410   3.020   2.736  1.1720 -0.0684 -0.6920
  173MOL0     C22761  10.498   3.123   2.719  0.1921  0.6736  0.5288
  173MOL0     O22762  10.523   3.174   2.590  0.1479  0.3429 -0.1558
  173MOL0     C22763  10.442   3.122   2.479 -0.1314 -0.3613 -1.2084
  173MOL0     C22764  10.467   3.219   2.365  0.0872 -0.0306 -0.1801
  173MOL0     C22765  10.374   3.194   2.235 -0.6340 -0.5287 -0.7031
  173MOL0     C22766  10.405   3.308   2.137 -0.2426 -0.2376  0.1161
  173MOL0     C22767  10.312   3.308   2.026 -1.6672  0.2307  0.0491
  173MOL0     C22768  10.222   3.288   1.938 -0.2940 -0.0091 -0.1958
  173MOL0     C22769  10.562   3.180   2.826  0.5608 -0.5674 -0.2157
  173MOL0     C22770  10.534   3.148   2.951 -0.2436  0.9664 -0.1836
  173MOL0     H22771  10.496   3.178   3.411  2.7002 -2.6316 -3.1643
  173MOL0     H22772  10.407   3.160   3.645  1.2682 -2.0226  1.5995
  173MOL0     H22773  10.115   3.159   3.694 -2.3472 -1.2386 -0.0403
  173MOL0     H22774  10.261   3.150   3.801 -0.5644  0.0852 -1.2586
  173MOL0     H22775  10.048   3.177   3.930 -0.0467  1.2127  0.0656
  173MOL0     H22776  10.104   3.015   3.959  0.5319  1.8430  0.7406
  173MOL0     H22777   9.955   2.908   3.830  1.4420  0.3049 -0.6813
  173MOL0     H22778   9.912   3.049   3.741  2.0901  3.9753  0.7927
  173MOL0     H22779   9.841   3.048   4.041  2.4766  1.3767 -0.7349
  173MOL0     H22780   9.791   3.166   3.923  2.6456  0.6026  2.7475
  173MOL0     H22781   9.606   3.027   3.976 -1.1185  1.9912 -1.3437
  173MOL0     H22782   9.700   2.874   3.928  1.1661  0.3248  0.0215
  173MOL0     H22783   9.685   2.934   3.700 -3.0774 -1.6671  0.8421
  173MOL0     H22784   9.638   3.104   3.731  0.2394  0.2833  1.1922
  173MOL0     H22785   9.476   2.842   3.767  4.3928  0.2700  0.7582
  173MOL0     H22786   9.420   3.012   3.801 -1.0349  1.6859 -2.7748
  173MOL0     H22787   9.499   2.899   3.544  3.3622  2.6081  1.4286
  173MOL0     H22788   9.461   3.069   3.572  0.1144 -0.5752 -3.2390
  173MOL0     H22789   9.163   3.079   3.693  2.4400  0.9831 -0.2092
  173MOL0     H22790   8.885   2.933   3.539 -0.5896  0.0746  1.2039
  173MOL0     H22791   8.887   2.969   3.697 -4.1228 -1.2690  0.0284
  173MOL0     H22792   8.805   2.797   3.770  1.3843 -1.0590  2.0926
  173MOL0     H22793   8.934   2.696   3.718 -0.5349 -1.0036 -1.7720
  173MOL0     H22794   8.728   2.779   3.517  2.9403  2.7712  0.4368
  173MOL0     H22795   8.851   2.647   3.498 -1.3592 -2.0509 -0.3395
  173MOL0     H22796   8.702   2.533   3.697 -2.1036  1.8264  3.1892
  173MOL0     H22797   8.636   2.552   3.535  2.4147 -1.0745  0.5342
  173MOL0     H22798   8.357   2.817   3.632  0.5155 -0.1982  0.7211
  173MOL0     H22799   8.119   2.728   3.655 -1.7980 -3.8384  0.2656
  173MOL0     H22800   7.830   2.376   3.549 -0.0326  1.8514  1.6770
  173MOL0     H22801   7.610   2.244   3.556 -0.9643  3.2112  1.7144
  173MOL0     H22802   7.423   2.126   3.863 -3.4226 -1.5485 -1.1302
  173MOL0     H22803   7.531   1.988   3.923 -1.1052  0.4115  0.6075
  173MOL0     H22804   7.307   1.926   3.905  1.2859 -1.5917  1.0386
  173MOL0     H22805   7.403   1.830   3.793  0.6971 -0.4482  0.6205
  173MOL0     H22806   7.323   1.953   3.600 -1.5970 -4.1053 -0.2317
  173MOL0     H22807   7.275   2.091   3.709  2.2233  0.5027  1.5602
  173MOL0     H22808   7.132   1.828   3.645  0.4213  1.0090 -1.8512
  173MOL0     H22809   7.116   1.908   3.804  4.2961  1.5043  1.2192
  173MOL0     H22810   7.047   2.034   3.542 -1.2743 -1.0338 -1.3768
  173MOL0     H22811   7.032   2.095   3.713  1.3221 -1.1499  1.4186
  173MOL0     H22812   6.890   1.904   3.771 -1.0100 -0.0031  0.3188
  173MOL0     H22813   6.904   1.851   3.603  0.7670 -1.1196  2.2822
  173MOL0     H22814   6.698   1.960   3.614  1.9472 -3.0393  2.2259
  173MOL0     H22815   6.768   2.115   3.689 -3.4463  0.8594 -0.5769
  173MOL0     H22816   6.891   2.129   3.453 -0.2606  0.6567 -1.0425
  173MOL0     H22817   6.717   2.148   3.448 -1.8909 -1.6608 -0.4806
  173MOL0     H22818   7.737   2.048   3.907  0.9157  1.2638  0.6125
  173MOL0     H22819   7.960   2.147   3.875  0.5217 -1.2752 -1.0893
  173MOL0     H22820   8.280   2.347   3.774 -2.9384  0.6508  0.5615
  173MOL0     H22821   8.517   2.443   3.748  0.3465  0.1964 -0.8168
  173MOL0     H22822  10.214   2.795   3.522  1.1706 -0.5479  1.1086
  173MOL0     H22823  10.296   2.840   3.283 -1.8142  1.4965  0.5208
  173MOL0     H22824  10.307   2.901   2.898  1.9413 -0.7488  2.1925
  173MOL0     H22825  10.353   2.967   2.660  2.1012  1.7858 -2.7749
  173MOL0     H22826  10.337   3.114   2.509  0.7908 -0.2458  2.5834
  173MOL0     H22827  10.490   3.025   2.462  0.3711 -0.3634  0.0940
  173MOL0     H22828  10.450   3.317   2.409  0.7962 -0.7139  1.7249
  173MOL0     H22829  10.575   3.224   2.345  0.9072 -2.8149  2.6255
  173MOL0     H22830  10.270   3.198   2.270 -0.1108  1.6013  0.8594
  173MOL0     H22831  10.407   3.099   2.192  0.3860  0.1711 -1.4824
  173MOL0     H22832  10.399   3.407   2.182  0.0482  0.3969 -1.2174
  173MOL0     H22833  10.510   3.303   2.109  0.2025  1.3188  1.3889
  173MOL0     H22834  10.143   3.279   1.867  0.2197  1.5376 -1.0185
  173MOL0     H22835  10.648   3.246   2.816  0.6643 -0.4263  1.3658
  173MOL0     H22836  10.593   3.189   3.033  1.4267  2.1637 -1.8957
  174MOL0     O22837   6.143   3.736   5.115 -0.0399 -1.1895 -0.3331
  174MOL0     C22838   6.178   3.631   5.054 -0.3283  0.6281 -0.3932
  174MOL0     O22839   6.099   3.520   5.025  0.2006  0.3661 -0.2654
  174MOL0     C22840   5.968   3.520   5.051 -0.5367  0.2829  0.0257
  174MOL0     C22841   5.920   3.490   5.177  0.5357 -0.6027  0.2002
  174MOL0     C22842   5.780   3.509   5.209  0.0221 -1.4806 -0.1907
  174MOL0     C22843   5.690   3.557   5.117 -0.4819  0.3317  0.2385
  174MOL0     O22844   5.560   3.559   5.156 -0.7586 -0.1923  0.1285
  174MOL0     C22845   5.451   3.605   5.077  1.0196  0.4953  0.2127
  174MOL0     C22846   5.326   3.560   5.148  0.2873  0.1467 -0.3696
  174MOL0     C22847   5.299   3.644   5.286 -0.5519  0.3550  0.0995
  174MOL0     C22848   5.285   3.799   5.261  1.0486  1.5398 -0.2392
  174MOL0     C22849   5.163   3.853   5.333 -0.0256  0.0225 -0.5354
  174MOL0     C22850   5.161   3.820   5.480 -0.3533 -0.1732  0.5400
  174MOL0     C22851   5.038   3.888   5.539 -0.7489  0.3766  0.2583
  174MOL0     C22852   4.994   3.844   5.674  0.4190  0.0171 -0.0130
  174MOL0     N22853   4.948   3.697   5.676 -0.6871 -0.9424  0.7218
  174MOL0     C22854   5.012   3.588   5.740 -0.3112 -0.4414  0.1690
  174MOL0     C22855   4.965   3.478   5.680 -0.5912 -0.3731  0.2493
  174MOL0     C22856   5.014   3.339   5.687  0.0469  0.7864 -0.2455
  174MOL0     C22857   5.150   3.320   5.610 -0.8527 -0.6246  0.2064
  174MOL0     C22858   5.267   3.262   5.696 -0.2064  0.2117  0.3463
  174MOL0     C22859   5.412   3.313   5.673 -0.4927 -0.9335  0.2818
  174MOL0     O22860   5.411   3.457   5.694 -0.1090 -0.0506 -0.2352
  174MOL0     C22861   5.537   3.516   5.683  0.2187 -0.3927  0.1650
  174MOL0     C22862   5.660   3.449   5.637  0.2495 -0.3361  0.5904
  174MOL0     C22863   5.758   3.537   5.588 -0.3069  0.3455  0.0539
  174MOL0     C22864   5.751   3.677   5.609 -0.3304 -0.2334 -1.0201
  174MOL0     C22865   5.878   3.757   5.607  0.3490 -0.0172 -0.6465
  174MOL0     O22866   5.988   3.692   5.559 -0.0730 -0.3829 -0.0413
  174MOL0     C22867   6.109   3.758   5.546 -0.2267  0.4890  0.2775
  174MOL0     C22868   6.190   3.729   5.434  0.0792  0.1518 -0.3192
  174MOL0     C22869   6.316   3.786   5.412  1.2797  0.0689  0.6586
  174MOL0     C22870   6.372   3.863   5.518 -0.3092 -0.0519  0.1357
  174MOL0     O22871   6.502   3.910   5.532 -0.7529 -0.4204 -0.3483
  174MOL0     C22872   6.578   3.930   5.416  0.0559  0.2762 -0.1173
  174MOL0     C22873   6.647   4.067   5.433 -0.1424 -0.9774 -0.6054
  174MOL0     C22874   6.774   4.083   5.360  0.4323  0.3086  1.0082
  174MOL0     C22875   6.875   3.992   5.423 -0.2744 -0.0988  0.4441
  174MOL0     C22876   7.017   4.012   5.362  0.8354  0.2089 -0.3306
  174MOL0     C22877   7.020   4.002   5.205  0.2007 -0.8058 -0.9629
  174MOL0     C22878   6.979   3.859   5.165 -0.0960 -0.6609  0.1090
  174MOL0     C22879   7.047   3.823   5.033 -0.3628  0.8285  0.5388
  174MOL0    Cl22880   6.956   3.875   4.886  0.1561 -0.5371  0.1968
  174MOL0     C22881   6.293   3.902   5.626 -0.2089  0.3417 -0.4522
  174MOL0     C22882   6.166   3.845   5.636  0.1704 -0.0777 -0.2852
  174MOL0     O22883   5.873   3.871   5.643  0.6526 -0.2582 -0.5126
  174MOL0     C22884   5.637   3.742   5.649 -0.3101  0.0877  0.4121
  174MOL0     C22885   5.534   3.650   5.685  0.6578 -1.0032  0.1857
  174MOL0     N22886   4.857   3.513   5.605 -0.1487 -0.1490  0.2993
  174MOL0     N22887   4.855   3.643   5.592 -0.5542  0.3958 -0.0851
  174MOL0     C22888   5.735   3.583   4.988 -0.1987 -0.4142 -0.2560
  174MOL0     C22889   5.877   3.575   4.958 -0.1274  0.0088 -0.2120
  174MOL0     C22890   6.315   3.628   4.999 -0.4353  0.8691 -0.6491
  174MOL0     C22891   6.410   3.727   5.034  0.0551 -0.3377  1.0638
  174MOL0     C22892   6.542   3.714   4.989 -0.5671  0.2685  0.1826
  174MOL0     C22893   6.590   3.605   4.901  1.6272  1.1635 -0.3900
  174MOL0     O22894   6.720   3.604   4.860  0.6653 -0.0428  0.4436
  174MOL0     C22895   6.745   3.505   4.761  0.5176 -0.5145  1.0454
  174MOL0     C22896   6.879   3.537   4.701  0.1003  0.0522 -0.4189
  174MOL0     C22897   6.996   3.527   4.803  0.3741  0.2891 -0.2667
  174MOL0     C22898   7.035   3.379   4.813  0.5345 -0.0876 -0.2389
  174MOL0     C22899   7.128   3.379   4.928 -0.4247 -0.3625  0.5152
  174MOL0     C22900   7.201   3.405   5.016  0.1707  0.3795  0.7745
  174MOL0     C22901   6.481   3.508   4.883  0.0262 -0.5836 -0.2187
  174MOL0     C22902   6.357   3.521   4.916  0.3833 -0.2268 -0.2809
  174MOL0     H22903   5.984   3.457   5.258 -0.0495 -1.0939  0.4703
  174MOL0     H22904   5.740   3.500   5.310 -1.2328 -0.4976 -0.5718
  174MOL0     H22905   5.445   3.552   4.982 -0.0925 -1.3390  1.2366
  174MOL0     H22906   5.450   3.714   5.067  1.5497  0.5855  1.1067
  174MOL0     H22907   5.331   3.458   5.185 -2.8935  0.5057  1.3330
  174MOL0     H22908   5.240   3.560   5.081 -0.1350 -1.3467  0.1452
  174MOL0     H22909   5.382   3.631   5.356  0.6927  1.0253 -1.1994
  174MOL0     H22910   5.209   3.606   5.336 -0.9519  2.3500  0.9989
  174MOL0     H22911   5.378   3.840   5.301  1.2432  0.8578  0.0294
  174MOL0     H22912   5.271   3.821   5.155 -5.1443 -0.6649 -0.2826
  174MOL0     H22913   5.078   3.799   5.290  1.3088 -2.0805 -0.6724
  174MOL0     H22914   5.154   3.962   5.324  2.6215  0.3816  0.2771
  174MOL0     H22915   5.259   3.842   5.522  1.1013 -1.4729 -1.9339
  174MOL0     H22916   5.163   3.713   5.505  1.7861 -0.4342 -0.4846
  174MOL0     H22917   5.065   3.994   5.546 -1.2080  0.6096 -1.1267
  174MOL0     H22918   4.952   3.907   5.474  0.3395  0.7913 -1.1148
  174MOL0     H22919   4.903   3.901   5.690 -0.4980 -1.1413 -0.8989
  174MOL0     H22920   5.059   3.861   5.760 -0.7582 -0.5818  1.0157
  174MOL0     H22921   5.098   3.571   5.805 -1.5650 -4.2097  1.0487
  174MOL0     H22922   4.949   3.266   5.638 -0.3391  1.6251 -1.0157
  174MOL0     H22923   5.026   3.318   5.793 -3.6014 -0.8657 -0.0321
  174MOL0     H22924   5.171   3.419   5.567 -1.7162  0.0515  1.2780
  174MOL0     H22925   5.136   3.255   5.524 -2.0329 -1.3394  0.9059
  174MOL0     H22926   5.239   3.279   5.800  0.2390 -0.1727  0.5349
  174MOL0     H22927   5.263   3.155   5.674 -2.3435  0.6352 -1.6916
  174MOL0     H22928   5.451   3.290   5.574 -0.4949 -1.3782  0.3810
  174MOL0     H22929   5.471   3.280   5.759 -1.1347 -2.2415  0.2385
  174MOL0     H22930   5.662   3.342   5.617  1.2284 -0.1838 -0.2615
  174MOL0     H22931   5.843   3.498   5.533 -0.2944 -0.5837  0.7042
  174MOL0     H22932   6.144   3.659   5.365  1.7805 -0.9535 -0.3820
  174MOL0     H22933   6.358   3.770   5.314 -1.9282 -0.4433 -0.7668
  174MOL0     H22934   6.514   3.940   5.328 -1.4980  1.2353  1.0632
  174MOL0     H22935   6.642   3.842   5.411  0.4363  0.3307  2.4993
  174MOL0     H22936   6.671   4.069   5.540  3.4994 -2.9338 -1.2254
  174MOL0     H22937   6.585   4.154   5.411  3.2939  1.4576 -1.5908
  174MOL0     H22938   6.817   4.183   5.372 -1.7251  1.1698  1.9524
  174MOL0     H22939   6.761   4.062   5.253  1.1285 -1.8506  1.3050
  174MOL0     H22940   6.882   4.011   5.530  2.6863  2.2164 -0.0475
  174MOL0     H22941   6.845   3.892   5.388  0.1779  0.8524 -3.0975
  174MOL0     H22942   7.085   3.935   5.400 -0.1659 -1.6876 -2.1835
  174MOL0     H22943   7.047   4.112   5.394 -0.9468  0.6926 -0.1111
  174MOL0     H22944   7.118   4.036   5.169  0.5874  0.9367  1.4916
  174MOL0     H22945   6.953   4.078   5.164 -0.5664 -0.3440  1.0538
  174MOL0     H22946   7.004   3.780   5.236  2.6787  0.4658  0.5163
  174MOL0     H22947   6.871   3.850   5.152  0.3380 -3.7910 -2.5522
  174MOL0     H22948   7.067   3.716   5.024  1.2915  1.0033  1.8562
  174MOL0     H22949   7.145   3.871   5.033 -0.2398  0.5809  0.6514
  174MOL0     H22950   6.332   3.973   5.699 -5.4930  1.3821  1.7830
  174MOL0     H22951   6.106   3.875   5.722  2.1209 -1.1146  1.5444
  174MOL0     H22952   5.634   3.850   5.651  2.1984  0.3586 -2.4616
  174MOL0     H22953   5.434   3.679   5.714  0.3071 -2.4591  0.4806
  174MOL0     H22954   5.662   3.597   4.909  0.4754  3.4799 -0.3655
  174MOL0     H22955   5.917   3.612   4.864 -0.8444 -2.1859 -1.4627
  174MOL0     H22956   6.381   3.812   5.095  2.4748  2.8808 -1.8784
  174MOL0     H22957   6.616   3.791   5.007 -1.4377  1.7158 -2.0651
  174MOL0     H22958   6.681   3.529   4.676  1.6663 -0.2278  0.2344
  174MOL0     H22959   6.735   3.402   4.795  0.0512 -0.3158  1.5199
  174MOL0     H22960   6.883   3.460   4.623 -0.6292  0.0337 -0.4454
  174MOL0     H22961   6.876   3.640   4.665 -0.4171  0.6432  1.2359
  174MOL0     H22962   6.973   3.575   4.899 -0.3656  1.7947 -1.1570
  174MOL0     H22963   7.086   3.574   4.762  1.3203 -0.5547  0.7916
  174MOL0     H22964   6.950   3.310   4.825 -0.5502  1.5303  2.2779
  174MOL0     H22965   7.087   3.354   4.721 -1.9852 -0.2919 -1.6975
  174MOL0     H22966   7.270   3.442   5.089  2.9099 -2.0363 -0.3966
  174MOL0     H22967   6.502   3.420   4.823  0.1893 -1.9335  1.7066
  174MOL0     H22968   6.286   3.450   4.874  1.1586 -0.6821 -0.8349
  175MOL0     O22969   3.209   0.558   8.763  0.0850 -0.3255  0.0126
  175MOL0     C22970   3.254   0.653   8.705  0.5601 -0.3489  1.2843
  175MOL0     O22971   3.172   0.753   8.656  0.7803  0.8502 -0.2901
  175MOL0     C22972   3.038   0.753   8.674  0.0685  0.1084 -0.8178
  175MOL0     C22973   2.987   0.870   8.745 -0.3886  1.4689  0.3202
  175MOL0     C22974   2.851   0.890   8.763 -0.7243 -0.0403  0.5157
  175MOL0     C22975   2.769   0.786   8.725  0.8590 -0.1532 -0.2193
  175MOL0     O22976   2.639   0.810   8.749 -0.2083  0.7574 -0.5842
  175MOL0     C22977   2.541   0.726   8.697  1.1314  0.1666 -0.0181
  175MOL0     C22978   2.408   0.782   8.756 -0.2433 -0.0228 -0.4919
  175MOL0     C22979   2.298   0.695   8.691 -0.3821 -0.3462  0.6528
  175MOL0     C22980   2.159   0.766   8.716 -0.3067  0.1023 -0.3758
  175MOL0     C22981   2.055   0.714   8.618  0.7331  0.0057 -0.3868
  175MOL0     C22982   1.923   0.801   8.635 -0.4396  0.5308 -0.2883
  175MOL0     C22983   1.804   0.717   8.586  0.4679 -0.6000 -0.0270
  175MOL0     C22984   1.683   0.799   8.615 -0.1740 -0.6812  0.6030
  175MOL0     N22985   1.652   0.909   8.514 -0.6681 -0.4887 -0.2542
  175MOL0     C22986   1.567   0.900   8.414 -0.8728  0.7815 -1.0355
  175MOL0     C22987   1.551   1.024   8.370 -0.5526 -0.3322  0.1532
  175MOL0     C22988   1.459   1.063   8.259 -0.2272 -1.2516 -0.3256
  175MOL0     C22989   1.311   1.062   8.299  0.0527  0.1658 -0.0092
  175MOL0     C22990   1.236   1.071   8.164 -0.2117 -0.0060  0.0343
  175MOL0     C22991   1.091   1.112   8.189  0.0965  0.4852 -0.3412
  175MOL0     O22992   1.086   1.256   8.182 -0.6848 -0.1210  0.2034
  175MOL0     C22993   0.955   1.297   8.161 -0.5673  0.3699 -0.0264
  175MOL0     C22994   0.943   1.401   8.078 -0.1656 -0.9536 -0.5386
  175MOL0     C22995   0.817   1.453   8.033  0.4401  0.1329 -0.2851
  175MOL0     C22996   0.697   1.393   8.083 -1.1057 -1.2315 -0.2602
  175MOL0     C22997   0.563   1.456   8.062 -0.2295 -0.3600 -0.1745
  175MOL0     O22998   0.560   1.549   7.969  0.1206  0.5616  0.5457
  175MOL0     C22999   0.451   1.635   7.973  0.0080 -0.5013 -0.3462
  175MOL0     C23000   0.458   1.760   8.029  0.3006  0.4010 -0.5812
  175MOL0     C23001   0.345   1.840   8.029 -0.1750  0.1679  0.0547
  175MOL0     C23002   0.225   1.797   7.970  0.0454 -0.0607  0.0976
  175MOL0     O23003   0.115   1.872   7.971 -0.0285 -0.6438  0.2359
  175MOL0     C23004   0.120   2.004   7.909  0.0966  0.2744 -0.1352
  175MOL0     C23005  -0.019   2.048   7.887  0.4336  0.1559 -0.1089
  175MOL0     C23006  -0.094   1.973   7.771 -0.0241  1.0923 -0.0417
  175MOL0     C23007  -0.236   2.027   7.760 -0.8902  0.2766  0.2665
  175MOL0     C23008  -0.256   2.178   7.744  0.1553 -0.5583  0.0275
  175MOL0     C23009  -0.399   2.205   7.700 -0.5714  0.0512  0.8372
  175MOL0     C23010  -0.509   2.138   7.785 -0.6051 -0.1363  0.0517
  175MOL0     C23011  -0.646   2.208   7.772 -0.1829 -0.5612 -0.1571
  175MOL0    Cl23012  -0.720   2.222   7.615  0.1751  0.2320 -0.1730
  175MOL0     C23013   0.220   1.669   7.894  0.0779 -0.4312  0.1298
  175MOL0     C23014   0.330   1.591   7.907 -0.1098  0.1076  1.0218
  175MOL0     O23015   0.475   1.423   8.140  0.3431 -0.3887  0.8128
  175MOL0     C23016   0.713   1.296   8.180  0.3437  0.0012 -0.5118
  175MOL0     C23017   0.833   1.241   8.209  0.0647 -0.5161 -0.0649
  175MOL0     N23018   1.612   1.114   8.456  0.0914  0.1769  0.1084
  175MOL0     N23019   1.682   1.035   8.533  0.2244  0.7607  0.0213
  175MOL0     C23020   2.817   0.677   8.656  0.1254  0.5734 -0.0414
  175MOL0     C23021   2.952   0.659   8.628  0.1917  0.3555  0.4972
  175MOL0     C23022   3.402   0.660   8.709  0.4036 -0.4519  0.2856
  175MOL0     C23023   3.458   0.769   8.645  0.2637  0.0739 -0.7698
  175MOL0     C23024   3.593   0.785   8.629 -0.0791  0.4843 -0.6981
  175MOL0     C23025   3.685   0.697   8.682 -0.0845  0.2833  1.1864
  175MOL0     O23026   3.817   0.729   8.664  0.0390  0.3534  0.2404
  175MOL0     C23027   3.903   0.616   8.674 -0.0886 -0.3547  0.0906
  175MOL0     C23028   4.016   0.652   8.575  0.3532  0.7981 -0.5548
  175MOL0     C23029   4.129   0.550   8.572 -0.5230  0.9428  0.6946
  175MOL0     C23030   4.238   0.587   8.477  0.8316 -0.0507 -0.1790
  175MOL0     C23031   4.326   0.689   8.533  0.0128 -0.2571  1.0336
  175MOL0     C23032   4.392   0.784   8.572  0.2332  0.0137  0.0982
  175MOL0     C23033   3.627   0.580   8.742  0.4479 -0.1466 -0.8792
  175MOL0     C23034   3.489   0.563   8.763 -0.2398  0.3887 -0.2069
  175MOL0     H23035   3.050   0.956   8.766 -0.4471  1.8238 -0.9106
  175MOL0     H23036   2.824   0.980   8.818  0.6445  0.4462  0.4277
  175MOL0     H23037   2.550   0.618   8.712 -0.5382 -0.0808 -0.5701
  175MOL0     H23038   2.542   0.742   8.588  0.4768  1.7320  0.1820
  175MOL0     H23039   2.397   0.887   8.730  1.5097  0.7283  1.5566
  175MOL0     H23040   2.412   0.783   8.865 -0.3216 -0.6811 -0.4777
  175MOL0     H23041   2.291   0.593   8.729 -0.8898 -0.8237 -0.6547
  175MOL0     H23042   2.318   0.685   8.584  0.3949  0.9165  0.6588
  175MOL0     H23043   2.127   0.758   8.820  1.6871 -0.5604  0.2342
  175MOL0     H23044   2.165   0.872   8.688  0.2443 -0.1196 -1.1435
  175MOL0     H23045   2.033   0.609   8.643 -4.2776  0.5558 -1.3965
  175MOL0     H23046   2.088   0.704   8.514  1.3671 -3.0879  0.0029
  175MOL0     H23047   1.935   0.898   8.586 -1.3862  0.6706 -0.2718
  175MOL0     H23048   1.909   0.833   8.738 -2.4801  2.5910 -1.1097
  175MOL0     H23049   1.810   0.716   8.476  0.1419 -0.1402 -0.0483
  175MOL0     H23050   1.804   0.615   8.627  1.1846 -0.6936 -0.2417
  175MOL0     H23051   1.686   0.830   8.720 -1.3407 -1.3681  0.8664
  175MOL0     H23052   1.596   0.733   8.606 -0.6472  0.0715 -0.5303
  175MOL0     H23053   1.519   0.812   8.372  0.4428 -0.3953 -0.1551
  175MOL0     H23054   1.492   1.000   8.175  1.4744 -2.8333  1.4071
  175MOL0     H23055   1.487   1.168   8.242 -0.9878 -0.9864  0.0654
  175MOL0     H23056   1.289   1.152   8.358 -1.0422 -0.0502 -0.0723
  175MOL0     H23057   1.278   0.975   8.356 -1.8118  1.2182  0.5960
  175MOL0     H23058   1.292   1.149   8.111 -0.2218  0.3070  0.4741
  175MOL0     H23059   1.245   0.977   8.110 -0.8998 -0.0272 -0.0543
  175MOL0     H23060   1.062   1.088   8.292  1.0097 -2.2002 -0.6412
  175MOL0     H23061   1.026   1.060   8.119 -2.0081 -0.4693  2.1790
  175MOL0     H23062   1.035   1.449   8.049 -0.6079  0.2646  0.0059
  175MOL0     H23063   0.806   1.541   7.970 -1.5701  1.7391  2.1287
  175MOL0     H23064   0.549   1.787   8.081 -0.2798 -0.5761  1.0022
  175MOL0     H23065   0.348   1.938   8.075 -1.8474  0.2933 -0.0333
  175MOL0     H23066   0.179   2.000   7.817  2.0453  1.2036  1.0133
  175MOL0     H23067   0.163   2.071   7.983 -3.0512  1.8008  0.4866
  175MOL0     H23068  -0.012   2.156   7.872  0.5742  0.7121  3.2365
  175MOL0     H23069  -0.078   2.027   7.977  1.0509 -2.0581 -0.1594
  175MOL0     H23070  -0.093   1.865   7.791  1.9791  0.5446 -2.5965
  175MOL0     H23071  -0.043   1.986   7.675 -0.0392  1.8944  0.0502
  175MOL0     H23072  -0.293   1.987   7.675 -1.1196 -1.2591  1.0960
  175MOL0     H23073  -0.285   2.008   7.855 -2.4912  0.9937 -0.3807
  175MOL0     H23074  -0.183   2.212   7.670 -0.2810  1.8390  0.6035
  175MOL0     H23075  -0.247   2.227   7.842 -2.2755  0.0615  0.0014
  175MOL0     H23076  -0.398   2.175   7.595  0.9775  0.6946  0.6380
  175MOL0     H23077  -0.411   2.314   7.705  1.2316  0.2116  2.9152
  175MOL0     H23078  -0.525   2.031   7.768 -0.3067 -0.4282  1.5281
  175MOL0     H23079  -0.483   2.149   7.890 -0.7789 -1.1555  0.2049
  175MOL0     H23080  -0.642   2.305   7.822 -3.9560  0.4239 -1.4319
  175MOL0     H23081  -0.705   2.142   7.837  1.2147  0.4491  2.3063
  175MOL0     H23082   0.125   1.638   7.851  0.5528 -2.1423  0.2471
  175MOL0     H23083   0.343   1.492   7.865 -0.7642  0.1835  0.6235
  175MOL0     H23084   0.622   1.257   8.223 -0.3908  0.4149 -1.6553
  175MOL0     H23085   0.829   1.155   8.276 -0.8893 -0.7899 -0.4643
  175MOL0     H23086   2.758   0.595   8.616  0.8801 -0.1486  0.3039
  175MOL0     H23087   2.995   0.572   8.580  1.1675  1.7035 -1.1684
  175MOL0     H23088   3.391   0.848   8.612 -0.7801 -0.5346 -0.1282
  175MOL0     H23089   3.636   0.872   8.581 -0.0964 -1.1155 -3.8430
  175MOL0     H23090   3.857   0.524   8.637 -1.2129 -0.5722  1.9200
  175MOL0     H23091   3.923   0.596   8.780  1.0899 -0.8016 -0.2072
  175MOL0     H23092   3.964   0.671   8.481 -0.6409 -3.1806 -0.9801
  175MOL0     H23093   4.065   0.748   8.594 -0.7065  1.6861 -2.1263
  175MOL0     H23094   4.089   0.451   8.552  0.2044  1.4199 -4.5509
  175MOL0     H23095   4.182   0.538   8.667 -1.4253 -3.2007  0.8703
  175MOL0     H23096   4.293   0.494   8.458 -0.0146 -0.4346 -0.8208
  175MOL0     H23097   4.183   0.623   8.390  1.0202 -1.3423 -0.8609
  175MOL0     H23098   4.449   0.870   8.600  0.6179 -0.3979  0.6003
  175MOL0     H23099   3.692   0.509   8.792  2.1317  2.2736  0.5450
  175MOL0     H23100   3.438   0.484   8.818 -0.1363  0.4066 -0.0833
  176MOL0     O23101  10.172   3.855   1.478  0.4069 -0.6105  0.2524
  176MOL0     C23102  10.191   3.840   1.356  0.7673 -0.6236  0.4115
  176MOL0     O23103  10.092   3.872   1.263 -0.3046 -0.0749  0.9214
  176MOL0     C23104   9.972   3.915   1.312  0.1565  0.7089 -0.1727
  176MOL0     C23105   9.891   3.837   1.398  0.9578  0.0810 -0.2171
  176MOL0     C23106   9.754   3.860   1.423 -0.8395  0.1656  0.0938
  176MOL0     C23107   9.695   3.978   1.368  0.1021  0.7736 -0.0687
  176MOL0     O23108   9.560   4.001   1.382 -0.6055  0.2077 -0.3622
  176MOL0     C23109   9.467   3.889   1.406 -0.3429  0.4458 -0.4929
  176MOL0     C23110   9.333   3.923   1.332 -0.0673 -1.1602 -0.2805
  176MOL0     C23111   9.215   3.819   1.355 -0.4860 -0.0783  0.4221
  176MOL0     C23112   9.089   3.878   1.306  0.2010  0.1382 -0.4366
  176MOL0     C23113   8.974   3.810   1.387  0.5146  0.8038  0.7398
  176MOL0     C23114   8.837   3.859   1.323 -0.4777 -0.2197 -0.1862
  176MOL0     C23115   8.717   3.779   1.391  0.0531  0.1590 -0.2530
  176MOL0     C23116   8.588   3.862   1.403  0.4810 -0.4481  0.9458
  176MOL0     N23117   8.463   3.785   1.421  1.0395 -0.1371  0.1929
  176MOL0     C23118   8.402   3.748   1.538 -1.1428 -1.0850  0.1707
  176MOL0     C23119   8.287   3.691   1.503 -0.5970  0.0470 -0.4999
  176MOL0     C23120   8.175   3.650   1.584  1.0655 -0.3247  0.3622
  176MOL0     C23121   8.058   3.753   1.579 -0.8780 -0.3633  0.1812
  176MOL0     C23122   7.956   3.696   1.668 -0.8216  1.3908 -0.2001
  176MOL0     C23123   7.844   3.791   1.700  0.3240 -0.1344  0.0497
  176MOL0     O23124   7.747   3.723   1.768 -0.7819  0.2281 -0.5182
  176MOL0     C23125   7.630   3.789   1.786 -0.3489 -0.5578  0.8216
  176MOL0     C23126   7.636   3.893   1.876 -0.2504  0.4887 -0.0945
  176MOL0     C23127   7.518   3.962   1.910  0.0660  0.2773  1.0698
  176MOL0     C23128   7.401   3.936   1.826  0.9853 -0.8461 -0.1441
  176MOL0     C23129   7.272   4.008   1.844  0.3432  0.5739 -0.0386
  176MOL0     O23130   7.156   3.959   1.782  0.3523  0.6801  0.3565
  176MOL0     C23131   7.031   4.021   1.790  0.2527 -0.5338 -0.1395
  176MOL0     C23132   7.007   4.156   1.822  0.4628  0.1557 -0.1926
  176MOL0     C23133   6.880   4.207   1.836  1.2488  0.2727  0.1358
  176MOL0     C23134   6.766   4.123   1.828 -0.6359  0.5276 -0.0753
  176MOL0     O23135   6.639   4.177   1.830 -0.2808 -0.0515 -0.3571
  176MOL0     C23136   6.522   4.096   1.842 -1.0654  0.4750 -1.0713
  176MOL0     C23137   6.403   4.191   1.814 -0.1893 -0.3632  0.1133
  176MOL0     C23138   6.268   4.146   1.871 -1.0154 -0.0440 -0.7329
  176MOL0     C23139   6.148   4.228   1.818 -0.0464 -0.5875 -0.4114
  176MOL0     C23140   6.011   4.180   1.877 -0.7125  0.0366  0.9023
  176MOL0     C23141   5.899   4.269   1.836  0.9251 -0.8946 -0.3724
  176MOL0     C23142   5.764   4.247   1.908 -0.1234  0.8733  0.3493
  176MOL0     C23143   5.672   4.359   1.869  0.4071 -0.1882  0.2979
  176MOL0    Cl23144   5.575   4.356   1.728 -0.2754 -0.2944  0.1244
  176MOL0     C23145   6.789   3.989   1.800  0.1095  0.5908 -0.3255
  176MOL0     C23146   6.915   3.944   1.775  0.2040 -0.0414  0.2046
  176MOL0     O23147   7.269   4.090   1.931 -0.3142 -0.0488  0.8581
  176MOL0     C23148   7.399   3.838   1.728  0.3534  0.6666  0.3544
  176MOL0     C23149   7.511   3.771   1.707 -0.6609  0.5844  0.1374
  176MOL0     N23150   8.289   3.686   1.359  0.4311 -0.0643 -0.4782
  176MOL0     N23151   8.389   3.746   1.305 -0.3554  0.5625  0.4490
  176MOL0     C23152   9.776   4.065   1.289 -0.0564  0.8371 -0.0388
  176MOL0     C23153   9.907   4.032   1.255  0.1317  0.0769 -0.0333
  176MOL0     C23154  10.316   3.785   1.311 -0.5417 -0.7933  0.7599
  176MOL0     C23155  10.323   3.721   1.183  0.4338 -0.5861  0.2741
  176MOL0     C23156  10.444   3.672   1.132  0.7633 -1.0414  0.2466
  176MOL0     C23157  10.561   3.683   1.207 -0.3209  0.0874  0.2226
  176MOL0     O23158  10.676   3.636   1.150  0.1424 -0.4884 -0.0273
  176MOL0     C23159  10.801   3.644   1.212  0.5430 -0.0811  0.7916
  176MOL0     C23160  10.915   3.578   1.129 -0.5013 -0.1935  0.3587
  176MOL0     C23161  10.904   3.420   1.120  0.5078 -0.6663  0.1161
  176MOL0     C23162  11.027   3.370   1.049  0.1962 -0.0164  0.2180
  176MOL0     C23163  11.134   3.341   1.146 -0.2053 -0.4930  0.3958
  176MOL0     C23164  11.231   3.312   1.211 -0.1814  0.1257  0.1060
  176MOL0     C23165  10.558   3.750   1.326  0.0212  0.1112 -0.5504
  176MOL0     C23166  10.434   3.799   1.375  0.6787 -0.6362 -0.3574
  176MOL0     H23167   9.926   3.740   1.430 -0.4339  0.4276  2.7103
  176MOL0     H23168   9.704   3.800   1.498  1.2946 -0.2426  1.2592
  176MOL0     H23169   9.448   3.886   1.513 -0.4969 -0.6609 -0.5398
  176MOL0     H23170   9.504   3.797   1.361  0.9155  1.1157 -0.8705
  176MOL0     H23171   9.348   3.938   1.225  1.0716 -2.1745 -0.2869
  176MOL0     H23172   9.308   4.023   1.369  0.8079  0.0037 -2.6386
  176MOL0     H23173   9.212   3.791   1.460 -2.0348 -1.3212  0.0772
  176MOL0     H23174   9.233   3.723   1.306  1.6587  1.5543 -2.2800
  176MOL0     H23175   9.078   3.986   1.315 -1.2288 -0.0846  1.0486
  176MOL0     H23176   9.083   3.856   1.199 -0.0241  2.2113 -0.8859
  176MOL0     H23177   8.973   3.852   1.488 -2.8171  2.0296  0.3109
  176MOL0     H23178   8.985   3.701   1.391 -0.8827  0.5375 -1.2346
  176MOL0     H23179   8.829   3.848   1.215 -0.2874 -2.4031 -0.0236
  176MOL0     H23180   8.840   3.960   1.365 -1.0723 -0.2537 -0.0443
  176MOL0     H23181   8.711   3.677   1.350 -0.3565  1.3664 -3.4798
  176MOL0     H23182   8.728   3.746   1.495 -3.7549 -0.6044  0.0525
  176MOL0     H23183   8.578   3.933   1.321 -4.2735  0.2747  1.8424
  176MOL0     H23184   8.591   3.927   1.491 -0.1202 -0.1666  0.7630
  176MOL0     H23185   8.440   3.776   1.636  0.0041  1.2313 -0.8538
  176MOL0     H23186   8.206   3.633   1.687  0.6603  1.9434  0.9110
  176MOL0     H23187   8.139   3.562   1.529  0.2340  0.8441 -1.0529
  176MOL0     H23188   8.020   3.753   1.477 -0.2678 -3.3820 -0.1267
  176MOL0     H23189   8.097   3.853   1.599  1.2012 -1.1195  0.1344
  176MOL0     H23190   7.920   3.609   1.612  0.7900  0.1968  0.5330
  176MOL0     H23191   7.993   3.656   1.763  1.2840  0.9732 -1.1496
  176MOL0     H23192   7.807   3.821   1.602  0.8300  1.4638  0.3309
  176MOL0     H23193   7.876   3.871   1.767 -0.5616  0.1089  0.1926
  176MOL0     H23194   7.727   3.919   1.930  0.4768 -2.7308  0.4597
  176MOL0     H23195   7.520   4.041   1.984 -2.2134 -0.4998  2.0521
  176MOL0     H23196   7.094   4.221   1.827  0.8920 -0.0492 -3.1721
  176MOL0     H23197   6.870   4.314   1.854 -2.2665  0.1625 -0.3929
  176MOL0     H23198   6.514   4.048   1.940  2.6194 -0.2127 -0.9778
  176MOL0     H23199   6.516   4.012   1.772 -0.8975  0.0634 -0.5985
  176MOL0     H23200   6.386   4.207   1.707  0.5672  0.4408  0.0980
  176MOL0     H23201   6.422   4.294   1.843 -2.3551  0.2840 -0.6200
  176MOL0     H23202   6.261   4.146   1.980 -2.9875 -1.4248 -0.8060
  176MOL0     H23203   6.258   4.041   1.840 -1.0852 -1.3356  3.0784
  176MOL0     H23204   6.154   4.331   1.853 -4.4969 -0.3600  0.1952
  176MOL0     H23205   6.166   4.228   1.710  0.0106 -0.4160 -0.4016
  176MOL0     H23206   6.027   4.198   1.983 -1.5914  1.3181  0.8390
  176MOL0     H23207   5.980   4.078   1.852 -0.1610 -0.0810  0.6675
  176MOL0     H23208   5.879   4.264   1.728 -2.5076  0.1755  0.1104
  176MOL0     H23209   5.929   4.374   1.851 -2.4153  0.4398 -2.0538
  176MOL0     H23210   5.723   4.147   1.891 -0.7414  1.1683  0.0985
  176MOL0     H23211   5.779   4.243   2.016 -0.0643 -1.2561  0.3163
  176MOL0     H23212   5.717   4.459   1.875 -2.2296  0.9987  1.7867
  176MOL0     H23213   5.598   4.365   1.948 -1.5174  1.2483 -1.4867
  176MOL0     H23214   6.706   3.922   1.781 -0.4412  2.2202 -4.6916
  176MOL0     H23215   6.915   3.840   1.742 -0.9963 -0.6926  2.0762
  176MOL0     H23216   7.313   3.822   1.663  0.3919  0.4216  0.3624
  176MOL0     H23217   7.498   3.695   1.630  2.4391 -0.0837  0.1718
  176MOL0     H23218   9.727   4.155   1.255 -2.1814 -0.7429 -1.3638
  176MOL0     H23219   9.984   4.088   1.202  2.9568 -2.6805  0.8081
  176MOL0     H23220  10.231   3.698   1.131  0.2888  0.9193 -0.1625
  176MOL0     H23221  10.447   3.614   1.040  3.0683 -0.2328 -0.2547
  176MOL0     H23222  10.779   3.587   1.302 -1.3175  1.9379  1.7173
  176MOL0     H23223  10.830   3.745   1.244 -0.9772  0.0305  1.9187
  176MOL0     H23224  10.912   3.622   1.029  1.5938  0.7148  0.6574
  176MOL0     H23225  11.011   3.597   1.178  0.4321  2.0695 -2.1284
  176MOL0     H23226  10.817   3.400   1.057  3.0006 -2.5826 -3.0136
  176MOL0     H23227  10.881   3.388   1.222 -2.9251  4.2519  1.2922
  176MOL0     H23228  11.001   3.286   0.984  0.7212  1.1627 -1.5839
  176MOL0     H23229  11.071   3.442   0.979 -1.1750  2.7865  2.0631
  176MOL0     H23230  11.322   3.294   1.264 -0.2114 -0.5575 -0.0662
  176MOL0     H23231  10.649   3.765   1.385  0.4605 -0.8119 -0.9737
  176MOL0     H23232  10.443   3.850   1.471 -4.0127  0.7957 -0.4476
  177MOL0     O23233   9.671   6.082  10.486  0.3784 -0.0036 -0.4562
  177MOL0     C23234   9.769   6.143  10.514 -0.1384  0.1387 -0.8091
  177MOL0     O23235   9.767   6.249  10.595 -0.6922  0.0299 -0.5856
  177MOL0     C23236   9.660   6.284  10.672  0.2912  0.0378  0.7231
  177MOL0     C23237   9.625   6.424  10.667 -0.4030 -0.2847 -0.0535
  177MOL0     C23238   9.514   6.474  10.744  0.2336 -0.1491  0.4921
  177MOL0     C23239   9.427   6.385  10.819 -0.1548 -0.4728 -0.2622
  177MOL0     O23240   9.308   6.414  10.884  0.2824  0.2024  0.2713
  177MOL0     C23241   9.232   6.519  10.825  0.3695 -0.4003 -0.0821
  177MOL0     C23242   9.118   6.564  10.923  0.6538  0.3135 -0.3668
  177MOL0     C23243   9.002   6.465  10.899 -0.7537 -0.1791 -1.4758
  177MOL0     C23244   8.908   6.495  10.776 -0.5156  0.5207  0.2106
  177MOL0     C23245   8.755   6.501  10.802  0.1200 -0.0587  0.1794
  177MOL0     C23246   8.703   6.642  10.746  0.6097 -1.0772  0.4002
  177MOL0     C23247   8.553   6.669  10.773 -0.6732 -0.2344  0.3387
  177MOL0     C23248   8.506   6.809  10.724  0.1982  0.3857  0.0528
  177MOL0     N23249   8.583   6.914  10.796 -0.1789  0.0186 -0.4492
  177MOL0     C23250   8.710   6.961  10.767 -0.4828  0.0945 -0.1946
  177MOL0     C23251   8.729   7.058  10.856  0.6908 -0.3606 -0.2285
  177MOL0     C23252   8.852   7.152  10.867  0.3167  0.2391  0.9195
  177MOL0     C23253   8.982   7.071  10.871  0.2818 -0.2804 -0.5186
  177MOL0     C23254   8.985   6.939  10.947 -0.3036  0.4451  0.0564
  177MOL0     C23255   8.967   6.953  11.102  0.3385  0.5654  0.3828
  177MOL0     O23256   9.004   6.830  11.158 -0.1400 -0.2371 -0.5681
  177MOL0     C23257   8.906   6.729  11.181 -0.0987  0.0286 -0.5894
  177MOL0     C23258   8.773   6.730  11.133  0.3758 -0.3365 -0.7405
  177MOL0     C23259   8.693   6.625  11.146  0.2723  0.1652  0.3070
  177MOL0     C23260   8.730   6.508  11.232 -0.2084 -0.7668  0.0676
  177MOL0     C23261   8.632   6.395  11.244  0.8800  0.0438  0.2592
  177MOL0     O23262   8.627   6.320  11.358 -0.3535 -0.9678  0.3550
  177MOL0     C23263   8.536   6.223  11.348  0.2061  0.7810  0.0662
  177MOL0     C23264   8.546   6.102  11.273 -0.0928  0.9395 -0.6957
  177MOL0     C23265   8.467   5.989  11.302 -0.1669 -0.4121 -0.2552
  177MOL0     C23266   8.358   5.999  11.389 -0.2890  0.0700 -0.4752
  177MOL0     O23267   8.294   5.875  11.411  0.8636  0.3240 -0.2799
  177MOL0     C23268   8.154   5.878  11.444  0.4396  0.2737  0.0718
  177MOL0     C23269   8.078   5.744  11.400  0.4926 -0.5968 -0.5945
  177MOL0     C23270   7.933   5.731  11.442 -0.5676  0.2319 -0.2725
  177MOL0     C23271   7.868   5.626  11.359 -0.1415  0.5495 -0.1251
  177MOL0     C23272   7.721   5.627  11.396  0.0652 -0.8024 -0.4006
  177MOL0     C23273   7.648   5.507  11.341  0.5950 -0.4655 -0.4054
  177MOL0     C23274   7.493   5.519  11.367 -0.5644 -0.1563 -0.0390
  177MOL0     C23275   7.430   5.623  11.273  0.2318 -0.4859 -0.0714
  177MOL0    Cl23276   7.464   5.604  11.097 -0.2088 -0.0848 -0.2583
  177MOL0     C23277   8.329   6.117  11.458 -0.7769  0.1915  0.3943
  177MOL0     C23278   8.423   6.228  11.436  0.0866  0.1383  0.2185
  177MOL0     O23279   8.549   6.389  11.157 -0.3500  0.2383  0.2263
  177MOL0     C23280   8.852   6.518  11.292  0.1753  0.5419  0.1245
  177MOL0     C23281   8.940   6.629  11.268  0.9493  0.2197  0.2015
  177MOL0     N23282   8.610   7.079  10.922  0.3864 -0.2630 -0.5623
  177MOL0     N23283   8.528   6.987  10.891 -0.9302 -0.0508  0.4305
  177MOL0     C23284   9.471   6.257  10.826  0.2185 -0.1941  0.2921
  177MOL0     C23285   9.579   6.204  10.754  0.6305  0.1069  0.3795
  177MOL0     C23286   9.904   6.106  10.462  0.0095  0.6542  0.3780
  177MOL0     C23287   9.910   6.011  10.362 -0.2304  0.2338 -0.1926
  177MOL0     C23288  10.033   5.972  10.314  0.0986 -0.4494 -0.7032
  177MOL0     C23289  10.159   6.025  10.352 -0.5930  0.7380 -0.0569
  177MOL0     O23290  10.276   5.965  10.298 -0.1378  0.3588  0.7938
  177MOL0     C23291  10.413   5.987  10.352  0.5754 -0.5115  0.0632
  177MOL0     C23292  10.485   6.094  10.274 -1.5839  0.5936  0.2323
  177MOL0     C23293  10.633   6.099  10.307 -0.5175  0.1977 -0.1195
  177MOL0     C23294  10.715   5.976  10.292 -0.8722  0.6035 -0.2979
  177MOL0     C23295  10.858   5.989  10.332  0.3275 -0.0843  1.0256
  177MOL0     C23296  10.977   5.983  10.369 -0.1238  0.4854  0.4581
  177MOL0     C23297  10.150   6.114  10.461 -0.4694  0.0863 -0.0462
  177MOL0     C23298  10.026   6.159  10.516 -0.1214  0.7528  0.0512
  177MOL0     H23299   9.681   6.486  10.598 -0.0094 -1.6334 -0.9799
  177MOL0     H23300   9.495   6.581  10.746 -2.7379 -0.6040  0.8179
  177MOL0     H23301   9.190   6.488  10.729 -1.9368 -3.2373  1.6629
  177MOL0     H23302   9.300   6.604  10.813  0.2103  0.0852  1.9784
  177MOL0     H23303   9.094   6.670  10.908  0.6637  0.2835 -0.5941
  177MOL0     H23304   9.154   6.562  11.026 -0.1299 -3.4689 -0.0262
  177MOL0     H23305   8.948   6.465  10.994  0.2557 -1.3005 -0.8800
  177MOL0     H23306   9.044   6.366  10.877 -1.2127 -0.3391 -1.6552
  177MOL0     H23307   8.956   6.580  10.727  0.4411  0.2558  0.6599
  177MOL0     H23308   8.928   6.409  10.710 -2.1017  0.2537  0.0414
  177MOL0     H23309   8.721   6.487  10.905 -1.3855  1.7561 -0.0205
  177MOL0     H23310   8.718   6.416  10.744  3.6375 -0.7430 -1.3475
  177MOL0     H23311   8.731   6.647  10.640 -1.9737 -1.2494 -0.3632
  177MOL0     H23312   8.749   6.722  10.805  1.8180  0.1250 -1.9983
  177MOL0     H23313   8.484   6.598  10.727  0.0246 -0.8758  0.2585
  177MOL0     H23314   8.523   6.667  10.878  0.2010  3.0894  0.7700
  177MOL0     H23315   8.398   6.827  10.724  0.4644  2.3312 -1.7557
  177MOL0     H23316   8.516   6.807  10.616 -0.9017 -3.9068 -0.1732
  177MOL0     H23317   8.779   6.920  10.695 -0.4897 -1.8373  0.8469
  177MOL0     H23318   8.832   7.207  10.959 -1.0475  0.6491  0.3932
  177MOL0     H23319   8.856   7.219  10.780  2.6420 -0.8003  0.1218
  177MOL0     H23320   9.061   7.132  10.915  1.6301 -2.0266 -0.3971
  177MOL0     H23321   9.008   7.047  10.767  0.9518  2.4918 -1.0526
  177MOL0     H23322   8.916   6.873  10.893 -0.9074  1.4564 -0.4373
  177MOL0     H23323   9.086   6.901  10.929  0.3291  2.3148 -0.5339
  177MOL0     H23324   8.864   6.980  11.125 -0.9674 -3.6817  0.2933
  177MOL0     H23325   9.027   7.033  11.147  0.2594  2.2745 -2.3413
  177MOL0     H23326   8.738   6.816  11.076  0.3039  1.0202  1.2511
  177MOL0     H23327   8.594   6.637  11.101  1.1143 -3.0592 -2.8382
  177MOL0     H23328   8.630   6.079  11.208 -0.5851  0.5979 -1.2212
  177MOL0     H23329   8.480   5.903  11.238  1.1401  1.4575 -2.6989
  177MOL0     H23330   8.105   5.961  11.392 -1.6132 -0.9629 -0.0427
  177MOL0     H23331   8.140   5.899  11.551 -1.4000  3.0799 -0.6039
  177MOL0     H23332   8.127   5.655  11.438 -1.0256 -1.4753 -0.6342
  177MOL0     H23333   8.081   5.729  11.291 -1.0684 -0.1966 -0.7046
  177MOL0     H23334   7.886   5.829  11.429 -1.2935  0.2198  1.9204
  177MOL0     H23335   7.929   5.716  11.550  0.7887 -0.4658 -0.2994
  177MOL0     H23336   7.880   5.644  11.252  0.1007 -0.9772 -0.3759
  177MOL0     H23337   7.914   5.527  11.371  0.3120  0.2328 -3.4574
  177MOL0     H23338   7.674   5.714  11.350 -1.8512 -1.2248  0.6260
  177MOL0     H23339   7.709   5.621  11.505  0.2683  1.8617 -0.1679
  177MOL0     H23340   7.681   5.426  11.407 -1.2185 -0.0331  1.1351
  177MOL0     H23341   7.668   5.476  11.239 -0.4283  0.2072 -0.8286
  177MOL0     H23342   7.447   5.420  11.361  0.8182 -0.9284  1.4095
  177MOL0     H23343   7.472   5.543  11.472  0.7448 -4.1237  1.2971
  177MOL0     H23344   7.469   5.720  11.307  1.7876 -0.7700 -0.9557
  177MOL0     H23345   7.322   5.610  11.290  0.6521 -1.7923  1.8405
  177MOL0     H23346   8.255   6.125  11.537 -1.6127  1.2814 -0.4698
  177MOL0     H23347   8.399   6.322  11.485 -0.5209  0.6436 -1.0047
  177MOL0     H23348   8.892   6.445  11.362 -0.9634 -1.7520 -1.4653
  177MOL0     H23349   9.025   6.611  11.334 -0.4591 -3.1460  1.3197
  177MOL0     H23350   9.406   6.184  10.873 -0.9812  0.8168  0.2577
  177MOL0     H23351   9.581   6.095  10.754 -2.6302 -0.0801  1.8566
  177MOL0     H23352   9.819   5.969  10.321 -0.6432  0.0879  0.8386
  177MOL0     H23353  10.041   5.897  10.236  0.4193 -1.3634  0.1905
  177MOL0     H23354  10.468   5.893  10.348  1.3081 -0.1431 -5.1912
  177MOL0     H23355  10.393   6.005  10.458  1.8121 -1.4901  0.4878
  177MOL0     H23356  10.486   6.065  10.169  1.6854  1.0458  0.0385
  177MOL0     H23357  10.437   6.192  10.271  0.1672  1.4650 -1.4185
  177MOL0     H23358  10.643   6.129  10.412  0.0052  2.5056 -0.7649
  177MOL0     H23359  10.676   6.167  10.233  0.0621 -1.0030 -0.9118
  177MOL0     H23360  10.677   5.902  10.363 -0.2169 -0.6301 -1.1987
  177MOL0     H23361  10.699   5.930  10.194  1.2952  0.8172 -0.8025
  177MOL0     H23362  11.075   5.981  10.413 -0.5257 -2.0191  1.4272
  177MOL0     H23363  10.239   6.146  10.513  2.0164 -0.8194 -3.3807
  177MOL0     H23364  10.015   6.224  10.602 -0.6603  0.2190  0.3931
  178MOL0     O23365  10.675   3.157   8.717  0.1264 -0.4495 -0.4699
  178MOL0     C23366  10.729   3.051   8.753  0.1859  1.0002  0.2062
  178MOL0     O23367  10.666   2.940   8.813  0.4300 -0.1153 -0.1474
  178MOL0     C23368  10.532   2.953   8.840  0.1635  0.0754  0.4502
  178MOL0     C23369  10.446   2.988   8.738  0.3313 -0.3043  0.6449
  178MOL0     C23370  10.307   3.012   8.768 -0.0522  0.0542 -0.0127
  178MOL0     C23371  10.261   3.000   8.904  0.6172 -0.9514  0.0262
  178MOL0     O23372  10.131   3.012   8.941  0.0536  0.0760  0.2134
  178MOL0     C23373  10.021   3.056   8.864 -1.0122 -0.1408  0.2558
  178MOL0     C23374   9.913   3.081   8.958 -0.0871 -0.2572 -0.4320
  178MOL0     C23375   9.953   3.187   9.064  0.3161  0.3093  0.4053
  178MOL0     C23376   9.838   3.259   9.124  0.8232  0.4032  0.1897
  178MOL0     C23377   9.895   3.364   9.207 -0.3072  0.3767  0.2745
  178MOL0     C23378   9.789   3.463   9.256  0.1730 -0.1743 -0.0865
  178MOL0     C23379   9.832   3.575   9.349 -0.7268  0.1219 -0.4252
  178MOL0     C23380   9.728   3.651   9.431 -0.5222 -0.1864  0.5869
  178MOL0     N23381   9.779   3.783   9.495 -0.5627  1.0204  0.2261
  178MOL0     C23382   9.691   3.878   9.543 -0.0147  0.6627 -0.6726
  178MOL0     C23383   9.769   3.978   9.607 -0.0685  0.1685  0.0937
  178MOL0     C23384   9.716   4.105   9.678 -0.0982  0.0394  0.1029
  178MOL0     C23385   9.568   4.096   9.705  0.1541  0.2093  0.3388
  178MOL0     C23386   9.520   4.214   9.802  0.3099  0.0445 -0.1424
  178MOL0     C23387   9.366   4.230   9.793 -0.6038 -0.8390  0.0942
  178MOL0     O23388   9.322   4.348   9.859  0.2550 -0.3010 -0.0410
  178MOL0     C23389   9.199   4.404   9.831 -0.6632  0.8427  0.0071
  178MOL0     C23390   9.190   4.540   9.825  0.3024  0.6013  0.3246
  178MOL0     C23391   9.066   4.601   9.813 -0.2490  0.5494 -0.5956
  178MOL0     C23392   8.946   4.520   9.816 -0.1565 -0.0523 -0.1003
  178MOL0     C23393   8.817   4.582   9.810 -0.7963  0.0315  0.9937
  178MOL0     O23394   8.710   4.490   9.824  0.4645  0.7761  0.6814
  178MOL0     C23395   8.581   4.539   9.794 -1.0428 -0.3308  0.6624
  178MOL0     C23396   8.484   4.459   9.856  0.4025 -1.1022 -0.5355
  178MOL0     C23397   8.348   4.504   9.851 -1.5782 -0.0861  0.5033
  178MOL0     C23398   8.313   4.614   9.779  0.3238 -0.3975  0.2663
  178MOL0     O23399   8.184   4.653   9.764  0.2302  0.4465  0.2227
  178MOL0     C23400   8.078   4.574   9.830 -0.1783 -0.2516  1.3634
  178MOL0     C23401   7.942   4.644   9.825  0.0374  0.5875 -0.0305
  178MOL0     C23402   7.890   4.671   9.691  0.4901 -0.2789  0.2968
  178MOL0     C23403   7.746   4.734   9.685 -0.6224 -0.1933  1.0146
  178MOL0     C23404   7.624   4.630   9.684 -0.7686  0.1170 -0.1369
  178MOL0     C23405   7.483   4.688   9.706 -0.0984 -0.2709 -0.5769
  178MOL0     C23406   7.393   4.574   9.735  0.7369 -0.1371  0.7687
  178MOL0     C23407   7.393   4.468   9.623  0.1371  0.2764 -0.0558
  178MOL0    Cl23408   7.241   4.370   9.636  0.0570  0.3216  0.5536
  178MOL0     C23409   8.403   4.688   9.707  0.2234 -0.2539  0.5071
  178MOL0     C23410   8.539   4.650   9.712  0.6373 -0.1409 -0.8575
  178MOL0     O23411   8.810   4.703   9.779 -0.5218  0.5127  0.0746
  178MOL0     C23412   8.959   4.378   9.826  0.0980  0.5546  1.2316
  178MOL0     C23413   9.085   4.327   9.830  0.4946 -0.2046  0.0816
  178MOL0     N23414   9.898   3.937   9.590 -0.0973  0.6587 -0.0447
  178MOL0     N23415   9.904   3.817   9.534  0.3604 -0.2552  0.2593
  178MOL0     C23416  10.348   2.956   9.006 -0.1363 -0.4379  0.0997
  178MOL0     C23417  10.485   2.938   8.977 -0.9848 -0.8294  0.8172
  178MOL0     C23418  10.873   3.037   8.721  0.2011 -0.1611 -0.5882
  178MOL0     C23419  10.934   2.915   8.714 -0.6650  0.3832 -0.3223
  178MOL0     C23420  11.068   2.902   8.682  0.4811 -0.8046  0.9594
  178MOL0     C23421  11.159   3.001   8.673  0.6455  0.1063  0.3233
  178MOL0     O23422  11.288   2.968   8.639  0.4434  0.0048 -0.0817
  178MOL0     C23423  11.389   3.075   8.635  0.8235  0.5036  0.3760
  178MOL0     C23424  11.519   3.010   8.609  0.3490  0.1758  0.1382
  178MOL0     C23425  11.635   3.103   8.602  0.5676 -0.3268 -0.3501
  178MOL0     C23426  11.777   3.047   8.574 -0.3722  0.2879  0.6667
  178MOL0     C23427  11.783   2.957   8.466  0.0566  0.5448 -0.2438
  178MOL0     C23428  11.772   2.888   8.371  0.5529  0.2171  0.0590
  178MOL0     C23429  11.095   3.124   8.668  0.5091 -0.3374 -0.0272
  178MOL0     C23430  10.956   3.145   8.696 -0.5511 -0.5036 -0.4367
  178MOL0     H23431  10.472   3.010   8.635  0.7116  0.5406  0.9107
  178MOL0     H23432  10.225   3.031   8.700 -3.1907 -4.0299  2.1187
  178MOL0     H23433   9.986   2.986   8.788  1.2698  1.1370 -2.1615
  178MOL0     H23434  10.063   3.143   8.812  3.1528 -4.1497 -3.9959
  178MOL0     H23435   9.888   2.988   9.010  1.0916 -1.3654 -1.7671
  178MOL0     H23436   9.828   3.117   8.899 -0.1003 -1.5151 -1.2076
  178MOL0     H23437  10.035   3.246   9.020  0.7113  0.3067  1.1215
  178MOL0     H23438   9.994   3.129   9.147 -1.0767  0.2360  1.0667
  178MOL0     H23439   9.772   3.302   9.049  0.2879 -0.0203  0.4035
  178MOL0     H23440   9.770   3.198   9.185 -0.1960 -0.8878 -2.0933
  178MOL0     H23441   9.972   3.424   9.156 -2.2096  0.4225 -2.8079
  178MOL0     H23442   9.949   3.320   9.291  0.6017  3.4427  1.4451
  178MOL0     H23443   9.709   3.415   9.314 -2.6543  2.5336 -1.4451
  178MOL0     H23444   9.741   3.509   9.169 -1.4921  0.1237  0.9356
  178MOL0     H23445   9.909   3.530   9.411  0.1788  0.5296 -1.2260
  178MOL0     H23446   9.881   3.645   9.280 -0.5782  0.7873  0.3467
  178MOL0     H23447   9.699   3.579   9.508 -1.6268  0.7361  1.0748
  178MOL0     H23448   9.642   3.670   9.365 -0.9829 -0.4666  1.0964
  178MOL0     H23449   9.583   3.874   9.538 -0.1496  2.2157  0.2646
  178MOL0     H23450   9.746   4.193   9.622  1.1128 -0.6424 -0.3612
  178MOL0     H23451   9.765   4.119   9.775 -0.8470 -1.8152  0.8048
  178MOL0     H23452   9.544   4.004   9.760 -0.2300 -0.4468 -0.8852
  178MOL0     H23453   9.509   4.101   9.613  0.5107 -1.7825 -0.0551
  178MOL0     H23454   9.542   4.193   9.907 -3.5150 -2.2153  0.4289
  178MOL0     H23455   9.563   4.306   9.763 -3.3010  3.3326  2.8299
  178MOL0     H23456   9.324   4.145   9.848 -0.1633 -1.5187 -0.5940
  178MOL0     H23457   9.334   4.238   9.689  3.4028 -1.8249 -1.4282
  178MOL0     H23458   9.280   4.601   9.831 -0.1017  1.2068  0.3154
  178MOL0     H23459   9.070   4.709   9.810  1.3782  0.5900  1.1386
  178MOL0     H23460   8.512   4.371   9.914  1.5028  1.5009  3.2988
  178MOL0     H23461   8.271   4.447   9.902 -0.9409 -1.0882  0.3656
  178MOL0     H23462   8.094   4.538   9.932 -2.1403 -2.5498  0.9371
  178MOL0     H23463   8.067   4.484   9.769 -1.2497  0.3919  0.5689
  178MOL0     H23464   7.941   4.739   9.879  1.1371  1.2889 -1.1984
  178MOL0     H23465   7.873   4.578   9.879  1.6221 -0.3746  0.8776
  178MOL0     H23466   7.881   4.581   9.629  1.9984  0.4353 -1.0216
  178MOL0     H23467   7.961   4.735   9.639 -0.1277  0.1384 -0.0468
  178MOL0     H23468   7.714   4.806   9.761 -2.6507 -1.7335  1.7117
  178MOL0     H23469   7.739   4.794   9.593 -1.1581 -3.3805 -1.1936
  178MOL0     H23470   7.657   4.564   9.765  0.5424  0.7049 -0.1548
  178MOL0     H23471   7.634   4.576   9.590 -0.7787 -0.1679  0.0241
  178MOL0     H23472   7.440   4.752   9.628 -2.8775  1.0945  1.8727
  178MOL0     H23473   7.479   4.752   9.794  1.6191  0.3100 -0.8913
  178MOL0     H23474   7.438   4.528   9.824  0.6270 -0.4343  0.6713
  178MOL0     H23475   7.291   4.608   9.750  0.6333  2.4180 -3.8470
  178MOL0     H23476   7.476   4.398   9.635 -1.0679 -1.4447 -1.3474
  178MOL0     H23477   7.401   4.522   9.528 -0.0268  0.0179 -0.2141
  178MOL0     H23478   8.360   4.761   9.638 -0.9067 -3.5395 -2.5700
  178MOL0     H23479   8.613   4.709   9.659  0.1844  1.7615  0.5094
  178MOL0     H23480   8.875   4.312   9.811  0.5230  0.6865 -2.8357
  178MOL0     H23481   9.104   4.223   9.857  1.7920  0.2707  1.0996
  178MOL0     H23482  10.308   2.951   9.106  0.5779 -0.4563  0.3883
  178MOL0     H23483  10.552   2.920   9.060 -0.4372 -4.4063 -0.2301
  178MOL0     H23484  10.879   2.822   8.727  0.6857 -0.5929 -1.3985
  178MOL0     H23485  11.103   2.804   8.653  1.7659 -0.7256  2.1007
  178MOL0     H23486  11.399   3.129   8.729 -0.9929  0.7717  0.4444
  178MOL0     H23487  11.364   3.147   8.557 -2.8511 -0.6951  0.2745
  178MOL0     H23488  11.521   2.924   8.676 -3.3535  1.8219  2.6787
  178MOL0     H23489  11.512   2.965   8.510 -1.4646  1.0396 -0.1651
  178MOL0     H23490  11.642   3.157   8.697 -2.0651  1.7990 -1.2255
  178MOL0     H23491  11.607   3.179   8.528  1.4096  0.5723  0.2484
  178MOL0     H23492  11.844   3.129   8.548 -0.4650 -0.2328 -1.4342
  178MOL0     H23493  11.815   2.987   8.657  0.5979 -0.3546 -0.2203
  178MOL0     H23494  11.771   2.805   8.303  1.3431  1.8222 -1.9911
  178MOL0     H23495  11.156   3.213   8.654  2.0124 -1.4512 -0.9133
  178MOL0     H23496  10.917   3.246   8.693  1.6420  0.3851 -1.1728
  179MOL0     O23497   9.572   7.291   2.421  0.2366 -0.0607  0.2111
  179MOL0     C23498   9.620   7.403   2.446 -1.1525  0.7526  0.4647
  179MOL0     O23499   9.549   7.515   2.479 -0.2993  0.0626  0.1012
  179MOL0     C23500   9.420   7.520   2.523  0.3210 -0.0325  0.1588
  179MOL0     C23501   9.362   7.645   2.521 -0.5657 -0.1660  0.3920
  179MOL0     C23502   9.224   7.654   2.562  0.1652 -0.2713  0.7403
  179MOL0     C23503   9.137   7.546   2.587 -0.2607  0.2457  0.3918
  179MOL0     O23504   9.006   7.554   2.624  0.5633 -0.1756  1.3264
  179MOL0     C23505   8.922   7.617   2.525  0.1526 -0.6321 -0.1375
  179MOL0     C23506   8.787   7.546   2.519  0.6491  0.4358 -1.1807
  179MOL0     C23507   8.782   7.402   2.492 -0.7721  0.1603 -1.1361
  179MOL0     C23508   8.834   7.373   2.350 -0.8134  0.7660  0.2323
  179MOL0     C23509   8.810   7.222   2.342 -0.2751  0.4860 -0.0776
  179MOL0     C23510   8.823   7.183   2.196 -0.1662  0.0042 -1.2058
  179MOL0     C23511   8.820   7.031   2.182  0.2306 -0.2559 -0.2773
  179MOL0     C23512   8.775   6.979   2.051  0.3068  0.0257  0.6401
  179MOL0     N23513   8.633   6.924   2.062  0.0353  0.1001 -0.1487
  179MOL0     C23514   8.516   6.991   2.093 -0.4453 -0.4166  0.5382
  179MOL0     C23515   8.416   6.911   2.054  0.4570  0.0242 -0.2853
  179MOL0     C23516   8.268   6.939   2.037  0.3493  0.5254 -0.2523
  179MOL0     C23517   8.186   6.887   2.159  0.3396  0.8041  0.6193
  179MOL0     C23518   8.034   6.873   2.123 -0.1191 -0.1581 -0.3896
  179MOL0     C23519   7.939   6.841   2.247  0.0595 -0.1833  0.4318
  179MOL0     O23520   7.958   6.709   2.299 -0.6980  0.1963  0.2356
  179MOL0     C23521   7.846   6.641   2.334  0.3071 -0.6741  0.9596
  179MOL0     C23522   7.866   6.506   2.325  1.1381  0.3188 -1.1764
  179MOL0     C23523   7.753   6.421   2.349  0.2422  0.2570 -0.0203
  179MOL0     C23524   7.631   6.468   2.391 -0.5685 -0.9639 -1.6344
  179MOL0     C23525   7.511   6.382   2.433 -0.1587 -1.2165  0.1525
  179MOL0     O23526   7.398   6.450   2.479 -0.7321 -0.1714  0.0204
  179MOL0     C23527   7.281   6.388   2.493  0.2417  0.3723 -0.1262
  179MOL0     C23528   7.186   6.477   2.543  0.1199  0.1124 -0.2030
  179MOL0     C23529   7.049   6.446   2.551 -0.2520  0.7052  0.1595
  179MOL0     C23530   7.006   6.311   2.532  0.5242 -1.0436 -0.3408
  179MOL0     O23531   6.880   6.263   2.574  0.3150  0.0176 -0.3448
  179MOL0     C23532   6.771   6.351   2.585  0.3166 -0.3167  0.4180
  179MOL0     C23533   6.651   6.282   2.648 -0.2676  0.1717 -0.1843
  179MOL0     C23534   6.533   6.378   2.636 -0.0524  0.0404  0.1581
  179MOL0     C23535   6.416   6.324   2.712 -0.4291  0.2047 -0.0665
  179MOL0     C23536   6.284   6.394   2.665 -0.5373  0.7168 -0.1710
  179MOL0     C23537   6.182   6.397   2.772  0.3053  0.0668  0.2153
  179MOL0     C23538   6.226   6.447   2.908  0.5391 -0.0190 -0.3878
  179MOL0     C23539   6.102   6.497   2.978 -0.4807  0.2297  0.2509
  179MOL0    Cl23540   5.972   6.380   2.996 -0.3069 -0.1377 -0.2213
  179MOL0     C23541   7.103   6.220   2.485  0.1513 -0.0426  0.0826
  179MOL0     C23542   7.237   6.258   2.470  0.3240  0.3677 -0.5826
  179MOL0     O23543   7.524   6.270   2.410 -0.4311 -0.0926  0.8714
  179MOL0     C23544   7.619   6.607   2.395 -0.3107 -0.9648 -0.0052
  179MOL0     C23545   7.722   6.697   2.373 -0.0888  0.6565 -0.4577
  179MOL0     N23546   8.475   6.790   2.016 -0.2798  1.0407 -0.0211
  179MOL0     N23547   8.608   6.796   2.019  0.2640 -1.1466  0.4491
  179MOL0     C23548   9.199   7.423   2.604 -0.0484  0.0849  0.1963
  179MOL0     C23549   9.339   7.411   2.565  0.7244  0.9319 -0.2128
  179MOL0     C23550   9.771   7.410   2.425  0.1629 -0.1405 -0.2392
  179MOL0     C23551   9.849   7.508   2.482 -0.0604 -0.0100 -0.1018
  179MOL0     C23552   9.983   7.523   2.458 -0.6358  0.0253 -0.4720
  179MOL0     C23553  10.050   7.434   2.372 -0.4864  0.3106  0.0726
  179MOL0     O23554  10.183   7.465   2.349 -0.1289  0.0810 -0.4307
  179MOL0     C23555  10.256   7.406   2.240 -0.1051  0.3713 -0.5220
  179MOL0     C23556  10.386   7.480   2.241 -0.1987 -0.0251 -0.4459
  179MOL0     C23557  10.493   7.427   2.150 -0.8000 -0.4965  0.4489
  179MOL0     C23558  10.632   7.492   2.169  0.5431 -0.2136  0.4527
  179MOL0     C23559  10.636   7.626   2.127  0.1489  0.7555  0.2057
  179MOL0     C23560  10.626   7.740   2.087 -0.3493  1.1877  0.1716
  179MOL0     C23561   9.977   7.338   2.308 -0.9225 -0.8468  0.2378
  179MOL0     C23562   9.843   7.322   2.339  0.6845  0.4716 -0.8242
  179MOL0     H23563   9.432   7.723   2.493  1.0246 -0.8614  2.2789
  179MOL0     H23564   9.177   7.751   2.551  2.8198  1.3145  2.2698
  179MOL0     H23565   8.971   7.603   2.429 -1.4833 -1.1589 -0.9375
  179MOL0     H23566   8.909   7.725   2.538  0.7302 -0.7534  1.8971
  179MOL0     H23567   8.737   7.592   2.434 -0.0022  1.5694 -0.2222
  179MOL0     H23568   8.730   7.562   2.611 -0.9155  2.9759 -2.4885
  179MOL0     H23569   8.676   7.376   2.499 -0.4504 -1.0339 -0.3124
  179MOL0     H23570   8.836   7.359   2.576 -3.0079  0.2497  0.4280
  179MOL0     H23571   8.767   7.422   2.278 -3.0586 -2.9807 -0.5178
  179MOL0     H23572   8.937   7.404   2.333 -0.2785  0.9799  3.2779
  179MOL0     H23573   8.711   7.183   2.370 -0.0729 -0.6298 -0.8604
  179MOL0     H23574   8.879   7.177   2.414  1.9147 -2.1903 -3.5362
  179MOL0     H23575   8.908   7.235   2.152 -1.3935  0.8184 -2.7442
  179MOL0     H23576   8.741   7.219   2.132  0.2211 -0.0920 -1.7645
  179MOL0     H23577   8.917   6.988   2.213  0.6729  1.8797  1.5498
  179MOL0     H23578   8.750   6.998   2.259  2.0956 -0.4106  1.4623
  179MOL0     H23579   8.839   6.899   2.014  0.1618 -0.1179  0.6992
  179MOL0     H23580   8.768   7.058   1.975 -0.2504 -0.6568 -0.0246
  179MOL0     H23581   8.506   7.096   2.121 -0.3002  0.0133 -0.9006
  179MOL0     H23582   8.230   6.892   1.946 -2.4972 -0.8938  1.5274
  179MOL0     H23583   8.251   7.046   2.025  0.0443  0.9263  2.8398
  179MOL0     H23584   8.192   6.955   2.244 -2.8672  2.5364 -0.4016
  179MOL0     H23585   8.225   6.788   2.187  0.5878  1.1717  1.5845
  179MOL0     H23586   8.000   6.971   2.087  0.2467 -0.3299 -1.2117
  179MOL0     H23587   8.013   6.796   2.048  0.7955 -1.5133  0.6935
  179MOL0     H23588   7.842   6.868   2.204  1.4912  2.5805 -1.4450
  179MOL0     H23589   7.972   6.917   2.318  2.8541 -0.1183 -0.7824
  179MOL0     H23590   7.963   6.463   2.300  0.9320 -0.7932 -0.1773
  179MOL0     H23591   7.771   6.315   2.334 -3.1448 -0.2794 -1.0146
  179MOL0     H23592   7.218   6.576   2.574  0.7854  0.6866 -2.4923
  179MOL0     H23593   6.980   6.518   2.593 -1.1514 -0.8746  1.4955
  179MOL0     H23594   6.739   6.384   2.486 -2.1686  3.2265  2.1888
  179MOL0     H23595   6.791   6.443   2.640  0.2266 -0.6568  1.0355
  179MOL0     H23596   6.673   6.242   2.748 -1.6690 -2.5000 -0.8549
  179MOL0     H23597   6.621   6.195   2.590  1.3094  0.5632 -1.6437
  179MOL0     H23598   6.503   6.393   2.532  1.1057  2.2185  0.0650
  179MOL0     H23599   6.555   6.478   2.676 -0.6030  0.1927  0.0988
  179MOL0     H23600   6.398   6.217   2.697 -1.6387  0.5939 -1.7600
  179MOL0     H23601   6.440   6.348   2.816 -1.5407 -0.8103  0.4588
  179MOL0     H23602   6.240   6.335   2.584 -0.1926  0.5777 -0.2586
  179MOL0     H23603   6.318   6.493   2.635  0.1059  1.0110  1.4353
  179MOL0     H23604   6.123   6.305   2.773 -2.5289  1.7204 -0.5725
  179MOL0     H23605   6.104   6.466   2.738 -0.1308  0.2645  1.5590
  179MOL0     H23606   6.255   6.360   2.968 -0.6919 -0.3021 -0.1687
  179MOL0     H23607   6.305   6.520   2.927 -2.3027  2.5438  2.6716
  179MOL0     H23608   6.061   6.574   2.911 -0.8733  0.1677  0.4213
  179MOL0     H23609   6.132   6.537   3.076  1.6284 -1.7601  0.5034
  179MOL0     H23610   7.095   6.113   2.468 -0.4913 -0.2495  1.6005
  179MOL0     H23611   7.312   6.181   2.454 -1.2791 -1.4333  0.0639
  179MOL0     H23612   7.522   6.652   2.414 -0.6885 -0.3192 -3.0209
  179MOL0     H23613   7.713   6.805   2.374  0.1664  0.6781  0.1505
  179MOL0     H23614   9.147   7.337   2.644  1.8564 -1.1692  0.0762
  179MOL0     H23615   9.370   7.311   2.595  0.9084  0.5378 -1.6533
  179MOL0     H23616   9.795   7.586   2.535  0.4354 -0.3332  0.8978
  179MOL0     H23617  10.036   7.613   2.485 -3.4052  2.4246 -2.4662
  179MOL0     H23618  10.208   7.423   2.143 -0.5064 -3.2270 -1.0789
  179MOL0     H23619  10.273   7.298   2.248  0.4686  0.2519 -2.7559
  179MOL0     H23620  10.365   7.582   2.205  1.4664 -0.2404 -2.1312
  179MOL0     H23621  10.411   7.466   2.346 -2.3830 -3.5807 -0.2322
  179MOL0     H23622  10.466   7.428   2.044 -2.7100 -1.3420  0.8869
  179MOL0     H23623  10.510   7.320   2.167 -0.7527 -0.5604  0.0067
  179MOL0     H23624  10.665   7.486   2.273 -1.7548  1.2637  1.3180
  179MOL0     H23625  10.697   7.425   2.111  1.3557 -0.9545  2.1532
  179MOL0     H23626  10.629   7.841   2.050 -0.8237  1.1153 -0.0692
  179MOL0     H23627  10.034   7.272   2.243 -0.4735  1.5485 -1.9919
  179MOL0     H23628   9.785   7.246   2.288 -0.0082  0.0874  0.5063
  180MOL0     O23629   9.640   1.633   3.500  0.5091  0.6246 -0.4395
  180MOL0     C23630   9.702   1.529   3.528  0.7680  0.1235  0.0359
  180MOL0     O23631   9.646   1.413   3.583  0.2736  0.9139 -0.1442
  180MOL0     C23632   9.510   1.423   3.603 -0.2204  0.6745  0.2498
  180MOL0     C23633   9.458   1.483   3.721  0.1425 -0.6641  0.1973
  180MOL0     C23634   9.321   1.493   3.734  0.4996  0.2773 -0.5916
  180MOL0     C23635   9.235   1.422   3.645  0.1341 -0.6581 -0.8038
  180MOL0     O23636   9.098   1.417   3.662  0.0151 -0.2844  0.0887
  180MOL0     C23637   9.032   1.412   3.790 -0.3035 -0.6580 -1.2366
  180MOL0     C23638   8.905   1.340   3.780  0.6973 -0.5159 -0.8270
  180MOL0     C23639   8.896   1.217   3.686 -0.0864  0.0436 -0.3584
  180MOL0     C23640   8.747   1.200   3.643  0.8030  0.0269  0.1194
  180MOL0     C23641   8.735   1.063   3.562  0.0635 -0.2714  0.4155
  180MOL0     C23642   8.602   1.054   3.489 -0.3160  0.2437  0.2600
  180MOL0     C23643   8.548   0.922   3.433 -0.0500  0.6107  0.6220
  180MOL0     C23644   8.506   0.827   3.537 -0.1692 -0.5066 -0.4359
  180MOL0     N23645   8.356   0.819   3.561 -0.6446 -1.0860  0.7295
  180MOL0     C23646   8.293   0.698   3.587 -0.6791  0.7825 -0.1237
  180MOL0     C23647   8.175   0.731   3.634  0.5502  0.0326 -0.5008
  180MOL0     C23648   8.078   0.624   3.676 -0.2842  0.2611 -0.1168
  180MOL0     C23649   7.996   0.563   3.564  0.3229  0.3564  0.3299
  180MOL0     C23650   7.918   0.660   3.484  1.0545  0.9040 -0.1608
  180MOL0     C23651   7.811   0.599   3.383  0.5528 -0.5733 -0.0876
  180MOL0     O23652   7.705   0.512   3.443 -1.2055  0.5887  0.5683
  180MOL0     C23653   7.603   0.460   3.361  0.2674 -0.4711 -0.5954
  180MOL0     C23654   7.517   0.355   3.415 -0.6680  0.0928 -0.6176
  180MOL0     C23655   7.420   0.298   3.328 -0.5910 -0.0648  0.0003
  180MOL0     C23656   7.392   0.344   3.192 -0.7767  0.2950 -0.4182
  180MOL0     C23657   7.284   0.294   3.105 -0.9493  0.0418 -0.0514
  180MOL0     O23658   7.194   0.211   3.173 -0.4479  0.0647 -0.5348
  180MOL0     C23659   7.080   0.164   3.109  0.1785 -0.2477  0.0128
  180MOL0     C23660   6.960   0.157   3.191  0.5941 -0.3118  0.7587
  180MOL0     C23661   6.833   0.114   3.144  0.5984 -0.1722  1.0535
  180MOL0     C23662   6.827   0.079   3.007 -0.3356 -0.6291  0.5779
  180MOL0     O23663   6.710   0.041   2.939 -0.5382  0.4304  0.1216
  180MOL0     C23664   6.590   0.104   2.981  0.5639  0.3161 -0.9941
  180MOL0     C23665   6.479   0.118   2.876 -0.3992  0.0889 -0.5529
  180MOL0     C23666   6.362   0.188   2.936  1.4447  0.3106 -0.0608
  180MOL0     C23667   6.261   0.206   2.831 -0.1072  0.1511  0.0667
  180MOL0     C23668   6.122   0.232   2.872  0.1740 -0.0542 -0.1821
  180MOL0     C23669   6.024   0.192   2.763  0.9433  0.3114  0.4166
  180MOL0     C23670   5.880   0.201   2.815 -0.2645 -0.1971  0.2811
  180MOL0     C23671   5.854   0.157   2.969 -0.4332  0.5892  0.2434
  180MOL0    Cl23672   5.682   0.133   2.980  0.1603  0.5127 -0.3326
  180MOL0     C23673   6.944   0.076   2.936  0.1194  0.1381  0.7809
  180MOL0     C23674   7.065   0.122   2.981  0.0648  0.6530  0.1836
  180MOL0     O23675   7.274   0.325   2.981 -0.3581 -0.4579 -0.5950
  180MOL0     C23676   7.477   0.441   3.143 -0.2154  0.8301 -0.0470
  180MOL0     C23677   7.577   0.497   3.227 -0.0589  0.5655 -0.4841
  180MOL0     N23678   8.157   0.869   3.621 -0.2212 -0.5323  0.1419
  180MOL0     N23679   8.267   0.916   3.561  0.4906 -0.2505 -0.7103
  180MOL0     C23680   9.286   1.356   3.530 -0.1541 -0.1304 -0.5234
  180MOL0     C23681   9.425   1.362   3.512  0.5118 -0.5685  0.3779
  180MOL0     C23682   9.848   1.529   3.504  0.5137 -0.1948  0.3479
  180MOL0     C23683   9.912   1.635   3.439  0.3466 -0.4692 -0.2698
  180MOL0     C23684  10.054   1.644   3.441  0.3106 -0.6238  0.4444
  180MOL0     C23685  10.121   1.532   3.492 -0.1145  0.5915 -0.0679
  180MOL0     O23686  10.257   1.548   3.481  0.5392 -0.5023 -0.4495
  180MOL0     C23687  10.337   1.435   3.518  0.2858  0.4566  0.0757
  180MOL0     C23688  10.358   1.349   3.392 -0.4189 -0.2330 -0.2531
  180MOL0     C23689  10.426   1.434   3.283  0.1756  0.2247  0.3094
  180MOL0     C23690  10.457   1.350   3.151 -0.0763  1.0765  0.3994
  180MOL0     C23691  10.591   1.289   3.147  0.1908 -0.6681  0.0255
  180MOL0     C23692  10.701   1.239   3.158 -0.3346 -0.9134  1.1841
  180MOL0     C23693  10.047   1.430   3.546 -1.2954  0.6350 -0.6117
  180MOL0     C23694   9.918   1.425   3.557 -0.5922  0.2127 -0.1758
  180MOL0     H23695   9.529   1.515   3.797  0.3694 -1.8755  0.5043
  180MOL0     H23696   9.281   1.546   3.820 -0.1185  1.2713 -1.4741
  180MOL0     H23697   9.016   1.516   3.822 -0.1660 -1.2066  0.6892
  180MOL0     H23698   9.098   1.370   3.866 -0.7653  2.4825  1.1130
  180MOL0     H23699   8.830   1.413   3.746 -0.7631 -3.1234 -3.7537
  180MOL0     H23700   8.873   1.313   3.881  0.0150  1.1845 -0.5564
  180MOL0     H23701   8.929   1.132   3.746 -0.2117  1.0019  1.1141
  180MOL0     H23702   8.953   1.240   3.596  1.5626 -3.2631 -0.3014
  180MOL0     H23703   8.670   1.199   3.720  1.3985 -1.3408  0.7199
  180MOL0     H23704   8.716   1.286   3.583  1.1373 -0.6984 -1.1489
  180MOL0     H23705   8.740   0.977   3.629 -1.7313  0.3553  1.4139
  180MOL0     H23706   8.816   1.050   3.490 -1.1504  0.9516 -1.2413
  180MOL0     H23707   8.605   1.126   3.406  2.1261  0.2464  0.2761
  180MOL0     H23708   8.524   1.098   3.551  0.1165  1.4974 -0.0541
  180MOL0     H23709   8.465   0.948   3.366  0.3822  2.7487  0.8310
  180MOL0     H23710   8.622   0.872   3.369 -0.0168  0.5680  0.6930
  180MOL0     H23711   8.558   0.854   3.630 -0.9560  1.1034 -0.4184
  180MOL0     H23712   8.533   0.727   3.502  0.0093 -0.6844  0.1865
  180MOL0     H23713   8.345   0.603   3.579 -1.3397  0.2056  1.8281
  180MOL0     H23714   8.002   0.666   3.743  0.6156 -0.1282  1.2011
  180MOL0     H23715   8.144   0.547   3.718  2.1302  0.5609 -3.0051
  180MOL0     H23716   7.921   0.502   3.614  0.3312  1.5251  1.8498
  180MOL0     H23717   8.063   0.501   3.503 -0.8369 -3.1403  2.3004
  180MOL0     H23718   7.864   0.726   3.551 -0.0890 -0.9735  0.8481
  180MOL0     H23719   7.982   0.721   3.419  1.5332  0.8930  0.2951
  180MOL0     H23720   7.873   0.546   3.309  3.9155 -0.2041  2.2093
  180MOL0     H23721   7.761   0.682   3.333 -1.9158 -0.1713  2.8218
  180MOL0     H23722   7.534   0.312   3.513  1.5502  0.2901 -0.8470
  180MOL0     H23723   7.369   0.209   3.363  0.3535 -1.0110 -0.9874
  180MOL0     H23724   6.965   0.195   3.292 -1.4071  0.8630  0.4636
  180MOL0     H23725   6.744   0.115   3.207 -0.6444 -1.1651 -0.6111
  180MOL0     H23726   6.612   0.208   3.007  1.2773  0.0446 -0.4637
  180MOL0     H23727   6.552   0.049   3.067 -2.1237  0.1249 -2.1961
  180MOL0     H23728   6.457   0.017   2.840  2.4363 -0.9802  0.4284
  180MOL0     H23729   6.515   0.167   2.785  1.2854 -1.7506 -0.9248
  180MOL0     H23730   6.391   0.290   2.964  1.4470 -0.1367  1.7257
  180MOL0     H23731   6.322   0.138   3.025 -0.5740  1.2429 -0.3838
  180MOL0     H23732   6.296   0.284   2.762 -1.1714  1.4401  0.9356
  180MOL0     H23733   6.264   0.115   2.770 -0.4373  0.9753 -1.2309
  180MOL0     H23734   6.099   0.338   2.889 -2.1491 -0.5095 -0.1032
  180MOL0     H23735   6.108   0.172   2.962  0.2968 -1.4464 -1.0666
  180MOL0     H23736   6.039   0.091   2.724 -2.7438  0.5818 -2.3126
  180MOL0     H23737   6.042   0.258   2.677  1.4109 -0.9555 -0.4922
  180MOL0     H23738   5.850   0.306   2.803  0.7736  0.0730 -0.1155
  180MOL0     H23739   5.817   0.136   2.753 -1.2973  2.4894 -1.6713
  180MOL0     H23740   5.892   0.228   3.043  0.2143  0.3340  0.1572
  180MOL0     H23741   5.905   0.063   2.990  0.1169  0.6541 -0.7432
  180MOL0     H23742   6.946   0.061   2.829 -1.4626  2.8195  0.2677
  180MOL0     H23743   7.158   0.124   2.926  1.4066  1.9002  2.3226
  180MOL0     H23744   7.471   0.462   3.037  2.5150  1.7418 -0.1092
  180MOL0     H23745   7.637   0.580   3.191  2.4713 -1.0544 -0.1799
  180MOL0     H23746   9.207   1.312   3.470 -3.5868  2.1559  1.9255
  180MOL0     H23747   9.460   1.309   3.424  2.0565 -1.6153  1.5869
  180MOL0     H23748   9.853   1.719   3.404 -2.0446 -1.0344  2.0328
  180MOL0     H23749  10.103   1.726   3.389  0.6310  0.2148  2.0014
  180MOL0     H23750  10.292   1.370   3.594 -2.2683  0.6176 -1.1989
  180MOL0     H23751  10.436   1.467   3.553  0.0566  2.4160 -0.9385
  180MOL0     H23752  10.431   1.276   3.429  1.1104  2.7686  3.3193
  180MOL0     H23753  10.263   1.305   3.361 -0.3352 -0.4856 -0.1539
  180MOL0     H23754  10.513   1.489   3.321 -1.0708  1.5606  1.3291
  180MOL0     H23755  10.348   1.506   3.257 -2.6267 -2.2328  1.4048
  180MOL0     H23756  10.393   1.262   3.145  0.3125  0.8626 -0.9695
  180MOL0     H23757  10.443   1.417   3.065  0.5258  0.9067  0.1614
  180MOL0     H23758  10.793   1.188   3.178  1.2118  0.3584 -2.0189
  180MOL0     H23759  10.098   1.346   3.592  0.7016  2.9739  1.7933
  180MOL0     H23760   9.873   1.355   3.627  0.2506  1.6753  1.9056
  181MOL0     O23761   8.092  10.135  10.920 -0.3069 -0.4298 -0.4422
  181MOL0     C23762   8.133  10.238  10.866 -0.1555  0.3805  0.1314
  181MOL0     O23763   8.062  10.322  10.790  0.1358 -0.0059  0.7892
  181MOL0     C23764   7.927  10.308  10.770  0.0300  0.2976  0.4731
  181MOL0     C23765   7.831  10.279  10.869  0.5026 -0.6469 -0.2580
  181MOL0     C23766   7.691  10.264  10.840  0.3787  0.6121 -0.0933
  181MOL0     C23767   7.651  10.274  10.705  0.1166  0.2616 -0.2569
  181MOL0     O23768   7.520  10.271  10.658  0.2314  0.2320 -0.4596
  181MOL0     C23769   7.413  10.243  10.747  0.7918  0.7093 -0.0852
  181MOL0     C23770   7.280  10.256  10.675  0.2177 -0.3043  0.4981
  181MOL0     C23771   7.163  10.204  10.748  0.4247  0.4697  0.0556
  181MOL0     C23772   7.174  10.054  10.772  0.0623 -0.7606 -0.7840
  181MOL0     C23773   7.038  10.005  10.828  0.0756  1.1324  0.1894
  181MOL0     C23774   6.937   9.967  10.718 -0.0035 -0.5131  0.0670
  181MOL0     C23775   6.792   9.946  10.762  0.2561 -0.0555 -0.5023
  181MOL0     C23776   6.701   9.933  10.637  0.0851  0.0488 -0.1394
  181MOL0     N23777   6.552   9.905  10.671 -0.7529 -0.1166  0.6333
  181MOL0     C23778   6.440   9.926  10.585 -0.5950  0.1016  0.6743
  181MOL0     C23779   6.328   9.886  10.654  0.1727  0.0588 -0.7199
  181MOL0     C23780   6.187   9.880  10.609  0.3577  0.4515  1.2822
  181MOL0     C23781   6.167   9.894  10.457 -0.8286 -0.3054 -0.1807
  181MOL0     C23782   6.038   9.828  10.397  0.2381  0.1007 -0.1456
  181MOL0     C23783   6.028   9.836  10.248 -0.4924 -0.1985  0.5205
  181MOL0     O23784   5.906   9.909  10.226 -0.1549 -0.2166  0.1834
  181MOL0     C23785   5.828   9.900  10.115  0.3401  0.1724  1.4392
  181MOL0     C23786   5.698   9.943  10.114  0.2324 -0.1621  0.4232
  181MOL0     C23787   5.611   9.923  10.004 -0.2319  0.1324 -0.3938
  181MOL0     C23788   5.661   9.857   9.891  0.1826  0.3538 -0.9023
  181MOL0     C23789   5.574   9.821   9.785 -0.1972 -0.9755  0.4119
  181MOL0     O23790   5.449   9.874   9.786 -0.5825  0.1895  0.1802
  181MOL0     C23791   5.370   9.869   9.673  0.2999 -0.8595  0.5588
  181MOL0     C23792   5.408   9.868   9.532  0.6967 -0.2128  0.0082
  181MOL0     C23793   5.307   9.851   9.437  0.7378  0.1634 -0.1170
  181MOL0     C23794   5.170   9.834   9.470 -0.9226 -0.4028  0.1310
  181MOL0     O23795   5.084   9.825   9.367 -0.4056  0.6494  0.9859
  181MOL0     C23796   4.949   9.846   9.390 -0.2667  1.1896  0.6864
  181MOL0     C23797   4.871   9.862   9.264  0.0380  0.1458  0.3982
  181MOL0     C23798   4.722   9.902   9.281 -0.4515  0.1204  0.5680
  181MOL0     C23799   4.691  10.044   9.341 -0.0493  0.1392 -1.4694
  181MOL0     C23800   4.600  10.030   9.463  0.2770  0.1427 -0.2981
  181MOL0     C23801   4.459   9.985   9.419 -0.1031 -0.7233  0.3521
  181MOL0     C23802   4.375   9.948   9.541  0.6399  0.3151  0.3219
  181MOL0     C23803   4.236   9.906   9.497 -0.5049  0.0047 -0.3228
  181MOL0    Cl23804   4.236   9.764   9.384 -0.0051 -0.3668 -0.3831
  181MOL0     C23805   5.142   9.834   9.606  0.5901 -0.5711 -0.3930
  181MOL0     C23806   5.240   9.848   9.702  0.9473 -0.1149  0.0843
  181MOL0     O23807   5.620   9.738   9.701 -0.1630  0.0949 -0.1939
  181MOL0     C23808   5.798   9.825   9.887 -0.7778  0.8573 -0.1746
  181MOL0     C23809   5.881   9.844   9.994  0.4120  0.3650  0.0930
  181MOL0     N23810   6.372   9.825  10.774 -0.3492 -0.5401 -0.3379
  181MOL0     N23811   6.502   9.833  10.772 -0.3043  0.2087  0.0520
  181MOL0     C23812   7.745  10.311  10.610 -0.3827 -0.4190 -0.2714
  181MOL0     C23813   7.876  10.333  10.643 -0.5936 -0.4530 -0.9729
  181MOL0     C23814   8.276  10.273  10.860 -0.9961 -0.2313 -0.0272
  181MOL0     C23815   8.369  10.181  10.912 -0.3158 -0.5780 -0.3447
  181MOL0     C23816   8.504  10.207  10.901 -0.0621  0.4347 -0.3546
  181MOL0     C23817   8.552  10.315  10.835 -0.1672 -0.5343  0.3454
  181MOL0     O23818   8.685  10.347  10.840  0.4991 -0.3128  0.3384
  181MOL0     C23819   8.748  10.462  10.788  0.1514  0.3461  0.0218
  181MOL0     C23820   8.887  10.415  10.751  0.6377  0.0770 -0.0838
  181MOL0     C23821   8.973  10.531  10.689 -0.3672  0.7793 -1.0194
  181MOL0     C23822   8.957  10.579  10.552 -0.1886 -0.4937  1.4307
  181MOL0     C23823   8.823  10.640  10.533  0.2719  0.3746  0.1421
  181MOL0     C23824   8.717  10.699  10.510  0.4145  0.9963  0.2299
  181MOL0     C23825   8.465  10.399  10.768 -0.1922  0.1987 -0.4106
  181MOL0     C23826   8.324  10.385  10.789  0.2599 -0.6070 -0.1306
  181MOL0     H23827   7.872  10.269  10.969 -1.7819  0.9354  0.9289
  181MOL0     H23828   7.623  10.233  10.919 -1.4169 -0.4383 -1.9579
  181MOL0     H23829   7.417  10.320  10.825 -0.3615  0.5963  0.1165
  181MOL0     H23830   7.432  10.143  10.789 -1.4529 -0.1905 -1.0458
  181MOL0     H23831   7.284  10.197  10.583  0.6568  0.8011 -0.2104
  181MOL0     H23832   7.268  10.362  10.651 -1.1235 -0.8818 -1.6366
  181MOL0     H23833   7.081  10.234  10.682  1.1759 -0.2963 -1.2506
  181MOL0     H23834   7.149  10.267  10.837 -3.8551  0.9309 -0.7537
  181MOL0     H23835   7.196   9.992  10.685  0.6553  1.9045 -2.6581
  181MOL0     H23836   7.247  10.030  10.849 -0.3065 -1.7715 -0.7281
  181MOL0     H23837   6.997  10.085  10.890  0.4051  0.9239  0.6854
  181MOL0     H23838   7.061   9.919  10.891  2.6382  1.0069 -0.8191
  181MOL0     H23839   6.981   9.878  10.671  3.9415  0.7817  0.9541
  181MOL0     H23840   6.944  10.054  10.653 -0.4314 -0.6301 -0.1421
  181MOL0     H23841   6.792   9.857  10.826 -1.4333 -0.5954 -1.2051
  181MOL0     H23842   6.744  10.026  10.820 -0.5151  1.9299 -3.6377
  181MOL0     H23843   6.733   9.851  10.572  0.3822 -0.3239  0.4663
  181MOL0     H23844   6.720  10.028  10.587  0.5096 -0.7380 -1.5245
  181MOL0     H23845   6.443   9.977  10.489  0.4790 -1.7638 -0.3298
  181MOL0     H23846   6.134   9.958  10.665  1.4327  0.4286  2.3616
  181MOL0     H23847   6.142   9.784  10.635  1.0472 -0.1459  0.3520
  181MOL0     H23848   6.255   9.867  10.397 -0.9945  0.7014 -0.9136
  181MOL0     H23849   6.150  10.001  10.444 -0.1713 -0.5311 -4.1612
  181MOL0     H23850   6.050   9.723  10.427 -0.2584 -0.7249 -2.6560
  181MOL0     H23851   5.950   9.867  10.449 -0.7667 -0.7599 -1.1369
  181MOL0     H23852   6.031   9.732  10.212  0.2372  0.5461 -1.7062
  181MOL0     H23853   6.105   9.894  10.197 -1.6321  1.5764  0.7291
  181MOL0     H23854   5.660   9.986  10.206  1.0647  0.5436  0.4483
  181MOL0     H23855   5.507   9.948  10.025  0.3076  0.1000  2.9310
  181MOL0     H23856   5.512   9.857   9.503  0.7557 -0.3717  0.2763
  181MOL0     H23857   5.331   9.825   9.334  1.4331 -3.6587  0.8394
  181MOL0     H23858   4.939   9.937   9.451  2.6465  1.5623  0.7943
  181MOL0     H23859   4.914   9.764   9.452 -1.4948  0.4436 -0.9245
  181MOL0     H23860   4.871   9.762   9.218  4.0235  2.0454 -4.7083
  181MOL0     H23861   4.918   9.932   9.195  0.1336 -0.4221 -0.1144
  181MOL0     H23862   4.674   9.831   9.350 -0.7270  1.1627  1.4870
  181MOL0     H23863   4.670   9.898   9.185  0.1352  1.2514  0.1868
  181MOL0     H23864   4.786  10.084   9.377 -1.5529  3.4108 -0.7834
  181MOL0     H23865   4.648  10.111   9.267  1.9747  0.1531 -2.6871
  181MOL0     H23866   4.603  10.127   9.514  1.2229 -0.1917  0.3210
  181MOL0     H23867   4.643   9.952   9.527 -1.2627 -1.7945 -1.5024
  181MOL0     H23868   4.477   9.899   9.354 -0.2592 -0.7205  0.3041
  181MOL0     H23869   4.402  10.066   9.373  1.5032  0.1044 -0.2910
  181MOL0     H23870   4.411   9.858   9.593  2.3688  1.6755  1.5986
  181MOL0     H23871   4.382  10.025   9.618 -2.4014  1.8056 -0.7538
  181MOL0     H23872   4.184   9.990   9.451 -0.7359  0.0191 -0.0403
  181MOL0     H23873   4.183   9.883   9.591 -1.0512  0.6257 -0.4761
  181MOL0     H23874   5.046   9.795   9.637  0.9302 -2.2940 -1.3888
  181MOL0     H23875   5.208   9.842   9.806  0.2421 -1.7194 -0.1943
  181MOL0     H23876   5.831   9.775   9.796 -1.3717 -0.1302  0.1355
  181MOL0     H23877   5.984   9.811   9.980  0.2473 -0.2795  0.3765
  181MOL0     H23878   7.719  10.346  10.510  1.8496 -0.3129 -0.8681
  181MOL0     H23879   7.949  10.374  10.575 -0.4527 -0.5305 -0.8668
  181MOL0     H23880   8.339  10.089  10.962 -1.1303  1.3227  2.9635
  181MOL0     H23881   8.570  10.136  10.949  2.1663  1.6331 -1.4704
  181MOL0     H23882   8.759  10.542  10.862  1.8518 -1.0334  1.3736
  181MOL0     H23883   8.694  10.501  10.702  0.2593  0.3593 -0.0402
  181MOL0     H23884   8.940  10.375  10.838  1.3910 -1.7859 -1.3417
  181MOL0     H23885   8.883  10.336  10.675  1.7671 -0.7446  0.6762
  181MOL0     H23886   9.076  10.501  10.708 -1.3489 -1.8832  0.7376
  181MOL0     H23887   8.960  10.627  10.740  1.0057 -1.1205  3.3918
  181MOL0     H23888   9.035  10.654  10.540 -0.7360  0.0735  1.4014
  181MOL0     H23889   8.968  10.487  10.493  0.8531 -0.4877  1.6016
  181MOL0     H23890   8.624  10.746  10.483 -0.8822 -2.2337 -1.4191
  181MOL0     H23891   8.503  10.491  10.726 -1.1120  0.3143 -1.0131
  181MOL0     H23892   8.260  10.460  10.745  1.9693 -1.0828 -3.8129
  182MOL0     O23893   9.625  10.010   6.247  0.6942  1.4646  1.1402
  182MOL0     C23894   9.700   9.967   6.333 -0.3932  0.2935  0.1763
  182MOL0     O23895   9.671   9.896   6.448  0.3820 -0.7995 -0.5677
  182MOL0     C23896   9.534   9.868   6.470 -0.5130  0.8775  0.0118
  182MOL0     C23897   9.432   9.962   6.464 -0.4711 -0.3452  0.3819
  182MOL0     C23898   9.297   9.931   6.501 -0.5468  0.9493  0.6700
  182MOL0     C23899   9.264   9.799   6.532 -0.9282  0.5632  0.3496
  182MOL0     O23900   9.138   9.764   6.572  0.8331  0.8452  0.4966
  182MOL0     C23901   9.030   9.857   6.525 -1.3159 -0.6935  0.8242
  182MOL0     C23902   8.895   9.805   6.558 -0.8435 -0.5603  0.7766
  182MOL0     C23903   8.866   9.659   6.493 -0.0549  0.2187 -0.2751
  182MOL0     C23904   8.866   9.646   6.341  0.0186 -0.5457 -0.2233
  182MOL0     C23905   8.861   9.506   6.290 -0.1945 -0.8174 -0.3362
  182MOL0     C23906   8.722   9.460   6.273  0.7296 -0.6543  0.1187
  182MOL0     C23907   8.651   9.405   6.395 -0.1339  0.1045 -0.6181
  182MOL0     C23908   8.517   9.337   6.380 -0.2470  0.5607 -0.2029
  182MOL0     N23909   8.441   9.312   6.504 -0.0606 -0.3616 -0.3251
  182MOL0     C23910   8.482   9.341   6.641  0.4031  0.3410  1.1492
  182MOL0     C23911   8.386   9.294   6.714 -0.2616 -0.8547 -0.0658
  182MOL0     C23912   8.368   9.285   6.863  0.3847  0.2360 -0.6786
  182MOL0     C23913   8.470   9.186   6.928  0.5418 -0.0611 -0.5618
  182MOL0     C23914   8.426   9.043   6.909 -0.0176  0.0770 -1.0952
  182MOL0     C23915   8.286   9.004   6.953 -0.1461  0.5134  0.2413
  182MOL0     O23916   8.286   8.867   6.981  0.4446  0.2300 -0.3855
  182MOL0     C23917   8.161   8.811   6.945 -0.2424 -0.2883  0.2698
  182MOL0     C23918   8.167   8.700   6.861 -0.9385  0.4964  0.6411
  182MOL0     C23919   8.054   8.636   6.816  0.6971 -0.4217 -0.4607
  182MOL0     C23920   7.931   8.674   6.869 -0.8185  0.1633  0.5339
  182MOL0     C23921   7.806   8.602   6.841 -0.5220 -0.3631  0.1514
  182MOL0     O23922   7.697   8.639   6.914 -0.1812  0.0163 -0.6516
  182MOL0     C23923   7.569   8.593   6.885 -0.1296 -0.4155  0.7735
  182MOL0     C23924   7.521   8.553   6.756 -0.0073  0.3403 -0.5390
  182MOL0     C23925   7.395   8.489   6.747 -0.5896 -0.0297  0.2396
  182MOL0     C23926   7.316   8.460   6.856  0.6904 -0.8167  0.5278
  182MOL0     O23927   7.194   8.413   6.850  0.4692  0.6932 -0.3367
  182MOL0     C23928   7.167   8.292   6.922  0.6147 -0.0867  0.6852
  182MOL0     C23929   7.051   8.205   6.859  0.1303  0.5796 -0.4986
  182MOL0     C23930   7.015   8.097   6.955 -0.8650  0.4676  0.1557
  182MOL0     C23931   6.888   8.011   6.922  0.2608 -0.0485  0.1723
  182MOL0     C23932   6.827   7.922   7.038 -0.0592 -0.4687  0.1933
  182MOL0     C23933   6.683   7.886   7.013  0.7870  0.2275 -0.3811
  182MOL0     C23934   6.641   7.767   7.092 -0.2423  0.6889 -0.3602
  182MOL0     C23935   6.512   7.707   7.043 -0.5254 -0.7775 -0.3043
  182MOL0    Cl23936   6.481   7.564   7.134 -0.1926  0.1303 -0.5172
  182MOL0     C23937   7.367   8.510   6.979  0.1973  0.4904 -0.3624
  182MOL0     C23938   7.488   8.577   6.996  0.2249 -0.7584  0.6886
  182MOL0     O23939   7.809   8.507   6.766  0.6241  0.0696  0.4427
  182MOL0     C23940   7.925   8.780   6.964 -0.2814  0.5855 -0.3168
  182MOL0     C23941   8.044   8.845   6.999  0.2064 -0.2970 -0.7473
  182MOL0     N23942   8.286   9.255   6.631  0.2127  0.2668  0.6825
  182MOL0     N23943   8.318   9.262   6.509  0.1392 -0.2179  0.9542
  182MOL0     C23944   9.364   9.700   6.532  0.1563  0.1846 -0.2032
  182MOL0     C23945   9.499   9.741   6.514  0.4326  0.1435 -0.8488
  182MOL0     C23946   9.838   9.997   6.297  0.0984  0.4101 -0.8477
  182MOL0     C23947   9.878  10.067   6.172  0.0945  0.6101 -0.9512
  182MOL0     C23948  10.015  10.083   6.138 -0.3446 -0.1019  0.3814
  182MOL0     C23949  10.119  10.035   6.222 -0.6083 -0.0398  0.6730
  182MOL0     O23950  10.254  10.053   6.199  0.1113  0.6245  1.0944
  182MOL0     C23951  10.303  10.095   6.066 -0.2664  0.6770 -0.0190
  182MOL0     C23952  10.450  10.156   6.081  0.0482  0.8854  0.6576
  182MOL0     C23953  10.555  10.038   6.071 -0.9476 -0.7016 -0.3506
  182MOL0     C23954  10.697  10.101   6.065  0.2644 -0.1873  0.5194
  182MOL0     C23955  10.751  10.150   6.190 -0.9010 -0.2493  0.1114
  182MOL0     C23956  10.822  10.185   6.289 -0.1192 -0.2170  0.1665
  182MOL0     C23957  10.081   9.971   6.338  0.8259 -0.0726 -0.1165
  182MOL0     C23958   9.949   9.949   6.373  0.4293 -0.0745 -0.2589
  182MOL0     H23959   9.448  10.069   6.456  0.3536 -0.4009  1.0961
  182MOL0     H23960   9.225  10.011   6.515 -0.2335  1.2151  0.7909
  182MOL0     H23961   9.045   9.894   6.423  0.4150  2.0752  1.9629
  182MOL0     H23962   9.039   9.947   6.586  0.1593  0.6162 -1.1637
  182MOL0     H23963   8.823   9.886   6.538 -0.4050  0.7011  3.8634
  182MOL0     H23964   8.893   9.796   6.667  1.8274  2.6751  1.2605
  182MOL0     H23965   8.770   9.610   6.516  0.9189 -2.7360 -1.9257
  182MOL0     H23966   8.944   9.588   6.525 -0.4134  0.1883  0.5812
  182MOL0     H23967   8.791   9.711   6.294  0.8623  0.9395  0.4085
  182MOL0     H23968   8.963   9.687   6.309 -0.7136  1.1953 -0.3196
  182MOL0     H23969   8.908   9.438   6.361 -2.1917 -1.4679  0.4164
  182MOL0     H23970   8.912   9.499   6.193 -1.7796 -1.5437 -1.1609
  182MOL0     H23971   8.727   9.386   6.193  0.4034 -0.6735  0.1140
  182MOL0     H23972   8.672   9.549   6.235  2.6941  1.9509  3.0501
  182MOL0     H23973   8.718   9.330   6.437 -1.9278 -1.5915 -0.6642
  182MOL0     H23974   8.624   9.486   6.463 -1.2834 -2.1634  1.7538
  182MOL0     H23975   8.531   9.245   6.321 -0.1104 -0.3217  1.1535
  182MOL0     H23976   8.458   9.401   6.314  0.1446  0.2156 -0.9028
  182MOL0     H23977   8.579   9.383   6.668 -0.2341  2.5602  0.1649
  182MOL0     H23978   8.268   9.252   6.893  0.6263 -1.6316 -1.7413
  182MOL0     H23979   8.386   9.386   6.900  0.1837 -0.8121  2.6147
  182MOL0     H23980   8.478   9.208   7.035  3.0750 -2.0025 -0.2458
  182MOL0     H23981   8.570   9.202   6.887  1.2980 -0.4335  1.0432
  182MOL0     H23982   8.430   9.016   6.803 -0.9229  0.3898 -1.2165
  182MOL0     H23983   8.499   8.985   6.966  1.4267  2.2910 -0.6003
  182MOL0     H23984   8.218   9.028   6.871  2.9413  0.7499 -2.4413
  182MOL0     H23985   8.251   9.061   7.039 -3.0743  0.2020 -0.6459
  182MOL0     H23986   8.263   8.675   6.818 -0.2815  2.7348  0.7305
  182MOL0     H23987   8.073   8.552   6.750  1.5706 -0.8815  0.3563
  182MOL0     H23988   7.584   8.579   6.671  2.0194 -0.3520  0.6712
  182MOL0     H23989   7.356   8.472   6.647 -0.2088 -1.8371  0.3658
  182MOL0     H23990   7.156   8.300   7.031 -0.4659 -0.8125  0.6365
  182MOL0     H23991   7.252   8.224   6.909  1.1293  0.9708 -2.2526
  182MOL0     H23992   7.098   8.160   6.771  0.6548  0.0586  0.0407
  182MOL0     H23993   6.964   8.266   6.831  0.6095  0.9516 -1.2137
  182MOL0     H23994   7.005   8.135   7.057  0.8104 -3.0721  1.8234
  182MOL0     H23995   7.102   8.033   6.973  0.9710  2.6205 -0.6038
  182MOL0     H23996   6.808   8.079   6.894  0.1439 -0.9501 -1.8669
  182MOL0     H23997   6.899   7.944   6.836 -0.0380  0.6626 -0.4268
  182MOL0     H23998   6.827   7.980   7.130  1.0403 -0.4542  0.1939
  182MOL0     H23999   6.884   7.830   7.055 -1.3497 -2.0762 -3.2664
  182MOL0     H24000   6.673   7.876   6.905 -0.7497  1.3329 -0.3766
  182MOL0     H24001   6.616   7.972   7.026  2.9244  2.1520 -1.5567
  182MOL0     H24002   6.712   7.684   7.093  1.2467  1.9294  0.0748
  182MOL0     H24003   6.633   7.803   7.195 -1.5773 -2.9699  1.0160
  182MOL0     H24004   6.541   7.678   6.941 -0.7427  0.9282 -0.8843
  182MOL0     H24005   6.431   7.781   7.047 -0.8938 -1.1199 -1.1048
  182MOL0     H24006   7.301   8.503   7.065  1.4632 -0.5244  0.5804
  182MOL0     H24007   7.507   8.616   7.096  1.4040 -1.8925  0.9438
  182MOL0     H24008   7.831   8.812   7.007 -2.5793 -2.3532 -2.6622
  182MOL0     H24009   8.041   8.925   7.073  0.5328 -1.3891  0.4797
  182MOL0     H24010   9.333   9.600   6.562  1.4558  0.2400  1.5226
  182MOL0     H24011   9.573   9.663   6.527  0.1053  0.0940  1.1132
  182MOL0     H24012   9.802  10.107   6.105 -1.7238 -0.3026  0.4734
  182MOL0     H24013  10.026  10.135   6.043  1.6576  1.2509  1.2778
  182MOL0     H24014  10.233  10.168   6.025 -1.8501 -1.8768 -2.1811
  182MOL0     H24015  10.300  10.014   5.992  2.1070  0.2338  0.2827
  182MOL0     H24016  10.461  10.220   5.992 -2.3749 -1.2311 -1.3259
  182MOL0     H24017  10.462  10.212   6.174  0.2996  0.3732  0.9365
  182MOL0     H24018  10.539   9.986   5.975 -1.7826 -0.3637 -0.4018
  182MOL0     H24019  10.544   9.979   6.162  0.5812  2.5105  2.0846
  182MOL0     H24020  10.755  10.012   6.039 -1.6792 -1.2100 -0.6172
  182MOL0     H24021  10.687  10.178   5.987 -0.0565  1.0019  1.6884
  182MOL0     H24022  10.876  10.214   6.377 -0.9884  2.8074 -0.1772
  182MOL0     H24023  10.151   9.939   6.414  2.9983  0.1840 -1.9091
  182MOL0     H24024   9.921   9.905   6.468  1.2841 -0.1357 -0.0328
  183MOL0     O24025   3.333   6.782   4.715 -0.0564 -0.4518  0.1487
  183MOL0     C24026   3.435   6.747   4.773  0.0282 -0.0620  0.5340
  183MOL0     O24027   3.443   6.658   4.871 -0.7866 -0.2850  0.3534
  183MOL0     C24028   3.324   6.602   4.912 -0.3139 -0.3926  0.5953
  183MOL0     C24029   3.255   6.510   4.830  0.2634 -0.3015  0.9458
  183MOL0     C24030   3.137   6.458   4.871  0.6259 -0.2598  0.1895
  183MOL0     C24031   3.080   6.483   4.992 -0.6771  0.0724  1.5123
  183MOL0     O24032   2.970   6.407   5.024 -0.4128 -0.1595 -0.0750
  183MOL0     C24033   2.860   6.498   5.048 -0.1867 -0.1514  0.6257
  183MOL0     C24034   2.762   6.423   5.124 -0.5756 -0.0223  0.2292
  183MOL0     C24035   2.805   6.422   5.277 -0.2261  0.5738  0.2721
  183MOL0     C24036   2.701   6.334   5.355 -0.0394  0.8479 -0.4602
  183MOL0     C24037   2.703   6.364   5.508 -0.3688 -0.1643  0.1673
  183MOL0     C24038   2.775   6.264   5.602 -0.6731  0.5640 -0.6335
  183MOL0     C24039   2.715   6.235   5.745 -0.7656 -0.5019  0.0486
  183MOL0     C24040   2.726   6.355   5.841  0.6195 -0.6353  0.2536
  183MOL0     N24041   2.660   6.339   5.977 -0.4357  0.1064  0.3530
  183MOL0     C24042   2.671   6.231   6.066  0.6417  0.1193  0.2397
  183MOL0     C24043   2.611   6.277   6.178 -0.0644  0.4429 -0.4504
  183MOL0     C24044   2.590   6.214   6.316 -0.9107 -0.1810 -0.2484
  183MOL0     C24045   2.703   6.110   6.337  0.1385 -1.0433 -0.6382
  183MOL0     C24046   2.681   6.053   6.474 -0.2856  0.2324 -1.2598
  183MOL0     C24047   2.782   5.953   6.508 -1.1083  0.3167 -0.3586
  183MOL0     O24048   2.910   6.016   6.513  0.1555  0.5649 -0.0722
  183MOL0     C24049   3.000   5.974   6.416  0.0865 -0.2934 -0.4932
  183MOL0     C24050   3.054   5.846   6.415  1.1131  0.0628  0.2702
  183MOL0     C24051   3.149   5.804   6.321 -0.4247  0.4914 -0.9945
  183MOL0     C24052   3.202   5.897   6.241 -0.5399 -0.2480 -0.1064
  183MOL0     C24053   3.316   5.875   6.158 -0.0061  0.2429  0.5505
  183MOL0     O24054   3.363   5.978   6.085 -0.0371  0.8895  0.0137
  183MOL0     C24055   3.465   5.949   5.990 -0.5557 -0.4072  0.0436
  183MOL0     C24056   3.582   6.012   6.013  0.1521  0.1340  0.1636
  183MOL0     C24057   3.696   5.993   5.931 -0.1782 -0.5445  0.2431
  183MOL0     C24058   3.680   5.926   5.811 -0.9228 -0.3151  0.1257
  183MOL0     O24059   3.782   5.905   5.725  0.4529 -0.4120 -0.2748
  183MOL0     C24060   3.779   5.961   5.592  0.2014  0.1235 -0.2365
  183MOL0     C24061   3.731   6.106   5.578 -0.6561 -0.2529  0.3953
  183MOL0     C24062   3.823   6.209   5.646 -0.2771  0.3924  0.8985
  183MOL0     C24063   3.937   6.232   5.548  0.3835 -0.2516  0.2989
  183MOL0     C24064   4.035   6.324   5.619  0.7981 -0.2245 -0.7629
  183MOL0     C24065   4.165   6.339   5.523  0.4288 -0.9116  0.1080
  183MOL0     C24066   4.258   6.446   5.580 -0.2250  0.5088 -0.3087
  183MOL0     C24067   4.361   6.488   5.481  0.1340  0.1250  0.1559
  183MOL0    Cl24068   4.440   6.358   5.411  0.3982 -0.2904 -0.1822
  183MOL0     C24069   3.557   5.861   5.797  0.8032 -0.3515 -0.6067
  183MOL0     C24070   3.449   5.865   5.886  0.1971 -0.0007 -0.0630
  183MOL0     O24071   3.366   5.762   6.157  0.8108  0.2549  0.4790
  183MOL0     C24072   3.156   6.032   6.243 -0.5279 -0.1652 -0.1370
  183MOL0     C24073   3.055   6.071   6.326  0.2789 -0.9086 -0.3694
  183MOL0     N24074   2.547   6.399   6.148  0.2999  0.7339  0.1353
  183MOL0     N24075   2.570   6.435   6.026 -0.2004 -0.1527 -0.1016
  183MOL0     C24076   3.151   6.566   5.075  0.2268 -0.6931 -0.0791
  183MOL0     C24077   3.278   6.610   5.041 -0.5254 -0.2075  0.0031
  183MOL0     C24078   3.567   6.800   4.743 -0.1456 -1.0509  0.6558
  183MOL0     C24079   3.588   6.909   4.653 -0.2400 -0.4253  0.4732
  183MOL0     C24080   3.713   6.965   4.629 -0.2178  0.2939 -0.3675
  183MOL0     C24081   3.824   6.912   4.690 -0.5187  0.1904  0.2032
  183MOL0     O24082   3.952   6.971   4.675  0.3018 -0.6397  0.4382
  183MOL0     C24083   3.977   7.059   4.565 -0.3971 -0.1669  0.3360
  183MOL0     C24084   3.951   7.014   4.416  0.3473 -0.2562 -0.4359
  183MOL0     C24085   3.911   7.124   4.313  0.0175  0.5790  0.3169
  183MOL0     C24086   3.852   7.056   4.179  0.6422 -0.8933 -0.3029
  183MOL0     C24087   3.716   7.017   4.217  0.8526 -0.4534 -1.1391
  183MOL0     C24088   3.606   6.976   4.251  0.7591 -0.2122 -0.7504
  183MOL0     C24089   3.807   6.804   4.772  0.8018  0.3031 -0.0275
  183MOL0     C24090   3.677   6.746   4.793 -1.1272 -0.1604 -0.0447
  183MOL0     H24091   3.284   6.483   4.728  1.9104 -3.2956  2.0772
  183MOL0     H24092   3.088   6.385   4.808 -3.5804 -2.7657  5.5697
  183MOL0     H24093   2.818   6.522   4.950  3.1363  0.2061 -0.8595
  183MOL0     H24094   2.886   6.585   5.109 -2.1103  1.0416 -0.1499
  183MOL0     H24095   2.775   6.321   5.087  2.7200  0.5743 -0.6363
  183MOL0     H24096   2.665   6.468   5.104 -1.4726 -1.8278  0.3628
  183MOL0     H24097   2.795   6.526   5.310 -0.0960 -0.1499  2.8305
  183MOL0     H24098   2.908   6.391   5.294  0.1637  1.9101  0.4169
  183MOL0     H24099   2.600   6.351   5.317  0.7534  2.4525 -2.0136
  183MOL0     H24100   2.720   6.226   5.355 -0.6599  0.5920  3.7589
  183MOL0     H24101   2.598   6.368   5.538  0.0230  2.3110  1.4687
  183MOL0     H24102   2.740   6.465   5.526 -1.2475  0.2806 -0.4499
  183MOL0     H24103   2.881   6.292   5.604 -0.9343  2.0456 -3.3172
  183MOL0     H24104   2.773   6.165   5.556 -0.2149 -0.0874  0.6915
  183MOL0     H24105   2.612   6.198   5.738 -0.9716 -0.3657  1.8121
  183MOL0     H24106   2.766   6.148   5.786 -1.1484 -1.3081 -1.1498
  183MOL0     H24107   2.668   6.430   5.787 -0.8749 -1.8711  0.0625
  183MOL0     H24108   2.826   6.394   5.862 -0.4228  2.3803  0.1983
  183MOL0     H24109   2.720   6.135   6.050 -1.1558 -1.2757  2.5515
  183MOL0     H24110   2.494   6.163   6.324 -1.6516  0.8949 -1.7887
  183MOL0     H24111   2.606   6.300   6.382  0.7103  0.1549 -1.0263
  183MOL0     H24112   2.788   6.178   6.324 -1.8696  1.1804 -3.4922
  183MOL0     H24113   2.706   6.031   6.262 -0.4775 -1.9041  0.2165
  183MOL0     H24114   2.701   6.126   6.552  1.3277 -2.6284  1.2221
  183MOL0     H24115   2.583   6.005   6.485 -1.1303  2.3668  1.5907
  183MOL0     H24116   2.792   5.873   6.434  1.5625  0.0424  0.2005
  183MOL0     H24117   2.747   5.903   6.599 -1.9085 -0.9777 -1.3458
  183MOL0     H24118   3.035   5.773   6.493  1.2655  0.6971  0.9064
  183MOL0     H24119   3.188   5.703   6.318  1.6335  1.2518 -1.1693
  183MOL0     H24120   3.591   6.081   6.097 -0.9164  0.3018  0.1597
  183MOL0     H24121   3.796   6.027   5.954 -0.3800 -1.5571  3.0256
  183MOL0     H24122   3.721   5.886   5.536 -3.0195  1.5571  0.9264
  183MOL0     H24123   3.881   5.953   5.553  0.9143  0.7404  1.4127
  183MOL0     H24124   3.631   6.108   5.624 -1.0836  1.4529 -0.4959
  183MOL0     H24125   3.713   6.138   5.475  0.1481 -0.4500  0.1904
  183MOL0     H24126   3.846   6.167   5.744 -1.3003 -3.9382 -0.4939
  183MOL0     H24127   3.771   6.304   5.662  0.7204  0.6145  3.0474
  183MOL0     H24128   3.988   6.139   5.524  0.1010  0.0226 -1.5206
  183MOL0     H24129   3.902   6.277   5.454  0.4662  1.5294  1.0666
  183MOL0     H24130   4.047   6.275   5.716  3.8242 -0.8617 -1.3475
  183MOL0     H24131   3.987   6.421   5.629 -0.8449 -1.0530 -0.3539
  183MOL0     H24132   4.136   6.366   5.421  3.7358  0.4807 -0.5882
  183MOL0     H24133   4.223   6.247   5.529  2.1204  0.1980  2.3842
  183MOL0     H24134   4.191   6.527   5.609  0.8171  0.7010  1.8058
  183MOL0     H24135   4.311   6.414   5.671  2.7938  0.5267 -1.9134
  183MOL0     H24136   4.440   6.537   5.538  0.4843 -0.8135  0.5071
  183MOL0     H24137   4.321   6.541   5.394  0.4007  0.0630 -0.0043
  183MOL0     H24138   3.529   5.810   5.705 -3.4279 -1.4976  1.0610
  183MOL0     H24139   3.365   5.796   5.877 -0.2457  0.4779  0.3870
  183MOL0     H24140   3.202   6.112   6.186 -0.0995  0.9785  1.7231
  183MOL0     H24141   3.033   6.177   6.321 -3.6874 -1.1773  4.0835
  183MOL0     H24142   3.109   6.584   5.173  2.5052 -0.6080  0.9539
  183MOL0     H24143   3.329   6.680   5.107  0.8437 -0.6409 -0.5590
  183MOL0     H24144   3.501   6.944   4.599 -0.2262 -2.1788 -0.7690
  183MOL0     H24145   3.716   7.050   4.561  3.3671  0.8779  0.3261
  183MOL0     H24146   4.075   7.107   4.573  1.5710 -3.3176 -2.2316
  183MOL0     H24147   3.905   7.140   4.580 -1.4470 -1.3589  2.1207
  183MOL0     H24148   4.042   6.960   4.390  1.5261  0.7737  1.3148
  183MOL0     H24149   3.866   6.947   4.426 -0.5466  1.0411  1.5868
  183MOL0     H24150   3.993   7.196   4.303  1.0808 -0.4578  1.3037
  183MOL0     H24151   3.832   7.192   4.346 -1.2756 -1.1732  1.0358
  183MOL0     H24152   3.843   7.123   4.093  1.2978 -0.7817 -0.2970
  183MOL0     H24153   3.914   6.974   4.141 -0.0851 -1.8893  0.5865
  183MOL0     H24154   3.509   6.947   4.286  1.3199  1.8595  3.0281
  183MOL0     H24155   3.885   6.759   4.832 -1.2354 -1.6844  1.2907
  183MOL0     H24156   3.680   6.658   4.857 -0.8935  1.0879  1.7570
  184MOL0     O24157   5.368   0.604   1.555 -0.1866 -0.6251 -0.0962
  184MOL0     C24158   5.478   0.554   1.572 -0.4381  0.5694 -0.5223
  184MOL0     O24159   5.510   0.478   1.672 -0.2716  0.1043 -0.2416
  184MOL0     C24160   5.400   0.443   1.753 -0.6586 -0.5914 -0.4053
  184MOL0     C24161   5.405   0.477   1.891  0.1823 -0.8759 -0.5205
  184MOL0     C24162   5.296   0.441   1.976  0.4232 -0.1519 -0.0460
  184MOL0     C24163   5.182   0.369   1.921 -0.8544  0.5700  0.0108
  184MOL0     O24164   5.073   0.342   1.989 -0.2725 -0.1236  0.0036
  184MOL0     C24165   5.050   0.385   2.126  0.8255 -1.4778  0.6204
  184MOL0     C24166   4.917   0.323   2.171 -0.3010  0.8124  0.2668
  184MOL0     C24167   4.944   0.169   2.200  0.4300  0.1833  0.0560
  184MOL0     C24168   4.805   0.110   2.219  0.0243  0.4442  0.3171
  184MOL0     C24169   4.808  -0.018   2.305 -1.0939  0.0918 -0.1632
  184MOL0     C24170   4.670  -0.076   2.307  0.1484 -0.0210  0.3724
  184MOL0     C24171   4.655  -0.182   2.417 -0.3202 -0.3910  0.5538
  184MOL0     C24172   4.613  -0.115   2.554 -0.0046 -0.1016 -0.0235
  184MOL0     N24173   4.657  -0.193   2.679  0.2233 -0.0842  0.4420
  184MOL0     C24174   4.622  -0.320   2.706  1.3371  0.2776  0.1657
  184MOL0     C24175   4.687  -0.352   2.817 -0.3038  0.9032  0.2740
  184MOL0     C24176   4.687  -0.488   2.891  0.0939  0.4690 -0.0111
  184MOL0     C24177   4.542  -0.527   2.929  0.4521  1.3063  0.5216
  184MOL0     C24178   4.480  -0.417   3.012  0.1192 -0.2802  0.6166
  184MOL0     C24179   4.361  -0.458   3.091 -0.4169 -0.3785 -0.1448
  184MOL0     O24180   4.246  -0.490   3.011  0.5951 -0.2922  0.3236
  184MOL0     C24181   4.123  -0.526   3.078 -0.4462  0.2893 -0.0125
  184MOL0     C24182   4.020  -0.569   3.002 -0.6540 -0.9862 -0.5712
  184MOL0     C24183   3.908  -0.622   3.060 -0.5587 -0.1315  0.4485
  184MOL0     C24184   3.887  -0.616   3.201  0.3939  0.1370  0.0774
  184MOL0     C24185   3.765  -0.674   3.258  0.3772  0.0092 -0.7617
  184MOL0     O24186   3.680  -0.751   3.180 -0.2153  0.0422 -0.4387
  184MOL0     C24187   3.564  -0.804   3.237  1.1551 -0.4939 -0.2069
  184MOL0     C24188   3.439  -0.800   3.179  1.0820  0.6042 -0.3100
  184MOL0     C24189   3.329  -0.869   3.240  0.0924 -0.0022  0.0944
  184MOL0     C24190   3.352  -0.936   3.359 -0.3125  0.9249  0.0335
  184MOL0     O24191   3.252  -0.991   3.431  0.0771 -0.5187 -0.9288
  184MOL0     C24192   3.132  -1.034   3.376  0.0777  0.3461 -0.7440
  184MOL0     C24193   3.161  -1.153   3.289  0.3964  0.7603  0.6859
  184MOL0     C24194   3.036  -1.209   3.237 -0.0741 -0.1586 -1.0850
  184MOL0     C24195   2.970  -1.127   3.132  0.3536  0.7804  0.3737
  184MOL0     C24196   2.856  -1.207   3.066  0.3990 -1.2875  1.1143
  184MOL0     C24197   2.744  -1.199   3.167  0.1924 -0.3711  0.1759
  184MOL0     C24198   2.626  -1.283   3.112 -0.4400  0.1932 -1.0544
  184MOL0     C24199   2.495  -1.237   3.180 -0.5883 -0.5804 -0.2919
  184MOL0    Cl24200   2.506  -1.286   3.355  0.1833  0.0904  0.2573
  184MOL0     C24201   3.475  -0.949   3.416  0.5029 -1.2280  0.4187
  184MOL0     C24202   3.575  -0.868   3.358 -0.5404  0.2735  0.1493
  184MOL0     O24203   3.752  -0.644   3.378  0.2840 -0.5015 -0.1490
  184MOL0     C24204   3.985  -0.560   3.274 -0.3026 -0.8740 -0.2925
  184MOL0     C24205   4.103  -0.512   3.212  0.3933 -0.8129 -0.5986
  184MOL0     N24206   4.770  -0.243   2.847  1.2228 -0.1470 -0.8433
  184MOL0     N24207   4.759  -0.152   2.755 -0.1986 -0.0517 -0.1797
  184MOL0     C24208   5.180   0.350   1.785  0.4283 -0.7056 -0.9465
  184MOL0     C24209   5.284   0.382   1.707 -0.6258  0.2043  0.0582
  184MOL0     C24210   5.590   0.608   1.487  0.0382  1.2679  0.4007
  184MOL0     C24211   5.721   0.560   1.513 -0.2734 -0.0321  0.5004
  184MOL0     C24212   5.828   0.619   1.452  0.0950  0.0519 -0.5818
  184MOL0     C24213   5.821   0.738   1.377  0.4078  0.6113 -1.1176
  184MOL0     O24214   5.935   0.794   1.331  0.2481  0.3666  1.1054
  184MOL0     C24215   5.931   0.859   1.198  0.5583  1.1947 -0.2763
  184MOL0     C24216   5.856   0.769   1.096 -0.4601 -0.2083  0.5174
  184MOL0     C24217   5.916   0.617   1.084 -0.1242 -0.2365  0.1453
  184MOL0     C24218   5.813   0.536   1.006 -0.7296  0.7914 -0.3844
  184MOL0     C24219   5.683   0.520   1.071  0.4531  0.6035 -0.6987
  184MOL0     C24220   5.584   0.505   1.145 -1.0686  0.5176 -0.9289
  184MOL0     C24221   5.693   0.797   1.362  0.0245 -0.6457 -0.2242
  184MOL0     C24222   5.575   0.732   1.417  0.9723  0.3407 -1.5289
  184MOL0     H24223   5.484   0.529   1.944 -1.1619  1.4057 -0.6135
  184MOL0     H24224   5.304   0.449   2.084  3.6880 -0.0897 -0.2079
  184MOL0     H24225   5.039   0.493   2.119 -2.5271 -1.7776 -0.5578
  184MOL0     H24226   5.129   0.342   2.188  2.1660 -0.7572 -0.5302
  184MOL0     H24227   4.833   0.337   2.102 -2.0508 -0.1543  2.1239
  184MOL0     H24228   4.887   0.368   2.266 -1.8758 -3.0971  1.8064
  184MOL0     H24229   5.002   0.145   2.290  0.2397 -1.9822 -0.3411
  184MOL0     H24230   4.997   0.120   2.118 -3.6782 -1.7670 -1.7015
  184MOL0     H24231   4.744   0.190   2.265 -1.0297 -0.0651 -0.1616
  184MOL0     H24232   4.764   0.088   2.120 -2.3198  1.6680  0.9181
  184MOL0     H24233   4.832   0.019   2.405 -1.0474  2.7708 -1.0787
  184MOL0     H24234   4.885  -0.085   2.268 -0.3015  0.3636  0.9369
  184MOL0     H24235   4.644  -0.131   2.215  0.1439 -1.5867  1.2693
  184MOL0     H24236   4.601   0.006   2.329 -0.8652 -0.0706 -2.2591
  184MOL0     H24237   4.575  -0.253   2.397 -0.8743 -0.4737  2.8498
  184MOL0     H24238   4.746  -0.242   2.422 -0.6343 -0.7862  3.6359
  184MOL0     H24239   4.505  -0.104   2.560 -0.2247 -0.6441 -2.1013
  184MOL0     H24240   4.658  -0.016   2.550 -0.4221  0.1391  1.0064
  184MOL0     H24241   4.546  -0.385   2.662  4.2502 -1.9745 -1.8866
  184MOL0     H24242   4.763  -0.479   2.968  0.5597  1.2286 -0.5451
  184MOL0     H24243   4.714  -0.556   2.810 -2.1778  0.4969 -0.8648
  184MOL0     H24244   4.558  -0.617   2.988 -1.5368  0.6371  0.1146
  184MOL0     H24245   4.479  -0.544   2.841 -0.4616 -2.1284  1.7100
  184MOL0     H24246   4.550  -0.368   3.080 -1.2620  1.6807  0.7176
  184MOL0     H24247   4.449  -0.337   2.945  1.0463 -1.0867 -0.8251
  184MOL0     H24248   4.331  -0.383   3.165  0.4126  2.4394 -2.4776
  184MOL0     H24249   4.381  -0.553   3.142  0.3754  0.3536  0.9357
  184MOL0     H24250   4.025  -0.570   2.893  1.8993 -1.7048 -0.5023
  184MOL0     H24251   3.837  -0.671   2.993 -0.1040 -1.0534  0.6170
  184MOL0     H24252   3.431  -0.762   3.077 -2.5790 -1.2866 -0.8601
  184MOL0     H24253   3.228  -0.880   3.203 -1.1708 -0.6375  3.3416
  184MOL0     H24254   3.077  -0.954   3.326  1.9408  2.9533  1.1232
  184MOL0     H24255   3.076  -1.072   3.462  0.5837 -1.2404 -1.0802
  184MOL0     H24256   3.221  -1.233   3.333  0.9851 -0.8082 -2.7007
  184MOL0     H24257   3.216  -1.121   3.200  1.4706 -3.5357 -0.4126
  184MOL0     H24258   2.970  -1.226   3.322  2.0937 -1.9790  0.3381
  184MOL0     H24259   3.053  -1.310   3.200  0.3043 -0.2882 -0.5595
  184MOL0     H24260   2.932  -1.032   3.171 -2.7883 -0.8126  1.5145
  184MOL0     H24261   3.046  -1.099   3.059 -0.4255  4.3385  0.7387
  184MOL0     H24262   2.892  -1.308   3.043  2.1096 -0.8582  1.7773
  184MOL0     H24263   2.821  -1.175   2.967 -0.1597 -3.0561  0.6993
  184MOL0     H24264   2.714  -1.094   3.172  0.3230 -0.3179 -0.0995
  184MOL0     H24265   2.771  -1.236   3.266 -2.0793 -0.9426  0.6378
  184MOL0     H24266   2.607  -1.249   3.010  0.9394  2.4476 -0.6219
  184MOL0     H24267   2.649  -1.390   3.109  1.0375  0.4904 -0.9650
  184MOL0     H24268   2.404  -1.278   3.136 -1.4300 -0.3942  1.2123
  184MOL0     H24269   2.485  -1.128   3.187  0.9974 -0.3984 -0.4889
  184MOL0     H24270   3.476  -0.999   3.513 -0.5318 -1.3754  0.3693
  184MOL0     H24271   3.667  -0.868   3.416 -1.5782  1.1764  1.8876
  184MOL0     H24272   3.977  -0.558   3.382 -0.8055  2.0188 -0.2916
  184MOL0     H24273   4.172  -0.464   3.281  0.9836 -2.7826  0.2625
  184MOL0     H24274   5.098   0.295   1.739  1.9420 -3.9608 -0.0313
  184MOL0     H24275   5.270   0.361   1.602  1.9301 -1.4631 -0.0250
  184MOL0     H24276   5.739   0.480   1.585 -1.1974 -3.4493 -2.7857
  184MOL0     H24277   5.928   0.585   1.475 -0.7459 -1.9165  0.3862
  184MOL0     H24278   6.027   0.880   1.151  0.2800 -0.0763 -1.4750
  184MOL0     H24279   5.879   0.955   1.208  0.1946  0.7629  4.6793
  184MOL0     H24280   5.748   0.758   1.108 -0.9544  0.1505 -2.6807
  184MOL0     H24281   5.863   0.810   0.995 -0.8319 -2.3926 -0.4621
  184MOL0     H24282   5.930   0.573   1.183  3.3295  1.6574  0.6578
  184MOL0     H24283   6.013   0.620   1.035  1.2491 -1.1747  2.6091
  184MOL0     H24284   5.806   0.581   0.906 -2.6382  1.5398  0.0603
  184MOL0     H24285   5.849   0.434   0.994  1.1643  1.1459  1.6066
  184MOL0     H24286   5.490   0.509   1.197 -0.5680 -0.7466  0.1370
  184MOL0     H24287   5.684   0.887   1.302 -1.8570  0.3699  1.4635
  184MOL0     H24288   5.480   0.781   1.396  0.7764  0.9838  0.6744
  185MOL0     O24289   5.636   0.551   8.538 -0.5140  0.0901 -0.3438
  185MOL0     C24290   5.693   0.658   8.540  0.2398  0.5489 -0.8218
  185MOL0     O24291   5.638   0.769   8.580  0.1840  0.1230  0.0258
  185MOL0     C24292   5.524   0.776   8.653  0.4040  0.2679 -0.2137
  185MOL0     C24293   5.481   0.690   8.749 -0.0994  0.5731 -0.5396
  185MOL0     C24294   5.359   0.702   8.821  0.5324 -0.3771  0.9528
  185MOL0     C24295   5.273   0.813   8.794 -0.5534  0.2661 -0.3791
  185MOL0     O24296   5.156   0.855   8.848  0.2511  0.0797 -0.4247
  185MOL0     C24297   5.123   0.803   8.981 -0.6877  0.7593 -0.2270
  185MOL0     C24298   5.013   0.886   9.041 -0.0655 -0.1633 -0.5108
  185MOL0     C24299   5.077   1.020   9.082 -0.2993 -0.5015  0.9257
  185MOL0     C24300   4.994   1.113   9.166  0.2845  0.8644 -0.0971
  185MOL0     C24301   5.082   1.214   9.255  0.2250  0.3905  0.1986
  185MOL0     C24302   5.187   1.295   9.178 -0.9399 -0.2171  0.5791
  185MOL0     C24303   5.291   1.373   9.259  0.6625 -0.8938 -0.3675
  185MOL0     C24304   5.231   1.489   9.339  0.1312  0.1770 -0.3009
  185MOL0     N24305   5.321   1.611   9.350  0.3818 -0.9115 -0.2446
  185MOL0     C24306   5.412   1.648   9.449  0.6119  0.1691 -0.0503
  185MOL0     C24307   5.458   1.772   9.409  0.1164  0.0367 -0.6423
  185MOL0     C24308   5.561   1.855   9.476  0.4324  0.2983  0.2068
  185MOL0     C24309   5.645   1.941   9.375  1.0278  0.5083 -0.3703
  185MOL0     C24310   5.777   2.000   9.436 -0.4277  0.8202 -0.0978
  185MOL0     C24311   5.835   2.115   9.357  0.1996 -0.6814  0.0890
  185MOL0     O24312   5.942   2.176   9.427  0.1630 -0.7184  1.1669
  185MOL0     C24313   5.985   2.296   9.374  0.1709  0.5798 -0.2950
  185MOL0     C24314   6.059   2.370   9.462  0.0440 -0.0566  0.5184
  185MOL0     C24315   6.102   2.498   9.426 -0.0244  0.3025  0.2275
  185MOL0     C24316   6.075   2.548   9.295  0.2071 -0.8474  0.4866
  185MOL0     C24317   6.152   2.672   9.255  0.1383  0.5315  0.5597
  185MOL0     O24318   6.206   2.677   9.129 -0.6674 -0.4729  0.6008
  185MOL0     C24319   6.278   2.786   9.087 -0.3244 -0.9108  0.6110
  185MOL0     C24320   6.306   2.913   9.141  0.1837  0.0429  0.7125
  185MOL0     C24321   6.386   3.007   9.072  0.3753 -0.5722  0.4105
  185MOL0     C24322   6.443   2.980   8.945 -0.5358 -0.2273  0.3918
  185MOL0     O24323   6.532   3.048   8.869  0.0134 -0.1361  0.1862
  185MOL0     C24324   6.643   3.084   8.958 -0.0217 -0.4231 -0.1293
  185MOL0     C24325   6.745   3.142   8.865 -0.6924  0.4429 -0.0565
  185MOL0     C24326   6.877   3.185   8.937  0.1213  0.6426 -0.5549
  185MOL0     C24327   7.006   3.200   8.846  0.3203 -0.2881 -0.4526
  185MOL0     C24328   7.138   3.235   8.918  0.2903  0.5982 -0.2347
  185MOL0     C24329   7.142   3.373   8.985  1.1804  0.1303 -0.5736
  185MOL0     C24330   7.284   3.391   9.050 -0.0793  0.0086  1.0438
  185MOL0     C24331   7.320   3.543   9.061  0.7959 -0.0926  0.1110
  185MOL0    Cl24332   7.357   3.602   8.889 -0.0503  0.0870 -0.2796
  185MOL0     C24333   6.423   2.851   8.890  0.2400 -0.0094  0.2698
  185MOL0     C24334   6.339   2.762   8.961  0.7638  1.0982 -0.5104
  185MOL0     O24335   6.163   2.764   9.342  0.0273  0.0436  0.1234
  185MOL0     C24336   5.999   2.480   9.205 -0.2606  0.4915  0.0625
  185MOL0     C24337   5.947   2.350   9.247  1.3860 -0.2563 -0.0339
  185MOL0     N24338   5.399   1.804   9.292 -0.0904  0.1469  0.4080
  185MOL0     N24339   5.331   1.706   9.255 -0.0876 -0.2681 -0.4188
  185MOL0     C24340   5.328   0.911   8.712 -0.0113  0.6200  0.2766
  185MOL0     C24341   5.450   0.897   8.646  0.2024  0.2537  0.8028
  185MOL0     C24342   5.837   0.652   8.529 -0.3092  0.2395  0.1627
  185MOL0     C24343   5.916   0.763   8.551  0.0075  0.5048  0.2331
  185MOL0     C24344   6.053   0.755   8.540  0.3364  0.1765 -0.0135
  185MOL0     C24345   6.115   0.634   8.500  0.4379  0.5975  0.7819
  185MOL0     O24346   6.254   0.613   8.497 -0.4861 -0.0782  0.1278
  185MOL0     C24347   6.331   0.738   8.487  0.4233  0.1103 -0.4537
  185MOL0     C24348   6.476   0.709   8.500 -0.0827  0.8348 -0.1337
  185MOL0     C24349   6.561   0.830   8.530 -0.4460 -0.3782  0.2731
  185MOL0     C24350   6.559   0.874   8.679  1.2678  1.1882 -0.5886
  185MOL0     C24351   6.677   0.948   8.723 -0.3984 -1.4942  0.1894
  185MOL0     C24352   6.770   1.010   8.774  0.0022 -0.6521 -1.2473
  185MOL0     C24353   6.034   0.520   8.482  0.5014 -0.4312  0.0920
  185MOL0     C24354   5.899   0.523   8.495 -0.0046 -0.7552 -0.0521
  185MOL0     H24355   5.545   0.608   8.780 -0.8116  1.1115  2.7318
  185MOL0     H24356   5.333   0.618   8.885  3.4044 -1.5009  0.7856
  185MOL0     H24357   5.214   0.797   9.042 -0.8285  1.4497  0.0616
  185MOL0     H24358   5.083   0.702   8.971  1.4322 -0.5973  3.2220
  185MOL0     H24359   4.971   0.826   9.122  2.8864 -1.6310  0.0787
  185MOL0     H24360   4.934   0.915   8.971 -2.6354  0.3730  2.3752
  185MOL0     H24361   5.110   1.080   8.996 -0.0591 -2.3536 -0.3437
  185MOL0     H24362   5.165   0.999   9.143 -0.4464  1.3013  1.8399
  185MOL0     H24363   4.927   1.164   9.097 -2.7253 -1.0159  1.2296
  185MOL0     H24364   4.939   1.049   9.236  2.6044  0.0936  1.1443
  185MOL0     H24365   5.127   1.164   9.341 -0.3838  0.0123  0.2991
  185MOL0     H24366   5.016   1.291   9.294 -1.4500 -1.2214  0.6575
  185MOL0     H24367   5.131   1.363   9.113  0.5968  3.7489  3.0391
  185MOL0     H24368   5.242   1.229   9.110 -2.0391 -0.3482 -0.2050
  185MOL0     H24369   5.326   1.306   9.337 -3.0464  0.0798  2.4339
  185MOL0     H24370   5.365   1.411   9.188  0.3158  0.5546  0.0097
  185MOL0     H24371   5.184   1.449   9.430  2.7354 -4.3144 -0.6503
  185MOL0     H24372   5.142   1.515   9.279 -0.8995 -0.6411  0.8221
  185MOL0     H24373   5.436   1.581   9.531 -0.3707 -1.5231 -1.0813
  185MOL0     H24374   5.617   1.774   9.524 -1.2116 -1.0801 -0.0918
  185MOL0     H24375   5.519   1.922   9.552  0.6932  2.1996 -1.2551
  185MOL0     H24376   5.576   2.020   9.344 -0.9351 -1.8758 -2.5077
  185MOL0     H24377   5.679   1.871   9.298 -0.1930 -1.3859  0.7350
  185MOL0     H24378   5.769   2.029   9.541 -0.0087 -0.8200  0.4146
  185MOL0     H24379   5.849   1.919   9.449  1.5234  2.2120 -1.5668
  185MOL0     H24380   5.763   2.197   9.346  0.2386 -0.8119 -1.3354
  185MOL0     H24381   5.869   2.077   9.260 -0.5495 -2.9844  0.6869
  185MOL0     H24382   6.069   2.347   9.568  2.7202 -0.3104  0.2903
  185MOL0     H24383   6.177   2.543   9.491 -0.5218  1.7960 -0.1874
  185MOL0     H24384   6.271   2.940   9.240  1.1030  0.9269  0.8164
  185MOL0     H24385   6.410   3.106   9.108 -1.3755  0.7187 -1.7136
  185MOL0     H24386   6.693   2.998   9.002  0.1279  0.5933  1.7721
  185MOL0     H24387   6.613   3.153   9.037  1.7103 -0.3022  0.4573
  185MOL0     H24388   6.704   3.224   8.806  0.7168  0.9021 -0.4385
  185MOL0     H24389   6.778   3.062   8.798  2.1725  1.9894 -0.6447
  185MOL0     H24390   6.905   3.109   9.011 -2.4937 -0.1616 -0.2961
  185MOL0     H24391   6.872   3.284   8.984 -1.5510  1.4422 -2.3099
  185MOL0     H24392   7.018   3.102   8.800 -3.0030 -0.5301 -1.0536
  185MOL0     H24393   6.988   3.272   8.766  1.5496  1.0873  0.4491
  185MOL0     H24394   7.219   3.215   8.847 -0.0799 -0.8250 -0.2869
  185MOL0     H24395   7.140   3.162   9.000 -0.6325 -0.0067 -0.7357
  185MOL0     H24396   7.075   3.381   9.071  0.5155  0.3256 -1.1000
  185MOL0     H24397   7.118   3.454   8.915 -0.9450  0.6050  0.6079
  185MOL0     H24398   7.286   3.348   9.151 -2.1977  1.2231  1.6616
  185MOL0     H24399   7.364   3.337   8.999  2.4157  3.6185  0.7655
  185MOL0     H24400   7.404   3.561   9.128  0.9834 -2.7525  0.7050
  185MOL0     H24401   7.238   3.600   9.105  1.3703  0.3816  0.5945
  185MOL0     H24402   6.473   2.817   8.800  2.0926 -1.5675  1.7908
  185MOL0     H24403   6.342   2.658   8.931  2.8540  0.9064  0.2453
  185MOL0     H24404   5.977   2.527   9.110  1.4324 -1.6754 -1.5160
  185MOL0     H24405   5.886   2.291   9.179  1.0356 -0.2012  0.2268
  185MOL0     H24406   5.277   1.007   8.710  0.5818  0.9864 -2.6368
  185MOL0     H24407   5.479   0.983   8.586 -2.0850 -0.3860 -1.3961
  185MOL0     H24408   5.866   0.858   8.564 -1.3004 -0.1560  0.1881
  185MOL0     H24409   6.110   0.845   8.561  2.9918 -1.6914  1.2798
  185MOL0     H24410   6.306   0.806   8.570 -0.1253 -0.8663  0.2026
  185MOL0     H24411   6.309   0.786   8.392 -0.0791  1.6133  0.3789
  185MOL0     H24412   6.492   0.641   8.585 -3.7146 -0.6703 -0.4655
  185MOL0     H24413   6.512   0.654   8.413 -0.4869 -0.0850  0.2564
  185MOL0     H24414   6.534   0.908   8.458 -0.4258 -0.4475  0.1901
  185MOL0     H24415   6.660   0.800   8.495  0.5163  2.3509  0.3842
  185MOL0     H24416   6.467   0.929   8.698  1.3975  1.1741  0.1027
  185MOL0     H24417   6.554   0.784   8.741 -0.1467 -0.5345 -3.0320
  185MOL0     H24418   6.854   1.062   8.814  0.0914 -0.8233 -1.2114
  185MOL0     H24419   6.078   0.425   8.455  1.1622 -0.1474  0.1508
  185MOL0     H24420   5.844   0.436   8.461 -0.7210 -0.2126 -0.3268
  186MOL0     O24421   5.394   3.086   9.972  0.7185 -0.0956 -0.3650
  186MOL0     C24422   5.487   3.120  10.040 -0.8105  0.4232  0.0326
  186MOL0     O24423   5.509   3.237  10.092  0.1046 -0.5492  0.3465
  186MOL0     C24424   5.408   3.332  10.099 -0.2485  0.3058  1.1503
  186MOL0     C24425   5.314   3.324  10.196 -0.0298  0.0411  0.2112
  186MOL0     C24426   5.210   3.424  10.200 -0.7146  0.5715 -1.1736
  186MOL0     C24427   5.206   3.526  10.105 -0.9623 -0.5999 -0.0817
  186MOL0     O24428   5.109   3.624  10.084  0.5127  0.2370  0.3614
  186MOL0     C24429   4.983   3.604  10.151 -0.0376 -0.2687 -0.1158
  186MOL0     C24430   4.877   3.692  10.068 -0.1307  0.1189 -0.1939
  186MOL0     C24431   4.768   3.742  10.159 -0.5203  0.6774 -0.0715
  186MOL0     C24432   4.696   3.865  10.106 -0.0060 -0.1956  0.1762
  186MOL0     C24433   4.585   3.908  10.203 -0.6685 -1.0699  0.0176
  186MOL0     C24434   4.465   3.821  10.213  0.1423  0.3890 -1.3449
  186MOL0     C24435   4.336   3.888  10.276  0.3002 -0.1263 -0.4753
  186MOL0     C24436   4.207   3.795  10.274 -0.4958 -0.5981  0.2856
  186MOL0     N24437   4.166   3.763  10.410  0.0933  0.0904 -0.2819
  186MOL0     C24438   4.243   3.711  10.508 -0.1477 -0.0665  0.0844
  186MOL0     C24439   4.157   3.684  10.612 -0.2350  0.0490 -0.3278
  186MOL0     C24440   4.195   3.599  10.737 -0.5844 -0.1141  0.0567
  186MOL0     C24441   4.080   3.550  10.815  0.8160  0.4731  0.3639
  186MOL0     C24442   4.111   3.504  10.953  0.1433 -0.1500  0.3513
  186MOL0     C24443   3.977   3.491  11.033 -0.1703 -0.6784  0.3589
  186MOL0     O24444   4.011   3.438  11.166 -0.0868  0.0687 -0.3809
  186MOL0     C24445   3.907   3.413  11.254  0.3803  0.0571  0.5713
  186MOL0     C24446   3.774   3.436  11.233  0.0577  0.2822 -0.3592
  186MOL0     C24447   3.674   3.397  11.321  0.1440  0.2725 -0.1707
  186MOL0     C24448   3.704   3.328  11.437 -0.9305  0.1144 -0.1188
  186MOL0     C24449   3.610   3.281  11.533  0.3829  0.5155 -0.2206
  186MOL0     O24450   3.660   3.180  11.612 -0.0806  0.1803 -0.5725
  186MOL0     C24451   3.575   3.082  11.661 -0.5582 -0.7984  0.0644
  186MOL0     C24452   3.466   3.034  11.598  1.2628  0.8228  0.5279
  186MOL0     C24453   3.387   2.931  11.660  0.6233  0.6474  0.1332
  186MOL0     C24454   3.426   2.867  11.781  0.4195  0.3969  0.1766
  186MOL0     O24455   3.331   2.772  11.812  0.1681  0.0898  0.4405
  186MOL0     C24456   3.350   2.696  11.932 -0.7429 -0.1668  0.2022
  186MOL0     C24457   3.292   2.774  12.052  0.5647 -0.6274  0.0601
  186MOL0     C24458   3.138   2.804  12.053  0.9441  0.5348  0.3500
  186MOL0     C24459   3.098   2.878  12.176 -0.1203  0.3391 -0.0506
  186MOL0     C24460   2.955   2.927  12.164  0.5267 -0.4826 -0.1066
  186MOL0     C24461   2.911   2.990  12.295 -0.9267  0.4256 -0.2503
  186MOL0     C24462   2.760   2.989  12.315 -0.1077  0.1831 -0.5119
  186MOL0     C24463   2.712   3.049  12.454  0.0068  0.9977 -0.0912
  186MOL0    Cl24464   2.535   3.064  12.448 -0.3668  0.3894 -0.0563
  186MOL0     C24465   3.550   2.904  11.831  0.0350  0.3592 -0.3684
  186MOL0     C24466   3.618   3.016  11.780  0.4263 -0.2135  0.3121
  186MOL0     O24467   3.501   3.337  11.557  0.1438 -0.3673 -0.1470
  186MOL0     C24468   3.843   3.312  11.463  0.4808  0.9555 -0.0413
  186MOL0     C24469   3.940   3.354  11.376  0.6569 -0.0328  0.0754
  186MOL0     N24470   4.026   3.723  10.567 -0.0096  0.5339  0.6814
  186MOL0     N24471   4.035   3.772  10.451  0.0949  0.0464  0.3363
  186MOL0     C24472   5.313   3.538  10.017  0.2043  0.1714  0.8135
  186MOL0     C24473   5.408   3.438  10.008 -0.7908  0.4781  0.5325
  186MOL0     C24474   5.616   3.037  10.045  0.3873  0.3349  0.1449
  186MOL0     C24475   5.609   2.909   9.979  0.6097  0.3359 -0.8129
  186MOL0     C24476   5.721   2.826   9.993 -0.2469  1.1997  0.4411
  186MOL0     C24477   5.841   2.869  10.056  0.6063  1.1722  0.9844
  186MOL0     O24478   5.941   2.782  10.062  0.0468 -0.0090  0.8703
  186MOL0     C24479   6.045   2.799  10.163  0.0394 -0.1327 -1.7930
  186MOL0     C24480   6.167   2.868  10.106  0.2528  0.1663  0.7230
  186MOL0     C24481   6.257   2.936  10.209 -0.0998  0.0448  0.2050
  186MOL0     C24482   6.407   2.932  10.178 -0.3829 -0.2501 -0.0560
  186MOL0     C24483   6.493   2.954  10.293  0.6310  1.5839  0.0099
  186MOL0     C24484   6.563   2.960  10.386 -0.1617 -0.5266 -0.0757
  186MOL0     C24485   5.846   2.997  10.103 -1.0810  0.1743 -1.1357
  186MOL0     C24486   5.735   3.082  10.100  0.5701  0.2190 -0.4103
  186MOL0     H24487   5.312   3.244  10.270 -3.6313  0.5759  0.8764
  186MOL0     H24488   5.137   3.429  10.280  0.6900  1.5169  0.1049
  186MOL0     H24489   4.991   3.648  10.251  2.4387  2.0135 -1.1856
  186MOL0     H24490   4.948   3.501  10.152  1.1271 -0.6793  1.2517
  186MOL0     H24491   4.823   3.629   9.996 -0.2756 -1.9844  1.6439
  186MOL0     H24492   4.928   3.765  10.004 -1.5392 -2.0418 -4.1433
  186MOL0     H24493   4.803   3.765  10.260 -0.3053 -3.0690  0.8561
  186MOL0     H24494   4.692   3.663  10.168 -0.6846  0.7178 -1.0150
  186MOL0     H24495   4.777   3.938  10.097  1.1327 -1.3667  0.7281
  186MOL0     H24496   4.657   3.823  10.012 -0.9322  0.9815 -0.0025
  186MOL0     H24497   4.544   3.998  10.155 -2.0129  0.5018  3.7718
  186MOL0     H24498   4.619   3.942  10.301  2.9192  1.4993 -1.8567
  186MOL0     H24499   4.487   3.730  10.270 -0.0045  0.0040 -1.8897
  186MOL0     H24500   4.432   3.782  10.116  0.1382  0.8286 -1.5220
  186MOL0     H24501   4.381   3.906  10.374  1.1306 -0.6144 -0.7533
  186MOL0     H24502   4.315   3.976  10.215  1.4817  0.6060  0.1347
  186MOL0     H24503   4.237   3.696  10.239  3.0095  0.0937  1.0216
  186MOL0     H24504   4.124   3.836  10.215 -0.6391  0.3837  1.1483
  186MOL0     H24505   4.349   3.688  10.512 -0.0403  0.5866  1.9654
  186MOL0     H24506   4.245   3.671  10.802  0.7497  1.1347 -2.1840
  186MOL0     H24507   4.267   3.520  10.715  1.7243  1.2512  2.1809
  186MOL0     H24508   4.032   3.470  10.757  1.6724  2.3117 -3.1402
  186MOL0     H24509   4.008   3.632  10.821  2.1433  1.6565  0.4866
  186MOL0     H24510   4.160   3.406  10.952  1.6589  0.5818  0.4499
  186MOL0     H24511   4.183   3.567  11.006  1.0168 -0.5358 -0.3428
  186MOL0     H24512   3.918   3.412  10.986  1.9856  0.2867 -4.5961
  186MOL0     H24513   3.923   3.586  11.029  2.0489  0.7229  1.4853
  186MOL0     H24514   3.752   3.506  11.153  0.1969  1.3870  0.5305
  186MOL0     H24515   3.569   3.421  11.310  0.1900  0.0950 -1.1109
  186MOL0     H24516   3.427   3.070  11.503 -0.3625  0.4675  1.0322
  186MOL0     H24517   3.300   2.894  11.608  0.4775 -0.0785  0.8647
  186MOL0     H24518   3.456   2.678  11.952 -0.5714 -0.6188 -1.0063
  186MOL0     H24519   3.299   2.600  11.920  0.7967 -0.9167 -0.7030
  186MOL0     H24520   3.346   2.869  12.060  2.7723 -1.9291  1.3802
  186MOL0     H24521   3.322   2.711  12.135  0.6863 -0.1054  0.4197
  186MOL0     H24522   3.075   2.716  12.039 -0.3271  1.4374  0.1516
  186MOL0     H24523   3.124   2.883  11.978  1.1327  2.4453  2.2172
  186MOL0     H24524   3.107   2.818  12.267  2.5224  2.7703  1.4520
  186MOL0     H24525   3.164   2.965  12.187  0.8249 -0.3341 -0.2412
  186MOL0     H24526   2.895   2.836  12.155  2.7090 -2.3758  2.6541
  186MOL0     H24527   2.944   3.001  12.084 -1.4630  1.7868  2.1143
  186MOL0     H24528   2.950   3.092  12.294 -2.3114  0.9967  0.4463
  186MOL0     H24529   2.955   2.925  12.371 -0.1021 -0.5292 -1.5012
  186MOL0     H24530   2.737   3.057  12.233  0.8414  0.2071 -0.7728
  186MOL0     H24531   2.716   2.889  12.302  1.1793 -0.9352  2.7737
  186MOL0     H24532   2.754   3.149  12.469 -1.9654  1.7544  0.6565
  186MOL0     H24533   2.738   2.983  12.538 -4.1497 -2.1259 -0.9520
  186MOL0     H24534   3.598   2.854  11.915  2.0084 -1.1580 -2.2574
  186MOL0     H24535   3.714   3.048  11.819  0.2172  1.4059 -0.4146
  186MOL0     H24536   3.886   3.281  11.557  1.7938  3.3051  0.2229
  186MOL0     H24537   4.047   3.341  11.393  0.8769  1.5547 -0.0160
  186MOL0     H24538   5.304   3.617   9.942 -2.3244  0.1014  0.9578
  186MOL0     H24539   5.483   3.430   9.930 -2.3843 -1.0741 -0.9276
  186MOL0     H24540   5.511   2.883   9.941  0.2201 -0.6271  0.7464
  186MOL0     H24541   5.711   2.729   9.946 -1.8333  0.8392  1.4189
  186MOL0     H24542   6.073   2.699  10.199  1.3932  0.8258 -0.0033
  186MOL0     H24543   6.002   2.840  10.255 -0.0095 -0.8954 -1.4689
  186MOL0     H24544   6.220   2.791  10.050 -0.4709  0.1306  0.0755
  186MOL0     H24545   6.129   2.942  10.035  1.8010  0.1502 -0.1706
  186MOL0     H24546   6.245   2.871  10.296  0.6118 -2.5455 -1.5183
  186MOL0     H24547   6.226   3.040  10.222 -0.5154  0.0469 -0.7438
  186MOL0     H24548   6.433   2.832  10.142 -2.7986 -1.4001  1.1351
  186MOL0     H24549   6.435   3.005  10.102 -0.2136  0.6081  0.8133
  186MOL0     H24550   6.632   2.944  10.467  0.2935 -2.1689 -0.7445
  186MOL0     H24551   5.938   3.042  10.138 -1.6742  0.0196  0.6880
  186MOL0     H24552   5.731   3.184  10.138 -3.0741  2.0484 -4.8207
  187MOL0     O24553   6.053   7.265   8.378 -0.0259 -0.0288  0.2267
  187MOL0     C24554   6.129   7.345   8.328 -0.1489  0.1348  0.4607
  187MOL0     O24555   6.088   7.463   8.273 -0.0062 -1.0284 -0.4774
  187MOL0     C24556   5.954   7.486   8.257  0.4272  0.2208 -0.0187
  187MOL0     C24557   5.887   7.555   8.354  0.9269 -0.3304  0.0786
  187MOL0     C24558   5.754   7.599   8.332  0.5595  0.3539 -0.3227
  187MOL0     C24559   5.682   7.555   8.221  0.3125 -0.3026  0.3556
  187MOL0     O24560   5.551   7.589   8.199  0.4102  1.1909 -0.0790
  187MOL0     C24561   5.497   7.706   8.267  0.7584  0.2888 -0.1097
  187MOL0     C24562   5.351   7.736   8.238  0.4405 -0.5139 -0.7385
  187MOL0     C24563   5.313   7.686   8.093 -0.1546  0.3558  0.2675
  187MOL0     C24564   5.184   7.753   8.036 -0.5529  0.7233 -0.5393
  187MOL0     C24565   5.056   7.662   8.042 -0.1485 -0.3576  0.3390
  187MOL0     C24566   4.935   7.737   7.994  0.0615 -0.2531 -0.6956
  187MOL0     C24567   4.814   7.649   7.978 -0.3431  0.6390  0.6141
  187MOL0     C24568   4.705   7.740   7.931 -0.4279  0.4725 -0.2002
  187MOL0     N24569   4.593   7.660   7.899 -0.0958  0.8198  0.0806
  187MOL0     C24570   4.500   7.622   7.996 -0.8357 -0.4688 -0.5056
  187MOL0     C24571   4.400   7.567   7.933 -0.1098 -0.5274 -0.7923
  187MOL0     C24572   4.275   7.524   8.003  0.5025 -0.1178  0.0619
  187MOL0     C24573   4.205   7.412   7.926  0.7645 -0.9930 -0.3279
  187MOL0     C24574   4.119   7.324   8.016 -0.0781 -0.8757 -0.0703
  187MOL0     C24575   4.053   7.203   7.949 -0.7838  0.8669  0.0770
  187MOL0     O24576   3.984   7.137   8.057 -0.5993  0.2007 -0.5770
  187MOL0     C24577   3.914   7.021   8.034 -0.0839 -0.2573  0.7543
  187MOL0     C24578   3.825   6.966   8.129  0.9083 -0.6033 -0.3263
  187MOL0     C24579   3.741   6.861   8.103 -0.7190  0.7769 -0.4774
  187MOL0     C24580   3.739   6.801   7.978  0.1712  0.0806 -0.5043
  187MOL0     C24581   3.657   6.678   7.951 -0.7090  0.1960 -0.6232
  187MOL0     O24582   3.570   6.632   8.053 -0.1155 -0.5514 -0.0539
  187MOL0     C24583   3.497   6.511   8.040 -0.2285  0.0777  0.1843
  187MOL0     C24584   3.423   6.475   8.157 -0.5280 -0.9078  0.4467
  187MOL0     C24585   3.324   6.378   8.159  0.1757 -0.3022  0.3855
  187MOL0     C24586   3.291   6.309   8.047 -0.5857  0.1123 -0.1568
  187MOL0     O24587   3.194   6.210   8.032  0.1712 -0.5745  0.1394
  187MOL0     C24588   3.158   6.129   8.145  0.2171  0.5463  0.1086
  187MOL0     C24589   3.257   6.017   8.190 -0.7728 -0.1063 -0.2506
  187MOL0     C24590   3.188   5.917   8.282 -0.0623  0.6270  0.5038
  187MOL0     C24591   3.270   5.796   8.302  0.8602  0.1090  0.5514
  187MOL0     C24592   3.219   5.700   8.406  0.3719 -0.3627  0.2026
  187MOL0     C24593   3.094   5.615   8.372  0.1431 -0.5661  0.9502
  187MOL0     C24594   3.058   5.511   8.487 -0.0512  0.2690 -0.8369
  187MOL0     C24595   2.943   5.421   8.437  0.1751 -0.7349 -0.4284
  187MOL0    Cl24596   2.782   5.503   8.384  0.1270  0.2893  0.0789
  187MOL0     C24597   3.373   6.334   7.936 -0.0105  0.7969  0.1084
  187MOL0     C24598   3.475   6.427   7.932  0.1034 -0.4689 -0.9515
  187MOL0     O24599   3.656   6.639   7.835 -0.5059  0.9896 -0.2222
  187MOL0     C24600   3.825   6.856   7.881  1.1435  0.9264 -0.4287
  187MOL0     C24601   3.910   6.966   7.905 -0.0382  0.4042 -0.3720
  187MOL0     N24602   4.421   7.586   7.803 -0.0715  0.3765 -0.6327
  187MOL0     N24603   4.537   7.644   7.781 -0.0694  0.4153  0.4333
  187MOL0     C24604   5.747   7.480   8.129 -0.6822  0.2079 -0.0376
  187MOL0     C24605   5.886   7.447   8.145 -0.5019  0.9398  0.3685
  187MOL0     C24606   6.263   7.308   8.339  0.6550  0.2165  0.8929
  187MOL0     C24607   6.359   7.402   8.308 -0.6861  0.6173 -0.6219
  187MOL0     C24608   6.499   7.384   8.324  0.3747  0.3614 -0.3265
  187MOL0     C24609   6.543   7.257   8.362 -0.0729  1.0972 -0.3038
  187MOL0     O24610   6.681   7.245   8.380  0.4090 -0.2006  0.4060
  187MOL0     C24611   6.729   7.119   8.399 -0.3868  0.1634 -1.0525
  187MOL0     C24612   6.761   7.029   8.280  0.5232 -0.4705  0.3970
  187MOL0     C24613   6.804   7.105   8.150  0.4521 -0.0179 -0.1266
  187MOL0     C24614   6.944   7.146   8.139 -0.9297  0.3469 -0.3765
  187MOL0     C24615   7.029   7.017   8.125  0.0503  0.1186  0.4162
  187MOL0     C24616   7.084   6.902   8.113 -0.7249 -0.5763  0.2910
  187MOL0     C24617   6.444   7.154   8.382 -0.0951 -0.1794  0.6611
  187MOL0     C24618   6.310   7.189   8.382  0.2257  0.4204 -0.1308
  187MOL0     H24619   5.944   7.588   8.440 -0.2832  1.4387  0.2521
  187MOL0     H24620   5.714   7.664   8.410 -0.4290  0.6857 -1.0811
  187MOL0     H24621   5.547   7.801   8.245 -1.0860  1.5326  0.8417
  187MOL0     H24622   5.511   7.687   8.374  0.2599  0.1620 -0.0685
  187MOL0     H24623   5.311   7.835   8.263  1.7017  0.5748 -2.7892
  187MOL0     H24624   5.297   7.667   8.303 -2.3236 -0.5537 -2.8898
  187MOL0     H24625   5.312   7.578   8.080  0.0636  0.3529  0.2718
  187MOL0     H24626   5.389   7.723   8.023 -1.2997  1.3527 -0.4973
  187MOL0     H24627   5.166   7.844   8.096 -0.2015  0.3184  0.1988
  187MOL0     H24628   5.204   7.787   7.934  2.4172 -1.0992 -0.6797
  187MOL0     H24629   5.047   7.618   8.142 -0.5588  0.0802  0.4993
  187MOL0     H24630   5.089   7.591   7.965  3.1782  0.3026  0.9924
  187MOL0     H24631   4.969   7.791   7.905 -0.3988 -2.9620 -2.6471
  187MOL0     H24632   4.904   7.821   8.058 -0.7250 -1.2282  0.2458
  187MOL0     H24633   4.846   7.574   7.905  1.3661  1.9531 -0.0669
  187MOL0     H24634   4.784   7.593   8.067  2.3253 -2.6024 -0.3128
  187MOL0     H24635   4.746   7.805   7.853 -0.6420  0.1637 -0.5788
  187MOL0     H24636   4.673   7.804   8.014 -2.1108  0.1180 -0.5309
  187MOL0     H24637   4.512   7.628   8.104 -2.5603  2.2670 -0.3449
  187MOL0     H24638   4.218   7.617   8.013  0.1678 -0.5881  4.3158
  187MOL0     H24639   4.310   7.477   8.095  3.4748 -3.9320 -2.6501
  187MOL0     H24640   4.279   7.349   7.875 -1.4541 -3.0985 -1.1553
  187MOL0     H24641   4.135   7.458   7.856 -0.3447  2.1346  2.5657
  187MOL0     H24642   4.174   7.305   8.108  0.7013  0.9533 -0.1051
  187MOL0     H24643   4.033   7.386   8.045  0.5843 -0.2360  0.5455
  187MOL0     H24644   4.126   7.133   7.906 -0.5486  0.9479  0.3433
  187MOL0     H24645   3.985   7.233   7.869 -3.7177 -1.6287  1.4427
  187MOL0     H24646   3.809   7.013   8.226 -0.1237  2.0142 -1.6617
  187MOL0     H24647   3.679   6.824   8.183  0.8114 -2.2707 -0.5565
  187MOL0     H24648   3.443   6.532   8.248  0.7296  1.9829 -1.5143
  187MOL0     H24649   3.276   6.362   8.256  0.3314  0.2454  0.5562
  187MOL0     H24650   3.067   6.072   8.124  0.8519 -0.0223 -1.1563
  187MOL0     H24651   3.154   6.194   8.234  0.7374  0.2951  0.3175
  187MOL0     H24652   3.333   6.072   8.246 -1.4514  0.0993  0.4742
  187MOL0     H24653   3.305   5.982   8.098 -1.5590  0.8487 -1.0508
  187MOL0     H24654   3.091   5.884   8.244  1.1908  0.3749 -2.8199
  187MOL0     H24655   3.165   5.962   8.379 -2.0384 -2.0130  1.3971
  187MOL0     H24656   3.278   5.754   8.201 -1.2083 -0.3825  0.5575
  187MOL0     H24657   3.371   5.825   8.333  0.7083 -0.8955  2.1384
  187MOL0     H24658   3.203   5.751   8.502  3.0906 -0.2479  0.6523
  187MOL0     H24659   3.292   5.623   8.432  0.1080 -0.5806  0.3067
  187MOL0     H24660   3.115   5.556   8.282 -2.2997  0.4006 -0.3494
  187MOL0     H24661   3.000   5.668   8.352  0.7499  0.2393  0.1422
  187MOL0     H24662   3.150   5.458   8.513  0.5489  1.0628 -1.3155
  187MOL0     H24663   3.031   5.560   8.581 -0.4495 -0.3841 -0.5996
  187MOL0     H24664   2.920   5.347   8.514  2.5885 -1.5231 -0.4080
  187MOL0     H24665   2.975   5.357   8.356  0.8249 -2.1639  0.9055
  187MOL0     H24666   3.362   6.273   7.847  1.5350  1.6392 -0.7153
  187MOL0     H24667   3.537   6.435   7.843 -1.3464 -1.2440 -2.0685
  187MOL0     H24668   3.809   6.824   7.778 -2.3409  0.7239  0.0701
  187MOL0     H24669   3.985   6.996   7.833  0.6897 -0.7971 -0.1357
  187MOL0     H24670   5.714   7.438   8.035 -1.0779 -0.4966  0.4149
  187MOL0     H24671   5.938   7.393   8.066  1.8066  1.3044  1.5535
  187MOL0     H24672   6.336   7.504   8.278  0.4625  1.1287  0.1517
  187MOL0     H24673   6.560   7.470   8.298  1.4557 -0.2109  0.2834
  187MOL0     H24674   6.680   7.065   8.480  0.6949 -1.0763 -1.1903
  187MOL0     H24675   6.832   7.116   8.436 -0.7286 -1.0744 -0.1488
  187MOL0     H24676   6.827   6.949   8.315 -1.2778 -1.2496  2.2357
  187MOL0     H24677   6.675   6.966   8.256  0.7314 -0.7728  0.4429
  187MOL0     H24678   6.739   7.193   8.145 -1.4473 -1.4328 -2.2308
  187MOL0     H24679   6.767   7.054   8.061 -2.6486  2.3722 -0.3863
  187MOL0     H24680   6.957   7.208   8.050 -1.1976 -2.4344 -2.4740
  187MOL0     H24681   6.969   7.201   8.230 -1.7827  1.2872 -0.6895
  187MOL0     H24682   7.145   6.814   8.125  3.2742  2.1105  1.6449
  187MOL0     H24683   6.470   7.050   8.398 -1.0304 -0.2714  1.6379
  187MOL0     H24684   6.243   7.111   8.417  0.0442  0.1441 -1.0754
  188MOL0     O24685   4.375   2.274   5.097  0.5817  0.0392  0.5150
  188MOL0     C24686   4.364   2.305   5.217  0.2301 -1.0307 -0.1787
  188MOL0     O24687   4.463   2.367   5.285 -0.6762 -0.1825  0.4115
  188MOL0     C24688   4.586   2.371   5.225  0.5193  0.4679  0.4737
  188MOL0     C24689   4.613   2.489   5.150 -0.5015 -0.5873 -0.4935
  188MOL0     C24690   4.733   2.508   5.098 -1.6780  0.1880 -0.3884
  188MOL0     C24691   4.843   2.412   5.116 -0.7447  0.3971 -0.2721
  188MOL0     O24692   4.969   2.440   5.064  0.0258 -0.0956  0.2039
  188MOL0     C24693   5.077   2.346   5.055  0.6078 -0.1608  0.3565
  188MOL0     C24694   5.183   2.399   4.957 -0.1716 -0.7773  0.3450
  188MOL0     C24695   5.151   2.457   4.818  0.1288  0.5442  0.2854
  188MOL0     C24696   5.102   2.348   4.726  1.8074  1.0996 -0.5248
  188MOL0     C24697   5.041   2.400   4.594  0.0044 -0.2765 -0.3041
  188MOL0     C24698   5.016   2.282   4.504 -0.0500 -0.0830  0.5941
  188MOL0     C24699   4.945   2.333   4.375  0.9302 -0.9492 -0.7496
  188MOL0     C24700   4.928   2.227   4.266 -0.4168  0.2169 -0.0579
  188MOL0     N24701   4.831   2.132   4.320  0.8497 -0.5512 -0.3752
  188MOL0     C24702   4.696   2.154   4.273 -0.7284  0.2655 -0.2977
  188MOL0     C24703   4.626   2.065   4.348  1.0810 -0.1705 -0.0938
  188MOL0     C24704   4.482   2.049   4.341  1.5601 -0.1121 -0.2057
  188MOL0     C24705   4.434   1.992   4.473 -0.1929  1.1520  0.0070
  188MOL0     C24706   4.274   1.989   4.467  0.4506 -0.3546 -0.0305
  188MOL0     C24707   4.190   2.028   4.602 -0.9874  0.5106  0.3485
  188MOL0     O24708   4.246   1.961   4.720 -0.3342  0.7127  0.5329
  188MOL0     C24709   4.169   1.915   4.829 -0.7900 -0.0195  0.1298
  188MOL0     C24710   4.036   1.947   4.839 -0.3473 -0.5145 -0.3743
  188MOL0     C24711   3.956   1.899   4.948 -0.2720 -0.3233  0.2954
  188MOL0     C24712   4.009   1.828   5.055 -0.0464  1.0792  0.3376
  188MOL0     C24713   3.924   1.783   5.169  0.6377  0.0265  0.9654
  188MOL0     O24714   3.792   1.803   5.152  0.7802  0.0246  0.2715
  188MOL0     C24715   3.706   1.764   5.252  0.0380  0.6297 -0.3703
  188MOL0     C24716   3.724   1.789   5.391 -0.1161  0.6175 -0.0336
  188MOL0     C24717   3.617   1.763   5.486 -0.3139 -0.6214  0.8025
  188MOL0     C24718   3.491   1.710   5.447 -0.3985 -0.8568  0.3887
  188MOL0     O24719   3.377   1.695   5.520  0.1116 -0.2953  0.3373
  188MOL0     C24720   3.369   1.750   5.655  0.1820 -0.2593  0.2586
  188MOL0     C24721   3.227   1.750   5.704  0.1417  0.1707 -0.0891
  188MOL0     C24722   3.139   1.859   5.635 -0.1491 -0.6590  0.0908
  188MOL0     C24723   3.050   1.905   5.748  0.5630 -0.3401 -0.3265
  188MOL0     C24724   2.950   2.020   5.699  0.2206 -0.5108 -0.1197
  188MOL0     C24725   2.869   2.074   5.812  0.4693  0.7942 -1.3183
  188MOL0     C24726   2.735   2.008   5.842 -0.7545  0.5723 -0.6298
  188MOL0     C24727   2.641   2.111   5.891  0.1899 -0.5843 -0.1611
  188MOL0    Cl24728   2.521   2.025   5.992  0.2216  0.2011 -0.4906
  188MOL0     C24729   3.473   1.691   5.308 -0.6041 -0.3864  0.5188
  188MOL0     C24730   3.578   1.725   5.214  0.5666 -0.0879  0.7911
  188MOL0     O24731   3.975   1.718   5.256  0.7812  0.4556  0.2286
  188MOL0     C24732   4.145   1.793   5.046 -0.4399 -0.6048  0.6954
  188MOL0     C24733   4.227   1.831   4.935  0.7727 -0.0156 -0.1908
  188MOL0     N24734   4.717   2.013   4.437  0.3050  0.0714 -0.3247
  188MOL0     N24735   4.838   2.043   4.416 -0.2964  0.5070  0.4134
  188MOL0     C24736   4.810   2.303   5.192 -0.2807 -0.0611 -0.3458
  188MOL0     C24737   4.683   2.278   5.247 -0.1285 -0.1837 -0.2721
  188MOL0     C24738   4.238   2.265   5.280  0.0291 -0.7434 -0.3455
  188MOL0     C24739   4.129   2.206   5.210 -0.1034 -0.7955  0.6070
  188MOL0     C24740   4.014   2.161   5.279  0.2535  0.2889  0.0908
  188MOL0     C24741   3.984   2.207   5.407 -0.5166 -0.0837  0.3882
  188MOL0     O24742   3.861   2.185   5.470 -0.3586  0.7154  0.2051
  188MOL0     C24743   3.745   2.150   5.397  0.6994  0.2290  0.0986
  188MOL0     C24744   3.614   2.153   5.479  0.0241  0.2382 -0.4656
  188MOL0     C24745   3.484   2.140   5.384 -0.0513 -0.8149 -0.1969
  188MOL0     C24746   3.373   2.174   5.486 -0.5301 -0.1330 -0.2578
  188MOL0     C24747   3.237   2.168   5.432  1.0531  0.4720 -0.8099
  188MOL0     C24748   3.128   2.174   5.381  0.0948 -0.1706  0.2703
  188MOL0     C24749   4.083   2.286   5.475 -0.0648 -0.5503  0.1868
  188MOL0     C24750   4.210   2.309   5.415  0.3018  0.2352  0.2904
  188MOL0     H24751   4.540   2.569   5.146  0.5810  0.5184  1.1314
  188MOL0     H24752   4.761   2.596   5.040  0.0310  0.8709  1.3677
  188MOL0     H24753   5.044   2.250   5.014 -2.0336  0.4806  0.8376
  188MOL0     H24754   5.113   2.321   5.155 -0.6397 -0.6646  0.6878
  188MOL0     H24755   5.252   2.317   4.935  0.0030 -0.4382 -0.4497
  188MOL0     H24756   5.241   2.475   5.010 -1.3091 -0.1351  0.6946
  188MOL0     H24757   5.250   2.481   4.777  0.4991 -2.7564 -1.1229
  188MOL0     H24758   5.081   2.541   4.825  1.5601  1.8198 -0.1404
  188MOL0     H24759   5.182   2.275   4.708  2.1709  1.0285  1.2248
  188MOL0     H24760   5.023   2.298   4.782  0.6276  4.4532  1.0675
  188MOL0     H24761   5.116   2.467   4.551 -1.1214  0.0791 -1.7880
  188MOL0     H24762   4.947   2.453   4.612  0.3985 -0.2432  1.9123
  188MOL0     H24763   4.946   2.214   4.554  1.1568 -2.1370 -0.3721
  188MOL0     H24764   5.108   2.233   4.472 -1.4589 -2.5118 -0.0029
  188MOL0     H24765   4.848   2.374   4.408 -1.3566 -5.5207 -1.0408
  188MOL0     H24766   5.000   2.421   4.340 -1.8129  1.6991  1.1025
  188MOL0     H24767   5.020   2.171   4.246  0.0936  1.3191 -0.8994
  188MOL0     H24768   4.896   2.286   4.180  2.2949  2.3720  0.2888
  188MOL0     H24769   4.642   2.220   4.206 -2.9565 -0.4238  0.7172
  188MOL0     H24770   4.463   1.990   4.250 -0.5002 -0.4610  0.3952
  188MOL0     H24771   4.425   2.141   4.323  1.2502  0.1968  2.0947
  188MOL0     H24772   4.458   2.067   4.548  3.2535 -0.6393  0.8996
  188MOL0     H24773   4.483   1.901   4.508 -0.2094  0.2578 -2.1213
  188MOL0     H24774   4.241   2.057   4.389 -0.3294 -0.6531  0.0356
  188MOL0     H24775   4.236   1.889   4.446  0.3646 -0.4732  0.6646
  188MOL0     H24776   4.086   2.000   4.587 -0.3162 -2.2110  0.3486
  188MOL0     H24777   4.199   2.136   4.618  0.9892  0.4278  0.0058
  188MOL0     H24778   3.988   2.025   4.780 -0.8311  2.3761  3.4442
  188MOL0     H24779   3.856   1.937   4.960  0.5150  1.6767  0.8235
  188MOL0     H24780   3.823   1.814   5.428  0.0436 -0.9571  0.6574
  188MOL0     H24781   3.646   1.804   5.582 -1.0155 -0.0463  0.7769
  188MOL0     H24782   3.403   1.854   5.662  0.0722 -0.2676  0.9967
  188MOL0     H24783   3.428   1.684   5.720  0.8054  0.4155  0.3917
  188MOL0     H24784   3.244   1.779   5.808  0.4504  0.7470 -0.2955
  188MOL0     H24785   3.182   1.651   5.691  1.6112 -1.0084  2.9990
  188MOL0     H24786   3.097   1.829   5.539 -0.9209  3.9258 -1.2621
  188MOL0     H24787   3.198   1.950   5.618  2.6817 -2.5288 -0.8747
  188MOL0     H24788   2.984   1.824   5.780 -0.1110  0.1533 -0.4436
  188MOL0     H24789   3.107   1.944   5.833  0.3518 -1.8539  0.5398
  188MOL0     H24790   2.875   1.992   5.625 -2.8759 -0.0503  2.6016
  188MOL0     H24791   3.017   2.099   5.662  1.7353 -2.8180 -2.7100
  188MOL0     H24792   2.859   2.181   5.789 -1.0712  0.8091 -0.6563
  188MOL0     H24793   2.923   2.069   5.907 -0.8168 -0.7611 -0.6299
  188MOL0     H24794   2.691   1.946   5.763 -3.1477 -0.0005  1.0315
  188MOL0     H24795   2.755   1.938   5.924  1.6020 -0.3597 -1.8721
  188MOL0     H24796   2.596   2.170   5.810 -0.1367 -0.8141 -0.1487
  188MOL0     H24797   2.695   2.186   5.950 -1.2965  0.3729  0.0480
  188MOL0     H24798   3.382   1.658   5.259  1.0260 -4.1178 -0.3354
  188MOL0     H24799   3.557   1.731   5.108 -1.3741 -4.7375  0.6603
  188MOL0     H24800   4.191   1.729   5.121  0.0026 -0.1207  0.8419
  188MOL0     H24801   4.331   1.804   4.949  0.9180 -0.4979 -1.8975
  188MOL0     H24802   4.886   2.226   5.206 -0.3626  0.2095  1.9905
  188MOL0     H24803   4.671   2.189   5.309 -1.0400 -1.1786 -1.8185
  188MOL0     H24804   4.144   2.171   5.109 -3.0165  1.9143 -0.9535
  188MOL0     H24805   3.939   2.105   5.224  2.1807 -5.2333  2.3589
  188MOL0     H24806   3.754   2.048   5.358 -2.1524 -0.9089  2.0592
  188MOL0     H24807   3.729   2.217   5.312  2.3631 -2.9962 -3.0503
  188MOL0     H24808   3.630   2.067   5.544  1.9072  1.1685  0.3494
  188MOL0     H24809   3.602   2.240   5.544 -0.5191  0.5026 -0.9030
  188MOL0     H24810   3.486   2.036   5.350  0.9447 -1.4025  1.5157
  188MOL0     H24811   3.489   2.208   5.299 -0.6163  0.4832  0.7754
  188MOL0     H24812   3.382   2.100   5.566  3.7245 -1.8267 -2.0103
  188MOL0     H24813   3.393   2.274   5.524  0.9527 -1.5199  2.9788
  188MOL0     H24814   3.034   2.203   5.336 -0.1712  0.3627  1.1473
  188MOL0     H24815   4.065   2.317   5.578 -0.1592  1.2170 -0.3359
  188MOL0     H24816   4.290   2.370   5.454 -1.1656  3.0256 -0.7541
  189MOL0     O24817   9.968   9.650   6.611  0.2657 -0.4367  1.0839
  189MOL0     C24818  10.054   9.679   6.690  0.6826 -0.0484  0.0799
  189MOL0     O24819  10.060   9.797   6.760  0.1603 -0.2015 -0.0652
  189MOL0     C24820   9.958   9.889   6.761  0.9251 -0.5698 -0.0691
  189MOL0     C24821   9.989  10.027   6.786  0.6284  0.5548 -0.9859
  189MOL0     C24822   9.885  10.118   6.805 -0.1694 -0.1830 -0.2172
  189MOL0     C24823   9.756  10.088   6.790  0.0305 -0.0692 -0.1550
  189MOL0     O24824   9.667  10.193   6.785  0.2285  0.2474  0.4591
  189MOL0     C24825   9.530  10.169   6.751  0.1105 -0.7681 -0.2642
  189MOL0     C24826   9.449  10.297   6.775  1.0608  0.0331 -0.6282
  189MOL0     C24827   9.298  10.278   6.768 -0.5688  0.1544  0.7472
  189MOL0     C24828   9.237  10.212   6.895 -1.0499  0.7176  1.0523
  189MOL0     C24829   9.081  10.194   6.884 -0.7324  0.7183 -0.6506
  189MOL0     C24830   9.022  10.122   7.007  0.4478  0.3107  0.1331
  189MOL0     C24831   8.875  10.075   6.979  0.1041  0.1664  0.4742
  189MOL0     C24832   8.809  10.074   7.120  0.3867 -0.3359 -0.1738
  189MOL0     N24833   8.663  10.034   7.117  0.8860  0.2853 -0.1898
  189MOL0     C24834   8.575  10.066   7.016  0.8351 -0.1299  0.9218
  189MOL0     C24835   8.454  10.047   7.066  1.0492  0.2372  0.7526
  189MOL0     C24836   8.320  10.068   6.992 -0.2215  0.7037  0.8581
  189MOL0     C24837   8.291  10.217   6.972  0.4470  0.0027 -0.3064
  189MOL0     C24838   8.161  10.237   6.897 -0.5227 -0.0683 -0.5653
  189MOL0     C24839   8.048  10.191   6.994  0.5844 -0.0519  1.2554
  189MOL0     O24840   7.984  10.079   6.942 -0.4020 -0.4815 -0.4310
  189MOL0     C24841   7.869  10.107   6.885  0.0624  0.2236 -0.9192
  189MOL0     C24842   7.861  10.084   6.742  0.1291  0.4953 -0.4566
  189MOL0     C24843   7.738  10.102   6.678 -0.0930 -0.1297 -0.4847
  189MOL0     C24844   7.617  10.125   6.747  0.1150  0.2302 -1.1936
  189MOL0     C24845   7.494  10.147   6.676  0.4289 -0.4104 -0.0246
  189MOL0     O24846   7.376  10.161   6.747  0.0262 -0.5757 -0.1748
  189MOL0     C24847   7.264  10.194   6.680  0.7051  0.3691  0.4122
  189MOL0     C24848   7.221  10.118   6.566 -1.1105  0.4247 -0.1410
  189MOL0     C24849   7.102  10.151   6.505  0.0331 -0.4573  1.1611
  189MOL0     C24850   7.020  10.251   6.546 -0.1558 -0.2499  0.1146
  189MOL0     O24851   6.908  10.284   6.477 -0.6783 -0.6664  0.3188
  189MOL0     C24852   6.796  10.310   6.548  0.8804 -0.4161 -0.8469
  189MOL0     C24853   6.682  10.248   6.487  0.4732 -0.2451 -0.3011
  189MOL0     C24854   6.542  10.280   6.543 -0.2850 -0.6814 -0.0547
  189MOL0     C24855   6.433  10.270   6.433  0.1542 -0.5445  0.1743
  189MOL0     C24856   6.292  10.309   6.487  0.2289  0.0773  0.2696
  189MOL0     C24857   6.182  10.290   6.380 -0.9454  0.1316  0.4249
  189MOL0     C24858   6.042  10.328   6.429 -1.0080  0.0226 -0.0796
  189MOL0     C24859   5.950  10.335   6.307  1.0329  0.0344 -0.0996
  189MOL0    Cl24860   5.793  10.380   6.382  0.2093 -0.5088 -0.4216
  189MOL0     C24861   7.059  10.329   6.652  0.4280  0.8212  0.1238
  189MOL0     C24862   7.181  10.297   6.721  0.2558  0.1950  0.4986
  189MOL0     O24863   7.505  10.169   6.556  1.0674  0.4991  0.2549
  189MOL0     C24864   7.633  10.134   6.887  0.4314  0.8736 -0.9240
  189MOL0     C24865   7.750  10.120   6.954 -0.9637 -0.2359 -0.6943
  189MOL0     N24866   8.465   9.998   7.191  0.1369 -0.1961  0.2509
  189MOL0     N24867   8.590   9.982   7.213 -0.3522 -0.3479 -0.6256
  189MOL0     C24868   9.727   9.956   6.771  0.1920  0.0587  0.1168
  189MOL0     C24869   9.824   9.858   6.760  0.0480 -0.6926 -0.0472
  189MOL0     C24870  10.162   9.579   6.718  0.9129  0.5437  0.1690
  189MOL0     C24871  10.178   9.465   6.642  0.6167  0.0980  0.6202
  189MOL0     C24872  10.289   9.380   6.661 -0.0467  0.0301  0.5902
  189MOL0     C24873  10.385   9.404   6.754  0.9505  0.2413  0.2923
  189MOL0     O24874  10.482   9.308   6.788  0.7205  0.7164  0.4194
  189MOL0     C24875  10.598   9.348   6.863 -0.8119  0.3592  0.2563
  189MOL0     C24876  10.576   9.311   7.003  0.0427  0.4097 -0.5348
  189MOL0     C24877  10.678   9.372   7.085  0.7998  0.8914 -0.3355
  189MOL0     C24878  10.677   9.331   7.234  0.1172  0.7050 -0.0931
  189MOL0     C24879  10.709   9.190   7.249  0.4268  0.2488  0.2240
  189MOL0     C24880  10.731   9.073   7.246 -0.4766 -0.8141 -0.5090
  189MOL0     C24881  10.369   9.512   6.837  0.2694 -0.1725 -0.7125
  189MOL0     C24882  10.257   9.600   6.822  0.1501  0.3979  0.0095
  189MOL0     H24883  10.089  10.065   6.802 -0.2082  3.2642 -1.6986
  189MOL0     H24884   9.904  10.222   6.831  1.8186 -1.0102  1.9905
  189MOL0     H24885   9.492  10.080   6.804 -0.3179  0.1950  1.1104
  189MOL0     H24886   9.533  10.147   6.644 -0.2320 -1.6836 -0.0986
  189MOL0     H24887   9.477  10.367   6.696  0.6580  0.9766  0.0357
  189MOL0     H24888   9.473  10.344   6.871 -0.5360  3.5657 -1.7877
  189MOL0     H24889   9.269  10.228   6.675  1.6634  3.3266 -1.8596
  189MOL0     H24890   9.256  10.379   6.767  0.9620  0.8720  2.3317
  189MOL0     H24891   9.292  10.123   6.927  0.5872  0.7960 -1.2450
  189MOL0     H24892   9.256  10.282   6.978  0.5618  0.3770  0.9965
  189MOL0     H24893   9.049  10.128   6.803  1.1354 -2.3053  0.8875
  189MOL0     H24894   9.040  10.295   6.870 -3.2019 -0.4420 -2.7431
  189MOL0     H24895   9.049  10.174   7.100 -0.2395  1.2843 -0.1928
  189MOL0     H24896   9.071  10.025   7.014  0.7887  0.5693  1.6400
  189MOL0     H24897   8.827  10.140   6.905 -2.5281 -1.3831  0.6779
  189MOL0     H24898   8.872   9.971   6.948 -1.6043  0.8098 -1.7938
  189MOL0     H24899   8.813  10.174   7.163 -0.5344 -0.8865  1.2832
  189MOL0     H24900   8.866  10.004   7.182 -2.1595  0.5623  3.5732
  189MOL0     H24901   8.593  10.100   6.914 -2.3117 -0.1219  0.2651
  189MOL0     H24902   8.247  10.022   7.059  2.0880  1.4755  4.1452
  189MOL0     H24903   8.320  10.021   6.893 -0.9325  2.7607 -0.1702
  189MOL0     H24904   8.371  10.258   6.910  0.6406  0.3844  0.1969
  189MOL0     H24905   8.283  10.268   7.068 -1.6202 -0.6649 -0.0631
  189MOL0     H24906   8.152  10.344   6.876  2.5168 -0.1515 -2.9903
  189MOL0     H24907   8.166  10.175   6.807  1.3833  1.6892 -1.7794
  189MOL0     H24908   7.973  10.268   7.015 -1.7641 -1.6387 -0.6816
  189MOL0     H24909   8.092  10.180   7.094  0.8857  1.7375  1.3574
  189MOL0     H24910   7.945  10.060   6.678 -1.7748 -5.0245 -1.4882
  189MOL0     H24911   7.749  10.099   6.570 -0.7207 -2.1328 -0.5300
  189MOL0     H24912   7.285  10.042   6.522  0.6085  3.0945 -2.6707
  189MOL0     H24913   7.064  10.095   6.420 -1.7770  0.3847  1.3638
  189MOL0     H24914   6.770  10.417   6.548 -1.2942 -0.8219 -3.7112
  189MOL0     H24915   6.799  10.278   6.653  0.1828  2.0555  0.0008
  189MOL0     H24916   6.691  10.140   6.478  0.8427 -0.0896 -2.3178
  189MOL0     H24917   6.669  10.291   6.387 -1.7618 -0.7127 -0.2656
  189MOL0     H24918   6.538  10.384   6.579  2.0830 -0.5661  0.0113
  189MOL0     H24919   6.512  10.228   6.634  1.9645  0.9827  1.7642
  189MOL0     H24920   6.459  10.333   6.347  1.1536 -1.0442  0.0977
  189MOL0     H24921   6.420  10.172   6.386  1.2424 -0.5173 -0.1920
  189MOL0     H24922   6.291  10.412   6.523 -1.2486  0.2148 -0.0736
  189MOL0     H24923   6.262  10.243   6.570 -1.2608 -1.6878 -1.5727
  189MOL0     H24924   6.187  10.184   6.355 -0.0015 -0.0764  1.4169
  189MOL0     H24925   6.220  10.343   6.292 -0.1218  3.4177  2.5462
  189MOL0     H24926   6.012  10.252   6.502  1.5754 -0.0553  1.0299
  189MOL0     H24927   6.037  10.424   6.481 -2.3233  1.2052 -2.2714
  189MOL0     H24928   5.934  10.233   6.271 -1.5570  1.4056 -3.3811
  189MOL0     H24929   5.992  10.403   6.233 -1.0683 -0.0671 -1.4941
  189MOL0     H24930   7.004  10.409   6.700  0.2868  0.8813 -0.1319
  189MOL0     H24931   7.196  10.358   6.810  0.2745  0.1511  0.5253
  189MOL0     H24932   7.546  10.127   6.952  2.4318  0.6682  1.9669
  189MOL0     H24933   7.765  10.112   7.061  0.2990 -2.1647 -0.9716
  189MOL0     H24934   9.624   9.923   6.766  0.0422  0.6863 -1.5041
  189MOL0     H24935   9.795   9.754   6.768  0.9796 -0.9659 -0.0924
  189MOL0     H24936  10.111   9.442   6.560  0.6750  0.0663  0.5813
  189MOL0     H24937  10.301   9.299   6.590 -1.1737  2.2246 -2.2855
  189MOL0     H24938  10.614   9.454   6.841 -1.5020  0.1083 -1.7298
  189MOL0     H24939  10.687   9.297   6.824  1.3817  1.6459  3.1908
  189MOL0     H24940  10.481   9.358   7.033  1.2672  2.9950 -0.4519
  189MOL0     H24941  10.567   9.202   7.006  1.0410  0.2817 -1.7102
  189MOL0     H24942  10.664   9.479   7.069 -2.1724  0.3673 -2.0253
  189MOL0     H24943  10.777   9.341   7.049  1.3751 -0.1675  1.9455
  189MOL0     H24944  10.755   9.387   7.287  0.6174  0.7927 -0.8998
  189MOL0     H24945  10.579   9.346   7.280  0.1777  0.5053  0.1035
  189MOL0     H24946  10.756   8.969   7.241  0.9246 -0.8612  3.5827
  189MOL0     H24947  10.433   9.533   6.922 -0.5190  1.4626 -0.4964
  189MOL0     H24948  10.257   9.690   6.883  4.0846  1.1451 -0.8043
  190MOL0     O24949   5.225   7.879   6.587  0.8147  0.4650 -0.9692
  190MOL0     C24950   5.296   7.916   6.496  0.0997 -0.3374  0.4832
  190MOL0     O24951   5.252   7.987   6.388  0.0012 -0.1262 -0.8867
  190MOL0     C24952   5.117   8.012   6.373 -0.5800  0.0781 -0.4672
  190MOL0     C24953   5.088   8.141   6.326 -0.1495 -0.0639 -0.1521
  190MOL0     C24954   4.953   8.187   6.320 -0.5611  0.4039 -0.5868
  190MOL0     C24955   4.845   8.110   6.358 -0.1753  0.7012 -0.3430
  190MOL0     O24956   4.724   8.168   6.353 -0.3573 -0.3302  0.2761
  190MOL0     C24957   4.640   8.095   6.259  0.1832  0.0529 -0.8402
  190MOL0     C24958   4.532   8.179   6.204  0.2373  0.7504 -0.2136
  190MOL0     C24959   4.427   8.222   6.307 -0.1873  0.2256 -0.3338
  190MOL0     C24960   4.303   8.270   6.229 -0.4611 -0.6898  0.4720
  190MOL0     C24961   4.184   8.269   6.324 -0.1360 -0.4089  0.1581
  190MOL0     C24962   4.063   8.327   6.254  0.8232 -0.0441 -1.4933
  190MOL0     C24963   3.940   8.359   6.342  0.3328  0.1842 -0.5544
  190MOL0     C24964   3.917   8.246   6.437  1.2420 -0.6706 -0.3752
  190MOL0     N24965   3.775   8.248   6.488  0.1986  0.0490 -1.0033
  190MOL0     C24966   3.668   8.197   6.420  0.3669  0.6971 -0.1936
  190MOL0     C24967   3.555   8.228   6.487  0.0216 -0.4503  1.0555
  190MOL0     C24968   3.418   8.189   6.453 -0.4084 -0.2857  0.4365
  190MOL0     C24969   3.317   8.305   6.480  0.3279  0.0716  0.3293
  190MOL0     C24970   3.183   8.295   6.400  0.8632  1.1417 -0.0377
  190MOL0     C24971   3.107   8.166   6.434 -0.2470  0.1467  0.5997
  190MOL0     O24972   2.993   8.149   6.347 -0.3708  0.0870  0.1574
  190MOL0     C24973   2.878   8.214   6.372 -0.3733 -1.0144 -0.0627
  190MOL0     C24974   2.861   8.323   6.458 -0.0329  0.4535 -0.2132
  190MOL0     C24975   2.746   8.393   6.477  0.4201  0.8611  0.0200
  190MOL0     C24976   2.636   8.366   6.396 -0.3781  0.8027 -0.2004
  190MOL0     C24977   2.508   8.445   6.409 -0.3811  0.3620 -0.4461
  190MOL0     O24978   2.407   8.384   6.346 -0.5371  0.0479  1.1415
  190MOL0     C24979   2.279   8.430   6.372  0.6624 -1.3406  0.1422
  190MOL0     C24980   2.240   8.562   6.332 -0.0995 -0.1092  0.2847
  190MOL0     C24981   2.118   8.610   6.382  0.6812 -0.0169 -0.3526
  190MOL0     C24982   2.030   8.531   6.459  0.2325 -0.1766  0.0925
  190MOL0     O24983   1.912   8.577   6.518 -0.4884 -0.4174  0.1898
  190MOL0     C24984   1.897   8.715   6.524  0.0646 -0.2711 -1.0545
  190MOL0     C24985   1.767   8.735   6.607 -0.2280  0.1878  1.0109
  190MOL0     C24986   1.642   8.669   6.532  0.5499  0.5461 -0.1206
  190MOL0     C24987   1.585   8.768   6.429 -0.4042  1.0487 -0.3109
  190MOL0     C24988   1.439   8.732   6.393 -0.9341 -0.6870  0.0823
  190MOL0     C24989   1.399   8.833   6.273 -0.3320 -0.1082 -1.5695
  190MOL0     C24990   1.251   8.821   6.231  0.0636 -0.0457 -0.0927
  190MOL0     C24991   1.244   8.692   6.141 -0.2695 -0.4427 -0.1121
  190MOL0    Cl24992   1.078   8.677   6.068 -0.3976 -0.1107  0.0127
  190MOL0     C24993   2.063   8.405   6.493 -1.0215  0.8053  0.0292
  190MOL0     C24994   2.189   8.353   6.448  0.6775 -0.3008 -0.2797
  190MOL0     O24995   2.494   8.533   6.496  0.0913  0.0410  0.3908
  190MOL0     C24996   2.640   8.249   6.317  0.0308 -0.3045 -0.2340
  190MOL0     C24997   2.768   8.177   6.308  0.0130  0.6983 -1.0073
  190MOL0     N24998   3.591   8.308   6.596 -0.0174  0.1066  0.7311
  190MOL0     N24999   3.727   8.315   6.599  0.5757  0.2148  0.3819
  190MOL0     C25000   4.870   7.972   6.392  0.2171  0.3323  0.5782
  190MOL0     C25001   5.003   7.923   6.400 -0.7853  0.2617  0.1047
  190MOL0     C25002   5.435   7.866   6.489 -0.2137  0.0418  0.6393
  190MOL0     C25003   5.489   7.778   6.581  0.1962  0.8248  0.5770
  190MOL0     C25004   5.614   7.723   6.551  0.1504  1.5254 -0.4214
  190MOL0     C25005   5.682   7.733   6.429  0.2074  0.3090 -0.9288
  190MOL0     O25006   5.792   7.667   6.416  0.6611  0.2611 -0.2984
  190MOL0     C25007   5.897   7.725   6.337  0.0382  0.0346 -0.0919
  190MOL0     C25008   6.024   7.642   6.356 -0.2363  0.4591 -0.7390
  190MOL0     C25009   6.040   7.600   6.497  0.0406  0.9993 -0.4158
  190MOL0     C25010   6.187   7.588   6.526  0.7370  0.0460  0.0884
  190MOL0     C25011   6.226   7.618   6.660 -0.7754 -0.1037 -0.5385
  190MOL0     C25012   6.259   7.621   6.773 -0.8147  0.3317 -0.8669
  190MOL0     C25013   5.628   7.816   6.331 -0.7435 -0.4026 -0.1898
  190MOL0     C25014   5.503   7.879   6.362  0.0548  0.8989 -0.0929
  190MOL0     H25015   5.169   8.209   6.301 -1.6088  1.2095 -1.5625
  190MOL0     H25016   4.949   8.292   6.295  1.4021  1.2286  2.0853
  190MOL0     H25017   4.609   8.008   6.317  0.4766 -0.6908 -1.7674
  190MOL0     H25018   4.698   8.063   6.172 -0.1670 -1.8947 -0.4014
  190MOL0     H25019   4.484   8.115   6.130  0.1761  0.5262  0.0172
  190MOL0     H25020   4.582   8.269   6.167  2.8497 -0.6128 -0.1770
  190MOL0     H25021   4.464   8.302   6.372  0.3113 -1.0653  1.0258
  190MOL0     H25022   4.389   8.136   6.363 -2.3663  0.8657 -0.7308
  190MOL0     H25023   4.313   8.369   6.185  1.0462 -1.6414 -1.5022
  190MOL0     H25024   4.277   8.197   6.152  0.2057 -0.7763  0.3225
  190MOL0     H25025   4.202   8.331   6.412  0.3531  1.1691 -0.9943
  190MOL0     H25026   4.164   8.168   6.360 -0.4787  1.0334  4.5100
  190MOL0     H25027   4.035   8.250   6.180  2.7727 -1.4166 -0.9069
  190MOL0     H25028   4.092   8.422   6.208 -0.7570  1.7698  1.0133
  190MOL0     H25029   3.962   8.448   6.401 -2.4925  0.6662 -0.0734
  190MOL0     H25030   3.858   8.374   6.271 -0.1957  0.9485  0.2044
  190MOL0     H25031   3.993   8.257   6.516 -1.4403 -1.2094  2.4547
  190MOL0     H25032   3.925   8.148   6.389 -1.1328 -0.6920 -0.8505
  190MOL0     H25033   3.676   8.140   6.328 -2.7749  0.9359 -0.7199
  190MOL0     H25034   3.387   8.097   6.504 -0.7034 -1.4861 -1.7759
  190MOL0     H25035   3.408   8.168   6.346  1.7617  0.3763  0.0657
  190MOL0     H25036   3.368   8.391   6.438  1.9194 -2.1364 -2.6326
  190MOL0     H25037   3.297   8.318   6.587  0.6430 -1.8526  0.6657
  190MOL0     H25038   3.117   8.380   6.421 -1.2203 -0.5017  0.4450
  190MOL0     H25039   3.199   8.300   6.292 -0.0733 -0.3347 -0.2724
  190MOL0     H25040   3.077   8.177   6.538 -2.8702 -2.3011  0.2398
  190MOL0     H25041   3.166   8.074   6.437  2.4989  1.8269  1.4259
  190MOL0     H25042   2.939   8.370   6.517 -0.1909  3.3755 -2.1379
  190MOL0     H25043   2.739   8.479   6.542 -0.4605  2.5545 -2.1955
  190MOL0     H25044   2.307   8.626   6.276 -0.4294 -2.0493 -2.5378
  190MOL0     H25045   2.098   8.712   6.353  2.1428 -0.1341 -1.9230
  190MOL0     H25046   1.872   8.755   6.425  1.0758  1.2949 -0.7047
  190MOL0     H25047   1.982   8.772   6.559  2.0566 -2.0342 -2.7350
  190MOL0     H25048   1.757   8.844   6.618 -0.7438  1.0617 -4.6780
  190MOL0     H25049   1.782   8.690   6.705 -4.3458 -2.4294  0.6859
  190MOL0     H25050   1.566   8.640   6.605  0.2189 -2.2525 -1.4574
  190MOL0     H25051   1.669   8.575   6.483  0.8103  0.2546  0.5664
  190MOL0     H25052   1.581   8.873   6.461  0.6806  1.1501 -0.4581
  190MOL0     H25053   1.652   8.751   6.344  1.5453  0.8028  1.2038
  190MOL0     H25054   1.373   8.740   6.480 -1.4652  0.1427 -0.3828
  190MOL0     H25055   1.429   8.629   6.358 -0.5265 -0.3741 -1.0037
  190MOL0     H25056   1.474   8.813   6.197  1.6825  1.6902 -0.1599
  190MOL0     H25057   1.417   8.931   6.317  1.0778 -0.8037 -0.5251
  190MOL0     H25058   1.183   8.810   6.316  0.1672  0.9032  0.1191
  190MOL0     H25059   1.219   8.915   6.186  1.5747  1.0282  1.0169
  190MOL0     H25060   1.275   8.603   6.196 -0.9282 -0.4754  0.2164
  190MOL0     H25061   1.310   8.710   6.055 -1.1401  3.3047 -0.1559
  190MOL0     H25062   1.991   8.344   6.547 -0.8741  1.2695  0.7693
  190MOL0     H25063   2.225   8.254   6.476  2.5703  0.3551 -0.2604
  190MOL0     H25064   2.564   8.244   6.240  0.0286  0.4697 -0.2935
  190MOL0     H25065   2.781   8.086   6.249 -1.0866 -0.3549  0.2928
  190MOL0     H25066   4.784   7.906   6.390 -1.1704  2.0795 -0.5338
  190MOL0     H25067   5.011   7.826   6.447 -2.2765  0.7186  1.3953
  190MOL0     H25068   5.422   7.753   6.663  0.7359 -1.2021  0.4553
  190MOL0     H25069   5.648   7.641   6.614 -1.5834 -1.5679 -3.2142
  190MOL0     H25070   5.921   7.829   6.363  0.8864 -0.4221  1.0404
  190MOL0     H25071   5.860   7.725   6.234  0.7092 -1.1496 -0.3506
  190MOL0     H25072   6.017   7.543   6.309 -0.4926 -1.5796  3.1253
  190MOL0     H25073   6.107   7.703   6.318 -0.1946 -0.0260 -1.4403
  190MOL0     H25074   5.990   7.508   6.531 -0.4550  1.3726 -0.1021
  190MOL0     H25075   5.995   7.674   6.564  3.2163  0.4364  2.6021
  190MOL0     H25076   6.228   7.494   6.490 -3.1818 -2.1976  0.8948
  190MOL0     H25077   6.232   7.672   6.471  1.0715 -0.2291 -0.0590
  190MOL0     H25078   6.295   7.617   6.874  1.1511 -1.3779 -1.5725
  190MOL0     H25079   5.673   7.839   6.235  0.2866  1.4695  0.6908
  190MOL0     H25080   5.463   7.942   6.283  0.1960  1.5636  0.3548
  191MOL0     O25081   1.798  10.643  11.078 -0.2657  0.4051  0.1841
  191MOL0     C25082   1.816  10.567  11.179  0.1704  0.3545  0.7095
  191MOL0     O25083   1.707  10.512  11.247  0.1263 -0.5397 -1.4640
  191MOL0     C25084   1.579  10.557  11.213 -0.5867  0.1900  0.1157
  191MOL0     C25085   1.512  10.660  11.281  1.1399 -0.1143 -0.4074
  191MOL0     C25086   1.372  10.683  11.256 -0.6563 -0.4331 -0.5105
  191MOL0     C25087   1.307  10.623  11.150  0.0280 -0.7936 -0.4297
  191MOL0     O25088   1.183  10.663  11.109  0.2690  0.2994 -0.5165
  191MOL0     C25089   1.102  10.729  11.193  1.5375 -0.2484  0.3450
  191MOL0     C25090   0.981  10.782  11.112  0.6079 -0.4102 -0.8255
  191MOL0     C25091   0.867  10.824  11.209 -0.3777 -0.2055 -0.0159
  191MOL0     C25092   0.746  10.888  11.126  0.6693 -0.1940 -0.3349
  191MOL0     C25093   0.636  10.945  11.219  0.1662 -0.1676  0.0398
  191MOL0     C25094   0.528  11.028  11.141  0.2931  0.4958 -0.0951
  191MOL0     C25095   0.445  11.127  11.242  0.4136  0.1765  0.0459
  191MOL0     C25096   0.409  11.053  11.376 -0.1304 -0.6755 -0.4622
  191MOL0     N25097   0.310  11.135  11.440  0.9472 -0.3298 -0.7247
  191MOL0     C25098   0.340  11.237  11.525  0.1513  0.2481  0.3648
  191MOL0     C25099   0.220  11.295  11.556 -0.8514 -0.7562  0.0240
  191MOL0     C25100   0.190  11.425  11.641  0.6058  0.2979  0.5204
  191MOL0     C25101   0.310  11.516  11.648 -0.2440  0.4283 -0.5058
  191MOL0     C25102   0.348  11.592  11.520  0.2756  0.0274 -0.3242
  191MOL0     C25103   0.479  11.660  11.533  1.2107 -0.0408 -0.7936
  191MOL0     O25104   0.586  11.574  11.584  0.4629 -0.0113  0.1607
  191MOL0     C25105   0.712  11.616  11.594 -0.4367  0.3439  0.2870
  191MOL0     C25106   0.753  11.747  11.581 -0.9798 -1.3141  0.9596
  191MOL0     C25107   0.879  11.788  11.613  0.2310 -0.4361  0.8965
  191MOL0     C25108   0.979  11.701  11.654 -0.4144  0.8276 -0.6622
  191MOL0     C25109   1.124  11.740  11.677  0.6823 -0.4146  0.1656
  191MOL0     O25110   1.148  11.844  11.760  0.2796  0.7582  0.6544
  191MOL0     C25111   1.278  11.877  11.806  0.4118 -1.3527  1.6551
  191MOL0     C25112   1.311  12.015  11.809 -1.1428  0.9386 -0.0983
  191MOL0     C25113   1.442  12.059  11.850  0.1660 -1.0986  0.3857
  191MOL0     C25114   1.536  11.971  11.900  0.3318  0.5206  0.8505
  191MOL0     O25115   1.657  11.992  11.955  0.0277  0.4756  0.1071
  191MOL0     C25116   1.732  12.100  11.901 -0.5271 -0.0983  2.1161
  191MOL0     C25117   1.886  12.084  11.927  0.1841  0.7890  0.6908
  191MOL0     C25118   1.953  11.960  11.856 -0.3827  0.4137  0.1987
  191MOL0     C25119   2.101  11.963  11.904  0.2996 -0.8465  0.7152
  191MOL0     C25120   2.198  11.874  11.831 -0.1190  0.0836  0.2064
  191MOL0     C25121   2.339  11.944  11.839  0.3688 -0.8674 -0.1472
  191MOL0     C25122   2.456  11.865  11.784 -0.9956  0.2115 -0.4972
  191MOL0     C25123   2.469  11.725  11.822  0.0391  0.7899  0.2712
  191MOL0    Cl25124   2.637  11.655  11.793 -0.0355 -0.2759 -0.0990
  191MOL0     C25125   1.503  11.829  11.894 -0.6638 -0.3030  0.2045
  191MOL0     C25126   1.380  11.786  11.856  0.2723 -0.6110  0.8424
  191MOL0     O25127   1.204  11.665  11.634  0.2524  0.0758  0.0372
  191MOL0     C25128   0.937  11.568  11.677 -0.8523  0.2975  0.2217
  191MOL0     C25129   0.805  11.530  11.643  0.9040 -0.6055 -0.2972
  191MOL0     N25130   0.115  11.221  11.490  0.0789 -0.4714  0.3469
  191MOL0     N25131   0.170  11.127  11.420  0.1203  0.4330  0.6696
  191MOL0     C25132   1.383  10.529  11.074  0.3808 -0.3670 -0.4316
  191MOL0     C25133   1.511  10.491  11.112  0.1202 -0.6515  0.2501
  191MOL0     C25134   1.954  10.519  11.220  0.4772  0.1960  0.1418
  191MOL0     C25135   2.064  10.525  11.132  0.3590  0.1342 -0.3463
  191MOL0     C25136   2.186  10.474  11.179 -0.3096  0.6858  0.1154
  191MOL0     C25137   2.201  10.398  11.295  0.4238  1.4204  0.4052
  191MOL0     O25138   2.312  10.324  11.338 -0.0037  0.0932  0.3886
  191MOL0     C25139   2.401  10.267  11.230 -0.2213 -0.2076 -0.4888
  191MOL0     C25140   2.492  10.152  11.274  0.2489 -0.3146 -0.2374
  191MOL0     C25141   2.580  10.195  11.403  0.6502 -0.2435  0.2097
  191MOL0     C25142   2.668  10.076  11.464  0.7595 -0.4223  0.4563
  191MOL0     C25143   2.583   9.960  11.509 -0.4004 -0.1829 -0.3956
  191MOL0     C25144   2.518   9.868  11.546  0.6787 -0.3363 -0.3790
  191MOL0     C25145   2.091  10.405  11.381  0.6671 -0.4000  0.3868
  191MOL0     C25146   1.968  10.462  11.346  0.5492  0.3324  0.0292
  191MOL0     H25147   1.567  10.705  11.363  2.2304 -4.2310  1.3931
  191MOL0     H25148   1.328  10.746  11.332  1.9123  0.9496 -0.0560
  191MOL0     H25149   1.134  10.809  11.260 -2.4598  3.6055 -1.8700
  191MOL0     H25150   1.044  10.653  11.247  0.6912  0.5680  0.5971
  191MOL0     H25151   0.943  10.713  11.036 -2.0377 -0.6076  0.5835
  191MOL0     H25152   1.016  10.871  11.058  0.6169 -1.1873 -2.1396
  191MOL0     H25153   0.899  10.894  11.286 -0.6526 -2.7319  2.5578
  191MOL0     H25154   0.841  10.733  11.263 -2.1035 -0.3169 -0.9528
  191MOL0     H25155   0.796  10.962  11.063  2.1423 -2.8163 -2.4974
  191MOL0     H25156   0.710  10.818  11.050  2.8818 -1.2378 -0.5054
  191MOL0     H25157   0.686  11.012  11.289 -1.0485 -0.4023  1.1753
  191MOL0     H25158   0.589  10.866  11.279 -1.8445 -0.3696 -1.6788
  191MOL0     H25159   0.458  10.958  11.094 -0.6538  1.2497  0.1638
  191MOL0     H25160   0.568  11.085  11.057  0.7878 -0.5331 -0.5781
  191MOL0     H25161   0.499  11.218  11.271  1.3637 -0.7411  1.3014
  191MOL0     H25162   0.348  11.157  11.202 -0.6757  0.3047  2.5628
  191MOL0     H25163   0.492  11.040  11.445 -2.6368 -2.2182  2.4974
  191MOL0     H25164   0.379  10.949  11.361 -1.0085 -0.6849  1.1990
  191MOL0     H25165   0.440  11.264  11.557  0.4754 -0.7956  0.2637
  191MOL0     H25166   0.159  11.395  11.741 -1.2211 -1.8874 -0.5909
  191MOL0     H25167   0.106  11.481  11.600  0.5529  0.1487  0.4220
  191MOL0     H25168   0.397  11.462  11.686 -1.9134 -0.3187  2.6214
  191MOL0     H25169   0.288  11.597  11.719 -1.6686 -0.3544 -0.0101
  191MOL0     H25170   0.349  11.524  11.435  0.6862 -1.4294  0.8053
  191MOL0     H25171   0.269  11.662  11.490  0.6148 -0.6691 -3.0456
  191MOL0     H25172   0.466  11.732  11.614  0.1163  0.6384 -1.5504
  191MOL0     H25173   0.501  11.716  11.443 -1.2538  2.2115 -0.1363
  191MOL0     H25174   0.688  11.827  11.548  3.2242  1.3431 -2.0491
  191MOL0     H25175   0.897  11.894  11.617 -0.6814 -0.0312 -2.5506
  191MOL0     H25176   1.240  12.090  11.775 -0.5003  2.0991  1.0452
  191MOL0     H25177   1.465  12.165  11.846 -2.7301 -0.4371 -2.0767
  191MOL0     H25178   1.686  12.187  11.948 -3.3375  0.7773 -1.8024
  191MOL0     H25179   1.732  12.118  11.793  3.6942  0.4210  2.0178
  191MOL0     H25180   1.892  12.066  12.035 -0.2615 -0.6448  0.4876
  191MOL0     H25181   1.942  12.174  11.897  1.3096 -0.2279 -0.3451
  191MOL0     H25182   1.934  11.970  11.749  3.7889 -0.1255 -0.7622
  191MOL0     H25183   1.905  11.870  11.894  1.3964 -0.5058  0.3871
  191MOL0     H25184   2.121  12.068  11.880 -3.4864  0.1699  1.4462
  191MOL0     H25185   2.120  11.953  12.011  0.8066  0.1812  0.7382
  191MOL0     H25186   2.179  11.851  11.725  0.0935 -1.5869  0.5122
  191MOL0     H25187   2.199  11.779  11.885 -0.0011 -0.6718 -1.0800
  191MOL0     H25188   2.352  11.977  11.943  0.5549 -0.0378 -0.4287
  191MOL0     H25189   2.326  12.039  11.788  2.5081 -0.2787  0.3075
  191MOL0     H25190   2.457  11.869  11.675 -0.5027 -2.6083 -0.6939
  191MOL0     H25191   2.548  11.912  11.821 -0.9214  0.8719 -1.4826
  191MOL0     H25192   2.391  11.675  11.764 -0.4393 -1.2499  2.4741
  191MOL0     H25193   2.447  11.712  11.928  1.8146 -3.9734  0.3238
  191MOL0     H25194   1.571  11.747  11.912  0.2546  0.5835  0.9610
  191MOL0     H25195   1.360  11.680  11.853 -1.5470 -0.2865 -1.1272
  191MOL0     H25196   1.012  11.495  11.706 -1.0426 -0.7739 -1.8545
  191MOL0     H25197   0.790  11.423  11.658  0.5275 -0.5359 -0.1598
  191MOL0     H25198   1.339  10.479  10.988  3.0698 -0.1383 -2.0743
  191MOL0     H25199   1.569  10.412  11.066  0.7171  0.2146 -0.5155
  191MOL0     H25200   2.056  10.572  11.035  0.1421  1.5204  0.3184
  191MOL0     H25201   2.274  10.480  11.116  0.0659  0.4367  0.6087
  191MOL0     H25202   2.467  10.345  11.192 -1.8637  2.6612  2.1002
  191MOL0     H25203   2.338  10.218  11.155 -1.3839 -1.7954  1.4207
  191MOL0     H25204   2.431  10.069  11.312 -0.9336  1.1041  1.1005
  191MOL0     H25205   2.558  10.123  11.193  0.7933  0.4618 -0.0786
  191MOL0     H25206   2.505  10.236  11.470  0.6276  1.1334 -0.6236
  191MOL0     H25207   2.652  10.273  11.374  0.3808  0.2203  0.7797
  191MOL0     H25208   2.749  10.054  11.393  0.7343 -4.4579  1.4227
  191MOL0     H25209   2.719  10.108  11.555 -0.7091  0.0972  1.1178
  191MOL0     H25210   2.460   9.788  11.588 -0.1829  1.3201  1.7887
  191MOL0     H25211   2.101  10.365  11.481 -2.0367  1.4031  1.4942
  191MOL0     H25212   1.878  10.457  11.407 -2.8291  0.5018 -4.4381
  192MOL0     O25213   2.232   0.939   3.133  0.3379 -0.5417 -0.0568
  192MOL0     C25214   2.329   0.943   3.208  0.3132  0.2178  0.6205
  192MOL0     O25215   2.325   0.950   3.345  0.4472 -0.1105 -0.0347
  192MOL0     C25216   2.210   0.966   3.419 -0.2461 -0.3076  0.1383
  192MOL0     C25217   2.078   0.932   3.388 -0.0177  0.1309  0.0233
  192MOL0     C25218   1.974   0.942   3.483 -0.5133 -0.1483 -0.2416
  192MOL0     C25219   1.997   0.979   3.611  0.1164 -0.0048 -0.1723
  192MOL0     O25220   1.891   0.989   3.700 -0.1264 -0.5818 -0.3918
  192MOL0     C25221   1.909   0.945   3.832 -0.0215 -0.0663 -1.0397
  192MOL0     C25222   1.918   1.063   3.933 -0.4766 -0.2862  0.4274
  192MOL0     C25223   1.781   1.125   3.949  0.5792  0.3903 -0.0129
  192MOL0     C25224   1.789   1.235   4.044 -0.0553  0.1311  0.1070
  192MOL0     C25225   1.673   1.325   4.053  0.2422 -0.0243  0.3733
  192MOL0     C25226   1.539   1.247   4.048 -0.0969  0.2108 -0.5834
  192MOL0     C25227   1.428   1.352   3.997  0.2626 -0.1422  0.2067
  192MOL0     C25228   1.339   1.394   4.111  0.2037  0.4749 -0.0816
  192MOL0     N25229   1.229   1.484   4.065 -0.9035  0.2865  0.1349
  192MOL0     C25230   1.097   1.454   4.063 -0.1287 -0.2168  0.4482
  192MOL0     C25231   1.032   1.569   4.061  0.9472 -0.2204  0.7851
  192MOL0     C25232   0.886   1.587   4.078  0.7960 -0.2699  0.1783
  192MOL0     C25233   0.820   1.553   3.938 -0.1290  0.1630  0.2954
  192MOL0     C25234   0.663   1.543   3.962 -0.5578  0.2520  0.1972
  192MOL0     C25235   0.588   1.629   4.069 -0.0686 -0.1599 -0.7190
  192MOL0     O25236   0.436   1.613   4.061  0.0690  0.5161 -0.2366
  192MOL0     C25237   0.359   1.684   3.974  0.2797 -0.5683 -0.2289
  192MOL0     C25238   0.407   1.763   3.869  0.8092  0.5134  0.2714
  192MOL0     C25239   0.319   1.825   3.785 -0.6222  0.4653 -0.0057
  192MOL0     C25240   0.184   1.801   3.793 -0.0379 -0.4207 -1.2379
  192MOL0     C25241   0.091   1.879   3.696 -0.2600  0.6632 -0.3539
  192MOL0     O25242  -0.042   1.871   3.722 -0.1179  0.5954  0.5411
  192MOL0     C25243  -0.125   1.914   3.620  0.0215 -0.0592 -0.2126
  192MOL0     C25244  -0.238   1.984   3.662 -0.3032 -0.4209 -0.0241
  192MOL0     C25245  -0.339   2.028   3.575  0.0125 -0.1261  0.1548
  192MOL0     C25246  -0.329   2.005   3.433 -0.4584  0.2777 -0.2766
  192MOL0     O25247  -0.440   2.044   3.366 -0.1092 -0.4272  0.5174
  192MOL0     C25248  -0.470   1.968   3.243  0.0171 -0.1408 -0.4484
  192MOL0     C25249  -0.588   2.041   3.180  0.4595 -0.4905  0.9148
  192MOL0     C25250  -0.706   2.037   3.277  0.4531  0.5347 -0.4721
  192MOL0     C25251  -0.841   2.040   3.189 -0.4245 -0.1859  0.6416
  192MOL0     C25252  -0.968   2.024   3.276 -0.8552  0.6648  1.4446
  192MOL0     C25253  -1.089   2.086   3.196  0.3919 -0.2937 -0.1983
  192MOL0     C25254  -1.229   2.068   3.262 -1.3402  0.9845  0.7991
  192MOL0     C25255  -1.227   2.083   3.415  0.0444  0.6189  0.4336
  192MOL0    Cl25256  -1.388   2.067   3.479  0.1463  0.1286 -0.2318
  192MOL0     C25257  -0.219   1.928   3.394  0.1166 -0.2662  0.6745
  192MOL0     C25258  -0.130   1.881   3.483 -0.2880  0.3949 -0.4372
  192MOL0     O25259   0.137   1.941   3.600 -0.3736  0.2115 -0.1536
  192MOL0     C25260   0.136   1.738   3.903  0.2384 -0.0134  0.4652
  192MOL0     C25261   0.222   1.677   3.991 -0.2260  0.5304  0.3509
  192MOL0     N25262   1.125   1.672   4.050  0.6777 -0.0070 -0.5650
  192MOL0     N25263   1.240   1.619   4.047 -0.0306  0.0053  0.0001
  192MOL0     C25264   2.132   1.011   3.641 -0.4705 -0.0753  0.6046
  192MOL0     C25265   2.233   1.015   3.543  0.3585  0.9894  0.0029
  192MOL0     C25266   2.473   0.957   3.151  0.6919 -1.3247  0.4332
  192MOL0     C25267   2.576   1.006   3.237  0.2000 -0.4769  0.5178
  192MOL0     C25268   2.709   0.992   3.181  0.9336 -0.8410 -0.5978
  192MOL0     C25269   2.728   0.937   3.050 -0.2505  0.4927 -0.4156
  192MOL0     O25270   2.857   0.932   2.999 -0.0199 -0.4706 -0.2218
  192MOL0     C25271   2.975   0.938   3.085  0.1405 -0.3839  0.6278
  192MOL0     C25272   3.098   0.895   3.001  0.3201 -0.9234 -0.9540
  192MOL0     C25273   3.136   0.971   2.877  0.1254 -0.6262  0.5624
  192MOL0     C25274   3.233   1.092   2.913  0.2731  0.7086  0.1917
  192MOL0     C25275   3.251   1.199   2.815  0.2103  0.0459 -0.1456
  192MOL0     C25276   3.262   1.275   2.717 -0.0812 -0.3872  0.9657
  192MOL0     C25277   2.621   0.905   2.973  0.3384  0.3592  1.0723
  192MOL0     C25278   2.489   0.918   3.015 -0.0248  0.3965 -0.8123
  192MOL0     H25279   2.049   0.893   3.291 -0.2298  1.1316 -0.3270
  192MOL0     H25280   1.873   0.916   3.451 -0.6063  0.5106 -0.4939
  192MOL0     H25281   1.997   0.883   3.854  1.5435  2.5855  0.6712
  192MOL0     H25282   1.830   0.874   3.857  0.3035 -0.7469 -1.8968
  192MOL0     H25283   1.987   1.140   3.895 -1.7993  2.2905  2.8334
  192MOL0     H25284   1.960   1.025   4.026  1.5544  2.0134  0.5628
  192MOL0     H25285   1.716   1.047   3.988 -1.0120  1.6907  0.0356
  192MOL0     H25286   1.739   1.161   3.855 -2.5105 -1.3330  0.5680
  192MOL0     H25287   1.812   1.194   4.143 -0.5443 -1.5017 -0.4270
  192MOL0     H25288   1.868   1.301   4.007 -1.3761  1.1307 -1.0480
  192MOL0     H25289   1.671   1.388   3.964  0.2791 -0.5451  0.0040
  192MOL0     H25290   1.672   1.399   4.134 -1.2127 -0.2821  0.6221
  192MOL0     H25291   1.511   1.212   4.148  2.9907 -0.1081  0.2702
  192MOL0     H25292   1.539   1.170   3.970 -2.4957 -1.4152  0.8735
  192MOL0     H25293   1.471   1.444   3.955  2.5241 -1.1300  0.1847
  192MOL0     H25294   1.368   1.300   3.923  0.1159 -1.0440  0.9499
  192MOL0     H25295   1.400   1.452   4.181  3.5278 -0.7775 -1.7171
  192MOL0     H25296   1.302   1.306   4.163  0.5028  0.1418 -0.4258
  192MOL0     H25297   1.052   1.355   4.070 -1.3676  0.4240  2.8072
  192MOL0     H25298   0.865   1.688   4.114  3.6000  0.0349  1.2394
  192MOL0     H25299   0.833   1.523   4.149  2.1003 -2.3748 -0.6649
  192MOL0     H25300   0.857   1.461   3.892  0.3231  1.0895 -1.2747
  192MOL0     H25301   0.842   1.630   3.863  2.9692 -1.6725 -0.8461
  192MOL0     H25302   0.609   1.575   3.872 -1.3717  1.5193  1.0955
  192MOL0     H25303   0.648   1.437   3.983  0.8409  0.4222  2.3266
  192MOL0     H25304   0.617   1.733   4.049  0.1368 -0.2859 -1.0823
  192MOL0     H25305   0.624   1.606   4.170  5.5365 -0.5370 -2.4791
  192MOL0     H25306   0.514   1.771   3.850  0.5820  1.4770 -0.6813
  192MOL0     H25307   0.337   1.889   3.699  1.4317 -0.0717 -0.0328
  192MOL0     H25308  -0.254   1.989   3.769  1.6448  0.3368  0.2534
  192MOL0     H25309  -0.425   2.078   3.618  0.4284  1.9716 -1.3046
  192MOL0     H25310  -0.501   1.868   3.276  3.1516 -0.6805  1.2967
  192MOL0     H25311  -0.381   1.973   3.178 -0.0958  1.1244 -0.5279
  192MOL0     H25312  -0.608   1.979   3.093 -1.0580  0.9938  0.1482
  192MOL0     H25313  -0.555   2.142   3.152  0.7475 -1.0655 -0.8980
  192MOL0     H25314  -0.709   2.117   3.352 -4.8590 -1.0042  1.4346
  192MOL0     H25315  -0.699   1.936   3.321  2.5824 -0.2025 -2.3533
  192MOL0     H25316  -0.856   2.133   3.132  0.5202 -1.0684 -1.1379
  192MOL0     H25317  -0.835   1.953   3.123 -0.1650  0.3660 -0.0822
  192MOL0     H25318  -0.947   2.069   3.373 -1.5659 -0.4146  2.1290
  192MOL0     H25319  -0.989   1.917   3.287  1.0976  0.1561  0.6825
  192MOL0     H25320  -1.087   2.049   3.093  0.3277 -1.9386  0.3650
  192MOL0     H25321  -1.074   2.194   3.198  3.0158 -0.5953  1.1368
  192MOL0     H25322  -1.299   2.131   3.206 -1.3825 -0.1225 -0.4567
  192MOL0     H25323  -1.258   1.967   3.231  2.2588  0.1026 -0.2350
  192MOL0     H25324  -1.186   2.183   3.429  1.9562  0.0619 -0.6852
  192MOL0     H25325  -1.152   2.020   3.464  2.4251  3.1075  0.1995
  192MOL0     H25326  -0.216   1.908   3.287  1.8636 -1.4091  0.9083
  192MOL0     H25327  -0.053   1.819   3.439  0.8778  0.9203  0.7810
  192MOL0     H25328   0.029   1.743   3.921  0.2794  1.2450  0.4877
  192MOL0     H25329   0.174   1.620   4.070 -1.4848  3.5495  1.9622
  192MOL0     H25330   2.160   1.035   3.744  1.1760 -2.0172  0.6825
  192MOL0     H25331   2.336   1.044   3.564  1.0297  0.0482 -1.7973
  192MOL0     H25332   2.560   1.055   3.333  0.4074 -0.7062  0.6678
  192MOL0     H25333   2.796   1.024   3.238 -2.1834  0.0010  4.3257
  192MOL0     H25334   2.955   0.877   3.174  1.5259 -0.5270  0.8623
  192MOL0     H25335   2.998   1.039   3.120 -1.5030  0.2706 -0.1008
  192MOL0     H25336   3.175   0.883   3.078 -1.4365 -0.8320  0.8649
  192MOL0     H25337   3.076   0.792   2.972 -0.9810 -1.6918  2.3756
  192MOL0     H25338   3.045   1.012   2.832  0.0840  0.9635  1.9956
  192MOL0     H25339   3.180   0.917   2.793 -2.7732 -1.6918 -0.3988
  192MOL0     H25340   3.211   1.138   3.010 -0.0873  0.9323  0.0055
  192MOL0     H25341   3.329   1.041   2.929 -0.9932 -2.4733 -1.4951
  192MOL0     H25342   3.269   1.338   2.631  1.1212 -1.7230  0.0395
  192MOL0     H25343   2.623   0.872   2.870 -0.2729 -3.6063  2.1933
  192MOL0     H25344   2.418   0.879   2.943 -0.3095  2.7947 -1.9251
  193MOL0     O25345   3.045   5.948   7.474 -1.0772  0.4935  0.0185
  193MOL0     C25346   3.036   6.025   7.574 -0.4965 -0.2450  0.6485
  193MOL0     O25347   3.127   6.028   7.678  0.2628  0.2333 -0.7854
  193MOL0     C25348   3.262   5.988   7.660  0.3951  0.1214  0.0612
  193MOL0     C25349   3.326   5.960   7.534 -0.1968 -0.1358  0.4001
  193MOL0     C25350   3.457   5.896   7.522  0.6331 -0.5316 -0.4937
  193MOL0     C25351   3.528   5.877   7.642  0.2105 -0.8213 -0.6664
  193MOL0     O25352   3.648   5.821   7.646 -0.1516 -0.5067 -0.2896
  193MOL0     C25353   3.730   5.827   7.533  0.0931 -0.1356  0.1063
  193MOL0     C25354   3.874   5.775   7.557  0.1886 -0.6017  0.6870
  193MOL0     C25355   3.866   5.644   7.614 -0.3732 -0.8182 -0.6139
  193MOL0     C25356   4.007   5.586   7.649 -0.8015  0.3357  0.0353
  193MOL0     C25357   4.013   5.434   7.603  0.0796 -0.6630  0.2021
  193MOL0     C25358   4.139   5.376   7.665  0.2547 -0.0689 -0.0476
  193MOL0     C25359   4.261   5.401   7.568 -0.1238 -0.4781  0.0819
  193MOL0     C25360   4.393   5.360   7.641  0.4970  0.0701  0.0484
  193MOL0     N25361   4.389   5.228   7.705 -1.3621 -0.2537 -0.2289
  193MOL0     C25362   4.414   5.197   7.834  0.2858  0.7910 -0.0186
  193MOL0     C25363   4.420   5.060   7.839 -0.0329 -1.4508  0.8539
  193MOL0     C25364   4.430   4.968   7.952  1.1099  0.0257 -0.1073
  193MOL0     C25365   4.290   4.936   8.015 -0.3688 -0.3733 -0.4564
  193MOL0     C25366   4.294   4.861   8.157  0.2964  0.5297 -0.5079
  193MOL0     C25367   4.163   4.794   8.202 -0.4104  0.1401 -0.3163
  193MOL0     O25368   4.093   4.896   8.276 -0.1974  0.1160  0.6931
  193MOL0     C25369   3.980   4.863   8.347  0.4536  0.0147 -0.1728
  193MOL0     C25370   3.948   4.735   8.394 -0.1154 -0.6320 -0.1809
  193MOL0     C25371   3.821   4.717   8.443  0.5245  0.3347 -0.2043
  193MOL0     C25372   3.726   4.810   8.450 -0.7201 -0.9091 -0.0764
  193MOL0     C25373   3.588   4.773   8.492 -0.4157 -0.3086 -0.2758
  193MOL0     O25374   3.561   4.640   8.498  0.4747 -0.5554 -0.3002
  193MOL0     C25375   3.441   4.595   8.543  0.3227  0.7394  1.1738
  193MOL0     C25376   3.443   4.463   8.591 -0.2786  0.7209 -0.6192
  193MOL0     C25377   3.318   4.402   8.621 -0.7299  0.6712 -0.6068
  193MOL0     C25378   3.198   4.462   8.598 -0.4722 -0.1690  0.8290
  193MOL0     O25379   3.079   4.391   8.629  0.1377  0.3572  0.3034
  193MOL0     C25380   3.005   4.434   8.744 -0.5553  0.5228  0.0108
  193MOL0     C25381   2.868   4.361   8.752 -0.9064 -0.1052  0.7249
  193MOL0     C25382   2.798   4.365   8.893  0.3820 -0.5981  0.1391
  193MOL0     C25383   2.654   4.305   8.875  0.0597  0.7437 -0.4307
  193MOL0     C25384   2.585   4.251   8.998  0.0106 -0.0893  0.6840
  193MOL0     C25385   2.432   4.226   8.967 -0.1837 -0.2335 -0.7309
  193MOL0     C25386   2.348   4.175   9.092 -0.5761 -0.1970 -0.8556
  193MOL0     C25387   2.403   4.043   9.168 -0.6867 -0.8787 -0.6941
  193MOL0    Cl25388   2.294   3.907   9.159 -0.7205 -0.1319 -0.4757
  193MOL0     C25389   3.192   4.591   8.540 -0.7813 -0.2482 -0.7982
  193MOL0     C25390   3.315   4.655   8.520  0.0911 -0.4024 -0.4556
  193MOL0     O25391   3.512   4.867   8.514  0.0373 -0.3001 -0.4051
  193MOL0     C25392   3.764   4.945   8.408  0.1304 -0.0272  0.5596
  193MOL0     C25393   3.892   4.968   8.356 -0.3094 -0.1738  0.0248
  193MOL0     N25394   4.391   5.017   7.718  0.5240  0.5826  0.0432
  193MOL0     N25395   4.383   5.110   7.636 -0.7782 -0.2517 -0.6822
  193MOL0     C25396   3.469   5.916   7.769 -0.0016  0.0740 -0.8545
  193MOL0     C25397   3.341   5.969   7.778 -0.8425  0.4301  0.5297
  193MOL0     C25398   2.916   6.108   7.591  0.3894  0.2969 -0.1039
  193MOL0     C25399   2.915   6.210   7.697 -0.6086  0.7127 -0.7309
  193MOL0     C25400   2.796   6.278   7.720 -0.1755  0.2423 -0.1013
  193MOL0     C25401   2.680   6.240   7.645 -0.0066 -0.2819 -0.0679
  193MOL0     O25402   2.557   6.298   7.663 -0.7084 -0.1329  0.3069
  193MOL0     C25403   2.510   6.371   7.551 -0.5050 -0.8141 -0.0339
  193MOL0     C25404   2.608   6.488   7.495  0.7449  1.0295  0.6703
  193MOL0     C25405   2.649   6.606   7.589  0.4148 -0.3680  0.7493
  193MOL0     C25406   2.714   6.726   7.504  0.0598 -0.3088  0.2215
  193MOL0     C25407   2.611   6.814   7.445  0.0125 -0.3977  0.4077
  193MOL0     C25408   2.530   6.890   7.396 -0.4381 -0.5308  0.1643
  193MOL0     C25409   2.680   6.133   7.555 -0.6765  0.2269  0.4997
  193MOL0     C25410   2.801   6.069   7.529  0.0280  0.0364  0.2868
  193MOL0     H25411   3.270   5.988   7.445 -1.8035 -0.3546  1.3135
  193MOL0     H25412   3.509   5.862   7.433  0.8439 -1.7194  0.0587
  193MOL0     H25413   3.730   5.925   7.484 -0.9182 -0.1106  0.1477
  193MOL0     H25414   3.681   5.753   7.470 -2.1305  1.4003 -0.0921
  193MOL0     H25415   3.928   5.841   7.625  0.6833 -0.0808 -0.1918
  193MOL0     H25416   3.934   5.787   7.466  0.4300 -0.7635  0.8237
  193MOL0     H25417   3.799   5.580   7.556 -2.4794 -0.3235  1.1469
  193MOL0     H25418   3.807   5.638   7.706 -1.8045 -2.2553 -1.5601
  193MOL0     H25419   4.079   5.648   7.594 -0.3262 -0.5827 -0.4149
  193MOL0     H25420   4.035   5.598   7.753 -0.2963  0.0450 -0.0637
  193MOL0     H25421   4.011   5.419   7.495  2.1355  1.7183 -0.2595
  193MOL0     H25422   3.930   5.386   7.657 -1.6799  1.0278 -0.8874
  193MOL0     H25423   4.125   5.268   7.668 -0.2407 -0.0846 -1.8675
  193MOL0     H25424   4.161   5.418   7.764 -0.8983 -0.3337  0.3352
  193MOL0     H25425   4.253   5.346   7.474 -1.8464 -4.0105  2.1111
  193MOL0     H25426   4.265   5.507   7.540 -3.3524 -1.0230 -3.1738
  193MOL0     H25427   4.417   5.446   7.706  1.4907  0.4535 -0.7958
  193MOL0     H25428   4.474   5.348   7.569 -2.3403 -1.0222 -3.1915
  193MOL0     H25429   4.412   5.268   7.915  1.1248 -0.7802  1.4314
  193MOL0     H25430   4.493   5.005   8.033 -1.1193 -2.0200  2.7804
  193MOL0     H25431   4.480   4.879   7.913  3.9492  2.1414 -1.6975
  193MOL0     H25432   4.240   4.866   7.946 -1.7465 -0.5020  0.6350
  193MOL0     H25433   4.231   5.028   8.022  0.5168  0.1079  1.0005
  193MOL0     H25434   4.360   4.774   8.145 -1.8501 -1.5506  1.6379
  193MOL0     H25435   4.318   4.925   8.242 -1.2985 -0.0617  0.4348
  193MOL0     H25436   4.191   4.714   8.272 -1.0524  1.1110  1.0800
  193MOL0     H25437   4.114   4.757   8.111 -1.1065 -2.5843  1.0692
  193MOL0     H25438   4.017   4.651   8.385  0.7688  0.0936 -0.3469
  193MOL0     H25439   3.797   4.614   8.470 -1.9967  1.1017  0.7568
  193MOL0     H25440   3.536   4.419   8.625 -0.6740  0.5186  0.2333
  193MOL0     H25441   3.313   4.300   8.659  0.6502  0.0810 -1.9355
  193MOL0     H25442   2.994   4.543   8.748  0.3899  0.7784 -2.6854
  193MOL0     H25443   3.065   4.410   8.832  0.5340 -0.1779 -0.9066
  193MOL0     H25444   2.885   4.260   8.716 -3.1036  0.0066 -0.8412
  193MOL0     H25445   2.798   4.413   8.686 -2.0622  0.7816  2.5534
  193MOL0     H25446   2.784   4.468   8.926 -2.0119 -1.0857  0.8408
  193MOL0     H25447   2.856   4.321   8.975 -0.1174 -1.2019  0.1696
  193MOL0     H25448   2.590   4.383   8.833 -2.2186 -0.2811  0.9524
  193MOL0     H25449   2.658   4.230   8.795  1.6804 -2.3916  2.3075
  193MOL0     H25450   2.600   4.329   9.073 -0.1289 -0.4511  1.0869
  193MOL0     H25451   2.628   4.162   9.043 -2.0614 -0.2047  2.6374
  193MOL0     H25452   2.416   4.155   8.885  1.6879 -2.0787  0.4015
  193MOL0     H25453   2.385   4.322   8.941  2.4633  0.9473 -1.4539
  193MOL0     H25454   2.356   4.251   9.170 -1.6434 -2.0224  1.1451
  193MOL0     H25455   2.244   4.171   9.058 -1.1609 -0.0799  0.8614
  193MOL0     H25456   2.403   4.075   9.273 -1.6787  1.6306 -1.3791
  193MOL0     H25457   2.501   4.014   9.129 -1.0585  0.0980 -2.4689
  193MOL0     H25458   3.098   4.642   8.520  0.0247  1.2097 -1.0125
  193MOL0     H25459   3.308   4.757   8.483  1.9296 -0.3912 -0.8910
  193MOL0     H25460   3.687   5.021   8.403 -4.2242 -4.0788 -2.0095
  193MOL0     H25461   3.916   5.068   8.321 -1.9534 -0.0796 -0.9339
  193MOL0     H25462   3.536   5.901   7.853  0.5080  1.6918 -0.9384
  193MOL0     H25463   3.289   6.000   7.868 -1.9820 -0.4944  0.2134
  193MOL0     H25464   2.998   6.240   7.760 -0.9530 -1.9953  1.1591
  193MOL0     H25465   2.784   6.352   7.798  1.0936 -1.2342  1.5603
  193MOL0     H25466   2.414   6.419   7.568 -0.6352 -1.6476  1.7822
  193MOL0     H25467   2.500   6.291   7.477  0.4259 -1.7122  0.7713
  193MOL0     H25468   2.694   6.446   7.441 -0.8913 -1.2077 -0.3741
  193MOL0     H25469   2.547   6.538   7.419 -2.0501 -2.3391  0.4424
  193MOL0     H25470   2.728   6.570   7.656  1.2746 -0.6700 -0.3830
  193MOL0     H25471   2.565   6.640   7.649  0.6241 -0.7674  1.2751
  193MOL0     H25472   2.771   6.791   7.571 -2.9483  2.7170  0.0921
  193MOL0     H25473   2.782   6.694   7.425  0.6827 -0.8364  0.9448
  193MOL0     H25474   2.474   6.971   7.354  1.2291  1.5707  1.8001
  193MOL0     H25475   2.600   6.111   7.486 -0.3744 -3.3647  1.1028
  193MOL0     H25476   2.805   6.002   7.444  0.0667  3.0865 -2.3124
  194MOL0     O25477  10.391   8.647   2.650  0.0087 -0.0582 -0.0713
  194MOL0     C25478  10.436   8.663   2.543 -0.2537  0.3041 -0.4612
  194MOL0     O25479  10.397   8.754   2.452 -0.0030 -0.1550  0.1195
  194MOL0     C25480  10.283   8.822   2.481 -0.2103 -0.0065 -0.0035
  194MOL0     C25481  10.160   8.764   2.496 -0.7769 -0.8503  0.5048
  194MOL0     C25482  10.049   8.843   2.516 -0.1008  0.0681 -0.5097
  194MOL0     C25483  10.054   8.981   2.515  0.8625 -0.1327  0.4534
  194MOL0     O25484   9.942   9.062   2.528 -0.7113  0.5078  0.3872
  194MOL0     C25485   9.810   9.003   2.519 -0.7421  1.3028 -0.3157
  194MOL0     C25486   9.701   9.105   2.507  0.0178 -0.7334  0.6881
  194MOL0     C25487   9.562   9.042   2.488  0.2267  0.7222 -0.0357
  194MOL0     C25488   9.525   8.957   2.615  0.0836 -0.8568 -0.1035
  194MOL0     C25489   9.375   8.912   2.614 -0.1504 -0.1077  0.1436
  194MOL0     C25490   9.340   8.811   2.506  0.2509 -0.1668 -0.1786
  194MOL0     C25491   9.192   8.775   2.522 -0.1783  0.1601 -0.6654
  194MOL0     C25492   9.148   8.664   2.418  0.3627  0.4612  0.4880
  194MOL0     N25493   9.008   8.638   2.450 -0.6023 -0.0995  0.0680
  194MOL0     C25494   8.905   8.697   2.379  0.1515  0.7920  0.4077
  194MOL0     C25495   8.789   8.642   2.429  0.3570  0.1356 -0.0892
  194MOL0     C25496   8.652   8.656   2.379 -0.0304 -0.3050 -0.9366
  194MOL0     C25497   8.650   8.677   2.231  0.3325  0.4096 -1.7809
  194MOL0     C25498   8.505   8.659   2.169 -0.4856  0.3413 -0.6069
  194MOL0     C25499   8.446   8.523   2.205 -0.0497 -0.1516  0.1560
  194MOL0     O25500   8.314   8.537   2.157 -0.4299  0.0561  0.0146
  194MOL0     C25501   8.230   8.439   2.201 -0.2672 -0.2347 -0.2760
  194MOL0     C25502   8.101   8.458   2.157 -0.4366 -0.9776  0.0638
  194MOL0     C25503   7.991   8.380   2.188 -0.1207 -0.1975  1.1136
  194MOL0     C25504   8.008   8.261   2.261 -0.4414  0.0349 -0.1713
  194MOL0     C25505   7.907   8.156   2.275 -0.6210  0.9066  0.3332
  194MOL0     O25506   7.808   8.162   2.180  0.1926  0.4620 -0.0196
  194MOL0     C25507   7.692   8.088   2.210  0.0178  0.2542 -0.3744
  194MOL0     C25508   7.587   8.142   2.285 -0.5109 -1.0946  0.4927
  194MOL0     C25509   7.466   8.074   2.306 -0.6569  0.1895  0.7040
  194MOL0     C25510   7.453   7.942   2.252 -0.3150 -0.6759  1.1064
  194MOL0     O25511   7.354   7.860   2.278 -0.0134 -0.0916 -0.3649
  194MOL0     C25512   7.220   7.909   2.310  0.0505  1.0976  0.3475
  194MOL0     C25513   7.147   7.895   2.170  0.0607  0.0067 -0.2129
  194MOL0     C25514   7.002   7.931   2.192  0.0363 -0.0396 -0.0480
  194MOL0     C25515   6.908   7.809   2.220  0.2919  0.6933 -0.0419
  194MOL0     C25516   6.763   7.842   2.172 -0.1584 -0.1121 -1.0211
  194MOL0     C25517   6.680   7.714   2.178  0.0244  0.5969 -0.6507
  194MOL0     C25518   6.531   7.759   2.200 -0.2766  0.3929  0.2436
  194MOL0     C25519   6.427   7.647   2.202  0.4328  0.3762  0.1424
  194MOL0    Cl25520   6.263   7.729   2.195 -0.4930 -0.0847  0.3728
  194MOL0     C25521   7.551   7.892   2.166 -0.4253 -0.4179 -1.2290
  194MOL0     C25522   7.670   7.965   2.144  0.0167  1.1079 -0.2075
  194MOL0     O25523   7.915   8.080   2.369  0.1711  0.1817 -0.1225
  194MOL0     C25524   8.142   8.238   2.315 -0.0286 -0.0906 -0.3241
  194MOL0     C25525   8.249   8.330   2.288  0.0824  0.8149 -0.3744
  194MOL0     N25526   8.821   8.556   2.529 -0.1126 -0.0479  0.2738
  194MOL0     N25527   8.954   8.553   2.540 -0.3505 -0.0311  0.1813
  194MOL0     C25528  10.173   9.040   2.500 -0.1166 -0.2335  0.0639
  194MOL0     C25529  10.285   8.961   2.473 -0.0364  1.3410 -0.1737
  194MOL0     C25530  10.559   8.577   2.501  1.5039 -0.9489 -0.1318
  194MOL0     C25531  10.630   8.627   2.383 -0.2742 -0.2621 -0.1254
  194MOL0     C25532  10.753   8.569   2.350  0.4578  0.0516 -0.9084
  194MOL0     C25533  10.795   8.445   2.415 -0.0382 -0.1207  0.1181
  194MOL0     O25534  10.918   8.403   2.370  0.2045 -0.6594  0.5454
  194MOL0     C25535  10.992   8.300   2.441  0.6959  1.0094 -0.4262
  194MOL0     C25536  11.065   8.358   2.566  0.1450  0.6988 -0.3059
  194MOL0     C25537  11.158   8.470   2.527  0.6663 -0.6430 -0.2234
  194MOL0     C25538  11.251   8.519   2.634  0.2848 -0.0940  0.3434
  194MOL0     C25539  11.311   8.643   2.594 -0.2342  0.0217  0.2322
  194MOL0     C25540  11.364   8.745   2.548 -0.4906 -0.1990 -1.7361
  194MOL0     C25541  10.724   8.398   2.525  0.0675  0.2638  0.7163
  194MOL0     C25542  10.609   8.463   2.567 -0.0524 -0.2586  0.3706
  194MOL0     H25543  10.167   8.658   2.476 -0.5365 -0.9470  1.0693
  194MOL0     H25544   9.950   8.800   2.524 -0.7315  1.0517 -2.3086
  194MOL0     H25545   9.798   8.940   2.607 -2.2091  2.2909  0.2233
  194MOL0     H25546   9.804   8.941   2.429 -0.0873 -1.6116  1.5087
  194MOL0     H25547   9.733   9.157   2.416  4.5326 -2.6366  0.9346
  194MOL0     H25548   9.693   9.181   2.585 -2.7867  0.9847 -1.1016
  194MOL0     H25549   9.556   8.978   2.400 -1.5833  0.6312  0.1084
  194MOL0     H25550   9.491   9.124   2.471  1.2703  1.0836 -3.2655
  194MOL0     H25551   9.585   8.866   2.623 -1.0227 -1.8851 -2.3795
  194MOL0     H25552   9.548   9.023   2.699 -0.1500 -0.5296 -0.2961
  194MOL0     H25553   9.311   8.998   2.592 -1.3351 -0.9603  0.1597
  194MOL0     H25554   9.353   8.860   2.708  1.3999  1.2321  1.3195
  194MOL0     H25555   9.406   8.724   2.507 -0.6059 -0.9394 -2.8299
  194MOL0     H25556   9.357   8.866   2.412  0.1636  1.7570  0.8689
  194MOL0     H25557   9.180   8.749   2.627 -1.1492 -1.0828 -1.0512
  194MOL0     H25558   9.134   8.865   2.504  1.0105  0.8124 -1.4115
  194MOL0     H25559   9.199   8.568   2.426 -0.6486 -0.0369  1.3360
  194MOL0     H25560   9.157   8.711   2.320 -1.3570 -1.6241 -0.7533
  194MOL0     H25561   8.905   8.785   2.315  1.0384  1.0819  0.7942
  194MOL0     H25562   8.625   8.749   2.429  1.5680 -0.3748  0.1348
  194MOL0     H25563   8.595   8.574   2.424  2.4573 -0.9333  1.3035
  194MOL0     H25564   8.730   8.613   2.189  1.0174  0.3140 -0.3783
  194MOL0     H25565   8.689   8.779   2.223  1.1707  0.6174  2.7255
  194MOL0     H25566   8.452   8.741   2.218 -0.5902 -0.5470  0.8595
  194MOL0     H25567   8.511   8.666   2.060 -2.1386  1.1974 -0.6696
  194MOL0     H25568   8.447   8.509   2.314  0.3253  2.4949  0.5583
  194MOL0     H25569   8.499   8.441   2.155 -0.9264 -2.2018  2.3803
  194MOL0     H25570   8.102   8.538   2.085  2.2526 -0.6795  0.3345
  194MOL0     H25571   7.894   8.410   2.149 -0.4948 -3.4693 -0.9441
  194MOL0     H25572   7.606   8.242   2.323 -4.7694 -0.3488  1.1240
  194MOL0     H25573   7.391   8.120   2.369 -0.4863  1.9051 -0.2832
  194MOL0     H25574   7.218   8.015   2.335 -1.0019  1.0178  0.6211
  194MOL0     H25575   7.183   7.863   2.401  0.2597  1.0621  0.4160
  194MOL0     H25576   7.166   7.797   2.126 -0.0677 -0.8394  1.5456
  194MOL0     H25577   7.189   7.966   2.098 -0.8313  0.7623 -0.0053
  194MOL0     H25578   6.975   7.983   2.099 -0.6043 -0.2302  0.0219
  194MOL0     H25579   6.990   8.005   2.272  0.2428  0.6866 -0.6723
  194MOL0     H25580   6.937   7.716   2.171 -1.1183  0.0473  0.3108
  194MOL0     H25581   6.923   7.802   2.328  3.2810  0.7415 -0.3566
  194MOL0     H25582   6.753   7.881   2.070 -1.6279  0.8367 -0.5614
  194MOL0     H25583   6.726   7.921   2.237 -0.5886 -0.6824 -0.5620
  194MOL0     H25584   6.709   7.649   2.260  2.7386  2.4872  0.0043
  194MOL0     H25585   6.697   7.676   2.076 -0.1877  4.4581 -2.3123
  194MOL0     H25586   6.528   7.834   2.279  1.2833  0.4159  0.2970
  194MOL0     H25587   6.506   7.806   2.104  0.4163 -1.6778 -1.0174
  194MOL0     H25588   6.425   7.593   2.297 -2.0962  1.1649  0.6218
  194MOL0     H25589   6.435   7.586   2.111 -0.9616  0.1704  0.1364
  194MOL0     H25590   7.536   7.791   2.130  0.8557 -0.3492 -2.0177
  194MOL0     H25591   7.746   7.926   2.077  3.7854  2.2049  3.0462
  194MOL0     H25592   8.148   8.158   2.387 -1.6383 -1.0461 -1.1842
  194MOL0     H25593   8.347   8.301   2.325 -0.2044  0.0598 -0.1845
  194MOL0     H25594  10.184   9.148   2.494 -3.5109  0.1493 -1.2466
  194MOL0     H25595  10.380   9.010   2.448  1.3097 -1.1159 -0.1481
  194MOL0     H25596  10.588   8.712   2.329  0.5703  0.1430 -0.1623
  194MOL0     H25597  10.814   8.613   2.272  0.9766 -3.7505 -2.8661
  194MOL0     H25598  11.045   8.231   2.375  0.5956 -0.3442  0.8273
  194MOL0     H25599  10.928   8.221   2.483 -1.8502  2.9842 -0.3222
  194MOL0     H25600  10.982   8.403   2.621 -0.3996 -0.3424 -0.2340
  194MOL0     H25601  11.119   8.286   2.628 -0.0277 -0.4558 -1.4372
  194MOL0     H25602  11.109   8.559   2.486  2.8990  0.5958 -0.3602
  194MOL0     H25603  11.230   8.431   2.455  1.7021  0.0351  0.4106
  194MOL0     H25604  11.185   8.543   2.718  0.5375  1.5627  0.1113
  194MOL0     H25605  11.322   8.441   2.660  0.3070  0.3552  1.7051
  194MOL0     H25606  11.400   8.828   2.490 -3.0230  2.7165  0.5069
  194MOL0     H25607  10.752   8.310   2.582  1.4243  0.9020  1.0616
  194MOL0     H25608  10.553   8.436   2.657  1.0445 -0.9310  0.8677
  195MOL0     O25609   3.032   6.176   0.723  0.3079  0.6612 -0.2778
  195MOL0     C25610   3.107   6.110   0.653 -0.2048  0.1786  0.0045
  195MOL0     O25611   3.100   6.079   0.526 -0.1531  0.2566  0.1436
  195MOL0     C25612   2.982   6.096   0.463  0.8991  0.4533  0.0056
  195MOL0     C25613   2.992   6.088   0.329 -0.1346 -0.3740  0.0198
  195MOL0     C25614   2.885   6.111   0.241  0.9769  0.8371  0.3044
  195MOL0     C25615   2.755   6.129   0.284 -0.4173  0.5402  0.4706
  195MOL0     O25616   2.659   6.160   0.186  0.3217 -0.0256  1.0505
  195MOL0     C25617   2.595   6.290   0.197 -0.4125 -0.2187 -0.3068
  195MOL0     C25618   2.483   6.283   0.095  0.4951  0.0964  0.6412
  195MOL0     C25619   2.365   6.185   0.124 -0.6155 -0.1069  0.2415
  195MOL0     C25620   2.265   6.180   0.003 -0.3242  0.2250 -0.5994
  195MOL0     C25621   2.154   6.090   0.056 -0.2907  0.2603  0.5314
  195MOL0     C25622   2.059   6.052  -0.050 -0.0890  0.3649  0.6508
  195MOL0     C25623   1.931   5.987   0.001 -0.8585  0.1679  0.1229
  195MOL0     C25624   1.841   5.953  -0.116 -0.3936 -0.4599  0.3879
  195MOL0     N25625   1.736   5.870  -0.060 -0.1090  0.8331  0.4738
  195MOL0     C25626   1.695   5.750  -0.117  0.2589  0.7207  0.7718
  195MOL0     C25627   1.606   5.693  -0.037 -0.6877  0.1356 -0.4374
  195MOL0     C25628   1.534   5.561  -0.056  0.8822 -0.1399  1.5523
  195MOL0     C25629   1.432   5.592  -0.177 -0.0846 -0.1483  0.2004
  195MOL0     C25630   1.370   5.455  -0.218 -0.0051  0.2443  0.6841
  195MOL0     C25631   1.280   5.471  -0.343  0.5885 -0.9263 -0.2646
  195MOL0     O25632   1.163   5.536  -0.288 -0.0423  0.4666  0.0206
  195MOL0     C25633   1.041   5.515  -0.348  0.6626 -0.4285 -0.3634
  195MOL0     C25634   0.934   5.529  -0.258 -0.4882  0.1833  0.4073
  195MOL0     C25635   0.812   5.495  -0.305  0.0210  0.4717  0.3087
  195MOL0     C25636   0.780   5.461  -0.431 -0.3511  0.4839  0.5258
  195MOL0     C25637   0.643   5.418  -0.475 -0.0382 -0.5682 -0.3810
  195MOL0     O25638   0.572   5.363  -0.368 -0.1133  0.4640  0.1509
  195MOL0     C25639   0.444   5.319  -0.406 -1.0490 -0.5136  0.7434
  195MOL0     C25640   0.430   5.187  -0.444 -0.2356  0.2500  0.5100
  195MOL0     C25641   0.305   5.133  -0.469  0.4490  0.0467  0.5533
  195MOL0     C25642   0.189   5.213  -0.466 -0.3725 -0.3769  0.3112
  195MOL0     O25643   0.068   5.153  -0.497 -0.3717 -0.5257 -0.0947
  195MOL0     C25644  -0.053   5.224  -0.489 -0.1612  0.1697  0.5053
  195MOL0     C25645  -0.076   5.304  -0.610  0.6836  0.7241 -0.1329
  195MOL0     C25646  -0.210   5.379  -0.600  0.2101 -0.5717  0.2885
  195MOL0     C25647  -0.331   5.291  -0.568 -1.0065  0.2859 -0.2536
  195MOL0     C25648  -0.467   5.341  -0.596  0.7330  1.1313  0.2962
  195MOL0     C25649  -0.568   5.227  -0.570  0.9010 -0.9999  0.7003
  195MOL0     C25650  -0.715   5.277  -0.606  0.3719 -0.3465 -0.1563
  195MOL0     C25651  -0.816   5.193  -0.531  0.3067  0.1084 -0.2677
  195MOL0    Cl25652  -0.968   5.183  -0.620  0.3051  0.3939 -0.1765
  195MOL0     C25653   0.207   5.350  -0.436 -0.3089  0.0583  0.7990
  195MOL0     C25654   0.328   5.400  -0.399 -0.4702 -0.3290 -0.0363
  195MOL0     O25655   0.605   5.438  -0.596 -0.0389  0.4942 -0.4866
  195MOL0     C25656   0.886   5.464  -0.526 -0.8226  0.6366 -0.8769
  195MOL0     C25657   1.019   5.480  -0.477  0.8150  0.6426 -0.6010
  195MOL0     N25658   1.596   5.788   0.068 -0.1174  0.2402 -0.3601
  195MOL0     N25659   1.670   5.889   0.056 -0.3070 -0.4239  0.9312
  195MOL0     C25660   2.739   6.136   0.424 -0.8631  0.5070  0.3066
  195MOL0     C25661   2.849   6.111   0.511  0.3243 -0.1758  0.4576
  195MOL0     C25662   3.225   6.065   0.732  0.3897  0.6163  0.0645
  195MOL0     C25663   3.229   6.062   0.874 -0.5902 -0.0686 -0.9252
  195MOL0     C25664   3.339   6.012   0.951 -0.1582  0.1420  0.0776
  195MOL0     C25665   3.451   5.959   0.879  0.1424 -0.7945 -0.3766
  195MOL0     O25666   3.560   5.896   0.924 -0.7879  0.6563  0.5051
  195MOL0     C25667   3.538   5.811   1.036 -0.2245 -1.0108  0.1927
  195MOL0     C25668   3.662   5.727   1.050 -1.0822 -0.4827 -0.1918
  195MOL0     C25669   3.775   5.817   1.114 -0.8593 -0.0848 -0.2326
  195MOL0     C25670   3.895   5.746   1.194  0.6220  0.1389  0.1008
  195MOL0     C25671   3.851   5.671   1.310 -1.0015 -0.0591 -0.2747
  195MOL0     C25672   3.808   5.611   1.411 -0.3271 -0.0320  0.7793
  195MOL0     C25673   3.456   5.966   0.740  0.7823  0.1157  0.0536
  195MOL0     C25674   3.340   6.014   0.669 -0.3837 -0.0834 -0.4056
  195MOL0     H25675   3.093   6.094   0.288 -0.1607  3.9434  0.1706
  195MOL0     H25676   2.901   6.096   0.135  0.5647 -3.8825  0.6920
  195MOL0     H25677   2.665   6.371   0.173  2.8590 -2.5216  0.9199
  195MOL0     H25678   2.548   6.308   0.294 -1.9362 -0.9663 -0.8697
  195MOL0     H25679   2.520   6.261  -0.006  1.6736 -3.5789  1.7156
  195MOL0     H25680   2.445   6.385   0.099 -1.5809 -0.5337 -1.0983
  195MOL0     H25681   2.318   6.218   0.216 -2.5786 -4.2400  0.9525
  195MOL0     H25682   2.391   6.080   0.137 -3.8504 -0.8036  2.0698
  195MOL0     H25683   2.245   6.283  -0.029 -0.1259  0.2983 -0.4919
  195MOL0     H25684   2.309   6.140  -0.089  5.6427  3.9170  0.0848
  195MOL0     H25685   2.099   6.154   0.126 -0.4394  1.8691 -0.9906
  195MOL0     H25686   2.189   6.000   0.108 -1.7805  0.8187  2.6522
  195MOL0     H25687   2.102   5.978  -0.118  0.8698 -3.0412  4.5529
  195MOL0     H25688   2.034   6.141  -0.109 -2.9307  0.4575  1.8407
  195MOL0     H25689   1.954   5.901   0.064 -0.4350  0.2516  0.0893
  195MOL0     H25690   1.877   6.057   0.067 -0.0245  0.9634 -0.0119
  195MOL0     H25691   1.892   5.893  -0.192 -1.0327 -0.9573  0.3471
  195MOL0     H25692   1.798   6.041  -0.164 -0.5138 -0.8213 -0.1625
  195MOL0     H25693   1.727   5.716  -0.215  0.1009  1.3236  0.5028
  195MOL0     H25694   1.491   5.542   0.042 -0.6671 -3.8800  0.3244
  195MOL0     H25695   1.598   5.475  -0.078 -0.3719 -0.5255 -0.9510
  195MOL0     H25696   1.491   5.627  -0.262  1.7730 -0.3175  1.3558
  195MOL0     H25697   1.357   5.667  -0.150 -0.6951  0.0802 -1.9719
  195MOL0     H25698   1.448   5.383  -0.244  0.1741  0.7993 -0.3801
  195MOL0     H25699   1.306   5.436  -0.131 -0.3572  1.2221  0.6479
  195MOL0     H25700   1.246   5.378  -0.391 -4.2612  0.1561  0.5601
  195MOL0     H25701   1.319   5.538  -0.420  1.2021  1.1138  1.7099
  195MOL0     H25702   0.940   5.552  -0.152  0.5339  0.0616  0.3820
  195MOL0     H25703   0.735   5.492  -0.229  0.5514  1.7477  0.9324
  195MOL0     H25704   0.517   5.122  -0.442 -1.6059 -1.6553  2.3715
  195MOL0     H25705   0.286   5.032  -0.505 -3.0046  0.2315  1.5150
  195MOL0     H25706  -0.047   5.304  -0.415  1.0886  2.2104 -1.6588
  195MOL0     H25707  -0.141   5.165  -0.461 -0.5214  1.4522  2.2750
  195MOL0     H25708  -0.074   5.242  -0.700  1.6065  1.3503 -0.5608
  195MOL0     H25709   0.013   5.367  -0.623  1.9862 -0.2572  3.1843
  195MOL0     H25710  -0.216   5.436  -0.693  1.5006 -0.5297  0.2193
  195MOL0     H25711  -0.198   5.453  -0.521  2.5763  1.6903 -1.9906
  195MOL0     H25712  -0.320   5.192  -0.613 -1.5343 -0.1043  0.4590
  195MOL0     H25713  -0.328   5.276  -0.460 -0.6609  3.0644  0.1982
  195MOL0     H25714  -0.489   5.377  -0.697  0.3771 -0.9031 -0.4055
  195MOL0     H25715  -0.493   5.425  -0.531  2.6490  0.8143  1.5411
  195MOL0     H25716  -0.571   5.187  -0.469  1.8395 -1.5790  0.5135
  195MOL0     H25717  -0.548   5.142  -0.636 -1.2682 -0.6226 -0.5504
  195MOL0     H25718  -0.730   5.381  -0.577 -1.3498 -0.9398  1.2952
  195MOL0     H25719  -0.731   5.272  -0.714  0.5786  0.3362 -0.2248
  195MOL0     H25720  -0.835   5.224  -0.428  2.4544 -1.7777  0.7705
  195MOL0     H25721  -0.766   5.096  -0.532  0.0360 -0.0312 -0.7354
  195MOL0     H25722   0.124   5.418  -0.423 -2.6624 -2.4586 -0.1070
  195MOL0     H25723   0.321   5.504  -0.368 -1.0371 -0.2604 -0.3828
  195MOL0     H25724   0.853   5.461  -0.630 -0.0008  2.2554 -1.2166
  195MOL0     H25725   1.103   5.463  -0.544  0.7793  0.2684 -0.5576
  195MOL0     H25726   2.639   6.160   0.458 -0.4595  3.0666 -0.1352
  195MOL0     H25727   2.841   6.090   0.618 -1.0652 -0.1572  0.3704
  195MOL0     H25728   3.148   6.085   0.944 -0.3068 -0.8680 -0.3212
  195MOL0     H25729   3.336   6.005   1.059  3.6664  1.0234  0.3890
  195MOL0     H25730   3.453   5.744   1.019  1.0847 -2.3306 -1.5631
  195MOL0     H25731   3.525   5.874   1.124 -3.8839  0.1989 -1.0191
  195MOL0     H25732   3.648   5.641   1.116  0.1342  0.9038  2.0056
  195MOL0     H25733   3.699   5.690   0.954  1.5343 -0.7235  0.8201
  195MOL0     H25734   3.723   5.880   1.187 -0.6478 -0.2091  0.0250
  195MOL0     H25735   3.823   5.887   1.044 -1.3090  2.2448  1.6485
  195MOL0     H25736   3.956   5.686   1.127  0.4850  0.3665 -0.2283
  195MOL0     H25737   3.954   5.833   1.225  1.0961 -0.4769  0.9444
  195MOL0     H25738   3.784   5.550   1.496  0.6878 -2.0331 -0.2976
  195MOL0     H25739   3.542   5.930   0.685 -0.1134 -0.7371 -0.8263
  195MOL0     H25740   3.347   6.027   0.562  3.1872 -0.1002 -0.2931
  196MOL0     O25741   3.625   1.114   6.522 -0.8359  0.8039 -0.6056
  196MOL0     C25742   3.603   1.074   6.405  0.2471 -0.7862 -0.2035
  196MOL0     O25743   3.491   1.025   6.356  0.5040  0.2093 -0.0556
  196MOL0     C25744   3.371   1.011   6.430 -0.5024 -0.0162  0.2360
  196MOL0     C25745   3.268   0.983   6.349 -0.3995  0.5608  0.1131
  196MOL0     C25746   3.132   0.991   6.392 -0.5022 -0.3037 -0.5138
  196MOL0     C25747   3.110   1.012   6.528 -0.2579 -0.1670  0.5284
  196MOL0     O25748   2.977   1.020   6.555 -0.4373 -0.6556  0.1752
  196MOL0     C25749   2.933   0.978   6.682 -0.3638 -0.3162  0.0075
  196MOL0     C25750   2.784   0.928   6.673  0.1818 -0.0221  0.0923
  196MOL0     C25751   2.727   0.911   6.813 -0.3113  0.5924 -0.6456
  196MOL0     C25752   2.578   0.891   6.803 -0.7425 -0.6591 -0.5757
  196MOL0     C25753   2.516   0.874   6.931  0.1956 -0.0896 -0.3220
  196MOL0     C25754   2.367   0.885   6.935 -0.1487  0.0143  0.2997
  196MOL0     C25755   2.307   1.023   6.908 -0.2936 -0.4925  0.0416
  196MOL0     C25756   2.150   1.020   6.905  0.6474  0.9136  0.7712
  196MOL0     N25757   2.095   1.143   6.853  1.1250  0.5072 -0.5132
  196MOL0     C25758   1.975   1.153   6.790  0.4289  0.3248  0.8387
  196MOL0     C25759   1.931   1.287   6.798  0.4713  0.4333 -0.6214
  196MOL0     C25760   1.808   1.349   6.738  0.6421 -0.3723  0.0285
  196MOL0     C25761   1.681   1.312   6.833  0.5462 -0.6565  0.1188
  196MOL0     C25762   1.640   1.162   6.817  0.1852 -1.1775  0.3607
  196MOL0     C25763   1.522   1.129   6.909  0.6152 -0.1551 -0.1936
  196MOL0     O25764   1.417   1.227   6.895 -0.1443  0.3473  0.3347
  196MOL0     C25765   1.301   1.222   6.977  0.4082 -0.2809 -0.5256
  196MOL0     C25766   1.215   1.334   6.976 -0.2916  1.1266  1.0094
  196MOL0     C25767   1.111   1.339   7.068 -0.4920 -0.0462 -1.1413
  196MOL0     C25768   1.090   1.248   7.174  0.1429  0.3493  0.0576
  196MOL0     C25769   0.977   1.264   7.266  1.1575  0.3806 -0.7661
  196MOL0     O25770   0.866   1.345   7.239 -0.0813  0.4663  0.8029
  196MOL0     C25771   0.744   1.327   7.300 -0.4895 -0.0916 -0.3603
  196MOL0     C25772   0.629   1.333   7.211  0.0783  0.5447 -0.2031
  196MOL0     C25773   0.499   1.310   7.254 -0.2017 -0.3066  0.0169
  196MOL0     C25774   0.480   1.260   7.385 -0.2916 -0.2047 -0.2701
  196MOL0     O25775   0.357   1.215   7.420 -0.2044 -0.4475 -0.3538
  196MOL0     C25776   0.339   1.166   7.554 -0.5715 -0.1699  0.1217
  196MOL0     C25777   0.186   1.154   7.588  0.0694  0.1646 -0.1586
  196MOL0     C25778   0.125   1.289   7.624  0.0791 -0.9526 -0.2905
  196MOL0     C25779  -0.015   1.268   7.672 -0.8537  0.1474 -0.5644
  196MOL0     C25780  -0.129   1.365   7.625  0.1798  0.3688  0.0314
  196MOL0     C25781  -0.100   1.499   7.681 -0.0052 -0.8634 -0.2643
  196MOL0     C25782  -0.217   1.602   7.649  0.3227  0.8299  0.5385
  196MOL0     C25783  -0.324   1.619   7.760  0.4671 -0.3693 -0.1525
  196MOL0    Cl25784  -0.463   1.507   7.746 -0.0773  0.2670 -0.0727
  196MOL0     C25785   0.592   1.248   7.472  0.5905 -0.1665  0.2219
  196MOL0     C25786   0.727   1.280   7.428  0.1411 -0.5333 -0.2632
  196MOL0     O25787   0.983   1.182   7.356  0.1376 -0.3411  0.5568
  196MOL0     C25788   1.174   1.140   7.172  0.7028  1.0156 -0.7936
  196MOL0     C25789   1.283   1.129   7.081 -0.6812 -0.5386 -0.3398
  196MOL0     N25790   2.028   1.346   6.879  0.8709 -0.2582 -0.8575
  196MOL0     N25791   2.129   1.261   6.899 -0.2990  0.3073  0.2540
  196MOL0     C25792   3.221   1.038   6.615  0.3038  0.6489 -0.5683
  196MOL0     C25793   3.348   1.038   6.564  0.3395  1.2359 -0.2699
  196MOL0     C25794   3.705   1.101   6.307 -0.1539  0.1845 -0.3288
  196MOL0     C25795   3.837   1.119   6.341  0.7230 -0.7749 -0.2390
  196MOL0     C25796   3.937   1.134   6.248  0.0418 -0.3586 -0.6807
  196MOL0     C25797   3.910   1.158   6.107  1.0349  0.3683  0.4260
  196MOL0     O25798   4.004   1.194   6.009  0.3983  0.7836 -0.8064
  196MOL0     C25799   4.118   1.110   6.021 -0.7023  0.0260 -0.4466
  196MOL0     C25800   4.195   1.091   5.888  0.8468  0.0315 -0.7667
  196MOL0     C25801   4.123   1.009   5.775 -0.4140  0.4094 -0.0702
  196MOL0     C25802   4.069   1.117   5.679  0.4728 -0.3811 -0.5315
  196MOL0     C25803   4.028   1.058   5.549  0.6022  0.2885 -0.9369
  196MOL0     C25804   3.969   1.010   5.455 -1.0855  0.3836  0.3817
  196MOL0     C25805   3.773   1.132   6.073  0.1747  0.0177 -0.0726
  196MOL0     C25806   3.670   1.101   6.164  0.3952  0.2313  0.4467
  196MOL0     H25807   3.294   0.974   6.244  0.7115  2.1492  0.2153
  196MOL0     H25808   3.049   0.978   6.324 -1.0041 -1.1065  0.2423
  196MOL0     H25809   2.938   1.063   6.752 -1.9161  0.8115 -1.1921
  196MOL0     H25810   2.996   0.896   6.718  0.3692 -0.6080 -1.8283
  196MOL0     H25811   2.779   0.837   6.613  0.9131 -0.3748  0.5530
  196MOL0     H25812   2.732   1.012   6.625 -0.5409  0.0082  0.8889
  196MOL0     H25813   2.738   0.988   6.889 -1.4683  1.8949 -1.7278
  196MOL0     H25814   2.771   0.822   6.858 -1.1920  1.4025  2.0067
  196MOL0     H25815   2.534   0.973   6.745  0.8698  0.0127 -0.9170
  196MOL0     H25816   2.570   0.809   6.731 -3.2107 -0.8376 -0.1751
  196MOL0     H25817   2.551   0.952   7.000 -3.1665  3.4866 -2.2195
  196MOL0     H25818   2.553   0.777   6.964 -0.7568 -0.2245  0.3706
  196MOL0     H25819   2.337   0.865   7.039 -1.7808 -0.9531 -0.3181
  196MOL0     H25820   2.317   0.811   6.872 -1.6613  0.5408  0.8257
  196MOL0     H25821   2.334   1.090   6.990 -0.3627  0.0439 -0.3642
  196MOL0     H25822   2.362   1.041   6.815  2.2530 -2.8049  0.9864
  196MOL0     H25823   2.109   0.999   7.004 -2.7860  1.5337 -0.3778
  196MOL0     H25824   2.114   0.937   6.843  2.3759 -0.2392  1.2307
  196MOL0     H25825   1.921   1.065   6.759 -0.0697  0.2028  2.0079
  196MOL0     H25826   1.788   1.318   6.635 -2.0407  1.9744 -0.3092
  196MOL0     H25827   1.820   1.458   6.739 -0.8448 -0.1629  2.0826
  196MOL0     H25828   1.595   1.376   6.808 -0.3629 -0.8678  2.4710
  196MOL0     H25829   1.707   1.344   6.934  0.7575 -0.0129 -0.1353
  196MOL0     H25830   1.618   1.147   6.711  2.4956  0.0486 -0.3635
  196MOL0     H25831   1.725   1.103   6.852  1.7517  1.5314  1.4379
  196MOL0     H25832   1.557   1.126   7.013  0.8263  1.8082 -0.1805
  196MOL0     H25833   1.483   1.030   6.883 -1.2256 -0.2514  2.4935
  196MOL0     H25834   1.225   1.409   6.899 -3.3927 -2.1425 -3.0523
  196MOL0     H25835   1.035   1.415   7.054 -0.4756 -0.3846 -3.3372
  196MOL0     H25836   0.649   1.374   7.112  1.4205 -3.1969 -1.6346
  196MOL0     H25837   0.415   1.331   7.189 -2.3170 -4.3156  1.1282
  196MOL0     H25838   0.378   1.246   7.618  1.7244  0.3226 -1.7383
  196MOL0     H25839   0.400   1.075   7.558  0.7743  0.6635 -0.8088
  196MOL0     H25840   0.175   1.079   7.666  0.5735 -0.3055 -0.5259
  196MOL0     H25841   0.133   1.113   7.501  0.6706  2.7815 -1.8852
  196MOL0     H25842   0.118   1.355   7.537 -1.2743 -1.4086 -0.5530
  196MOL0     H25843   0.176   1.342   7.705 -0.6878 -1.4146  0.5053
  196MOL0     H25844  -0.037   1.168   7.633  1.5379  0.1702 -2.2330
  196MOL0     H25845  -0.017   1.247   7.779 -1.5629  2.2725 -0.1172
  196MOL0     H25846  -0.229   1.338   7.659 -0.3340  2.1520  0.0291
  196MOL0     H25847  -0.131   1.376   7.516  0.4417  2.0940  0.1735
  196MOL0     H25848  -0.008   1.538   7.638 -0.7371 -0.6277 -1.6869
  196MOL0     H25849  -0.090   1.498   7.790 -1.9763  0.3600 -0.0043
  196MOL0     H25850  -0.177   1.701   7.624 -2.6070  1.9866  0.1343
  196MOL0     H25851  -0.275   1.561   7.566  0.6321  1.5604 -0.0607
  196MOL0     H25852  -0.368   1.719   7.764  0.9329 -0.1894  2.5666
  196MOL0     H25853  -0.277   1.607   7.859 -0.2850  0.4934  0.3195
  196MOL0     H25854   0.582   1.206   7.572  0.6913  2.1355  1.2674
  196MOL0     H25855   0.805   1.271   7.503 -0.7141  2.4778  1.1341
  196MOL0     H25856   1.167   1.067   7.252 -1.8819 -1.2468 -2.8809
  196MOL0     H25857   1.356   1.052   7.107 -0.8739 -0.8905 -0.8275
  196MOL0     H25858   3.212   1.075   6.717  0.4676  0.5245 -0.5077
  196MOL0     H25859   3.434   1.073   6.619  0.7472 -0.3392  0.1475
  196MOL0     H25860   3.867   1.122   6.446 -1.0511  0.0665  0.2844
  196MOL0     H25861   4.033   1.165   6.289 -0.9220  3.1423 -0.7318
  196MOL0     H25862   4.101   1.010   6.060  3.1575 -1.5661 -2.3498
  196MOL0     H25863   4.193   1.160   6.084 -1.1563  0.5104 -0.2840
  196MOL0     H25864   4.226   1.189   5.851 -3.0866  1.6447 -0.2274
  196MOL0     H25865   4.281   1.028   5.914 -0.0716 -1.8378 -2.1020
  196MOL0     H25866   4.048   0.934   5.803 -0.6919  1.0645  0.9815
  196MOL0     H25867   4.195   0.950   5.716 -0.2592  0.4483  0.0772
  196MOL0     H25868   3.991   1.174   5.731  0.0667 -0.3511 -1.1661
  196MOL0     H25869   4.147   1.191   5.663  0.5911  0.6995  3.7112
  196MOL0     H25870   3.932   0.963   5.366 -4.0350  0.4417  1.4878
  196MOL0     H25871   3.747   1.150   5.969 -0.5966 -3.2691 -0.5940
  196MOL0     H25872   3.570   1.083   6.126  0.2194  2.8377 -0.5306
  197MOL0     O25873   5.130  11.116   4.593 -0.0656  0.3370 -0.7591
  197MOL0     C25874   5.150  11.007   4.540 -0.2984 -0.1136  0.7416
  197MOL0     O25875   5.260  10.974   4.477 -0.0659  0.6162  0.0147
  197MOL0     C25876   5.367  11.052   4.461 -0.3920 -0.4336 -0.7139
  197MOL0     C25877   5.415  11.143   4.563 -0.5153  0.4117 -0.4465
  197MOL0     C25878   5.525  11.223   4.535 -0.8919  0.4992 -0.1361
  197MOL0     C25879   5.580  11.221   4.404 -0.3372 -0.8830  0.6471
  197MOL0     O25880   5.692  11.297   4.369  0.5033 -0.0655 -0.1598
  197MOL0     C25881   5.735  11.406   4.457 -0.0682 -0.3705  0.2720
  197MOL0     C25882   5.812  11.504   4.374 -0.1691 -0.5647  0.4618
  197MOL0     C25883   5.926  11.440   4.298  0.3728 -0.0910 -0.5299
  197MOL0     C25884   6.031  11.370   4.386 -0.4544 -0.1475 -0.5582
  197MOL0     C25885   6.168  11.378   4.335 -0.2397 -0.9928 -0.0498
  197MOL0     C25886   6.189  11.319   4.196 -0.4431 -0.0664  0.1310
  197MOL0     C25887   6.157  11.172   4.180  0.0159 -0.0439  0.6722
  197MOL0     C25888   6.202  11.110   4.050 -0.4676 -0.4501  0.6472
  197MOL0     N25889   6.173  11.191   3.931 -0.8683 -0.1123 -0.0030
  197MOL0     C25890   6.050  11.240   3.901  0.0561 -0.2846 -0.2641
  197MOL0     C25891   6.081  11.343   3.806  0.5848  0.5006  0.6247
  197MOL0     C25892   5.989  11.439   3.738  0.2587  0.6668 -0.5998
  197MOL0     C25893   5.840  11.442   3.783 -0.1576 -0.0282 -1.1016
  197MOL0     C25894   5.820  11.481   3.939  0.1761  0.0423 -0.2743
  197MOL0     C25895   5.670  11.481   3.974 -0.1530 -0.4063  0.8993
  197MOL0     O25896   5.618  11.353   3.942  0.5453  0.0097  0.2121
  197MOL0     C25897   5.484  11.319   3.968 -0.2569 -0.2916 -0.4341
  197MOL0     C25898   5.446  11.187   3.965  1.0714  0.5197  0.3309
  197MOL0     C25899   5.314  11.141   4.007  0.1629 -0.3575  0.4552
  197MOL0     C25900   5.216  11.225   4.061  0.0079  0.1683 -0.1813
  197MOL0     C25901   5.081  11.178   4.089 -0.1698  0.2934  0.1706
  197MOL0     O25902   4.973  11.262   4.082 -0.1432  0.1858 -0.1395
  197MOL0     C25903   4.844  11.229   4.142 -0.1671 -1.0410  0.2367
  197MOL0     C25904   4.734  11.307   4.096 -1.0882  0.5363 -0.0792
  197MOL0     C25905   4.606  11.260   4.127 -0.0857 -0.4291  0.8613
  197MOL0     C25906   4.580  11.166   4.227  0.6300  0.4422  0.3146
  197MOL0     O25907   4.451  11.141   4.267  0.1282  0.6881 -0.0105
  197MOL0     C25908   4.370  11.253   4.300  0.7017  0.1261  0.1411
  197MOL0     C25909   4.233  11.259   4.242  0.1374  0.3290 -0.1490
  197MOL0     C25910   4.147  11.145   4.300 -0.1983 -0.2207  0.3409
  197MOL0     C25911   4.107  11.159   4.451  0.3085 -0.9275  0.3066
  197MOL0     C25912   3.992  11.072   4.488  0.1565 -0.7246 -0.0298
  197MOL0     C25913   3.955  11.084   4.640 -0.1369  0.1990 -0.2653
  197MOL0     C25914   3.847  10.977   4.680  0.8549  0.1623  0.7497
  197MOL0     C25915   3.787  10.999   4.826  0.6959  0.0957 -0.8952
  197MOL0    Cl25916   3.677  11.145   4.833  0.4034 -0.0117 -0.1689
  197MOL0     C25917   4.691  11.108   4.284  0.5282  0.4932  0.1654
  197MOL0     C25918   4.822  11.131   4.237  0.4875  0.2285 -0.0220
  197MOL0     O25919   5.081  11.061   4.128  0.1128 -0.6649  0.8470
  197MOL0     C25920   5.250  11.357   4.050  0.8898 -0.2717  0.0977
  197MOL0     C25921   5.377  11.403   4.017 -0.0812  0.5515  0.5152
  197MOL0     N25922   6.224  11.357   3.800 -0.3265  0.3285 -0.6123
  197MOL0     N25923   6.271  11.260   3.867 -0.4359  0.4827  0.2378
  197MOL0     C25924   5.544  11.122   4.312  1.6139  0.9059  0.4833
  197MOL0     C25925   5.434  11.039   4.338 -0.2097 -1.2348 -0.3249
  197MOL0     C25926   5.048  10.895   4.529 -0.0383  0.1830  0.4152
  197MOL0     C25927   4.905  10.914   4.552 -0.8821 -0.9293 -0.5090
  197MOL0     C25928   4.819  10.813   4.537  0.3699 -0.4300 -0.0612
  197MOL0     C25929   4.857  10.683   4.502 -1.1961  0.2187 -0.5450
  197MOL0     O25930   4.765  10.585   4.497  0.9741 -0.5665  0.4113
  197MOL0     C25931   4.810  10.455   4.543  0.0194  0.1015  0.1983
  197MOL0     C25932   4.686  10.388   4.583  0.2863  0.4295 -0.5855
  197MOL0     C25933   4.704  10.274   4.692 -0.1716 -0.7018  0.1023
  197MOL0     C25934   4.573  10.217   4.731 -0.7081 -0.6752  0.1110
  197MOL0     C25935   4.490  10.310   4.804  0.3339 -0.9103 -0.3516
  197MOL0     C25936   4.394  10.379   4.846 -0.0675 -0.1735  0.3391
  197MOL0     C25937   4.999  10.660   4.478  0.6619  0.0727  0.6244
  197MOL0     C25938   5.094  10.763   4.500  0.2455  1.4112 -0.8306
  197MOL0     H25939   5.358  11.154   4.655  1.5078  2.1685  0.7059
  197MOL0     H25940   5.563  11.285   4.616  3.5898  0.5448 -1.9908
  197MOL0     H25941   5.799  11.355   4.530 -0.3444 -3.5556 -1.5378
  197MOL0     H25942   5.654  11.460   4.506 -1.4544 -0.5437 -1.7274
  197MOL0     H25943   5.852  11.580   4.442  0.7233 -1.7960  1.3509
  197MOL0     H25944   5.746  11.550   4.299  1.9820  0.0861 -1.1510
  197MOL0     H25945   5.975  11.526   4.252  1.8424 -1.2171 -1.1550
  197MOL0     H25946   5.896  11.379   4.213  0.3550 -1.7701  0.6363
  197MOL0     H25947   6.029  11.422   4.483  0.2159 -0.9449 -0.1016
  197MOL0     H25948   6.006  11.269   4.420  0.7522  0.3702  2.1964
  197MOL0     H25949   6.239  11.334   4.406  2.7345  0.1058 -2.1659
  197MOL0     H25950   6.186  11.486   4.329 -1.6777 -0.6151  1.5287
  197MOL0     H25951   6.289  11.349   4.161  0.1233 -1.9282  0.0729
  197MOL0     H25952   6.122  11.368   4.125  2.9002  3.8540 -0.7494
  197MOL0     H25953   6.190  11.106   4.261  3.0820  1.2825  0.6366
  197MOL0     H25954   6.048  11.171   4.176  0.0499 -1.0090 -0.5053
  197MOL0     H25955   6.170  11.006   4.041 -3.8484  0.5946 -0.9568
  197MOL0     H25956   6.311  11.098   4.058 -0.7380 -2.7534  1.4754
  197MOL0     H25957   5.954  11.227   3.949  0.6877  0.6991  1.3391
  197MOL0     H25958   5.989  11.417   3.631  2.2144 -0.2033 -0.4626
  197MOL0     H25959   6.040  11.532   3.764  1.7616 -0.4513  0.6876
  197MOL0     H25960   5.809  11.339   3.764 -0.7927 -0.0633  0.0476
  197MOL0     H25961   5.781  11.504   3.716  0.0008  1.3205 -0.0471
  197MOL0     H25962   5.871  11.407   4.002  2.9984  2.1431  0.1407
  197MOL0     H25963   5.860  11.582   3.954  1.1709  0.0519 -2.5697
  197MOL0     H25964   5.618  11.563   3.923  0.9412 -1.3890 -2.0047
  197MOL0     H25965   5.653  11.497   4.081  2.3898  0.8852  1.1919
  197MOL0     H25966   5.519  11.125   3.915  1.6313  1.4583 -0.0385
  197MOL0     H25967   5.303  11.033   4.008  2.8662 -0.6997  1.3188
  197MOL0     H25968   4.749  11.389   4.026 -2.1913 -0.4716 -1.5859
  197MOL0     H25969   4.518  11.311   4.091 -0.8401 -1.7313  0.8082
  197MOL0     H25970   4.413  11.349   4.273  0.1516  0.5227  0.6528
  197MOL0     H25971   4.358  11.257   4.409  0.0652 -0.5988  0.1079
  197MOL0     H25972   4.243  11.249   4.134  0.6893 -0.1027 -0.0618
  197MOL0     H25973   4.176  11.352   4.252  2.3789  2.2570 -3.4567
  197MOL0     H25974   4.192  11.050   4.271  0.7531  0.5525 -0.8221
  197MOL0     H25975   4.059  11.147   4.235 -1.2756  2.3393  1.7262
  197MOL0     H25976   4.196  11.129   4.507 -0.5347 -0.5722  1.9334
  197MOL0     H25977   4.081  11.263   4.475 -3.9694 -1.8289  0.2721
  197MOL0     H25978   4.017  10.968   4.469  0.2931 -1.1062  1.9857
  197MOL0     H25979   3.905  11.107   4.432  1.5507  0.2811 -1.6999
  197MOL0     H25980   3.919  11.184   4.667  0.3223  1.0056 -2.4374
  197MOL0     H25981   4.044  11.047   4.693 -0.4376 -2.1930 -1.2776
  197MOL0     H25982   3.771  10.990   4.603  0.8894 -0.9939  0.5071
  197MOL0     H25983   3.887  10.876   4.666 -0.8963 -0.4363 -0.1406
  197MOL0     H25984   3.864  11.022   4.900 -0.6450  1.5203  0.1230
  197MOL0     H25985   3.740  10.908   4.865  1.1041 -0.7877 -2.3981
  197MOL0     H25986   4.678  11.039   4.366 -0.7016 -0.8510 -1.1026
  197MOL0     H25987   4.908  11.081   4.280  1.0006  2.2473  1.4351
  197MOL0     H25988   5.184  11.433   4.089 -0.6568 -0.3380 -2.1525
  197MOL0     H25989   5.405  11.507   4.024 -0.0046  0.5872 -0.2434
  197MOL0     H25990   5.588  11.121   4.213  0.0332 -1.0469 -0.2824
  197MOL0     H25991   5.402  10.956   4.276 -1.0994 -2.0773  1.1929
  197MOL0     H25992   4.862  11.013   4.561 -1.6565 -1.1765 -1.3333
  197MOL0     H25993   4.710  10.821   4.536  0.2840 -1.1748  1.3527
  197MOL0     H25994   4.872  10.457   4.633 -0.2064  0.9007  0.3443
  197MOL0     H25995   4.841  10.394   4.457  1.1171  0.8170  0.0589
  197MOL0     H25996   4.630  10.458   4.646 -0.2349 -0.4535 -0.0335
  197MOL0     H25997   4.623  10.361   4.498  0.4152  2.2130 -1.2934
  197MOL0     H25998   4.753  10.310   4.783 -1.2907  1.4887 -0.0837
  197MOL0     H25999   4.759  10.189   4.651  1.2229  0.1419  0.1392
  197MOL0     H26000   4.513  10.186   4.645 -0.7215  1.6749 -0.8109
  197MOL0     H26001   4.597  10.134   4.798  1.6455 -0.3359 -0.2109
  197MOL0     H26002   4.310  10.434   4.886 -0.5004 -0.0144 -0.7592
  197MOL0     H26003   5.041  10.563   4.456  0.6581 -0.0014  0.9396
  197MOL0     H26004   5.199  10.734   4.496 -0.0744  0.3456 -2.0183
  198MOL0     O26005   6.170   5.064  10.590 -0.2982 -0.4929  0.2327
  198MOL0     C26006   6.056   5.077  10.555 -0.8196 -1.3164  0.3071
  198MOL0     O26007   6.010   5.157  10.458 -0.5406  1.1419  0.1247
  198MOL0     C26008   6.110   5.197  10.376 -0.1931 -0.9587 -0.1404
  198MOL0     C26009   6.150   5.331  10.378 -0.0024  0.1181 -1.2304
  198MOL0     C26010   6.268   5.376  10.307  0.2708 -0.3478 -0.3705
  198MOL0     C26011   6.336   5.281  10.225 -0.5742 -0.1982 -0.2563
  198MOL0     O26012   6.451   5.332  10.160  0.7870 -0.6068 -1.3462
  198MOL0     C26013   6.538   5.252  10.085  0.1235  1.2359  0.6899
  198MOL0     C26014   6.639   5.329  10.005 -0.7226 -0.4049 -0.5219
  198MOL0     C26015   6.576   5.385   9.875 -0.0523 -0.4227 -0.4910
  198MOL0     C26016   6.508   5.515   9.912 -1.0165 -0.2996 -0.4298
  198MOL0     C26017   6.495   5.602   9.795  0.0389  0.5283  0.5258
  198MOL0     C26018   6.435   5.530   9.668 -1.3795  0.4888 -1.1694
  198MOL0     C26019   6.285   5.482   9.673 -0.5167  0.2337 -0.6538
  198MOL0     C26020   6.189   5.590   9.697 -0.1930 -0.1550 -0.8450
  198MOL0     N26021   6.057   5.541   9.702  0.1824  0.9122 -1.0312
  198MOL0     C26022   5.970   5.527   9.593 -0.4407  0.4187  0.1144
  198MOL0     C26023   5.847   5.533   9.641  1.3438 -0.1096 -0.7760
  198MOL0     C26024   5.718   5.530   9.579 -0.3243 -0.2511  0.6552
  198MOL0     C26025   5.602   5.574   9.671 -0.6444  0.0105  1.0223
  198MOL0     C26026   5.473   5.596   9.578 -0.7476 -0.7333 -0.1383
  198MOL0     C26027   5.446   5.475   9.495 -0.2705 -0.2252  0.4821
  198MOL0     O26028   5.313   5.495   9.450 -0.5774 -0.1366 -0.3462
  198MOL0     C26029   5.253   5.387   9.392 -0.3862 -0.5237  0.4160
  198MOL0     C26030   5.114   5.385   9.401 -0.2299 -0.3617  0.3872
  198MOL0     C26031   5.048   5.283   9.328  0.5521  0.2600  0.6848
  198MOL0     C26032   5.108   5.192   9.243  0.7251  0.0837 -0.1963
  198MOL0     C26033   5.033   5.082   9.191 -0.5891 -0.3681 -0.0995
  198MOL0     O26034   5.094   5.007   9.093  0.1119  0.7429 -0.0898
  198MOL0     C26035   5.022   4.939   9.002 -0.4045  0.6526  0.3503
  198MOL0     C26036   5.085   4.818   8.964 -0.3797 -0.9229 -0.0667
  198MOL0     C26037   5.020   4.737   8.869 -0.4365  0.5413  0.2262
  198MOL0     C26038   4.902   4.771   8.803  0.4366  0.2828  0.3758
  198MOL0     O26039   4.838   4.697   8.701  0.0826 -0.2617 -0.4359
  198MOL0     C26040   4.886   4.560   8.689  0.2608  0.4175  0.6148
  198MOL0     C26041   4.823   4.466   8.784  0.6839  0.1033  0.6397
  198MOL0     C26042   4.671   4.475   8.787 -0.9191 -0.3978 -0.0024
  198MOL0     C26043   4.609   4.363   8.870 -0.3027 -0.4415  1.1601
  198MOL0     C26044   4.458   4.381   8.892 -1.0017  0.5935  0.4545
  198MOL0     C26045   4.383   4.245   8.896  0.0448  0.4363  0.5793
  198MOL0     C26046   4.232   4.267   8.944 -0.1721 -0.0420  0.1373
  198MOL0     C26047   4.142   4.140   8.952  0.8957 -0.3107  0.2680
  198MOL0    Cl26048   3.976   4.183   9.001  0.0754 -0.2761 -0.0031
  198MOL0     C26049   4.846   4.892   8.838  0.4565 -0.4079  0.4457
  198MOL0     C26050   4.901   4.971   8.943  0.8121 -0.7572  0.1318
  198MOL0     O26051   4.919   5.063   9.235  0.0787 -0.2457 -0.4004
  198MOL0     C26052   5.243   5.206   9.230  0.4927 -0.9742  0.2537
  198MOL0     C26053   5.313   5.303   9.299  0.3190 -0.2647  0.0727
  198MOL0     N26054   5.863   5.528   9.786 -0.1088 -0.0021  1.0381
  198MOL0     N26055   5.985   5.537   9.821 -0.4468  0.2595  0.6128
  198MOL0     C26056   6.299   5.148  10.223 -0.4451 -0.1154  0.4014
  198MOL0     C26057   6.182   5.114  10.285  0.7183 -0.3862 -0.3174
  198MOL0     C26058   5.955   5.014  10.634 -0.5733  0.1856 -0.5637
  198MOL0     C26059   5.986   4.954  10.766  0.0375 -0.5671  0.0767
  198MOL0     C26060   5.881   4.900  10.838  0.0746  0.0237 -0.4282
  198MOL0     C26061   5.751   4.893  10.794 -0.3274 -0.3130 -0.5950
  198MOL0     O26062   5.665   4.840  10.884 -0.9750  0.4262  1.0343
  198MOL0     C26063   5.548   4.764  10.853  0.5433 -0.6427  0.4530
  198MOL0     C26064   5.423   4.860  10.846 -0.3982 -0.1336 -0.5542
  198MOL0     C26065   5.288   4.791  10.829  0.0141 -0.0709 -0.6444
  198MOL0     C26066   5.176   4.868  10.879  1.1760 -0.1405 -0.6473
  198MOL0     C26067   5.189   4.870  11.033  0.1259  0.4920  0.4783
  198MOL0     C26068   5.211   4.882  11.150 -0.7928 -0.7737  0.7623
  198MOL0     C26069   5.729   4.931  10.658  0.3107  1.0189  0.3542
  198MOL0     C26070   5.824   4.991  10.579 -0.3130 -0.0285 -0.3049
  198MOL0     H26071   6.092   5.394  10.445 -0.3254 -1.0931 -0.3355
  198MOL0     H26072   6.300   5.479  10.318  0.3098 -0.4734  0.7102
  198MOL0     H26073   6.479   5.187  10.021 -0.0451  0.2530  1.8119
  198MOL0     H26074   6.593   5.190  10.157 -0.6385 -0.5886 -0.2577
  198MOL0     H26075   6.710   5.250   9.979 -1.1263 -1.9067  2.4552
  198MOL0     H26076   6.694   5.401  10.065  0.6320 -3.2073  1.8414
  198MOL0     H26077   6.511   5.308   9.831 -1.9017  0.1093  1.1638
  198MOL0     H26078   6.652   5.418   9.803 -2.5804  2.6205 -2.0429
  198MOL0     H26079   6.412   5.499   9.963 -2.2177 -1.2345 -2.7993
  198MOL0     H26080   6.565   5.576   9.982 -1.2805  1.4331 -1.6564
  198MOL0     H26081   6.588   5.653   9.768  2.7207 -3.4711  1.4333
  198MOL0     H26082   6.422   5.683   9.812  1.2901  1.8895 -0.3383
  198MOL0     H26083   6.500   5.451   9.629  0.2678  1.7854 -1.1630
  198MOL0     H26084   6.443   5.605   9.589  4.4426  1.0425 -0.5091
  198MOL0     H26085   6.263   5.444   9.573 -1.4612  0.7165 -0.6437
  198MOL0     H26086   6.277   5.402   9.747 -3.0821  0.5790 -0.4679
  198MOL0     H26087   6.187   5.673   9.626  1.4529  1.3716  0.7665
  198MOL0     H26088   6.216   5.637   9.792 -0.8502 -0.2516 -0.6036
  198MOL0     H26089   6.007   5.506   9.493  0.1648 -2.1879  0.8062
  198MOL0     H26090   5.708   5.427   9.545  2.8332 -0.4271 -0.0299
  198MOL0     H26091   5.719   5.590   9.487 -1.1684 -1.4630 -0.1817
  198MOL0     H26092   5.627   5.659   9.735  0.0770 -0.0187  0.7817
  198MOL0     H26093   5.585   5.498   9.748  0.1315  0.9819  2.1765
  198MOL0     H26094   5.388   5.615   9.644  1.4958  0.3018  2.7094
  198MOL0     H26095   5.492   5.689   9.523 -0.5754 -0.0862  0.9569
  198MOL0     H26096   5.448   5.387   9.559 -0.3839 -1.2932 -0.9219
  198MOL0     H26097   5.509   5.450   9.409  2.9068 -0.3647  2.6649
  198MOL0     H26098   5.068   5.470   9.450  0.4052 -0.7039  1.6237
  198MOL0     H26099   4.939   5.283   9.329  0.5436  1.4682  1.2906
  198MOL0     H26100   5.186   4.798   8.998  0.6135  1.8045 -1.1833
  198MOL0     H26101   5.059   4.635   8.874  0.9325  1.0125 -0.3441
  198MOL0     H26102   4.996   4.558   8.690  0.4663  3.7202 -0.6786
  198MOL0     H26103   4.855   4.523   8.591  2.0310  0.0669  0.1511
  198MOL0     H26104   4.868   4.469   8.884  1.4169 -2.2010  0.4394
  198MOL0     H26105   4.842   4.366   8.745  2.1866  0.7940 -0.4733
  198MOL0     H26106   4.629   4.492   8.687  0.9169  0.8110 -0.6184
  198MOL0     H26107   4.640   4.567   8.838  0.2008 -1.1947  2.2463
  198MOL0     H26108   4.616   4.274   8.808  2.3782 -0.8022  1.8166
  198MOL0     H26109   4.657   4.345   8.967  1.1928 -1.4539  0.2841
  198MOL0     H26110   4.409   4.439   8.813  1.4697  2.4974  0.1850
  198MOL0     H26111   4.444   4.434   8.987  0.8718  0.9324  0.5647
  198MOL0     H26112   4.432   4.189   8.976  1.0370  1.2076  0.5482
  198MOL0     H26113   4.396   4.181   8.809  1.6537 -0.8985  1.7336
  198MOL0     H26114   4.254   4.298   9.047  1.3267 -0.3529 -0.0728
  198MOL0     H26115   4.175   4.340   8.885 -2.1849  0.6543  2.7025
  198MOL0     H26116   4.182   4.061   9.018  0.9912 -1.0259 -0.6233
  198MOL0     H26117   4.133   4.092   8.854 -0.2541 -0.8424  0.6149
  198MOL0     H26118   4.752   4.926   8.796  1.0023 -0.9774 -1.3507
  198MOL0     H26119   4.855   5.064   8.975 -0.8784 -2.1358  1.9526
  198MOL0     H26120   5.305   5.140   9.170  1.2236  1.5318 -1.9163
  198MOL0     H26121   5.419   5.319   9.284  0.3429 -1.0909 -0.7283
  198MOL0     H26122   6.349   5.075  10.159 -1.6895 -1.2665  0.7152
  198MOL0     H26123   6.145   5.012  10.287 -2.0080  0.4896 -1.1684
  198MOL0     H26124   6.084   4.953  10.814 -1.2845 -2.4707  3.0588
  198MOL0     H26125   5.895   4.862  10.939  0.4492  1.7036  0.1795
  198MOL0     H26126   5.533   4.685  10.927  0.0870 -1.9870 -1.0230
  198MOL0     H26127   5.555   4.724  10.752 -1.7574 -1.8667  0.6993
  198MOL0     H26128   5.422   4.928  10.932  0.3563 -0.2150 -0.4687
  198MOL0     H26129   5.451   4.927  10.764  4.1869 -1.0562 -0.0394
  198MOL0     H26130   5.293   4.691  10.873 -1.7324 -0.9578 -2.3257
  198MOL0     H26131   5.262   4.776  10.724 -2.3669 -2.2635  0.1732
  198MOL0     H26132   5.172   4.971  10.841  2.9287  1.0877  2.1941
  198MOL0     H26133   5.077   4.828  10.854  1.8076 -1.5970 -0.9041
  198MOL0     H26134   5.251   4.868  11.248 -1.3325  1.7480  1.4082
  198MOL0     H26135   5.629   4.907  10.623  0.5795 -2.5371  1.5238
  198MOL0     H26136   5.799   5.009  10.475  3.4930  1.4308 -1.1197
  199MOL0     O26137   7.669   0.693  10.549  0.4467 -0.2139 -0.4980
  199MOL0     C26138   7.774   0.720  10.607 -0.9746  0.6645 -0.7029
  199MOL0     O26139   7.791   0.749  10.743  0.7315 -0.5039 -0.0814
  199MOL0     C26140   7.679   0.732  10.815  0.2553 -0.3899 -0.3934
  199MOL0     C26141   7.627   0.598  10.851  0.5821  0.2393 -0.4089
  199MOL0     C26142   7.509   0.587  10.935  0.5899  0.1935  0.7509
  199MOL0     C26143   7.431   0.701  10.978  0.1045  0.1330 -0.3328
  199MOL0     O26144   7.304   0.703  11.036 -0.0285 -0.0042  0.2311
  199MOL0     C26145   7.254   0.578  11.086 -0.2111 -0.0799 -0.9935
  199MOL0     C26146   7.100   0.588  11.124  0.1912 -0.5086  0.9084
  199MOL0     C26147   7.049   0.454  11.181 -0.0833  0.4958 -0.8729
  199MOL0     C26148   6.905   0.466  11.213 -0.3626  0.7201  0.2725
  199MOL0     C26149   6.866   0.340  11.300 -0.3307 -0.5957  0.0837
  199MOL0     C26150   6.726   0.343  11.362  0.9907  0.7860 -0.6355
  199MOL0     C26151   6.688   0.231  11.468  0.2776  0.0573 -0.2591
  199MOL0     C26152   6.540   0.240  11.518 -0.4023  1.2659  0.3150
  199MOL0     N26153   6.503   0.105  11.575  0.4027 -0.9878 -0.6023
  199MOL0     C26154   6.514   0.088  11.709  0.3296  0.3394 -0.4445
  199MOL0     C26155   6.454  -0.034  11.722  0.6987 -0.8119 -0.1164
  199MOL0     C26156   6.435  -0.114  11.849 -0.1543  0.4133 -0.0230
  199MOL0     C26157   6.356  -0.035  11.954 -0.1402  0.2001 -0.5574
  199MOL0     C26158   6.318  -0.124  12.075  0.5011  0.1445 -0.3462
  199MOL0     C26159   6.167  -0.180  12.055  0.5713 -1.4950  0.5279
  199MOL0     O26160   6.129  -0.244  12.172 -0.0832  0.4842  0.9868
  199MOL0     C26161   6.029  -0.332  12.171  0.0908  0.1702  0.1691
  199MOL0     C26162   5.962  -0.379  12.052 -0.5687  0.2378 -0.2349
  199MOL0     C26163   5.849  -0.470  12.070  0.1662 -0.8421  0.2034
  199MOL0     C26164   5.805  -0.512  12.200  0.3320 -0.5766  0.3052
  199MOL0     C26165   5.694  -0.609  12.213  0.3442 -0.1952  0.0278
  199MOL0     O26166   5.630  -0.637  12.093 -0.4877 -0.2534  0.2815
  199MOL0     C26167   5.539  -0.739  12.087  0.4146  0.9794 -0.1795
  199MOL0     C26168   5.444  -0.778  12.184  0.3044  0.0603 -0.1141
  199MOL0     C26169   5.347  -0.872  12.163 -0.0114 -1.0932  0.4635
  199MOL0     C26170   5.345  -0.948  12.038 -1.4994  1.1095  0.2582
  199MOL0     O26171   5.240  -1.027  12.006  0.3450 -0.8140  0.2617
  199MOL0     C26172   5.119  -1.024  12.085  0.5054 -0.0399  0.1560
  199MOL0     C26173   5.129  -1.123  12.205  0.0814 -0.2792 -0.0018
  199MOL0     C26174   5.017  -1.097  12.305  0.3881 -0.0515 -1.1356
  199MOL0     C26175   4.871  -1.145  12.258  0.1480 -0.0061  0.4590
  199MOL0     C26176   4.775  -1.104  12.358 -0.1392  0.6520  0.0264
  199MOL0     C26177   4.720  -0.959  12.327  0.1272  0.7400 -0.8324
  199MOL0     C26178   4.673  -0.890  12.450 -0.2170 -0.3579 -0.0339
  199MOL0     C26179   4.548  -0.946  12.517 -0.0093  0.7243  1.2490
  199MOL0    Cl26180   4.402  -0.947  12.413 -0.1977 -0.3728 -0.0971
  199MOL0     C26181   5.454  -0.931  11.945  0.3269  0.0533 -0.1764
  199MOL0     C26182   5.545  -0.826  11.971 -0.5047 -0.2408  1.1545
  199MOL0     O26183   5.681  -0.672  12.319 -0.1252  0.3023  0.2440
  199MOL0     C26184   5.879  -0.475  12.309 -0.7306 -0.6808 -0.2031
  199MOL0     C26185   5.984  -0.383  12.296 -0.1863 -0.4342  0.5733
  199MOL0     N26186   6.416  -0.085  11.596 -0.7427  0.0573 -0.2240
  199MOL0     N26187   6.446   0.001  11.508 -0.2159 -0.3973  0.0267
  199MOL0     C26188   7.485   0.825  10.944  0.4397 -0.3161  0.4267
  199MOL0     C26189   7.601   0.838  10.869  0.0747 -0.1034 -0.4282
  199MOL0     C26190   7.906   0.704  10.533 -0.4719 -0.1220 -0.5221
  199MOL0     C26191   7.902   0.703  10.394  0.1384 -0.9360  0.6151
  199MOL0     C26192   8.016   0.710  10.319  0.2296  0.2746 -0.2705
  199MOL0     C26193   8.143   0.704  10.384  0.4124  0.7745 -0.5185
  199MOL0     O26194   8.264   0.712  10.324 -0.7917  0.0072 -0.1150
  199MOL0     C26195   8.270   0.657  10.185  0.8065 -0.4589 -0.0083
  199MOL0     C26196   8.410   0.668  10.143 -1.0087 -0.2087 -0.0438
  199MOL0     C26197   8.427   0.652   9.984 -0.5775 -0.6949  0.2472
  199MOL0     C26198   8.557   0.711   9.929  1.0643  0.5218 -1.2466
  199MOL0     C26199   8.673   0.646   9.998  0.6958  0.2468 -0.9118
  199MOL0     C26200   8.768   0.600  10.061  0.0337  0.2247  0.0579
  199MOL0     C26201   8.142   0.698  10.521 -0.6613 -1.0197 -0.5590
  199MOL0     C26202   8.028   0.706  10.602  0.5497 -0.4614  0.3446
  199MOL0     H26203   7.662   0.506  10.806 -1.0053 -1.0261  0.8182
  199MOL0     H26204   7.473   0.487  10.958  1.7904 -0.3686  0.2803
  199MOL0     H26205   7.302   0.550  11.180 -0.4119  1.7662 -0.3005
  199MOL0     H26206   7.265   0.502  11.008  1.3635 -0.5008 -0.3935
  199MOL0     H26207   7.038   0.604  11.036  0.3579 -0.1682  0.8533
  199MOL0     H26208   7.088   0.666  11.199  0.2559  0.8722 -0.4788
  199MOL0     H26209   7.096   0.450  11.280 -0.8404  3.3903 -0.2855
  199MOL0     H26210   7.078   0.371  11.116  0.7087  1.9519 -2.4569
  199MOL0     H26211   6.895   0.564  11.261  0.2833  1.4465 -1.0458
  199MOL0     H26212   6.847   0.464  11.120  1.2328 -3.0171 -0.8351
  199MOL0     H26213   6.928   0.330  11.390  0.1208 -1.5125 -0.3211
  199MOL0     H26214   6.872   0.245  11.246  1.1029 -1.6352  1.9430
  199MOL0     H26215   6.656   0.327  11.280 -0.0460  0.3362  0.3112
  199MOL0     H26216   6.711   0.440  11.410 -1.4223 -0.3546  1.1420
  199MOL0     H26217   6.710   0.135  11.421 -0.7036 -0.3295  0.0306
  199MOL0     H26218   6.755   0.235  11.554  0.9662  0.9474 -0.8250
  199MOL0     H26219   6.467   0.281  11.448 -1.2671  1.1154  1.1043
  199MOL0     H26220   6.537   0.300  11.609  0.9975 -1.2474  2.1545
  199MOL0     H26221   6.561   0.150  11.785  2.0110 -1.9001  0.4609
  199MOL0     H26222   6.534  -0.140  11.889 -1.3768 -1.0737  2.2252
  199MOL0     H26223   6.381  -0.204  11.820  3.1927 -1.4363 -1.0592
  199MOL0     H26224   6.265   0.007  11.911  0.3532 -0.5507 -2.4154
  199MOL0     H26225   6.436   0.030  11.991 -0.7985  1.7049 -1.7080
  199MOL0     H26226   6.389  -0.203  12.098  1.1006  0.5474 -0.7948
  199MOL0     H26227   6.309  -0.056  12.160 -2.3343 -1.5213  0.8480
  199MOL0     H26228   6.175  -0.254  11.975 -1.4622 -2.7646  1.4168
  199MOL0     H26229   6.099  -0.098  12.028  0.9384 -1.0330  0.9997
  199MOL0     H26230   6.010  -0.343  11.962  3.4352 -2.2665  0.6514
  199MOL0     H26231   5.804  -0.511  11.981  0.3809 -0.9147  0.1288
  199MOL0     H26232   5.435  -0.718  12.274 -0.7388  1.5304 -1.1665
  199MOL0     H26233   5.267  -0.879  12.236 -4.1153 -4.6255 -3.6532
  199MOL0     H26234   5.043  -1.048  12.010 -0.5816  4.6922 -0.5656
  199MOL0     H26235   5.104  -0.923  12.123 -2.2928 -0.6989  1.0630
  199MOL0     H26236   5.225  -1.118  12.256  0.3463 -4.2896  0.2029
  199MOL0     H26237   5.125  -1.225  12.165  0.5306  0.2076 -1.3552
  199MOL0     H26238   5.005  -0.994  12.340  3.9130 -0.5035  2.1309
  199MOL0     H26239   5.029  -1.164  12.391 -1.4573 -0.8504 -1.4618
  199MOL0     H26240   4.848  -1.097  12.162 -0.1026 -1.9236 -0.4896
  199MOL0     H26241   4.862  -1.250  12.229  1.3037  0.1946 -0.7317
  199MOL0     H26242   4.828  -1.095  12.453  3.1457  3.9776 -1.8325
  199MOL0     H26243   4.697  -1.179  12.374  1.7849 -1.4296  0.2788
  199MOL0     H26244   4.635  -0.957  12.258 -0.5175 -1.5490 -0.1913
  199MOL0     H26245   4.803  -0.899  12.290  1.9512 -1.0339  0.1928
  199MOL0     H26246   4.760  -0.899  12.515 -0.1120  0.6999 -0.0123
  199MOL0     H26247   4.646  -0.786  12.430 -1.3493 -0.6577 -0.1564
  199MOL0     H26248   4.538  -0.883  12.607  2.0248  2.6172  0.2554
  199MOL0     H26249   4.571  -1.050  12.542 -1.6403  0.0671  0.1993
  199MOL0     H26250   5.473  -0.998  11.862 -2.2249 -0.5953 -0.3061
  199MOL0     H26251   5.618  -0.817  11.892 -2.5616 -0.3046 -0.8474
  199MOL0     H26252   5.841  -0.512  12.404 -0.9017 -1.5167 -0.5874
  199MOL0     H26253   6.045  -0.341  12.376 -0.2831  3.2293 -1.0568
  199MOL0     H26254   7.430   0.914  10.971  1.4776  0.4129  0.2158
  199MOL0     H26255   7.627   0.941  10.849 -0.8588  1.1881  3.8613
  199MOL0     H26256   7.811   0.705  10.337  0.3857 -0.5358  0.2291
  199MOL0     H26257   8.013   0.720  10.211  0.1212  0.3989 -0.2558
  199MOL0     H26258   8.214   0.733  10.130  1.6833 -0.3453 -0.7649
  199MOL0     H26259   8.234   0.554  10.172 -5.3845  1.4691 -1.1294
  199MOL0     H26260   8.443   0.770  10.164  1.0846 -0.5452 -1.3313
  199MOL0     H26261   8.472   0.600  10.201  0.1834 -0.7006 -1.8045
  199MOL0     H26262   8.349   0.709   9.932  0.4476 -1.0028 -1.7589
  199MOL0     H26263   8.418   0.544   9.969 -0.5139 -1.3066  3.7750
  199MOL0     H26264   8.569   0.693   9.821  3.0986  0.8876 -1.1180
  199MOL0     H26265   8.570   0.819   9.943 -0.6399  0.9005 -2.2536
  199MOL0     H26266   8.850   0.551  10.109 -0.1205  1.0454  1.2229
  199MOL0     H26267   8.241   0.708  10.564 -0.3693  1.7953 -1.6359
  199MOL0     H26268   8.021   0.712  10.710  0.9114 -1.7262  0.4458
  200MOL0     O26269   9.386   7.440   5.468  0.0258  0.5750  0.0527
  200MOL0     C26270   9.375   7.431   5.346 -0.1888 -0.0103 -0.2777
  200MOL0     O26271   9.255   7.410   5.277 -0.3083 -0.0651 -0.1940
  200MOL0     C26272   9.134   7.381   5.348 -0.9940  0.3666  0.0098
  200MOL0     C26273   9.032   7.471   5.358  0.0057  0.3367 -0.8507
  200MOL0     C26274   8.928   7.454   5.448 -0.1608 -1.1463 -1.3095
  200MOL0     C26275   8.917   7.344   5.527  0.6880 -0.2342 -0.6728
  200MOL0     O26276   8.805   7.340   5.618  0.0159  0.5548  0.3809
  200MOL0     C26277   8.808   7.236   5.722  0.3994  0.1293  0.3818
  200MOL0     C26278   8.664   7.239   5.790 -0.0182  0.0844  0.1320
  200MOL0     C26279   8.558   7.205   5.679 -0.7972  0.7943 -0.2518
  200MOL0     C26280   8.423   7.161   5.733  1.1788  0.1809 -0.3183
  200MOL0     C26281   8.322   7.147   5.625 -0.7984 -0.2218 -0.1837
  200MOL0     C26282   8.279   7.279   5.555 -0.0853  0.5666  0.2097
  200MOL0     C26283   8.149   7.263   5.480  0.1365 -0.2355  0.2283
  200MOL0     C26284   8.073   7.396   5.437  0.3240  0.3939 -0.0707
  200MOL0     N26285   7.934   7.367   5.399 -0.9354 -0.1821 -0.3196
  200MOL0     C26286   7.835   7.362   5.491 -0.0580  0.4896  0.8202
  200MOL0     C26287   7.721   7.374   5.419 -0.5442  0.4917 -0.7808
  200MOL0     C26288   7.576   7.365   5.467  0.4429 -0.3315 -0.0533
  200MOL0     C26289   7.486   7.484   5.422 -0.3862  0.5815 -0.4669
  200MOL0     C26290   7.337   7.452   5.465 -0.6473  0.4332 -0.1396
  200MOL0     C26291   7.251   7.577   5.469 -0.6237 -0.0189  0.1706
  200MOL0     O26292   7.269   7.624   5.600 -0.2777 -0.0033  0.8826
  200MOL0     C26293   7.191   7.735   5.638  0.3225  0.0613 -0.9868
  200MOL0     C26294   7.060   7.755   5.587 -0.6573  0.1717  0.2667
  200MOL0     C26295   6.972   7.855   5.650 -0.1762 -0.0947  0.6072
  200MOL0     C26296   7.014   7.922   5.759  0.0262 -0.0807 -0.0040
  200MOL0     C26297   6.926   8.034   5.809  0.4113 -0.0229  0.0828
  200MOL0     O26298   6.809   8.069   5.735 -0.8861  0.1153 -0.0524
  200MOL0     C26299   6.757   8.191   5.747  0.6198 -0.8704  0.0452
  200MOL0     C26300   6.819   8.312   5.791 -0.6403 -0.5015  0.1955
  200MOL0     C26301   6.744   8.430   5.793  0.5879  0.3054  0.5591
  200MOL0     C26302   6.610   8.440   5.755 -0.2530 -0.3897  0.2440
  200MOL0     O26303   6.560   8.570   5.761 -0.3340 -0.1240 -0.0348
  200MOL0     C26304   6.454   8.592   5.668 -0.3257 -0.1121 -0.9774
  200MOL0     C26305   6.449   8.739   5.629 -0.8193 -0.5310  0.0264
  200MOL0     C26306   6.366   8.779   5.511 -0.1749 -0.2356  0.1682
  200MOL0     C26307   6.221   8.794   5.546 -0.2239  0.7092  0.7028
  200MOL0     C26308   6.129   8.761   5.427 -0.7621  0.1194 -0.8781
  200MOL0     C26309   6.163   8.836   5.299 -0.4860  0.2642 -0.8903
  200MOL0     C26310   6.064   8.792   5.187 -0.5052  1.0784  0.4885
  200MOL0     C26311   5.916   8.823   5.210 -0.1530  0.2880 -0.4306
  200MOL0    Cl26312   5.827   8.765   5.060  0.2270  0.0209 -0.1402
  200MOL0     C26313   6.545   8.319   5.728  0.1951 -0.4191 -0.2383
  200MOL0     C26314   6.620   8.198   5.727  0.0029  0.2782  0.4051
  200MOL0     O26315   6.959   8.090   5.915  0.2045 -0.6691  0.1182
  200MOL0     C26316   7.141   7.900   5.812  0.3146  0.5280 -0.0115
  200MOL0     C26317   7.229   7.807   5.752  0.6218 -0.6829 -0.1364
  200MOL0     N26318   7.756   7.382   5.283 -0.0708 -0.7937  0.3716
  200MOL0     N26319   7.886   7.382   5.271  0.3098  0.3356  0.2860
  200MOL0     C26320   9.016   7.242   5.511 -0.0991 -0.1973 -0.0697
  200MOL0     C26321   9.125   7.262   5.421  0.0658 -0.7810 -0.3219
  200MOL0     C26322   9.504   7.416   5.271 -1.0185 -1.1887  0.0397
  200MOL0     C26323   9.514   7.356   5.149  0.0431 -0.6705  0.2620
  200MOL0     C26324   9.646   7.344   5.094 -0.5287 -0.4201  0.3445
  200MOL0     C26325   9.755   7.404   5.154  0.3629  0.5897 -0.8524
  200MOL0     O26326   9.882   7.401   5.101 -0.8309 -0.7569 -0.2548
  200MOL0     C26327   9.894   7.380   4.959 -0.2637 -0.2860 -0.5819
  200MOL0     C26328  10.040   7.388   4.912 -0.0565 -0.2151 -0.3720
  200MOL0     C26329  10.106   7.269   4.973 -0.3635 -0.1523 -0.7948
  200MOL0     C26330  10.254   7.293   4.932 -0.4713  0.8858 -0.0077
  200MOL0     C26331  10.355   7.210   5.000  0.8814 -0.1480  1.1058
  200MOL0     C26332  10.447   7.150   5.053 -0.1072 -0.5643  0.2062
  200MOL0     C26333   9.745   7.465   5.278  0.3396  0.0250 -0.0184
  200MOL0     C26334   9.616   7.473   5.331 -0.0749 -0.9139  0.5962
  200MOL0     H26335   9.038   7.566   5.306  2.4220  1.4778  1.2908
  200MOL0     H26336   8.846   7.526   5.455  0.3340 -0.7281  1.4973
  200MOL0     H26337   8.879   7.260   5.802 -0.1869 -1.1129  1.3017
  200MOL0     H26338   8.843   7.138   5.688  3.4089  0.6745  1.5344
  200MOL0     H26339   8.644   7.334   5.840  0.5471 -0.5909  1.7155
  200MOL0     H26340   8.664   7.160   5.867  0.6407  0.0687  0.1220
  200MOL0     H26341   8.598   7.119   5.624  0.6434 -0.5420  2.6487
  200MOL0     H26342   8.543   7.284   5.606  1.4927  0.7922 -0.7885
  200MOL0     H26343   8.423   7.061   5.777 -1.0948 -0.2799 -1.2162
  200MOL0     H26344   8.389   7.223   5.818 -1.6946 -3.1671  1.2629
  200MOL0     H26345   8.242   7.099   5.682  0.0624 -1.6113 -0.1040
  200MOL0     H26346   8.360   7.080   5.547  0.9530  0.6261 -0.1088
  200MOL0     H26347   8.360   7.320   5.494  0.2034  0.6798  0.6661
  200MOL0     H26348   8.263   7.351   5.636 -1.1588  1.9609 -1.1730
  200MOL0     H26349   8.170   7.200   5.393 -1.0955 -0.8421  0.3440
  200MOL0     H26350   8.079   7.203   5.539  0.2737  1.5743  2.3557
  200MOL0     H26351   8.119   7.445   5.352  0.2683  1.7997  0.6816
  200MOL0     H26352   8.074   7.463   5.523  2.8010  1.0382 -0.5178
  200MOL0     H26353   7.844   7.357   5.599  0.1234  1.8455  0.8843
  200MOL0     H26354   7.574   7.366   5.576  0.7147 -1.4450 -0.0247
  200MOL0     H26355   7.531   7.272   5.430 -0.5301 -1.4207  3.4808
  200MOL0     H26356   7.493   7.489   5.312 -3.1755 -0.8542 -0.7943
  200MOL0     H26357   7.527   7.572   5.473 -2.3373  0.0742  2.1475
  200MOL0     H26358   7.300   7.378   5.394 -1.5698  2.2437 -1.6406
  200MOL0     H26359   7.324   7.413   5.566  0.1158 -1.6971 -0.8164
  200MOL0     H26360   7.150   7.550   5.434 -0.6103 -0.8560  0.7466
  200MOL0     H26361   7.297   7.642   5.394  1.6235  0.1927  1.6632
  200MOL0     H26362   7.019   7.698   5.504 -0.5469  0.7266 -0.1773
  200MOL0     H26363   6.873   7.874   5.610  0.1464  0.0860 -0.1176
  200MOL0     H26364   6.925   8.312   5.814 -0.7188  2.3024  0.8725
  200MOL0     H26365   6.785   8.525   5.827 -1.1396  1.9606 -1.6707
  200MOL0     H26366   6.365   8.558   5.721  0.9452  0.3455  1.5647
  200MOL0     H26367   6.461   8.537   5.574 -1.0137 -0.1608 -1.0063
  200MOL0     H26368   6.554   8.764   5.611 -1.1352 -1.1169 -3.2347
  200MOL0     H26369   6.418   8.805   5.710 -2.3585  0.2013 -1.1192
  200MOL0     H26370   6.381   8.696   5.441 -1.4656 -0.2488 -0.1079
  200MOL0     H26371   6.404   8.876   5.480 -2.3789  0.0100 -2.0656
  200MOL0     H26372   6.197   8.717   5.620  2.4885 -2.0978 -1.0848
  200MOL0     H26373   6.206   8.894   5.589  1.4420  0.7417  1.2851
  200MOL0     H26374   6.026   8.782   5.458 -1.3269 -0.9047 -1.9543
  200MOL0     H26375   6.150   8.654   5.413  2.4366  0.3454  1.2854
  200MOL0     H26376   6.267   8.806   5.282 -0.0670 -0.3040  2.0306
  200MOL0     H26377   6.164   8.944   5.314  0.0601  0.0118  1.2812
  200MOL0     H26378   6.110   8.836   5.098  0.1744 -0.7497 -0.1157
  200MOL0     H26379   6.073   8.684   5.174 -1.1657  1.1717 -0.8482
  200MOL0     H26380   5.912   8.931   5.226 -1.9346  0.2736 -0.5485
  200MOL0     H26381   5.889   8.773   5.303  3.3929 -1.0573  0.0109
  200MOL0     H26382   6.441   8.308   5.697  0.4251 -1.1559 -0.7678
  200MOL0     H26383   6.588   8.103   5.684 -0.0112  1.1216 -1.5560
  200MOL0     H26384   7.177   7.960   5.895 -0.9673  1.1307  0.1352
  200MOL0     H26385   7.325   7.787   5.796  0.2134 -2.5802 -0.0366
  200MOL0     H26386   9.005   7.152   5.571 -0.2077  0.6562  1.2279
  200MOL0     H26387   9.202   7.186   5.422  0.0121 -0.8465 -1.0611
  200MOL0     H26388   9.428   7.310   5.102 -0.0198 -1.2348  0.9049
  200MOL0     H26389   9.668   7.293   5.002  1.2362 -0.4691  0.7677
  200MOL0     H26390   9.839   7.462   4.911 -1.3539  0.3947  1.6925
  200MOL0     H26391   9.853   7.284   4.928 -1.1652  0.0578 -0.4883
  200MOL0     H26392  10.044   7.399   4.804 -0.4276 -0.6748 -0.4339
  200MOL0     H26393  10.083   7.481   4.951  0.9414  0.2381 -2.4130
  200MOL0     H26394  10.070   7.179   4.922  0.5645 -0.8588 -0.2276
  200MOL0     H26395  10.098   7.254   5.081  1.1757 -1.9814 -0.8855
  200MOL0     H26396  10.262   7.283   4.823  1.2106 -0.1262  0.1856
  200MOL0     H26397  10.290   7.394   4.954 -1.5645  1.2338  0.2640
  200MOL0     H26398  10.533   7.103   5.096 -1.7206 -2.9179  1.0355
  200MOL0     H26399   9.828   7.513   5.328  1.1417  0.5351 -1.7722
  200MOL0     H26400   9.612   7.526   5.426 -0.7662 -4.9952  3.0793
  201MOL0     O26401  11.006   5.878   4.958  0.4364  0.2205 -0.9279
  201MOL0     C26402  11.075   5.896   4.860  0.2653  0.0208 -0.0354
  201MOL0     O26403  11.092   6.016   4.792  0.1210 -0.3736  0.1132
  201MOL0     C26404  11.007   6.125   4.805 -0.5239 -0.4104 -0.1219
  201MOL0     C26405  11.060   6.241   4.745  0.4288  0.4107 -0.2357
  201MOL0     C26406  10.992   6.364   4.757 -0.0187  0.1342  0.5516
  201MOL0     C26407  10.876   6.368   4.822  0.5641 -0.2069 -1.0650
  201MOL0     O26408  10.826   6.492   4.851 -0.0941 -0.0926  0.2086
  201MOL0     C26409  10.694   6.518   4.804  0.2107 -0.9973 -0.2003
  201MOL0     C26410  10.709   6.655   4.719  0.7951 -0.1309  0.1514
  201MOL0     C26411  10.648   6.776   4.781  0.6350 -0.6034 -0.8466
  201MOL0     C26412  10.653   6.884   4.670  0.0492 -0.5837  0.2752
  201MOL0     C26413  10.597   7.025   4.723 -0.4080  0.6186  0.8479
  201MOL0     C26414  10.659   7.141   4.642 -0.1078 -0.6097  0.9129
  201MOL0     C26415  10.652   7.277   4.701 -0.2021 -0.4347 -0.2193
  201MOL0     C26416  10.738   7.303   4.822 -0.4635 -0.4495 -0.0371
  201MOL0     N26417  10.724   7.441   4.851  0.0980  0.8101  0.3494
  201MOL0     C26418  10.623   7.508   4.907 -0.1049 -0.4033  0.9095
  201MOL0     C26419  10.665   7.639   4.919 -1.2670  1.3348  1.3380
  201MOL0     C26420  10.580   7.738   4.983  0.1347 -0.2372  0.0335
  201MOL0     C26421  10.640   7.777   5.123 -0.2958  0.1622 -0.0900
  201MOL0     C26422  10.616   7.921   5.167 -0.4037 -0.1119 -0.5891
  201MOL0     C26423  10.466   7.954   5.181 -0.1368  0.1587  0.0482
  201MOL0     O26424  10.454   8.082   5.238 -0.2292 -0.7748 -0.3540
  201MOL0     C26425  10.336   8.126   5.293  0.0674  0.2154  0.0248
  201MOL0     C26426  10.216   8.049   5.299 -0.3107  0.1356  0.6871
  201MOL0     C26427  10.093   8.098   5.326  0.2787  0.1513  1.0548
  201MOL0     C26428  10.089   8.238   5.364  0.3937 -0.1033  0.7937
  201MOL0     C26429   9.962   8.294   5.400  0.5252  0.0121  0.4083
  201MOL0     O26430   9.856   8.212   5.426  0.3107  0.0914  0.6313
  201MOL0     C26431   9.737   8.260   5.478 -0.8061 -0.9876  0.0029
  201MOL0     C26432   9.689   8.390   5.498  0.4344 -0.4807  0.2781
  201MOL0     C26433   9.557   8.425   5.534 -0.2829  0.1962  0.0712
  201MOL0     C26434   9.474   8.321   5.557  0.0662  0.0047  0.0208
  201MOL0     O26435   9.344   8.339   5.569 -0.7550 -0.9857 -0.5475
  201MOL0     C26436   9.305   8.443   5.662  0.1179 -0.0120  0.6917
  201MOL0     C26437   9.173   8.403   5.721  0.6197 -0.3986 -0.6913
  201MOL0     C26438   9.180   8.264   5.795  0.1685  0.2644  0.1948
  201MOL0     C26439   9.043   8.227   5.845 -0.1667  0.5528  0.4152
  201MOL0     C26440   9.045   8.080   5.896 -0.0341  0.9980 -0.3655
  201MOL0     C26441   9.144   8.055   6.011  0.7026 -0.0880 -0.5348
  201MOL0     C26442   9.127   7.924   6.083 -0.1116 -0.6308 -0.4003
  201MOL0     C26443   9.230   7.921   6.203  0.2745  0.0596 -0.1840
  201MOL0    Cl26444   9.221   7.775   6.306  0.5589 -0.2606 -0.5381
  201MOL0     C26445   9.514   8.189   5.548 -0.5012  0.2747 -0.4885
  201MOL0     C26446   9.649   8.162   5.508  0.4497 -0.1069  0.4204
  201MOL0     O26447   9.960   8.415   5.424 -0.1520  0.1776 -0.2534
  201MOL0     C26448  10.206   8.316   5.365  0.2920 -0.1805 -0.0257
  201MOL0     C26449  10.326   8.264   5.315  0.1209 -0.1361  0.1671
  201MOL0     N26450  10.788   7.647   4.858 -0.0223  0.4630 -0.1964
  201MOL0     N26451  10.825   7.527   4.825  0.4657  0.6745 -0.6210
  201MOL0     C26452  10.819   6.255   4.889 -0.0347 -0.9619  0.1021
  201MOL0     C26453  10.881   6.134   4.867  0.6659 -0.3849 -0.2447
  201MOL0     C26454  11.149   5.782   4.817 -0.1056  1.4957 -0.3141
  201MOL0     C26455  11.115   5.655   4.866  0.5103  0.1524 -0.7495
  201MOL0     C26456  11.185   5.541   4.816  0.7843 -0.2669 -0.4564
  201MOL0     C26457  11.273   5.555   4.712  0.3876 -0.0122 -0.0025
  201MOL0     O26458  11.318   5.434   4.660  0.2981  0.0981  0.6809
  201MOL0     C26459  11.411   5.427   4.556 -0.4564  0.4419  0.7913
  201MOL0     C26460  11.552   5.412   4.606 -0.2127 -0.3112  0.1689
  201MOL0     C26461  11.580   5.281   4.672 -0.2323  0.3841 -0.4327
  201MOL0     C26462  11.516   5.245   4.807 -0.1948 -0.3030  0.3655
  201MOL0     C26463  11.579   5.141   4.885  0.0963 -0.1438  0.4472
  201MOL0     C26464  11.633   5.058   4.955  0.2054  0.6759  0.5766
  201MOL0     C26465  11.318   5.684   4.670  0.3194  0.4740 -0.1874
  201MOL0     C26466  11.264   5.794   4.733  0.7445  0.2150  0.1092
  201MOL0     H26467  11.157   6.237   4.695  0.1464 -2.2765 -0.7102
  201MOL0     H26468  11.035   6.451   4.708 -0.7992 -0.7175 -1.7895
  201MOL0     H26469  10.631   6.544   4.889  0.1940  0.8784 -0.7342
  201MOL0     H26470  10.637   6.445   4.746  2.2313 -2.2072 -0.7707
  201MOL0     H26471  10.662   6.637   4.622  2.5936 -0.3618 -0.7213
  201MOL0     H26472  10.815   6.663   4.694  0.9040 -2.2696 -0.2712
  201MOL0     H26473  10.696   6.799   4.876 -2.6905  0.8111  0.6618
  201MOL0     H26474  10.540   6.766   4.794  0.4872  2.4647  1.5362
  201MOL0     H26475  10.757   6.901   4.639 -0.3686  2.5811  0.2879
  201MOL0     H26476  10.599   6.845   4.583  0.8313  0.0079 -0.4866
  201MOL0     H26477  10.620   7.033   4.830  1.1696  1.3526  0.4801
  201MOL0     H26478  10.488   7.034   4.713 -0.3272  1.1356  0.3630
  201MOL0     H26479  10.607   7.145   4.545  1.2277 -0.5797  0.1685
  201MOL0     H26480  10.760   7.125   4.604 -1.1062 -1.8705 -1.4488
  201MOL0     H26481  10.691   7.345   4.625  0.0765  1.3399  1.4457
  201MOL0     H26482  10.545   7.300   4.714 -0.6396 -2.2126 -0.4148
  201MOL0     H26483  10.835   7.264   4.793 -0.7844 -1.1969 -0.1239
  201MOL0     H26484  10.700   7.241   4.904 -1.1939 -1.2124 -0.9218
  201MOL0     H26485  10.520   7.478   4.925 -0.5546  1.5675  1.8514
  201MOL0     H26486  10.483   7.695   5.010 -0.2481  1.1503  1.0236
  201MOL0     H26487  10.563   7.818   4.910  1.4321 -0.3074 -0.3597
  201MOL0     H26488  10.749   7.771   5.116  0.1823  4.4204  1.0139
  201MOL0     H26489  10.609   7.706   5.201  0.7029  2.9331  3.1021
  201MOL0     H26490  10.680   7.931   5.255 -2.3428  2.2206  0.6525
  201MOL0     H26491  10.657   8.000   5.103  1.3054  1.4636  2.2312
  201MOL0     H26492  10.408   7.879   5.236  0.2348  2.3632  3.7921
  201MOL0     H26493  10.419   7.963   5.083  1.1252 -0.2685 -0.6162
  201MOL0     H26494  10.205   7.945   5.267 -0.2101  0.2497  0.2690
  201MOL0     H26495  10.005   8.036   5.317 -0.4687  1.3490 -0.5353
  201MOL0     H26496   9.753   8.475   5.478 -0.1231  0.3777  1.9401
  201MOL0     H26497   9.510   8.523   5.537 -2.5596 -0.8283  2.4039
  201MOL0     H26498   9.294   8.544   5.621 -2.1023  0.1424  1.5689
  201MOL0     H26499   9.381   8.452   5.740 -1.6885  1.4516  2.3755
  201MOL0     H26500   9.090   8.399   5.651 -1.7072 -0.6142  1.9273
  201MOL0     H26501   9.149   8.465   5.808  1.9194 -0.9537  0.1114
  201MOL0     H26502   9.247   8.278   5.880 -1.7575  2.6011  1.4399
  201MOL0     H26503   9.216   8.186   5.727  0.1997  2.1846 -2.1569
  201MOL0     H26504   9.011   8.296   5.924  0.6454 -0.5999  1.7819
  201MOL0     H26505   8.969   8.229   5.764 -2.1233  0.9594  2.1208
  201MOL0     H26506   9.069   7.991   5.836 -0.2507 -0.5743  1.7435
  201MOL0     H26507   8.948   8.046   5.933  1.1185  0.4190  2.4416
  201MOL0     H26508   9.135   8.149   6.067 -1.5954  0.1647 -1.2037
  201MOL0     H26509   9.247   8.060   5.973  1.6679  0.8774  2.0101
  201MOL0     H26510   9.023   7.920   6.118  0.2725  0.6641  1.0235
  201MOL0     H26511   9.151   7.843   6.013 -0.7262  0.6047 -2.0751
  201MOL0     H26512   9.219   8.014   6.260 -2.2496 -1.2767  1.6808
  201MOL0     H26513   9.334   7.915   6.169  1.5606  1.0542  3.1978
  201MOL0     H26514   9.448   8.105   5.562  1.6237 -1.5164 -0.6907
  201MOL0     H26515   9.692   8.063   5.523  0.1285 -0.1038  1.4267
  201MOL0     H26516  10.200   8.420   5.396  0.5959  0.1412 -1.0082
  201MOL0     H26517  10.409   8.330   5.294  1.5919 -2.4993 -2.0697
  201MOL0     H26518  10.733   6.278   4.951  0.0591 -0.5790  0.0937
  201MOL0     H26519  10.834   6.048   4.913  0.0327 -0.4303 -0.9556
  201MOL0     H26520  11.032   5.637   4.933  0.7497  0.8398 -0.2639
  201MOL0     H26521  11.150   5.442   4.842  1.8339 -1.4149 -3.0988
  201MOL0     H26522  11.404   5.513   4.489 -3.0505  0.6416  1.2194
  201MOL0     H26523  11.388   5.336   4.499 -0.8138  0.0927  1.4865
  201MOL0     H26524  11.621   5.408   4.521 -0.6210  0.5590 -0.2117
  201MOL0     H26525  11.587   5.504   4.653 -0.5171  0.1599 -0.5101
  201MOL0     H26526  11.688   5.285   4.686 -0.3819  1.8203  0.5249
  201MOL0     H26527  11.563   5.200   4.601  1.2426  0.6275 -1.1013
  201MOL0     H26528  11.517   5.329   4.877 -0.8999 -0.2535  0.3206
  201MOL0     H26529  11.413   5.212   4.792  1.0068 -3.4829 -2.1067
  201MOL0     H26530  11.685   4.987   5.016  1.6456  1.9360  0.8768
  201MOL0     H26531  11.394   5.685   4.592 -0.1705 -3.7406 -0.9879
  201MOL0     H26532  11.288   5.898   4.710  0.5561  0.5416  1.3398
  202MOL0     O26533   7.329  10.423   5.598 -0.0403  0.2217 -0.2140
  202MOL0     C26534   7.366  10.428   5.480  0.3462 -0.6492 -0.7125
  202MOL0     O26535   7.290  10.484   5.380  0.2453 -0.7018  0.8017
  202MOL0     C26536   7.173  10.540   5.418 -0.3491 -0.1912 -0.6688
  202MOL0     C26537   7.048  10.473   5.433 -0.5056  0.0684 -0.2112
  202MOL0     C26538   6.929  10.551   5.459 -0.1439 -0.0375  0.3525
  202MOL0     C26539   6.926  10.688   5.471 -0.5140  0.0527 -0.4193
  202MOL0     O26540   6.821  10.753   5.533  0.0999  0.4404 -0.6903
  202MOL0     C26541   6.724  10.790   5.440 -0.2777 -0.8508 -0.4398
  202MOL0     C26542   6.590  10.778   5.507 -0.7770  0.0326 -0.1785
  202MOL0     C26543   6.560  10.634   5.540  1.8701 -0.0607 -0.3109
  202MOL0     C26544   6.433  10.631   5.629  1.0821  0.1305 -0.2939
  202MOL0     C26545   6.385  10.490   5.658  0.2010  0.8146  0.8318
  202MOL0     C26546   6.270  10.487   5.743  0.7688 -0.0412 -0.4650
  202MOL0     C26547   6.272  10.352   5.819  0.5235  0.1431  0.0407
  202MOL0     C26548   6.142  10.323   5.909 -0.0017 -0.1940  0.3230
  202MOL0     N26549   6.012  10.329   5.831  0.5536 -0.5903 -0.7001
  202MOL0     C26550   5.950  10.222   5.777  0.0887 -1.0923  0.1342
  202MOL0     C26551   5.853  10.272   5.700 -0.4445  0.9316 -0.0493
  202MOL0     C26552   5.756  10.202   5.610  0.4630  1.0501 -0.3805
  202MOL0     C26553   5.644  10.122   5.677 -0.0740 -0.2789 -0.5593
  202MOL0     C26554   5.554  10.202   5.771  0.1315  0.4589  0.4834
  202MOL0     C26555   5.493  10.324   5.726 -0.8082  0.3890  0.2669
  202MOL0     O26556   5.413  10.302   5.611  0.3033  0.1670  0.4333
  202MOL0     C26557   5.281  10.260   5.631  0.4412  1.0111  0.2286
  202MOL0     C26558   5.215  10.253   5.752 -0.2694 -0.4523 -0.4293
  202MOL0     C26559   5.089  10.193   5.763  0.4566  0.1071  0.0313
  202MOL0     C26560   5.018  10.156   5.648 -0.9325  0.7365 -0.2534
  202MOL0     C26561   4.878  10.113   5.647  0.0146  0.3119 -0.6816
  202MOL0     O26562   4.834  10.056   5.534 -0.7215 -0.2122 -0.1571
  202MOL0     C26563   4.716   9.994   5.528  0.7341 -0.4235 -0.4609
  202MOL0     C26564   4.599  10.072   5.544 -1.0348  1.0583  0.6889
  202MOL0     C26565   4.473  10.013   5.529 -0.6735  0.3789 -0.5442
  202MOL0     C26566   4.459   9.882   5.477  0.5206 -0.2113 -0.8907
  202MOL0     O26567   4.340   9.816   5.453  0.7241 -0.2198 -0.0839
  202MOL0     C26568   4.223   9.895   5.454 -0.7336 -0.6229 -0.0184
  202MOL0     C26569   4.125   9.812   5.388  0.9564  0.5181  0.7910
  202MOL0     C26570   3.984   9.859   5.416 -0.4184  0.0366 -0.1125
  202MOL0     C26571   3.881   9.775   5.347  0.8582 -0.2501  0.8122
  202MOL0     C26572   3.751   9.796   5.424  0.4175 -0.2782  0.0191
  202MOL0     C26573   3.624   9.775   5.347  0.0392 -0.3282  0.4724
  202MOL0     C26574   3.577   9.639   5.297 -0.2879  0.5342 -0.6429
  202MOL0     C26575   3.432   9.651   5.240 -0.6517  0.1305  0.1447
  202MOL0    Cl26576   3.422   9.781   5.111  0.0029 -0.0321  0.1188
  202MOL0     C26577   4.575   9.813   5.438  1.0104  0.3553 -0.4597
  202MOL0     C26578   4.708   9.859   5.475  0.3649 -0.1246  0.2464
  202MOL0     O26579   4.810  10.113   5.752  0.3803 -0.0978  0.6211
  202MOL0     C26580   5.094  10.157   5.529  0.4941 -0.2637  0.7383
  202MOL0     C26581   5.222  10.212   5.514  0.1667  1.2170 -0.0571
  202MOL0     N26582   5.852  10.408   5.714 -0.5270 -0.3651  0.1912
  202MOL0     N26583   5.946  10.442   5.790  0.2206 -0.2690  0.2726
  202MOL0     C26584   7.052  10.747   5.455 -1.0675 -0.4549 -0.4029
  202MOL0     C26585   7.174  10.677   5.421  0.7889 -0.0100  0.9537
  202MOL0     C26586   7.483  10.342   5.449 -0.1873  0.5931 -0.3517
  202MOL0     C26587   7.509  10.310   5.316 -0.1260  0.0780  1.1499
  202MOL0     C26588   7.624  10.232   5.277  0.1873 -0.5553 -0.7758
  202MOL0     C26589   7.715  10.199   5.370 -0.3562  0.2618 -0.4188
  202MOL0     O26590   7.822  10.117   5.327  0.4340 -0.4647 -0.1969
  202MOL0     C26591   7.915  10.094   5.428  0.3630  0.2392  0.6340
  202MOL0     C26592   8.035  10.029   5.370  0.6489  1.0569 -0.9976
  202MOL0     C26593   8.143   9.996   5.479  0.0510 -0.7670  0.5333
  202MOL0     C26594   8.271   9.959   5.410  0.1655 -0.0640  0.2451
  202MOL0     C26595   8.341  10.073   5.332  1.2199  0.4734 -0.9163
  202MOL0     C26596   8.405  10.153   5.279  0.5522  0.9878  0.6292
  202MOL0     C26597   7.690  10.235   5.505 -0.2574 -1.0798  0.0686
  202MOL0     C26598   7.575  10.306   5.545 -0.8980 -0.0065 -0.8345
  202MOL0     H26599   7.040  10.366   5.425 -0.8391  0.0354  0.4674
  202MOL0     H26600   6.847  10.491   5.497 -0.4820  1.6739  2.5116
  202MOL0     H26601   6.717  10.734   5.347  3.1470  2.2286 -2.8245
  202MOL0     H26602   6.744  10.896   5.418 -0.6987 -0.6714  0.0127
  202MOL0     H26603   6.523  10.818   5.431  2.7894  1.4498 -2.8365
  202MOL0     H26604   6.611  10.824   5.604  0.4635  0.6298 -0.7067
  202MOL0     H26605   6.635  10.592   5.607 -1.1271 -0.0574  3.4105
  202MOL0     H26606   6.557  10.571   5.450 -0.5090 -1.4085  0.6051
  202MOL0     H26607   6.457  10.679   5.725  0.5302  0.4594 -0.3153
  202MOL0     H26608   6.349  10.678   5.579  1.7688  1.6375 -0.0936
  202MOL0     H26609   6.469  10.435   5.702  0.8722  2.1032  1.2140
  202MOL0     H26610   6.354  10.442   5.564 -1.2811 -0.9826  2.1687
  202MOL0     H26611   6.187  10.508   5.675  1.3419  0.5223 -1.0039
  202MOL0     H26612   6.266  10.568   5.816  0.4418 -0.2741 -0.2210
  202MOL0     H26613   6.279  10.276   5.741  0.3174  1.0496 -0.8734
  202MOL0     H26614   6.359  10.345   5.885  2.9128  3.1074 -2.5286
  202MOL0     H26615   6.141  10.396   5.990  1.5774  2.0615 -1.5420
  202MOL0     H26616   6.147  10.220   5.946 -0.1569 -0.1673  0.4128
  202MOL0     H26617   5.987  10.120   5.781 -0.9638 -1.4912  0.0112
  202MOL0     H26618   5.826  10.134   5.560 -0.9614 -0.2684 -0.6711
  202MOL0     H26619   5.709  10.251   5.525 -1.7009 -0.5102 -0.1733
  202MOL0     H26620   5.702  10.048   5.733 -0.6199  0.0814  0.5163
  202MOL0     H26621   5.587  10.068   5.602 -1.8832 -0.3010  0.7730
  202MOL0     H26622   5.478  10.132   5.808  1.3596 -0.4416  1.3814
  202MOL0     H26623   5.616  10.234   5.855 -2.0862  0.9472  2.0350
  202MOL0     H26624   5.572  10.395   5.699 -0.4786  0.1858  0.6897
  202MOL0     H26625   5.441  10.360   5.815 -2.1222  1.1319 -0.7571
  202MOL0     H26626   5.255  10.291   5.845 -2.3431 -2.2750  1.3230
  202MOL0     H26627   5.030  10.194   5.855 -3.7528 -2.4125 -2.3214
  202MOL0     H26628   4.609  10.180   5.558  1.7270  0.9364  0.1913
  202MOL0     H26629   4.386  10.067   5.564 -1.6908 -1.4128 -0.1678
  202MOL0     H26630   4.251   9.985   5.398  1.2975 -0.7900  0.6667
  202MOL0     H26631   4.203   9.921   5.558 -1.1157 -1.8053  0.2112
  202MOL0     H26632   4.125   9.712   5.433 -1.0438  0.5917  1.0575
  202MOL0     H26633   4.149   9.806   5.282 -0.1499  0.4293  0.5425
  202MOL0     H26634   3.977   9.963   5.384  1.2120  0.3182  0.2990
  202MOL0     H26635   3.972   9.856   5.525  0.5783 -1.2365  0.0024
  202MOL0     H26636   3.882   9.817   5.246 -0.2003 -1.1287  0.4224
  202MOL0     H26637   3.901   9.668   5.341 -1.8431 -0.9970  3.1755
  202MOL0     H26638   3.759   9.899   5.460  0.1929 -0.4275  0.5074
  202MOL0     H26639   3.739   9.729   5.509 -0.4065 -1.1366 -0.7530
  202MOL0     H26640   3.632   9.841   5.260 -4.4522 -0.0754 -0.0083
  202MOL0     H26641   3.553   9.834   5.404 -0.2264 -1.1867  1.0541
  202MOL0     H26642   3.656   9.630   5.221 -0.7912  2.4832 -1.4429
  202MOL0     H26643   3.593   9.564   5.375  1.2111  1.6203  0.1417
  202MOL0     H26644   3.360   9.668   5.320 -0.5619  1.4523 -0.0433
  202MOL0     H26645   3.415   9.553   5.193  1.6176  0.9431 -2.6452
  202MOL0     H26646   4.555   9.712   5.404  1.2866  0.3448 -0.5959
  202MOL0     H26647   4.802   9.808   5.455  2.6023  3.4935  0.4472
  202MOL0     H26648   5.058  10.128   5.431  2.8642 -0.3100 -0.1812
  202MOL0     H26649   5.271  10.221   5.418  0.6969  2.8596  0.3359
  202MOL0     H26650   7.058  10.854   5.471 -4.5153  0.1366 -2.2087
  202MOL0     H26651   7.265  10.736   5.412  1.2281 -0.4466  2.3289
  202MOL0     H26652   7.433  10.338   5.243  0.9968  0.1841 -0.0112
  202MOL0     H26653   7.637  10.208   5.172 -1.1339  2.0537 -1.6358
  202MOL0     H26654   7.868  10.025   5.499  2.1161  0.5669  2.1863
  202MOL0     H26655   7.950  10.183   5.481  1.3437  0.7782 -0.8488
  202MOL0     H26656   8.004   9.929   5.341 -2.4241  0.7557  2.5794
  202MOL0     H26657   8.090  10.075   5.287  3.1450 -0.7379 -0.4584
  202MOL0     H26658   8.112   9.905   5.532 -0.4558 -1.1323 -0.3601
  202MOL0     H26659   8.165  10.073   5.553 -0.9521  1.2385 -1.1314
  202MOL0     H26660   8.343   9.925   5.485 -1.1423 -0.5288  1.3144
  202MOL0     H26661   8.253   9.870   5.348  0.0822  0.2924 -0.2484
  202MOL0     H26662   8.454  10.229   5.221 -1.1522  0.3055 -1.9058
  202MOL0     H26663   7.756  10.218   5.590  1.1419  1.9461 -0.3037
  202MOL0     H26664   7.554  10.333   5.648 -4.0917  1.2386 -1.6745
  203MOL0     O26665   6.643  10.275   5.304 -0.9406  0.2340  0.3949
  203MOL0     C26666   6.653  10.208   5.204 -0.4112  0.5356  0.3409
  203MOL0     O26667   6.548  10.166   5.132 -0.1962  0.4740  0.4560
  203MOL0     C26668   6.422  10.212   5.159  1.0013  0.5257  0.1386
  203MOL0     C26669   6.340  10.270   5.066 -0.1895 -0.5911 -0.1787
  203MOL0     C26670   6.210  10.324   5.106  0.0938  0.2727  0.6450
  203MOL0     C26671   6.169  10.319   5.239 -0.5075 -0.0830  0.1842
  203MOL0     O26672   6.055  10.371   5.298 -0.0080 -0.6275  0.2984
  203MOL0     C26673   5.950  10.427   5.218 -0.2852 -0.1185  0.4308
  203MOL0     C26674   5.815  10.420   5.302 -0.2208 -0.8074  0.8142
  203MOL0     C26675   5.711  10.513   5.243 -0.2268 -0.5427  0.9156
  203MOL0     C26676   5.663  10.466   5.104 -0.6089  0.0665 -0.3126
  203MOL0     C26677   5.536  10.382   5.117 -0.8542  0.3117  0.5155
  203MOL0     C26678   5.479  10.313   4.982  0.6781 -0.2199 -0.4543
  203MOL0     C26679   5.353  10.230   5.006  0.4000 -0.6424 -0.2511
  203MOL0     C26680   5.228  10.304   5.059 -0.2673  0.9168 -0.5920
  203MOL0     N26681   5.114  10.205   5.075 -0.1686 -0.5109 -0.1736
  203MOL0     C26682   5.020  10.194   4.978 -0.2048  0.6246 -0.2100
  203MOL0     C26683   4.949  10.088   5.018  0.0169 -0.1222 -0.8411
  203MOL0     C26684   4.834  10.031   4.936 -0.5005  0.0311  0.0603
  203MOL0     C26685   4.776   9.902   4.999 -0.1713 -0.3614 -0.0255
  203MOL0     C26686   4.708   9.919   5.142 -0.1455 -0.8005 -0.2510
  203MOL0     C26687   4.581  10.008   5.142 -0.3364 -0.3231  0.2822
  203MOL0     O26688   4.507  10.002   5.026  0.1922 -0.0372 -0.3796
  203MOL0     C26689   4.406   9.916   5.018 -0.1193  0.4494 -0.4897
  203MOL0     C26690   4.330   9.941   4.912  0.0917  0.2895  0.7851
  203MOL0     C26691   4.215   9.873   4.880 -1.1111  0.3235  0.3383
  203MOL0     C26692   4.180   9.759   4.960 -1.0480  0.2076 -0.2229
  203MOL0     C26693   4.055   9.676   4.927  0.3980 -0.6669  0.2127
  203MOL0     O26694   3.965   9.725   4.839  0.2645 -0.0134 -0.4459
  203MOL0     C26695   3.837   9.680   4.825  0.2953 -0.4274 -0.8071
  203MOL0     C26696   3.759   9.624   4.928 -0.9969 -0.2032  0.2654
  203MOL0     C26697   3.628   9.591   4.908 -0.4807 -0.6430  0.0906
  203MOL0     C26698   3.568   9.611   4.787 -0.2734 -0.2171  0.6558
  203MOL0     O26699   3.439   9.574   4.772  0.0305  0.0621 -0.5421
  203MOL0     C26700   3.350   9.685   4.745 -0.5110 -0.5158  1.2608
  203MOL0     C26701   3.209   9.633   4.738 -0.0708  0.8628 -0.2886
  203MOL0     C26702   3.155   9.612   4.878 -0.0470 -0.0248 -0.3125
  203MOL0     C26703   3.004   9.598   4.894 -0.2578 -0.0466  0.3028
  203MOL0     C26704   2.961   9.458   4.840 -0.8379 -0.3115  0.1609
  203MOL0     C26705   2.816   9.430   4.882  0.6434 -0.5830  0.8819
  203MOL0     C26706   2.764   9.294   4.836  0.0225  0.2135  0.2301
  203MOL0     C26707   2.609   9.309   4.827 -0.7106 -0.4328  0.6679
  203MOL0    Cl26708   2.529   9.182   4.728 -0.3410 -0.4774  0.1524
  203MOL0     C26709   3.636   9.672   4.683 -0.5393  0.0353  0.5418
  203MOL0     C26710   3.771   9.705   4.707  0.0535  0.1676 -0.6009
  203MOL0     O26711   4.039   9.574   4.985 -0.1157 -0.2397  0.0387
  203MOL0     C26712   4.277   9.720   5.060  0.7818  0.5041  0.7019
  203MOL0     C26713   4.389   9.796   5.095  0.5022 -0.4457 -0.0065
  203MOL0     N26714   5.008  10.026   5.128  0.0916  0.1056  0.3568
  203MOL0     N26715   5.102  10.108   5.164 -0.0155 -0.0706  0.1749
  203MOL0     C26716   6.251  10.252   5.333 -0.4144 -0.2759 -0.2114
  203MOL0     C26717   6.366  10.191   5.288 -0.5242  0.0197  0.6001
  203MOL0     C26718   6.791  10.169   5.158  0.6503  0.1866  0.4806
  203MOL0     C26719   6.811  10.101   5.035  0.9841 -0.1751 -1.6087
  203MOL0     C26720   6.942  10.080   4.976  0.3102  0.1767 -0.3660
  203MOL0     C26721   7.053  10.129   5.053 -0.5392  1.2381  0.2020
  203MOL0     O26722   7.184  10.085   5.023  0.9387 -0.2284 -0.2580
  203MOL0     C26723   7.198   9.942   5.007 -0.0073  0.0299 -0.3983
  203MOL0     C26724   7.354   9.926   4.988  0.3685 -0.6996 -0.3109
  203MOL0     C26725   7.445   9.902   5.106 -0.0176 -0.7093  0.4636
  203MOL0     C26726   7.600   9.899   5.079 -0.1609  0.5060  0.0177
  203MOL0     C26727   7.657   9.769   5.099  0.3679  0.5545 -0.0872
  203MOL0     C26728   7.711   9.665   5.126 -0.0938  0.3759 -0.9039
  203MOL0     C26729   7.034  10.207   5.168 -0.5634  0.0830  0.4427
  203MOL0     C26730   6.907  10.222   5.220 -1.2654 -1.1362 -0.8752
  203MOL0     H26731   6.365  10.281   4.961 -0.6060  0.8408 -0.1506
  203MOL0     H26732   6.159  10.363   5.018 -0.1278 -3.7355 -1.2533
  203MOL0     H26733   5.942  10.360   5.132  0.1127  0.1211  0.2107
  203MOL0     H26734   5.978  10.523   5.175  0.0821  0.6014  2.1853
  203MOL0     H26735   5.839  10.452   5.403  1.5211  2.1435 -0.4021
  203MOL0     H26736   5.789  10.314   5.297 -0.3401 -0.7196 -1.9842
  203MOL0     H26737   5.755  10.611   5.228 -1.5645 -0.0274  0.1820
  203MOL0     H26738   5.625  10.529   5.308  0.3920 -0.7088  1.7893
  203MOL0     H26739   5.639  10.554   5.045  2.0917  2.5396  1.9672
  203MOL0     H26740   5.742  10.410   5.052 -2.8225 -1.9507 -1.6914
  203MOL0     H26741   5.461  10.448   5.160 -0.8197  0.4026  0.4357
  203MOL0     H26742   5.547  10.297   5.186 -2.3010 -1.1687 -0.9712
  203MOL0     H26743   5.557  10.257   4.930  0.5402  1.1291 -2.2270
  203MOL0     H26744   5.448  10.391   4.911  0.3562 -1.6778 -1.9624
  203MOL0     H26745   5.331  10.195   4.905 -2.1953 -1.5956  0.5522
  203MOL0     H26746   5.369  10.148   5.075  0.1247  2.5388  4.0196
  203MOL0     H26747   5.204  10.380   4.984 -3.5108  0.8034  0.1881
  203MOL0     H26748   5.264  10.347   5.153  1.1556  0.6325 -0.9726
  203MOL0     H26749   5.007  10.252   4.887 -1.4533 -1.3429 -1.3603
  203MOL0     H26750   4.889  10.000   4.847 -1.1987  2.1788 -1.1923
  203MOL0     H26751   4.760  10.107   4.908 -0.4645 -0.4120 -1.3022
  203MOL0     H26752   4.855   9.830   5.022 -2.8346 -3.3089  0.5937
  203MOL0     H26753   4.709   9.843   4.936 -0.0351 -4.7924  3.5116
  203MOL0     H26754   4.690   9.818   5.179  0.1784 -1.2766 -1.3555
  203MOL0     H26755   4.779   9.958   5.216 -0.5805 -1.2813  0.4324
  203MOL0     H26756   4.616  10.111   5.160  2.0874 -1.0343  0.0323
  203MOL0     H26757   4.514   9.986   5.226 -2.7766  4.4614 -0.0403
  203MOL0     H26758   4.353  10.025   4.846  1.2924  0.2536  1.1378
  203MOL0     H26759   4.148   9.900   4.799 -1.3353 -3.0424 -0.7485
  203MOL0     H26760   3.803   9.599   5.024 -1.3733 -1.2821  0.1757
  203MOL0     H26761   3.571   9.547   4.989  0.9157 -1.0078  0.9025
  203MOL0     H26762   3.367   9.734   4.648  0.6426 -1.3284  1.0311
  203MOL0     H26763   3.373   9.761   4.820 -0.8102  2.9692 -1.8720
  203MOL0     H26764   3.199   9.542   4.679 -2.2344  1.2066 -0.5037
  203MOL0     H26765   3.145   9.701   4.680  1.5856  1.1570 -1.8732
  203MOL0     H26766   3.187   9.695   4.942  0.8542 -1.6237  1.4071
  203MOL0     H26767   3.202   9.531   4.934 -2.9215 -0.1898  2.1111
  203MOL0     H26768   2.984   9.591   5.002  0.9067 -1.5833  0.4626
  203MOL0     H26769   2.961   9.684   4.842  1.9750  0.8849 -0.1124
  203MOL0     H26770   3.031   9.379   4.871  1.5548  1.2096 -1.0600
  203MOL0     H26771   2.975   9.460   4.732  1.0580  1.5270  0.3617
  203MOL0     H26772   2.754   9.513   4.847  3.4926  1.8665  1.1903
  203MOL0     H26773   2.807   9.429   4.991  1.1313 -0.3207  0.9324
  203MOL0     H26774   2.804   9.290   4.734  0.9279  2.0517  0.4793
  203MOL0     H26775   2.786   9.216   4.909 -0.6235  0.0529  0.2573
  203MOL0     H26776   2.588   9.401   4.772  3.6676  0.3472 -0.1376
  203MOL0     H26777   2.570   9.322   4.928 -2.1440  0.7313  0.0023
  203MOL0     H26778   3.600   9.690   4.583  1.0571 -1.0009 -0.2544
  203MOL0     H26779   3.833   9.753   4.632  1.6599 -1.3245 -0.2996
  203MOL0     H26780   4.245   9.634   5.117 -1.0019  1.0230  0.5641
  203MOL0     H26781   4.447   9.780   5.185  1.6425  0.5896 -0.5208
  203MOL0     H26782   6.211  10.260   5.434 -0.7140  1.7225 -0.4508
  203MOL0     H26783   6.422  10.144   5.369 -0.7615  1.1527  1.4340
  203MOL0     H26784   6.725  10.083   4.971  0.4381  2.1459 -1.5926
  203MOL0     H26785   6.951  10.028   4.881 -1.9754 -0.3411 -0.3451
  203MOL0     H26786   7.151   9.909   4.914  0.5668  0.9248 -1.0274
  203MOL0     H26787   7.160   9.876   5.084  3.1711 -1.5604 -0.0070
  203MOL0     H26788   7.369   9.845   4.916  3.4158  1.2942 -2.1399
  203MOL0     H26789   7.384  10.016   4.935  0.2215 -1.8292 -2.4131
  203MOL0     H26790   7.419   9.808   5.157  2.0072 -3.5170 -3.2029
  203MOL0     H26791   7.416   9.983   5.174 -2.0057 -0.8081 -0.2090
  203MOL0     H26792   7.607   9.932   4.975 -1.3203  0.6413 -0.0268
  203MOL0     H26793   7.660   9.971   5.134  2.9506 -0.8635 -1.3438
  203MOL0     H26794   7.762   9.577   5.159 -0.9752 -0.3449 -1.4387
  203MOL0     H26795   7.123  10.251   5.211  0.3503  0.9000 -2.1077
  203MOL0     H26796   6.879  10.283   5.306 -0.7455 -1.4754 -0.4602
  204MOL0     O26797   5.351   1.772   2.970 -0.5127  0.2427  0.0327
  204MOL0     C26798   5.313   1.874   2.914  0.9382 -0.1679 -0.5460
  204MOL0     O26799   5.194   1.885   2.855 -0.1258  0.5000  0.0330
  204MOL0     C26800   5.108   1.771   2.861  0.0445 -0.3293 -0.2873
  204MOL0     C26801   5.123   1.671   2.767 -0.6449  0.5308 -0.1163
  204MOL0     C26802   5.029   1.566   2.765 -0.6909 -0.5855  1.8766
  204MOL0     C26803   4.916   1.572   2.847 -0.0362  0.2742 -0.9306
  204MOL0     O26804   4.834   1.462   2.834  0.0661 -0.0703 -0.0181
  204MOL0     C26805   4.717   1.469   2.906 -0.1387 -0.3730 -0.2396
  204MOL0     C26806   4.637   1.349   2.867  0.2204 -0.2742 -0.3787
  204MOL0     C26807   4.492   1.380   2.925 -0.4448  0.3628 -0.6310
  204MOL0     C26808   4.405   1.266   2.904  0.2631 -0.1116 -0.9245
  204MOL0     C26809   4.267   1.276   2.974  0.0838  0.3862  0.2934
  204MOL0     C26810   4.188   1.403   2.936  0.0889  0.1495 -0.5639
  204MOL0     C26811   4.053   1.424   3.008  0.5603 -0.1287  0.6826
  204MOL0     C26812   3.944   1.513   2.946 -0.1234 -0.3199 -0.1537
  204MOL0     N26813   3.811   1.501   3.015 -0.4390 -0.7821  0.8188
  204MOL0     C26814   3.711   1.422   2.973 -0.1257  0.5423 -0.1577
  204MOL0     C26815   3.602   1.464   3.049 -1.0606 -0.4678  0.6831
  204MOL0     C26816   3.458   1.422   3.032  0.4805 -1.2013  0.0166
  204MOL0     C26817   3.373   1.454   3.153  0.3181  0.4784 -0.3886
  204MOL0     C26818   3.231   1.447   3.114  0.3893  0.0253 -0.1996
  204MOL0     C26819   3.144   1.447   3.232  1.1976 -0.7631 -0.4965
  204MOL0     O26820   3.008   1.437   3.196  0.7571  0.7886  0.5403
  204MOL0     C26821   2.919   1.416   3.301 -0.0307  0.7568  0.4854
  204MOL0     C26822   2.943   1.401   3.437  0.1381  0.3793  0.3413
  204MOL0     C26823   2.838   1.380   3.528  0.1636 -0.2813  0.5265
  204MOL0     C26824   2.708   1.358   3.487  0.9101 -0.6387  0.0717
  204MOL0     C26825   2.611   1.303   3.592 -0.3369  0.5152  0.6193
  204MOL0     O26826   2.620   1.343   3.725  0.3335 -0.1862  0.3613
  204MOL0     C26827   2.522   1.290   3.801 -0.7993  0.1917 -0.1463
  204MOL0     C26828   2.406   1.370   3.825 -0.7512  0.2323 -0.1568
  204MOL0     C26829   2.299   1.325   3.909 -0.0317  0.4459  0.4603
  204MOL0     C26830   2.320   1.216   3.988  0.8376 -0.5464  0.9483
  204MOL0     O26831   2.230   1.167   4.073  0.5773  0.8461 -0.0816
  204MOL0     C26832   2.146   1.245   4.148 -0.7171  0.3650 -0.4731
  204MOL0     C26833   2.229   1.329   4.245  0.0573  0.1379  0.4371
  204MOL0     C26834   2.130   1.423   4.296  0.1562 -0.5873 -0.0257
  204MOL0     C26835   2.205   1.501   4.405 -0.4445  0.1148  0.0643
  204MOL0     C26836   2.225   1.414   4.535 -0.7069  0.1179  0.3488
  204MOL0     C26837   2.220   1.490   4.665  0.8500  0.3251 -0.4244
  204MOL0     C26838   2.215   1.397   4.786  0.4521  0.3675 -0.2216
  204MOL0     C26839   2.336   1.313   4.832  0.4387 -1.2614 -0.7495
  204MOL0    Cl26840   2.292   1.266   5.001 -0.1149  0.2096 -0.1811
  204MOL0     C26841   2.446   1.148   3.977 -0.7215 -0.8286  0.5034
  204MOL0     C26842   2.550   1.187   3.887  0.0222  0.6458 -0.7756
  204MOL0     O26843   2.525   1.224   3.548 -0.2415  0.2229 -0.1181
  204MOL0     C26844   2.675   1.376   3.346 -0.0337 -0.2991 -0.0479
  204MOL0     C26845   2.787   1.392   3.254 -1.2162 -0.4242 -0.2252
  204MOL0     N26846   3.649   1.540   3.150  0.3671 -0.6028 -0.4751
  204MOL0     N26847   3.773   1.571   3.126 -0.0128 -0.0154 -1.3430
  204MOL0     C26848   4.893   1.675   2.937  0.3501 -0.0184  0.3825
  204MOL0     C26849   4.995   1.768   2.949 -0.5204 -0.0328 -0.8730
  204MOL0     C26850   5.385   2.007   2.917  0.3657  0.1069  1.1235
  204MOL0     C26851   5.522   1.999   2.941 -0.5843 -0.6499  0.2045
  204MOL0     C26852   5.596   2.117   2.911 -0.2953  0.0538  0.2353
  204MOL0     C26853   5.541   2.234   2.852 -0.6833 -0.6429 -0.9600
  204MOL0     O26854   5.632   2.333   2.820  0.3183  0.3505  0.8026
  204MOL0     C26855   5.593   2.422   2.711  0.3039  0.0886  0.4050
  204MOL0     C26856   5.624   2.346   2.576  0.1469 -0.5430 -1.1973
  204MOL0     C26857   5.637   2.445   2.459 -0.1685 -0.4995 -0.9426
  204MOL0     C26858   5.525   2.546   2.450  0.6663 -0.4966  1.4106
  204MOL0     C26859   5.528   2.623   2.326 -0.6752 -0.4602 -0.3126
  204MOL0     C26860   5.517   2.686   2.226 -0.0902  0.2138  0.3766
  204MOL0     C26861   5.398   2.237   2.844 -0.1801 -0.5905 -0.2799
  204MOL0     C26862   5.322   2.127   2.876  0.3319 -0.8143 -0.6114
  204MOL0     H26863   5.208   1.677   2.699 -1.6074  1.8127 -1.2525
  204MOL0     H26864   5.037   1.482   2.697  3.9789  1.7800 -1.0268
  204MOL0     H26865   4.669   1.563   2.880  0.8731 -0.0804 -1.1139
  204MOL0     H26866   4.739   1.469   3.013  3.2986  0.4835 -0.8219
  204MOL0     H26867   4.687   1.257   2.900 -0.1059  0.7335  3.4220
  204MOL0     H26868   4.615   1.345   2.760 -1.7327  1.2126 -0.0761
  204MOL0     H26869   4.446   1.458   2.863 -0.2736  0.4098 -0.6969
  204MOL0     H26870   4.494   1.396   3.033  1.8585 -2.0090 -0.2177
  204MOL0     H26871   4.399   1.237   2.798 -0.2369 -3.3693 -0.1133
  204MOL0     H26872   4.448   1.182   2.959 -2.9838 -0.3912  1.4801
  204MOL0     H26873   4.291   1.289   3.080  1.8688  2.0365 -0.2584
  204MOL0     H26874   4.214   1.182   2.955  0.6253  0.0927  0.2199
  204MOL0     H26875   4.160   1.395   2.831 -0.8867  3.5544 -0.6995
  204MOL0     H26876   4.254   1.490   2.947  1.1402 -0.4791 -1.6384
  204MOL0     H26877   4.013   1.323   3.021 -0.1369  0.0960  0.3290
  204MOL0     H26878   4.074   1.457   3.111  3.0350 -0.7721  0.4469
  204MOL0     H26879   3.938   1.498   2.838 -0.8688  1.7665 -0.4352
  204MOL0     H26880   3.994   1.609   2.963 -0.1012  0.2740 -3.1077
  204MOL0     H26881   3.712   1.348   2.894  0.5267 -0.1443  0.4729
  204MOL0     H26882   3.457   1.313   3.027  2.2631 -1.2040 -0.9859
  204MOL0     H26883   3.416   1.464   2.940  1.9669 -2.0252 -1.0633
  204MOL0     H26884   3.387   1.556   3.192 -0.0754  0.2567  0.3525
  204MOL0     H26885   3.405   1.389   3.234  0.6412  0.8513 -0.2139
  204MOL0     H26886   3.209   1.538   3.059  0.0132  0.6175  0.8966
  204MOL0     H26887   3.200   1.354   3.065 -1.3686 -2.1248  4.3053
  204MOL0     H26888   3.142   1.534   3.297 -2.7523  0.3370 -1.8140
  204MOL0     H26889   3.170   1.362   3.296 -0.5943  0.0473  1.4046
  204MOL0     H26890   3.044   1.411   3.475  1.0948  1.0441 -2.2011
  204MOL0     H26891   2.863   1.383   3.634 -0.7529 -0.5704  0.7607
  204MOL0     H26892   2.395   1.462   3.768  0.6532  1.3018  1.2349
  204MOL0     H26893   2.208   1.385   3.904  0.1874  0.6607 -1.5410
  204MOL0     H26894   2.082   1.172   4.199 -0.9642 -0.5164 -2.0100
  204MOL0     H26895   2.093   1.303   4.073  1.0402  0.5493 -1.6253
  204MOL0     H26896   2.304   1.382   4.186 -0.8007 -0.6558 -1.4551
  204MOL0     H26897   2.281   1.275   4.325 -0.0713 -0.9970 -0.2200
  204MOL0     H26898   2.041   1.372   4.334 -0.7686  0.3485 -0.8852
  204MOL0     H26899   2.089   1.486   4.217  0.7860 -1.8742 -1.4432
  204MOL0     H26900   2.294   1.549   4.363 -0.7216  1.9555  1.4583
  204MOL0     H26901   2.153   1.590   4.442 -0.7491  0.7801 -1.8386
  204MOL0     H26902   2.326   1.373   4.526 -0.2254  1.4963 -1.0749
  204MOL0     H26903   2.149   1.336   4.537 -1.7566  1.1141  2.5236
  204MOL0     H26904   2.133   1.556   4.658  1.1883  0.6301 -2.4448
  204MOL0     H26905   2.308   1.555   4.671  1.0858 -0.0368  0.0428
  204MOL0     H26906   2.209   1.469   4.868 -0.2429 -0.3082  0.3418
  204MOL0     H26907   2.117   1.350   4.792 -0.9111  3.1156  0.5908
  204MOL0     H26908   2.436   1.356   4.842 -0.9883  2.0242  1.0370
  204MOL0     H26909   2.349   1.226   4.767 -2.4150 -0.5126 -2.4902
  204MOL0     H26910   2.469   1.061   4.037  1.5974  0.2101  1.2176
  204MOL0     H26911   2.641   1.128   3.889 -0.7546 -0.5972  2.0299
  204MOL0     H26912   2.572   1.372   3.312 -0.7373  0.4222  1.8825
  204MOL0     H26913   2.777   1.398   3.146 -1.8291 -0.9269 -0.2027
  204MOL0     H26914   4.806   1.691   2.999 -1.5900  1.2744 -2.4715
  204MOL0     H26915   4.986   1.849   3.021 -0.8662 -0.4958 -0.3833
  204MOL0     H26916   5.585   1.915   2.966 -3.4195 -4.6357 -4.2838
  204MOL0     H26917   5.703   2.107   2.926 -0.4886 -3.1341  0.0828
  204MOL0     H26918   5.659   2.509   2.705  0.8867 -0.1970  2.2269
  204MOL0     H26919   5.487   2.447   2.718 -0.4993 -2.2005 -2.0189
  204MOL0     H26920   5.719   2.293   2.588  1.2290  0.3247 -4.7372
  204MOL0     H26921   5.543   2.276   2.552 -0.2390  0.6653 -3.7066
  204MOL0     H26922   5.634   2.388   2.366 -1.2558  1.0467 -1.9120
  204MOL0     H26923   5.735   2.494   2.453  0.9508 -2.7543 -2.1092
  204MOL0     H26924   5.428   2.498   2.464  1.2180 -1.6688  1.3352
  204MOL0     H26925   5.529   2.615   2.535 -0.2162  1.1702  0.1399
  204MOL0     H26926   5.503   2.744   2.137  0.7082  0.2908  0.2907
  204MOL0     H26927   5.342   2.322   2.806  0.9874 -0.4250 -1.7115
  204MOL0     H26928   5.221   2.124   2.839  0.6431 -3.3907 -1.4560
  205MOL0     O26929   7.034   4.276   7.486 -1.5575 -0.2952  0.0916
  205MOL0     C26930   7.059   4.339   7.591 -0.7883  0.4677  0.9250
  205MOL0     O26931   6.983   4.348   7.703  0.3894 -0.4209 -0.2730
  205MOL0     C26932   6.855   4.298   7.701 -0.8377  0.8066 -0.8701
  205MOL0     C26933   6.739   4.367   7.751 -0.2233  0.4631 -0.0559
  205MOL0     C26934   6.611   4.304   7.741  0.8626 -0.5339 -0.1550
  205MOL0     C26935   6.589   4.184   7.678  0.6435 -0.6752  0.4182
  205MOL0     O26936   6.457   4.155   7.669 -0.3550  0.2196 -0.1901
  205MOL0     C26937   6.411   4.045   7.584  0.6832  0.8877 -0.6633
  205MOL0     C26938   6.277   3.986   7.635  0.1911 -1.0192  0.0946
  205MOL0     C26939   6.160   4.083   7.606 -0.0170 -0.1352 -0.2978
  205MOL0     C26940   6.031   4.028   7.658  0.2952 -0.5016 -0.0302
  205MOL0     C26941   5.912   4.119   7.636 -0.1285 -0.2373 -0.2713
  205MOL0     C26942   5.816   4.083   7.756 -1.2385  0.2642  1.0577
  205MOL0     C26943   5.690   4.153   7.751 -0.6721 -0.2254  0.5008
  205MOL0     C26944   5.693   4.297   7.789 -0.3684  0.0026  0.8268
  205MOL0     N26945   5.559   4.356   7.770 -0.5307  0.8367  0.2953
  205MOL0     C26946   5.498   4.366   7.645 -0.6108 -0.0753 -0.1497
  205MOL0     C26947   5.375   4.410   7.687  0.5467  0.3867  0.2250
  205MOL0     C26948   5.258   4.438   7.591  0.0838  0.6243  0.2480
  205MOL0     C26949   5.129   4.332   7.615 -0.5065  0.9311  1.0210
  205MOL0     C26950   5.170   4.196   7.565  0.9021  0.6532 -0.4815
  205MOL0     C26951   5.064   4.085   7.569  0.3730 -0.8490 -1.2435
  205MOL0     O26952   4.963   4.129   7.484 -0.6769 -0.3952  0.6630
  205MOL0     C26953   4.854   4.050   7.466 -0.0108  0.1524  0.1669
  205MOL0     C26954   4.733   4.118   7.438  0.2840 -0.6870 -0.1720
  205MOL0     C26955   4.630   4.044   7.399 -0.6069  0.5709  0.3947
  205MOL0     C26956   4.634   3.905   7.384 -0.1065  0.2865 -0.6474
  205MOL0     C26957   4.512   3.833   7.348 -0.6850  0.1035 -0.6727
  205MOL0     O26958   4.508   3.698   7.361 -0.0952  0.1409 -0.2480
  205MOL0     C26959   4.401   3.644   7.304 -0.4551 -0.6310 -1.1789
  205MOL0     C26960   4.415   3.586   7.174  0.8554 -0.2813 -0.4405
  205MOL0     C26961   4.285   3.540   7.121  0.4155  1.1296 -0.5276
  205MOL0     C26962   4.165   3.543   7.196  0.1629  1.6882 -0.0469
  205MOL0     O26963   4.037   3.512   7.154  0.4329 -0.3494  0.1756
  205MOL0     C26964   4.035   3.423   7.048  0.2149 -1.0149 -0.0188
  205MOL0     C26965   3.899   3.375   7.007  0.5635  0.6897  0.0640
  205MOL0     C26966   3.903   3.263   6.907  0.4978  0.0155 -0.3098
  205MOL0     C26967   3.761   3.215   6.891  0.4235  0.4267 -1.0619
  205MOL0     C26968   3.740   3.089   6.980  0.0879 -0.1331 -0.0575
  205MOL0     C26969   3.594   3.040   6.958 -0.8531 -0.1268  0.6252
  205MOL0     C26970   3.595   2.896   7.016 -0.0320  1.0533 -0.4259
  205MOL0     C26971   3.478   2.812   6.977 -0.0797  0.5817 -0.9100
  205MOL0    Cl26972   3.507   2.776   6.802  0.1580 -0.2523  0.3517
  205MOL0     C26973   4.167   3.589   7.327  0.8390 -0.8630 -0.5946
  205MOL0     C26974   4.282   3.644   7.380  0.3485 -0.1549 -0.5111
  205MOL0     O26975   4.421   3.909   7.311  0.1787  0.2287  0.4435
  205MOL0     C26976   4.750   3.837   7.425  1.5689  0.2980  0.1839
  205MOL0     C26977   4.854   3.906   7.464 -0.5063  0.0815 -1.1400
  205MOL0     N26978   5.383   4.444   7.820  1.0364 -0.4825  0.1679
  205MOL0     N26979   5.489   4.419   7.871  0.7717  0.3684  0.6158
  205MOL0     C26980   6.695   4.111   7.634  0.3949  0.3190 -0.0534
  205MOL0     C26981   6.827   4.161   7.654  0.4010  0.1724  0.7103
  205MOL0     C26982   7.190   4.411   7.590 -0.0602  0.5785 -0.8430
  205MOL0     C26983   7.236   4.485   7.696  0.3682  1.4165 -0.7076
  205MOL0     C26984   7.358   4.541   7.701 -0.6669  0.5317 -0.1914
  205MOL0     C26985   7.439   4.537   7.596  0.9892 -0.1764 -0.2062
  205MOL0     O26986   7.554   4.616   7.606 -0.3871  0.3319  0.5807
  205MOL0     C26987   7.643   4.628   7.496 -1.0758  0.2541 -0.7767
  205MOL0     C26988   7.779   4.668   7.541 -0.0813  1.3530  0.2140
  205MOL0     C26989   7.890   4.696   7.439  0.1587 -0.6472 -1.0614
  205MOL0     C26990   7.857   4.804   7.339 -0.0109  0.5990  0.6481
  205MOL0     C26991   7.793   4.767   7.202  0.1733 -0.0740 -0.2425
  205MOL0     C26992   7.729   4.736   7.105  0.1488  0.1158  0.2000
  205MOL0     C26993   7.397   4.470   7.479  0.3143 -0.1049 -0.1465
  205MOL0     C26994   7.275   4.410   7.475  0.5438 -0.3217  0.1682
  205MOL0     H26995   6.746   4.467   7.792  1.0547 -1.0557  3.8944
  205MOL0     H26996   6.529   4.359   7.788 -1.1194 -2.1417 -1.5346
  205MOL0     H26997   6.477   3.958   7.587  0.1097  0.4217 -1.2112
  205MOL0     H26998   6.405   4.081   7.481 -1.0724 -0.4636 -1.0813
  205MOL0     H26999   6.300   3.970   7.741 -1.6620  0.2318  0.7481
  205MOL0     H27000   6.251   3.895   7.580  0.6404 -1.1703  0.1274
  205MOL0     H27001   6.152   4.095   7.497 -1.0362 -0.2293 -0.2464
  205MOL0     H27002   6.182   4.174   7.662  1.5609 -3.0451  4.3807
  205MOL0     H27003   6.010   3.928   7.621 -1.1794 -0.0639 -0.4244
  205MOL0     H27004   6.039   4.025   7.768  3.5457 -0.1312 -0.1475
  205MOL0     H27005   5.871   4.097   7.537 -0.7456  0.3763 -0.1569
  205MOL0     H27006   5.934   4.227   7.640 -2.5358  0.3086 -0.3303
  205MOL0     H27007   5.858   4.104   7.854  0.8233  1.1894  0.0421
  205MOL0     H27008   5.801   3.975   7.743  2.0763 -0.2045  0.2020
  205MOL0     H27009   5.653   4.145   7.649  1.1608 -0.6706 -0.1775
  205MOL0     H27010   5.617   4.100   7.814  0.2488 -0.9463  0.9951
  205MOL0     H27011   5.763   4.343   7.719  1.6020  0.2963  2.8383
  205MOL0     H27012   5.725   4.320   7.892  1.0923  1.5049  0.0842
  205MOL0     H27013   5.532   4.337   7.546  0.1308 -1.3241  0.4473
  205MOL0     H27014   5.294   4.431   7.488 -3.0815  0.8123 -0.9682
  205MOL0     H27015   5.225   4.542   7.602  0.0062  0.6476 -0.1745
  205MOL0     H27016   5.045   4.369   7.555 -0.6994 -1.4188 -0.2452
  205MOL0     H27017   5.103   4.322   7.721  1.4953 -2.2431  1.3447
  205MOL0     H27018   5.202   4.204   7.461  0.4373  1.5864 -0.5661
  205MOL0     H27019   5.256   4.170   7.629 -1.1803  1.9677  3.1553
  205MOL0     H27020   5.025   4.076   7.671  0.6516  1.0122 -0.9245
  205MOL0     H27021   5.099   3.988   7.535  0.3739 -1.8913  1.4993
  205MOL0     H27022   4.723   4.226   7.437  1.6230 -0.5227  1.0387
  205MOL0     H27023   4.540   4.101   7.376  1.0668  2.6675 -1.3036
  205MOL0     H27024   4.515   3.590   7.132  0.7589  1.9683 -0.5889
  205MOL0     H27025   4.288   3.503   7.019 -0.4223 -0.1916 -0.1089
  205MOL0     H27026   4.099   3.338   7.077  0.1669 -0.6301  1.2732
  205MOL0     H27027   4.089   3.462   6.961 -0.7172  0.4307  0.0147
  205MOL0     H27028   3.837   3.456   6.967  1.0181  0.3919 -1.3030
  205MOL0     H27029   3.856   3.341   7.102  0.6020  3.2159  1.0743
  205MOL0     H27030   3.976   3.190   6.945  1.3417  1.2037  0.4183
  205MOL0     H27031   3.936   3.294   6.807 -1.8775 -0.8957 -1.4592
  205MOL0     H27032   3.690   3.297   6.906 -1.3104 -1.4431  1.9664
  205MOL0     H27033   3.745   3.186   6.787 -0.5832  0.2447 -0.8651
  205MOL0     H27034   3.750   3.105   7.088 -4.8985 -1.2280  0.8360
  205MOL0     H27035   3.810   3.017   6.938 -0.9570  0.3677 -2.8997
  205MOL0     H27036   3.567   3.044   6.852  2.1558 -1.5627 -0.3053
  205MOL0     H27037   3.519   3.099   7.011 -1.7260  1.0184 -1.7666
  205MOL0     H27038   3.692   2.847   7.004  0.8698  2.3644  1.0758
  205MOL0     H27039   3.588   2.912   7.124  2.4746  2.1732 -0.3464
  205MOL0     H27040   3.383   2.866   6.987 -0.7742 -0.7545  0.1113
  205MOL0     H27041   3.468   2.717   7.030 -0.4303  0.4031 -1.2945
  205MOL0     H27042   4.079   3.577   7.390  0.7500 -3.3432 -1.0888
  205MOL0     H27043   4.283   3.690   7.478 -3.8822 -2.4352  0.8233
  205MOL0     H27044   4.739   3.728   7.424 -1.9640  0.5157  0.5772
  205MOL0     H27045   4.938   3.852   7.507 -0.1129  2.7541  1.7956
  205MOL0     H27046   6.676   4.018   7.581  0.4982  1.1572 -1.6322
  205MOL0     H27047   6.905   4.091   7.625 -1.0427 -1.2355  0.0052
  205MOL0     H27048   7.169   4.496   7.781  0.5812  1.1936 -0.5085
  205MOL0     H27049   7.391   4.605   7.782 -1.8142 -0.0848  0.7987
  205MOL0     H27050   7.600   4.705   7.431 -0.5018 -0.0792 -1.5774
  205MOL0     H27051   7.660   4.533   7.444 -3.8598 -0.4837 -0.4709
  205MOL0     H27052   7.782   4.749   7.614  0.5126  0.2380  1.4864
  205MOL0     H27053   7.811   4.588   7.609 -0.7297 -0.5807 -1.6517
  205MOL0     H27054   7.888   4.606   7.377  0.8068 -0.6052 -1.1500
  205MOL0     H27055   7.982   4.707   7.497 -1.0858  0.6635  0.7634
  205MOL0     H27056   7.816   4.892   7.389 -2.0662  0.1185 -0.0639
  205MOL0     H27057   7.947   4.861   7.316 -0.6808  1.6136  0.5038
  205MOL0     H27058   7.668   4.727   7.017  0.8632  2.3416 -0.5869
  205MOL0     H27059   7.449   4.451   7.385  2.3986 -2.7204  1.3884
  205MOL0     H27060   7.232   4.354   7.393 -4.6985  2.4007  0.6141
  206MOL0     O27061   7.134  11.075   0.935 -0.1397 -0.6690 -0.5290
  206MOL0     C27062   7.140  11.118   1.047  0.3442 -0.9489 -0.1454
  206MOL0     O27063   7.037  11.104   1.132 -0.2992  0.1498  0.4009
  206MOL0     C27064   6.934  11.024   1.103 -0.1415  0.0631  0.1696
  206MOL0     C27065   6.843  11.050   1.002 -0.6906  0.8381 -0.7684
  206MOL0     C27066   6.725  10.979   0.991  0.5398  0.2009  0.4343
  206MOL0     C27067   6.700  10.865   1.072 -1.1866 -0.3425 -0.4773
  206MOL0     O27068   6.586  10.804   1.080  0.0059  0.3114  1.0694
  206MOL0     C27069   6.463  10.873   1.044  0.2981 -0.4078  0.2203
  206MOL0     C27070   6.343  10.797   1.100  0.6402  0.6740  0.3772
  206MOL0     C27071   6.298  10.683   1.016 -0.5126  0.4153 -0.2889
  206MOL0     C27072   6.191  10.599   1.070 -0.5127  0.2064 -1.1783
  206MOL0     C27073   6.131  10.505   0.971 -0.3601  0.3216  0.7574
  206MOL0     C27074   6.035  10.392   1.021  0.3221 -1.1784 -0.0522
  206MOL0     C27075   5.931  10.341   0.919 -0.0207 -0.1100 -0.4642
  206MOL0     C27076   5.868  10.202   0.933  0.2378  0.3055 -0.3961
  206MOL0     N27077   5.773  10.196   1.054  0.4852 -0.3225 -0.3470
  206MOL0     C27078   5.643  10.241   1.057  0.4020  0.0160  0.5254
  206MOL0     C27079   5.595  10.211   1.179 -0.2945 -0.2056 -0.2865
  206MOL0     C27080   5.464  10.255   1.237  0.7638  0.4057 -0.2349
  206MOL0     C27081   5.381  10.149   1.311  0.1281  0.3690 -0.1690
  206MOL0     C27082   5.249  10.206   1.358  0.3661 -0.1460 -0.3942
  206MOL0     C27083   5.152  10.103   1.401  0.1268 -0.3030 -0.0567
  206MOL0     O27084   5.036  10.171   1.445 -0.0346  0.5186  0.2317
  206MOL0     C27085   4.934  10.091   1.474  0.1517 -0.0141  0.5508
  206MOL0     C27086   4.819  10.164   1.508  0.3841  0.6805  0.2425
  206MOL0     C27087   4.694  10.097   1.524  0.2689  0.4627 -0.2843
  206MOL0     C27088   4.685   9.955   1.518 -0.0357 -1.3982 -0.7381
  206MOL0     C27089   4.557   9.886   1.530  0.2058  0.1935  0.5133
  206MOL0     O27090   4.446   9.966   1.527  0.6110  0.6998 -0.4374
  206MOL0     C27091   4.328   9.902   1.536  0.0077  0.3701 -0.3860
  206MOL0     C27092   4.232   9.925   1.432 -0.8144  0.3557  0.5012
  206MOL0     C27093   4.109   9.867   1.434  0.4611 -0.6155  1.0366
  206MOL0     C27094   4.068   9.777   1.532 -0.4503 -0.0586 -1.0016
  206MOL0     O27095   3.943   9.726   1.522  0.3439 -0.1980  0.1975
  206MOL0     C27096   3.859   9.745   1.637 -0.5031  0.0628  0.1535
  206MOL0     C27097   3.770   9.620   1.631 -0.5542 -0.7363  0.4304
  206MOL0     C27098   3.651   9.636   1.732  0.5161  0.4515 -0.8777
  206MOL0     C27099   3.570   9.504   1.758  0.5527 -0.5529  0.3559
  206MOL0     C27100   3.466   9.525   1.869  0.0141 -0.3359  0.1096
  206MOL0     C27101   3.522   9.538   2.010 -0.4387 -0.4353  0.5132
  206MOL0     C27102   3.597   9.415   2.047  0.3359 -0.1886 -0.1233
  206MOL0     C27103   3.614   9.397   2.187  0.8351  0.4656 -0.0776
  206MOL0    Cl27104   3.712   9.528   2.245 -0.0637 -0.1760  0.0177
  206MOL0     C27105   4.159   9.742   1.634 -0.1395  0.0140 -0.0912
  206MOL0     C27106   4.284   9.802   1.632 -0.5927 -0.5863 -0.2345
  206MOL0     O27107   4.561   9.768   1.523  0.0126  0.8041 -0.4096
  206MOL0     C27108   4.808   9.888   1.501  0.5574  0.0484 -1.0159
  206MOL0     C27109   4.927   9.954   1.488  0.3298  0.4472 -0.4178
  206MOL0     N27110   5.688  10.132   1.245 -0.1242 -0.1679 -0.0589
  206MOL0     N27111   5.795  10.128   1.169  0.5164  0.7305 -0.1501
  206MOL0     C27112   6.799  10.825   1.160  0.3786 -0.0593 -0.3584
  206MOL0     C27113   6.907  10.913   1.183  0.1326 -0.2357 -0.1723
  206MOL0     C27114   7.267  11.182   1.095  0.1339 -0.4458  0.6054
  206MOL0     C27115   7.289  11.213   1.226  0.6385 -0.4788 -0.2468
  206MOL0     C27116   7.412  11.269   1.266 -0.8665  0.7945  0.0106
  206MOL0     C27117   7.515  11.290   1.171  0.1133 -0.8537  0.5118
  206MOL0     O27118   7.635  11.347   1.211  0.4637 -0.3227 -1.0769
  206MOL0     C27119   7.754  11.287   1.159 -0.3180 -0.5662  0.5464
  206MOL0     C27120   7.853  11.403   1.127  0.5146 -0.4173  0.2770
  206MOL0     C27121   7.802  11.503   1.018 -0.1346  0.5059  0.1564
  206MOL0     C27122   7.896  11.613   0.993 -1.2282  0.3974  0.0767
  206MOL0     C27123   8.027  11.570   0.940 -0.3677  0.5397 -0.0102
  206MOL0     C27124   8.135  11.526   0.912  0.3743 -0.3327 -0.3273
  206MOL0     C27125   7.481  11.265   1.033 -0.1150 -0.1723  0.0021
  206MOL0     C27126   7.362  11.204   0.999 -0.1275  0.8983  0.2006
  206MOL0     H27127   6.853  11.128   0.927 -4.5668  1.3835 -0.9444
  206MOL0     H27128   6.662  11.009   0.908  0.7454 -0.8772 -0.1321
  206MOL0     H27129   6.450  10.881   0.936 -0.0475 -2.5243  0.0641
  206MOL0     H27130   6.463  10.974   1.085 -0.1486 -0.4054  0.2129
  206MOL0     H27131   6.264  10.873   1.103 -0.3066 -0.0894 -2.3282
  206MOL0     H27132   6.357  10.777   1.206  0.1448 -0.9975  0.1456
  206MOL0     H27133   6.386  10.619   1.010 -0.6109 -0.5252  4.2941
  206MOL0     H27134   6.254  10.726   0.926 -4.3177  2.0191  2.0607
  206MOL0     H27135   6.228  10.543   1.157  2.4208  2.5132 -0.7885
  206MOL0     H27136   6.117  10.674   1.102 -0.7807 -0.2232 -0.7728
  206MOL0     H27137   6.208  10.462   0.907 -1.6912  4.9173 -4.6831
  206MOL0     H27138   6.069  10.571   0.910  0.1599  0.8503  0.7894
  206MOL0     H27139   5.969  10.441   1.094 -0.3305  2.0150 -2.5440
  206MOL0     H27140   6.089  10.309   1.065  1.2120 -1.1847 -1.1161
  206MOL0     H27141   5.853  10.417   0.904  0.2972  0.0164 -1.5611
  206MOL0     H27142   5.985  10.324   0.826 -0.0709  0.7342 -0.6627
  206MOL0     H27143   5.941  10.122   0.946 -0.2023  0.3510  3.7720
  206MOL0     H27144   5.809  10.191   0.842  1.0983 -3.7192 -0.6515
  206MOL0     H27145   5.597  10.306   0.984 -2.9225 -2.3162  0.2958
  206MOL0     H27146   5.409  10.288   1.149  2.0368 -2.3621 -2.2060
  206MOL0     H27147   5.497  10.341   1.297  3.2747  1.0635 -2.3597
  206MOL0     H27148   5.433  10.098   1.392 -0.7516 -2.0717 -1.0461
  206MOL0     H27149   5.372  10.068   1.239  3.4737  0.7665 -1.1832
  206MOL0     H27150   5.276  10.264   1.447 -0.4598 -0.2887 -0.0417
  206MOL0     H27151   5.210  10.263   1.273  0.3219 -1.8036 -1.5404
  206MOL0     H27152   5.192  10.040   1.480  0.0089 -0.8910 -0.4585
  206MOL0     H27153   5.130  10.037   1.317  1.4356 -1.0230  0.1397
  206MOL0     H27154   4.818  10.272   1.521  1.9077  0.6565  0.7370
  206MOL0     H27155   4.612  10.166   1.542 -1.8729 -1.8502 -0.6343
  206MOL0     H27156   4.262   9.981   1.343 -0.1853 -3.6383 -2.0587
  206MOL0     H27157   4.044   9.886   1.350 -0.2923 -0.0859  1.7278
  206MOL0     H27158   3.806   9.839   1.620  0.2756  0.3083 -1.0356
  206MOL0     H27159   3.912   9.747   1.733  2.0075  0.5893 -1.1411
  206MOL0     H27160   3.825   9.527   1.650  2.6577  0.8687 -0.2710
  206MOL0     H27161   3.715   9.623   1.537  0.2642  2.2001 -0.0433
  206MOL0     H27162   3.582   9.716   1.702 -0.5333 -0.0655  0.1085
  206MOL0     H27163   3.698   9.664   1.827  0.0554 -2.8283  0.4352
  206MOL0     H27164   3.509   9.495   1.668 -0.5700  1.1590  0.8976
  206MOL0     H27165   3.638   9.420   1.775  1.9904  1.0921  3.8007
  206MOL0     H27166   3.395   9.442   1.864 -0.6861  0.1761  1.1183
  206MOL0     H27167   3.417   9.621   1.848  1.3740  0.3088 -0.2528
  206MOL0     H27168   3.434   9.555   2.074 -0.2816 -0.4037  0.7218
  206MOL0     H27169   3.591   9.623   2.016 -2.1474  1.0077  0.8005
  206MOL0     H27170   3.550   9.325   2.005  2.0739 -0.3904 -1.7599
  206MOL0     H27171   3.697   9.417   2.004 -0.2239 -2.9480 -1.7580
  206MOL0     H27172   3.656   9.299   2.209  1.5061  0.5888 -0.7672
  206MOL0     H27173   3.515   9.400   2.234 -0.7058 -2.7912 -2.7174
  206MOL0     H27174   4.138   9.667   1.710 -1.7844 -0.7603 -1.2338
  206MOL0     H27175   4.353   9.773   1.710 -1.1634  0.5830  0.7296
  206MOL0     H27176   4.813   9.780   1.504 -2.4236 -0.1366 -0.0718
  206MOL0     H27177   5.012   9.887   1.481 -2.1387 -2.9407 -0.5847
  206MOL0     H27178   6.779  10.730   1.208 -2.4778 -0.7334 -2.5494
  206MOL0     H27179   6.977  10.878   1.258  3.1400  1.7976 -1.8167
  206MOL0     H27180   7.214  11.193   1.303 -0.2458  1.0567 -0.6581
  206MOL0     H27181   7.428  11.277   1.373  0.5767 -1.0092 -0.0226
  206MOL0     H27182   7.743  11.241   1.060  1.1818 -0.6758  0.3950
  206MOL0     H27183   7.799  11.215   1.229  2.2333  2.3250  2.1412
  206MOL0     H27184   7.878  11.459   1.217  0.7535  1.1266 -0.7149
  206MOL0     H27185   7.948  11.363   1.090  0.0808 -0.3143 -1.0075
  206MOL0     H27186   7.703  11.546   1.039  0.8256  2.1530  1.6609
  206MOL0     H27187   7.785  11.451   0.924 -1.2422 -1.4031  1.3352
  206MOL0     H27188   7.852  11.689   0.928  0.0761  1.4368  0.3699
  206MOL0     H27189   7.922  11.661   1.088  2.8772  3.4399 -2.2249
  206MOL0     H27190   8.227  11.495   0.867  1.0278  1.5917 -0.4032
  206MOL0     H27191   7.547  11.278   0.948 -3.2553  1.6495 -2.4057
  206MOL0     H27192   7.340  11.184   0.895  0.3167  0.0046  0.2628
  207MOL0     O27193  10.839   6.893   0.576 -0.0028 -0.7912 -0.1883
  207MOL0     C27194  10.850   7.010   0.537  2.0598  0.4059 -0.8066
  207MOL0     O27195  10.957   7.083   0.503  0.0482 -0.0499  0.3668
  207MOL0     C27196  11.089   7.039   0.523 -0.1055 -0.8742  0.7269
  207MOL0     C27197  11.129   6.913   0.499  0.4796  0.2965  0.2672
  207MOL0     C27198  11.250   6.860   0.527  0.4685 -0.3860 -0.5335
  207MOL0     C27199  11.352   6.947   0.572  0.3871 -0.3489  0.7524
  207MOL0     O27200  11.478   6.902   0.596  0.1680 -0.6556  0.0149
  207MOL0     C27201  11.592   6.979   0.568  0.3682 -0.2566 -0.7936
  207MOL0     C27202  11.713   6.897   0.611  0.2753 -0.6789  0.1136
  207MOL0     C27203  11.759   6.921   0.756  0.0494 -0.2880  0.2808
  207MOL0     C27204  11.844   6.800   0.812 -0.7938  0.0221  0.2747
  207MOL0     C27205  11.906   6.853   0.935  0.2332 -0.4746  0.2650
  207MOL0     C27206  11.992   6.734   1.005  0.4620  0.2940  0.5339
  207MOL0     C27207  12.039   6.781   1.149  0.0504 -0.2859  0.2659
  207MOL0     C27208  12.117   6.912   1.147 -1.2054 -0.1342 -0.1878
  207MOL0     N27209  12.163   6.946   1.282  0.8909 -1.4260  0.6750
  207MOL0     C27210  12.093   7.022   1.368  0.3639  0.0202  0.5650
  207MOL0     C27211  12.149   7.008   1.491 -0.4712 -0.2799 -0.4215
  207MOL0     C27212  12.119   7.079   1.617  0.4258  0.0123  0.7456
  207MOL0     C27213  12.025   6.997   1.703 -0.7056 -0.3482 -0.7945
  207MOL0     C27214  12.017   7.059   1.844 -0.2476 -0.6315  0.4391
  207MOL0     C27215  11.903   7.011   1.931  0.5173  0.3663 -0.3037
  207MOL0     O27216  11.912   7.067   2.061 -0.2305  0.1353  0.2475
  207MOL0     C27217  11.814   7.033   2.147  0.0792 -0.0146 -0.2246
  207MOL0     C27218  11.851   7.013   2.283  0.5496  0.0422 -0.0874
  207MOL0     C27219  11.758   6.975   2.383 -0.0032  0.3000  0.6991
  207MOL0     C27220  11.627   6.951   2.348 -0.1327  0.9673 -0.1180
  207MOL0     C27221  11.531   6.916   2.451  0.1076  0.2432  1.0381
  207MOL0     O27222  11.416   6.861   2.410  0.3198  0.1592  0.0677
  207MOL0     C27223  11.307   6.852   2.492  0.2575 -0.4984  0.1773
  207MOL0     C27224  11.208   6.945   2.458 -0.3951 -0.0186 -0.1234
  207MOL0     C27225  11.095   6.960   2.531 -0.4669  0.2204  0.6664
  207MOL0     C27226  11.081   6.883   2.645 -0.4419  0.2804  0.0724
  207MOL0     O27227  10.980   6.897   2.730  0.5412  1.1576 -0.1597
  207MOL0     C27228  10.844   6.904   2.676 -0.4606  0.5442 -0.0697
  207MOL0     C27229  10.778   7.035   2.707  0.8373 -0.1124  0.3981
  207MOL0     C27230  10.703   7.030   2.845 -0.4800  0.7017 -0.1911
  207MOL0     C27231  10.560   6.979   2.828  0.1350  0.5244  0.2749
  207MOL0     C27232  10.495   6.965   2.967  0.0575 -0.3021  0.7747
  207MOL0     C27233  10.366   6.880   2.965 -0.1519  0.2279  0.1759
  207MOL0     C27234  10.247   6.963   2.922 -0.2823 -0.1570  0.6043
  207MOL0     C27235  10.117   6.885   2.936 -0.1302  0.5968 -0.6592
  207MOL0    Cl27236   9.984   6.983   2.879 -0.1178  0.0188 -0.4613
  207MOL0     C27237  11.176   6.782   2.669  0.3682  0.8786 -0.2842
  207MOL0     C27238  11.292   6.766   2.589 -0.7360 -0.5229 -0.1319
  207MOL0     O27239  11.550   6.953   2.561 -0.0304  0.8330  0.0539
  207MOL0     C27240  11.588   6.972   2.211  0.5938 -0.3121 -0.3891
  207MOL0     C27241  11.683   7.010   2.114  1.1272  0.2160 -0.6504
  207MOL0     N27242  12.260   6.923   1.476 -0.0481  0.1710 -0.3201
  207MOL0     N27243  12.260   6.882   1.354  0.8794 -0.1658 -0.7017
  207MOL0     C27244  11.312   7.079   0.603 -0.3300  0.3111  0.3804
  207MOL0     C27245  11.177   7.131   0.580 -0.9406  0.0927 -0.2809
  207MOL0     C27246  10.730   7.089   0.515 -0.0081 -0.4168 -0.4038
  207MOL0     C27247  10.742   7.206   0.437 -0.0794  1.1647 -0.1030
  207MOL0     C27248  10.627   7.280   0.399 -0.8606 -0.8391 -0.0786
  207MOL0     C27249  10.493   7.243   0.439  0.4825  0.5669 -0.2990
  207MOL0     O27250  10.390   7.315   0.382 -0.1967 -0.3004 -0.3863
  207MOL0     C27251  10.261   7.293   0.427 -0.4878 -0.9322  0.4574
  207MOL0     C27252  10.174   7.396   0.364  0.2040 -0.9664 -0.8361
  207MOL0     C27253  10.043   7.440   0.435  1.0145  0.6876  0.4831
  207MOL0     C27254  10.018   7.591   0.448  0.5001 -0.0638 -0.6096
  207MOL0     C27255   9.925   7.632   0.548 -0.4117  0.0140 -0.1617
  207MOL0     C27256   9.852   7.683   0.629 -0.6777  0.6705  0.1400
  207MOL0     C27257  10.488   7.134   0.531 -0.2802  0.2103 -0.3316
  207MOL0     C27258  10.602   7.062   0.565 -0.2675 -0.1979 -0.5844
  207MOL0     H27259  11.043   6.861   0.459  0.6692  0.2633 -0.1007
  207MOL0     H27260  11.282   6.756   0.518  1.1955 -0.2354  0.1666
  207MOL0     H27261  11.593   7.076   0.618 -0.1533 -0.5923 -0.1177
  207MOL0     H27262  11.595   7.011   0.463 -0.6528  0.4788 -0.6108
  207MOL0     H27263  11.800   6.920   0.548  0.7810 -2.0098  0.3019
  207MOL0     H27264  11.697   6.790   0.597 -0.8215 -0.3606 -1.1599
  207MOL0     H27265  11.674   6.910   0.824 -0.2374 -2.0631 -0.3038
  207MOL0     H27266  11.814   7.014   0.774 -2.2513  0.9318  1.3614
  207MOL0     H27267  11.778   6.713   0.817  1.7754 -1.9889  1.4347
  207MOL0     H27268  11.927   6.777   0.744 -0.3201  1.4288  0.3454
  207MOL0     H27269  11.826   6.889   1.001  0.1733  1.3225 -0.7465
  207MOL0     H27270  11.958   6.941   0.897 -0.2021 -1.5156 -2.9992
  207MOL0     H27271  12.074   6.709   0.936 -2.8371  0.3532 -3.8694
  207MOL0     H27272  11.924   6.648   1.015 -0.4474  0.8462 -0.6955
  207MOL0     H27273  11.955   6.777   1.219  2.2496  0.1555  3.1488
  207MOL0     H27274  12.107   6.707   1.192 -2.1222 -1.2873  2.1286
  207MOL0     H27275  12.061   6.996   1.104  1.6091  1.3840 -1.1221
  207MOL0     H27276  12.201   6.900   1.078  0.3024 -3.2689  1.9354
  207MOL0     H27277  12.004   7.081   1.351  0.4049  0.5977  2.1941
  207MOL0     H27278  12.062   7.170   1.596 -0.0229  0.8728  4.9073
  207MOL0     H27279  12.211   7.107   1.668  1.2072 -0.7921 -0.1832
  207MOL0     H27280  12.066   6.896   1.712  1.9935  0.8106  1.3818
  207MOL0     H27281  11.926   7.010   1.658 -3.8809  1.7763  5.5295
  207MOL0     H27282  12.115   7.034   1.886  0.2983 -1.4968 -1.2579
  207MOL0     H27283  12.016   7.168   1.835  2.6962 -0.6176 -0.9882
  207MOL0     H27284  11.910   6.903   1.942 -1.3440  0.3944  1.7313
  207MOL0     H27285  11.817   7.050   1.876 -1.4084 -0.6974  1.8272
  207MOL0     H27286  11.957   7.024   2.303  0.7933 -1.3131 -0.5838
  207MOL0     H27287  11.797   6.975   2.484 -1.0090 -0.9084  1.1068
  207MOL0     H27288  11.231   7.015   2.378  0.7671  1.5187  1.4797
  207MOL0     H27289  11.021   7.038   2.517  0.9945  1.8072  1.4740
  207MOL0     H27290  10.785   6.821   2.714  2.1822  0.0734  3.5421
  207MOL0     H27291  10.840   6.891   2.567  0.1424 -1.0692  0.0712
  207MOL0     H27292  10.722   7.087   2.629  1.7032  1.0258  0.5130
  207MOL0     H27293  10.863   7.102   2.722  2.5260 -2.5402  2.7492
  207MOL0     H27294  10.699   7.130   2.890 -0.2636  0.0038  1.4489
  207MOL0     H27295  10.752   6.962   2.915 -1.3667 -1.1418 -1.2830
  207MOL0     H27296  10.503   7.054   2.771  1.4113  2.5418  1.5246
  207MOL0     H27297  10.552   6.882   2.777 -0.3342  0.9917 -0.5650
  207MOL0     H27298  10.483   7.068   3.002  2.1774  0.8549 -1.5263
  207MOL0     H27299  10.572   6.920   3.030  0.2461  1.9931  2.3347
  207MOL0     H27300  10.339   6.836   3.062 -2.1378 -0.6635 -0.7306
  207MOL0     H27301  10.382   6.794   2.900 -2.3367  1.7037 -2.5397
  207MOL0     H27302  10.225   7.048   2.987 -0.8130 -1.6559  2.5044
  207MOL0     H27303  10.265   6.987   2.817 -2.6866 -1.0389 -0.0833
  207MOL0     H27304  10.095   6.842   3.034 -0.3033 -0.3911 -1.1239
  207MOL0     H27305  10.129   6.801   2.867  2.9317 -0.1552  0.5847
  207MOL0     H27306  11.160   6.720   2.758 -1.3464  1.4813 -0.1428
  207MOL0     H27307  11.377   6.700   2.602  1.9335  2.6966  0.2046
  207MOL0     H27308  11.486   6.948   2.184 -1.1786  2.8423  2.7154
  207MOL0     H27309  11.640   7.026   2.015  0.0934  1.2216 -0.0601
  207MOL0     H27310  11.384   7.149   0.645  0.9271 -0.9513  0.3750
  207MOL0     H27311  11.137   7.228   0.609 -0.3159  0.7261 -1.4604
  207MOL0     H27312  10.837   7.244   0.400  0.6029  0.1139  0.5089
  207MOL0     H27313  10.638   7.362   0.329  0.0472  2.5365  3.7082
  207MOL0     H27314  10.255   7.309   0.535 -2.6537 -1.3686  0.4582
  207MOL0     H27315  10.228   7.189   0.419 -0.1793 -1.2071  2.3938
  207MOL0     H27316  10.236   7.485   0.356  1.2717 -1.0548  3.6360
  207MOL0     H27317  10.159   7.355   0.264 -2.0647 -1.9842 -0.1589
  207MOL0     H27318  10.042   7.394   0.534 -3.2106 -1.4900 -0.3167
  207MOL0     H27319   9.962   7.400   0.373  3.2236 -0.9103 -1.5419
  207MOL0     H27320  10.118   7.623   0.478  0.7362  0.9202 -2.2835
  207MOL0     H27321   9.985   7.636   0.353  1.9140  0.5458 -0.8328
  207MOL0     H27322   9.792   7.736   0.700 -0.3075 -0.4470  1.3120
  207MOL0     H27323  10.392   7.105   0.574  0.1804 -1.0311 -0.0824
  207MOL0     H27324  10.582   6.983   0.637 -1.4703 -2.1009 -2.8372
  208MOL0     O27325   1.433   5.269   2.284  0.0520 -0.4339  0.0401
  208MOL0     C27326   1.548   5.275   2.239  0.4412 -0.0573 -0.6312
  208MOL0     O27327   1.599   5.380   2.171 -0.7045  0.4847 -0.2785
  208MOL0     C27328   1.516   5.475   2.126  0.1935  0.1096  0.5887
  208MOL0     C27329   1.414   5.435   2.039 -0.3043  0.9008 -0.6238
  208MOL0     C27330   1.351   5.532   1.960 -0.4166  0.6262 -0.3491
  208MOL0     C27331   1.374   5.668   1.980  0.4360 -0.1311 -0.5148
  208MOL0     O27332   1.308   5.765   1.905 -0.4380  0.1956  0.1784
  208MOL0     C27333   1.182   5.748   1.838  0.5146  0.1159 -0.9707
  208MOL0     C27334   1.108   5.881   1.853  0.3336  1.2210 -0.1018
  208MOL0     C27335   0.994   5.888   1.765  0.0029 -0.2595  0.6589
  208MOL0     C27336   0.932   6.024   1.788  0.1327  0.3612 -0.1641
  208MOL0     C27337   0.842   6.065   1.668 -1.4141 -0.8836 -0.3520
  208MOL0     C27338   0.732   6.158   1.714 -1.7441 -0.5777 -0.5894
  208MOL0     C27339   0.654   6.196   1.582  0.2807 -0.7499 -1.1163
  208MOL0     C27340   0.538   6.103   1.547  0.1030  1.2942 -0.8662
  208MOL0     N27341   0.463   6.145   1.425  0.0391  0.1033 -0.2833
  208MOL0     C27342   0.435   6.069   1.315 -0.2882 -0.7733 -0.1199
  208MOL0     C27343   0.343   6.136   1.248  0.3159 -0.2224  0.1134
  208MOL0     C27344   0.281   6.097   1.115  0.0532  0.0736  0.9452
  208MOL0     C27345   0.163   5.999   1.132  0.1982 -0.2361  0.2135
  208MOL0     C27346   0.039   6.092   1.135 -0.3280 -0.0696  0.7287
  208MOL0     C27347  -0.088   6.015   1.115  0.1180 -0.2521 -0.0965
  208MOL0     O27348  -0.207   6.088   1.146  0.5963 -0.3949  0.0088
  208MOL0     C27349  -0.323   6.037   1.100 -0.0570 -0.9486  0.5597
  208MOL0     C27350  -0.389   6.069   0.985 -0.5512 -0.2787  0.0316
  208MOL0     C27351  -0.506   6.021   0.931  0.4232  0.1135 -0.2710
  208MOL0     C27352  -0.574   5.916   1.003 -0.1166  0.1085 -1.0048
  208MOL0     C27353  -0.699   5.848   0.965 -0.3393 -1.1947  0.4685
  208MOL0     O27354  -0.743   5.876   0.842 -0.0791 -0.3966  0.8739
  208MOL0     C27355  -0.867   5.827   0.796  0.1170 -0.6219 -0.2888
  208MOL0     C27356  -0.975   5.824   0.883  1.1261 -0.8994 -0.3410
  208MOL0     C27357  -1.102   5.774   0.832 -1.0286 -0.1741  0.1169
  208MOL0     C27358  -1.117   5.734   0.704  0.2093  0.0862 -0.2408
  208MOL0     O27359  -1.235   5.688   0.646  0.3723 -0.6630  0.0887
  208MOL0     C27360  -1.351   5.684   0.734 -0.0451 -0.3833  0.0049
  208MOL0     C27361  -1.478   5.670   0.651 -0.1938 -0.1061  0.2901
  208MOL0     C27362  -1.592   5.645   0.750 -0.0044  0.2459 -0.2458
  208MOL0     C27363  -1.720   5.652   0.681  0.3122  0.4125 -0.9320
  208MOL0     C27364  -1.854   5.659   0.768  0.0995  1.1686 -0.2641
  208MOL0     C27365  -1.877   5.535   0.848 -0.7104  0.4683 -0.2015
  208MOL0     C27366  -1.979   5.537   0.956 -0.1426 -0.1483  0.0940
  208MOL0     C27367  -2.122   5.532   0.908  0.5752  0.2523  0.0435
  208MOL0    Cl27368  -2.238   5.543   1.043 -0.2968  0.1302  0.0211
  208MOL0     C27369  -1.011   5.753   0.612 -0.0776  0.1315  0.5942
  208MOL0     C27370  -0.892   5.800   0.658  0.2035  0.0150 -0.2591
  208MOL0     O27371  -0.747   5.773   1.046 -0.1174  0.6705 -0.0169
  208MOL0     C27372  -0.511   5.877   1.122  0.3457 -0.1048 -0.0924
  208MOL0     C27373  -0.387   5.933   1.171 -0.2000 -0.2833  0.0800
  208MOL0     N27374   0.319   6.259   1.311  0.2093  0.1688  0.1172
  208MOL0     N27375   0.391   6.259   1.413  0.7589  1.1625  0.5894
  208MOL0     C27376   1.471   5.713   2.070 -0.2142  0.3678  0.4889
  208MOL0     C27377   1.547   5.613   2.131  0.1423  0.3564 -0.3847
  208MOL0     C27378   1.626   5.157   2.269 -0.6728 -0.8709  0.6198
  208MOL0     C27379   1.648   5.051   2.171  0.2029 -0.9874  0.3927
  208MOL0     C27380   1.701   4.936   2.220  0.0322  0.3361  0.5360
  208MOL0     C27381   1.742   4.908   2.349 -0.4405  1.2816  0.2674
  208MOL0     O27382   1.802   4.785   2.354 -0.7455  0.0212 -0.5583
  208MOL0     C27383   1.779   4.722   2.484  0.0261 -0.1681  0.8977
  208MOL0     C27384   1.836   4.583   2.472  0.0424  0.3662 -0.2626
  208MOL0     C27385   1.974   4.580   2.540 -0.3123  0.4672 -0.3826
  208MOL0     C27386   1.960   4.592   2.698  0.3042  0.2777  0.0314
  208MOL0     C27387   2.080   4.652   2.758 -0.1659  0.8511 -0.6320
  208MOL0     C27388   2.180   4.689   2.818 -0.5421 -0.6168  0.4262
  208MOL0     C27389   1.723   5.004   2.442 -0.1000  0.2742  0.0009
  208MOL0     C27390   1.665   5.125   2.405 -0.1036 -0.7386  0.4345
  208MOL0     H27391   1.387   5.333   2.014 -1.9337  1.2638 -0.4243
  208MOL0     H27392   1.289   5.500   1.877  0.6383 -1.5609 -0.3414
  208MOL0     H27393   1.136   5.664   1.890  2.9827 -1.0745 -0.5912
  208MOL0     H27394   1.208   5.723   1.735  1.5227 -3.7396  0.0690
  208MOL0     H27395   1.176   5.960   1.818  2.1510 -0.6585 -0.9862
  208MOL0     H27396   1.082   5.904   1.957 -1.3687 -0.2805 -0.1520
  208MOL0     H27397   0.917   5.816   1.794 -0.1822 -0.1005  0.5655
  208MOL0     H27398   1.022   5.856   1.664 -2.6249 -1.6184  0.2655
  208MOL0     H27399   0.874   6.023   1.880  0.7302  2.7549  0.2996
  208MOL0     H27400   1.014   6.096   1.794  0.8040 -0.4630  0.8413
  208MOL0     H27401   0.801   5.977   1.618 -2.8029 -1.4074  1.6021
  208MOL0     H27402   0.907   6.120   1.600 -1.4294  1.0563  1.1177
  208MOL0     H27403   0.776   6.242   1.770 -1.5979 -0.6394 -0.6095
  208MOL0     H27404   0.671   6.108   1.789  1.4646  0.1891  2.8602
  208MOL0     H27405   0.614   6.297   1.598 -1.8633 -1.6270 -0.5758
  208MOL0     H27406   0.726   6.194   1.500  2.1930 -2.4263  0.4990
  208MOL0     H27407   0.464   6.091   1.627  0.5239 -2.4251 -0.8527
  208MOL0     H27408   0.583   6.004   1.543  1.5224  1.1705  5.9334
  208MOL0     H27409   0.470   5.968   1.295  2.6618  0.5403 -2.3615
  208MOL0     H27410   0.362   6.047   1.061  1.0095  1.2962  1.2228
  208MOL0     H27411   0.255   6.187   1.059 -1.8435  0.0845  1.7609
  208MOL0     H27412   0.170   5.946   1.227 -3.8453 -0.8728  0.3367
  208MOL0     H27413   0.147   5.935   1.045 -5.1562 -1.7757  1.8932
  208MOL0     H27414   0.037   6.134   1.236  3.3984  0.2186  0.8302
  208MOL0     H27415   0.050   6.172   1.062 -1.1081  1.0870  1.8408
  208MOL0     H27416  -0.087   5.919   1.168  2.4754  0.5294  1.4337
  208MOL0     H27417  -0.079   5.978   1.012 -2.1056 -0.5242 -0.2396
  208MOL0     H27418  -0.346   6.153   0.932  0.9041  1.3189  3.4094
  208MOL0     H27419  -0.542   6.057   0.836  1.0362 -0.1144 -0.5946
  208MOL0     H27420  -0.980   5.859   0.985 -0.4162  0.7203 -0.9251
  208MOL0     H27421  -1.179   5.781   0.909  0.7675  1.5420  1.8826
  208MOL0     H27422  -1.350   5.769   0.802  1.9967  3.0182 -3.8336
  208MOL0     H27423  -1.331   5.588   0.784 -0.7881 -0.4439  0.1939
  208MOL0     H27424  -1.481   5.578   0.591 -1.2182 -2.2551  3.3756
  208MOL0     H27425  -1.491   5.761   0.593 -1.9780 -1.1374 -1.0309
  208MOL0     H27426  -1.593   5.723   0.827 -0.5722 -1.1905  1.2490
  208MOL0     H27427  -1.574   5.544   0.788 -0.9401  0.3376  0.4923
  208MOL0     H27428  -1.720   5.751   0.635  1.6738 -1.1128 -4.5875
  208MOL0     H27429  -1.732   5.572   0.608  0.4673 -0.4488 -0.0292
  208MOL0     H27430  -1.940   5.658   0.701 -1.7723 -3.9563  1.7070
  208MOL0     H27431  -1.847   5.738   0.843 -3.0206 -0.1588  1.6333
  208MOL0     H27432  -1.776   5.522   0.890 -1.1589  2.5388  1.6888
  208MOL0     H27433  -1.888   5.444   0.788 -0.6060 -0.2286  0.7996
  208MOL0     H27434  -1.970   5.448   1.018  0.2044 -0.2147 -0.0537
  208MOL0     H27435  -1.953   5.625   1.016  0.9109 -0.6436  0.3845
  208MOL0     H27436  -2.137   5.437   0.856  1.0547 -0.8059  1.7681
  208MOL0     H27437  -2.131   5.610   0.832  0.9808 -0.8411 -1.1678
  208MOL0     H27438  -1.030   5.733   0.507 -1.6821  3.2106  0.2034
  208MOL0     H27439  -0.813   5.811   0.585  0.4238  0.9330  0.1037
  208MOL0     H27440  -0.553   5.800   1.187  1.3553 -1.1144 -0.6101
  208MOL0     H27441  -0.353   5.905   1.270  1.9691  2.8177  0.3620
  208MOL0     H27442   1.490   5.819   2.083  2.1058  0.0766 -0.0563
  208MOL0     H27443   1.633   5.654   2.183  2.4957 -0.6466 -3.1536
  208MOL0     H27444   1.621   5.077   2.069 -0.6699  2.3310  1.3646
  208MOL0     H27445   1.722   4.858   2.148  0.2186  0.5903  0.3147
  208MOL0     H27446   1.670   4.711   2.485  0.0396 -1.5842 -2.3429
  208MOL0     H27447   1.819   4.785   2.564 -0.8851  2.7034 -0.7751
  208MOL0     H27448   1.778   4.509   2.528  0.3711  1.8654  2.2289
  208MOL0     H27449   1.842   4.553   2.367  4.3885 -0.9160  0.1493
  208MOL0     H27450   2.037   4.658   2.497  1.5870 -0.6039  0.3406
  208MOL0     H27451   2.020   4.483   2.522  0.1227  0.7383 -0.7439
  208MOL0     H27452   1.879   4.661   2.722  0.8211  0.8700  0.1181
  208MOL0     H27453   1.943   4.500   2.752 -0.9073  1.1434  1.1672
  208MOL0     H27454   2.265   4.736   2.863  0.0152 -0.5865 -0.6106
  208MOL0     H27455   1.760   4.996   2.544 -0.9297  3.4847  0.6741
  208MOL0     H27456   1.646   5.196   2.485  0.6097  0.5965 -0.5472
  209MOL0     O27457   8.629   3.858   3.361 -0.3067  0.1435 -0.1679
  209MOL0     C27458   8.708   3.767   3.388  0.4135  0.3217  0.3346
  209MOL0     O27459   8.690   3.675   3.485  0.4096 -0.2951 -0.2488
  209MOL0     C27460   8.573   3.651   3.549  0.1614 -0.0616 -0.8190
  209MOL0     C27461   8.519   3.517   3.534 -0.2715  0.3725  0.2037
  209MOL0     C27462   8.392   3.497   3.593  0.7675 -0.6002 -0.0818
  209MOL0     C27463   8.325   3.601   3.661  0.0114 -0.3361  0.6286
  209MOL0     O27464   8.213   3.576   3.731 -0.7253 -0.9235 -0.2987
  209MOL0     C27465   8.093   3.639   3.684 -0.6593  0.0053 -0.9394
  209MOL0     C27466   8.000   3.676   3.790  0.8664  0.1921 -0.7468
  209MOL0     C27467   7.934   3.561   3.850  0.2633 -0.2055 -0.9420
  209MOL0     C27468   7.816   3.590   3.944  0.4830 -0.3637 -0.3705
  209MOL0     C27469   7.776   3.466   4.014 -0.5798  0.0621  0.3366
  209MOL0     C27470   7.700   3.507   4.143 -0.3417 -0.7107 -0.2102
  209MOL0     C27471   7.662   3.391   4.235  0.2166  0.5107 -0.0673
  209MOL0     C27472   7.538   3.316   4.185 -0.2383 -0.2490  0.0097
  209MOL0     N27473   7.534   3.176   4.220 -0.3037  0.6971 -0.9649
  209MOL0     C27474   7.639   3.085   4.230  0.2799 -0.0509 -0.1287
  209MOL0     C27475   7.588   2.973   4.280  0.1832 -0.0513 -0.5324
  209MOL0     C27476   7.655   2.848   4.318  0.6217  0.7851 -0.2159
  209MOL0     C27477   7.691   2.844   4.471 -0.3096  1.0677  0.0677
  209MOL0     C27478   7.695   2.700   4.537 -0.1534 -0.5196 -1.0435
  209MOL0     C27479   7.747   2.703   4.682  0.1744  0.5480 -0.1306
  209MOL0     O27480   7.872   2.781   4.695 -0.1848  0.4976 -0.2776
  209MOL0     C27481   7.988   2.726   4.642  0.6515 -0.8469 -0.7984
  209MOL0     C27482   8.016   2.585   4.619  0.8492 -1.2918  0.0917
  209MOL0     C27483   8.147   2.540   4.592 -0.3140  0.0693  1.0969
  209MOL0     C27484   8.251   2.630   4.584  0.4135  0.0336 -0.1386
  209MOL0     C27485   8.383   2.575   4.566 -0.9705 -0.7444  0.1571
  209MOL0     O27486   8.475   2.673   4.528 -0.1516 -0.0336  0.2635
  209MOL0     C27487   8.611   2.645   4.515  0.2980 -0.9736  0.0509
  209MOL0     C27488   8.674   2.533   4.460 -0.2336  0.9293 -0.1164
  209MOL0     C27489   8.807   2.526   4.450 -0.4630  0.4461 -1.5650
  209MOL0     C27490   8.895   2.627   4.509 -0.4188 -0.2159  0.1842
  209MOL0     O27491   9.034   2.608   4.500 -0.1207  0.1855 -0.4954
  209MOL0     C27492   9.116   2.723   4.479  0.5596  0.5913  0.0409
  209MOL0     C27493   9.258   2.676   4.490 -0.8060  0.1197 -0.0679
  209MOL0     C27494   9.295   2.551   4.402  0.4287 -0.3215  0.2094
  209MOL0     C27495   9.444   2.533   4.422 -0.2949  0.5249  0.2150
  209MOL0     C27496   9.480   2.383   4.360 -0.3156 -0.3850 -0.3252
  209MOL0     C27497   9.622   2.347   4.383  0.2756  0.1087 -0.6600
  209MOL0     C27498   9.672   2.204   4.342  0.6015 -0.2480 -0.0507
  209MOL0     C27499   9.580   2.085   4.377 -0.0571  0.6472  0.1498
  209MOL0    Cl27500   9.558   2.081   4.560 -0.1231  0.2495 -0.2638
  209MOL0     C27501   8.832   2.741   4.565  0.0529  0.3333  1.3094
  209MOL0     C27502   8.690   2.753   4.561 -0.8545  0.2970 -0.5774
  209MOL0     O27503   8.401   2.457   4.577  0.1952  0.7899 -0.3447
  209MOL0     C27504   8.224   2.763   4.602  0.0378  0.5177  0.9836
  209MOL0     C27505   8.097   2.812   4.618 -0.3112 -0.1909 -0.1782
  209MOL0     N27506   7.448   2.998   4.295 -0.3747  0.3174 -0.2980
  209MOL0     N27507   7.423   3.122   4.273  0.0242  0.0016  0.1736
  209MOL0     C27508   8.388   3.719   3.694 -0.4666  1.0261 -0.2483
  209MOL0     C27509   8.506   3.749   3.629 -0.5571  0.7289 -0.2223
  209MOL0     C27510   8.842   3.752   3.320  1.1295 -0.1211  0.2896
  209MOL0     C27511   8.947   3.675   3.379 -0.1589  0.2214  0.6000
  209MOL0     C27512   9.075   3.674   3.319 -0.7089 -0.2398 -0.5306
  209MOL0     C27513   9.099   3.739   3.200  1.4611  0.5701  0.3385
  209MOL0     O27514   9.216   3.754   3.130 -0.8309  0.2553 -0.0788
  209MOL0     C27515   9.323   3.671   3.175  0.0027  0.6107 -0.0372
  209MOL0     C27516   9.325   3.543   3.081  1.0940  0.4514 -0.9068
  209MOL0     C27517   9.445   3.454   3.095 -0.2255  0.7635 -0.2869
  209MOL0     C27518   9.585   3.504   3.049 -0.6947 -0.9957 -0.8612
  209MOL0     C27519   9.663   3.577   3.158 -0.0772 -0.8775  0.1092
  209MOL0     C27520   9.700   3.652   3.253  0.4115 -0.3481 -0.1694
  209MOL0     C27521   8.991   3.815   3.143 -0.7453 -0.4284 -0.4769
  209MOL0     C27522   8.863   3.821   3.201  0.6552  0.0270 -0.3581
  209MOL0     H27523   8.563   3.445   3.466 -0.5737  0.8553 -0.5228
  209MOL0     H27524   8.342   3.401   3.586  2.4575 -1.4624 -0.6302
  209MOL0     H27525   8.043   3.568   3.617 -2.4487  0.3057  0.0275
  209MOL0     H27526   8.121   3.728   3.627 -1.0959 -0.3885 -1.7887
  209MOL0     H27527   7.924   3.745   3.751  1.8776  1.0647 -1.2202
  209MOL0     H27528   8.050   3.726   3.874 -1.7657 -1.0456  1.7344
  209MOL0     H27529   8.009   3.509   3.910 -0.8171 -1.3279 -0.5345
  209MOL0     H27530   7.892   3.490   3.778 -0.3962  0.4894 -1.2570
  209MOL0     H27531   7.858   3.662   4.015  0.1626 -1.5513  1.0719
  209MOL0     H27532   7.731   3.624   3.884  0.3979 -0.1245 -0.1163
  209MOL0     H27533   7.865   3.407   4.036 -1.8458 -2.2115 -0.3910
  209MOL0     H27534   7.711   3.402   3.954 -0.0421 -0.9625  0.8289
  209MOL0     H27535   7.608   3.560   4.117  0.0309 -0.5367 -1.2323
  209MOL0     H27536   7.756   3.576   4.207 -3.7633  1.6183  0.5557
  209MOL0     H27537   7.747   3.322   4.237 -0.3353 -0.2181 -0.9057
  209MOL0     H27538   7.663   3.428   4.338  0.5893 -1.0588  0.5123
  209MOL0     H27539   7.532   3.327   4.077  0.5873 -1.4979 -0.1782
  209MOL0     H27540   7.448   3.366   4.222  1.0445  2.3530 -0.1783
  209MOL0     H27541   7.736   3.091   4.182 -0.1017 -1.8934 -1.2494
  209MOL0     H27542   7.737   2.823   4.251 -1.0698  0.8807 -2.4406
  209MOL0     H27543   7.578   2.771   4.312  0.3783  0.9569  0.6175
  209MOL0     H27544   7.615   2.892   4.533 -0.5019 -0.5977  1.1680
  209MOL0     H27545   7.784   2.902   4.472 -0.3455  1.1293 -0.1527
  209MOL0     H27546   7.593   2.660   4.534  0.1155 -1.3346  0.0413
  209MOL0     H27547   7.759   2.636   4.475 -0.2767 -2.4719  0.7205
  209MOL0     H27548   7.758   2.606   4.731 -1.1268  0.9974  1.1121
  209MOL0     H27549   7.662   2.752   4.731 -1.0425 -0.3433 -1.2952
  209MOL0     H27550   7.924   2.528   4.621 -0.6162  0.9483  0.7203
  209MOL0     H27551   8.145   2.433   4.574  0.7746  0.2042  0.0591
  209MOL0     H27552   8.611   2.448   4.434 -0.4916  0.3353  2.2045
  209MOL0     H27553   8.849   2.433   4.413  2.0705  0.7891  0.2205
  209MOL0     H27554   9.089   2.806   4.544 -3.4931  0.2427 -0.9149
  209MOL0     H27555   9.093   2.747   4.375 -0.9779  0.0426  0.2248
  209MOL0     H27556   9.275   2.646   4.594 -1.9540 -1.1468 -0.2205
  209MOL0     H27557   9.326   2.757   4.461 -1.3336  1.1880  1.5228
  209MOL0     H27558   9.274   2.563   4.295  1.1917 -1.0866 -0.0376
  209MOL0     H27559   9.241   2.463   4.438 -0.1946 -0.4987 -1.1048
  209MOL0     H27560   9.500   2.610   4.369 -1.9088  1.3085 -0.4127
  209MOL0     H27561   9.480   2.536   4.525 -0.1469 -0.6350  0.2090
  209MOL0     H27562   9.457   2.377   4.253 -2.0680 -0.1289  0.0072
  209MOL0     H27563   9.420   2.318   4.423 -0.6486  0.2857  0.0652
  209MOL0     H27564   9.638   2.364   4.490  1.9179 -2.3834 -0.4279
  209MOL0     H27565   9.679   2.416   4.321 -1.0048  1.3151 -0.5477
  209MOL0     H27566   9.685   2.204   4.233 -3.5272 -1.4762 -0.7208
  209MOL0     H27567   9.758   2.177   4.404 -1.7525 -1.4975  2.9187
  209MOL0     H27568   9.628   1.996   4.335  1.4195  1.8114 -0.7176
  209MOL0     H27569   9.478   2.093   4.336 -0.2880  0.2775  0.6473
  209MOL0     H27570   8.891   2.815   4.618  0.8151  0.4402  0.3502
  209MOL0     H27571   8.642   2.845   4.595  0.0037  0.7831 -0.6638
  209MOL0     H27572   8.301   2.839   4.608 -1.6080  2.2839  0.3932
  209MOL0     H27573   8.093   2.916   4.647 -4.2440 -0.4528  0.6946
  209MOL0     H27574   8.336   3.775   3.771 -2.6317 -4.2291  2.6290
  209MOL0     H27575   8.568   3.835   3.650 -0.7203  0.5161  1.2543
  209MOL0     H27576   8.926   3.616   3.468 -0.4091 -0.4598  0.0987
  209MOL0     H27577   9.151   3.609   3.362 -0.6266 -2.3298 -3.5478
  209MOL0     H27578   9.320   3.647   3.281 -0.1027 -2.6720 -0.6882
  209MOL0     H27579   9.418   3.724   3.164  0.0339  1.0237  1.9290
  209MOL0     H27580   9.237   3.482   3.104  0.3005  1.6196 -0.7270
  209MOL0     H27581   9.321   3.565   2.974  4.0766 -1.0669 -1.4093
  209MOL0     H27582   9.429   3.351   3.064  2.3153 -0.5567  2.3584
  209MOL0     H27583   9.452   3.431   3.201 -0.0295 -0.7840 -0.6159
  209MOL0     H27584   9.643   3.417   3.016 -3.0899 -2.5969 -1.1583
  209MOL0     H27585   9.579   3.568   2.961 -1.7035 -2.4785 -1.9369
  209MOL0     H27586   9.713   3.730   3.325 -3.2759  0.4556 -0.1676
  209MOL0     H27587   9.008   3.857   3.045 -0.1766 -0.5494 -0.4360
  209MOL0     H27588   8.790   3.879   3.146  0.9377 -1.7509 -2.7305
  210MOL0     O27589   9.281   1.749   2.506 -0.3920 -0.8103 -0.2014
  210MOL0     C27590   9.351   1.680   2.431 -0.3626  0.3562 -0.2961
  210MOL0     O27591   9.305   1.591   2.332  0.0731  0.5138 -0.2035
  210MOL0     C27592   9.166   1.575   2.330  1.3470 -0.7734 -0.0075
  210MOL0     C27593   9.104   1.450   2.365  0.1820  0.4254  0.9811
  210MOL0     C27594   8.963   1.435   2.326  0.1044  0.6750 -1.0667
  210MOL0     C27595   8.884   1.537   2.277  0.5981  0.9307  0.0515
  210MOL0     O27596   8.755   1.507   2.252 -0.6979  0.5022  0.5467
  210MOL0     C27597   8.703   1.565   2.134 -0.0691 -0.5218  0.4178
  210MOL0     C27598   8.563   1.498   2.115  0.3626  0.3862  0.7463
  210MOL0     C27599   8.467   1.541   2.238 -0.2800 -0.5690 -0.4014
  210MOL0     C27600   8.337   1.465   2.237  0.8352  0.1738  0.3972
  210MOL0     C27601   8.276   1.461   2.091  0.7942  0.0458 -0.5702
  210MOL0     C27602   8.142   1.386   2.107 -0.3819  0.2117 -0.0891
  210MOL0     C27603   8.075   1.384   1.974  0.5020  0.1215  0.3577
  210MOL0     C27604   7.949   1.296   1.998  0.1900 -0.0997  0.8486
  210MOL0     N27605   7.908   1.244   1.867  0.6362 -0.0149 -0.4308
  210MOL0     C27606   7.789   1.276   1.799  1.0324 -0.0344 -0.4768
  210MOL0     C27607   7.796   1.205   1.687 -0.2816  0.3199  0.3025
  210MOL0     C27608   7.686   1.220   1.587  0.2314 -0.3538 -0.1969
  210MOL0     C27609   7.658   1.082   1.517 -0.0814  0.4997 -1.1135
  210MOL0     C27610   7.538   1.108   1.424  0.5550 -0.1085 -0.4438
  210MOL0     C27611   7.537   1.007   1.313  0.3531  0.1341  0.7682
  210MOL0     O27612   7.510   0.878   1.362 -0.3808  0.0058  0.2857
  210MOL0     C27613   7.383   0.846   1.400 -0.2586 -0.5751  0.1103
  210MOL0     C27614   7.270   0.920   1.369  0.0006  0.6987 -0.4116
  210MOL0     C27615   7.144   0.884   1.425  0.3703  0.1510  0.4056
  210MOL0     C27616   7.130   0.786   1.518 -0.0384 -0.4564  0.5371
  210MOL0     C27617   7.011   0.751   1.575  0.4118  0.9693 -0.4808
  210MOL0     O27618   7.012   0.683   1.694 -0.1694 -0.4708 -0.5391
  210MOL0     C27619   6.888   0.656   1.747 -0.1738  0.2428 -0.5927
  210MOL0     C27620   6.818   0.551   1.677 -0.0436 -0.6469  0.0996
  210MOL0     C27621   6.694   0.513   1.716 -0.0223 -0.1606 -0.3327
  210MOL0     C27622   6.639   0.566   1.834 -0.6173 -0.2045  1.2849
  210MOL0     O27623   6.510   0.529   1.871  0.1669  0.3851 -0.0270
  210MOL0     C27624   6.416   0.481   1.773  0.3641  0.2315  0.6430
  210MOL0     C27625   6.283   0.492   1.843 -0.2691  0.2677  0.5300
  210MOL0     C27626   6.183   0.426   1.744 -0.2510 -0.3656 -1.0971
  210MOL0     C27627   6.059   0.399   1.824  0.7175  0.5840  0.0881
  210MOL0     C27628   5.952   0.330   1.741 -0.1453 -0.3055 -0.5791
  210MOL0     C27629   5.820   0.325   1.823 -0.2655 -0.3823 -0.6269
  210MOL0     C27630   5.839   0.262   1.955  0.0175  0.7396  0.4249
  210MOL0     C27631   5.707   0.236   2.022  0.9192  1.1643  0.2349
  210MOL0    Cl27632   5.661   0.058   1.970  0.1512 -0.1767  0.8070
  210MOL0     C27633   6.721   0.648   1.911 -0.8147  0.4720  0.2029
  210MOL0     C27634   6.844   0.687   1.870 -0.0898 -0.5929 -0.5923
  210MOL0     O27635   6.904   0.780   1.509 -0.4242 -0.0159  0.1736
  210MOL0     C27636   7.247   0.708   1.538 -0.1325 -0.5256 -0.4771
  210MOL0     C27637   7.372   0.741   1.482 -0.1613 -0.1734 -0.2750
  210MOL0     N27638   7.896   1.111   1.698  0.5646 -0.1541  0.2562
  210MOL0     N27639   7.954   1.136   1.808 -0.7203 -0.6646  0.1893
  210MOL0     C27640   8.950   1.663   2.255  1.0897  0.4815 -1.7653
  210MOL0     C27641   9.085   1.679   2.279  0.5145 -0.8728  0.6500
  210MOL0     C27642   9.507   1.685   2.438  0.7344 -0.0262 -0.1201
  210MOL0     C27643   9.568   1.722   2.561 -0.3386 -0.6364  0.2997
  210MOL0     C27644   9.709   1.726   2.577  0.2338 -0.9775 -0.6694
  210MOL0     C27645   9.793   1.677   2.477 -0.1763  0.7960  0.1464
  210MOL0     O27646   9.925   1.646   2.505 -0.8774  0.2385 -0.7348
  210MOL0     C27647   9.987   1.687   2.629 -0.2565 -0.3528  0.4111
  210MOL0     C27648  10.134   1.695   2.609 -0.1626  0.3478 -0.7691
  210MOL0     C27649  10.164   1.787   2.485  0.2240  0.1294  0.0190
  210MOL0     C27650  10.313   1.814   2.476 -0.9568  0.1243  0.1098
  210MOL0     C27651  10.401   1.696   2.466  0.3921  0.0402  0.9752
  210MOL0     C27652  10.469   1.594   2.445 -0.5264  0.2841  0.5269
  210MOL0     C27653   9.729   1.641   2.354 -0.9948  0.7339  0.5228
  210MOL0     C27654   9.593   1.655   2.332 -0.5669 -0.2874  0.1664
  210MOL0     H27655   9.161   1.368   2.407  1.3318  1.3614  1.2753
  210MOL0     H27656   8.913   1.340   2.311  2.0442 -0.9432  1.7683
  210MOL0     H27657   8.771   1.557   2.048 -0.5726  2.1647 -0.2993
  210MOL0     H27658   8.690   1.670   2.160 -2.2378 -0.2362 -1.5579
  210MOL0     H27659   8.568   1.389   2.113  0.5420  0.3920  0.8680
  210MOL0     H27660   8.507   1.532   2.028 -0.4973 -1.9582  0.3132
  210MOL0     H27661   8.449   1.648   2.238  0.9754 -0.1747  3.8245
  210MOL0     H27662   8.513   1.533   2.337 -1.7844 -1.4643  0.2547
  210MOL0     H27663   8.359   1.362   2.266  0.3432  0.2575  1.1017
  210MOL0     H27664   8.271   1.496   2.319 -0.8226 -2.3979  0.1357
  210MOL0     H27665   8.339   1.401   2.024  2.7185 -0.1739  1.3102
  210MOL0     H27666   8.262   1.560   2.047  1.2672  0.0722 -0.6736
  210MOL0     H27667   8.074   1.426   2.182  0.2208  2.9961 -0.9193
  210MOL0     H27668   8.167   1.282   2.133  0.9909 -0.7733 -4.5680
  210MOL0     H27669   8.031   1.480   1.944 -1.9007 -1.3277 -1.1560
  210MOL0     H27670   8.132   1.345   1.889  0.8001 -0.8688  0.9966
  210MOL0     H27671   7.872   1.353   2.051  1.8834  0.6342  2.6387
  210MOL0     H27672   7.973   1.209   2.059  1.6762  2.5266  4.3700
  210MOL0     H27673   7.710   1.346   1.824  2.3733  0.6507  2.0961
  210MOL0     H27674   7.715   1.289   1.508 -0.4167 -1.2136 -1.2257
  210MOL0     H27675   7.592   1.255   1.631  1.0174  0.9819  0.4431
  210MOL0     H27676   7.650   0.993   1.579 -2.5678 -0.1049 -2.1767
  210MOL0     H27677   7.751   1.051   1.468 -0.5768 -3.8020  0.2974
  210MOL0     H27678   7.447   1.108   1.486  0.8624 -3.5414  0.2004
  210MOL0     H27679   7.550   1.201   1.368 -0.4830 -0.7710 -1.8361
  210MOL0     H27680   7.628   0.993   1.253 -0.7565  0.8139 -1.1753
  210MOL0     H27681   7.456   1.036   1.246  1.4764 -0.7080 -1.0206
  210MOL0     H27682   7.265   1.009   1.307  2.6715  2.5284  1.7174
  210MOL0     H27683   7.059   0.943   1.391  0.2886 -0.4978 -0.5638
  210MOL0     H27684   6.867   0.494   1.599  0.5970  1.8173 -1.4196
  210MOL0     H27685   6.639   0.436   1.662  0.1968 -0.6602  0.1435
  210MOL0     H27686   6.446   0.380   1.745  2.6374  1.0909 -0.2824
  210MOL0     H27687   6.401   0.543   1.684 -2.1623  3.8832  3.2984
  210MOL0     H27688   6.259   0.597   1.861 -2.1106 -0.1985  1.0233
  210MOL0     H27689   6.288   0.439   1.939 -2.5282 -0.2772  0.4197
  210MOL0     H27690   6.236   0.343   1.697  0.4179 -0.3625 -0.3867
  210MOL0     H27691   6.156   0.492   1.661 -0.2298 -4.6688 -4.9406
  210MOL0     H27692   6.087   0.342   1.913 -1.3330  0.4613  0.7193
  210MOL0     H27693   6.020   0.487   1.876 -1.1220 -0.2207  0.1605
  210MOL0     H27694   5.981   0.226   1.723  0.3262 -0.6970  2.0604
  210MOL0     H27695   5.945   0.380   1.644 -0.1627  4.2820  1.4850
  210MOL0     H27696   5.743   0.268   1.769 -0.1635  1.6012 -2.9990
  210MOL0     H27697   5.787   0.429   1.827  1.2214  0.0694  0.7858
  210MOL0     H27698   5.897   0.169   1.957 -2.7219 -1.0858 -0.2392
  210MOL0     H27699   5.898   0.334   2.013  0.2355  0.3777  0.6552
  210MOL0     H27700   5.627   0.306   1.998 -1.3238 -0.4994  2.4229
  210MOL0     H27701   5.726   0.237   2.129  2.4541  2.2062  0.0010
  210MOL0     H27702   6.694   0.679   2.012 -0.2995 -0.2206  0.5594
  210MOL0     H27703   6.895   0.756   1.937  1.0138  0.2213 -2.2152
  210MOL0     H27704   7.234   0.616   1.594 -2.3742  0.2690  0.4073
  210MOL0     H27705   7.459   0.676   1.485 -0.9071 -1.2294 -0.8862
  210MOL0     H27706   8.883   1.742   2.224 -0.7645  0.3917  1.4895
  210MOL0     H27707   9.118   1.782   2.282  0.5212 -0.6269 -3.4228
  210MOL0     H27708   9.510   1.754   2.647  0.2497  2.1260 -0.2434
  210MOL0     H27709   9.738   1.764   2.674 -1.7354 -0.1442 -0.3619
  210MOL0     H27710   9.964   1.611   2.704 -3.0092 -2.7066 -2.5813
  210MOL0     H27711   9.951   1.784   2.666  1.7000  0.2610  0.8735
  210MOL0     H27712  10.185   1.734   2.698  1.3688 -1.4617 -0.7986
  210MOL0     H27713  10.173   1.595   2.590  4.3081  1.5528  0.8949
  210MOL0     H27714  10.117   1.885   2.501  0.6715  0.4533 -0.6181
  210MOL0     H27715  10.125   1.742   2.394 -0.2469  2.4986 -1.0324
  210MOL0     H27716  10.329   1.857   2.376 -2.0724  1.8936  0.6556
  210MOL0     H27717  10.348   1.882   2.554 -2.1030  3.2818 -1.9111
  210MOL0     H27718  10.524   1.502   2.435 -2.1824 -0.6441 -0.5029
  210MOL0     H27719   9.785   1.602   2.269 -0.0412  1.0640  0.9780
  210MOL0     H27720   9.554   1.622   2.236 -0.2718 -0.6658  0.1742
  211MOL0     O27721   2.280   0.522   5.116 -0.3477 -0.2530 -0.5561
  211MOL0     C27722   2.285   0.635   5.170  0.1154  0.2020 -0.9163
  211MOL0     O27723   2.186   0.706   5.237  0.6894 -0.9341  0.3873
  211MOL0     C27724   2.067   0.646   5.272 -0.3886 -0.6998  0.7012
  211MOL0     C27725   1.960   0.739   5.300 -0.6464  0.3694 -0.5414
  211MOL0     C27726   1.840   0.696   5.358 -0.0541  0.0193 -0.7537
  211MOL0     C27727   1.806   0.563   5.362  0.4951  0.1095 -0.8064
  211MOL0     O27728   1.681   0.533   5.400  0.8191  0.4259  0.7125
  211MOL0     C27729   1.645   0.392   5.379 -0.5591  0.5910  0.3089
  211MOL0     C27730   1.501   0.364   5.433 -0.4823  0.7129  0.4573
  211MOL0     C27731   1.408   0.438   5.329  0.0223  0.8928 -0.5449
  211MOL0     C27732   1.272   0.454   5.391 -0.1982  0.7078 -0.4304
  211MOL0     C27733   1.167   0.464   5.277 -0.1269 -0.4955  0.7946
  211MOL0     C27734   1.031   0.489   5.338  0.4050 -0.9711  0.6638
  211MOL0     C27735   0.920   0.521   5.223 -0.8098 -0.0716 -0.5023
  211MOL0     C27736   0.790   0.563   5.291 -0.3355  0.3587 -0.1087
  211MOL0     N27737   0.688   0.614   5.203 -0.2127  0.2100  0.0491
  211MOL0     C27738   0.610   0.553   5.110  0.3991  0.2567  0.3477
  211MOL0     C27739   0.515   0.644   5.078  0.5061  0.6336  1.1728
  211MOL0     C27740   0.390   0.603   5.002  0.1127  0.8264  0.0284
  211MOL0     C27741   0.302   0.724   4.983  0.5990  0.3599  0.3632
  211MOL0     C27742   0.194   0.698   4.887 -0.1020 -0.3553  0.6918
  211MOL0     C27743   0.066   0.785   4.897  0.1175  0.2265 -0.1656
  211MOL0     O27744   0.022   0.817   4.766  0.4260  0.2845 -0.0533
  211MOL0     C27745  -0.098   0.880   4.773 -0.9616 -0.7380  0.1316
  211MOL0     C27746  -0.131   0.987   4.859 -0.9301  0.7209 -0.5450
  211MOL0     C27747  -0.249   1.061   4.851  0.1951  0.3518 -0.2676
  211MOL0     C27748  -0.356   1.025   4.769 -0.2269  1.1898 -0.1964
  211MOL0     C27749  -0.481   1.101   4.766  0.2523 -0.3167  0.1083
  211MOL0     O27750  -0.467   1.226   4.818 -0.3689 -0.1897 -0.1876
  211MOL0     C27751  -0.569   1.315   4.815  0.2069 -0.6883  0.1792
  211MOL0     C27752  -0.651   1.349   4.706  0.7840  0.1424 -0.0802
  211MOL0     C27753  -0.762   1.435   4.714  0.7601 -0.7250  0.5274
  211MOL0     C27754  -0.781   1.506   4.829 -0.3056 -0.1041 -1.1550
  211MOL0     O27755  -0.889   1.589   4.840 -0.3026 -1.1373  0.1361
  211MOL0     C27756  -0.936   1.660   4.719  0.2206  0.8094  1.0291
  211MOL0     C27757  -1.017   1.790   4.758 -0.3155 -0.2036 -1.3688
  211MOL0     C27758  -1.130   1.749   4.861 -0.7648  0.2164  0.6667
  211MOL0     C27759  -1.225   1.865   4.877 -0.1036  0.4022 -0.5926
  211MOL0     C27760  -1.326   1.846   4.994  1.1231  0.6707  0.8519
  211MOL0     C27761  -1.428   1.952   4.985  0.1799  0.0289 -0.0807
  211MOL0     C27762  -1.532   1.937   5.101  0.2160  0.1655  0.2729
  211MOL0     C27763  -1.488   1.884   5.239 -0.4695  0.0020 -0.2241
  211MOL0    Cl27764  -1.515   1.700   5.242 -0.0268 -0.1698  0.0561
  211MOL0     C27765  -0.688   1.500   4.934  0.6650 -0.0916 -0.2755
  211MOL0     C27766  -0.589   1.400   4.926  0.0275 -0.2492  0.4495
  211MOL0     O27767  -0.587   1.053   4.732 -0.4645 -0.2575  0.5715
  211MOL0     C27768  -0.329   0.918   4.678 -0.0458 -0.2770 -0.7682
  211MOL0     C27769  -0.202   0.850   4.678 -0.3225  0.2022 -0.2855
  211MOL0     N27770   0.532   0.762   5.144  0.1725  0.1824  0.3287
  211MOL0     N27771   0.634   0.740   5.214  0.1601 -0.6185  1.3861
  211MOL0     C27772   1.913   0.462   5.331  0.6618  0.3477  0.3780
  211MOL0     C27773   2.044   0.499   5.290 -0.5333 -0.0169 -0.3715
  211MOL0     C27774   2.405   0.707   5.142 -0.1726 -1.1788  0.4556
  211MOL0     C27775   2.530   0.650   5.137 -0.5140  0.0550  0.7016
  211MOL0     C27776   2.654   0.717   5.119  0.5157 -0.3351 -0.4690
  211MOL0     C27777   2.648   0.853   5.102  0.2377  0.3240  0.7367
  211MOL0     O27778   2.761   0.924   5.074 -0.3105  0.1205  0.4801
  211MOL0     C27779   2.882   0.855   5.038 -0.0306  0.9106 -0.1425
  211MOL0     C27780   2.984   0.953   4.986 -0.3513 -1.0335  0.5488
  211MOL0     C27781   3.048   1.020   5.103 -0.3747  0.3279  0.0169
  211MOL0     C27782   3.172   1.109   5.079  0.0109 -0.2133 -0.1261
  211MOL0     C27783   3.295   1.047   5.023 -0.0216 -0.1873  0.5613
  211MOL0     C27784   3.387   0.983   4.977 -0.4644  0.0486 -0.4278
  211MOL0     C27785   2.524   0.915   5.112 -0.0253 -0.8626 -0.4834
  211MOL0     C27786   2.407   0.843   5.130 -0.2599  0.1537  0.0535
  211MOL0     H27787   1.972   0.846   5.304 -4.1306  0.8402  1.5414
  211MOL0     H27788   1.762   0.769   5.378  1.6315  1.0122  3.3985
  211MOL0     H27789   1.711   0.327   5.437 -0.9888 -1.7225 -1.6291
  211MOL0     H27790   1.640   0.364   5.273  1.5519  2.0348 -0.2199
  211MOL0     H27791   1.486   0.395   5.536  0.0891  0.1984  0.7002
  211MOL0     H27792   1.481   0.258   5.416 -0.1660  0.8051 -0.5922
  211MOL0     H27793   1.400   0.384   5.234  1.3241  0.9833 -0.7196
  211MOL0     H27794   1.449   0.537   5.309 -1.2252  1.2538 -1.4744
  211MOL0     H27795   1.246   0.367   5.452  1.2133  0.7371  0.2318
  211MOL0     H27796   1.266   0.545   5.452  1.5981  0.6862 -0.1724
  211MOL0     H27797   1.171   0.378   5.209 -0.0403  1.5553 -1.9660
  211MOL0     H27798   1.201   0.547   5.215  1.1904  0.2994  2.4983
  211MOL0     H27799   1.038   0.574   5.405 -0.1203  0.8923 -1.5144
  211MOL0     H27800   1.004   0.398   5.393 -0.4070 -0.9648  0.3031
  211MOL0     H27801   0.938   0.621   5.181 -1.7734  1.7080  2.9642
  211MOL0     H27802   0.910   0.446   5.144  0.4433 -0.8004  0.0018
  211MOL0     H27803   0.814   0.648   5.355 -1.7219  1.2473 -0.7222
  211MOL0     H27804   0.750   0.483   5.353 -0.5659 -0.1455 -0.8884
  211MOL0     H27805   0.606   0.449   5.080 -0.0758  0.3261  0.1573
  211MOL0     H27806   0.340   0.525   5.060  1.4314  2.2599  3.3915
  211MOL0     H27807   0.432   0.562   4.910 -1.5720 -1.3867  0.1748
  211MOL0     H27808   0.360   0.809   4.947  0.4059  0.2106 -0.3151
  211MOL0     H27809   0.264   0.757   5.080 -0.4711 -0.6479  0.3182
  211MOL0     H27810   0.237   0.716   4.788 -0.8191  2.9086  0.8584
  211MOL0     H27811   0.159   0.596   4.901 -1.2516  0.0705  1.0439
  211MOL0     H27812   0.090   0.866   4.966  0.0289  2.2862 -2.4200
  211MOL0     H27813  -0.013   0.732   4.949 -0.1008 -0.5871 -1.2894
  211MOL0     H27814  -0.072   1.025   4.941 -2.4542  1.3110  0.3168
  211MOL0     H27815  -0.260   1.141   4.924  2.1701 -0.0675  0.5645
  211MOL0     H27816  -0.628   1.293   4.615  1.9162  1.8518 -0.8912
  211MOL0     H27817  -0.827   1.451   4.629  0.2924  0.0910  1.0214
  211MOL0     H27818  -0.993   1.604   4.645  0.8725 -0.6339  1.5867
  211MOL0     H27819  -0.844   1.696   4.672 -0.8426  1.5486 -0.5417
  211MOL0     H27820  -1.050   1.847   4.670  0.3320 -0.0645 -1.5259
  211MOL0     H27821  -0.944   1.858   4.802 -0.2123 -1.0142 -0.2410
  211MOL0     H27822  -1.088   1.708   4.953  0.0037 -1.1078 -0.2389
  211MOL0     H27823  -1.184   1.661   4.825 -3.3501  1.3519  1.5491
  211MOL0     H27824  -1.170   1.955   4.907  0.1571 -0.0802  0.4453
  211MOL0     H27825  -1.273   1.878   4.780 -2.8008  0.1713  0.6100
  211MOL0     H27826  -1.275   1.836   5.090 -0.6270  2.2358  2.0169
  211MOL0     H27827  -1.380   1.753   4.972  0.2036  1.3870  0.0000
  211MOL0     H27828  -1.483   1.949   4.890 -1.9899  0.7985  1.0826
  211MOL0     H27829  -1.395   2.055   4.999 -0.5711  0.3876 -0.8019
  211MOL0     H27830  -1.577   2.037   5.104  0.1854  0.3044 -2.4241
  211MOL0     H27831  -1.617   1.871   5.081  0.6994 -1.8361  3.9001
  211MOL0     H27832  -1.546   1.931   5.319  0.6592 -0.8703  1.1481
  211MOL0     H27833  -1.381   1.903   5.253  0.0923 -2.0506 -1.3938
  211MOL0     H27834  -0.712   1.565   5.018 -1.2283  1.4123 -1.8727
  211MOL0     H27835  -0.537   1.393   5.021 -4.4721 -1.4159  3.1573
  211MOL0     H27836  -0.412   0.892   4.612  0.0443 -0.6224 -0.7478
  211MOL0     H27837  -0.175   0.771   4.610 -1.8841  0.8434 -1.7096
  211MOL0     H27838   1.894   0.355   5.326  2.9429 -0.0884  0.3994
  211MOL0     H27839   2.119   0.424   5.267  1.1589  1.1498  1.0598
  211MOL0     H27840   2.546   0.543   5.146  0.8419 -0.7674 -5.9421
  211MOL0     H27841   2.749   0.668   5.135  0.2313 -1.2899 -1.5839
  211MOL0     H27842   2.854   0.781   4.963 -0.7570  0.3661  0.6417
  211MOL0     H27843   2.924   0.786   5.113 -3.7706 -0.7550  0.6536
  211MOL0     H27844   3.060   0.901   4.927  2.0664  2.0855  0.7121
  211MOL0     H27845   2.935   1.017   4.912  2.2696  0.3736 -0.0775
  211MOL0     H27846   3.074   0.944   5.178 -2.1494 -1.5286 -1.1364
  211MOL0     H27847   2.973   1.085   5.148 -0.8521  1.4003 -2.1920
  211MOL0     H27848   3.145   1.187   5.007  1.2283 -1.2251 -1.7360
  211MOL0     H27849   3.195   1.164   5.171 -3.0377  1.5259 -0.2393
  211MOL0     H27850   3.475   0.937   4.934  2.0158  3.5323  0.5118
  211MOL0     H27851   2.523   1.024   5.112 -1.4576 -0.8498 -0.9787
  211MOL0     H27852   2.313   0.897   5.142  1.2863  2.5246  3.0755
  212MOL0     O27853   5.284   6.961   3.575  0.4775 -0.3973 -0.1942
  212MOL0     C27854   5.304   6.881   3.667 -0.0530 -0.2235  0.0492
  212MOL0     O27855   5.211   6.798   3.732 -0.8117  0.4472 -0.2180
  212MOL0     C27856   5.090   6.795   3.675 -0.1562 -0.5489 -0.7092
  212MOL0     C27857   4.994   6.899   3.680  0.4602 -1.2219  0.2212
  212MOL0     C27858   4.874   6.881   3.612  0.2761 -0.1164  1.2158
  212MOL0     C27859   4.840   6.764   3.542 -0.2970  0.0363  0.1977
  212MOL0     O27860   4.732   6.741   3.459 -0.6017 -0.1151  0.1482
  212MOL0     C27861   4.600   6.802   3.482  0.0101  0.0336  0.7566
  212MOL0     C27862   4.493   6.701   3.449 -0.2372  0.9670  0.1305
  212MOL0     C27863   4.358   6.780   3.450  0.0139 -0.1410 -0.4824
  212MOL0     C27864   4.338   6.844   3.311 -1.3088 -0.3382  0.7217
  212MOL0     C27865   4.215   6.926   3.278 -0.5773  0.6825 -0.4641
  212MOL0     C27866   4.082   6.836   3.271  0.1989 -0.2895  0.1914
  212MOL0     C27867   3.972   6.907   3.199  0.2758  0.1867  0.2824
  212MOL0     C27868   3.891   7.011   3.276 -0.1193  0.0927 -0.7577
  212MOL0     N27869   3.802   7.076   3.179 -0.3683 -0.4837  0.3454
  212MOL0     C27870   3.672   7.034   3.144  0.0408 -0.9198  0.1511
  212MOL0     C27871   3.633   7.138   3.063 -0.0333 -0.2373 -0.1497
  212MOL0     C27872   3.508   7.142   2.971 -0.0600 -1.3598 -1.0251
  212MOL0     C27873   3.554   7.108   2.838  0.8141  0.1860 -0.8346
  212MOL0     C27874   3.477   7.178   2.722  0.4230 -0.1059  0.0108
  212MOL0     C27875   3.492   7.332   2.710 -0.2710 -0.7598 -0.4997
  212MOL0     O27876   3.423   7.382   2.595 -0.0342  0.5393 -0.0962
  212MOL0     C27877   3.303   7.448   2.597 -0.3436 -0.5609 -0.8378
  212MOL0     C27878   3.175   7.382   2.587  0.2268  1.3279  0.4904
  212MOL0     C27879   3.066   7.465   2.592 -0.3661  0.5372  0.1024
  212MOL0     C27880   3.076   7.605   2.600 -0.3833 -0.2351  0.0078
  212MOL0     C27881   2.949   7.679   2.593 -0.0906  0.7243 -0.5657
  212MOL0     O27882   2.833   7.608   2.564 -0.9584 -0.0908 -0.6234
  212MOL0     C27883   2.715   7.674   2.572 -0.0001 -0.0011  0.1084
  212MOL0     C27884   2.631   7.679   2.687 -0.1703  0.4690  0.3932
  212MOL0     C27885   2.503   7.739   2.672  0.4464 -0.5880  0.1254
  212MOL0     C27886   2.460   7.787   2.546 -0.6294  1.0869  0.0048
  212MOL0     O27887   2.333   7.842   2.545 -0.0657  0.0060 -0.0406
  212MOL0     C27888   2.283   7.918   2.435 -0.6988  0.5175  0.6534
  212MOL0     C27889   2.152   7.972   2.481 -0.3914  0.3092 -0.5067
  212MOL0     C27890   2.099   8.033   2.347 -0.0406  0.8295  0.4334
  212MOL0     C27891   1.963   8.096   2.368 -0.5159  0.8140 -0.1038
  212MOL0     C27892   1.910   8.174   2.249 -0.5991 -0.2274  0.0649
  212MOL0     C27893   1.869   8.087   2.127  0.6251  0.8001 -0.7634
  212MOL0     C27894   1.793   8.178   2.030 -1.0968  0.4908 -0.7512
  212MOL0     C27895   1.685   8.096   1.963  0.9019  0.2971 -0.1212
  212MOL0    Cl27896   1.558   8.166   1.845  0.0740 -0.1657  0.4159
  212MOL0     C27897   2.542   7.771   2.429 -0.0202  0.0849  0.3279
  212MOL0     C27898   2.669   7.714   2.446 -0.5586  0.0708 -0.4906
  212MOL0     O27899   2.948   7.799   2.611 -0.5034 -0.1184 -0.5534
  212MOL0     C27900   3.195   7.664   2.610  0.1697 -0.0654  0.1846
  212MOL0     C27901   3.311   7.588   2.606  0.0169 -0.2845  0.8497
  212MOL0     N27902   3.740   7.230   3.051  1.0442  1.1850  1.1187
  212MOL0     N27903   3.841   7.198   3.117 -0.0185 -0.2394  0.4831
  212MOL0     C27904   4.934   6.657   3.543  0.5356 -0.7701 -0.2783
  212MOL0     C27905   5.053   6.677   3.611 -0.0527  1.4928 -0.1089
  212MOL0     C27906   5.443   6.868   3.720  0.1664  0.1932 -0.6853
  212MOL0     C27907   5.531   6.976   3.717 -0.5832  0.5705  0.6872
  212MOL0     C27908   5.663   6.963   3.769 -0.2643 -0.0796 -0.1142
  212MOL0     C27909   5.702   6.843   3.846  0.2454 -0.2927  0.6362
  212MOL0     O27910   5.829   6.841   3.901  1.0014  0.4187  0.3989
  212MOL0     C27911   5.884   6.711   3.918 -0.9329  0.4636 -0.6720
  212MOL0     C27912   6.027   6.723   3.968  0.0969  0.2716  0.5397
  212MOL0     C27913   6.126   6.755   3.845 -0.3990 -1.3303  0.3984
  212MOL0     C27914   6.130   6.636   3.736 -0.4761  0.5283  0.2677
  212MOL0     C27915   6.237   6.640   3.632  0.4586 -0.6343  0.8912
  212MOL0     C27916   6.324   6.625   3.550 -0.0058  0.9196  0.8400
  212MOL0     C27917   5.608   6.743   3.841 -0.1148 -0.1204 -0.9486
  212MOL0     C27918   5.486   6.746   3.771  0.1132 -0.4440 -0.4681
  212MOL0     H27919   5.015   6.993   3.730  0.9380  1.5101 -4.5180
  212MOL0     H27920   4.813   6.971   3.621  1.6398  0.7883  1.6970
  212MOL0     H27921   4.581   6.872   3.400 -2.3099 -1.2245  0.1128
  212MOL0     H27922   4.588   6.854   3.578  0.7848  0.4203  0.6486
  212MOL0     H27923   4.502   6.615   3.516  0.3161  0.3131 -0.7497
  212MOL0     H27924   4.504   6.649   3.354  0.6241 -1.4418  1.4706
  212MOL0     H27925   4.356   6.852   3.532  0.4484 -1.2655  0.5418
  212MOL0     H27926   4.280   6.704   3.460  0.5764 -0.7463 -0.6751
  212MOL0     H27927   4.420   6.913   3.291 -0.2683 -1.9805 -0.9434
  212MOL0     H27928   4.338   6.760   3.241  0.7222 -1.3118  1.8113
  212MOL0     H27929   4.242   6.963   3.179 -0.9401 -2.5905 -1.9219
  212MOL0     H27930   4.199   7.005   3.352  0.8884  0.0836  0.5468
  212MOL0     H27931   4.040   6.827   3.372 -1.9005  0.4797 -0.5760
  212MOL0     H27932   4.101   6.730   3.250  1.4095 -0.7460  3.0217
  212MOL0     H27933   4.007   6.949   3.105 -0.3204  0.7070  0.2890
  212MOL0     H27934   3.896   6.829   3.186  0.2963  0.3617 -0.9894
  212MOL0     H27935   3.962   7.080   3.322  0.5108 -0.9364 -0.1527
  212MOL0     H27936   3.830   6.964   3.354  0.9773  0.8204  0.5681
  212MOL0     H27937   3.613   6.948   3.172  0.5826 -0.9807  1.1524
  212MOL0     H27938   3.463   7.242   2.973  1.8178 -0.3759  3.1918
  212MOL0     H27939   3.435   7.072   3.012  1.2881 -1.3252  1.6776
  212MOL0     H27940   3.551   7.002   2.813 -1.3089  0.0435 -0.1817
  212MOL0     H27941   3.660   7.136   2.833  1.2697 -0.8312  1.7802
  212MOL0     H27942   3.523   7.148   2.627  0.0814  1.4985 -0.7011
  212MOL0     H27943   3.376   7.139   2.722 -0.1794  1.3333  1.0529
  212MOL0     H27944   3.597   7.359   2.708  0.8157 -4.4564 -0.7812
  212MOL0     H27945   3.449   7.382   2.798  1.4964 -1.1449  0.6277
  212MOL0     H27946   3.180   7.276   2.567 -0.0925  1.5598 -0.9107
  212MOL0     H27947   2.969   7.418   2.579 -1.5651  3.5253 -3.4827
  212MOL0     H27948   2.681   7.643   2.776  0.4787  0.4842  0.0467
  212MOL0     H27949   2.428   7.741   2.750 -0.0183  1.7506 -0.3256
  212MOL0     H27950   2.267   7.853   2.349  1.6145 -1.4135  1.5689
  212MOL0     H27951   2.352   7.998   2.406 -0.3473  0.0077  0.0552
  212MOL0     H27952   2.163   8.032   2.571 -2.3246  1.4349 -0.9663
  212MOL0     H27953   2.088   7.892   2.519  0.6255  0.1542  0.9781
  212MOL0     H27954   2.097   7.948   2.278  2.9014 -0.1814  1.4495
  212MOL0     H27955   2.173   8.103   2.308  1.6770 -0.5820  1.0357
  212MOL0     H27956   1.886   8.022   2.391 -1.3229  1.6547 -0.0242
  212MOL0     H27957   1.968   8.160   2.457  2.3026  0.0797  0.3656
  212MOL0     H27958   1.981   8.249   2.214  0.7142 -2.2206 -1.8607
  212MOL0     H27959   1.817   8.225   2.276  0.1030  0.6510  0.8639
  212MOL0     H27960   1.805   8.017   2.181 -0.0315  3.1449  1.7454
  212MOL0     H27961   1.946   8.031   2.074 -0.1976  0.3016 -1.4580
  212MOL0     H27962   1.755   8.272   2.069 -1.3589  0.5789 -1.2127
  212MOL0     H27963   1.867   8.212   1.956  1.0987 -0.2724  0.9725
  212MOL0     H27964   1.628   8.046   2.041  0.8539  1.7421  0.8044
  212MOL0     H27965   1.746   8.014   1.924  2.3464  1.3397 -0.1445
  212MOL0     H27966   2.512   7.791   2.326  1.3616  0.9113  0.0676
  212MOL0     H27967   2.739   7.685   2.369  0.3483 -0.2162  0.4195
  212MOL0     H27968   3.202   7.772   2.625  1.9788 -0.2704  1.0300
  212MOL0     H27969   3.402   7.646   2.613 -1.3175  1.8203  1.7875
  212MOL0     H27970   4.909   6.565   3.492 -0.5224 -0.7579  0.1953
  212MOL0     H27971   5.115   6.588   3.607 -0.6912  0.9189  1.7797
  212MOL0     H27972   5.485   7.063   3.671 -0.5991  2.6144  4.2403
  212MOL0     H27973   5.732   7.046   3.757  3.2483 -2.5294  1.4197
  212MOL0     H27974   5.877   6.667   3.818  0.0288 -0.3149 -0.4044
  212MOL0     H27975   5.832   6.644   3.987 -0.6366 -2.0410 -2.7382
  212MOL0     H27976   6.031   6.799   4.047  1.8355 -0.5236  1.2602
  212MOL0     H27977   6.061   6.625   4.001  0.9714  0.3648 -0.0298
  212MOL0     H27978   6.224   6.773   3.890 -0.5971  0.1120  0.2871
  212MOL0     H27979   6.083   6.844   3.800  1.8282  0.1497  1.0560
  212MOL0     H27980   6.155   6.544   3.789  3.0282  1.3482  0.2630
  212MOL0     H27981   6.027   6.635   3.697 -1.3593 -0.0403  2.4733
  212MOL0     H27982   6.404   6.627   3.480 -0.2408  3.8982  0.5437
  212MOL0     H27983   5.626   6.649   3.892 -2.1845 -0.5023 -0.8353
  212MOL0     H27984   5.417   6.662   3.777 -0.4731 -0.1914 -2.7747
  213MOL0     O27985   5.719   7.770   7.292 -0.0286 -0.2439  0.1240
  213MOL0     C27986   5.670   7.863   7.356  0.7502 -0.3681 -0.3875
  213MOL0     O27987   5.575   7.946   7.314  0.3551 -0.0734  0.4263
  213MOL0     C27988   5.490   7.890   7.220  0.0602  0.1356 -0.0431
  213MOL0     C27989   5.361   7.844   7.241 -0.8896  0.7063  0.0798
  213MOL0     C27990   5.275   7.798   7.144 -0.2483  0.7243  0.8324
  213MOL0     C27991   5.320   7.795   7.013 -0.6470 -0.0440  0.5305
  213MOL0     O27992   5.245   7.748   6.905  1.1161 -0.3465  0.2204
  213MOL0     C27993   5.103   7.756   6.909 -0.6288 -0.0335 -0.1711
  213MOL0     C27994   5.058   7.897   6.923 -0.2736 -0.2041  0.3899
  213MOL0     C27995   4.907   7.893   6.935  0.1433 -0.5178  0.3896
  213MOL0     C27996   4.835   7.872   6.795 -0.2648  0.1633 -0.4365
  213MOL0     C27997   4.686   7.886   6.822  0.0487 -0.8138  0.0150
  213MOL0     C27998   4.602   7.863   6.704  0.1006 -0.0158  0.6160
  213MOL0     C27999   4.451   7.849   6.732  0.6183  0.1053 -0.2605
  213MOL0     C28000   4.383   7.987   6.700 -0.0953 -0.4934  0.9809
  213MOL0     N28001   4.234   7.982   6.687 -0.2038 -0.1318  0.0625
  213MOL0     C28002   4.146   7.919   6.772  0.2148 -1.0761  0.5848
  213MOL0     C28003   4.025   7.912   6.708  0.8586 -0.6373 -0.5592
  213MOL0     C28004   3.901   7.862   6.771  0.7779  0.5383  0.0875
  213MOL0     C28005   3.781   7.809   6.670 -0.8864  0.2862 -0.4689
  213MOL0     C28006   3.712   7.926   6.604  0.6357  0.5959  0.0193
  213MOL0     C28007   3.607   7.883   6.506  0.3582 -0.8512  0.4923
  213MOL0     O28008   3.478   7.881   6.579  0.4174 -0.6036  0.3980
  213MOL0     C28009   3.362   7.831   6.514 -0.6166 -0.5866 -0.1421
  213MOL0     C28010   3.359   7.791   6.381 -0.1566  0.3875  0.5515
  213MOL0     C28011   3.253   7.740   6.312 -0.3158  0.6387  0.6735
  213MOL0     C28012   3.138   7.715   6.392 -1.5176  0.0850 -0.2665
  213MOL0     C28013   3.018   7.660   6.327 -0.5033  0.3147  0.6226
  213MOL0     O28014   2.919   7.625   6.413  0.2591 -0.5003  0.7066
  213MOL0     C28015   2.793   7.637   6.366 -0.0901 -0.0273  0.0238
  213MOL0     C28016   2.698   7.560   6.441  0.3810 -0.6348  0.2205
  213MOL0     C28017   2.559   7.577   6.418  0.0101 -0.1837  0.0779
  213MOL0     C28018   2.515   7.676   6.335  0.4375 -0.6193 -0.6881
  213MOL0     O28019   2.380   7.698   6.333 -0.9837  0.3679 -0.0940
  213MOL0     C28020   2.310   7.691   6.211 -0.0679 -0.0615 -0.4923
  213MOL0     C28021   2.181   7.615   6.224  1.1158 -0.5806  0.4691
  213MOL0     C28022   2.073   7.708   6.284 -0.0456 -0.9564 -0.5240
  213MOL0     C28023   1.934   7.641   6.275 -0.3586 -0.2196  0.2327
  213MOL0     C28024   1.829   7.741   6.346  0.0558 -0.2074 -0.1278
  213MOL0     C28025   1.693   7.670   6.337  0.1088 -0.5848  0.5148
  213MOL0     C28026   1.589   7.768   6.393  0.0535  0.2293  0.5094
  213MOL0     C28027   1.445   7.708   6.394  0.3599  0.2125  0.6285
  213MOL0    Cl28028   1.376   7.731   6.229  0.1935  0.0712  0.0213
  213MOL0     C28029   2.602   7.751   6.259 -0.6332  0.8858 -0.1066
  213MOL0     C28030   2.740   7.724   6.271 -0.7413  0.3834 -0.5785
  213MOL0     O28031   3.015   7.667   6.202  0.5469  0.0596 -0.8163
  213MOL0     C28032   3.130   7.754   6.525  0.8681 -0.0678 -0.3164
  213MOL0     C28033   3.246   7.809   6.587  0.5811 -0.0655 -0.3132
  213MOL0     N28034   4.045   7.977   6.583 -0.6700  0.0626  0.5121
  213MOL0     N28035   4.172   8.012   6.577  0.5145  0.3577  1.0570
  213MOL0     C28036   5.442   7.854   6.982  0.4530 -0.1924 -0.6930
  213MOL0     C28037   5.523   7.907   7.087  0.2089  0.2638  0.6267
  213MOL0     C28038   5.749   7.899   7.481  0.6896 -0.0292  0.0407
  213MOL0     C28039   5.871   7.843   7.518 -0.0805  0.8318  0.1057
  213MOL0     C28040   5.950   7.871   7.622  0.0724 -1.0015  0.1959
  213MOL0     C28041   5.907   7.974   7.717  0.1441 -0.2153  0.2829
  213MOL0     O28042   5.962   8.016   7.840  0.2844 -0.5646  0.0211
  213MOL0     C28043   6.069   7.923   7.882  0.2771 -0.7207 -0.4988
  213MOL0     C28044   6.009   7.794   7.937 -0.2050  0.6123 -0.0580
  213MOL0     C28045   5.924   7.810   8.070 -0.5442  0.9746  0.7382
  213MOL0     C28046   5.777   7.860   8.050 -0.6621 -0.4245 -1.0686
  213MOL0     C28047   5.700   7.781   7.953  0.4589  1.1814  0.0294
  213MOL0     C28048   5.637   7.740   7.857  0.3925 -0.6149 -0.0388
  213MOL0     C28049   5.787   8.040   7.681 -0.5952  0.1170 -0.2193
  213MOL0     C28050   5.714   8.007   7.561 -0.0926  0.4104  0.2477
  213MOL0     H28051   5.335   7.843   7.346  1.4910 -0.2050  0.7351
  213MOL0     H28052   5.176   7.770   7.179 -1.4101  2.0406 -1.1721
  213MOL0     H28053   5.073   7.699   6.997 -0.5493  0.4500  0.1686
  213MOL0     H28054   5.054   7.708   6.823 -2.9835  2.7035 -0.5020
  213MOL0     H28055   5.093   7.958   6.840  0.5512 -0.0518  0.8387
  213MOL0     H28056   5.100   7.943   7.013  2.6693 -0.6823 -0.6360
  213MOL0     H28057   4.870   7.983   6.984  0.8957  0.0956 -0.1424
  213MOL0     H28058   4.877   7.824   7.015  2.7946 -0.0652  1.9128
  213MOL0     H28059   4.871   7.937   6.715 -1.2662 -2.4732 -3.2347
  213MOL0     H28060   4.859   7.775   6.752  2.4107 -0.0156  1.2498
  213MOL0     H28061   4.657   7.981   6.868  1.6585 -0.4634  0.3481
  213MOL0     H28062   4.650   7.822   6.904 -2.0942 -0.4819 -0.6039
  213MOL0     H28063   4.636   7.773   6.652 -1.4352 -0.8197  0.9193
  213MOL0     H28064   4.624   7.940   6.630  3.1900  0.0001  1.4361
  213MOL0     H28065   4.390   7.781   6.672  0.4842  1.6500 -1.9497
  213MOL0     H28066   4.433   7.814   6.834 -1.5737 -2.2651 -1.3422
  213MOL0     H28067   4.421   8.033   6.609 -1.8195 -0.7881  0.0715
  213MOL0     H28068   4.413   8.057   6.778  0.7662  2.1381 -1.5354
  213MOL0     H28069   4.157   7.887   6.875 -0.3697 -1.9790  0.3705
  213MOL0     H28070   3.865   7.937   6.841 -2.9603  2.0701 -3.0642
  213MOL0     H28071   3.938   7.768   6.814  2.7729  1.5674  0.7628
  213MOL0     H28072   3.712   7.743   6.723  2.2899 -1.3340  2.0289
  213MOL0     H28073   3.840   7.756   6.595  2.2461  2.1287  0.5208
  213MOL0     H28074   3.678   7.991   6.685 -1.5541  0.2737 -0.5875
  213MOL0     H28075   3.784   7.985   6.546 -1.1661 -1.2628 -4.4956
  213MOL0     H28076   3.638   7.786   6.465  1.0949  0.2565 -1.7030
  213MOL0     H28077   3.594   7.935   6.411  2.4241 -1.5093 -0.2022
  213MOL0     H28078   3.453   7.809   6.329 -0.4042  1.7141  0.5346
  213MOL0     H28079   3.248   7.721   6.205 -2.3280 -2.2002  1.1720
  213MOL0     H28080   2.727   7.490   6.519 -4.1561 -0.8034  2.0212
  213MOL0     H28081   2.487   7.513   6.467  1.1996 -4.0659 -2.7394
  213MOL0     H28082   2.371   7.632   6.141 -0.2502 -1.3052  0.3754
  213MOL0     H28083   2.297   7.794   6.176 -0.4512  0.8151  1.9974
  213MOL0     H28084   2.190   7.526   6.287 -1.0800  0.2594  2.0655
  213MOL0     H28085   2.144   7.576   6.128  0.4077  3.4949 -1.1224
  213MOL0     H28086   2.063   7.801   6.226  1.0818  0.4452  1.3977
  213MOL0     H28087   2.098   7.739   6.386  1.8350 -1.4613 -0.7893
  213MOL0     H28088   1.911   7.622   6.170 -2.9314 -0.1602  0.7175
  213MOL0     H28089   1.945   7.552   6.336  4.1646 -0.9911 -1.3402
  213MOL0     H28090   1.832   7.841   6.302  0.0761 -0.5803 -0.9832
  213MOL0     H28091   1.854   7.752   6.452 -0.7917 -0.2835  0.0882
  213MOL0     H28092   1.685   7.576   6.394 -0.5319  0.0288  1.4613
  213MOL0     H28093   1.677   7.652   6.230 -0.8888  1.4146  0.2846
  213MOL0     H28094   1.609   7.786   6.499 -0.6178 -1.5655  0.9861
  213MOL0     H28095   1.590   7.865   6.343  2.5249 -0.5919 -1.2339
  213MOL0     H28096   1.389   7.768   6.466  1.4491 -0.8647  2.4600
  213MOL0     H28097   1.458   7.607   6.433  0.9699 -0.1733 -0.5326
  213MOL0     H28098   2.566   7.821   6.184  0.6381  1.2753 -0.3810
  213MOL0     H28099   2.811   7.790   6.221 -2.0594  1.1977 -1.4783
  213MOL0     H28100   3.044   7.749   6.591 -1.3742  1.0742 -2.9760
  213MOL0     H28101   3.254   7.840   6.690 -0.5448 -2.7402  0.6769
  213MOL0     H28102   5.486   7.848   6.882  0.0090  3.1287 -1.1923
  213MOL0     H28103   5.620   7.943   7.053 -0.3568 -1.5454 -3.5270
  213MOL0     H28104   5.897   7.776   7.438  0.4028 -0.1780  1.0771
  213MOL0     H28105   6.046   7.824   7.639  1.1638  1.5581  1.5623
  213MOL0     H28106   6.129   7.979   7.955  0.0363  0.2558 -1.0374
  213MOL0     H28107   6.137   7.888   7.803 -0.2037 -2.0563 -0.3503
  213MOL0     H28108   5.945   7.753   7.858  0.5763 -2.0409  0.5839
  213MOL0     H28109   6.089   7.725   7.965 -1.5463 -0.7456  0.4911
  213MOL0     H28110   5.969   7.877   8.144  0.4936 -0.2301  1.2385
  213MOL0     H28111   5.917   7.712   8.118 -0.4697  1.4480  1.7511
  213MOL0     H28112   5.732   7.856   8.149  2.0830  0.1636  0.2828
  213MOL0     H28113   5.769   7.966   8.023 -2.1131 -0.7597 -2.0865
  213MOL0     H28114   5.578   7.686   7.786  1.5336 -1.5292 -0.3149
  213MOL0     H28115   5.754   8.119   7.748 -0.8130 -0.6103  0.5591
  213MOL0     H28116   5.630   8.072   7.537  1.3461  2.1933 -0.1507
  214MOL0     O28117   2.208   1.856   1.873  0.3813  0.1778  0.1298
  214MOL0     C28118   2.312   1.907   1.925 -0.3017  0.1523 -0.9188
  214MOL0     O28119   2.318   1.980   2.050  0.8264 -0.2355  0.8605
  214MOL0     C28120   2.195   2.029   2.101 -0.1977  0.1756  0.2357
  214MOL0     C28121   2.088   2.076   2.021  1.0250  0.0089 -0.8225
  214MOL0     C28122   1.975   2.125   2.084 -0.1006 -0.3230 -0.6590
  214MOL0     C28123   1.960   2.141   2.221 -0.4232  0.0893 -0.5507
  214MOL0     O28124   1.849   2.204   2.269  0.0546  0.4321  0.0704
  214MOL0     C28125   1.804   2.155   2.395 -0.1693 -0.6532 -0.1530
  214MOL0     C28126   1.670   2.212   2.435 -0.0966 -0.5167 -0.0861
  214MOL0     C28127   1.679   2.353   2.502 -0.6078 -0.1573  0.4442
  214MOL0     C28128   1.561   2.369   2.596 -0.0483 -0.4706  0.4840
  214MOL0     C28129   1.434   2.401   2.527  0.6161  0.3766 -0.2530
  214MOL0     C28130   1.317   2.432   2.628  0.2535  0.0226  0.1589
  214MOL0     C28131   1.326   2.570   2.687  0.0732 -0.6620 -0.6590
  214MOL0     C28132   1.280   2.672   2.582 -0.5420 -0.0176 -0.0773
  214MOL0     N28133   1.252   2.800   2.651 -0.2959  0.6392  0.2140
  214MOL0     C28134   1.334   2.893   2.714  0.2035  1.2939 -0.1415
  214MOL0     C28135   1.257   2.997   2.740  0.0280 -1.4921 -0.3512
  214MOL0     C28136   1.315   3.129   2.796 -0.8332 -0.5131  0.0795
  214MOL0     C28137   1.440   3.178   2.719 -0.0524 -0.5098  0.2688
  214MOL0     C28138   1.467   3.327   2.730  0.0671  0.2771 -0.0701
  214MOL0     C28139   1.615   3.358   2.735 -0.4733  0.4408 -0.0942
  214MOL0     O28140   1.632   3.493   2.773 -0.2996 -0.1178 -0.3594
  214MOL0     C28141   1.747   3.528   2.841  0.5270  0.2794  0.1750
  214MOL0     C28142   1.869   3.483   2.805 -0.0185  0.2107 -0.6471
  214MOL0     C28143   1.987   3.523   2.879 -0.4192  0.0565  0.0054
  214MOL0     C28144   1.967   3.624   2.970  0.6067 -0.4436 -0.5137
  214MOL0     C28145   2.093   3.679   3.044 -0.1230  0.0210 -0.0266
  214MOL0     O28146   2.212   3.630   2.998  0.7351 -0.8893  0.0243
  214MOL0     C28147   2.321   3.692   3.053  0.9615  0.2481  0.0869
  214MOL0     C28148   2.402   3.636   3.148  1.1395  0.5715  0.1564
  214MOL0     C28149   2.528   3.680   3.185  0.4264 -0.1630 -0.5156
  214MOL0     C28150   2.575   3.804   3.124  0.6412 -0.8669 -0.7236
  214MOL0     O28151   2.691   3.870   3.157 -0.4624 -0.1540  0.3690
  214MOL0     C28152   2.805   3.793   3.206  0.5343  0.3099  0.9978
  214MOL0     C28153   2.925   3.873   3.179  0.1748  0.4589 -0.1742
  214MOL0     C28154   3.049   3.799   3.226 -1.2143 -0.0972 -0.3583
  214MOL0     C28155   3.175   3.883   3.168  0.4073  0.0181 -0.1983
  214MOL0     C28156   3.309   3.829   3.211 -0.5989  0.4513 -0.1396
  214MOL0     C28157   3.350   3.694   3.142  0.3849 -1.1101  0.1175
  214MOL0     C28158   3.487   3.646   3.181  0.1510  0.1427  0.1551
  214MOL0     C28159   3.543   3.521   3.107 -0.3533 -0.9272  0.1246
  214MOL0    Cl28160   3.589   3.569   2.944  0.4556 -0.2433 -0.3192
  214MOL0     C28161   2.496   3.865   3.033  0.4403 -0.4224 -0.1856
  214MOL0     C28162   2.367   3.809   2.997  0.1557 -0.2277  0.4518
  214MOL0     O28163   2.076   3.749   3.142  0.3336  0.2422 -0.2812
  214MOL0     C28164   1.841   3.686   2.992 -0.4027 -0.2951  0.6412
  214MOL0     C28165   1.730   3.638   2.922 -0.2983  0.3565  0.7493
  214MOL0     N28166   1.129   2.964   2.709  0.1169  0.0664  0.3654
  214MOL0     N28167   1.122   2.852   2.647  0.1545  0.1784 -0.1820
  214MOL0     C28168   2.074   2.107   2.298  0.6411  0.0473  0.1839
  214MOL0     C28169   2.184   2.042   2.237 -0.4120  0.3845  0.2299
  214MOL0     C28170   2.435   1.860   1.854  0.0424 -0.0856 -0.0171
  214MOL0     C28171   2.556   1.845   1.928  0.3001  0.7727  0.2139
  214MOL0     C28172   2.681   1.809   1.862  0.4495 -0.5107  0.0067
  214MOL0     C28173   2.692   1.816   1.721  0.1778  0.1947 -0.5001
  214MOL0     O28174   2.807   1.812   1.640 -0.2953  0.8392 -0.3953
  214MOL0     C28175   2.925   1.806   1.724  0.7196 -0.3400  0.7727
  214MOL0     C28176   3.055   1.821   1.632  0.6403  0.4604  0.7520
  214MOL0     C28177   3.106   1.684   1.588  0.9601  1.2758 -0.1553
  214MOL0     C28178   3.220   1.709   1.492  0.2266  1.1766 -0.6238
  214MOL0     C28179   3.343   1.733   1.572 -0.2160 -0.1079  0.8283
  214MOL0     C28180   3.442   1.768   1.634 -0.1297  0.5470 -0.6151
  214MOL0     C28181   2.575   1.833   1.648  0.0450  0.8713  0.1043
  214MOL0     C28182   2.448   1.844   1.714 -0.3773  0.9131 -0.4988
  214MOL0     H28183   2.091   2.090   1.913  2.8814  5.2206 -0.3885
  214MOL0     H28184   1.884   2.138   2.027 -0.0821  0.8906 -0.4353
  214MOL0     H28185   1.880   2.168   2.473 -1.4152  0.0632  0.9843
  214MOL0     H28186   1.792   2.048   2.379 -0.6702 -0.9372  1.8598
  214MOL0     H28187   1.620   2.140   2.501 -2.9790 -0.0562 -1.5715
  214MOL0     H28188   1.607   2.227   2.346 -0.0990 -0.2584 -0.0415
  214MOL0     H28189   1.692   2.427   2.423  1.0156 -1.8298 -0.9350
  214MOL0     H28190   1.767   2.347   2.566  0.3375  2.4803 -0.4994
  214MOL0     H28191   1.569   2.292   2.674  0.5357  1.9714  2.9699
  214MOL0     H28192   1.591   2.458   2.653  0.1970 -0.8139  0.9018
  214MOL0     H28193   1.407   2.310   2.473 -1.8861  0.7740  0.2505
  214MOL0     H28194   1.450   2.483   2.456 -2.8302  0.6521 -0.8732
  214MOL0     H28195   1.309   2.355   2.706 -2.5931 -0.9713 -0.9698
  214MOL0     H28196   1.227   2.417   2.567  0.7716 -3.2477  0.0039
  214MOL0     H28197   1.251   2.578   2.766  0.3727  4.4426 -0.5384
  214MOL0     H28198   1.420   2.595   2.737  0.0985  2.2783 -1.9685
  214MOL0     H28199   1.183   2.636   2.544 -0.0378 -2.0691  0.4389
  214MOL0     H28200   1.349   2.685   2.498 -0.0857  2.6101  0.6070
  214MOL0     H28201   1.442   2.883   2.722 -0.0959 -1.7067  1.6532
  214MOL0     H28202   1.347   3.116   2.899  1.5494  0.9517 -0.3973
  214MOL0     H28203   1.242   3.211   2.794 -0.2141  0.0798 -2.6813
  214MOL0     H28204   1.442   3.146   2.614 -0.0713 -1.3922  0.5301
  214MOL0     H28205   1.528   3.128   2.759  0.9079  1.1953  0.4160
  214MOL0     H28206   1.431   3.388   2.646  0.8026 -0.6295 -1.0674
  214MOL0     H28207   1.415   3.359   2.821  1.3931  3.7543 -0.3725
  214MOL0     H28208   1.659   3.339   2.637 -3.1377 -1.7743 -0.9945
  214MOL0     H28209   1.667   3.295   2.807 -2.0367  0.9949  1.6179
  214MOL0     H28210   1.874   3.403   2.733  5.8160 -1.2340  0.8067
  214MOL0     H28211   2.085   3.482   2.857  0.6546  0.9119  2.7601
  214MOL0     H28212   2.366   3.546   3.196 -0.7624  1.6308  0.8366
  214MOL0     H28213   2.587   3.616   3.250 -0.3066 -0.8836 -0.5502
  214MOL0     H28214   2.815   3.696   3.156  1.3289  1.7918 -1.9619
  214MOL0     H28215   2.779   3.793   3.312 -1.5528 -0.5690  0.5417
  214MOL0     H28216   2.907   3.968   3.232 -1.8432 -0.1235  0.2769
  214MOL0     H28217   2.926   3.887   3.071  1.5358 -0.8216 -0.3493
  214MOL0     H28218   3.044   3.700   3.180  3.1924 -0.6756 -0.0412
  214MOL0     H28219   3.059   3.795   3.335  1.4884  0.7832 -0.4772
  214MOL0     H28220   3.171   3.885   3.059  0.5786  2.7384 -0.2155
  214MOL0     H28221   3.171   3.983   3.211  1.7256 -0.2297  0.5572
  214MOL0     H28222   3.318   3.817   3.319 -0.8727  1.7410  0.0393
  214MOL0     H28223   3.378   3.909   3.183 -2.8399  2.1690 -1.0485
  214MOL0     H28224   3.334   3.710   3.035  0.0924  1.1541  0.4543
  214MOL0     H28225   3.279   3.616   3.171  0.2885 -1.9076 -2.1281
  214MOL0     H28226   3.562   3.724   3.171 -0.0610  0.4443  0.8782
  214MOL0     H28227   3.485   3.620   3.288 -0.1089 -1.1809 -0.1554
  214MOL0     H28228   3.465   3.444   3.111  0.3612 -1.6294  2.4110
  214MOL0     H28229   3.640   3.493   3.150  0.8853  0.5573 -1.5868
  214MOL0     H28230   2.532   3.958   2.990 -1.7569  0.1428 -0.9490
  214MOL0     H28231   2.303   3.865   2.929 -2.5621 -1.7915  1.5749
  214MOL0     H28232   1.836   3.775   3.054 -1.1202  0.0212  0.1435
  214MOL0     H28233   1.628   3.673   2.929 -0.6883 -0.6705  0.3274
  214MOL0     H28234   2.080   2.140   2.401 -0.2522 -2.1199  1.0103
  214MOL0     H28235   2.269   2.018   2.300  0.6587  0.7655 -1.0267
  214MOL0     H28236   2.546   1.865   2.035 -2.7904 -2.7576  0.7668
  214MOL0     H28237   2.767   1.802   1.927 -0.0098 -0.7619  0.6013
  214MOL0     H28238   2.933   1.722   1.793 -3.5053 -0.3783  1.4863
  214MOL0     H28239   2.926   1.896   1.787  2.7254  0.2186  0.0334
  214MOL0     H28240   3.019   1.868   1.541  0.5328 -2.5761 -0.9123
  214MOL0     H28241   3.140   1.874   1.677 -0.0622  1.3191  1.0879
  214MOL0     H28242   3.019   1.633   1.546  1.5150 -0.4765  0.7015
  214MOL0     H28243   3.146   1.626   1.672  1.8071  0.0017 -1.3910
  214MOL0     H28244   3.229   1.617   1.433 -1.1141  1.1748 -0.8696
  214MOL0     H28245   3.209   1.800   1.432 -3.6129  2.8267  2.1516
  214MOL0     H28246   3.529   1.802   1.686 -1.5012 -1.0226  3.0284
  214MOL0     H28247   2.564   1.825   1.540 -3.1021  1.7154  0.2547
  214MOL0     H28248   2.358   1.851   1.653 -0.5444 -4.7089 -1.4094
  215MOL0     O28249   0.886   5.776   7.464  0.2452 -0.4141  0.7413
  215MOL0     C28250   0.976   5.796   7.389 -0.0405 -1.0437 -0.3980
  215MOL0     O28251   0.977   5.772   7.255 -0.5406  0.3235  0.1785
  215MOL0     C28252   0.856   5.717   7.201 -0.6883 -0.1544  0.0595
  215MOL0     C28253   0.756   5.798   7.146  0.3225 -0.8325 -0.0932
  215MOL0     C28254   0.643   5.745   7.090 -0.2616 -0.1614 -0.2906
  215MOL0     C28255   0.619   5.607   7.111 -0.0146 -0.2166 -0.1894
  215MOL0     O28256   0.489   5.565   7.075  0.8625 -0.5436 -0.6638
  215MOL0     C28257   0.453   5.428   7.113  0.4710 -0.9314  1.0568
  215MOL0     C28258   0.304   5.427   7.108  0.4013  0.2976  0.6522
  215MOL0     C28259   0.237   5.381   6.975  0.1536 -0.3143 -0.1500
  215MOL0     C28260   0.083   5.360   6.979 -0.1939 -0.1436  0.6178
  215MOL0     C28261   0.013   5.320   6.850 -0.0830  0.2456 -0.6051
  215MOL0     C28262  -0.138   5.359   6.833  0.8291  0.1682 -0.3594
  215MOL0     C28263  -0.237   5.268   6.903 -0.1025 -0.4124 -0.4202
  215MOL0     C28264  -0.263   5.141   6.829 -0.6043  1.1919  0.1413
  215MOL0     N28265  -0.389   5.088   6.892  0.2005  0.7504  0.0253
  215MOL0     C28266  -0.506   5.108   6.833  0.3071 -0.9307  0.8699
  215MOL0     C28267  -0.601   5.070   6.917  0.1318 -0.1678 -0.6440
  215MOL0     C28268  -0.749   5.083   6.895 -1.1960 -0.2405 -0.5744
  215MOL0     C28269  -0.820   4.943   6.896 -0.1781 -1.0782 -0.0942
  215MOL0     C28270  -0.972   4.953   6.871 -0.6054  0.6759  0.6948
  215MOL0     C28271  -1.026   4.818   6.836  0.4100 -0.6678  0.2418
  215MOL0     O28272  -1.143   4.836   6.754  0.1634 -0.0840  0.2422
  215MOL0     C28273  -1.273   4.828   6.786 -0.0149  0.3274  0.4420
  215MOL0     C28274  -1.328   4.845   6.914 -0.2289 -0.5858 -0.4186
  215MOL0     C28275  -1.462   4.824   6.927  0.2547 -0.9209 -1.3545
  215MOL0     C28276  -1.545   4.792   6.823  0.9127 -0.6621 -0.6205
  215MOL0     C28277  -1.697   4.786   6.839  0.0437 -0.3875 -0.1357
  215MOL0     O28278  -1.739   4.779   6.975 -1.2484 -0.6224 -0.3070
  215MOL0     C28279  -1.865   4.747   6.983 -0.0491 -0.4935 -0.5556
  215MOL0     C28280  -1.899   4.626   7.027  0.2340  0.8370 -0.3275
  215MOL0     C28281  -2.037   4.596   7.029 -0.7651 -0.4987 -0.0251
  215MOL0     C28282  -2.130   4.678   6.983 -0.3636 -0.5126 -0.6429
  215MOL0     O28283  -2.262   4.647   6.984  0.1667 -0.4842  0.2291
  215MOL0     C28284  -2.313   4.522   7.042  0.0458 -0.1343  0.1119
  215MOL0     C28285  -2.478   4.518   7.048  0.4606  0.2789 -0.1598
  215MOL0     C28286  -2.537   4.547   6.909  0.7037  0.1970  0.1237
  215MOL0     C28287  -2.685   4.552   6.922 -0.3417  0.1163 -0.1956
  215MOL0     C28288  -2.738   4.687   6.973 -0.1268 -0.1275  0.1452
  215MOL0     C28289  -2.893   4.690   6.986 -0.2363 -0.1569  0.1150
  215MOL0     C28290  -2.940   4.829   7.018 -0.3871 -0.2339  0.3438
  215MOL0     C28291  -3.049   4.832   7.123  0.4357 -0.1474  0.0745
  215MOL0    Cl28292  -3.101   5.010   7.139  0.2980  0.0981 -0.0450
  215MOL0     C28293  -2.097   4.808   6.948 -0.2764  0.7325 -0.5298
  215MOL0     C28294  -1.964   4.839   6.961 -0.8079  0.5129 -0.5490
  215MOL0     O28295  -1.767   4.781   6.742  0.1677  0.5092 -0.9128
  215MOL0     C28296  -1.495   4.763   6.700 -0.3709 -0.1506 -0.5648
  215MOL0     C28297  -1.353   4.778   6.684 -0.5252 -0.1439 -0.6134
  215MOL0     N28298  -0.532   5.019   7.027 -0.1303  0.8271  0.1873
  215MOL0     N28299  -0.405   5.028   7.015  0.0105 -0.2092 -0.6867
  215MOL0     C28300   0.716   5.526   7.169  0.5252  0.1040 -0.1733
  215MOL0     C28301   0.838   5.580   7.204  0.4975 -0.4924  0.5007
  215MOL0     C28302   1.117   5.823   7.447 -0.1044 -0.4452 -0.4100
  215MOL0     C28303   1.217   5.859   7.365 -0.8763 -1.1663 -0.3506
  215MOL0     C28304   1.352   5.884   7.413  0.1890 -0.2711  0.3439
  215MOL0     C28305   1.375   5.883   7.550 -0.4604  0.2843  1.4351
  215MOL0     O28306   1.502   5.889   7.594  0.1382  0.2407 -0.1066
  215MOL0     C28307   1.574   6.005   7.567  0.0450  0.4317 -0.3457
  215MOL0     C28308   1.718   6.006   7.624  0.2924  0.1081 -0.5196
  215MOL0     C28309   1.724   5.941   7.768  0.5732  0.1821  0.8172
  215MOL0     C28310   1.859   5.969   7.831  0.3348 -0.0158  0.9277
  215MOL0     C28311   1.861   5.939   7.974 -0.4188 -0.3703  0.2874
  215MOL0     C28312   1.886   5.939   8.094  0.0140 -0.5666 -0.5110
  215MOL0     C28313   1.268   5.855   7.642 -0.5604 -0.2024  0.3848
  215MOL0     C28314   1.145   5.823   7.588 -0.1717 -1.4773  0.3323
  215MOL0     H28315   0.780   5.903   7.132  1.1302 -0.9994  0.0189
  215MOL0     H28316   0.568   5.803   7.038 -1.2168 -2.8143 -2.0448
  215MOL0     H28317   0.488   5.433   7.216  1.6455  3.0921  0.6356
  215MOL0     H28318   0.497   5.346   7.056  1.0609  1.4511 -2.2500
  215MOL0     H28319   0.266   5.526   7.138  0.8050  0.1079  1.8346
  215MOL0     H28320   0.273   5.355   7.184  2.7183  0.1236  1.5093
  215MOL0     H28321   0.289   5.285   6.967  2.2458  0.5300  2.0396
  215MOL0     H28322   0.262   5.458   6.901  0.8039  0.5774  0.9718
  215MOL0     H28323   0.047   5.288   7.054 -0.3115  1.1108  1.7995
  215MOL0     H28324   0.035   5.455   7.004 -1.2892  0.9740 -4.5662
  215MOL0     H28325   0.034   5.213   6.836  0.1854  0.3882 -1.3343
  215MOL0     H28326   0.063   5.369   6.766  0.1022 -1.1185 -1.3215
  215MOL0     H28327  -0.168   5.358   6.728  1.1201  0.5048 -0.4478
  215MOL0     H28328  -0.144   5.463   6.867  1.4530  0.9136 -2.3508
  215MOL0     H28329  -0.203   5.259   7.007  1.4064  1.8770 -0.6220
  215MOL0     H28330  -0.330   5.325   6.896 -0.5394 -1.1129 -0.4443
  215MOL0     H28331  -0.178   5.074   6.847 -2.6716 -1.7571 -0.3637
  215MOL0     H28332  -0.272   5.148   6.721  3.7147  1.0324 -0.4047
  215MOL0     H28333  -0.528   5.158   6.740 -3.7943  1.0506  2.6472
  215MOL0     H28334  -0.763   5.138   6.801 -3.5913 -1.5069 -1.0070
  215MOL0     H28335  -0.792   5.154   6.966 -0.3666 -1.0189  0.7442
  215MOL0     H28336  -0.804   4.889   6.989 -2.2776 -1.0138  0.3517
  215MOL0     H28337  -0.765   4.889   6.818  3.3283  0.2767  1.2272
  215MOL0     H28338  -1.029   4.990   6.957  0.3557  2.0419  0.7619
  215MOL0     H28339  -0.980   5.017   6.783 -0.3284  0.2183  0.3268
  215MOL0     H28340  -1.053   4.774   6.932  0.5356 -0.6724  0.2755
  215MOL0     H28341  -0.952   4.756   6.784  0.7638 -1.0585  1.1862
  215MOL0     H28342  -1.262   4.855   7.000  0.2165  0.5756 -0.8697
  215MOL0     H28343  -1.503   4.830   7.027  0.6724 -0.1693 -1.2283
  215MOL0     H28344  -1.827   4.552   7.061 -3.7913 -2.3281  2.4386
  215MOL0     H28345  -2.061   4.499   7.073 -3.4449  0.4731  0.7978
  215MOL0     H28346  -2.271   4.504   7.141  1.5755 -2.4944 -0.8611
  215MOL0     H28347  -2.284   4.439   6.977 -1.0455  1.0588 -2.0506
  215MOL0     H28348  -2.513   4.592   7.120  0.9257  1.9448 -1.5951
  215MOL0     H28349  -2.517   4.426   7.093  3.3785  0.0334  2.1916
  215MOL0     H28350  -2.503   4.472   6.837 -0.7407  0.8529 -1.3350
  215MOL0     H28351  -2.502   4.645   6.873  2.3164 -0.4427 -0.1414
  215MOL0     H28352  -2.738   4.522   6.831 -1.0196 -2.0572  0.8462
  215MOL0     H28353  -2.721   4.478   6.993 -1.5737  0.3519 -0.5578
  215MOL0     H28354  -2.707   4.762   6.899  1.4963 -0.7988  0.1077
  215MOL0     H28355  -2.702   4.714   7.073 -1.0067  1.5916  0.0355
  215MOL0     H28356  -2.929   4.616   7.058  1.4781 -0.7051  0.4544
  215MOL0     H28357  -2.938   4.672   6.888 -2.2172  0.8980  0.7742
  215MOL0     H28358  -2.864   4.893   7.065 -0.4410 -0.8801  1.3451
  215MOL0     H28359  -2.973   4.870   6.923 -3.6949  0.0770  1.5037
  215MOL0     H28360  -3.021   4.797   7.222  1.1728 -1.6390 -0.6354
  215MOL0     H28361  -3.141   4.786   7.086 -0.8996  1.7694  0.8235
  215MOL0     H28362  -2.174   4.865   6.897  0.0545  0.7290 -1.0461
  215MOL0     H28363  -1.930   4.936   6.927  1.9544  0.4747  1.7033
  215MOL0     H28364  -1.551   4.733   6.613 -1.2754 -2.8317  0.8353
  215MOL0     H28365  -1.311   4.740   6.591 -1.2924 -1.5141 -0.4392
  215MOL0     H28366   0.699   5.423   7.198  1.5198  0.4052  1.6493
  215MOL0     H28367   0.925   5.529   7.245  0.8077 -1.1067 -0.8580
  215MOL0     H28368   1.211   5.866   7.256 -3.6347 -1.2077 -0.2494
  215MOL0     H28369   1.433   5.903   7.343 -0.2639  1.3631  0.2292
  215MOL0     H28370   1.511   6.087   7.603 -0.1108  0.4345 -0.6253
  215MOL0     H28371   1.575   6.020   7.459 -0.8936  0.7200 -0.3282
  215MOL0     H28372   1.785   5.951   7.557  0.5580  0.0918 -0.2410
  215MOL0     H28373   1.757   6.108   7.624 -1.5545  0.8622  0.2545
  215MOL0     H28374   1.700   5.835   7.758 -0.8312  0.4891  0.6180
  215MOL0     H28375   1.644   5.988   7.826  1.1740  0.9798  1.0143
  215MOL0     H28376   1.933   5.902   7.786  0.8442 -1.4633  3.6894
  215MOL0     H28377   1.899   6.068   7.807  2.1959 -1.5574 -3.4312
  215MOL0     H28378   1.899   5.953   8.199  1.4559 -2.8904 -0.3131
  215MOL0     H28379   1.289   5.855   7.749 -2.7087 -1.0561  0.8654
  215MOL0     H28380   1.073   5.785   7.661 -1.7668  2.9101  1.3157
  216MOL0     O28381   7.821   1.268   3.683  0.0093 -0.3128 -0.0454
  216MOL0     C28382   7.917   1.204   3.720  0.0385 -0.0082 -0.5039
  216MOL0     O28383   7.916   1.081   3.775  0.3304  0.1773 -0.2695
  216MOL0     C28384   7.798   1.006   3.756 -0.4513  0.3259  0.5182
  216MOL0     C28385   7.758   0.924   3.864  0.1529  0.2541 -0.3096
  216MOL0     C28386   7.649   0.843   3.858 -0.2153  1.2326 -0.4327
  216MOL0     C28387   7.585   0.822   3.735 -0.3929 -0.0550 -0.2130
  216MOL0     O28388   7.465   0.750   3.722  0.3747 -0.6537  0.4248
  216MOL0     C28389   7.461   0.651   3.633  0.8903 -0.2736  0.4365
  216MOL0     C28390   7.332   0.649   3.548  0.3892  0.4207  0.1591
  216MOL0     C28391   7.218   0.628   3.645 -0.2972 -0.8453  0.4710
  216MOL0     C28392   7.079   0.624   3.575  0.7132  0.2638 -0.8165
  216MOL0     C28393   6.964   0.597   3.676  0.4882  0.2864  0.1612
  216MOL0     C28394   6.921   0.739   3.742  0.1385 -0.1010  0.1798
  216MOL0     C28395   6.816   0.733   3.852  0.2177 -0.7622  0.1537
  216MOL0     C28396   6.768   0.876   3.894 -0.0835 -0.1858 -0.1538
  216MOL0     N28397   6.788   0.885   4.036  0.4639  0.3989  0.1706
  216MOL0     C28398   6.694   0.841   4.119  0.6765  0.0271  0.2785
  216MOL0     C28399   6.728   0.875   4.243 -0.1629 -0.0348  0.1664
  216MOL0     C28400   6.660   0.844   4.372  0.3781 -0.5618 -0.4864
  216MOL0     C28401   6.669   0.949   4.473 -0.1550 -0.6533 -0.0352
  216MOL0     C28402   6.623   0.912   4.610  0.3314  0.0474 -0.4714
  216MOL0     C28403   6.475   0.886   4.620  0.2169  0.1133  0.8438
  216MOL0     O28404   6.402   1.001   4.581 -0.0720 -0.0220 -0.0127
  216MOL0     C28405   6.267   0.998   4.563  0.8335  0.0777  0.1486
  216MOL0     C28406   6.212   1.107   4.485  0.1491 -0.1179  0.1507
  216MOL0     C28407   6.080   1.109   4.449  1.0353  0.0050  0.7242
  216MOL0     C28408   5.998   1.011   4.500  1.2973  0.1992 -0.4629
  216MOL0     C28409   5.846   1.005   4.476  0.0688 -0.4409 -1.0112
  216MOL0     O28410   5.772   0.908   4.546 -0.2443  0.2443 -0.0997
  216MOL0     C28411   5.639   0.909   4.511  0.6933  0.4215 -0.0952
  216MOL0     C28412   5.582   0.919   4.382 -0.5110 -0.7943  0.3170
  216MOL0     C28413   5.443   0.927   4.367  0.2092  0.1551 -0.6073
  216MOL0     C28414   5.352   0.906   4.463 -0.6169  0.3863  0.9281
  216MOL0     O28415   5.214   0.899   4.448 -0.3015  0.7624 -0.4983
  216MOL0     C28416   5.163   0.863   4.323  0.1836  0.9957  0.1764
  216MOL0     C28417   5.022   0.811   4.340  0.8384 -0.3386 -0.3478
  216MOL0     C28418   4.930   0.928   4.373  0.8628 -0.4338 -1.7078
  216MOL0     C28419   4.792   0.860   4.403 -0.4427  0.3530  0.2545
  216MOL0     C28420   4.688   0.969   4.408  0.1731 -1.0752  0.3137
  216MOL0     C28421   4.560   0.894   4.458  0.2103 -0.0993 -0.4883
  216MOL0     C28422   4.457   0.980   4.524  0.0014 -0.8076  0.9718
  216MOL0     C28423   4.335   0.893   4.544 -1.4631  0.3230 -0.3396
  216MOL0    Cl28424   4.253   0.883   4.385 -0.1477  0.0826 -0.4928
  216MOL0     C28425   5.405   0.862   4.583 -2.0007  0.3414 -0.7423
  216MOL0     C28426   5.547   0.870   4.609  0.4554 -0.1586 -0.2215
  216MOL0     O28427   5.797   1.096   4.417  0.1416 -0.2201  0.3669
  216MOL0     C28428   6.040   0.906   4.578 -0.7823  0.1320 -0.4944
  216MOL0     C28429   6.173   0.895   4.605 -0.1711  0.2286 -0.3087
  216MOL0     N28430   6.845   0.950   4.226 -0.2659 -0.5970 -0.1223
  216MOL0     N28431   6.880   0.960   4.103  0.3985  0.3339  0.2972
  216MOL0     C28432   7.618   0.904   3.621 -0.5390  0.4638 -0.6440
  216MOL0     C28433   7.732   0.989   3.633 -0.0650  0.4312  0.5524
  216MOL0     C28434   8.052   1.257   3.680 -1.0298  0.1044 -0.8336
  216MOL0     C28435   8.067   1.369   3.603  0.7496 -1.0885 -0.6731
  216MOL0     C28436   8.194   1.425   3.569  1.1037 -0.2579 -0.4905
  216MOL0     C28437   8.308   1.362   3.615 -0.4338  1.1631 -0.2929
  216MOL0     O28438   8.429   1.407   3.573 -0.2277 -0.8584  0.7737
  216MOL0     C28439   8.443   1.512   3.474 -0.7011 -0.2736 -0.5913
  216MOL0     C28440   8.592   1.521   3.451 -0.7433  0.1879  0.9579
  216MOL0     C28441   8.661   1.612   3.558 -0.0919  0.6088  0.0047
  216MOL0     C28442   8.808   1.616   3.540  0.4002  0.7825  0.1080
  216MOL0     C28443   8.860   1.703   3.648  0.5800 -0.3495 -0.3882
  216MOL0     C28444   8.924   1.769   3.735 -0.1647  1.0352  0.4999
  216MOL0     C28445   8.295   1.243   3.682 -0.6690 -0.2673  0.2785
  216MOL0     C28446   8.168   1.189   3.712 -0.1565  0.6082 -0.3679
  216MOL0     H28447   7.798   0.923   3.965 -3.6749 -0.4908  1.3786
  216MOL0     H28448   7.616   0.787   3.945  1.8923 -2.9700 -2.0677
  216MOL0     H28449   7.465   0.563   3.698 -0.3793 -1.9753 -1.6413
  216MOL0     H28450   7.546   0.643   3.564 -0.2780 -2.8603 -0.8251
  216MOL0     H28451   7.349   0.569   3.475  0.2392  1.1468 -0.6803
  216MOL0     H28452   7.306   0.744   3.500 -0.0454  2.1612  3.5485
  216MOL0     H28453   7.212   0.709   3.718 -2.1337 -1.1350  0.6983
  216MOL0     H28454   7.236   0.536   3.701  1.1157  0.5107  2.3898
  216MOL0     H28455   7.060   0.719   3.524  1.3755  0.8507 -0.0197
  216MOL0     H28456   7.081   0.545   3.500 -0.7224 -2.1850  1.5672
  216MOL0     H28457   7.000   0.526   3.751 -0.4301  0.3000  0.6248
  216MOL0     H28458   6.876   0.555   3.627  0.7656 -2.7729  2.0313
  216MOL0     H28459   6.877   0.802   3.664 -0.9355 -0.8809  0.1250
  216MOL0     H28460   7.011   0.785   3.784  0.1220 -0.1325  0.2498
  216MOL0     H28461   6.731   0.674   3.820  2.2408 -4.6052  1.2090
  216MOL0     H28462   6.848   0.675   3.939  0.7565 -0.0884  0.4189
  216MOL0     H28463   6.660   0.894   3.885  0.0713  0.5090 -0.6571
  216MOL0     H28464   6.814   0.957   3.836  1.6576 -0.9662  0.0839
  216MOL0     H28465   6.605   0.791   4.083  0.0482  0.6748  0.9013
  216MOL0     H28466   6.714   0.760   4.416 -1.5920 -0.1791  3.0059
  216MOL0     H28467   6.558   0.810   4.355 -0.0195 -0.0132  0.6931
  216MOL0     H28468   6.616   1.035   4.431  0.6499  0.6161  1.4579
  216MOL0     H28469   6.775   0.974   4.485 -0.4279  2.0395 -2.2285
  216MOL0     H28470   6.667   0.822   4.654 -1.4239 -2.2189 -3.0357
  216MOL0     H28471   6.650   0.989   4.684 -1.3395 -0.5162  0.7917
  216MOL0     H28472   6.440   0.864   4.722 -1.5100 -1.5923 -0.0597
  216MOL0     H28473   6.445   0.795   4.568  0.3507  0.2969  0.4459
  216MOL0     H28474   6.279   1.184   4.449  4.2499 -3.9911 -1.5110
  216MOL0     H28475   6.029   1.189   4.396  1.8338  1.8261  2.5662
  216MOL0     H28476   5.660   0.915   4.307  0.0918 -0.3062  0.8916
  216MOL0     H28477   5.404   0.938   4.266 -1.0721  1.2392 -0.0179
  216MOL0     H28478   5.226   0.790   4.272  2.0364  2.6599 -0.0230
  216MOL0     H28479   5.156   0.948   4.255  1.4848  1.3055  0.4066
  216MOL0     H28480   5.017   0.727   4.410 -3.8855 -1.6912 -1.9460
  216MOL0     H28481   4.983   0.768   4.246  0.2172 -1.1746  0.2769
  216MOL0     H28482   4.924   0.999   4.291 -3.6582 -0.3996 -1.5909
  216MOL0     H28483   4.963   0.985   4.461 -0.9884  0.4848 -1.5547
  216MOL0     H28484   4.763   0.796   4.320 -0.5288  1.1076 -0.3152
  216MOL0     H28485   4.796   0.796   4.491 -1.3111 -0.1455 -0.0647
  216MOL0     H28486   4.670   1.002   4.305 -2.3079 -0.9772  0.7020
  216MOL0     H28487   4.709   1.058   4.467  1.4101 -1.3405  0.2980
  216MOL0     H28488   4.589   0.817   4.530 -0.8567 -0.7746 -0.7638
  216MOL0     H28489   4.510   0.840   4.377 -2.3409  2.3272 -0.6784
  216MOL0     H28490   4.496   1.026   4.615  2.5418  1.0538 -0.8971
  216MOL0     H28491   4.426   1.057   4.452  2.3231 -1.7243 -1.1596
  216MOL0     H28492   4.267   0.945   4.613  0.0278 -0.6734  2.0127
  216MOL0     H28493   4.360   0.794   4.582  0.3446  0.2562 -1.5673
  216MOL0     H28494   5.331   0.837   4.659  1.1003 -4.0812  1.2143
  216MOL0     H28495   5.582   0.842   4.707  1.5028  1.4365 -0.1002
  216MOL0     H28496   5.976   0.830   4.624  0.8705 -0.8023  0.3476
  216MOL0     H28497   6.196   0.808   4.666 -0.5060  1.8287  2.2630
  216MOL0     H28498   7.554   0.891   3.535 -1.6993 -0.5701  0.3311
  216MOL0     H28499   7.751   1.062   3.555 -1.3671  0.9391  0.6886
  216MOL0     H28500   7.979   1.411   3.556  0.7573  0.0521  0.2743
  216MOL0     H28501   8.192   1.518   3.512 -2.8673  0.8946  1.1842
  216MOL0     H28502   8.402   1.609   3.504 -1.2892 -1.0839  1.4064
  216MOL0     H28503   8.386   1.484   3.385  1.8430 -3.4545 -1.3860
  216MOL0     H28504   8.631   1.419   3.448 -0.6213  0.2508 -1.7837
  216MOL0     H28505   8.625   1.558   3.354 -1.8062  2.1240  1.2879
  216MOL0     H28506   8.640   1.571   3.657 -1.5457 -2.0040 -1.2656
  216MOL0     H28507   8.626   1.716   3.568 -1.0858  0.3986 -0.9899
  216MOL0     H28508   8.852   1.516   3.549 -1.2217  0.1284  1.1963
  216MOL0     H28509   8.833   1.671   3.449  1.6946 -3.1493 -2.1635
  216MOL0     H28510   8.969   1.829   3.812 -0.2814  0.3729  1.1018
  216MOL0     H28511   8.389   1.201   3.718  0.7916  3.1127  0.7786
  216MOL0     H28512   8.166   1.094   3.765 -1.1630  0.3501 -0.8239
  217MOL0     O28513   8.420   0.526   5.313  0.0266 -0.2209 -0.1161
  217MOL0     C28514   8.465   0.511   5.427  0.0454 -0.4850  0.1761
  217MOL0     O28515   8.395   0.502   5.543  0.1927  0.1960 -0.1494
  217MOL0     C28516   8.262   0.507   5.537 -0.3906  0.1733 -0.1759
  217MOL0     C28517   8.210   0.629   5.493 -0.1877 -0.6123 -0.9508
  217MOL0     C28518   8.072   0.640   5.479 -0.1963  0.4856 -0.0907
  217MOL0     C28519   7.991   0.531   5.502  0.6587  0.1965  0.1818
  217MOL0     O28520   7.858   0.544   5.502 -0.3898 -0.0503  0.2131
  217MOL0     C28521   7.788   0.660   5.440 -0.2040 -0.4006  0.8162
  217MOL0     C28522   7.635   0.637   5.445 -0.6839  0.5951 -0.5168
  217MOL0     C28523   7.565   0.639   5.586  0.2335  0.2492 -1.3359
  217MOL0     C28524   7.412   0.633   5.593  0.3477 -0.2305  0.0065
  217MOL0     C28525   7.367   0.668   5.729  0.1479  1.1507 -0.2794
  217MOL0     C28526   7.208   0.682   5.733 -0.1905  0.3184 -0.6306
  217MOL0     C28527   7.147   0.778   5.635  0.2504  0.7074  0.0362
  217MOL0     C28528   7.016   0.828   5.696 -0.4613 -0.2050  0.0832
  217MOL0     N28529   6.951   0.896   5.587 -0.6341  0.0094  0.1701
  217MOL0     C28530   6.859   0.836   5.496 -0.1044 -0.1122 -0.2688
  217MOL0     C28531   6.799   0.945   5.441 -0.6868 -0.3437  0.5517
  217MOL0     C28532   6.692   0.949   5.338 -0.3701 -0.5778  0.1615
  217MOL0     C28533   6.546   0.962   5.382  0.9129  0.4760 -0.2454
  217MOL0     C28534   6.495   1.085   5.445  0.0396 -0.8503  0.2867
  217MOL0     C28535   6.350   1.105   5.433 -0.2720  0.1085 -0.0773
  217MOL0     O28536   6.270   0.986   5.399  0.0929  0.8360 -0.1888
  217MOL0     C28537   6.134   0.989   5.419 -0.1163  1.4546  0.5646
  217MOL0     C28538   6.060   0.886   5.349  0.6395  0.1308 -1.2177
  217MOL0     C28539   5.924   0.877   5.366 -0.0821 -0.6304  0.7591
  217MOL0     C28540   5.856   0.964   5.443  0.3171 -1.3142  0.7389
  217MOL0     C28541   5.707   0.942   5.452  0.4752 -0.4442 -0.9145
  217MOL0     O28542   5.667   0.821   5.409 -0.2257 -0.0390  0.5317
  217MOL0     C28543   5.534   0.778   5.400 -0.8409  0.6636  0.3316
  217MOL0     C28544   5.417   0.856   5.386  0.2669  0.2332 -0.3244
  217MOL0     C28545   5.295   0.794   5.383  0.0217  0.1907 -0.2281
  217MOL0     C28546   5.281   0.656   5.398 -0.0213 -0.2387  0.2629
  217MOL0     O28547   5.152   0.611   5.394  0.5114 -0.7542  0.0687
  217MOL0     C28548   5.128   0.479   5.432  0.2794  1.1048 -0.2942
  217MOL0     C28549   4.987   0.437   5.401 -0.6752  0.5693 -0.5773
  217MOL0     C28550   4.885   0.553   5.426 -0.1517  0.7973 -0.1192
  217MOL0     C28551   4.742   0.494   5.452  0.3831  0.0563 -0.5045
  217MOL0     C28552   4.637   0.590   5.498  0.3357 -0.3195  0.8106
  217MOL0     C28553   4.645   0.720   5.433 -0.3217  0.1273 -0.4478
  217MOL0     C28554   4.539   0.806   5.498 -0.3277 -1.1685 -0.0922
  217MOL0     C28555   4.562   0.937   5.417 -0.1178  0.4768 -0.0237
  217MOL0    Cl28556   4.388   1.022   5.405 -0.6347  0.1850  0.4845
  217MOL0     C28557   5.398   0.579   5.400  0.2332 -0.7701  0.1439
  217MOL0     C28558   5.523   0.641   5.417  0.9479  0.6477 -0.2716
  217MOL0     O28559   5.637   1.046   5.485  0.2758  0.0744  0.9510
  217MOL0     C28560   5.922   1.076   5.499 -0.4756  0.3059 -0.7851
  217MOL0     C28561   6.065   1.085   5.494  0.1804 -0.2333  0.3627
  217MOL0     N28562   6.847   1.057   5.509 -0.5528 -0.4148 -0.1967
  217MOL0     N28563   6.937   1.029   5.592  0.6495 -0.0888  0.5357
  217MOL0     C28564   8.045   0.409   5.552  0.5353 -0.6993 -1.2116
  217MOL0     C28565   8.180   0.400   5.563 -0.1154  0.2024  0.1360
  217MOL0     C28566   8.615   0.520   5.441  0.4650 -0.2489 -0.9323
  217MOL0     C28567   8.672   0.454   5.554  0.5268  0.7967  0.4403
  217MOL0     C28568   8.806   0.454   5.578  0.0544  0.2947  0.6622
  217MOL0     C28569   8.896   0.520   5.491  0.0469 -1.3075  0.2121
  217MOL0     O28570   9.025   0.529   5.525 -0.1615  0.4923 -0.6937
  217MOL0     C28571   9.117   0.519   5.421  0.1851  0.4970  0.1230
  217MOL0     C28572   9.250   0.520   5.473  0.9651 -0.0086 -0.2662
  217MOL0     C28573   9.283   0.406   5.571  0.7484 -0.9098 -0.7330
  217MOL0     C28574   9.366   0.292   5.509  0.0824 -0.0451  0.3167
  217MOL0     C28575   9.276   0.229   5.418  0.2042  0.1320  0.1790
  217MOL0     C28576   9.230   0.148   5.340 -0.6260 -0.6331  0.0400
  217MOL0     C28577   8.839   0.580   5.374  0.5573 -0.1595 -0.2716
  217MOL0     C28578   8.705   0.579   5.356 -0.2413 -0.7141  0.8787
  217MOL0     H28579   8.278   0.708   5.465 -0.8996  0.6590  0.7199
  217MOL0     H28580   8.035   0.734   5.438  0.4730  0.7077 -0.1990
  217MOL0     H28581   7.820   0.670   5.336  1.6371 -2.4185  1.1191
  217MOL0     H28582   7.805   0.754   5.494 -0.7761  0.7239 -0.8541
  217MOL0     H28583   7.619   0.541   5.394  1.2072  1.5848 -3.2421
  217MOL0     H28584   7.579   0.706   5.381 -0.6052  1.2082  0.0607
  217MOL0     H28585   7.603   0.730   5.634  1.1374 -1.1776  0.8568
  217MOL0     H28586   7.605   0.557   5.647 -0.7232  0.3098 -0.6053
  217MOL0     H28587   7.369   0.698   5.517  0.7642  0.8742  0.6882
  217MOL0     H28588   7.377   0.534   5.562 -1.4135  1.3553 -3.6741
  217MOL0     H28589   7.412   0.760   5.768 -1.9543  0.8403  3.2201
  217MOL0     H28590   7.383   0.597   5.809  1.4751  1.4999 -0.2137
  217MOL0     H28591   7.192   0.701   5.840  2.3520 -1.7058  0.2103
  217MOL0     H28592   7.158   0.585   5.724 -1.3781  0.8962 -0.5153
  217MOL0     H28593   7.210   0.864   5.613  0.1463  1.1367  1.2997
  217MOL0     H28594   7.123   0.718   5.547 -0.8575  2.4132 -0.8997
  217MOL0     H28595   7.031   0.894   5.783  0.1844 -0.4444  0.1608
  217MOL0     H28596   6.952   0.746   5.730 -1.2676  0.4114  0.0890
  217MOL0     H28597   6.839   0.731   5.482  0.6259 -0.3748  0.5891
  217MOL0     H28598   6.687   0.851   5.290  0.5222 -0.6419  0.1842
  217MOL0     H28599   6.701   1.029   5.264 -1.9809  1.3327  1.8822
  217MOL0     H28600   6.508   0.874   5.434  1.5765  0.7443  0.7036
  217MOL0     H28601   6.493   0.958   5.286  2.0993 -0.8710 -0.8820
  217MOL0     H28602   6.531   1.082   5.549  1.6431  1.7166 -0.0720
  217MOL0     H28603   6.549   1.168   5.397  0.0434 -1.4671 -0.7888
  217MOL0     H28604   6.316   1.180   5.361 -0.7361  0.8438  0.8833
  217MOL0     H28605   6.317   1.133   5.533  2.1306  1.2495  0.4676
  217MOL0     H28606   6.122   0.812   5.298  1.2350  0.5730 -1.1490
  217MOL0     H28607   5.876   0.796   5.311  0.8122 -0.8001  0.2075
  217MOL0     H28608   5.416   0.964   5.377  2.8787  0.2813 -0.6723
  217MOL0     H28609   5.212   0.862   5.368 -1.5854 -1.0872  2.1894
  217MOL0     H28610   5.129   0.476   5.541 -2.1319 -1.7095 -0.2195
  217MOL0     H28611   5.203   0.407   5.400  2.2788  2.3992  1.2280
  217MOL0     H28612   4.965   0.353   5.469 -0.2735  0.2993 -0.7781
  217MOL0     H28613   4.977   0.414   5.294 -1.3455  3.8251 -1.3110
  217MOL0     H28614   4.894   0.618   5.338 -1.4958 -1.6203 -2.1835
  217MOL0     H28615   4.917   0.600   5.519 -0.4743  1.2327 -0.2244
  217MOL0     H28616   4.700   0.453   5.361 -1.2725  2.4704 -0.9179
  217MOL0     H28617   4.737   0.407   5.517 -0.8346 -0.2465 -0.9765
  217MOL0     H28618   4.654   0.613   5.604 -1.7557  4.1299  0.3944
  217MOL0     H28619   4.540   0.541   5.494 -0.3058  1.0031 -1.0454
  217MOL0     H28620   4.634   0.711   5.325 -0.7641 -1.5817 -0.2870
  217MOL0     H28621   4.741   0.769   5.451 -1.5590  3.2258 -1.6278
  217MOL0     H28622   4.437   0.771   5.478 -0.2970  0.4015 -3.6510
  217MOL0     H28623   4.559   0.828   5.603 -0.2913 -0.4913 -0.2373
  217MOL0     H28624   4.599   0.924   5.315 -0.8374 -1.3852 -0.0869
  217MOL0     H28625   4.632   1.009   5.460  2.0448 -2.0312  0.8892
  217MOL0     H28626   5.400   0.470   5.401 -0.2518 -0.8333  2.6054
  217MOL0     H28627   5.610   0.577   5.423  1.0752  0.9330  1.4816
  217MOL0     H28628   5.870   1.158   5.549 -3.8540  0.3825 -3.9489
  217MOL0     H28629   6.110   1.158   5.560  0.2963  0.9008 -0.9253
  217MOL0     H28630   7.978   0.330   5.585 -0.1289 -0.3325 -1.6783
  217MOL0     H28631   8.229   0.309   5.596  2.6253  0.7490 -2.1095
  217MOL0     H28632   8.610   0.391   5.617 -0.0417  1.9378  1.0420
  217MOL0     H28633   8.844   0.401   5.665  1.6297 -0.0194 -0.1728
  217MOL0     H28634   9.123   0.609   5.359  0.2309  0.9971  0.8423
  217MOL0     H28635   9.092   0.427   5.368  0.0181  0.1625  0.7750
  217MOL0     H28636   9.323   0.501   5.393  0.4950  1.3921 -1.0614
  217MOL0     H28637   9.261   0.618   5.520 -2.7501  0.8877 -0.9418
  217MOL0     H28638   9.191   0.363   5.614 -0.2793  1.8306  0.0088
  217MOL0     H28639   9.349   0.440   5.651 -0.2272 -3.1999  1.1935
  217MOL0     H28640   9.444   0.335   5.445  0.7348 -1.6994 -0.0578
  217MOL0     H28641   9.400   0.224   5.587  0.2203 -1.5151 -0.9810
  217MOL0     H28642   9.192   0.079   5.267 -4.0175  1.0777 -0.0275
  217MOL0     H28643   8.906   0.646   5.320  0.9070 -0.5112 -0.2684
  217MOL0     H28644   8.671   0.637   5.271 -0.5203 -0.2614  1.2970
  218MOL0     O28645   2.237   3.896   2.431  0.3272 -0.0676 -0.5518
  218MOL0     C28646   2.190   3.957   2.531  0.5434 -0.0172 -0.4281
  218MOL0     O28647   2.058   3.971   2.566  0.4660  1.1900  0.1522
  218MOL0     C28648   1.949   3.909   2.507 -0.4541 -0.7385  0.3885
  218MOL0     C28649   1.833   3.934   2.581 -0.1653  0.2655  0.4679
  218MOL0     C28650   1.710   3.874   2.550 -0.2035 -0.1315 -0.1567
  218MOL0     C28651   1.707   3.796   2.437 -0.5184 -0.0220  0.2906
  218MOL0     O28652   1.597   3.739   2.386  0.5866  0.8122 -0.1372
  218MOL0     C28653   1.537   3.649   2.480 -0.9884  0.1576  0.1609
  218MOL0     C28654   1.392   3.696   2.519 -0.8206 -0.5086  0.2745
  218MOL0     C28655   1.282   3.673   2.413  0.2180 -0.2790  0.3746
  218MOL0     C28656   1.246   3.522   2.416  0.5246 -0.2209  0.3343
  218MOL0     C28657   1.136   3.486   2.314  0.3024 -0.2363  0.6074
  218MOL0     C28658   1.097   3.344   2.349  0.6993  0.3827  0.5948
  218MOL0     C28659   0.969   3.298   2.277  0.0190  0.3233  0.6566
  218MOL0     C28660   0.930   3.152   2.312  0.8927  0.0669  0.4541
  218MOL0     N28661   0.784   3.139   2.284  0.6398  0.3800 -1.0762
  218MOL0     C28662   0.676   3.129   2.376 -0.2177 -0.8165  0.4630
  218MOL0     C28663   0.567   3.131   2.297  0.5439 -0.6308  0.7963
  218MOL0     C28664   0.425   3.120   2.343 -0.1425  0.2400  0.3594
  218MOL0     C28665   0.394   3.121   2.498  0.1749 -0.1806 -0.3860
  218MOL0     C28666   0.258   3.075   2.533  0.3381 -0.0218  0.9903
  218MOL0     C28667   0.222   3.057   2.684 -0.5514  0.8180 -0.1381
  218MOL0     O28668   0.093   2.999   2.701 -0.2262  0.7158  0.1459
  218MOL0     C28669  -0.009   3.078   2.718 -0.2101 -1.5036  0.4461
  218MOL0     C28670  -0.021   3.214   2.677  0.4551 -0.4974 -0.8747
  218MOL0     C28671  -0.123   3.296   2.721 -0.3908 -0.3529  0.3931
  218MOL0     C28672  -0.233   3.253   2.801 -0.0654 -0.6274  0.0167
  218MOL0     C28673  -0.341   3.347   2.837  0.5422  0.3345 -0.0133
  218MOL0     O28674  -0.346   3.467   2.763  0.2277  0.2187  0.6397
  218MOL0     C28675  -0.424   3.570   2.808 -0.4355 -0.7479 -0.2050
  218MOL0     C28676  -0.379   3.702   2.787  0.0454 -0.2419 -0.7329
  218MOL0     C28677  -0.464   3.812   2.818 -0.8365 -0.1097  0.5197
  218MOL0     C28678  -0.586   3.796   2.873 -0.2092 -0.2892  0.8657
  218MOL0     O28679  -0.654   3.910   2.907 -0.1390  0.1088 -0.1674
  218MOL0     C28680  -0.657   3.928   3.049 -0.0909 -0.7047 -0.2596
  218MOL0     C28681  -0.724   4.066   3.076  0.3621 -0.0616 -0.1867
  218MOL0     C28682  -0.620   4.175   3.041 -0.6121  0.0364  0.4732
  218MOL0     C28683  -0.674   4.312   3.044  0.5778 -0.4343 -0.1583
  218MOL0     C28684  -0.756   4.356   2.923  0.5458 -0.4598  0.2153
  218MOL0     C28685  -0.835   4.479   2.942 -0.1119  0.5567  0.2474
  218MOL0     C28686  -0.905   4.526   2.804 -0.6913  1.3191 -0.1381
  218MOL0     C28687  -0.976   4.644   2.829  0.5894  0.3148 -0.5495
  218MOL0    Cl28688  -1.126   4.618   2.913 -0.1622 -0.7545 -0.2484
  218MOL0     C28689  -0.627   3.669   2.893  0.2911 -0.1575 -0.1017
  218MOL0     C28690  -0.550   3.555   2.864 -0.5085  0.5961 -0.3550
  218MOL0     O28691  -0.412   3.310   2.924  0.0300 -0.1332  0.1140
  218MOL0     C28692  -0.230   3.117   2.829  0.4803 -0.6128 -1.0503
  218MOL0     C28693  -0.126   3.029   2.792 -1.0609 -0.6319 -0.6462
  218MOL0     N28694   0.607   3.132   2.162 -0.1094  0.3080 -0.1587
  218MOL0     N28695   0.737   3.142   2.161  0.7138  0.0781  0.2664
  218MOL0     C28696   1.824   3.775   2.357  0.0652 -0.4875 -0.3246
  218MOL0     C28697   1.950   3.834   2.393 -0.1341 -0.0068  0.3001
  218MOL0     C28698   2.288   4.037   2.610  0.0473 -0.6742 -0.1989
  218MOL0     C28699   2.428   4.031   2.570 -0.0498 -0.7004  0.0416
  218MOL0     C28700   2.528   4.092   2.644 -0.0594 -0.2403 -0.0575
  218MOL0     C28701   2.491   4.175   2.749  0.4678 -0.9047 -0.0446
  218MOL0     O28702   2.574   4.234   2.840  0.3157 -0.1668 -0.0362
  218MOL0     C28703   2.719   4.219   2.832 -0.3672 -0.4811  0.1664
  218MOL0     C28704   2.774   4.272   2.952 -0.5066 -0.1128  0.5997
  218MOL0     C28705   2.920   4.211   2.977 -0.7014 -0.4964  0.4378
  218MOL0     C28706   2.991   4.293   3.093  0.2646  0.6491 -0.1260
  218MOL0     C28707   3.128   4.244   3.103  0.4775 -0.9820 -0.3088
  218MOL0     C28708   3.245   4.217   3.111 -1.0335  0.5847  0.3514
  218MOL0     C28709   2.361   4.195   2.780  0.9852  0.6693  1.0397
  218MOL0     C28710   2.255   4.128   2.707  0.5062  0.1621 -0.5034
  218MOL0     H28711   1.839   4.006   2.663 -0.9193 -0.9635  1.6415
  218MOL0     H28712   1.633   3.902   2.620  1.3708 -0.2915  1.7401
  218MOL0     H28713   1.599   3.642   2.570 -1.4438  0.1579  0.4753
  218MOL0     H28714   1.535   3.547   2.439 -2.0727 -1.5619  4.0444
  218MOL0     H28715   1.408   3.803   2.534 -1.6890  0.7235 -5.2647
  218MOL0     H28716   1.355   3.643   2.607 -2.5597 -2.5207 -1.5554
  218MOL0     H28717   1.308   3.714   2.315 -1.2034  1.8763  0.8161
  218MOL0     H28718   1.191   3.721   2.450  0.0500 -1.2997  1.3543
  218MOL0     H28719   1.330   3.455   2.396  0.1164 -1.0203  1.2252
  218MOL0     H28720   1.211   3.508   2.518  2.2478  0.8017  1.1167
  218MOL0     H28721   1.182   3.476   2.215  1.3845  0.2240  1.0536
  218MOL0     H28722   1.048   3.550   2.316  0.9377  0.6317  2.1832
  218MOL0     H28723   1.074   3.337   2.456  1.6217 -1.1405  0.7286
  218MOL0     H28724   1.172   3.267   2.327 -2.2550 -2.2323 -1.1311
  218MOL0     H28725   0.892   3.363   2.318 -0.7043 -0.8815  1.2782
  218MOL0     H28726   0.976   3.308   2.168  1.6089  2.2573  0.8744
  218MOL0     H28727   0.942   3.118   2.416 -1.1195 -0.0773  0.6678
  218MOL0     H28728   0.982   3.093   2.235  0.4116  1.7533 -1.2209
  218MOL0     H28729   0.673   3.112   2.483  0.1496  2.5406  1.1197
  218MOL0     H28730   0.371   3.046   2.284  0.2546 -0.9220  1.4032
  218MOL0     H28731   0.394   3.223   2.320  4.1523  2.7511  3.9485
  218MOL0     H28732   0.413   3.220   2.542 -1.0234  1.4448 -3.2670
  218MOL0     H28733   0.460   3.044   2.539  0.9045  0.1925 -0.8401
  218MOL0     H28734   0.186   3.153   2.507  1.0889  0.5902  0.7128
  218MOL0     H28735   0.229   2.979   2.488  0.4831 -0.1895  1.2472
  218MOL0     H28736   0.232   3.146   2.748  1.1184  0.2331  0.4458
  218MOL0     H28737   0.289   2.983   2.727 -1.1316  0.5258  0.2811
  218MOL0     H28738   0.057   3.254   2.612  1.2770 -1.5818 -0.5922
  218MOL0     H28739  -0.103   3.400   2.698  0.0025 -0.6482 -0.6341
  218MOL0     H28740  -0.281   3.717   2.742 -1.5480  2.1794 -3.8791
  218MOL0     H28741  -0.429   3.914   2.804  0.7228 -0.5314  1.2138
  218MOL0     H28742  -0.556   3.933   3.090  0.4727  0.4154 -1.6698
  218MOL0     H28743  -0.707   3.851   3.107 -2.8227  1.7459  0.9010
  218MOL0     H28744  -0.754   4.081   3.180  0.8212  0.3967 -0.1191
  218MOL0     H28745  -0.802   4.091   3.002 -0.3902  0.3791  0.7399
  218MOL0     H28746  -0.588   4.169   2.936 -0.4344  1.5257  0.4314
  218MOL0     H28747  -0.529   4.164   3.101 -1.0616 -4.3101  0.7387
  218MOL0     H28748  -0.737   4.328   3.132 -0.7648  2.4540 -1.5429
  218MOL0     H28749  -0.584   4.371   3.064 -0.3732  1.1731 -0.5426
  218MOL0     H28750  -0.829   4.279   2.894  1.3269 -1.1928  0.1423
  218MOL0     H28751  -0.688   4.376   2.840 -0.5388  0.9922 -0.3620
  218MOL0     H28752  -0.774   4.558   2.985  1.8481 -1.6445  1.7379
  218MOL0     H28753  -0.921   4.449   3.003 -0.5585  0.5408 -0.3718
  218MOL0     H28754  -0.827   4.534   2.728 -0.7574  2.9229 -0.0727
  218MOL0     H28755  -0.983   4.455   2.774 -0.7917  0.8390  1.1856
  218MOL0     H28756  -1.020   4.684   2.737 -5.0767 -2.1976  0.6526
  218MOL0     H28757  -0.913   4.711   2.888  1.3005  0.1915 -1.1649
  218MOL0     H28758  -0.729   3.661   2.927  0.5804 -1.8557  0.4609
  218MOL0     H28759  -0.590   3.455   2.882  0.3597 -0.2226 -2.5962
  218MOL0     H28760  -0.319   3.077   2.877  0.5521  1.1755  0.6737
  218MOL0     H28761  -0.116   2.931   2.836  2.4303  1.1432  3.1956
  218MOL0     H28762   1.816   3.710   2.271  0.9149 -2.1541  0.7898
  218MOL0     H28763   2.038   3.801   2.339 -0.6480  0.9640 -1.1777
  218MOL0     H28764   2.461   3.976   2.483 -0.9702 -1.3385  0.0868
  218MOL0     H28765   2.633   4.080   2.618 -0.3262 -1.8878 -0.4504
  218MOL0     H28766   2.775   4.272   2.755  1.6288  0.7369  2.3281
  218MOL0     H28767   2.727   4.110   2.820 -2.9682 -0.6696 -0.2869
  218MOL0     H28768   2.789   4.380   2.953 -1.3306  0.0017  1.5550
  218MOL0     H28769   2.713   4.243   3.038  0.3060 -0.8254  0.9584
  218MOL0     H28770   2.980   4.228   2.888  0.5482 -2.6122  0.8168
  218MOL0     H28771   2.910   4.107   3.009 -2.2223 -1.0321 -1.5681
  218MOL0     H28772   2.994   4.400   3.070 -1.6008  1.0610  1.2979
  218MOL0     H28773   2.939   4.265   3.185  0.1212  0.4781 -0.2574
  218MOL0     H28774   3.347   4.200   3.138 -1.2081  0.1247  0.7502
  218MOL0     H28775   2.331   4.266   2.856  0.8995  0.3139  1.3452
  218MOL0     H28776   2.151   4.147   2.734  0.8733  0.7430  0.5666
  219MOL0     O28777   5.185   7.687   5.900  0.5644  0.8215  0.6545
  219MOL0     C28778   5.243   7.659   6.003 -0.0548  0.2817  0.4334
  219MOL0     O28779   5.189   7.637   6.117 -0.2804 -0.6680 -0.8475
  219MOL0     C28780   5.053   7.643   6.132 -0.2467 -0.1934  0.9078
  219MOL0     C28781   4.991   7.526   6.185 -0.0362  1.5034  0.4609
  219MOL0     C28782   4.853   7.517   6.201 -0.9571 -0.7346 -0.6222
  219MOL0     C28783   4.779   7.646   6.187 -0.7951  1.8007 -0.0894
  219MOL0     O28784   4.643   7.664   6.214 -0.6445  0.3899  0.5966
  219MOL0     C28785   4.621   7.637   6.353  0.4758 -0.0467  0.8602
  219MOL0     C28786   4.501   7.549   6.367  0.9150 -0.0905  0.8826
  219MOL0     C28787   4.372   7.612   6.305  0.3711  0.0248 -0.6757
  219MOL0     C28788   4.252   7.549   6.355 -0.2144 -0.4894  0.2282
  219MOL0     C28789   4.126   7.603   6.289  0.4158 -0.3900  0.2275
  219MOL0     C28790   3.997   7.522   6.325 -1.0274 -0.1983  0.3994
  219MOL0     C28791   3.895   7.544   6.214 -0.3589 -0.7183 -0.5901
  219MOL0     C28792   3.769   7.488   6.265  0.0277  0.3927  0.0026
  219MOL0     N28793   3.659   7.514   6.169 -0.2066 -0.4269 -0.2032
  219MOL0     C28794   3.665   7.492   6.032 -0.2524 -0.5157 -0.3982
  219MOL0     C28795   3.546   7.540   5.985 -0.8205  0.6456  0.1235
  219MOL0     C28796   3.502   7.536   5.841  0.7332 -0.5445  0.1745
  219MOL0     C28797   3.358   7.596   5.815  0.3049  0.7867 -0.2911
  219MOL0     C28798   3.238   7.521   5.882  0.9654 -0.1003 -0.2295
  219MOL0     C28799   3.114   7.564   5.802  0.4688  0.1103  0.4189
  219MOL0     O28800   3.008   7.489   5.851 -0.5346  0.3003 -0.4929
  219MOL0     C28801   2.884   7.539   5.841  0.9498  0.4204 -0.5868
  219MOL0     C28802   2.783   7.452   5.807  0.4375  0.5136  0.4456
  219MOL0     C28803   2.647   7.491   5.820  0.2440 -0.1111 -0.4470
  219MOL0     C28804   2.616   7.622   5.863  0.2705 -0.0723  0.0669
  219MOL0     C28805   2.469   7.655   5.865 -0.6601  0.2075  0.3486
  219MOL0     O28806   2.376   7.559   5.829 -0.0286  0.3762  0.3922
  219MOL0     C28807   2.245   7.594   5.838  0.3721  0.5431  0.1658
  219MOL0     C28808   2.181   7.709   5.793  0.1185  0.1086  0.2902
  219MOL0     C28809   2.042   7.717   5.801  0.2014  0.1206  0.1523
  219MOL0     C28810   1.966   7.608   5.849 -0.4770 -0.0233 -0.4169
  219MOL0     O28811   1.829   7.603   5.858  0.2953 -1.0365 -0.7303
  219MOL0     C28812   1.756   7.727   5.861  0.4584  0.0971  0.0304
  219MOL0     C28813   1.614   7.694   5.825 -0.2266 -0.6929 -0.9354
  219MOL0     C28814   1.520   7.806   5.863  0.4020  0.6426 -0.5081
  219MOL0     C28815   1.378   7.753   5.837  0.4257 -0.4078  0.1133
  219MOL0     C28816   1.283   7.859   5.802  0.5130 -0.5283 -0.0561
  219MOL0     C28817   1.137   7.825   5.836  0.4404  0.1346  0.3518
  219MOL0     C28818   1.042   7.946   5.825  0.2262 -0.4707  0.3284
  219MOL0     C28819   0.896   7.915   5.812  0.2068  0.4363 -1.0055
  219MOL0    Cl28820   0.876   7.875   5.646  0.4138  0.1589 -0.0304
  219MOL0     C28821   2.029   7.501   5.907 -0.3116  0.6679 -0.3539
  219MOL0     C28822   2.175   7.495   5.906 -0.1582 -0.7701  0.3216
  219MOL0     O28823   2.446   7.760   5.925  0.1016  0.2191 -0.6256
  219MOL0     C28824   2.719   7.712   5.893  1.4952  0.1365 -0.9161
  219MOL0     C28825   2.852   7.669   5.878  0.6462 -0.2142 -0.8707
  219MOL0     N28826   3.470   7.574   6.092 -0.5101 -0.7191 -0.2313
  219MOL0     N28827   3.538   7.565   6.200  0.5909  0.1457  0.3743
  219MOL0     C28828   4.840   7.763   6.147  0.8974  0.2343 -0.1164
  219MOL0     C28829   4.972   7.753   6.113  0.3835 -0.2178  0.2739
  219MOL0     C28830   5.387   7.632   5.991  0.0964  0.7069 -0.7822
  219MOL0     C28831   5.482   7.609   6.095 -0.3043  0.8032  0.0708
  219MOL0     C28832   5.621   7.592   6.070  0.0995  0.4871 -0.0645
  219MOL0     C28833   5.665   7.572   5.942 -0.5130  0.2323 -0.3615
  219MOL0     O28834   5.795   7.563   5.899  0.6832  0.0509 -0.7693
  219MOL0     C28835   5.878   7.663   5.966 -0.1465  0.3012  0.4115
  219MOL0     C28836   6.010   7.673   5.888  0.1326 -0.4238  0.3112
  219MOL0     C28837   5.998   7.716   5.741 -0.1734  0.7767 -0.8880
  219MOL0     C28838   5.968   7.592   5.652  0.5060  0.2981  0.2257
  219MOL0     C28839   6.054   7.477   5.664  0.4732  0.4066 -0.7593
  219MOL0     C28840   6.129   7.386   5.677  0.5455 -0.1971  0.0244
  219MOL0     C28841   5.573   7.599   5.834 -0.5305 -0.7294  0.2291
  219MOL0     C28842   5.441   7.630   5.868 -0.0434 -0.1194 -0.7112
  219MOL0     H28843   5.046   7.437   6.214  0.7661  1.9024  0.2029
  219MOL0     H28844   4.796   7.430   6.234 -1.5924 -0.8264 -1.9296
  219MOL0     H28845   4.604   7.732   6.403 -1.8862 -0.7006  1.3974
  219MOL0     H28846   4.711   7.591   6.395  1.8553  1.3490 -0.4187
  219MOL0     H28847   4.492   7.528   6.474 -0.4416  4.0947  1.8141
  219MOL0     H28848   4.522   7.459   6.310 -1.0535  0.3092 -0.5926
  219MOL0     H28849   4.365   7.601   6.196  1.2550  0.0336 -0.7460
  219MOL0     H28850   4.370   7.719   6.327 -0.2088 -0.0989 -0.1054
  219MOL0     H28851   4.250   7.442   6.335  0.8803 -0.2095 -1.6088
  219MOL0     H28852   4.239   7.559   6.464 -3.1267 -0.8280 -0.0028
  219MOL0     H28853   4.136   7.597   6.180 -1.5698 -1.7557  0.0711
  219MOL0     H28854   4.107   7.709   6.308 -1.3960 -0.8545  1.2055
  219MOL0     H28855   3.952   7.547   6.421 -1.2145 -0.0830  0.2826
  219MOL0     H28856   4.017   7.415   6.335  0.0964 -0.4401 -2.9730
  219MOL0     H28857   3.872   7.650   6.197 -0.0636 -0.8685 -2.1155
  219MOL0     H28858   3.930   7.502   6.120  1.3556  0.4905 -0.5317
  219MOL0     H28859   3.734   7.523   6.363 -1.0863  3.1170 -1.2622
  219MOL0     H28860   3.783   7.380   6.274  0.9976  0.5977  1.4192
  219MOL0     H28861   3.753   7.456   5.980 -0.2427  2.4444 -2.6853
  219MOL0     H28862   3.519   7.433   5.809 -2.1469 -0.5482 -1.7369
  219MOL0     H28863   3.559   7.605   5.779 -1.8302 -1.8648 -4.1109
  219MOL0     H28864   3.331   7.599   5.709 -0.5777 -0.5883 -0.1220
  219MOL0     H28865   3.360   7.700   5.849 -1.2716  1.0416 -0.9163
  219MOL0     H28866   3.253   7.412   5.885 -0.0748 -0.2357  0.7129
  219MOL0     H28867   3.216   7.554   5.983 -0.1631  2.1790 -1.1550
  219MOL0     H28868   3.126   7.530   5.699  1.1593 -1.7863  1.0894
  219MOL0     H28869   3.096   7.672   5.800  0.3608  0.1087  1.0638
  219MOL0     H28870   2.806   7.350   5.775 -2.0592  0.2576 -0.8240
  219MOL0     H28871   2.575   7.416   5.787  0.0351  0.2521 -0.8249
  219MOL0     H28872   2.239   7.792   5.755 -1.3004  1.3217  0.7057
  219MOL0     H28873   2.000   7.806   5.756 -1.1372  0.9329  2.8024
  219MOL0     H28874   1.791   7.798   5.786  0.9066 -1.5310 -1.3628
  219MOL0     H28875   1.755   7.765   5.964 -0.0590  2.8073 -0.9058
  219MOL0     H28876   1.581   7.607   5.883 -1.1161  0.5258  0.4468
  219MOL0     H28877   1.611   7.659   5.721  1.7482 -0.4043 -1.1220
  219MOL0     H28878   1.537   7.887   5.792 -0.5750  0.5138 -0.8951
  219MOL0     H28879   1.535   7.842   5.965 -1.4794  2.6875 -0.8878
  219MOL0     H28880   1.371   7.674   5.762 -1.2537  0.9322 -1.2213
  219MOL0     H28881   1.346   7.709   5.932  0.9184  2.8703  1.9532
  219MOL0     H28882   1.287   7.878   5.695  0.2118  1.4551  0.2472
  219MOL0     H28883   1.302   7.956   5.851 -2.2930 -0.9372  2.1065
  219MOL0     H28884   1.143   7.790   5.940  0.9756  0.3593  0.4001
  219MOL0     H28885   1.106   7.742   5.772  1.0204 -0.6700  1.0881
  219MOL0     H28886   1.041   8.015   5.909 -1.6824  0.0451 -0.0748
  219MOL0     H28887   1.079   8.003   5.739  1.6723 -2.5866 -0.5592
  219MOL0     H28888   0.844   8.009   5.832  1.3171  1.0201 -0.7643
  219MOL0     H28889   0.866   7.840   5.886  4.7928 -0.2697  0.4347
  219MOL0     H28890   1.978   7.414   5.946  0.5833 -0.8510 -2.3538
  219MOL0     H28891   2.230   7.407   5.937  0.9705  0.5280  2.2971
  219MOL0     H28892   2.704   7.811   5.936  1.9373 -1.5493  3.6717
  219MOL0     H28893   2.931   7.730   5.922 -0.9479  2.1590 -1.1008
  219MOL0     H28894   4.777   7.852   6.140  2.2848  1.1237 -3.9023
  219MOL0     H28895   5.011   7.839   6.059 -0.0479 -1.1897 -1.6690
  219MOL0     H28896   5.442   7.609   6.196  1.2774  4.4412  0.8864
  219MOL0     H28897   5.682   7.581   6.160 -0.4407 -2.3234  0.0394
  219MOL0     H28898   5.919   7.630   6.062  0.2125 -1.7810 -0.4102
  219MOL0     H28899   5.818   7.754   5.968 -1.0420 -0.2690  2.0908
  219MOL0     H28900   6.067   7.750   5.941  0.3341 -0.1946 -0.2317
  219MOL0     H28901   6.061   7.578   5.908  1.2764 -0.2013 -1.4422
  219MOL0     H28902   6.080   7.775   5.700 -0.6105  0.9782 -1.4870
  219MOL0     H28903   5.908   7.777   5.729 -0.2084  0.7904 -0.5703
  219MOL0     H28904   5.861   7.572   5.657 -0.1061  2.2111 -2.7647
  219MOL0     H28905   5.992   7.610   5.547 -1.5423 -0.5817 -0.4252
  219MOL0     H28906   6.180   7.292   5.687  1.6622  0.3081 -0.8052
  219MOL0     H28907   5.604   7.608   5.731 -3.2377 -0.6362 -0.6548
  219MOL0     H28908   5.385   7.651   5.778  1.1133 -2.3455 -2.0341
  220MOL0     O28909  10.769   9.581   2.514  0.0706 -0.3194  0.6877
  220MOL0     C28910  10.787   9.632   2.409  0.9557  0.3982  0.3068
  220MOL0     O28911  10.695   9.711   2.343  0.2719  1.0686  0.0037
  220MOL0     C28912  10.585   9.765   2.407  0.5527 -0.4640  0.4860
  220MOL0     C28913  10.576   9.817   2.544  0.5532 -0.4357 -0.1584
  220MOL0     C28914  10.449   9.864   2.595  0.1569  0.2113  0.6047
  220MOL0     C28915  10.331   9.851   2.516 -0.2552  0.5882  0.3228
  220MOL0     O28916  10.199   9.876   2.556 -0.0761 -0.3775  0.3815
  220MOL0     C28917  10.158   9.850   2.693 -0.7399  0.9063  0.6192
  220MOL0     C28918  10.032   9.940   2.708  0.0396  0.1309  0.1847
  220MOL0     C28919   9.898   9.885   2.639  0.4397  0.3949  0.2275
  220MOL0     C28920   9.768   9.953   2.686  0.2717 -0.2996  0.3923
  220MOL0     C28921   9.654   9.856   2.674  0.5621 -0.9766  0.8059
  220MOL0     C28922   9.521   9.910   2.726 -0.0915  1.1989  0.3509
  220MOL0     C28923   9.415   9.804   2.711  0.2621 -0.6267  0.4976
  220MOL0     C28924   9.281   9.852   2.785 -0.2821  0.1915  0.4024
  220MOL0     N28925   9.167   9.769   2.747 -0.6558  0.3454  0.0577
  220MOL0     C28926   9.093   9.785   2.630  0.3056 -0.0743 -0.0548
  220MOL0     C28927   8.989   9.700   2.651 -0.6171 -0.3881  1.4220
  220MOL0     C28928   8.864   9.699   2.560  0.0531 -0.6521  0.2779
  220MOL0     C28929   8.767   9.594   2.596  0.4852 -0.4437  1.1723
  220MOL0     C28930   8.689   9.561   2.470  0.5904 -0.1628  0.5084
  220MOL0     C28931   8.565   9.485   2.506  0.0761  0.2041 -0.4928
  220MOL0     O28932   8.540   9.411   2.388 -0.5822  0.4830  0.1015
  220MOL0     C28933   8.418   9.364   2.342  0.4322 -0.6763  0.6341
  220MOL0     C28934   8.298   9.410   2.393 -0.0870 -0.9457  0.3417
  220MOL0     C28935   8.176   9.361   2.349  0.0876  0.8425 -0.1543
  220MOL0     C28936   8.169   9.284   2.229  0.1164  0.1745  0.6278
  220MOL0     C28937   8.032   9.262   2.164 -0.1077  0.0753 -0.3503
  220MOL0     O28938   7.938   9.346   2.214  0.4452  0.2007  0.2435
  220MOL0     C28939   7.805   9.311   2.186  0.6144 -0.7206 -0.4379
  220MOL0     C28940   7.739   9.397   2.097  0.8211 -0.2627 -0.2623
  220MOL0     C28941   7.604   9.371   2.074 -0.4619  0.9246  0.2989
  220MOL0     C28942   7.533   9.272   2.144 -0.4609  0.2920 -0.0531
  220MOL0     O28943   7.406   9.240   2.109 -0.0915 -0.2507  1.0146
  220MOL0     C28944   7.314   9.238   2.212  0.1673 -0.0749 -0.0188
  220MOL0     C28945   7.182   9.245   2.135  0.3661 -0.6402 -0.4719
  220MOL0     C28946   7.056   9.234   2.223 -0.1786  0.2112 -0.0891
  220MOL0     C28947   6.925   9.254   2.146  0.2345 -0.1108  0.0709
  220MOL0     C28948   6.812   9.264   2.239  0.8137 -0.0063 -0.2573
  220MOL0     C28949   6.701   9.345   2.169  0.5643 -0.0968  0.0345
  220MOL0     C28950   6.576   9.337   2.260 -0.0105 -0.0766 -1.1062
  220MOL0     C28951   6.468   9.430   2.220  0.1685 -0.3491 -0.0555
  220MOL0    Cl28952   6.333   9.399   2.327  0.3255  0.1696  0.2545
  220MOL0     C28953   7.607   9.183   2.222  0.8164 -0.6510  0.1072
  220MOL0     C28954   7.746   9.197   2.242  0.4647 -0.5416  0.5254
  220MOL0     O28955   8.017   9.162   2.089  0.2396  0.3853 -0.2073
  220MOL0     C28956   8.293   9.231   2.176 -0.2414  0.2692  0.1117
  220MOL0     C28957   8.413   9.274   2.233  0.6347 -0.6743  0.2916
  220MOL0     N28958   9.004   9.646   2.773 -0.0396  0.3490  0.0580
  220MOL0     N28959   9.108   9.686   2.831  0.9793  0.1064 -0.4207
  220MOL0     C28960  10.342   9.808   2.382 -0.5313  0.2697  0.0283
  220MOL0     C28961  10.467   9.760   2.333 -0.6769 -1.1261 -0.4730
  220MOL0     C28962  10.903   9.587   2.344  0.1460  0.2933 -0.4912
  220MOL0     C28963  10.945   9.642   2.221 -0.1733  0.2581 -0.4370
  220MOL0     C28964  11.075   9.599   2.179 -0.0945  0.0976  0.1716
  220MOL0     C28965  11.155   9.498   2.234 -0.6673  0.5037 -0.2053
  220MOL0     O28966  11.269   9.435   2.187 -0.1337  1.0059 -0.5195
  220MOL0     C28967  11.313   9.487   2.054  0.7754 -1.4479 -0.0913
  220MOL0     C28968  11.450   9.430   2.037  0.3907  0.4890 -0.2256
  220MOL0     C28969  11.443   9.277   2.008 -0.3646 -0.0532 -0.3212
  220MOL0     C28970  11.581   9.232   1.954  0.8885 -1.0570 -0.3519
  220MOL0     C28971  11.694   9.261   2.041  0.5569  1.0712 -0.0227
  220MOL0     C28972  11.792   9.289   2.104 -0.6264 -0.3295 -0.6112
  220MOL0     C28973  11.102   9.447   2.355 -0.4364  0.2170  0.1664
  220MOL0     C28974  10.984   9.484   2.403 -0.4157 -0.5721  0.4233
  220MOL0     H28975  10.672   9.831   2.594  0.3175 -0.1377  0.2135
  220MOL0     H28976  10.427   9.893   2.697 -3.5416 -1.6553  0.5178
  220MOL0     H28977  10.237   9.890   2.758  1.0040  0.9221 -1.3952
  220MOL0     H28978  10.132   9.746   2.715 -1.5008  1.2356  1.2998
  220MOL0     H28979  10.056  10.040   2.671  3.5052 -0.7587 -0.3020
  220MOL0     H28980  10.020   9.962   2.814  1.9205  1.9983  0.0703
  220MOL0     H28981   9.878   9.779   2.658  0.6110  0.4222  0.5583
  220MOL0     H28982   9.904   9.899   2.531 -1.4235  2.1488  0.2956
  220MOL0     H28983   9.788   9.977   2.791  0.5587 -0.7969  0.4497
  220MOL0     H28984   9.760  10.051   2.637  3.3843 -1.0878 -2.0378
  220MOL0     H28985   9.667   9.761   2.725 -0.7721 -2.7056 -1.8546
  220MOL0     H28986   9.651   9.833   2.567  2.0588 -1.1598  0.7809
  220MOL0     H28987   9.497  10.002   2.671  1.1582  1.7865  0.7686
  220MOL0     H28988   9.527   9.928   2.834  0.3026 -2.5493  1.0670
  220MOL0     H28989   9.402   9.784   2.605  2.4307  2.5095 -0.5139
  220MOL0     H28990   9.458   9.718   2.763  5.0344  1.8337  1.1480
  220MOL0     H28991   9.260   9.958   2.766 -5.2079 -0.6368 -0.0239
  220MOL0     H28992   9.289   9.843   2.894  0.8801 -0.0371  0.3057
  220MOL0     H28993   9.106   9.852   2.545 -0.9085 -0.6636 -0.7325
  220MOL0     H28994   8.905   9.683   2.460  3.2325  3.5201  0.6691
  220MOL0     H28995   8.813   9.795   2.548  0.6307 -0.5247 -1.3574
  220MOL0     H28996   8.706   9.619   2.684  0.7103 -0.6169  1.3801
  220MOL0     H28997   8.822   9.506   2.634 -1.1641 -1.7033  0.7573
  220MOL0     H28998   8.670   9.654   2.416  1.6128  0.1635  0.6960
  220MOL0     H28999   8.762   9.506   2.410  1.8719  1.0990  0.8520
  220MOL0     H29000   8.486   9.555   2.532  0.4511  0.0155  1.3120
  220MOL0     H29001   8.589   9.414   2.586 -1.7196  2.8696  2.6447
  220MOL0     H29002   8.304   9.491   2.465 -3.6636 -1.1377  1.0339
  220MOL0     H29003   8.089   9.403   2.397  1.2522  3.2941 -0.0605
  220MOL0     H29004   7.786   9.482   2.048 -1.5626  0.3014 -1.7256
  220MOL0     H29005   7.546   9.440   2.012 -2.2906 -0.6617  0.1552
  220MOL0     H29006   7.327   9.321   2.282  1.6669  1.1150 -1.5952
  220MOL0     H29007   7.322   9.148   2.272  0.9594  1.4111  2.2381
  220MOL0     H29008   7.170   9.167   2.059 -2.1048 -0.9273  0.1340
  220MOL0     H29009   7.187   9.343   2.087  0.4342  0.5141  1.7529
  220MOL0     H29010   7.073   9.306   2.303  2.2476 -0.4978  0.1102
  220MOL0     H29011   7.049   9.130   2.256  2.2392  0.7744  2.5232
  220MOL0     H29012   6.935   9.347   2.090 -2.3653 -0.1222 -0.5333
  220MOL0     H29013   6.913   9.174   2.072  0.5362  1.1564 -1.4022
  220MOL0     H29014   6.852   9.321   2.323  3.2575  1.3066 -2.1980
  220MOL0     H29015   6.771   9.171   2.280 -1.0611  1.0761  0.4632
  220MOL0     H29016   6.671   9.310   2.070 -1.5680 -1.5153  1.0982
  220MOL0     H29017   6.743   9.445   2.156  1.1498 -0.2083  0.9968
  220MOL0     H29018   6.529   9.239   2.267 -0.8560  0.4248  3.7261
  220MOL0     H29019   6.617   9.373   2.355  2.1113  2.3647 -2.8059
  220MOL0     H29020   6.450   9.423   2.113 -1.5079 -0.9758  0.2324
  220MOL0     H29021   6.500   9.534   2.230  0.7128 -0.3547 -1.5201
  220MOL0     H29022   7.551   9.107   2.276  0.7078 -1.5337 -1.2063
  220MOL0     H29023   7.806   9.131   2.304  2.8236  1.7844  0.9142
  220MOL0     H29024   8.291   9.169   2.087 -2.7366 -0.1822  0.4211
  220MOL0     H29025   8.510   9.239   2.199  1.3788 -0.1169  1.7516
  220MOL0     H29026  10.266   9.806   2.305 -1.4444 -0.7966  0.9261
  220MOL0     H29027  10.468   9.711   2.236  0.1975  0.5169 -1.3296
  220MOL0     H29028  10.893   9.720   2.166 -1.5604 -0.2985  0.0485
  220MOL0     H29029  11.114   9.661   2.099  1.3941 -0.4649  0.4264
  220MOL0     H29030  11.322   9.596   2.049  1.3592 -1.4909 -0.0445
  220MOL0     H29031  11.245   9.451   1.976  1.5029  0.8617 -1.9207
  220MOL0     H29032  11.488   9.483   1.949 -1.6463  0.1451 -1.3710
  220MOL0     H29033  11.510   9.432   2.128 -1.1368 -1.5469  0.9080
  220MOL0     H29034  11.365   9.266   1.932  0.3356  0.2781 -1.1138
  220MOL0     H29035  11.410   9.219   2.094 -1.9276  1.3329  0.0584
  220MOL0     H29036  11.578   9.122   1.949 -0.0194 -1.2076  2.2497
  220MOL0     H29037  11.595   9.289   1.862  2.5183  0.7256  0.9261
  220MOL0     H29038  11.886   9.322   2.144  0.1585  0.4896 -2.9620
  220MOL0     H29039  11.161   9.363   2.389 -0.5167 -0.9220 -2.2769
  220MOL0     H29040  10.959   9.447   2.502  0.7524  1.1288  1.4088
  221MOL0     O29041   1.355   8.916   3.707  0.4097 -0.4847 -0.3362
  221MOL0     C29042   1.470   8.949   3.735  1.5831 -0.7329  0.3172
  221MOL0     O29043   1.524   9.002   3.851  0.1444  0.6098 -0.2045
  221MOL0     C29044   1.440   9.013   3.953  1.1412  0.2520 -0.2968
  221MOL0     C29045   1.320   9.087   3.938  0.8377 -1.1096  0.1383
  221MOL0     C29046   1.227   9.097   4.042  0.1969  0.3290 -0.2777
  221MOL0     C29047   1.251   9.023   4.158 -0.2413 -0.3377 -0.8744
  221MOL0     O29048   1.158   9.048   4.256 -0.4723  0.5163  0.1985
  221MOL0     C29049   1.206   9.054   4.389 -0.0833 -0.0448  0.6413
  221MOL0     C29050   1.098   9.093   4.488 -0.6766  0.1304 -0.4689
  221MOL0     C29051   1.036   9.229   4.455 -0.3701  0.6731  0.1973
  221MOL0     C29052   0.891   9.199   4.397  0.2673  0.2630 -0.3520
  221MOL0     C29053   0.793   9.320   4.407 -0.4021  1.4013 -0.3627
  221MOL0     C29054   0.657   9.297   4.350 -1.1495  1.5331 -0.1841
  221MOL0     C29055   0.571   9.213   4.446  0.4699 -0.1401  0.0241
  221MOL0     C29056   0.427   9.223   4.407 -0.3586 -0.2048 -0.4410
  221MOL0     N29057   0.358   9.346   4.452  0.3709 -0.9205  0.6650
  221MOL0     C29058   0.219   9.364   4.424  0.0272  0.3364 -0.0408
  221MOL0     C29059   0.175   9.450   4.521 -0.4497 -0.1013 -0.4144
  221MOL0     C29060   0.036   9.492   4.545  0.0368 -0.2677 -0.9985
  221MOL0     C29061   0.000   9.631   4.490  0.0551 -0.2252  0.3432
  221MOL0     C29062  -0.112   9.628   4.397 -0.4754 -0.2690  0.5606
  221MOL0     C29063  -0.070   9.582   4.249 -0.1931 -0.0967  0.2896
  221MOL0     O29064   0.037   9.666   4.189  0.9552  0.2566 -0.4776
  221MOL0     C29065   0.153   9.605   4.152  0.1117  0.7707 -0.5207
  221MOL0     C29066   0.167   9.504   4.054 -0.3604 -0.3141 -0.5264
  221MOL0     C29067   0.291   9.452   4.013 -0.2333  0.1269  0.4744
  221MOL0     C29068   0.411   9.501   4.075  0.2059 -0.0598  0.0998
  221MOL0     C29069   0.544   9.452   4.030  0.0881  0.0455 -1.5275
  221MOL0     O29070   0.657   9.492   4.099 -0.6707 -0.0999  0.1077
  221MOL0     C29071   0.774   9.467   4.029 -0.4492 -0.1630  0.0807
  221MOL0     C29072   0.816   9.341   4.022  0.5337  0.1390  0.3750
  221MOL0     C29073   0.926   9.308   3.952  0.1385  1.1517  0.2906
  221MOL0     C29074   1.000   9.404   3.879  0.1567 -0.5464 -0.8771
  221MOL0     O29075   1.115   9.376   3.806 -0.0256  0.8489 -0.1079
  221MOL0     C29076   1.200   9.483   3.760 -0.0294  0.6275  0.7904
  221MOL0     C29077   1.336   9.421   3.712  0.6602 -0.0616 -0.1136
  221MOL0     C29078   1.413   9.533   3.638 -1.0757  1.3657  0.7604
  221MOL0     C29079   1.541   9.469   3.581 -0.3534 -0.5832 -0.1968
  221MOL0     C29080   1.606   9.574   3.475  0.1981 -0.4377 -0.1735
  221MOL0     C29081   1.730   9.514   3.424  0.5415 -0.6599  0.0708
  221MOL0     C29082   1.807   9.611   3.334 -0.4315  0.5524 -0.1778
  221MOL0     C29083   1.938   9.549   3.268 -0.4233 -0.5022  0.2353
  221MOL0    Cl29084   1.894   9.439   3.136 -0.2218  0.0045 -0.2837
  221MOL0     C29085   0.965   9.537   3.901 -0.5152 -0.5631  0.4066
  221MOL0     C29086   0.854   9.580   3.979  0.1179  0.4637  1.2124
  221MOL0     O29087   0.543   9.394   3.921  0.1141  0.1252  0.5719
  221MOL0     C29088   0.395   9.603   4.173 -0.7469  0.2527  0.4633
  221MOL0     C29089   0.274   9.653   4.215  0.4524  0.3123  0.2278
  221MOL0     N29090   0.284   9.482   4.601  0.6733 -0.6611  0.8179
  221MOL0     N29091   0.392   9.420   4.563  0.3587  0.7444 -0.0309
  221MOL0     C29092   1.371   8.960   4.172  0.4078 -0.3116  0.4825
  221MOL0     C29093   1.462   8.947   4.072  0.2710  0.0020  0.0693
  221MOL0     C29094   1.570   8.930   3.623  0.6677  0.3522 -1.0331
  221MOL0     C29095   1.507   8.916   3.496 -0.0956 -0.6253  0.2760
  221MOL0     C29096   1.584   8.857   3.396 -0.3220 -0.0024  0.2840
  221MOL0     C29097   1.721   8.814   3.411 -0.5729  0.1794 -0.4222
  221MOL0     O29098   1.786   8.757   3.305 -0.2731  0.3012  0.1819
  221MOL0     C29099   1.902   8.673   3.333 -0.2895 -0.2037  0.2722
  221MOL0     C29100   1.868   8.524   3.358  0.0368 -0.8429  0.1593
  221MOL0     C29101   1.891   8.499   3.501  0.1350  0.3965 -0.3530
  221MOL0     C29102   1.817   8.368   3.548  1.2261  0.8592 -0.2539
  221MOL0     C29103   1.870   8.233   3.500  0.1609 -0.0262 -0.0173
  221MOL0     C29104   1.926   8.133   3.451  0.4167 -0.1292  1.2514
  221MOL0     C29105   1.779   8.833   3.535 -0.0123  0.2125 -0.5566
  221MOL0     C29106   1.703   8.879   3.641 -0.3058 -0.0857 -0.6160
  221MOL0     H29107   1.304   9.144   3.847  1.1586 -1.8959 -0.4197
  221MOL0     H29108   1.132   9.147   4.027 -0.8635 -1.0702  1.3694
  221MOL0     H29109   1.296   9.116   4.395  1.3417 -2.0040  0.6702
  221MOL0     H29110   1.234   8.949   4.406  1.9185  0.1965 -0.7624
  221MOL0     H29111   1.161   9.095   4.577  0.5289  0.1234 -1.2918
  221MOL0     H29112   1.037   9.004   4.501  0.2684 -0.2351  1.8759
  221MOL0     H29113   1.100   9.285   4.387  1.1425 -0.8303  0.3066
  221MOL0     H29114   1.031   9.291   4.545  0.2501  2.6484 -1.0739
  221MOL0     H29115   0.899   9.166   4.293 -2.9554  2.2463 -1.3851
  221MOL0     H29116   0.839   9.118   4.449  0.2544 -1.2522 -2.5858
  221MOL0     H29117   0.835   9.398   4.342  0.6762  1.6253  0.5719
  221MOL0     H29118   0.792   9.353   4.511 -1.0124 -2.3296  0.9771
  221MOL0     H29119   0.667   9.243   4.256 -0.6272  0.8943  0.2249
  221MOL0     H29120   0.613   9.392   4.320 -1.0044  1.2142 -1.4565
  221MOL0     H29121   0.589   9.105   4.438 -1.0165 -0.2821 -2.2875
  221MOL0     H29122   0.583   9.246   4.549  0.8155 -0.0339 -0.0461
  221MOL0     H29123   0.376   9.143   4.460  3.2990 -2.3891  0.1379
  221MOL0     H29124   0.408   9.206   4.300 -1.3507  0.0463 -0.3140
  221MOL0     H29125   0.160   9.326   4.341  3.4880 -2.7703 -1.4198
  221MOL0     H29126   0.034   9.502   4.654  0.6136 -1.7079 -0.8213
  221MOL0     H29127  -0.043   9.423   4.514 -1.2363  1.5322 -1.9064
  221MOL0     H29128   0.095   9.666   4.447  0.9062 -3.9584 -1.1968
  221MOL0     H29129  -0.037   9.688   4.576 -1.3022 -0.9339  0.2542
  221MOL0     H29130  -0.192   9.558   4.423 -1.7135 -0.1708 -2.5370
  221MOL0     H29131  -0.154   9.729   4.391  2.0551  0.8004 -2.1658
  221MOL0     H29132  -0.157   9.578   4.183  1.8555 -1.6332 -2.4815
  221MOL0     H29133  -0.029   9.481   4.251 -1.1808 -0.5098  0.3513
  221MOL0     H29134   0.076   9.476   4.002 -1.3286  3.1987 -0.9683
  221MOL0     H29135   0.286   9.395   3.920 -1.5534  1.0901 -0.0772
  221MOL0     H29136   0.759   9.261   4.067 -0.0199 -0.2449 -0.9441
  221MOL0     H29137   0.964   9.207   3.948 -0.0104  1.1296 -1.8088
  221MOL0     H29138   1.219   9.548   3.846  0.6244 -0.8618  1.8131
  221MOL0     H29139   1.154   9.536   3.676  1.2104 -0.3897 -0.5873
  221MOL0     H29140   1.311   9.337   3.646 -2.7901 -1.6056  2.8313
  221MOL0     H29141   1.388   9.385   3.802 -2.9355 -1.2142  1.6852
  221MOL0     H29142   1.452   9.607   3.708  2.1462 -1.0556  1.7439
  221MOL0     H29143   1.364   9.584   3.554  1.6718  1.9612 -0.6112
  221MOL0     H29144   1.620   9.454   3.656  1.8596  0.8371 -2.1036
  221MOL0     H29145   1.510   9.373   3.537 -0.4630 -0.5316 -0.2327
  221MOL0     H29146   1.627   9.663   3.534  1.9062 -0.4907 -0.6571
  221MOL0     H29147   1.539   9.594   3.391  0.0009 -1.6301 -0.3135
  221MOL0     H29148   1.697   9.424   3.371  0.7168  0.6386 -2.3961
  221MOL0     H29149   1.795   9.484   3.507  1.2825 -0.7123 -0.5141
  221MOL0     H29150   1.751   9.654   3.251 -0.4441 -4.1054 -2.9060
  221MOL0     H29151   1.841   9.683   3.410 -3.2834 -1.9714  3.9125
  221MOL0     H29152   2.005   9.500   3.340  1.2770 -1.1326 -1.6925
  221MOL0     H29153   1.994   9.627   3.215  1.7126 -2.9920 -1.3764
  221MOL0     H29154   1.018   9.614   3.845 -3.5002  1.8023  0.5646
  221MOL0     H29155   0.825   9.683   3.961  3.4414  0.8292 -4.1474
  221MOL0     H29156   0.483   9.642   4.223 -1.2845  2.9378 -0.5503
  221MOL0     H29157   0.264   9.730   4.291 -1.6751  0.6866 -0.3670
  221MOL0     H29158   1.411   8.922   4.265 -1.3929  0.3412  1.5552
  221MOL0     H29159   1.563   8.910   4.093  1.3237  2.0686 -1.0826
  221MOL0     H29160   1.409   8.959   3.479 -0.3976 -0.5223  2.0530
  221MOL0     H29161   1.552   8.848   3.292 -2.1690  1.2022  0.6885
  221MOL0     H29162   1.976   8.715   3.401  0.0294  1.0020 -0.7981
  221MOL0     H29163   1.963   8.659   3.243  0.1187 -3.3360  0.9082
  221MOL0     H29164   1.763   8.509   3.331 -0.1427  0.2375  0.2002
  221MOL0     H29165   1.926   8.459   3.293  2.6904  1.4641 -0.0025
  221MOL0     H29166   1.862   8.584   3.564 -1.2199  0.2857 -0.7867
  221MOL0     H29167   1.994   8.485   3.535 -0.1475  1.8270  1.2258
  221MOL0     H29168   1.797   8.367   3.656 -2.4812 -1.9376 -0.7688
  221MOL0     H29169   1.711   8.367   3.522  0.4471  0.1464  2.5516
  221MOL0     H29170   1.962   8.045   3.403 -1.4728  0.8311 -2.2591
  221MOL0     H29171   1.883   8.817   3.561 -0.0164  0.9039 -0.0671
  221MOL0     H29172   1.739   8.896   3.742 -0.2214  0.7679 -0.7794
  222MOL0     O29173  11.012   4.238   5.457  0.1702  0.2514 -0.1985
  222MOL0     C29174  11.075   4.152   5.522  0.5499  0.0760 -0.4532
  222MOL0     O29175  11.055   4.014   5.512 -0.4496 -0.0430  0.4500
  222MOL0     C29176  10.968   3.956   5.430 -0.1797 -0.3277 -0.1280
  222MOL0     C29177  11.006   3.849   5.348  1.1655  1.0910  0.1280
  222MOL0     C29178  10.909   3.792   5.268 -0.5923  0.2130 -0.2325
  222MOL0     C29179  10.776   3.839   5.266  0.4596  0.6360  0.7185
  222MOL0     O29180  10.680   3.796   5.189 -0.2068  0.4561 -0.4206
  222MOL0     C29181  10.710   3.734   5.067 -0.1193  0.0237 -0.8389
  222MOL0     C29182  10.587   3.672   5.008  0.1730  0.4035 -0.0128
  222MOL0     C29183  10.620   3.541   4.931  0.4145 -0.0473  0.0698
  222MOL0     C29184  10.498   3.456   4.893 -0.4616  0.4361 -0.3662
  222MOL0     C29185  10.529   3.326   4.815 -0.6494 -0.2871 -0.3984
  222MOL0     C29186  10.405   3.276   4.750  0.8594  0.0405  0.1690
  222MOL0     C29187  10.367   3.357   4.619  0.1225  0.2833  0.5216
  222MOL0     C29188  10.220   3.348   4.579  0.7610  1.0658 -0.0526
  222MOL0     N29189  10.127   3.384   4.690  0.0041  0.4895  0.0307
  222MOL0     C29190  10.012   3.320   4.728 -0.1083 -0.1829  0.0038
  222MOL0     C29191   9.949   3.392   4.823 -0.3382  0.3897  0.2903
  222MOL0     C29192   9.822   3.363   4.890 -0.1189  0.8066 -0.5938
  222MOL0     C29193   9.692   3.403   4.820 -0.4272 -0.0375 -0.0815
  222MOL0     C29194   9.573   3.381   4.917  0.0078  0.0815  0.0404
  222MOL0     C29195   9.439   3.388   4.839 -0.5193  0.6028  0.3700
  222MOL0     O29196   9.406   3.269   4.768 -0.4281  1.1060 -0.5528
  222MOL0     C29197   9.281   3.265   4.711 -0.1060  0.5538  0.0702
  222MOL0     C29198   9.201   3.369   4.676 -0.6357 -0.4900 -1.1388
  222MOL0     C29199   9.075   3.341   4.630  0.7896 -0.0072 -0.0616
  222MOL0     C29200   9.021   3.210   4.623  0.4236 -0.3210 -0.3425
  222MOL0     C29201   8.885   3.174   4.571 -0.3457  0.0704  0.1832
  222MOL0     O29202   8.785   3.263   4.592 -0.2927 -0.2584  0.0094
  222MOL0     C29203   8.654   3.251   4.549 -0.4685  0.6215  0.5057
  222MOL0     C29204   8.600   3.328   4.446  0.1312  0.2289 -0.6195
  222MOL0     C29205   8.466   3.318   4.415  0.1923  0.1699 -0.7229
  222MOL0     C29206   8.379   3.227   4.484  0.1001 -0.8531  0.3743
  222MOL0     O29207   8.247   3.202   4.444 -0.7224  0.0730 -0.8372
  222MOL0     C29208   8.174   3.323   4.430 -0.0722 -0.1275  0.4808
  222MOL0     C29209   8.033   3.313   4.489  0.3699  0.6903  0.1657
  222MOL0     C29210   8.037   3.283   4.644  1.1315  0.2991  0.2514
  222MOL0     C29211   7.895   3.292   4.711 -0.3170 -0.3925 -0.2205
  222MOL0     C29212   7.803   3.175   4.684 -0.9936 -0.6589 -0.9222
  222MOL0     C29213   7.660   3.170   4.752  0.4251 -1.2676 -0.3031
  222MOL0     C29214   7.570   3.278   4.698  0.1458 -0.4076 -0.6388
  222MOL0     C29215   7.487   3.239   4.571 -0.5124  0.7123 -0.2835
  222MOL0    Cl29216   7.354   3.345   4.521 -0.0117  0.3363 -0.1680
  222MOL0     C29217   8.429   3.157   4.588 -0.2317 -0.2930  0.3116
  222MOL0     C29218   8.565   3.157   4.612 -0.5573  0.7187 -1.4332
  222MOL0     O29219   8.867   3.064   4.514  0.6015 -0.1407  0.0464
  222MOL0     C29220   9.101   3.109   4.682  0.0641 -0.5605 -0.3729
  222MOL0     C29221   9.232   3.138   4.728  0.3433  0.6635 -0.2863
  222MOL0     N29222  10.027   3.514   4.827 -0.0985 -0.4863 -0.4104
  222MOL0     N29223  10.138   3.499   4.757  0.5649  0.1877 -0.8543
  222MOL0     C29224  10.733   3.942   5.354 -0.6960  0.2079 -0.2257
  222MOL0     C29225  10.834   3.993   5.434  0.0304  0.0198 -0.1487
  222MOL0     C29226  11.139   4.192   5.645  0.1067 -0.1370  0.8597
  222MOL0     C29227  11.201   4.320   5.673 -0.0163 -0.6439 -0.2525
  222MOL0     C29228  11.275   4.346   5.790  0.5208  0.2215  0.4829
  222MOL0     C29229  11.281   4.242   5.887  0.1133  0.4032  0.0727
  222MOL0     O29230  11.340   4.254   6.014 -0.4539  0.6364  0.2270
  222MOL0     C29231  11.335   4.378   6.085 -0.1132 -0.4680 -0.0741
  222MOL0     C29232  11.347   4.355   6.235 -0.1508  0.1737  0.4034
  222MOL0     C29233  11.352   4.493   6.295 -0.2461 -0.1610 -0.4828
  222MOL0     C29234  11.376   4.492   6.445  0.1778  0.9164 -0.0836
  222MOL0     C29235  11.510   4.482   6.479 -0.1474 -0.1975  0.2844
  222MOL0     C29236  11.620   4.478   6.525  0.2021  0.2369  0.7317
  222MOL0     C29237  11.233   4.117   5.859 -0.2112  0.2378 -0.2434
  222MOL0     C29238  11.150   4.092   5.748  0.0947 -1.0751  0.1232
  222MOL0     H29239  11.108   3.820   5.326  0.7920 -0.4624  0.3107
  222MOL0     H29240  10.944   3.710   5.206  1.2984  0.7752  0.0237
  222MOL0     H29241  10.783   3.654   5.084  0.1632  0.3240 -0.6094
  222MOL0     H29242  10.747   3.817   5.005 -2.3546  0.4065 -1.7478
  222MOL0     H29243  10.524   3.734   4.943  1.0765 -0.1914 -1.5094
  222MOL0     H29244  10.522   3.652   5.093 -0.5457 -3.1089 -1.2223
  222MOL0     H29245  10.685   3.476   4.989 -1.2119 -2.2920 -0.4886
  222MOL0     H29246  10.684   3.565   4.846  0.5079 -2.5107 -0.6202
  222MOL0     H29247  10.451   3.430   4.988 -0.3830 -0.1840 -0.4949
  222MOL0     H29248  10.427   3.523   4.843 -0.2677  1.4206  0.6414
  222MOL0     H29249  10.564   3.255   4.891 -2.1475 -3.6088 -2.5667
  222MOL0     H29250  10.604   3.337   4.737 -1.7759 -2.3437 -1.8751
  222MOL0     H29251  10.325   3.284   4.825 -0.2615  0.2524 -1.0118
  222MOL0     H29252  10.423   3.171   4.725 -0.4999 -0.0921 -0.3230
  222MOL0     H29253  10.384   3.465   4.632  2.8642 -0.3019  3.2242
  222MOL0     H29254  10.420   3.309   4.537 -2.8056 -2.5383  0.1351
  222MOL0     H29255  10.203   3.245   4.546  0.2569  0.5145  1.7808
  222MOL0     H29256  10.202   3.416   4.496  1.8040  0.7638 -0.5454
  222MOL0     H29257   9.970   3.233   4.678  1.1503 -0.1328 -1.2006
  222MOL0     H29258   9.828   3.422   4.982 -0.0217 -0.2209  0.0743
  222MOL0     H29259   9.820   3.260   4.925 -1.3117  1.2450  0.6943
  222MOL0     H29260   9.689   3.351   4.723  0.8529 -1.3947  0.5682
  222MOL0     H29261   9.696   3.511   4.805  2.3801  0.1388  1.3356
  222MOL0     H29262   9.591   3.283   4.963  1.5328 -0.1733 -1.0198
  222MOL0     H29263   9.564   3.454   4.999 -2.6182 -1.3447  1.1378
  222MOL0     H29264   9.444   3.474   4.771  1.1227  0.1991 -0.0646
  222MOL0     H29265   9.361   3.404   4.914  1.4056  2.3770  2.1119
  222MOL0     H29266   9.236   3.472   4.679  0.4811 -0.7263  4.2332
  222MOL0     H29267   9.007   3.418   4.595 -1.5395 -2.3711 -1.0692
  222MOL0     H29268   8.664   3.403   4.400  0.6946 -1.3275 -2.5107
  222MOL0     H29269   8.421   3.386   4.343 -3.1938  1.6784  2.4665
  222MOL0     H29270   8.158   3.351   4.326 -0.2133  0.4768  0.6661
  222MOL0     H29271   8.221   3.412   4.472  1.9439 -1.7275  1.8605
  222MOL0     H29272   7.987   3.236   4.426  0.3070 -0.1803  1.2428
  222MOL0     H29273   7.976   3.405   4.474 -0.1893 -0.0492 -3.2004
  222MOL0     H29274   8.101   3.348   4.706 -0.5220  0.6396  1.6694
  222MOL0     H29275   8.065   3.180   4.669 -4.2339 -1.0423  1.9381
  222MOL0     H29276   7.925   3.314   4.814  1.5374 -0.3534 -0.7271
  222MOL0     H29277   7.847   3.381   4.668  0.6284  0.0092 -0.4710
  222MOL0     H29278   7.861   3.085   4.706 -1.0112 -0.7090 -1.0770
  222MOL0     H29279   7.795   3.166   4.575 -0.4220  0.1804 -1.0428
  222MOL0     H29280   7.676   3.187   4.859  3.6441 -0.4081 -0.8449
  222MOL0     H29281   7.618   3.070   4.736  4.0129 -3.4104  2.1455
  222MOL0     H29282   7.496   3.296   4.776  0.6932 -1.4277  0.1575
  222MOL0     H29283   7.626   3.372   4.695  2.0413 -1.4911 -0.8547
  222MOL0     H29284   7.437   3.143   4.587  0.1473  0.4429  0.1883
  222MOL0     H29285   7.554   3.222   4.486  1.3406 -0.4932  1.3377
  222MOL0     H29286   8.380   3.083   4.651  0.4833  1.0905  2.5951
  222MOL0     H29287   8.603   3.091   4.689 -1.2752 -0.4789 -2.0792
  222MOL0     H29288   9.057   3.009   4.677  2.0056 -1.6023  1.8290
  222MOL0     H29289   9.291   3.052   4.757 -0.5653 -1.1281 -3.3676
  222MOL0     H29290  10.628   3.966   5.365 -0.5995  0.1977  0.8297
  222MOL0     H29291  10.796   4.076   5.494  1.3951  1.2431 -0.8997
  222MOL0     H29292  11.187   4.392   5.594 -0.0561  2.4306  2.3704
  222MOL0     H29293  11.318   4.446   5.794 -1.1586  1.1222 -1.6160
  222MOL0     H29294  11.249   4.441   6.060 -1.3763 -1.5637  1.3407
  222MOL0     H29295  11.420   4.439   6.052 -1.7397  2.4254  0.7438
  222MOL0     H29296  11.269   4.287   6.269 -0.5369  1.0497  1.2956
  222MOL0     H29297  11.447   4.313   6.247  0.5779  1.4125 -1.0721
  222MOL0     H29298  11.254   4.539   6.278  0.8173  1.2883 -3.2616
  222MOL0     H29299  11.418   4.565   6.246 -1.0357  0.1992 -1.0514
  222MOL0     H29300  11.342   4.590   6.480 -0.7168  1.5027 -2.4159
  222MOL0     H29301  11.304   4.420   6.486 -3.5861  3.3578 -1.8569
  222MOL0     H29302  11.719   4.476   6.566  0.6580  2.0787 -0.2100
  222MOL0     H29303  11.251   4.041   5.934  0.7498  0.3929 -0.2966
  222MOL0     H29304  11.102   3.995   5.740 -2.1118  0.0925 -2.0398
  223MOL0     O29305   6.880   7.141   9.768  0.9952 -0.5196 -0.7941
  223MOL0     C29306   6.914   7.137   9.886 -0.3916 -0.3310  0.5542
  223MOL0     O29307   6.823   7.116   9.989 -0.1103  0.0625  1.0027
  223MOL0     C29308   6.690   7.142   9.960  0.5462 -0.5389  0.2297
  223MOL0     C29309   6.614   7.043   9.888 -0.2650 -0.7501 -0.2536
  223MOL0     C29310   6.474   7.074   9.890 -0.1322  0.0606  0.1216
  223MOL0     C29311   6.411   7.174   9.959  0.3797  0.6691  0.1494
  223MOL0     O29312   6.274   7.166   9.959  0.1178 -0.6075 -0.5874
  223MOL0     C29313   6.207   7.223  10.063 -0.5557  0.9636 -0.3108
  223MOL0     C29314   6.066   7.158  10.050  0.1381 -0.1464 -0.0995
  223MOL0     C29315   6.007   7.180   9.911  0.1997  0.4475  0.1039
  223MOL0     C29316   5.865   7.141   9.907 -0.1684 -0.0078  0.3237
  223MOL0     C29317   5.806   7.193   9.780  0.5915 -0.0905  0.1797
  223MOL0     C29318   5.655   7.164   9.776  0.1084 -0.3545  0.1211
  223MOL0     C29319   5.610   7.179   9.629  0.2970 -0.3730 -0.4982
  223MOL0     C29320   5.457   7.166   9.621  0.4236 -0.3986  0.0813
  223MOL0     N29321   5.424   7.189   9.484 -0.5195  0.4257  0.2179
  223MOL0     C29322   5.445   7.099   9.384 -0.3447 -0.0355  0.6067
  223MOL0     C29323   5.425   7.164   9.267 -0.1715 -0.5393 -0.2785
  223MOL0     C29324   5.439   7.120   9.128  0.0602  0.3317  0.4836
  223MOL0     C29325   5.295   7.112   9.060 -0.2282  0.1658  0.1735
  223MOL0     C29326   5.208   7.001   9.124 -0.0725 -0.0600 -0.1498
  223MOL0     C29327   5.070   6.982   9.061 -0.8723 -0.0764 -0.6903
  223MOL0     O29328   5.003   7.114   9.079  0.5325 -0.1294  0.9465
  223MOL0     C29329   4.864   7.108   9.058  0.2320  0.5809  0.1213
  223MOL0     C29330   4.810   7.237   9.063  0.4058  0.7265  0.5357
  223MOL0     C29331   4.674   7.254   9.031  0.4980  0.2675  0.6013
  223MOL0     C29332   4.591   7.145   9.001  0.5373 -0.0918 -0.7307
  223MOL0     C29333   4.450   7.169   8.977  0.2901  0.6574  0.3348
  223MOL0     O29334   4.367   7.059   8.963 -0.0138  0.1809  0.4889
  223MOL0     C29335   4.230   7.078   8.958  0.8322  0.2385  1.1584
  223MOL0     C29336   4.165   7.149   8.855  0.5357 -0.0289  0.5243
  223MOL0     C29337   4.023   7.165   8.839 -0.6856  0.4090  0.5986
  223MOL0     C29338   3.949   7.074   8.910 -0.4214 -0.3421  0.5495
  223MOL0     O29339   3.820   7.068   8.870 -0.8324 -0.1219  0.0550
  223MOL0     C29340   3.726   6.984   8.935 -0.4787  0.4926 -1.0304
  223MOL0     C29341   3.580   7.033   8.898  0.0258 -0.2167  0.3844
  223MOL0     C29342   3.478   6.936   8.967  0.1915 -0.2501  1.2125
  223MOL0     C29343   3.492   6.780   8.944  0.0623  0.8977 -0.4450
  223MOL0     C29344   3.381   6.706   9.030  0.2511 -0.3115 -0.2802
  223MOL0     C29345   3.333   6.574   8.966  0.4288 -1.3472  1.0076
  223MOL0     C29346   3.203   6.533   9.030  0.0404 -0.2365  0.5622
  223MOL0     C29347   3.136   6.404   8.966  0.4681  0.4392 -0.4196
  223MOL0    Cl29348   2.983   6.351   9.064  0.0151  0.0757  0.6264
  223MOL0     C29349   4.006   6.994   9.013 -0.1987 -0.0999 -0.0227
  223MOL0     C29350   4.143   7.000   9.042 -0.1477 -0.2812  0.6074
  223MOL0     O29351   4.413   7.281   8.955 -0.2505  0.4577  0.6234
  223MOL0     C29352   4.647   7.011   9.017  0.6354  0.1911  0.9557
  223MOL0     C29353   4.779   6.992   9.042 -0.5929  0.4751 -0.6846
  223MOL0     N29354   5.389   7.295   9.302  0.4053 -0.3841 -0.1559
  223MOL0     N29355   5.379   7.308   9.431 -0.4619 -0.9455  0.9626
  223MOL0     C29356   6.489   7.261  10.028  0.5828  0.3329  0.4763
  223MOL0     C29357   6.627   7.246  10.024 -0.2583 -0.6951 -0.1035
  223MOL0     C29358   7.049   7.125   9.907 -1.1893 -0.5788 -1.0064
  223MOL0     C29359   7.094   7.085  10.034 -1.2662  0.0161  0.5536
  223MOL0     C29360   7.234   7.075  10.053  0.9175  0.4599 -0.6712
  223MOL0     C29361   7.326   7.102   9.958 -0.6327  0.1056 -0.1962
  223MOL0     O29362   7.461   7.080   9.991 -0.4623 -0.2644 -0.0949
  223MOL0     C29363   7.579   7.128   9.919  0.5342  0.3951  0.4874
  223MOL0     C29364   7.597   7.281   9.918  1.1216 -0.1686  0.2129
  223MOL0     C29365   7.644   7.333  10.053 -0.0902  0.0062  0.2903
  223MOL0     C29366   7.545   7.420  10.129 -0.2806 -0.5704  0.4054
  223MOL0     C29367   7.612   7.462  10.249 -0.7846  0.0802  0.2328
  223MOL0     C29368   7.681   7.491  10.346 -0.2593  0.1006 -0.3062
  223MOL0     C29369   7.281   7.135   9.828 -0.8544  0.0790 -0.3707
  223MOL0     C29370   7.148   7.147   9.799  0.3601 -0.2971 -0.2291
  223MOL0     H29371   6.651   6.952   9.842  2.2590 -0.0041  0.1499
  223MOL0     H29372   6.412   7.000   9.841  0.6196 -0.4328 -0.1069
  223MOL0     H29373   6.191   7.329  10.038 -2.3130  0.7358 -0.2834
  223MOL0     H29374   6.256   7.200  10.159 -1.5134 -2.4009 -0.5101
  223MOL0     H29375   6.007   7.189  10.136  1.1006 -1.1913  0.9612
  223MOL0     H29376   6.079   7.049  10.056  0.8224 -0.1373 -1.0701
  223MOL0     H29377   6.061   7.113   9.843 -0.7455 -0.6808  0.4335
  223MOL0     H29378   6.033   7.280   9.874  0.8661 -1.2264 -4.6308
  223MOL0     H29379   5.851   7.033   9.900  0.2223 -0.0875  0.7213
  223MOL0     H29380   5.806   7.188   9.986  0.0782  0.4306  0.2495
  223MOL0     H29381   5.850   7.138   9.696  1.7921  0.0024  0.7301
  223MOL0     H29382   5.819   7.302   9.776 -3.2598  0.7309  3.8756
  223MOL0     H29383   5.600   7.237   9.836  0.3694  2.9681 -3.3030
  223MOL0     H29384   5.624   7.061   9.798 -1.8010  0.4882  1.5679
  223MOL0     H29385   5.642   7.277   9.592 -0.9238  1.2347  2.3699
  223MOL0     H29386   5.650   7.099   9.566  0.6630  0.6948 -1.6680
  223MOL0     H29387   5.408   7.244   9.679  0.5858  1.5183 -2.1995
  223MOL0     H29388   5.425   7.069   9.660 -1.4550  0.7589  1.6026
  223MOL0     H29389   5.476   6.995   9.383  1.1633  0.3725 -0.9945
  223MOL0     H29390   5.487   7.022   9.125  0.5717  0.6027 -0.6432
  223MOL0     H29391   5.501   7.192   9.073  0.0971 -0.0709 -0.0129
  223MOL0     H29392   5.301   7.088   8.953 -1.6850 -2.5764  0.6332
  223MOL0     H29393   5.240   7.206   9.073 -0.9785 -0.4948  2.0707
  223MOL0     H29394   5.259   6.905   9.120 -1.2868 -0.7004 -0.8158
  223MOL0     H29395   5.196   7.038   9.226  1.7621  2.6103 -0.8029
  223MOL0     H29396   5.015   6.902   9.111 -0.2029 -0.4893 -0.6164
  223MOL0     H29397   5.080   6.955   8.955 -3.1145 -2.2399 -0.4456
  223MOL0     H29398   4.880   7.318   9.082  1.7295  0.0487 -1.1532
  223MOL0     H29399   4.660   7.361   9.017  1.2111  0.4995  1.4861
  223MOL0     H29400   4.228   7.187   8.775  1.5838  0.5245  1.5962
  223MOL0     H29401   3.977   7.228   8.763 -0.0722  0.2975  0.1344
  223MOL0     H29402   3.735   6.962   9.042 -0.5714  1.3752 -0.8365
  223MOL0     H29403   3.741   6.886   8.890 -1.0716  1.0085 -2.3996
  223MOL0     H29404   3.572   7.029   8.789 -1.5807  1.4125  0.4108
  223MOL0     H29405   3.566   7.134   8.937 -2.9221 -0.6158  0.5505
  223MOL0     H29406   3.379   6.960   8.926  1.8218  1.7378 -1.9790
  223MOL0     H29407   3.473   6.956   9.075  2.4932  0.4626  1.2448
  223MOL0     H29408   3.491   6.748   8.840 -0.2614 -0.7930  0.0445
  223MOL0     H29409   3.584   6.743   8.989 -0.4948  1.8335  1.5734
  223MOL0     H29410   3.290   6.767   9.032  1.3977  1.5194  2.3854
  223MOL0     H29411   3.416   6.698   9.133  3.3447  1.3270 -1.0444
  223MOL0     H29412   3.411   6.503   8.999 -0.7664 -2.1679  2.1753
  223MOL0     H29413   3.324   6.584   8.858  2.8944  0.7906  0.8956
  223MOL0     H29414   3.226   6.503   9.133  0.5545 -3.7981 -0.4515
  223MOL0     H29415   3.135   6.619   9.025  0.9510  0.4376 -1.3794
  223MOL0     H29416   3.203   6.318   8.966 -1.0852 -0.8473 -0.9944
  223MOL0     H29417   3.103   6.422   8.863 -3.1845 -1.1520  0.2816
  223MOL0     H29418   3.950   6.918   9.067 -0.2407  0.4200  0.6843
  223MOL0     H29419   4.185   6.943   9.125 -0.5957 -0.7568  0.5159
  223MOL0     H29420   4.575   6.931   9.001 -0.3917  1.2555  0.0467
  223MOL0     H29421   4.823   6.893   9.048 -0.2480  0.4292 -3.0551
  223MOL0     H29422   6.438   7.338  10.085 -3.3369 -0.2663 -1.8728
  223MOL0     H29423   6.698   7.301  10.084 -1.1445 -0.3674  0.6790
  223MOL0     H29424   7.035   7.057  10.121 -1.9965  0.4398  0.2012
  223MOL0     H29425   7.268   7.039  10.150  1.7681  0.6502 -0.8889
  223MOL0     H29426   7.571   7.092   9.817  0.3376 -0.6266  0.8541
  223MOL0     H29427   7.661   7.069   9.961  0.6875 -1.0059 -1.6473
  223MOL0     H29428   7.670   7.302   9.839 -0.1024 -2.3467 -1.6289
  223MOL0     H29429   7.508   7.333   9.881  0.1967 -2.2402 -0.6405
  223MOL0     H29430   7.744   7.375  10.037  2.2278 -4.1997  1.8855
  223MOL0     H29431   7.669   7.239  10.105  1.5110 -0.0916 -0.5706
  223MOL0     H29432   7.521   7.508  10.068  0.8923 -1.8137 -1.9784
  223MOL0     H29433   7.459   7.366  10.170 -1.0187  1.5428  1.7767
  223MOL0     H29434   7.746   7.530  10.422 -0.7190  1.9954 -0.8291
  223MOL0     H29435   7.353   7.142   9.746 -1.5107  0.5550 -0.9151
  223MOL0     H29436   7.113   7.161   9.698 -0.8536  0.7596  0.3069
  224MOL0     O29437   5.235   3.684  10.487  0.7335 -0.0753  0.1479
  224MOL0     C29438   5.284   3.787  10.513 -1.0611 -0.4863  0.4254
  224MOL0     O29439   5.231   3.896  10.582 -0.0376 -0.5748  0.0114
  224MOL0     C29440   5.103   3.906  10.628 -0.3388  0.9514  0.0061
  224MOL0     C29441   5.077   4.027  10.693  0.3487  0.2110 -0.0567
  224MOL0     C29442   4.961   4.044  10.765  0.0526 -0.5425  1.3609
  224MOL0     C29443   4.861   3.958  10.764  0.6671 -1.0151  0.3574
  224MOL0     O29444   4.753   4.007  10.840  0.2982  0.6835 -0.5906
  224MOL0     C29445   4.644   3.917  10.865 -0.2811 -0.4757 -0.2161
  224MOL0     C29446   4.551   3.983  10.969  0.6947 -0.4579 -0.5753
  224MOL0     C29447   4.425   3.890  10.976 -0.0404  0.0754  0.4847
  224MOL0     C29448   4.322   3.938  11.077  0.1166  0.2601  0.1371
  224MOL0     C29449   4.226   4.035  11.010  0.1410 -0.5722  0.5621
  224MOL0     C29450   4.110   4.075  11.109  1.0125  0.6460  0.4013
  224MOL0     C29451   4.020   3.968  11.164  0.4469  0.5539 -0.0497
  224MOL0     C29452   3.926   4.030  11.264 -0.6390 -0.6976 -0.3421
  224MOL0     N29453   3.829   3.930  11.319  0.0234  0.7774 -0.4186
  224MOL0     C29454   3.708   3.961  11.387 -0.6190 -0.1781 -0.3589
  224MOL0     C29455   3.640   3.852  11.417  0.2702  0.2217  0.2361
  224MOL0     C29456   3.510   3.833  11.480  0.2950 -0.4178 -0.8461
  224MOL0     C29457   3.500   3.696  11.563 -0.1141 -1.0141  0.4455
  224MOL0     C29458   3.377   3.706  11.658 -0.4260  0.6619  0.4549
  224MOL0     C29459   3.243   3.729  11.591  0.0744  0.7088 -0.2190
  224MOL0     O29460   3.147   3.734  11.698  0.4781  0.3110 -0.3387
  224MOL0     C29461   3.019   3.717  11.645 -0.0723  0.0749 -1.0953
  224MOL0     C29462   2.924   3.654  11.721  0.6163 -0.7329  0.1183
  224MOL0     C29463   2.794   3.625  11.667 -0.2486  0.9993 -0.4857
  224MOL0     C29464   2.763   3.636  11.530  0.2963 -0.0236 -0.4453
  224MOL0     C29465   2.633   3.598  11.466  0.0783 -0.5661  0.5588
  224MOL0     O29466   2.534   3.561  11.552 -0.2286 -0.5834  0.6468
  224MOL0     C29467   2.405   3.540  11.512  0.6861  0.1268  0.2724
  224MOL0     C29468   2.348   3.550  11.387  0.3724 -1.1285 -0.1439
  224MOL0     C29469   2.213   3.537  11.360  0.1388 -1.0247 -0.3368
  224MOL0     C29470   2.117   3.515  11.458 -0.0155 -0.1637  0.4907
  224MOL0     O29471   1.985   3.490  11.442 -0.2041 -0.2399  0.0100
  224MOL0     C29472   1.920   3.541  11.324  0.1924 -0.2140  0.9264
  224MOL0     C29473   1.771   3.537  11.343  0.1384 -0.1120 -0.5651
  224MOL0     C29474   1.705   3.594  11.480  0.5320  0.5120 -0.8502
  224MOL0     C29475   1.781   3.719  11.541 -1.0625  0.7832 -0.0703
  224MOL0     C29476   1.687   3.799  11.611  0.4488 -0.5645 -0.2383
  224MOL0     C29477   1.617   3.906  11.510 -0.1410  0.2374  0.2538
  224MOL0     C29478   1.510   3.984  11.591  0.4174  0.2584 -0.3113
  224MOL0     C29479   1.509   4.130  11.553 -0.1240  0.3475 -0.4639
  224MOL0    Cl29480   1.364   4.192  11.627  0.0294  0.2712 -0.3776
  224MOL0     C29481   2.163   3.514  11.586 -0.2230  0.2266  0.2835
  224MOL0     C29482   2.307   3.520  11.605  0.1101 -0.1557 -0.6533
  224MOL0     O29483   2.627   3.586  11.340  0.5235 -0.3680  0.5273
  224MOL0     C29484   2.871   3.701  11.454 -0.1386  1.0028 -0.1389
  224MOL0     C29485   2.984   3.745  11.511 -0.3287 -0.5257 -0.5987
  224MOL0     N29486   3.730   3.747  11.385  0.5131 -0.4966 -0.2464
  224MOL0     N29487   3.831   3.795  11.325  0.0752 -0.5904 -0.1901
  224MOL0     C29488   4.875   3.830  10.701  0.6523  0.4277 -0.6438
  224MOL0     C29489   4.995   3.807  10.637 -0.0977 -0.3810 -0.0842
  224MOL0     C29490   5.422   3.802  10.474  0.4421 -0.5050 -0.3208
  224MOL0     C29491   5.494   3.906  10.525 -0.1165  0.0351  0.8829
  224MOL0     C29492   5.622   3.935  10.490 -1.2860 -0.2984  0.1446
  224MOL0     C29493   5.694   3.850  10.402  0.1442  0.1888 -0.2472
  224MOL0     O29494   5.825   3.869  10.380  0.2148  0.0150  0.2345
  224MOL0     C29495   5.897   3.771  10.309  0.2644 -0.2684  0.3619
  224MOL0     C29496   6.040   3.817  10.304  0.3182 -0.6402  0.6087
  224MOL0     C29497   6.158   3.718  10.290  0.9463 -0.2889  0.9565
  224MOL0     C29498   6.283   3.795  10.275 -0.4676 -0.7291  0.6662
  224MOL0     C29499   6.404   3.713  10.265  0.1522 -0.1671 -0.0787
  224MOL0     C29500   6.486   3.626  10.261  0.3234 -0.5152  0.8574
  224MOL0     C29501   5.619   3.744  10.344 -0.2972  0.1633 -0.0538
  224MOL0     C29502   5.487   3.720  10.380 -0.0521  0.0588 -0.2560
  224MOL0     H29503   5.152   4.106  10.697  0.7654 -0.2383  2.3946
  224MOL0     H29504   4.951   4.137  10.821 -0.0443 -0.9865  2.0932
  224MOL0     H29505   4.680   3.817  10.893  2.6331  0.6109  0.2948
  224MOL0     H29506   4.595   3.907  10.768  2.1044 -0.5581 -1.4931
  224MOL0     H29507   4.509   4.081  10.946  2.9399  0.9431  0.8335
  224MOL0     H29508   4.606   4.001  11.062  0.7021  1.1191 -0.8604
  224MOL0     H29509   4.464   3.790  10.995  2.4307  0.7800 -0.4871
  224MOL0     H29510   4.380   3.885  10.876  0.1489 -0.2710  0.4168
  224MOL0     H29511   4.274   3.846  11.111  1.2698 -0.2711  0.3991
  224MOL0     H29512   4.360   3.974  11.174 -0.5262 -0.4074  0.6485
  224MOL0     H29513   4.179   3.990  10.921 -1.3238 -1.9566  1.9760
  224MOL0     H29514   4.284   4.122  10.978  0.9950 -2.3327 -3.2917
  224MOL0     H29515   4.057   4.154  11.056  1.8604  1.2164  0.3764
  224MOL0     H29516   4.152   4.123  11.198 -1.1330  2.2843  0.6093
  224MOL0     H29517   3.950   3.931  11.089  1.9440  2.9288 -2.7877
  224MOL0     H29518   4.078   3.881  11.199 -2.6412 -2.8542 -2.5896
  224MOL0     H29519   3.876   4.116  11.218 -3.4269 -2.4707 -0.8728
  224MOL0     H29520   3.986   4.081  11.341 -2.6652  1.1262  0.1356
  224MOL0     H29521   3.679   4.062  11.416 -0.5534 -0.4130  0.5600
  224MOL0     H29522   3.436   3.838  11.399 -0.4286 -0.2607 -0.1818
  224MOL0     H29523   3.485   3.923  11.537 -0.5728 -1.4266  0.3913
  224MOL0     H29524   3.590   3.694  11.626  2.1444  0.2373 -2.4785
  224MOL0     H29525   3.496   3.613  11.492 -0.5893 -1.9854  1.5786
  224MOL0     H29526   3.371   3.615  11.719 -2.0438  0.2165 -0.3133
  224MOL0     H29527   3.392   3.790  11.726  2.6458  1.1331 -0.6608
  224MOL0     H29528   3.225   3.643  11.526  0.3422 -1.2121  2.1245
  224MOL0     H29529   3.248   3.829  11.547  0.2393 -0.2305 -2.4417
  224MOL0     H29530   2.955   3.624  11.821  1.7898 -2.4447 -0.7227
  224MOL0     H29531   2.716   3.587  11.731  0.9723 -2.3210 -0.8099
  224MOL0     H29532   2.400   3.569  11.293 -1.8434  2.4871 -0.8347
  224MOL0     H29533   2.170   3.548  11.261  2.4327 -1.0684 -1.4014
  224MOL0     H29534   1.939   3.482  11.234 -2.4625 -0.4075  0.4192
  224MOL0     H29535   1.948   3.646  11.312 -1.0431 -0.0129 -0.4926
  224MOL0     H29536   1.734   3.435  11.327  0.7308 -0.7171  1.5923
  224MOL0     H29537   1.724   3.600  11.267 -2.7473 -2.5877 -1.0596
  224MOL0     H29538   1.705   3.513  11.554  2.3855 -1.2857 -2.6774
  224MOL0     H29539   1.599   3.621  11.467  0.7237  1.6397 -0.1962
  224MOL0     H29540   1.853   3.671  11.608 -1.0571  0.8629 -0.0188
  224MOL0     H29541   1.838   3.770  11.463  1.4476 -3.3968 -1.2804
  224MOL0     H29542   1.739   3.862  11.684  0.2546 -0.2454 -0.3687
  224MOL0     H29543   1.613   3.739  11.665 -0.8242 -0.5901 -1.9173
  224MOL0     H29544   1.560   3.856  11.431  0.0692 -1.9442  1.3864
  224MOL0     H29545   1.694   3.971  11.467 -0.4220 -1.0120 -2.2849
  224MOL0     H29546   1.412   3.955  11.554  0.2144  0.8197 -0.2304
  224MOL0     H29547   1.510   3.978  11.700  1.0344  0.2757 -0.3043
  224MOL0     H29548   1.526   4.158  11.448 -2.0351 -2.8640 -1.7869
  224MOL0     H29549   1.597   4.178  11.597 -0.2568 -1.8486  2.4405
  224MOL0     H29550   2.092   3.484  11.662  0.7536  0.5492  1.3483
  224MOL0     H29551   2.353   3.509  11.703 -1.8189  0.2793  0.3523
  224MOL0     H29552   2.854   3.734  11.353 -2.0029  0.4025 -0.0505
  224MOL0     H29553   3.057   3.780  11.439  0.4012 -2.6656 -1.0014
  224MOL0     H29554   4.797   3.755  10.709  1.8986 -0.7389  1.0967
  224MOL0     H29555   5.023   3.707  10.606  1.8622 -0.5543  1.9933
  224MOL0     H29556   5.449   3.968  10.602 -1.6518 -0.9473  0.8200
  224MOL0     H29557   5.681   4.002  10.551 -1.2470 -0.5576  0.3914
  224MOL0     H29558   5.864   3.754  10.206  2.6255 -3.2657 -0.0178
  224MOL0     H29559   5.892   3.675  10.361  2.4806 -0.2044  0.8003
  224MOL0     H29560   6.039   3.868  10.208  0.9807  2.1332  1.9670
  224MOL0     H29561   6.056   3.881  10.391  0.6238 -1.6230  1.2973
  224MOL0     H29562   6.139   3.648  10.207  0.8728  1.1001 -0.2348
  224MOL0     H29563   6.166   3.658  10.381  0.1968 -1.0234  0.5561
  224MOL0     H29564   6.278   3.851  10.181  1.1061 -1.7120 -0.0580
  224MOL0     H29565   6.296   3.868  10.355 -0.0207 -0.6517  0.5274
  224MOL0     H29566   6.551   3.543  10.242  2.2167  0.6900  1.7799
  224MOL0     H29567   5.668   3.665  10.287  0.9933  2.3875 -2.2255
  224MOL0     H29568   5.451   3.628  10.337  0.0874 -0.7017  1.1900
  225MOL0     O29569   3.481   8.015   3.728 -0.4664 -0.2285  0.4496
  225MOL0     C29570   3.531   8.130   3.743  0.7354 -0.4965 -0.5953
  225MOL0     O29571   3.462   8.242   3.735 -0.0043 -0.1869  0.0135
  225MOL0     C29572   3.324   8.235   3.698  0.3939  0.0870  0.0103
  225MOL0     C29573   3.227   8.254   3.791  0.2979  0.0002  0.5238
  225MOL0     C29574   3.088   8.252   3.768 -0.0346  0.1794 -0.3261
  225MOL0     C29575   3.048   8.219   3.640 -0.1543  0.2814  0.1864
  225MOL0     O29576   2.917   8.215   3.604 -0.2581  0.0216 -0.1749
  225MOL0     C29577   2.804   8.252   3.689 -0.3746  0.0716  0.2952
  225MOL0     C29578   2.701   8.295   3.582  0.4956  0.0639  0.2943
  225MOL0     C29579   2.558   8.248   3.625 -0.1695 -0.4905  0.1035
  225MOL0     C29580   2.459   8.275   3.515 -0.0036 -1.1126  0.6768
  225MOL0     C29581   2.310   8.286   3.558 -0.1810 -0.1827  0.9696
  225MOL0     C29582   2.251   8.171   3.640 -0.1179 -0.0707  0.3332
  225MOL0     C29583   2.278   8.032   3.581  0.4272 -0.0305  0.2550
  225MOL0     C29584   2.168   7.933   3.633 -0.6753  0.5348 -0.2720
  225MOL0     N29585   2.179   7.805   3.555  0.5898 -0.3959 -0.3952
  225MOL0     C29586   2.183   7.798   3.415  0.0402 -0.6336  0.4806
  225MOL0     C29587   2.178   7.657   3.398  1.0448 -0.6261  0.2328
  225MOL0     C29588   2.160   7.600   3.263 -0.8304 -0.4448  0.0974
  225MOL0     C29589   2.211   7.461   3.244  0.0163  0.7343 -0.1920
  225MOL0     C29590   2.186   7.412   3.101  0.3525 -0.4172  0.1601
  225MOL0     C29591   2.207   7.257   3.095  0.1777 -0.2958 -0.4131
  225MOL0     O29592   2.142   7.175   3.199 -0.6674 -0.0446  0.2479
  225MOL0     C29593   2.020   7.134   3.158 -0.2433 -0.2334  0.5310
  225MOL0     C29594   1.991   7.033   3.069  0.3807  0.5441 -0.0089
  225MOL0     C29595   1.858   6.997   3.038 -1.2479 -0.7898 -0.0143
  225MOL0     C29596   1.758   7.065   3.105  1.5192 -1.7242 -0.3217
  225MOL0     C29597   1.619   7.012   3.104  0.6132 -0.3612  0.4172
  225MOL0     O29598   1.601   6.883   3.060  0.0926 -0.0798  0.0156
  225MOL0     C29599   1.478   6.818   3.078  0.2204 -0.4367 -0.1027
  225MOL0     C29600   1.399   6.819   3.193  0.1221 -0.2196  0.2414
  225MOL0     C29601   1.289   6.740   3.208  0.2351  1.2078 -0.3313
  225MOL0     C29602   1.245   6.658   3.101  0.1579  0.0990  0.1403
  225MOL0     O29603   1.136   6.567   3.107  0.2832 -0.3208 -0.0253
  225MOL0     C29604   1.032   6.602   3.194  0.4224 -0.4075  0.3904
  225MOL0     C29605   0.892   6.578   3.125  0.2919  1.0237 -0.1167
  225MOL0     C29606   0.880   6.444   3.041 -0.1863 -0.4406  1.4164
  225MOL0     C29607   0.764   6.472   2.945 -0.3776  0.1354 -0.2475
  225MOL0     C29608   0.746   6.349   2.852 -0.8399  1.3216  0.3197
  225MOL0     C29609   0.654   6.239   2.906 -0.5038  0.3562  0.1498
  225MOL0     C29610   0.632   6.127   2.805 -0.1485 -0.3972 -0.2511
  225MOL0     C29611   0.547   6.018   2.861 -0.3472  0.2008  0.0004
  225MOL0    Cl29612   0.376   6.081   2.895 -0.2530 -0.1070 -0.0102
  225MOL0     C29613   1.313   6.660   2.983  0.7716  0.1630 -0.3360
  225MOL0     C29614   1.431   6.733   2.975 -0.0429  0.4647 -0.4582
  225MOL0     O29615   1.529   7.087   3.145 -0.4737 -0.5903  0.2966
  225MOL0     C29616   1.786   7.175   3.183 -0.9435  0.9227 -0.4701
  225MOL0     C29617   1.915   7.212   3.208 -0.0471 -0.2622  0.0747
  225MOL0     N29618   2.171   7.591   3.520 -0.2824  0.9773  0.5429
  225MOL0     N29619   2.166   7.679   3.614  0.1731  0.0187  0.6958
  225MOL0     C29620   3.144   8.198   3.545 -0.5255  0.2870  1.1239
  225MOL0     C29621   3.282   8.212   3.567 -0.3298 -0.1047  1.7838
  225MOL0     C29622   3.685   8.148   3.740  0.8329  1.0091 -0.0305
  225MOL0     C29623   3.748   8.268   3.730 -0.0805 -1.2378 -0.0095
  225MOL0     C29624   3.889   8.272   3.715  0.0995 -0.2351 -0.3704
  225MOL0     C29625   3.963   8.152   3.717  1.3436  0.3001 -0.2548
  225MOL0     O29626   4.099   8.164   3.717 -0.0923 -0.0353 -0.8150
  225MOL0     C29627   4.185   8.054   3.755  0.3836 -0.1758  0.2182
  225MOL0     C29628   4.247   7.951   3.657  0.0819 -0.0933 -0.0925
  225MOL0     C29629   4.282   7.816   3.724 -0.0624  0.6181 -0.3425
  225MOL0     C29630   4.290   7.699   3.625 -0.0467 -0.4540 -0.1591
  225MOL0     C29631   4.422   7.696   3.561  0.4796 -0.1605 -0.3747
  225MOL0     C29632   4.532   7.689   3.507 -0.6868  0.5907  0.5300
  225MOL0     C29633   3.892   8.034   3.737 -0.5981 -0.1873  0.0054
  225MOL0     C29634   3.758   8.035   3.741  0.5728  0.2342 -0.7058
  225MOL0     H29635   3.251   8.275   3.894 -2.2200  1.7254  0.8408
  225MOL0     H29636   3.021   8.271   3.852 -1.1325  0.2789 -1.2012
  225MOL0     H29637   2.825   8.337   3.755 -0.0189 -1.2683  1.9671
  225MOL0     H29638   2.768   8.162   3.739 -0.9363  1.2512  2.0944
  225MOL0     H29639   2.725   8.266   3.480 -0.9028 -1.8622  0.4407
  225MOL0     H29640   2.699   8.404   3.583 -0.2762  0.1137 -1.8181
  225MOL0     H29641   2.529   8.301   3.716 -0.8991 -0.9254  0.1276
  225MOL0     H29642   2.545   8.143   3.654 -1.1208 -0.2176  0.7138
  225MOL0     H29643   2.486   8.371   3.470  0.4438 -0.3279  2.5260
  225MOL0     H29644   2.468   8.194   3.443  0.5462 -1.0246  0.6465
  225MOL0     H29645   2.247   8.302   3.471 -0.2621  1.4961  1.3084
  225MOL0     H29646   2.309   8.377   3.618 -1.7046 -1.4668  3.0450
  225MOL0     H29647   2.145   8.185   3.663 -0.7145 -1.0584 -1.6268
  225MOL0     H29648   2.295   8.177   3.740  0.8125 -0.9174  0.0041
  225MOL0     H29649   2.282   8.049   3.473  1.1041  1.1969  0.4479
  225MOL0     H29650   2.376   7.995   3.615  0.4903 -2.0125 -1.8262
  225MOL0     H29651   2.073   7.981   3.611 -1.0136  0.8261  1.6005
  225MOL0     H29652   2.172   7.913   3.741  2.2001  0.8843 -0.2319
  225MOL0     H29653   2.183   7.873   3.336 -1.5102 -1.5032 -0.4110
  225MOL0     H29654   2.206   7.672   3.195 -1.1455 -0.2135  0.1263
  225MOL0     H29655   2.052   7.608   3.246 -0.7478 -0.2616 -0.3527
  225MOL0     H29656   2.139   7.399   3.299  0.2430 -3.1311 -3.7213
  225MOL0     H29657   2.310   7.436   3.283  0.3995 -0.5387 -1.8486
  225MOL0     H29658   2.081   7.415   3.072  0.7251 -1.8615 -1.4998
  225MOL0     H29659   2.244   7.472   3.030  1.6483 -1.0368  0.6525
  225MOL0     H29660   2.315   7.240   3.108 -0.1474 -1.2601  1.3677
  225MOL0     H29661   2.191   7.222   2.992  1.5598  2.3912 -1.6537
  225MOL0     H29662   2.074   6.988   3.015 -0.7798  1.8467 -3.0370
  225MOL0     H29663   1.833   6.917   2.969 -4.1396  0.3671 -0.4795
  225MOL0     H29664   1.438   6.888   3.266  1.2677  1.7459 -2.0826
  225MOL0     H29665   1.240   6.750   3.305  0.3685  0.5392 -0.1924
  225MOL0     H29666   1.042   6.710   3.215  1.0942 -0.8135  2.4720
  225MOL0     H29667   1.031   6.556   3.293 -2.1173  1.3250  1.2806
  225MOL0     H29668   0.877   6.663   3.058 -0.6844  2.2237  1.5548
  225MOL0     H29669   0.802   6.579   3.187 -2.5955  2.0534 -3.9786
  225MOL0     H29670   0.876   6.353   3.101 -0.8851 -0.6575  1.0556
  225MOL0     H29671   0.976   6.437   2.989  0.3300  0.4573  2.2281
  225MOL0     H29672   0.670   6.487   2.999  0.2630 -1.9391  1.5900
  225MOL0     H29673   0.793   6.558   2.884  1.7035  0.3756  0.9695
  225MOL0     H29674   0.839   6.309   2.812 -1.8844  1.0461 -1.9898
  225MOL0     H29675   0.681   6.381   2.770 -1.9868  0.6514  0.9353
  225MOL0     H29676   0.556   6.278   2.935 -1.9600 -2.2404 -0.9176
  225MOL0     H29677   0.708   6.189   2.987 -0.8040  2.6556  1.8611
  225MOL0     H29678   0.592   6.156   2.707 -0.6363 -1.3469 -0.3464
  225MOL0     H29679   0.724   6.071   2.786 -0.8010 -2.3335  1.9099
  225MOL0     H29680   0.596   5.990   2.955  1.7049 -0.0250 -1.0802
  225MOL0     H29681   0.554   5.933   2.792  0.9446 -1.4648  2.0380
  225MOL0     H29682   1.286   6.602   2.895  2.3659 -0.7779 -0.2579
  225MOL0     H29683   1.485   6.722   2.881 -5.0539  1.6689 -3.9291
  225MOL0     H29684   1.706   7.227   3.233 -0.9138 -0.2401  0.8316
  225MOL0     H29685   1.935   7.296   3.275 -0.5094 -0.7349  0.8163
  225MOL0     H29686   3.119   8.173   3.442  2.2067 -0.3101  0.5118
  225MOL0     H29687   3.350   8.204   3.483 -0.5484 -1.7076  1.7277
  225MOL0     H29688   3.693   8.362   3.732  1.5095 -0.2659  0.5380
  225MOL0     H29689   3.941   8.366   3.698  2.7213 -1.7041 -1.0464
  225MOL0     H29690   4.126   7.998   3.828 -1.3361 -0.7789 -1.5613
  225MOL0     H29691   4.274   8.098   3.802 -0.4473  0.2410  1.4466
  225MOL0     H29692   4.170   7.926   3.583  0.0224  0.5897 -0.2619
  225MOL0     H29693   4.331   7.995   3.603 -0.8758  1.2541 -0.5573
  225MOL0     H29694   4.207   7.789   3.798  1.1763  0.0426  0.7431
  225MOL0     H29695   4.372   7.821   3.786 -0.6736 -0.8130  0.7227
  225MOL0     H29696   4.276   7.609   3.685 -2.2479  0.9668  1.6350
  225MOL0     H29697   4.206   7.711   3.557  1.0875 -0.1964 -1.5597
  225MOL0     H29698   4.629   7.680   3.462 -1.1465  0.8427 -0.5273
  225MOL0     H29699   3.946   7.941   3.746 -0.4440 -0.3691 -2.1649
  225MOL0     H29700   3.722   7.933   3.749 -0.0067  0.5096  0.2897
  226MOL0     O29701  10.315   2.146   7.166  0.2576 -0.3702  0.0937
  226MOL0     C29702  10.395   2.191   7.081  0.2779 -0.6667 -0.4276
  226MOL0     O29703  10.375   2.188   6.948 -0.5118  0.0573 -0.4487
  226MOL0     C29704  10.248   2.177   6.888 -0.1422  0.5247 -0.3814
  226MOL0     C29705  10.124   2.172   6.952  0.1609  0.4177  0.1294
  226MOL0     C29706  10.000   2.164   6.890  0.5263 -0.8694 -0.0049
  226MOL0     C29707  10.004   2.162   6.752 -0.1891  0.1599 -0.3572
  226MOL0     O29708   9.888   2.149   6.680 -0.2173 -0.0660 -0.2164
  226MOL0     C29709   9.829   2.017   6.677 -1.0035  1.1256 -0.6140
  226MOL0     C29710   9.696   2.017   6.749 -0.3697  0.0416 -0.0724
  226MOL0     C29711   9.585   2.078   6.668 -0.6724  0.2802 -1.0281
  226MOL0     C29712   9.454   2.098   6.740  0.0561  0.2817  1.4507
  226MOL0     C29713   9.350   2.159   6.644 -0.3776 -0.6725 -0.5658
  226MOL0     C29714   9.226   2.191   6.735  0.7009 -0.4797  0.7731
  226MOL0     C29715   9.117   2.226   6.630 -0.3044  0.4916 -0.0686
  226MOL0     C29716   8.999   2.301   6.697 -0.1335  0.0590  0.4671
  226MOL0     N29717   8.892   2.272   6.601  0.0968 -0.3531 -0.5433
  226MOL0     C29718   8.817   2.159   6.606 -0.1173 -0.2154  0.7214
  226MOL0     C29719   8.708   2.192   6.522  0.1185 -0.4605 -0.2835
  226MOL0     C29720   8.611   2.089   6.475  0.6973 -0.4434  1.0103
  226MOL0     C29721   8.462   2.157   6.477  0.1082  0.4266 -0.1714
  226MOL0     C29722   8.368   2.057   6.551 -0.2611 -0.3184  0.0528
  226MOL0     C29723   8.225   2.117   6.563 -0.5150 -0.8916  0.0501
  226MOL0     O29724   8.164   2.101   6.433 -0.1881 -0.1029  0.1183
  226MOL0     C29725   8.040   2.163   6.422  0.3312 -0.8617  0.4002
  226MOL0     C29726   7.963   2.186   6.530  0.3189  0.4672 -0.5783
  226MOL0     C29727   7.825   2.229   6.522  0.0069  0.1291 -0.0364
  226MOL0     C29728   7.773   2.249   6.389 -0.2622  0.3297 -0.3795
  226MOL0     C29729   7.633   2.296   6.357  0.6441 -0.5999 -1.0403
  226MOL0     O29730   7.599   2.336   6.234 -0.8183  0.4891  0.5314
  226MOL0     C29731   7.480   2.398   6.213  0.4417  0.5188 -0.5373
  226MOL0     C29732   7.428   2.500   6.297  0.0017 -0.1944  0.1017
  226MOL0     C29733   7.321   2.577   6.250 -0.5597  0.6319  0.0459
  226MOL0     C29734   7.255   2.548   6.129 -0.1274  0.1047 -0.4653
  226MOL0     O29735   7.144   2.621   6.091  0.7785 -0.6934 -0.0907
  226MOL0     C29736   7.170   2.743   6.017 -0.1934 -1.3356 -0.4752
  226MOL0     C29737   7.022   2.778   5.954 -1.1532 -1.1802 -0.4851
  226MOL0     C29738   6.952   2.672   5.875  0.4561 -0.3279 -0.0914
  226MOL0     C29739   6.839   2.727   5.792  0.3534  0.4102 -0.5891
  226MOL0     C29740   6.886   2.807   5.676 -1.1039 -0.5417  0.7442
  226MOL0     C29741   6.771   2.847   5.588  0.6924  0.1841 -0.0084
  226MOL0     C29742   6.812   2.935   5.468  0.2038  0.5748 -0.0831
  226MOL0     C29743   6.691   2.958   5.372 -0.2001  0.0022 -0.3366
  226MOL0    Cl29744   6.711   3.094   5.263  0.0006 -0.4686 -0.0128
  226MOL0     C29745   7.293   2.433   6.057  0.4117  0.1764  0.2845
  226MOL0     C29746   7.399   2.356   6.109  1.6449 -0.2943  0.1347
  226MOL0     O29747   7.558   2.297   6.456  0.1649 -0.1261 -0.1900
  226MOL0     C29748   7.859   2.224   6.279 -0.1721  0.6901 -0.2605
  226MOL0     C29749   7.985   2.167   6.293 -0.2147  0.0373  0.6202
  226MOL0     N29750   8.733   2.313   6.455 -0.1533  0.8877  0.3239
  226MOL0     N29751   8.843   2.359   6.507  0.1154 -0.9823 -0.0456
  226MOL0     C29752  10.131   2.169   6.686  1.7291  0.2333  0.1760
  226MOL0     C29753  10.248   2.180   6.750  1.3416  0.0675  0.3624
  226MOL0     C29754  10.520   2.257   7.133 -0.6820  0.6999  0.6656
  226MOL0     C29755  10.615   2.305   7.034  0.2772  0.5474  0.0879
  226MOL0     C29756  10.740   2.362   7.069 -0.8950 -0.3590  0.4041
  226MOL0     C29757  10.765   2.376   7.209  1.3299 -0.4596  0.1854
  226MOL0     O29758  10.887   2.422   7.259  0.2457  0.2867 -0.2338
  226MOL0     C29759  10.993   2.472   7.172 -0.2943  0.3403  0.9488
  226MOL0     C29760  11.107   2.549   7.243  1.1357  0.3781  0.5248
  226MOL0     C29761  11.246   2.542   7.163 -0.4508  0.0574 -0.6553
  226MOL0     C29762  11.363   2.593   7.251 -0.4624 -0.1558 -0.3613
  226MOL0     C29763  11.353   2.738   7.285 -0.2050 -0.0972 -0.2361
  226MOL0     C29764  11.336   2.860   7.281 -0.0547 -0.3787 -0.7245
  226MOL0     C29765  10.663   2.340   7.300 -0.7733  0.2331  0.2035
  226MOL0     C29766  10.545   2.278   7.265 -0.2125 -0.6306  1.0705
  226MOL0     H29767  10.120   2.172   7.061 -0.0731  2.3678  0.1455
  226MOL0     H29768   9.908   2.165   6.947  0.5711 -1.1170  0.0772
  226MOL0     H29769   9.895   1.945   6.727 -0.5673  0.5756 -1.9404
  226MOL0     H29770   9.805   1.994   6.573 -1.2569  0.7467 -0.4742
  226MOL0     H29771   9.714   2.085   6.833 -2.1845  2.2190 -1.3354
  226MOL0     H29772   9.661   1.918   6.779 -3.5650  1.3402  0.8857
  226MOL0     H29773   9.563   2.009   6.586 -3.8694  1.1141 -0.9715
  226MOL0     H29774   9.628   2.174   6.636  2.2383 -0.6534 -0.2466
  226MOL0     H29775   9.415   2.004   6.782 -1.6217  0.2066 -0.1294
  226MOL0     H29776   9.464   2.172   6.820 -0.0145  1.3479  0.4975
  226MOL0     H29777   9.314   2.087   6.571 -0.0164 -1.3970 -0.0424
  226MOL0     H29778   9.385   2.254   6.602  0.6999  0.5170  2.6754
  226MOL0     H29779   9.253   2.271   6.804  1.0498 -0.0471  0.1502
  226MOL0     H29780   9.194   2.109   6.800 -0.2146 -0.4403  0.3948
  226MOL0     H29781   9.154   2.289   6.549 -2.1890  1.4328 -0.2456
  226MOL0     H29782   9.079   2.135   6.582  0.5089  1.7036 -3.2579
  226MOL0     H29783   9.000   2.410   6.687 -0.3401 -0.0681 -1.1018
  226MOL0     H29784   8.971   2.265   6.796 -0.1065  1.3276  0.9662
  226MOL0     H29785   8.834   2.063   6.653  0.0235 -1.6045 -1.9386
  226MOL0     H29786   8.603   1.994   6.529 -3.9818 -1.0880 -0.3550
  226MOL0     H29787   8.642   2.061   6.373  0.8127 -1.7743  1.3840
  226MOL0     H29788   8.420   2.174   6.377 -3.4302 -0.0208  1.1066
  226MOL0     H29789   8.462   2.259   6.515  0.4508  0.0257  0.9411
  226MOL0     H29790   8.360   1.965   6.493 -0.8424  0.2749 -0.8333
  226MOL0     H29791   8.410   2.029   6.648  1.0859 -0.6240 -0.5941
  226MOL0     H29792   8.232   2.219   6.603  1.5135 -1.0361  0.1601
  226MOL0     H29793   8.179   2.055   6.640 -3.0051  0.1783 -0.4711
  226MOL0     H29794   7.991   2.166   6.632 -3.0226 -3.7091 -0.1682
  226MOL0     H29795   7.765   2.250   6.609 -1.5866 -2.6447 -0.3735
  226MOL0     H29796   7.469   2.532   6.392 -0.4641 -0.5431  0.4277
  226MOL0     H29797   7.271   2.648   6.316 -0.5516 -0.6450  1.4924
  226MOL0     H29798   7.256   2.720   5.954  1.1364 -1.1173  1.1951
  226MOL0     H29799   7.200   2.830   6.077 -1.2301 -0.1000 -1.6923
  226MOL0     H29800   7.059   2.855   5.885 -2.2453  0.3772  0.6020
  226MOL0     H29801   6.950   2.826   6.020  1.1313 -0.1344  1.3712
  226MOL0     H29802   6.903   2.601   5.943 -1.3010  0.6634 -0.2905
  226MOL0     H29803   7.026   2.624   5.810  2.3797 -2.0699  3.0611
  226MOL0     H29804   6.786   2.644   5.744  1.0589  1.5597 -3.5917
  226MOL0     H29805   6.768   2.788   5.849  1.5347  1.3246 -0.0420
  226MOL0     H29806   6.959   2.751   5.615 -2.9999 -1.5851 -0.6753
  226MOL0     H29807   6.930   2.895   5.723 -0.5726 -0.8395  0.8127
  226MOL0     H29808   6.693   2.891   5.650 -0.5488 -0.2629 -1.1878
  226MOL0     H29809   6.735   2.752   5.546  1.3045 -0.2625  0.4643
  226MOL0     H29810   6.834   3.030   5.517  2.8571  0.8386 -1.6061
  226MOL0     H29811   6.900   2.898   5.415  0.5179  1.2222 -0.0262
  226MOL0     H29812   6.597   2.966   5.428  0.0534  0.0071  0.0853
  226MOL0     H29813   6.696   2.864   5.315 -1.5589 -0.0410 -0.4167
  226MOL0     H29814   7.221   2.410   5.979  1.3381 -1.4694 -0.1297
  226MOL0     H29815   7.421   2.260   6.063 -0.7023 -2.4481  3.1405
  226MOL0     H29816   7.818   2.247   6.180 -1.5826  0.5607  0.2667
  226MOL0     H29817   8.049   2.146   6.208  0.0881  3.2883 -0.0795
  226MOL0     H29818  10.108   2.172   6.580 -1.3138 -0.1629  0.7433
  226MOL0     H29819  10.345   2.185   6.701  1.5649  2.5233  0.9489
  226MOL0     H29820  10.602   2.294   6.927  0.9151 -4.1791  0.2533
  226MOL0     H29821  10.813   2.370   6.988 -2.0010 -0.9227 -0.6790
  226MOL0     H29822  10.947   2.536   7.095 -0.1874  0.5052  1.0220
  226MOL0     H29823  11.030   2.393   7.107  1.9449  2.1135 -0.1002
  226MOL0     H29824  11.075   2.653   7.238  1.5218  0.5013  0.6154
  226MOL0     H29825  11.125   2.526   7.348 -2.0436  1.4703  1.4141
  226MOL0     H29826  11.243   2.597   7.069  0.3271 -0.4495 -0.9907
  226MOL0     H29827  11.282   2.442   7.138  1.3975  0.7385 -0.8689
  226MOL0     H29828  11.371   2.531   7.341 -2.5774 -0.7973 -0.5699
  226MOL0     H29829  11.451   2.579   7.187 -0.6546 -0.5114 -0.5524
  226MOL0     H29830  11.343   2.966   7.277  4.0713 -0.5148 -1.3696
  226MOL0     H29831  10.668   2.363   7.406 -1.8365 -2.1066  0.8202
  226MOL0     H29832  10.467   2.276   7.341 -2.9167  3.2823 -1.2063
  227MOL0     O29833   7.301   4.304   5.153 -0.1501  0.1578 -0.1511
  227MOL0     C29834   7.321   4.429   5.153  1.1316  0.4487  0.3222
  227MOL0     O29835   7.226   4.522   5.127 -0.2755 -0.4186  0.2358
  227MOL0     C29836   7.102   4.492   5.068  0.0256 -0.1316 -0.1349
  227MOL0     C29837   7.004   4.591   5.092 -0.2231 -0.0233 -0.2731
  227MOL0     C29838   6.877   4.565   5.039 -1.1391 -0.3939 -0.0989
  227MOL0     C29839   6.850   4.451   4.961  0.1212  0.1904  0.1620
  227MOL0     O29840   6.725   4.438   4.898 -0.1799  0.1023 -0.2255
  227MOL0     C29841   6.726   4.449   4.752  0.0050 -0.4467 -0.7756
  227MOL0     C29842   6.652   4.336   4.683  0.1452  0.6280 -0.7513
  227MOL0     C29843   6.735   4.207   4.679  0.1392  0.3955 -0.7826
  227MOL0     C29844   6.649   4.097   4.613 -0.5837 -0.0141  0.3603
  227MOL0     C29845   6.688   3.949   4.635 -0.0226  0.1610  0.4381
  227MOL0     C29846   6.613   3.860   4.537 -0.3498  0.3715 -0.0421
  227MOL0     C29847   6.461   3.863   4.560 -0.1224 -0.3650  0.0882
  227MOL0     C29848   6.412   3.808   4.694  0.8383  0.0163  0.5425
  227MOL0     N29849   6.267   3.808   4.722  0.0022 -0.3257 -0.0855
  227MOL0     C29850   6.206   3.898   4.804 -0.1565 -0.3884 -0.1407
  227MOL0     C29851   6.069   3.886   4.791 -0.1853  1.0973  0.5961
  227MOL0     C29852   5.963   3.952   4.860  0.2572  0.4978 -0.1772
  227MOL0     C29853   5.873   4.067   4.810  0.3891 -0.0878  0.0454
  227MOL0     C29854   5.728   4.065   4.872 -0.0045  0.8880  0.0606
  227MOL0     C29855   5.728   4.044   5.022 -0.9722  0.4558 -0.5352
  227MOL0     O29856   5.595   4.024   5.062  0.9109  0.2991  0.4834
  227MOL0     C29857   5.558   4.061   5.190 -0.2990  0.2336 -0.0561
  227MOL0     C29858   5.645   4.032   5.294  0.0064  0.4768  0.4641
  227MOL0     C29859   5.603   4.033   5.430  0.0941 -0.2836  0.0546
  227MOL0     C29860   5.475   4.078   5.458  0.5830 -1.2205  0.3324
  227MOL0     C29861   5.434   4.107   5.597  0.2046 -0.1483  0.0792
  227MOL0     O29862   5.485   4.044   5.701  0.2175  0.0727 -0.3311
  227MOL0     C29863   5.413   4.051   5.826  0.1189 -0.9568 -0.2768
  227MOL0     C29864   5.487   4.024   5.938  0.0784  0.7529  0.5040
  227MOL0     C29865   5.433   3.997   6.061  0.7625 -0.8980 -0.5580
  227MOL0     C29866   5.296   4.014   6.078 -0.2766  0.5178 -0.7576
  227MOL0     O29867   5.239   4.001   6.202 -0.2778 -1.0588 -0.0450
  227MOL0     C29868   5.266   4.132   6.270 -0.1275  0.2677  0.1696
  227MOL0     C29869   5.269   4.129   6.420  0.3577 -0.1547 -0.2255
  227MOL0     C29870   5.151   4.052   6.489  0.0791  0.1033 -0.7591
  227MOL0     C29871   5.020   4.099   6.429  0.4736 -0.2458 -0.1814
  227MOL0     C29872   4.897   4.043   6.510 -0.5050 -0.8304 -0.3857
  227MOL0     C29873   4.765   4.041   6.433  0.5204  0.2437  1.0852
  227MOL0     C29874   4.646   4.044   6.531  0.2814  0.3929  0.0428
  227MOL0     C29875   4.514   4.041   6.446 -1.4132  0.2521 -0.0597
  227MOL0    Cl29876   4.509   3.865   6.383 -0.3388  0.0515 -0.1201
  227MOL0     C29877   5.217   4.062   5.973  0.2066  1.3088  0.4744
  227MOL0     C29878   5.276   4.074   5.844 -0.5028  0.2720  0.2613
  227MOL0     O29879   5.366   4.205   5.601 -0.0913 -0.5875 -0.2234
  227MOL0     C29880   5.389   4.109   5.347  0.8666 -0.4748  0.8201
  227MOL0     C29881   5.429   4.100   5.222  0.2581 -0.4241  0.9816
  227MOL0     N29882   6.053   3.779   4.700  0.3210 -0.0020 -0.0381
  227MOL0     N29883   6.169   3.728   4.664  0.7486  0.5052 -0.7157
  227MOL0     C29884   6.952   4.360   4.941  0.9913 -0.3743 -0.5051
  227MOL0     C29885   7.075   4.374   4.992 -0.7039  0.8321 -0.3688
  227MOL0     C29886   7.461   4.461   5.150 -0.6118  0.0148  0.0843
  227MOL0     C29887   7.508   4.590   5.181 -0.3834  0.5983  0.1720
  227MOL0     C29888   7.648   4.623   5.179  1.3052 -0.3701  0.1523
  227MOL0     C29889   7.743   4.529   5.137 -0.1060  0.8633 -0.9537
  227MOL0     O29890   7.878   4.548   5.113 -0.1151  0.6448 -0.5848
  227MOL0     C29891   7.896   4.666   5.036  0.4483  0.5109 -0.2151
  227MOL0     C29892   8.044   4.653   4.982 -0.3764 -0.0483  0.8964
  227MOL0     C29893   8.157   4.642   5.099  0.2755 -0.4022  1.2813
  227MOL0     C29894   8.297   4.636   5.048  0.0909  0.0363  0.2735
  227MOL0     C29895   8.377   4.620   5.167  0.1519  0.0840 -0.8083
  227MOL0     C29896   8.445   4.604   5.265  0.4717 -0.4589 -0.3355
  227MOL0     C29897   7.704   4.397   5.120 -0.7102 -0.8937  0.3849
  227MOL0     C29898   7.568   4.367   5.127 -0.0354 -0.4030 -0.2640
  227MOL0     H29899   7.032   4.680   5.148  1.8338  0.7933 -2.4037
  227MOL0     H29900   6.807   4.648   5.043 -2.9531 -1.9011  1.6076
  227MOL0     H29901   6.829   4.456   4.713  0.6105  0.3925  0.8846
  227MOL0     H29902   6.683   4.544   4.720  2.3074  0.9769  0.1204
  227MOL0     H29903   6.610   4.355   4.584  0.7313 -1.8073 -1.5177
  227MOL0     H29904   6.564   4.315   4.744 -0.7532  2.3575 -1.3692
  227MOL0     H29905   6.759   4.187   4.784  3.0152  1.2515 -1.1637
  227MOL0     H29906   6.830   4.217   4.625  0.7545 -0.2285  0.1461
  227MOL0     H29907   6.550   4.108   4.658 -0.8441 -1.4660  0.1881
  227MOL0     H29908   6.625   4.118   4.508  1.7728 -3.2295 -0.9871
  227MOL0     H29909   6.670   3.913   4.737 -1.7959  0.8155  0.3907
  227MOL0     H29910   6.794   3.948   4.609 -0.1745  3.3504 -0.7615
  227MOL0     H29911   6.655   3.760   4.550 -0.0741  0.7033  2.0689
  227MOL0     H29912   6.646   3.888   4.437 -1.6798  3.3165  0.2144
  227MOL0     H29913   6.429   3.967   4.548 -1.3314 -0.7335  0.0340
  227MOL0     H29914   6.417   3.799   4.483 -0.4350 -0.0757  0.0222
  227MOL0     H29915   6.474   3.865   4.765  1.5675  2.2411 -1.7391
  227MOL0     H29916   6.444   3.704   4.706 -0.8858 -0.8363 -1.6257
  227MOL0     H29917   6.266   3.967   4.862 -1.2256  0.2118  0.2835
  227MOL0     H29918   6.007   3.996   4.949 -1.0414 -0.3533  0.9184
  227MOL0     H29919   5.900   3.866   4.883 -0.8476  1.0096 -1.1539
  227MOL0     H29920   5.860   4.046   4.703 -0.3603 -0.7138  0.2498
  227MOL0     H29921   5.914   4.168   4.814  2.8053 -1.0391  1.1887
  227MOL0     H29922   5.684   4.163   4.849  0.7718  1.0731 -0.6986
  227MOL0     H29923   5.671   3.987   4.822  1.1243  1.0716 -1.5891
  227MOL0     H29924   5.778   4.129   5.069 -1.8307  0.8410 -0.3091
  227MOL0     H29925   5.790   3.956   5.040 -1.1956  0.0524 -1.6241
  227MOL0     H29926   5.749   4.012   5.267 -0.2481 -0.6541  0.2495
  227MOL0     H29927   5.680   4.021   5.505  0.0764 -0.9296 -0.0292
  227MOL0     H29928   5.593   4.000   5.926 -0.4474 -0.9761 -1.3919
  227MOL0     H29929   5.484   3.986   6.156 -1.3123  2.9106  1.2487
  227MOL0     H29930   5.190   4.206   6.240  0.5331  1.3607  1.1299
  227MOL0     H29931   5.356   4.187   6.242  0.5608 -1.6635 -1.7463
  227MOL0     H29932   5.269   4.230   6.463 -2.0255 -0.2000  0.0536
  227MOL0     H29933   5.363   4.093   6.463  1.1867  1.9656 -0.1557
  227MOL0     H29934   5.153   4.081   6.594 -1.1276  0.7289 -0.8853
  227MOL0     H29935   5.167   3.944   6.479 -1.6627 -0.7271  3.4970
  227MOL0     H29936   5.016   4.208   6.436 -3.5588 -0.1324 -1.5772
  227MOL0     H29937   5.010   4.067   6.325 -0.2232  1.8487 -0.8153
  227MOL0     H29938   4.885   4.111   6.595  0.1873  0.6464 -1.4227
  227MOL0     H29939   4.925   3.944   6.547 -0.6838 -0.4670  0.7587
  227MOL0     H29940   4.766   3.945   6.381  0.1810  0.9709 -0.3259
  227MOL0     H29941   4.771   4.120   6.358 -3.0204  0.5843  0.9980
  227MOL0     H29942   4.641   3.956   6.595 -2.6094 -1.2585 -2.2047
  227MOL0     H29943   4.646   4.137   6.590  1.4577  1.8386 -2.1149
  227MOL0     H29944   4.525   4.097   6.353  1.9628 -0.1710 -0.0314
  227MOL0     H29945   4.425   4.060   6.508 -0.2213  0.6405  1.6127
  227MOL0     H29946   5.113   4.093   5.973 -0.9845 -1.9643 -2.7496
  227MOL0     H29947   5.211   4.109   5.764  1.0860  0.6522 -0.9225
  227MOL0     H29948   5.290   4.149   5.367  0.3133 -0.2533 -2.0349
  227MOL0     H29949   5.357   4.130   5.147 -0.0358  1.1133  1.8354
  227MOL0     H29950   6.928   4.268   4.890 -0.5927  0.2045 -0.8930
  227MOL0     H29951   7.148   4.297   4.970 -1.1101  0.5701 -0.8108
  227MOL0     H29952   7.446   4.679   5.177  0.4200  1.1278 -1.1897
  227MOL0     H29953   7.678   4.723   5.208 -0.5665  0.1339  0.4993
  227MOL0     H29954   7.885   4.760   5.090 -3.8706 -0.1188  0.3519
  227MOL0     H29955   7.832   4.665   4.947 -0.2548  0.6688  0.2808
  227MOL0     H29956   8.051   4.559   4.926  4.8956  1.7594 -2.2538
  227MOL0     H29957   8.063   4.736   4.913 -0.9310  0.0501  0.8591
  227MOL0     H29958   8.127   4.552   5.154 -3.4432 -1.0327 -1.3899
  227MOL0     H29959   8.144   4.728   5.166  2.0631  0.3936  0.6706
  227MOL0     H29960   8.310   4.551   4.980 -1.3723 -1.1711  1.4098
  227MOL0     H29961   8.331   4.729   5.001 -0.9250  0.7079  0.8438
  227MOL0     H29962   8.522   4.601   5.340 -1.5292  0.3206  1.8862
  227MOL0     H29963   7.781   4.323   5.104  0.2194 -0.3575  2.1189
  227MOL0     H29964   7.541   4.264   5.106  0.8616 -0.7715  0.3362
  228MOL0     O29965   1.968  10.738   5.637  0.3192 -0.3421 -0.1305
  228MOL0     C29966   2.002  10.836   5.569  0.6369  0.7967  0.0210
  228MOL0     O29967   1.912  10.937   5.529 -0.0985  0.0122 -0.5350
  228MOL0     C29968   1.776  10.916   5.547  0.2296 -0.1099 -0.1087
  228MOL0     C29969   1.693  10.938   5.439  0.3799 -0.3654 -0.5178
  228MOL0     C29970   1.555  10.907   5.453 -0.3662  0.0547 -0.8270
  228MOL0     C29971   1.495  10.869   5.578 -0.3865 -0.6140  0.1902
  228MOL0     O29972   1.360  10.845   5.594  0.1043 -0.4530  0.0800
  228MOL0     C29973   1.272  10.869   5.486  0.7639  0.4739 -0.7878
  228MOL0     C29974   1.131  10.833   5.531 -0.6699 -0.0842  0.4157
  228MOL0     C29975   1.028  10.840   5.415 -0.4780 -0.3936  0.3717
  228MOL0     C29976   0.893  10.798   5.462  0.1236  0.1731  0.2187
  228MOL0     C29977   0.776  10.816   5.362 -0.5903 -0.2274 -0.7320
  228MOL0     C29978   0.639  10.769   5.425 -0.2604  0.6570  0.2746
  228MOL0     C29979   0.519  10.819   5.349  0.1818  0.6420  0.3832
  228MOL0     C29980   0.391  10.751   5.402 -0.1901  0.0716 -0.2671
  228MOL0     N29981   0.269  10.799   5.321 -0.0714 -0.2988  0.5337
  228MOL0     C29982   0.208  10.719   5.224 -0.3462 -0.4806  0.7448
  228MOL0     C29983   0.097  10.790   5.197  1.3071 -0.7966 -0.6880
  228MOL0     C29984  -0.012  10.726   5.113 -0.9946 -1.0834  0.1226
  228MOL0     C29985   0.017  10.768   4.963 -0.0011  0.1613  0.3341
  228MOL0     C29986  -0.067  10.700   4.849  0.0819 -0.2830  0.7218
  228MOL0     C29987  -0.059  10.546   4.834  0.8130 -0.9215 -0.9597
  228MOL0     O29988  -0.140  10.492   4.732 -0.4344 -0.1471 -0.0504
  228MOL0     C29989  -0.271  10.464   4.735  0.0664 -0.0766  0.0841
  228MOL0     C29990  -0.325  10.395   4.622 -1.0896 -0.4747 -0.1160
  228MOL0     C29991  -0.459  10.370   4.607  0.6874 -0.0117  0.7471
  228MOL0     C29992  -0.551  10.388   4.707 -0.5095 -0.1021 -0.2844
  228MOL0     C29993  -0.697  10.356   4.700  0.6866 -0.5090  0.4183
  228MOL0     O29994  -0.763  10.339   4.820 -0.5561  0.1130  0.8327
  228MOL0     C29995  -0.902  10.324   4.811 -1.0339  0.2762 -1.0786
  228MOL0     C29996  -0.963  10.203   4.865 -0.8303  0.3794 -0.3096
  228MOL0     C29997  -1.105  10.192   4.861  0.3662  0.5145  0.6193
  228MOL0     C29998  -1.201  10.297   4.826 -1.0008  1.0729  0.5974
  228MOL0     O29999  -1.332  10.277   4.801  0.5539  0.0414 -0.0066
  228MOL0     C30000  -1.417  10.384   4.745 -0.0943 -0.0537  0.1614
  228MOL0     C30001  -1.551  10.318   4.710  0.5340  0.1125  0.5255
  228MOL0     C30002  -1.635  10.286   4.832 -0.4977 -1.1426  0.3135
  228MOL0     C30003  -1.675  10.424   4.900  1.1112  0.6195  0.0846
  228MOL0     C30004  -1.742  10.398   5.039  0.3094 -0.0493  0.4313
  228MOL0     C30005  -1.771  10.523   5.127  0.5722 -0.2030 -0.0527
  228MOL0     C30006  -1.657  10.609   5.152 -0.2657 -0.6971  0.1470
  228MOL0     C30007  -1.677  10.708   5.265  0.0732 -0.2162 -0.3167
  228MOL0    Cl30008  -1.826  10.809   5.266 -0.0387 -0.3398 -0.2655
  228MOL0     C30009  -1.135  10.415   4.790 -0.0702 -0.5727 -0.3523
  228MOL0     C30010  -0.995  10.430   4.788 -0.5185  0.6850 -0.6160
  228MOL0     O30011  -0.756  10.357   4.596  0.0463 -0.6661  0.0672
  228MOL0     C30012  -0.493  10.438   4.825  0.3477  0.2042 -0.7880
  228MOL0     C30013  -0.358  10.476   4.838 -0.0527 -0.0614 -0.9865
  228MOL0     N30014   0.083  10.902   5.280 -0.6367  0.1078  0.4500
  228MOL0     N30015   0.200  10.911   5.344 -0.0579  0.3219  0.2174
  228MOL0     C30016   1.589  10.841   5.683 -0.2536 -0.3919  0.5329
  228MOL0     C30017   1.723  10.875   5.674  0.5794  0.7576  0.0813
  228MOL0     C30018   2.151  10.855   5.563  1.1032 -0.7783 -0.0749
  228MOL0     C30019   2.195  10.988   5.552  0.5998 -0.0835 -0.0643
  228MOL0     C30020   2.324  11.027   5.539 -0.4945  0.1930  1.1124
  228MOL0     C30021   2.423  10.927   5.539 -0.3791  0.2002  1.0150
  228MOL0     O30022   2.556  10.946   5.538  0.1670  0.0290  0.1725
  228MOL0     C30023   2.608  11.084   5.542  0.5223  0.3187 -0.4057
  228MOL0     C30024   2.617  11.133   5.682 -1.0964 -0.5322 -0.0965
  228MOL0     C30025   2.721  11.051   5.767  0.3340 -0.5620 -0.0157
  228MOL0     C30026   2.867  11.091   5.740  0.8484  0.1832 -0.1885
  228MOL0     C30027   2.952  11.010   5.826  0.0529 -0.0692  0.7909
  228MOL0     C30028   3.017  10.951   5.909 -0.2956  0.1539  0.5567
  228MOL0     C30029   2.379  10.795   5.542  0.5455 -0.3434  0.3005
  228MOL0     C30030   2.242  10.757   5.557 -0.9069  0.3717  0.4233
  228MOL0     H30031   1.726  10.951   5.337  0.9520  0.4818 -0.2347
  228MOL0     H30032   1.494  10.903   5.364  1.0684 -1.9593 -1.7939
  228MOL0     H30033   1.299  10.795   5.410 -0.3679  0.6058 -1.3396
  228MOL0     H30034   1.274  10.975   5.457 -0.4926  1.2964  1.8885
  228MOL0     H30035   1.108  10.901   5.614  1.9899  3.0936 -1.2185
  228MOL0     H30036   1.134  10.727   5.558 -1.6480 -0.3082 -0.3280
  228MOL0     H30037   1.055  10.780   5.328  0.7804  1.0706 -0.3028
  228MOL0     H30038   1.024  10.943   5.377  0.1226  0.0245  1.4102
  228MOL0     H30039   0.902  10.690   5.475  0.2703  0.1951  0.2942
  228MOL0     H30040   0.872  10.849   5.556  2.2126 -0.2422  0.9586
  228MOL0     H30041   0.788  10.763   5.267  0.7552 -0.9243 -0.2084
  228MOL0     H30042   0.776  10.925   5.356 -1.2806 -0.0566  1.5592
  228MOL0     H30043   0.631  10.800   5.529  2.6043 -0.5615  0.9592
  228MOL0     H30044   0.647  10.660   5.428  0.8404  0.7216 -0.1442
  228MOL0     H30045   0.503  10.926   5.364  0.8644  1.6147 -4.1794
  228MOL0     H30046   0.536  10.805   5.242  0.1728 -0.7550  0.5477
  228MOL0     H30047   0.366  10.781   5.504 -1.3202 -1.7140  0.0276
  228MOL0     H30048   0.393  10.642   5.391  0.4681  0.1488 -0.9991
  228MOL0     H30049   0.246  10.628   5.179  1.5190 -0.6204  2.4885
  228MOL0     H30050  -0.110  10.762   5.148 -0.7275  0.1967 -0.4214
  228MOL0     H30051  -0.010  10.618   5.132  2.8614 -0.8585  1.9517
  228MOL0     H30052   0.123  10.751   4.944  0.3052  2.8850 -0.8421
  228MOL0     H30053   0.010  10.877   4.958  2.6264  0.3470 -1.7806
  228MOL0     H30054  -0.167  10.741   4.866  0.8615  1.9467  0.3131
  228MOL0     H30055  -0.025  10.739   4.756  0.0596 -1.4684  0.1938
  228MOL0     H30056  -0.092  10.513   4.933  3.3027  0.7743  0.5532
  228MOL0     H30057   0.040  10.501   4.822  0.1672 -1.7831 -3.5214
  228MOL0     H30058  -0.259  10.387   4.537 -1.4847  0.1864 -0.4966
  228MOL0     H30059  -0.489  10.343   4.507 -3.0962 -2.5332  2.3086
  228MOL0     H30060  -0.909  10.119   4.906 -1.7238  0.8897  2.0872
  228MOL0     H30061  -1.152  10.104   4.904 -0.7614  0.9052  0.2077
  228MOL0     H30062  -1.371  10.417   4.651 -1.2762 -0.6386 -0.6472
  228MOL0     H30063  -1.423  10.476   4.804 -0.2925  0.6452 -0.9085
  228MOL0     H30064  -1.545  10.220   4.661 -0.1109  0.2475  0.1619
  228MOL0     H30065  -1.610  10.378   4.641 -0.0599  1.4624  2.1346
  228MOL0     H30066  -1.581  10.214   4.896 -0.7287 -0.9957  0.6785
  228MOL0     H30067  -1.726  10.233   4.801 -2.4016 -0.3907  4.0339
  228MOL0     H30068  -1.579  10.476   4.914  2.2342 -1.0264 -1.1373
  228MOL0     H30069  -1.741  10.482   4.834  0.9157 -0.6897 -0.9073
  228MOL0     H30070  -1.678  10.322   5.084 -1.4449 -0.5365  2.2596
  228MOL0     H30071  -1.838  10.346   5.028 -1.5810  2.8264  1.9495
  228MOL0     H30072  -1.815  10.484   5.219  0.9007  1.1397  0.6927
  228MOL0     H30073  -1.842  10.595   5.086  2.2530  0.3899 -2.1076
  228MOL0     H30074  -1.564  10.552   5.153 -1.3655 -2.5821  2.0039
  228MOL0     H30075  -1.649  10.671   5.062 -0.9381  1.1524  1.3141
  228MOL0     H30076  -1.591  10.775   5.276  0.2007 -0.3203 -0.6663
  228MOL0     H30077  -1.679  10.650   5.358 -0.6323 -1.1110 -0.8785
  228MOL0     H30078  -1.191  10.496   4.746  0.9838 -0.1116 -0.8663
  228MOL0     H30079  -0.952  10.522   4.750  0.0414  0.4253 -0.6218
  228MOL0     H30080  -0.536  10.451   4.924  1.8749 -0.3544 -0.0144
  228MOL0     H30081  -0.314  10.524   4.924  2.3270  1.3408 -2.8508
  228MOL0     H30082   1.551  10.788   5.770  0.2387  1.7964  2.1610
  228MOL0     H30083   1.790  10.864   5.759  0.4969 -0.4284  0.0135
  228MOL0     H30084   2.122  11.068   5.556  1.1789  0.4709 -0.4461
  228MOL0     H30085   2.336  11.135   5.533 -0.8301  0.1774 -3.1069
  228MOL0     H30086   2.546  11.156   5.487  3.9548  3.1253 -1.0088
  228MOL0     H30087   2.707  11.085   5.496  0.4631  0.3798 -0.5325
  228MOL0     H30088   2.663  11.232   5.676  1.6441 -1.7620 -0.6368
  228MOL0     H30089   2.516  11.154   5.719 -1.2105 -0.0988 -0.6402
  228MOL0     H30090   2.694  10.947   5.746 -0.7504 -0.0458 -1.3228
  228MOL0     H30091   2.697  11.067   5.873  0.8884  0.3696 -0.0153
  228MOL0     H30092   2.886  11.079   5.632  1.0396 -1.0999 -0.0229
  228MOL0     H30093   2.879  11.198   5.759 -0.2626  0.4447 -0.8531
  228MOL0     H30094   3.067  10.886   5.978  1.6913 -0.5340 -1.3898
  228MOL0     H30095   2.460  10.726   5.517  2.1226  2.1392 -2.0314
  228MOL0     H30096   2.210  10.653   5.555 -0.2791  0.1841 -0.4759
  229MOL0     O30097   4.601   8.206  10.817  0.0001  0.1307  0.8957
  229MOL0     C30098   4.553   8.130  10.728 -1.0488  0.0787 -0.3138
  229MOL0     O30099   4.625   8.059  10.632 -0.5942 -0.0823  1.0721
  229MOL0     C30100   4.758   8.106  10.612 -0.0211 -0.5261 -0.2607
  229MOL0     C30101   4.774   8.225  10.536  0.6603  0.4596 -0.6325
  229MOL0     C30102   4.908   8.265  10.511 -0.7548  0.0964 -0.8609
  229MOL0     C30103   5.010   8.185  10.571 -0.4884 -0.4114  0.4052
  229MOL0     O30104   5.131   8.243  10.539  0.4015 -0.1599  0.2993
  229MOL0     C30105   5.175   8.333  10.638 -1.0085 -1.2402 -0.2239
  229MOL0     C30106   5.297   8.422  10.600  0.8617 -0.3025  0.0238
  229MOL0     C30107   5.420   8.333  10.583 -0.4701  0.0348 -0.5865
  229MOL0     C30108   5.541   8.395  10.520  0.0144 -0.5426 -0.3364
  229MOL0     C30109   5.656   8.301  10.503  0.1032 -0.1037  0.5478
  229MOL0     C30110   5.766   8.377  10.438 -0.5682  1.0212  0.4477
  229MOL0     C30111   5.887   8.286  10.404 -0.3143 -0.1637  0.5451
  229MOL0     C30112   5.908   8.217  10.261 -0.1057 -0.6042  0.3068
  229MOL0     N30113   5.821   8.101  10.236 -0.5805 -0.0171  0.1717
  229MOL0     C30114   5.707   8.108  10.167  0.3597  0.3391 -0.1580
  229MOL0     C30115   5.647   7.986  10.188 -0.4566 -0.4588  0.3024
  229MOL0     C30116   5.513   7.950  10.123 -0.7771 -0.1495  0.5303
  229MOL0     C30117   5.400   7.933  10.225  0.1508 -0.3376  0.5031
  229MOL0     C30118   5.359   8.054  10.306  0.5356 -0.4885 -0.3033
  229MOL0     C30119   5.351   8.185  10.225 -0.3157 -0.3014 -1.0805
  229MOL0     O30120   5.275   8.180  10.106 -0.1312  0.8917  0.4625
  229MOL0     C30121   5.139   8.163  10.101 -0.4456  0.4348  0.7906
  229MOL0     C30122   5.083   8.172   9.979  0.5322 -0.1505 -0.2145
  229MOL0     C30123   4.945   8.170   9.962 -0.1109  0.3295  0.0723
  229MOL0     C30124   4.859   8.149  10.072  0.8144  0.3528  0.0911
  229MOL0     C30125   4.716   8.128  10.065  0.5859 -1.1082  0.0479
  229MOL0     O30126   4.653   8.049  10.160 -0.3367 -0.2941  0.1783
  229MOL0     C30127   4.518   8.017  10.150  0.9625 -0.4791  0.2064
  229MOL0     C30128   4.418   8.113  10.120 -0.6052  0.3407  0.2604
  229MOL0     C30129   4.282   8.077  10.105 -0.4989  0.3699  0.0816
  229MOL0     C30130   4.240   7.940  10.126 -0.2923 -0.5233  0.1715
  229MOL0     O30131   4.109   7.897  10.123 -0.4396  0.9344 -0.5432
  229MOL0     C30132   4.017   7.978  10.186 -0.3631 -0.8730 -0.5696
  229MOL0     C30133   3.893   7.896  10.220  0.1660  0.5257  1.0965
  229MOL0     C30134   3.818   7.839  10.099 -0.1298 -0.5943 -0.1423
  229MOL0     C30135   3.694   7.762  10.130  0.1332  0.1144 -1.0401
  229MOL0     C30136   3.637   7.712   9.999 -0.4897  0.1749 -0.1484
  229MOL0     C30137   3.509   7.642  10.031 -0.9710  0.4510 -0.6330
  229MOL0     C30138   3.418   7.604   9.912 -0.2199 -0.1051 -0.1014
  229MOL0     C30139   3.306   7.506   9.946 -0.4556 -0.3293  0.8007
  229MOL0    Cl30140   3.213   7.577  10.072 -0.1164 -0.2549 -0.1950
  229MOL0     C30141   4.331   7.858  10.172  0.2008  0.2178 -0.0859
  229MOL0     C30142   4.471   7.890  10.182  0.0082 -0.1166 -0.6961
  229MOL0     O30143   4.664   8.168   9.964 -0.5278 -0.5238 -0.1679
  229MOL0     C30144   4.914   8.153  10.198 -0.0420 -0.1123  0.8515
  229MOL0     C30145   5.056   8.160  10.210 -0.1159  0.2620 -0.8483
  229MOL0     N30146   5.726   7.907  10.281  0.3523  0.4021  0.4086
  229MOL0     N30147   5.829   7.986  10.298  0.2406 -0.3574 -0.8174
  229MOL0     C30148   5.000   8.076  10.649  0.0217  0.4892 -0.1360
  229MOL0     C30149   4.868   8.040  10.676  0.9267  0.5363  0.4537
  229MOL0     C30150   4.406   8.122  10.706 -0.0205  0.5083  0.5699
  229MOL0     C30151   4.345   8.088  10.578 -0.5348  0.7486  0.4968
  229MOL0     C30152   4.209   8.071  10.562 -0.2800 -0.3846 -0.3477
  229MOL0     C30153   4.126   8.097  10.666 -0.6094 -0.3026 -0.0162
  229MOL0     O30154   3.991   8.091  10.635 -0.6774 -0.3073  0.1668
  229MOL0     C30155   3.903   8.118  10.746 -0.6644  0.8312  0.4767
  229MOL0     C30156   3.763   8.074  10.709 -0.1397 -0.0477 -0.0437
  229MOL0     C30157   3.743   7.919  10.684 -0.1775  0.0177  1.2792
  229MOL0     C30158   3.596   7.876  10.630  1.3741 -0.8563 -0.2390
  229MOL0     C30159   3.497   7.955  10.701 -0.4259  0.6865  0.2474
  229MOL0     C30160   3.408   8.011  10.764 -0.8011 -0.6867 -0.5143
  229MOL0     C30161   4.184   8.127  10.793  0.1749  0.8431 -0.4487
  229MOL0     C30162   4.323   8.137  10.811  0.4357 -0.2691 -1.2395
  229MOL0     H30163   4.693   8.289  10.501  0.0646  0.3193  0.4607
  229MOL0     H30164   4.937   8.350  10.451 -0.5814  1.9309  1.6461
  229MOL0     H30165   5.219   8.278  10.722 -1.1709 -3.4850 -1.5295
  229MOL0     H30166   5.086   8.393  10.657 -0.4510 -0.3738 -0.2967
  229MOL0     H30167   5.295   8.492  10.684 -0.7166  0.1760 -0.3732
  229MOL0     H30168   5.267   8.460  10.502 -4.3216  0.8434  1.6998
  229MOL0     H30169   5.393   8.260  10.506 -1.4556  1.5125 -1.6938
  229MOL0     H30170   5.448   8.296  10.682  1.3363  2.5017 -0.0977
  229MOL0     H30171   5.512   8.426  10.419  1.1660 -0.4668 -0.6654
  229MOL0     H30172   5.574   8.476  10.587  2.2966 -2.6735  1.3188
  229MOL0     H30173   5.626   8.206  10.457  1.9891 -1.0135  1.0926
  229MOL0     H30174   5.696   8.284  10.603  2.2495  0.5810 -0.1412
  229MOL0     H30175   5.798   8.443  10.519  0.0098 -0.5949  1.5763
  229MOL0     H30176   5.741   8.443  10.354  0.8507  2.9300  1.4469
  229MOL0     H30177   5.970   8.357  10.411 -0.4511  0.2307 -1.2083
  229MOL0     H30178   5.914   8.213  10.481  0.4814 -2.1359 -1.4961
  229MOL0     H30179   6.006   8.169  10.257  0.5452  0.7848 -1.5924
  229MOL0     H30180   5.899   8.291  10.181 -1.3521  2.1969  2.8103
  229MOL0     H30181   5.684   8.187  10.096  2.9038  0.0052 -1.4984
  229MOL0     H30182   5.527   7.852  10.077  1.7304  0.2348  0.3486
  229MOL0     H30183   5.478   8.009  10.038 -3.0862 -5.0124 -2.3538
  229MOL0     H30184   5.434   7.855  10.294 -0.9862 -0.7668  0.6064
  229MOL0     H30185   5.311   7.887  10.181  2.4043 -4.2341 -0.4730
  229MOL0     H30186   5.271   8.040  10.368 -0.6133  3.4734 -0.7409
  229MOL0     H30187   5.437   8.063  10.382 -1.2033 -1.6702  1.6982
  229MOL0     H30188   5.448   8.225  10.192 -0.3793  1.3279  0.5374
  229MOL0     H30189   5.309   8.270  10.281 -1.4864  0.1276 -2.5564
  229MOL0     H30190   5.144   8.182   9.889  2.3257  4.9462  1.2161
  229MOL0     H30191   4.910   8.192   9.862  3.0883  1.9882 -0.8130
  229MOL0     H30192   4.442   8.216  10.095  4.1853 -0.9646 -1.5801
  229MOL0     H30193   4.209   8.155  10.085 -1.9116  0.1320  3.7128
  229MOL0     H30194   3.982   8.052  10.113 -1.8919  1.0263  1.9396
  229MOL0     H30195   4.050   8.031  10.276 -0.8554  0.9935 -1.4380
  229MOL0     H30196   3.821   7.958  10.275 -2.8889 -1.9984  0.2596
  229MOL0     H30197   3.920   7.824  10.298 -0.6948 -1.2508 -0.1745
  229MOL0     H30198   3.886   7.777  10.039 -0.5641 -1.4906  0.2665
  229MOL0     H30199   3.794   7.918  10.027  0.6321 -1.3959 -1.3198
  229MOL0     H30200   3.714   7.671  10.188  0.7312  0.0753 -1.3055
  229MOL0     H30201   3.630   7.822  10.195  1.7388 -2.0580  2.9189
  229MOL0     H30202   3.712   7.655   9.944 -1.2543 -0.6687 -0.3453
  229MOL0     H30203   3.612   7.790   9.927  0.1574  1.8568  1.3854
  229MOL0     H30204   3.458   7.707  10.103  2.7610  1.8470  0.9958
  229MOL0     H30205   3.524   7.547  10.082  1.1097  0.9274 -0.2791
  229MOL0     H30206   3.364   7.690   9.873 -1.0209 -1.2477 -1.6503
  229MOL0     H30207   3.490   7.563   9.840  0.2802 -1.2864  1.0340
  229MOL0     H30208   3.346   7.408   9.972  0.0894 -0.0523  1.0189
  229MOL0     H30209   3.245   7.486   9.857  1.7326 -0.8440 -0.7016
  229MOL0     H30210   4.298   7.766  10.219  0.8492 -0.2607 -0.5507
  229MOL0     H30211   4.533   7.807  10.215 -0.9272 -0.6579 -0.2537
  229MOL0     H30212   4.843   8.145  10.280  1.4567 -0.2565  2.1621
  229MOL0     H30213   5.112   8.163  10.303  0.7875 -0.0579 -1.3791
  229MOL0     H30214   5.083   8.029  10.701 -0.0856  0.8913  0.4064
  229MOL0     H30215   4.837   7.952  10.733 -2.4230  0.1343 -1.7000
  229MOL0     H30216   4.415   8.064  10.499 -0.1181  1.7989  0.5314
  229MOL0     H30217   4.166   8.025  10.474  0.3668 -1.8928  0.1020
  229MOL0     H30218   3.905   8.224  10.769 -4.1151  0.9638  0.7916
  229MOL0     H30219   3.937   8.064  10.834 -1.1120 -1.6463 -0.7680
  229MOL0     H30220   3.698   8.101  10.792 -1.2454 -2.0979 -0.1581
  229MOL0     H30221   3.722   8.127  10.622 -1.0673 -0.4140  0.1485
  229MOL0     H30222   3.772   7.874  10.779  1.6475  0.0014  0.7437
  229MOL0     H30223   3.812   7.897  10.601 -0.5938 -0.2051  0.9863
  229MOL0     H30224   3.585   7.896  10.523  2.0398 -0.6701 -0.2745
  229MOL0     H30225   3.578   7.769  10.646  0.4577 -0.4205  2.0162
  229MOL0     H30226   3.323   8.041  10.822 -0.8456  0.9702 -1.3692
  229MOL0     H30227   4.120   8.136  10.880  1.7283  1.0905  0.7128
  229MOL0     H30228   4.363   8.143  10.912 -0.9137  1.1040 -0.7392
  230MOL0     O30229   3.853   6.761   5.944  0.2759 -0.4985 -0.4994
  230MOL0     C30230   3.931   6.670   5.965 -0.1071  0.3970  0.1388
  230MOL0     O30231   3.902   6.541   6.008  0.0147 -0.5910  0.3725
  230MOL0     C30232   3.771   6.512   6.021 -0.1550 -0.2279  0.5780
  230MOL0     C30233   3.677   6.559   6.109 -0.7579 -0.0437 -0.7000
  230MOL0     C30234   3.548   6.523   6.107 -0.0285  0.9041 -0.4905
  230MOL0     C30235   3.505   6.414   6.029 -0.6825 -0.0643  0.6275
  230MOL0     O30236   3.379   6.354   6.025  0.5021  0.6203 -0.2494
  230MOL0     C30237   3.283   6.429   6.097 -0.5592 -1.4974 -0.0781
  230MOL0     C30238   3.142   6.407   6.041 -0.4042 -0.0020  0.0284
  230MOL0     C30239   3.027   6.477   6.113 -0.1504  0.0641 -0.0416
  230MOL0     C30240   3.013   6.628   6.094  0.5045 -0.3019 -0.3130
  230MOL0     C30241   2.930   6.706   6.209  0.0849  0.5981  0.6735
  230MOL0     C30242   2.788   6.644   6.248 -0.5925  0.0062  0.4332
  230MOL0     C30243   2.690   6.750   6.273 -0.3953 -0.9819  0.1573
  230MOL0     C30244   2.718   6.827   6.408  0.9943 -0.1434 -0.2678
  230MOL0     N30245   2.599   6.848   6.504  0.0769  0.0592  0.1731
  230MOL0     C30246   2.482   6.919   6.495 -0.7671 -0.2036 -0.1624
  230MOL0     C30247   2.410   6.901   6.605 -0.5419  0.3477  0.0770
  230MOL0     C30248   2.282   6.959   6.644  0.1739  0.4501  0.3774
  230MOL0     C30249   2.181   6.849   6.627  0.7030  0.0653 -0.8071
  230MOL0     C30250   2.026   6.868   6.634 -0.2538  0.0300  0.2711
  230MOL0     C30251   1.989   6.960   6.528  0.2083 -0.0426  0.0349
  230MOL0     O30252   1.844   6.943   6.489 -0.6570  0.0646 -0.0868
  230MOL0     C30253   1.804   6.841   6.413 -0.9867 -0.0100  0.2337
  230MOL0     C30254   1.883   6.733   6.368 -0.8007  0.2634  0.4132
  230MOL0     C30255   1.814   6.635   6.294  0.2421 -0.6313  0.4357
  230MOL0     C30256   1.677   6.632   6.264  0.5677 -0.1085  0.3367
  230MOL0     C30257   1.625   6.543   6.166 -0.0043  0.3129 -0.5984
  230MOL0     O30258   1.494   6.570   6.122 -0.7063  0.3701  0.0918
  230MOL0     C30259   1.438   6.474   6.040  0.8924 -0.5709  0.8595
  230MOL0     C30260   1.420   6.340   6.074 -0.2816 -0.9876 -0.0457
  230MOL0     C30261   1.373   6.249   5.982 -0.0613 -0.5705  0.1354
  230MOL0     C30262   1.324   6.293   5.853 -0.0880 -0.0128 -0.5897
  230MOL0     O30263   1.275   6.185   5.785  0.5450 -0.1670  0.3210
  230MOL0     C30264   1.243   6.212   5.650  0.1893 -0.0191  0.4537
  230MOL0     C30265   1.216   6.071   5.591  0.8225  0.5035  0.7768
  230MOL0     C30266   1.082   6.004   5.645  0.7067  1.1504 -0.1506
  230MOL0     C30267   1.065   5.871   5.575 -0.0618 -0.3729  0.2211
  230MOL0     C30268   0.946   5.787   5.616 -0.6848 -0.8960  0.5377
  230MOL0     C30269   0.813   5.860   5.593 -0.6724  0.1133 -0.4462
  230MOL0     C30270   0.697   5.790   5.669 -0.9379  0.7642 -0.6357
  230MOL0     C30271   0.585   5.870   5.756  0.3920  0.7221  0.6556
  230MOL0    Cl30272   0.630   5.910   5.921 -0.2170  0.0682 -0.0346
  230MOL0     C30273   1.331   6.433   5.827  0.2666  0.6778  0.2257
  230MOL0     C30274   1.382   6.517   5.923  0.5131  0.4136 -0.4198
  230MOL0     O30275   1.688   6.448   6.132 -0.1205  0.7332  0.1767
  230MOL0     C30276   1.601   6.747   6.312 -0.2495 -0.6558 -0.8996
  230MOL0     C30277   1.665   6.846   6.386  0.8184 -0.0225  0.6464
  230MOL0     N30278   2.486   6.814   6.680  0.3301 -0.7154  0.0616
  230MOL0     N30279   2.605   6.799   6.633 -0.3648  0.2964  0.3053
  230MOL0     C30280   3.600   6.358   5.946  0.9030 -0.5250 -0.0640
  230MOL0     C30281   3.724   6.412   5.932 -1.3654  0.4263 -1.0005
  230MOL0     C30282   4.075   6.689   5.924  0.5648  0.6417 -0.3798
  230MOL0     C30283   4.108   6.802   5.843 -1.3590  0.1416  0.1403
  230MOL0     C30284   4.236   6.811   5.798 -0.6114 -0.4203 -1.0182
  230MOL0     C30285   4.330   6.712   5.826 -0.4289  0.2438  0.3644
  230MOL0     O30286   4.457   6.719   5.774 -0.4632  0.1485  0.4198
  230MOL0     C30287   4.515   6.842   5.715  0.0609 -0.1291  0.3811
  230MOL0     C30288   4.659   6.864   5.773  0.8372  0.3864  0.4887
  230MOL0     C30289   4.664   6.850   5.929  0.0770  0.4528  0.1479
  230MOL0     C30290   4.792   6.911   5.987  0.4966  0.6894 -0.3167
  230MOL0     C30291   4.904   6.842   5.922  0.5208 -0.0940  0.3835
  230MOL0     C30292   4.982   6.778   5.859 -0.4481 -0.2841 -0.2294
  230MOL0     C30293   4.305   6.612   5.915  1.1506 -0.5855 -0.0821
  230MOL0     C30294   4.177   6.594   5.965  0.8127 -0.1140 -0.7481
  230MOL0     H30295   3.711   6.632   6.181 -1.4316 -1.0307  0.6587
  230MOL0     H30296   3.487   6.570   6.183 -1.9722  2.5469 -2.9160
  230MOL0     H30297   3.300   6.538   6.096 -0.3061 -1.5098  1.1605
  230MOL0     H30298   3.286   6.407   6.204 -0.6152  0.4155  0.3625
  230MOL0     H30299   3.119   6.300   6.048 -1.6951  0.0864 -1.9861
  230MOL0     H30300   3.139   6.444   5.938 -0.7754  1.0285  0.3993
  230MOL0     H30301   3.043   6.447   6.217 -0.1735 -1.3507 -0.4250
  230MOL0     H30302   2.930   6.433   6.091 -0.4293 -0.6311  2.3790
  230MOL0     H30303   3.114   6.668   6.082  1.0467 -1.6633 -0.3471
  230MOL0     H30304   2.957   6.642   6.001  1.4958 -1.9439 -1.2002
  230MOL0     H30305   2.907   6.808   6.178 -2.2885 -0.3749 -1.1080
  230MOL0     H30306   2.987   6.717   6.302 -1.6969  3.5033  1.5376
  230MOL0     H30307   2.793   6.587   6.341 -0.7574  0.8344  0.9551
  230MOL0     H30308   2.764   6.568   6.173  3.1105 -0.8589 -0.0638
  230MOL0     H30309   2.709   6.832   6.204  1.6306  2.3374  4.1752
  230MOL0     H30310   2.591   6.706   6.267  0.6492 -3.6244  0.8025
  230MOL0     H30311   2.738   6.931   6.384 -0.0039  0.1581  0.1848
  230MOL0     H30312   2.799   6.785   6.469  0.4626  0.1327  0.6357
  230MOL0     H30313   2.455   6.983   6.411  2.5624 -1.2236 -2.2156
  230MOL0     H30314   2.256   7.037   6.572  2.4017  0.3132 -0.6825
  230MOL0     H30315   2.278   6.996   6.747 -0.7129 -1.7308  1.1784
  230MOL0     H30316   2.212   6.778   6.705 -0.7603  0.8927  0.6044
  230MOL0     H30317   2.196   6.796   6.532  0.4931 -0.2838 -0.6482
  230MOL0     H30318   1.978   6.772   6.612  0.0652  0.5048 -2.8661
  230MOL0     H30319   1.996   6.914   6.729  0.7780  1.1042  0.0997
  230MOL0     H30320   2.064   6.944   6.450 -1.3053 -2.0643 -1.1033
  230MOL0     H30321   2.011   7.062   6.560 -0.0826  0.1425 -0.3450
  230MOL0     H30322   1.985   6.715   6.398 -0.6583  2.7500  1.5863
  230MOL0     H30323   1.879   6.553   6.265  1.1278  0.4125 -0.7078
  230MOL0     H30324   1.455   6.321   6.175 -0.1956  3.0715  0.8489
  230MOL0     H30325   1.372   6.144   6.007 -1.4209 -0.7933 -0.6946
  230MOL0     H30326   1.330   6.262   5.606 -0.2901 -0.6472 -1.2789
  230MOL0     H30327   1.155   6.277   5.650 -2.4155 -3.1773 -2.2347
  230MOL0     H30328   1.304   6.008   5.606  0.1629 -0.1868  1.8436
  230MOL0     H30329   1.205   6.090   5.484 -0.9590  2.1534  1.1870
  230MOL0     H30330   0.995   6.065   5.619 -0.5783 -0.7357 -0.4691
  230MOL0     H30331   1.086   5.993   5.753 -0.0518 -1.2778 -0.3042
  230MOL0     H30332   1.071   5.885   5.466  1.0745  2.1369  0.5328
  230MOL0     H30333   1.151   5.815   5.614 -1.0771 -1.3353  1.1410
  230MOL0     H30334   0.957   5.765   5.722 -2.5536  0.4491  1.0563
  230MOL0     H30335   0.950   5.691   5.563  0.0460 -0.0635 -0.9950
  230MOL0     H30336   0.775   5.834   5.493  0.4100 -4.4555  0.1238
  230MOL0     H30337   0.820   5.967   5.617 -2.5279 -0.1274  1.4133
  230MOL0     H30338   0.660   5.712   5.602  2.2769 -3.0851  1.6246
  230MOL0     H30339   0.751   5.736   5.748 -2.9555 -1.2866 -0.5345
  230MOL0     H30340   0.491   5.814   5.753 -0.4450  2.1009  0.0982
  230MOL0     H30341   0.574   5.965   5.704 -0.2939  0.6836  0.7277
  230MOL0     H30342   1.279   6.458   5.735  1.1215 -1.8867 -1.0579
  230MOL0     H30343   1.394   6.621   5.891  2.1562  0.6049  0.7233
  230MOL0     H30344   1.497   6.770   6.295  0.3518  3.8992  0.4656
  230MOL0     H30345   1.609   6.929   6.428  1.1253 -0.4103  1.8851
  230MOL0     H30346   3.576   6.278   5.876  0.1645  1.8816 -2.7444
  230MOL0     H30347   3.795   6.369   5.862 -2.5120 -1.2990 -1.1591
  230MOL0     H30348   4.045   6.890   5.839 -0.0826  1.1594  1.2171
  230MOL0     H30349   4.248   6.901   5.738  0.0848  0.8798  0.9525
  230MOL0     H30350   4.457   6.934   5.725  2.7934  2.4340 -3.7958
  230MOL0     H30351   4.514   6.828   5.606 -2.4817 -2.0150  0.5576
  230MOL0     H30352   4.720   6.778   5.741 -2.9125 -2.4060  0.0517
  230MOL0     H30353   4.681   6.969   5.752 -2.1423  0.9478 -0.2572
  230MOL0     H30354   4.656   6.747   5.964  1.0408  0.7895  1.4360
  230MOL0     H30355   4.574   6.897   5.971  0.7348  2.2929 -0.4056
  230MOL0     H30356   4.780   7.014   5.954 -3.3032  0.2038 -0.9775
  230MOL0     H30357   4.796   6.909   6.096  0.7174 -3.8080 -0.2023
  230MOL0     H30358   5.059   6.723   5.808 -0.6754 -0.4578 -0.3850
  230MOL0     H30359   4.394   6.555   5.940  1.8462  0.3885 -0.2593
  230MOL0     H30360   4.150   6.515   6.035  3.0073  0.8205  1.2911
  231MOL0     O30361   3.365   4.598   3.737  0.4624  0.4616 -0.2845
  231MOL0     C30362   3.403   4.608   3.852  0.0699  0.8300  0.0768
  231MOL0     O30363   3.319   4.638   3.958  0.4360 -0.1935  1.0378
  231MOL0     C30364   3.194   4.565   3.976  0.4571  0.1411  0.2751
  231MOL0     C30365   3.117   4.603   4.083 -1.2881 -0.3566  0.2495
  231MOL0     C30366   2.979   4.562   4.082 -0.8629 -0.7475  0.9700
  231MOL0     C30367   2.927   4.485   3.985 -0.1694  0.5134  0.0201
  231MOL0     O30368   2.789   4.458   4.001  0.2286 -0.3390  0.1686
  231MOL0     C30369   2.712   4.435   3.884 -0.6861 -0.1577  0.0045
  231MOL0     C30370   2.692   4.283   3.873 -1.0296  0.1981  1.3405
  231MOL0     C30371   2.583   4.249   3.781  0.1981  0.0576 -0.1060
  231MOL0     C30372   2.575   4.099   3.727  0.4092  0.1870 -0.9367
  231MOL0     C30373   2.464   4.082   3.618  0.5633 -0.8650 -0.3678
  231MOL0     C30374   2.325   4.058   3.688 -0.5290  0.7740  0.6509
  231MOL0     C30375   2.214   4.072   3.581 -0.3363 -0.7534 -0.2682
  231MOL0     C30376   2.076   4.030   3.647 -0.0691  0.2752 -0.2209
  231MOL0     N30377   1.965   4.015   3.551 -0.2248 -0.2588  0.6454
  231MOL0     C30378   1.955   3.944   3.429 -0.0477 -0.3988 -0.1186
  231MOL0     C30379   1.833   3.983   3.379  0.2401  1.1354  0.7549
  231MOL0     C30380   1.769   3.952   3.250  0.5507  0.1652  1.2031
  231MOL0     C30381   1.638   4.027   3.225  0.0387  0.1342 -0.6765
  231MOL0     C30382   1.564   3.970   3.110 -0.2133  1.1037 -0.8108
  231MOL0     C30383   1.439   4.035   3.075 -0.5659 -0.2478  0.4088
  231MOL0     O30384   1.375   3.947   2.979 -0.1397 -0.6947 -0.3490
  231MOL0     C30385   1.262   3.992   2.914 -1.7163  0.8669  0.6452
  231MOL0     C30386   1.204   4.119   2.926 -0.3327  0.0220 -0.1056
  231MOL0     C30387   1.080   4.149   2.869  0.7358 -0.5481  0.2535
  231MOL0     C30388   1.015   4.054   2.775 -0.5010  0.9675 -0.6346
  231MOL0     C30389   0.886   4.082   2.713 -0.9035  0.5556 -0.3142
  231MOL0     O30390   0.820   4.184   2.771 -0.1356 -0.3596  0.2425
  231MOL0     C30391   0.707   4.235   2.717 -0.3585  0.2854  0.5328
  231MOL0     C30392   0.618   4.298   2.808 -0.4713  0.0340  0.2899
  231MOL0     C30393   0.491   4.355   2.762  0.3689  0.4591  0.0151
  231MOL0     C30394   0.468   4.371   2.624  0.0300  0.0731 -0.5235
  231MOL0     O30395   0.344   4.423   2.586  0.0286 -0.4637  0.3719
  231MOL0     C30396   0.308   4.402   2.451  1.0264 -0.6454  1.0910
  231MOL0     C30397   0.203   4.506   2.430  0.6772 -0.5967 -0.2441
  231MOL0     C30398   0.121   4.492   2.302 -0.8701  0.0309 -0.2580
  231MOL0     C30399  -0.010   4.573   2.310 -0.0913 -0.1007 -0.0460
  231MOL0     C30400  -0.088   4.576   2.179  0.1637  0.8011  0.1297
  231MOL0     C30401  -0.208   4.670   2.177  0.7288 -0.2439  0.5271
  231MOL0     C30402  -0.168   4.817   2.200 -0.0326  0.3273 -0.4197
  231MOL0     C30403  -0.262   4.885   2.294  0.4579  0.0442  0.0006
  231MOL0    Cl30404  -0.425   4.917   2.227 -0.0198 -0.1592 -0.7440
  231MOL0     C30405   0.562   4.318   2.533  0.0575  0.8268 -1.4080
  231MOL0     C30406   0.677   4.243   2.581 -0.1429 -0.5598 -0.5311
  231MOL0     O30407   0.854   4.026   2.611 -0.1953 -0.0371 -0.0225
  231MOL0     C30408   1.078   3.932   2.754 -0.3171  0.0666 -0.8082
  231MOL0     C30409   1.192   3.902   2.826 -0.8801 -0.4193  0.2080
  231MOL0     N30410   1.782   4.080   3.463 -0.1279  0.0365  0.2934
  231MOL0     N30411   1.853   4.088   3.566 -0.1372 -0.2877 -0.5676
  231MOL0     C30412   3.006   4.437   3.882 -0.0036  0.1273  0.5582
  231MOL0     C30413   3.144   4.463   3.890  0.4628 -0.2439  0.4402
  231MOL0     C30414   3.544   4.646   3.873  0.5491 -0.1181  0.3807
  231MOL0     C30415   3.587   4.725   3.981 -0.4260 -0.0766 -0.4509
  231MOL0     C30416   3.726   4.764   3.998  0.6063  0.2631 -0.2313
  231MOL0     C30417   3.825   4.713   3.914  0.1381  0.0052  0.2408
  231MOL0     O30418   3.962   4.741   3.941  0.9638 -0.0997 -0.2310
  231MOL0     C30419   4.062   4.670   3.859 -0.1859  0.2855  0.6149
  231MOL0     C30420   4.201   4.715   3.902  0.0566  0.3150 -0.2661
  231MOL0     C30421   4.240   4.851   3.842 -0.4653 -0.2752  0.0932
  231MOL0     C30422   4.391   4.902   3.834 -0.0263  0.8139  0.5005
  231MOL0     C30423   4.444   4.897   3.968 -0.3418  0.7303 -0.0077
  231MOL0     C30424   4.495   4.886   4.068 -0.3087 -0.2639  0.0034
  231MOL0     C30425   3.783   4.625   3.813  0.4011  0.8716  0.1842
  231MOL0     C30426   3.649   4.596   3.790  0.5539  0.1270 -0.0499
  231MOL0     H30427   3.156   4.673   4.156  6.1720 -1.7015 -1.6023
  231MOL0     H30428   2.911   4.592   4.161  0.5495 -0.8363  2.2729
  231MOL0     H30429   2.753   4.486   3.796  0.5776 -1.2003 -0.0472
  231MOL0     H30430   2.611   4.474   3.899 -1.0662  0.0519 -2.6477
  231MOL0     H30431   2.660   4.244   3.970 -2.9248 -2.2318 -0.1504
  231MOL0     H30432   2.779   4.225   3.844 -2.0622  0.0193 -1.7633
  231MOL0     H30433   2.595   4.303   3.687 -0.7034  0.9154  0.2478
  231MOL0     H30434   2.496   4.281   3.839  1.3861 -1.7770  2.9313
  231MOL0     H30435   2.674   4.065   3.693  0.1058 -1.0903 -0.6203
  231MOL0     H30436   2.554   4.035   3.814  1.5321  0.2379 -0.6073
  231MOL0     H30437   2.482   3.997   3.550 -1.5624 -2.8247  1.3479
  231MOL0     H30438   2.465   4.179   3.567  0.0561  1.0766  3.0290
  231MOL0     H30439   2.298   4.119   3.774 -0.6376  0.1503  1.0668
  231MOL0     H30440   2.337   3.953   3.718 -0.6126  0.7048  0.4433
  231MOL0     H30441   2.213   4.178   3.554 -1.9155 -0.5885  0.2741
  231MOL0     H30442   2.249   4.020   3.492  0.5729 -3.2579  1.4344
  231MOL0     H30443   2.045   4.095   3.730  1.1375  2.0037 -1.0566
  231MOL0     H30444   2.101   3.932   3.688 -0.3491  0.6586  0.9022
  231MOL0     H30445   2.033   3.884   3.383  4.8821  4.2641  1.0644
  231MOL0     H30446   1.746   3.846   3.243 -3.7570  0.7499  3.3427
  231MOL0     H30447   1.835   3.981   3.168  0.8969 -2.5440  0.4505
  231MOL0     H30448   1.667   4.131   3.206 -2.3428  1.4140  1.8767
  231MOL0     H30449   1.584   4.017   3.319  1.4512 -1.1746  0.0315
  231MOL0     H30450   1.629   3.968   3.022  0.9161  0.5427  0.0002
  231MOL0     H30451   1.537   3.866   3.129 -2.4036  1.7908  0.0971
  231MOL0     H30452   1.459   4.118   3.007 -1.4122 -2.5495 -2.9196
  231MOL0     H30453   1.383   4.055   3.167  0.4709  2.5113  0.5367
  231MOL0     H30454   1.245   4.195   2.991 -2.0389  1.6738 -0.8872
  231MOL0     H30455   1.030   4.245   2.883 -2.6983 -2.4084  1.8480
  231MOL0     H30456   0.642   4.303   2.914  0.3225 -2.6670  0.3132
  231MOL0     H30457   0.413   4.384   2.832 -2.5898 -1.9882 -2.0022
  231MOL0     H30458   0.283   4.296   2.442  1.7102 -0.8867  1.8663
  231MOL0     H30459   0.389   4.436   2.386  0.6415 -0.3531  0.7657
  231MOL0     H30460   0.253   4.603   2.431 -0.3176 -0.0606  1.4113
  231MOL0     H30461   0.136   4.494   2.515 -2.8432  0.9980 -2.5760
  231MOL0     H30462   0.094   4.389   2.277 -2.4687  0.1317  0.8890
  231MOL0     H30463   0.184   4.526   2.219  0.2147 -0.9333  0.1505
  231MOL0     H30464  -0.085   4.539   2.382  1.2727 -1.8635  0.6152
  231MOL0     H30465   0.033   4.669   2.341  0.9313  0.5145 -3.0619
  231MOL0     H30466  -0.126   4.476   2.157 -3.4470  2.2826 -1.1351
  231MOL0     H30467  -0.026   4.599   2.092 -1.2724 -3.4963 -2.2986
  231MOL0     H30468  -0.274   4.636   2.257 -3.1034 -0.7488 -2.5793
  231MOL0     H30469  -0.273   4.656   2.091 -0.7042 -1.7291  1.7763
  231MOL0     H30470  -0.070   4.840   2.243 -1.3459  1.7312  2.0070
  231MOL0     H30471  -0.184   4.863   2.102  0.4755 -1.3518 -1.3327
  231MOL0     H30472  -0.212   4.975   2.332  0.5878 -0.9722  2.4285
  231MOL0     H30473  -0.268   4.831   2.389  2.1688 -0.1732  0.0182
  231MOL0     H30474   0.553   4.351   2.430 -0.8310  2.0064 -0.9784
  231MOL0     H30475   0.734   4.206   2.497 -0.5397  2.3394 -2.1980
  231MOL0     H30476   1.041   3.865   2.678 -1.6664  2.3757 -2.3127
  231MOL0     H30477   1.236   3.803   2.822 -1.3390 -0.6749  1.1992
  231MOL0     H30478   2.950   4.375   3.813 -0.9960 -0.9483  2.2425
  231MOL0     H30479   3.214   4.422   3.818  1.2827  0.6558  0.6974
  231MOL0     H30480   3.513   4.764   4.051 -0.3942 -0.9503  0.0817
  231MOL0     H30481   3.760   4.826   4.080  1.5283  1.0843 -1.2281
  231MOL0     H30482   4.058   4.696   3.753 -0.8111  0.2238  0.6155
  231MOL0     H30483   4.056   4.561   3.864 -2.6166  0.3336  0.2537
  231MOL0     H30484   4.209   4.723   4.011  0.1739  0.2075 -0.2663
  231MOL0     H30485   4.271   4.634   3.878  1.1395  1.2982 -0.4938
  231MOL0     H30486   4.189   4.914   3.916  0.3326  0.5943 -0.0720
  231MOL0     H30487   4.200   4.875   3.743  2.4224  1.1515 -0.8336
  231MOL0     H30488   4.464   4.850   3.772  1.2304  3.8927 -0.8068
  231MOL0     H30489   4.399   4.999   3.783  0.7967 -0.4445 -1.9128
  231MOL0     H30490   4.532   4.871   4.167 -0.1970  2.1083  0.3731
  231MOL0     H30491   3.844   4.584   3.733 -3.6587 -0.7847 -2.4273
  231MOL0     H30492   3.619   4.531   3.709  0.2422 -0.8833  0.8551
  232MOL0     O30493   3.658   2.506   9.790  0.1037  0.3411  1.0491
  232MOL0     C30494   3.723   2.445   9.875 -0.1093 -0.1244  0.6326
  232MOL0     O30495   3.672   2.356   9.968 -0.1944  0.3340 -0.0217
  232MOL0     C30496   3.542   2.318   9.941 -0.0286  0.6541  0.3080
  232MOL0     C30497   3.438   2.411   9.940  0.9241 -0.3266  0.3323
  232MOL0     C30498   3.305   2.361   9.908  0.3297  0.1357  0.8969
  232MOL0     C30499   3.277   2.226   9.890  0.9521  0.3674  0.1077
  232MOL0     O30500   3.143   2.181   9.869  0.2270  0.3540 -0.7943
  232MOL0     C30501   3.078   2.161   9.996 -0.0045 -0.1290  1.0201
  232MOL0     C30502   3.040   2.015  10.014  1.0690 -0.1231  0.3002
  232MOL0     C30503   2.943   1.981  10.130 -0.5369  0.2179  0.2401
  232MOL0     C30504   2.940   1.830  10.165  0.1672  0.1500 -0.1955
  232MOL0     C30505   2.839   1.806  10.284 -0.7188 -0.0429 -0.4524
  232MOL0     C30506   2.819   1.661  10.322  1.0968  0.1073 -0.5833
  232MOL0     C30507   2.675   1.648  10.373 -0.3708 -0.3018 -0.1992
  232MOL0     C30508   2.670   1.531  10.467  0.2720  0.2456  0.7089
  232MOL0     N30509   2.533   1.501  10.513 -0.1712  0.4735  0.1309
  232MOL0     C30510   2.442   1.419  10.457 -0.0177 -0.2473 -0.7719
  232MOL0     C30511   2.336   1.428  10.538  0.0897  0.0924 -0.0983
  232MOL0     C30512   2.201   1.363  10.519 -0.2244  0.2991 -0.1471
  232MOL0     C30513   2.071   1.437  10.566 -0.3541 -0.2363  0.2588
  232MOL0     C30514   1.944   1.361  10.520  0.3891  0.3833 -0.4019
  232MOL0     C30515   1.919   1.368  10.374  0.1411  0.5423 -0.2640
  232MOL0     O30516   1.780   1.362  10.349  0.0397 -0.2432 -0.8565
  232MOL0     C30517   1.698   1.467  10.391  0.7153  0.6876  0.5891
  232MOL0     C30518   1.742   1.595  10.435 -0.3321 -0.3706  0.5126
  232MOL0     C30519   1.646   1.680  10.477 -0.0339  0.1811 -0.4395
  232MOL0     C30520   1.505   1.652  10.452  0.0776  0.2306 -0.4195
  232MOL0     C30521   1.404   1.739  10.512 -0.4108  0.1818  1.0922
  232MOL0     O30522   1.269   1.723  10.485 -0.0508  1.3893 -1.0602
  232MOL0     C30523   1.162   1.791  10.528 -0.6570 -0.9081  0.1518
  232MOL0     C30524   1.176   1.919  10.591  0.5237  0.5048 -0.5608
  232MOL0     C30525   1.065   1.996  10.605  0.3449 -1.2370  0.1513
  232MOL0     C30526   0.938   1.939  10.585  0.2817 -0.7475 -0.3975
  232MOL0     O30527   0.816   2.007  10.606 -0.0909 -0.0212  0.5243
  232MOL0     C30528   0.823   2.130  10.687  0.1088 -0.5220 -0.1406
  232MOL0     C30529   0.852   2.109  10.843  0.2114  0.6707  0.2495
  232MOL0     C30530   0.817   2.229  10.937 -0.7476 -0.4339  0.1300
  232MOL0     C30531   0.763   2.177  11.070  0.2931 -0.9107 -0.1668
  232MOL0     C30532   0.766   2.289  11.171 -0.0050 -0.3992  0.7304
  232MOL0     C30533   0.662   2.399  11.141  0.1240 -0.1489  0.0305
  232MOL0     C30534   0.635   2.483  11.266 -0.1761 -0.5443  0.7907
  232MOL0     C30535   0.591   2.624  11.225 -0.5175 -0.5362  0.6628
  232MOL0    Cl30536   0.736   2.728  11.181 -0.2275 -0.1458  0.3762
  232MOL0     C30537   0.925   1.815  10.529 -0.2870 -0.1337 -0.4898
  232MOL0     C30538   1.041   1.743  10.494  0.7744 -1.2811  0.4267
  232MOL0     O30539   1.450   1.838  10.569  0.8025 -0.3353  0.0044
  232MOL0     C30540   1.462   1.528  10.412  1.0163 -0.7453 -1.1106
  232MOL0     C30541   1.559   1.438  10.381  1.1199  0.0386 -0.2837
  232MOL0     N30542   2.364   1.521  10.637 -0.0751  0.1651  0.0001
  232MOL0     N30543   2.486   1.563  10.627  0.9643  0.1729  0.2451
  232MOL0     C30544   3.385   2.143   9.901 -0.7459  0.1348 -0.0536
  232MOL0     C30545   3.516   2.185   9.929  0.3229 -0.2945 -0.5028
  232MOL0     C30546   3.865   2.477   9.890 -0.3520  0.4356 -0.3641
  232MOL0     C30547   3.926   2.481  10.017  0.8172  0.0578  0.0939
  232MOL0     C30548   4.057   2.532  10.024  0.0060  0.4880 -0.4642
  232MOL0     C30549   4.141   2.551   9.910 -0.0936 -1.0916 -1.2589
  232MOL0     O30550   4.279   2.592   9.919  0.3054 -0.0896 -0.6524
  232MOL0     C30551   4.355   2.575  10.040 -0.6545  0.1100 -0.3681
  232MOL0     C30552   4.502   2.540  10.001  0.0764 -0.1590  0.4895
  232MOL0     C30553   4.575   2.645   9.910 -0.1646 -0.6342  0.5486
  232MOL0     C30554   4.730   2.611   9.893  0.0240 -0.3273 -0.2774
  232MOL0     C30555   4.791   2.714   9.804 -0.0873 -0.3362 -0.0801
  232MOL0     C30556   4.850   2.794   9.730 -0.0879  0.1095 -0.3934
  232MOL0     C30557   4.074   2.546   9.789 -0.6471  0.8937 -0.6115
  232MOL0     C30558   3.940   2.502   9.775  0.4075 -0.3043 -0.0435
  232MOL0     H30559   3.463   2.516   9.950 -0.5054  0.1343 -0.6683
  232MOL0     H30560   3.218   2.425   9.909 -0.0864 -0.3722 -0.6477
  232MOL0     H30561   2.999   2.235   9.980  1.5870  1.3469 -0.5421
  232MOL0     H30562   3.137   2.199  10.079  1.4166  0.9815 -0.4362
  232MOL0     H30563   3.134   1.960  10.013  1.6275  0.8137 -0.6506
  232MOL0     H30564   3.008   1.965   9.922  2.2454  1.7277 -1.1689
  232MOL0     H30565   2.843   2.021  10.118 -1.0139 -0.6215  1.2435
  232MOL0     H30566   2.985   2.034  10.216  1.5623 -0.8128 -0.0853
  232MOL0     H30567   2.927   1.769  10.075 -3.6711  1.5604 -0.7527
  232MOL0     H30568   3.043   1.808  10.195  0.6766 -2.9758 -3.4176
  232MOL0     H30569   2.745   1.845  10.245 -0.2889  2.2571  0.6241
  232MOL0     H30570   2.867   1.876  10.363 -0.2885  0.3751 -0.9701
  232MOL0     H30571   2.891   1.651  10.404  2.7104 -0.1696 -1.9565
  232MOL0     H30572   2.839   1.589  10.241 -1.8310 -2.5470  0.8266
  232MOL0     H30573   2.633   1.733  10.427 -0.3484 -0.0728 -0.5406
  232MOL0     H30574   2.614   1.634  10.284 -3.7681 -2.3130  2.1981
  232MOL0     H30575   2.741   1.525  10.550 -1.1978 -2.2056  1.9069
  232MOL0     H30576   2.693   1.447  10.401  0.6080  0.4416  0.5776
  232MOL0     H30577   2.447   1.351  10.372  0.5774 -2.2721  0.8063
  232MOL0     H30578   2.204   1.266  10.569  0.9990  1.0822  1.3629
  232MOL0     H30579   2.194   1.347  10.411  0.3456  1.6191 -0.4002
  232MOL0     H30580   2.061   1.540  10.530  0.4669 -0.1510  0.2754
  232MOL0     H30581   2.069   1.445  10.675  0.0804 -0.3053  0.2726
  232MOL0     H30582   1.929   1.264  10.567 -2.9678  0.2382 -1.5264
  232MOL0     H30583   1.865   1.412  10.575  3.2425  2.2025  2.3694
  232MOL0     H30584   1.958   1.274  10.336 -0.8982 -1.2753  2.8285
  232MOL0     H30585   1.969   1.457  10.335  2.8184  0.0633  1.8142
  232MOL0     H30586   1.848   1.614  10.436  0.1972 -2.7093 -1.3605
  232MOL0     H30587   1.679   1.770  10.529  2.8154 -0.1885 -1.4507
  232MOL0     H30588   1.266   1.964  10.631 -0.3976 -0.6305  3.1936
  232MOL0     H30589   1.081   2.095  10.648  2.7210 -2.9160  3.6567
  232MOL0     H30590   0.728   2.183  10.677  0.7373  0.7335  0.3215
  232MOL0     H30591   0.888   2.211  10.650  0.4397 -0.4951  0.4858
  232MOL0     H30592   0.955   2.083  10.870  0.0275  2.8322  3.5543
  232MOL0     H30593   0.796   2.019  10.868  1.2772  0.5278  2.3295
  232MOL0     H30594   0.748   2.300  10.890  1.4548  0.4872 -1.9421
  232MOL0     H30595   0.898   2.302  10.950 -1.4241  1.0869 -3.1047
  232MOL0     H30596   0.662   2.135  11.067  0.2110 -0.6760 -0.9300
  232MOL0     H30597   0.818   2.091  11.110 -2.8004 -2.2035  1.6779
  232MOL0     H30598   0.865   2.337  11.175  0.2011  0.0638 -4.0502
  232MOL0     H30599   0.738   2.235  11.262  2.2629  0.5129  2.0733
  232MOL0     H30600   0.574   2.346  11.102 -1.0489  2.6550 -1.4936
  232MOL0     H30601   0.686   2.464  11.056 -2.3235  0.9491  0.0830
  232MOL0     H30602   0.549   2.434  11.313 -1.6307  2.0038  0.9687
  232MOL0     H30603   0.711   2.482  11.344  0.3289  0.9610  0.3527
  232MOL0     H30604   0.548   2.663  11.318 -0.0315  0.1692  0.6027
  232MOL0     H30605   0.521   2.622  11.140 -1.2330 -0.8329  1.2470
  232MOL0     H30606   0.824   1.780  10.507 -1.2851  0.7886  2.2540
  232MOL0     H30607   1.028   1.645  10.449  0.3106 -1.5242  1.0750
  232MOL0     H30608   1.362   1.494  10.437  1.3143 -2.9005 -2.5549
  232MOL0     H30609   1.519   1.346  10.340  0.3214  1.9682 -4.3230
  232MOL0     H30610   3.370   2.036   9.894  0.2948 -0.3490  3.3566
  232MOL0     H30611   3.602   2.119   9.932  0.5153 -0.0190  1.0900
  232MOL0     H30612   3.881   2.461  10.114  2.4823  0.4516  1.0094
  232MOL0     H30613   4.106   2.539  10.120  1.0962  2.2197 -1.0932
  232MOL0     H30614   4.309   2.488  10.087 -0.0024  0.0181  0.1049
  232MOL0     H30615   4.344   2.664  10.103 -0.5521 -1.7503  2.4588
  232MOL0     H30616   4.551   2.528  10.098 -0.5376 -1.4885  0.6637
  232MOL0     H30617   4.501   2.443   9.951 -0.9749 -1.2578  2.5116
  232MOL0     H30618   4.579   2.744   9.958 -2.4068  0.7742 -1.9302
  232MOL0     H30619   4.528   2.650   9.812 -0.0053  3.6875  0.4815
  232MOL0     H30620   4.784   2.613   9.989  3.2726 -2.5668 -1.8640
  232MOL0     H30621   4.740   2.516   9.840  0.7291  0.2633 -1.2388
  232MOL0     H30622   4.908   2.852   9.660 -1.2565  0.6507 -0.9412
  232MOL0     H30623   4.127   2.575   9.698  0.5376  0.6400 -0.0156
  232MOL0     H30624   3.915   2.493   9.670  0.6412  3.3465 -0.5393
  233MOL0     O30625   0.394   0.466   1.783  0.0888  0.0040 -0.3827
  233MOL0     C30626   0.499   0.536   1.803  0.4961  0.1472  0.0378
  233MOL0     O30627   0.503   0.641   1.891  0.1469  1.3535 -0.2262
  233MOL0     C30628   0.392   0.706   1.924  1.0763  0.2571 -0.1683
  233MOL0     C30629   0.403   0.778   2.048  0.7656 -0.4925  0.7440
  233MOL0     C30630   0.287   0.841   2.100 -0.2944  1.2970 -0.5026
  233MOL0     C30631   0.173   0.863   2.033 -0.5025 -0.3459  0.1006
  233MOL0     O30632   0.066   0.946   2.074 -0.0510  0.2341 -0.4032
  233MOL0     C30633  -0.011   0.889   2.189 -0.1139 -0.0365 -0.5142
  233MOL0     C30634  -0.150   0.960   2.189  0.0042  0.4681  0.4145
  233MOL0     C30635  -0.141   1.097   2.256 -0.2252 -0.0067  0.3886
  233MOL0     C30636  -0.254   1.182   2.234  0.5120 -0.1632  0.1049
  233MOL0     C30637  -0.258   1.309   2.320 -0.4789  0.3621 -0.9557
  233MOL0     C30638  -0.380   1.397   2.288 -0.4231 -0.4710 -0.4033
  233MOL0     C30639  -0.374   1.508   2.382 -0.1197 -0.1499 -0.4189
  233MOL0     C30640  -0.302   1.626   2.329  0.1001  0.3872  0.2419
  233MOL0     N30641  -0.344   1.739   2.402 -0.3687 -0.0982 -0.0154
  233MOL0     C30642  -0.464   1.801   2.406 -0.1992  0.1609 -1.2511
  233MOL0     C30643  -0.444   1.907   2.492 -0.3936 -0.3827  0.2295
  233MOL0     C30644  -0.540   2.011   2.536  0.2956  0.3531  0.6099
  233MOL0     C30645  -0.592   2.087   2.412 -0.4105  0.2509 -0.2290
  233MOL0     C30646  -0.709   2.179   2.453 -0.3161 -1.1335 -0.7241
  233MOL0     C30647  -0.764   2.247   2.328  0.4877  0.3019  0.4129
  233MOL0     O30648  -0.816   2.141   2.244  0.3317 -0.5599 -0.0400
  233MOL0     C30649  -0.908   2.173   2.145 -0.2700 -0.0855 -0.5169
  233MOL0     C30650  -1.013   2.089   2.145 -0.7052  0.6677  0.9528
  233MOL0     C30651  -1.115   2.113   2.060 -1.0104 -0.8811  0.3755
  233MOL0     C30652  -1.121   2.228   1.976 -0.5970  0.4394 -0.2691
  233MOL0     C30653  -1.229   2.250   1.883  0.8623 -0.2217  0.4223
  233MOL0     O30654  -1.327   2.166   1.890  0.0579 -0.2816 -0.0135
  233MOL0     C30655  -1.447   2.186   1.824 -0.4014  0.5037  0.4911
  233MOL0     C30656  -1.561   2.148   1.889  0.9804  0.7957  0.2530
  233MOL0     C30657  -1.685   2.165   1.819  0.5539  0.6812 -0.7834
  233MOL0     C30658  -1.695   2.212   1.685 -0.0776 -0.1323 -0.4613
  233MOL0     O30659  -1.799   2.241   1.600  0.4797 -0.1869 -0.6084
  233MOL0     C30660  -1.920   2.164   1.628 -0.1063 -0.2032 -0.2833
  233MOL0     C30661  -2.019   2.199   1.512 -0.3360  0.3556  1.0173
  233MOL0     C30662  -2.133   2.093   1.497 -1.0929  0.0698 -0.9735
  233MOL0     C30663  -2.245   2.128   1.595  0.1982  0.1876 -0.1141
  233MOL0     C30664  -2.376   2.067   1.552  0.2488  0.1397  0.2304
  233MOL0     C30665  -2.503   2.112   1.628 -0.6741 -0.5497  0.4346
  233MOL0     C30666  -2.538   2.257   1.609 -0.9706 -0.4081 -0.2848
  233MOL0     C30667  -2.683   2.286   1.642  0.1782  0.0937 -0.1416
  233MOL0    Cl30668  -2.717   2.459   1.622 -0.4829 -0.2393 -0.1471
  233MOL0     C30669  -1.570   2.240   1.623  0.4462  0.1826  0.0006
  233MOL0     C30670  -1.449   2.215   1.689  0.0563 -0.5309  0.1332
  233MOL0     O30671  -1.231   2.364   1.836 -0.2900 -0.2757  0.1995
  233MOL0     C30672  -1.017   2.326   2.000 -0.9398 -0.2899  0.5292
  233MOL0     C30673  -0.906   2.299   2.083  0.4022  0.0091  0.3578
  233MOL0     N30674  -0.315   1.896   2.550  1.0161 -0.9105 -0.2647
  233MOL0     N30675  -0.261   1.801   2.490 -0.5952  0.1601  0.3046
  233MOL0     C30676   0.166   0.803   1.905 -0.2416 -0.6813  0.0841
  233MOL0     C30677   0.272   0.722   1.857 -0.4912 -0.2436  0.3019
  233MOL0     C30678   0.616   0.489   1.725  0.0875 -0.3396 -0.2592
  233MOL0     C30679   0.600   0.399   1.617 -0.1889 -0.6743 -0.1519
  233MOL0     C30680   0.701   0.384   1.527 -0.0874 -0.4760  0.0258
  233MOL0     C30681   0.828   0.442   1.540 -0.2840 -0.3888 -0.4495
  233MOL0     O30682   0.921   0.408   1.446  0.1301  0.4988  0.1864
  233MOL0     C30683   1.042   0.341   1.497 -0.0347  0.3627  0.0771
  233MOL0     C30684   1.160   0.352   1.391  0.5043  0.3740 -0.0880
  233MOL0     C30685   1.285   0.280   1.463 -0.0127 -0.7701  0.6832
  233MOL0     C30686   1.398   0.265   1.368 -0.8844 -0.9137  1.1611
  233MOL0     C30687   1.514   0.196   1.436  0.1344 -0.9669 -0.9020
  233MOL0     C30688   1.594   0.129   1.501  0.0061  0.1556 -0.0450
  233MOL0     C30689   0.849   0.527   1.650  0.3975  0.5391 -0.1014
  233MOL0     C30690   0.744   0.554   1.743 -0.6569 -1.0462 -0.3250
  233MOL0     H30691   0.488   0.765   2.114  1.8623  2.7593  0.1720
  233MOL0     H30692   0.299   0.874   2.202 -0.1518 -1.2658  0.3838
  233MOL0     H30693   0.048   0.907   2.279 -1.7570 -1.2498  0.8683
  233MOL0     H30694  -0.034   0.782   2.184  1.8430 -0.5551  0.4619
  233MOL0     H30695  -0.223   0.895   2.239 -0.8886  0.5197 -0.7778
  233MOL0     H30696  -0.177   0.966   2.083 -1.3507  2.6419  0.8119
  233MOL0     H30697  -0.054   1.146   2.213 -2.0625  1.0901 -2.3668
  233MOL0     H30698  -0.133   1.094   2.365  1.0841 -2.7615  0.3196
  233MOL0     H30699  -0.272   1.216   2.131  1.1406  0.7347  0.2763
  233MOL0     H30700  -0.335   1.122   2.276  0.4427  0.4114  0.8256
  233MOL0     H30701  -0.161   1.360   2.307  1.9046 -3.6870 -0.6837
  233MOL0     H30702  -0.258   1.278   2.424  0.7071  0.3339 -0.9464
  233MOL0     H30703  -0.477   1.348   2.295  0.7229 -3.0934 -1.7204
  233MOL0     H30704  -0.379   1.435   2.185 -2.8188 -0.0763 -0.3430
  233MOL0     H30705  -0.479   1.531   2.401 -0.1979 -1.1144  0.4532
  233MOL0     H30706  -0.337   1.473   2.479  1.2342 -0.7018 -1.1056
  233MOL0     H30707  -0.326   1.633   2.222 -2.4317  2.6762  0.8418
  233MOL0     H30708  -0.194   1.610   2.328  0.0343 -0.2776 -2.0681
  233MOL0     H30709  -0.551   1.769   2.349 -0.2671  2.7449 -2.7555
  233MOL0     H30710  -0.485   2.085   2.595  0.9164  0.2582  0.1649
  233MOL0     H30711  -0.621   1.970   2.596 -0.5256  0.1201 -0.6212
  233MOL0     H30712  -0.635   2.017   2.341 -5.1645  1.0684  1.4897
  233MOL0     H30713  -0.511   2.149   2.372  1.1370 -0.0450  2.2105
  233MOL0     H30714  -0.784   2.120   2.506 -2.7096  1.1896 -1.3143
  233MOL0     H30715  -0.668   2.256   2.519 -2.5664 -1.2084  0.8748
  233MOL0     H30716  -0.679   2.290   2.274 -0.3985  1.5273 -0.0825
  233MOL0     H30717  -0.840   2.322   2.356  1.5789  0.5737  2.8544
  233MOL0     H30718  -1.011   1.994   2.196 -1.1804 -1.3954 -2.5734
  233MOL0     H30719  -1.192   2.037   2.046 -3.2965  0.7686  3.0126
  233MOL0     H30720  -1.560   2.127   1.995  1.3808 -0.8686 -0.0599
  233MOL0     H30721  -1.778   2.138   1.869 -0.2070  1.9386 -1.4730
  233MOL0     H30722  -1.970   2.168   1.725  1.1421  5.6371  0.4617
  233MOL0     H30723  -1.895   2.059   1.612  0.8819 -0.1646  0.8654
  233MOL0     H30724  -1.959   2.210   1.421  0.3022  0.3004  1.4261
  233MOL0     H30725  -2.066   2.298   1.523 -2.9141 -0.6282 -0.2758
  233MOL0     H30726  -2.091   1.994   1.515  0.1313  0.8128  0.4587
  233MOL0     H30727  -2.162   2.092   1.391  0.6579 -1.0668 -1.4959
  233MOL0     H30728  -2.230   2.087   1.695  1.0845  2.7347  0.8719
  233MOL0     H30729  -2.257   2.236   1.610  0.7681 -0.0567  2.4707
  233MOL0     H30730  -2.362   1.961   1.575  0.4311  0.3090  0.9375
  233MOL0     H30731  -2.398   2.078   1.446 -3.2176  0.1698  0.8266
  233MOL0     H30732  -2.495   2.083   1.733  0.5112  0.0367  0.5224
  233MOL0     H30733  -2.586   2.049   1.596 -0.0779 -1.3253  0.3866
  233MOL0     H30734  -2.478   2.319   1.675 -0.5604 -1.1296  0.0311
  233MOL0     H30735  -2.510   2.287   1.508 -0.2630 -0.7711 -0.2023
  233MOL0     H30736  -2.702   2.268   1.748 -1.3659 -1.8613 -0.7011
  233MOL0     H30737  -2.745   2.223   1.578  1.6247 -0.1328 -1.4003
  233MOL0     H30738  -1.588   2.285   1.526 -1.5276  2.2478  1.2407
  233MOL0     H30739  -1.352   2.211   1.641  0.1296 -2.0023  0.3574
  233MOL0     H30740  -1.015   2.415   1.938 -1.1976 -0.9393 -0.4297
  233MOL0     H30741  -0.832   2.375   2.107  1.1011 -0.7961  0.8051
  233MOL0     H30742   0.080   0.821   1.842 -2.3826 -0.8861  2.7813
  233MOL0     H30743   0.265   0.685   1.755  1.5599 -0.8944  0.3647
  233MOL0     H30744   0.508   0.362   1.574  0.4076 -2.2069 -0.1894
  233MOL0     H30745   0.690   0.323   1.438  1.8089 -0.4038 -0.3127
  233MOL0     H30746   1.014   0.236   1.501 -2.0483  0.7716 -1.7604
  233MOL0     H30747   1.078   0.380   1.593 -0.2974 -0.6057  0.5832
  233MOL0     H30748   1.134   0.304   1.296 -0.2751  0.6209  0.0002
  233MOL0     H30749   1.196   0.454   1.373  1.1755  0.3750  1.1417
  233MOL0     H30750   1.266   0.178   1.498 -1.2865 -1.2290 -1.1637
  233MOL0     H30751   1.313   0.336   1.552 -0.3271  1.1718 -0.3758
  233MOL0     H30752   1.362   0.214   1.279  0.7790  0.0017 -0.1044
  233MOL0     H30753   1.433   0.361   1.329 -1.5666 -0.6118  1.2807
  233MOL0     H30754   1.657   0.066   1.559  0.9273  2.2133  1.3288
  233MOL0     H30755   0.946   0.567   1.677 -0.7225  2.7638  0.8381
  233MOL0     H30756   0.745   0.626   1.824 -1.5600 -2.5895  1.1299
  234MOL0     O30757   5.711   7.849   0.179 -0.2197  0.2304  0.0659
  234MOL0     C30758   5.722   7.884   0.066  0.5666 -0.1710 -0.3366
  234MOL0     O30759   5.620   7.945  -0.007 -0.1027 -0.2984  0.0747
  234MOL0     C30760   5.501   7.961   0.054  0.0754  0.0090  0.2244
  234MOL0     C30761   5.433   7.854   0.113 -0.4110 -0.3546  0.3928
  234MOL0     C30762   5.303   7.878   0.164  0.6085  0.4713 -0.8733
  234MOL0     C30763   5.244   8.004   0.181 -0.4859 -0.1884  1.4224
  234MOL0     O30764   5.119   8.009   0.243  0.2621 -0.0879 -0.6625
  234MOL0     C30765   5.061   8.129   0.285 -0.4106 -0.4453 -0.6230
  234MOL0     C30766   4.940   8.092   0.368 -0.0314 -0.1256  0.0426
  234MOL0     C30767   4.846   8.202   0.422  0.5754 -0.2025  0.8374
  234MOL0     C30768   4.924   8.308   0.497 -0.2142  0.1607  0.8654
  234MOL0     C30769   4.863   8.368   0.618  0.3753  0.2417 -0.0974
  234MOL0     C30770   4.814   8.260   0.729  0.1895  0.1826  0.6850
  234MOL0     C30771   4.807   8.320   0.873  0.6770  1.1017 -0.8654
  234MOL0     C30772   4.667   8.385   0.895  0.8513  0.1018  0.1983
  234MOL0     N30773   4.677   8.492   0.999  0.0887 -0.5939  0.1511
  234MOL0     C30774   4.660   8.623   0.961  0.3939  0.4323 -0.9108
  234MOL0     C30775   4.667   8.682   1.088  0.4151 -0.3244  0.4374
  234MOL0     C30776   4.659   8.837   1.115 -0.8808 -0.0565 -0.3820
  234MOL0     C30777   4.777   8.902   1.038  0.5158  0.3672  0.2494
  234MOL0     C30778   4.913   8.880   1.100 -0.0041  0.0057 -0.5232
  234MOL0     C30779   5.026   8.927   1.007  0.0459  0.3604 -0.2307
  234MOL0     O30780   5.153   8.940   1.070  0.2835  0.6091 -0.4958
  234MOL0     C30781   5.262   8.986   1.002  0.0150  0.6149 -0.1867
  234MOL0     C30782   5.381   9.001   1.076 -0.9742 -1.2470  0.5644
  234MOL0     C30783   5.506   9.048   1.009 -0.4104 -0.0109  0.3202
  234MOL0     C30784   5.498   9.050   0.864  0.3269 -1.3706 -0.6527
  234MOL0     C30785   5.617   9.091   0.793 -0.1157  0.7502 -0.2372
  234MOL0     O30786   5.734   9.094   0.870  0.4986 -0.8084 -0.6737
  234MOL0     C30787   5.848   9.141   0.807  0.9354 -0.0286  0.1360
  234MOL0     C30788   5.920   9.054   0.725  0.7376  1.1207  0.7110
  234MOL0     C30789   6.014   9.108   0.641  0.2541 -0.6143 -0.5402
  234MOL0     C30790   6.056   9.240   0.659 -0.6381 -0.5154  0.7557
  234MOL0     O30791   6.163   9.291   0.596 -1.0950  0.8844  0.2388
  234MOL0     C30792   6.287   9.202   0.590 -0.1505  0.2360 -0.2007
  234MOL0     C30793   6.404   9.279   0.540 -0.2597  0.4444 -0.1664
  234MOL0     C30794   6.414   9.412   0.621  0.0295  0.0181  1.0147
  234MOL0     C30795   6.549   9.468   0.587 -0.5020  0.3711  0.6929
  234MOL0     C30796   6.599   9.554   0.697 -0.2948  0.0682  0.7776
  234MOL0     C30797   6.737   9.601   0.667 -0.4461 -0.1950  0.5628
  234MOL0     C30798   6.799   9.683   0.775 -0.5116 -0.2110  0.0381
  234MOL0     C30799   6.933   9.750   0.741 -0.7978 -0.5008 -0.1462
  234MOL0    Cl30800   6.952   9.885   0.863  0.0196  0.0123  0.2196
  234MOL0     C30801   5.990   9.324   0.753  0.2572 -0.2145  1.3505
  234MOL0     C30802   5.887   9.274   0.822 -0.0573 -0.3517 -0.0712
  234MOL0     O30803   5.606   9.123   0.671 -0.2488 -0.2373 -0.1968
  234MOL0     C30804   5.377   9.009   0.795  0.0231 -0.3326 -0.5891
  234MOL0     C30805   5.266   8.987   0.868 -0.2439  0.5676 -0.1888
  234MOL0     N30806   4.703   8.592   1.182  0.3574 -0.3083  0.7336
  234MOL0     N30807   4.709   8.475   1.131 -0.3953  1.9481  0.4051
  234MOL0     C30808   5.305   8.105   0.110 -0.3543 -0.1350 -0.5826
  234MOL0     C30809   5.432   8.087   0.051 -0.3983  0.0277  0.5800
  234MOL0     C30810   5.851   7.860   0.006 -0.5193  0.4115  0.6177
  234MOL0     C30811   5.892   7.921  -0.117 -0.6562  0.1291 -0.2462
  234MOL0     C30812   6.022   7.897  -0.161 -0.9358  0.3061  0.2637
  234MOL0     C30813   6.120   7.823  -0.090  0.2038 -0.1652  0.4994
  234MOL0     O30814   6.236   7.806  -0.153  0.1689 -0.1698 -0.7415
  234MOL0     C30815   6.344   7.817  -0.054 -1.1422 -0.2855  1.0125
  234MOL0     C30816   6.481   7.798  -0.121 -0.3188 -0.1646  0.7050
  234MOL0     C30817   6.522   7.915  -0.207 -0.3220 -0.7515  0.4155
  234MOL0     C30818   6.475   7.904  -0.348  0.1881 -0.3241 -0.0642
  234MOL0     C30819   6.448   8.038  -0.400  0.3005 -0.5880  1.1327
  234MOL0     C30820   6.434   8.158  -0.431  0.2399  0.6056  0.7833
  234MOL0     C30821   6.085   7.771   0.031  0.7375 -0.1324  0.2054
  234MOL0     C30822   5.956   7.789   0.075  0.6891 -0.0046  0.1424
  234MOL0     H30823   5.472   7.753   0.108  0.4958  0.0135 -0.3170
  234MOL0     H30824   5.253   7.786   0.190 -0.2094  1.0091 -0.4933
  234MOL0     H30825   5.019   8.201   0.215 -3.2349 -0.2310  1.1326
  234MOL0     H30826   5.126   8.194   0.344 -1.0528  0.0621 -0.4698
  234MOL0     H30827   4.985   8.049   0.458  1.8323  1.4064 -0.0715
  234MOL0     H30828   4.880   8.027   0.304 -1.4824  3.1980 -2.2583
  234MOL0     H30829   4.762   8.163   0.479 -0.0768  0.6541  0.4775
  234MOL0     H30830   4.809   8.251   0.331 -2.9974 -0.9280  1.7788
  234MOL0     H30831   5.022   8.264   0.516  1.0298  1.1320 -2.4608
  234MOL0     H30832   4.941   8.391   0.428  0.9897 -1.4595 -0.8745
  234MOL0     H30833   4.776   8.423   0.583  0.1708  0.7486  1.1784
  234MOL0     H30834   4.929   8.443   0.663 -1.4670  1.8182  0.0788
  234MOL0     H30835   4.886   8.178   0.730 -1.9329 -1.8305 -1.1565
  234MOL0     H30836   4.722   8.207   0.703 -0.5202  1.0755  1.3012
  234MOL0     H30837   4.825   8.242   0.947 -2.2247  0.6977 -0.4776
  234MOL0     H30838   4.881   8.399   0.888  0.3314  1.0216  1.4879
  234MOL0     H30839   4.605   8.310   0.945  1.0753  0.1935  0.6123
  234MOL0     H30840   4.617   8.425   0.806  0.4205  0.5473  0.6364
  234MOL0     H30841   4.639   8.668   0.864 -0.7991 -0.3253 -1.0202
  234MOL0     H30842   4.659   8.854   1.223  0.6532 -2.2977  0.0424
  234MOL0     H30843   4.564   8.881   1.081 -1.1612  1.0834  1.7303
  234MOL0     H30844   4.768   9.011   1.033  1.5014  0.4346 -0.3151
  234MOL0     H30845   4.775   8.866   0.934 -1.4233  1.8367 -0.2793
  234MOL0     H30846   4.910   8.938   1.192  0.2548  2.4700 -1.9720
  234MOL0     H30847   4.938   8.777   1.128  0.8004  0.0915 -0.8878
  234MOL0     H30848   5.000   9.030   0.979  0.4871  0.1097 -1.6139
  234MOL0     H30849   5.042   8.867   0.918  0.0867  1.1796 -0.7865
  234MOL0     H30850   5.393   8.997   1.184 -0.6287 -0.2700  0.5722
  234MOL0     H30851   5.595   9.082   1.060  0.7893 -0.5382 -1.3143
  234MOL0     H30852   5.893   8.949   0.715  0.7810  1.2270 -0.8845
  234MOL0     H30853   6.068   9.041   0.574  0.2175  2.2579 -3.7454
  234MOL0     H30854   6.263   9.123   0.518  1.2141  2.1334 -2.9318
  234MOL0     H30855   6.315   9.163   0.688 -0.6735  3.2315  1.2737
  234MOL0     H30856   6.396   9.304   0.434  1.3685  1.2553 -0.1470
  234MOL0     H30857   6.497   9.222   0.552 -1.1382 -0.5655  2.3598
  234MOL0     H30858   6.397   9.396   0.728  0.6382 -0.4002  1.0521
  234MOL0     H30859   6.329   9.478   0.598 -2.8041 -3.3242  0.9713
  234MOL0     H30860   6.623   9.391   0.562 -1.5464  0.1071 -1.8718
  234MOL0     H30861   6.542   9.530   0.497 -0.5908 -0.6947 -0.0581
  234MOL0     H30862   6.605   9.493   0.787  2.5595 -2.5586 -0.9732
  234MOL0     H30863   6.538   9.642   0.718 -0.6144 -0.1407  0.7333
  234MOL0     H30864   6.712   9.646   0.571  0.1376 -1.6068 -0.2972
  234MOL0     H30865   6.807   9.519   0.646  0.6167  1.1209 -1.3256
  234MOL0     H30866   6.731   9.763   0.806  1.2877  0.7034  1.9188
  234MOL0     H30867   6.817   9.618   0.861  0.5139  0.4445  0.3369
  234MOL0     H30868   6.925   9.805   0.647  0.5558 -2.4013 -1.4513
  234MOL0     H30869   7.017   9.680   0.743 -0.7109 -0.3807  0.7942
  234MOL0     H30870   6.010   9.430   0.764 -3.2522  0.9121 -1.4020
  234MOL0     H30871   5.831   9.336   0.891 -2.9263 -0.9465 -1.6922
  234MOL0     H30872   5.377   9.005   0.687  1.9236 -1.0513 -0.6002
  234MOL0     H30873   5.179   8.963   0.807 -1.5381 -0.5415  1.9917
  234MOL0     H30874   5.251   8.198   0.105 -3.4771 -1.8457 -1.1121
  234MOL0     H30875   5.473   8.165  -0.012 -0.3005  0.5412  1.2663
  234MOL0     H30876   5.827   7.970  -0.189  0.0786  0.8257 -0.4554
  234MOL0     H30877   6.050   7.931  -0.260 -0.6745  0.8322  0.5132
  234MOL0     H30878   6.335   7.741   0.024 -2.9204 -0.9703  0.1991
  234MOL0     H30879   6.330   7.916  -0.010 -4.0402 -1.0918  2.1744
  234MOL0     H30880   6.558   7.789  -0.044 -0.2402 -1.1323  0.5205
  234MOL0     H30881   6.489   7.709  -0.184  3.2794  0.2797  0.3445
  234MOL0     H30882   6.631   7.921  -0.205 -0.3022 -0.6187 -0.4546
  234MOL0     H30883   6.475   8.004  -0.163 -0.4289 -0.3853 -0.4153
  234MOL0     H30884   6.561   7.853  -0.392  1.5131  0.5560  1.4087
  234MOL0     H30885   6.388   7.838  -0.359  1.3047 -1.5873 -1.8573
  234MOL0     H30886   6.432   8.260  -0.466 -0.2301  1.3766  2.9325
  234MOL0     H30887   6.145   7.706   0.095 -2.1461 -2.0991  1.1246
  234MOL0     H30888   5.948   7.750   0.176  1.4362 -0.8733 -0.1186
  235MOL0     O30889   7.860   3.828   7.553 -0.1301  0.4773 -0.5568
  235MOL0     C30890   7.897   3.853   7.436 -0.0269 -0.0584 -0.1492
  235MOL0     O30891   7.838   3.808   7.317 -0.1439  0.2657 -0.4519
  235MOL0     C30892   7.734   3.724   7.319 -0.1628  0.1296  0.0377
  235MOL0     C30893   7.601   3.769   7.363 -0.6019 -0.1088  0.6358
  235MOL0     C30894   7.497   3.678   7.373 -0.0366 -0.5965  0.0615
  235MOL0     C30895   7.515   3.546   7.324 -0.2376 -0.2175  0.7574
  235MOL0     O30896   7.414   3.451   7.298  0.4941 -0.7710 -0.0183
  235MOL0     C30897   7.287   3.479   7.342  0.1955  0.9602 -0.9387
  235MOL0     C30898   7.189   3.363   7.295 -1.1694  0.1677 -1.0354
  235MOL0     C30899   7.042   3.399   7.318  0.0799 -0.1587 -0.4667
  235MOL0     C30900   6.946   3.279   7.296  1.0833  0.4897  0.9193
  235MOL0     C30901   6.808   3.282   7.368 -0.1841 -0.4101 -0.0557
  235MOL0     C30902   6.728   3.158   7.312  0.0779 -0.7430 -0.9382
  235MOL0     C30903   6.582   3.178   7.345  0.6401 -0.0065 -0.0081
  235MOL0     C30904   6.499   3.043   7.331  0.3260 -0.2943 -0.6069
  235MOL0     N30905   6.359   3.079   7.299 -0.1701  0.5217  0.2653
  235MOL0     C30906   6.272   3.101   7.398 -0.6052  0.3031 -1.0752
  235MOL0     C30907   6.171   3.163   7.332  0.0837  0.1071  0.0959
  235MOL0     C30908   6.044   3.188   7.395  0.1908  0.1282  0.5053
  235MOL0     C30909   5.953   3.067   7.389 -0.4687 -0.8465 -0.0139
  235MOL0     C30910   5.830   3.070   7.486 -0.1967  0.1077  0.4970
  235MOL0     C30911   5.750   2.937   7.473  0.3760  0.0682  0.1681
  235MOL0     O30912   5.696   2.943   7.346  1.2561  0.3931 -0.1736
  235MOL0     C30913   5.598   2.868   7.299  0.5247  0.5005 -0.8572
  235MOL0     C30914   5.532   2.764   7.373  0.7789 -0.6953 -0.4836
  235MOL0     C30915   5.433   2.693   7.308 -0.5478 -0.2137  0.5767
  235MOL0     C30916   5.407   2.708   7.167  0.1871  0.6175 -1.0046
  235MOL0     C30917   5.305   2.620   7.101  0.5385 -0.1195 -0.4945
  235MOL0     O30918   5.252   2.524   7.177 -0.0037 -0.2892 -0.5973
  235MOL0     C30919   5.167   2.433   7.117 -0.2771 -0.2787  0.2035
  235MOL0     C30920   5.033   2.462   7.134 -0.9197 -0.4852  0.8372
  235MOL0     C30921   4.936   2.363   7.101  0.7347 -0.2674 -0.3954
  235MOL0     C30922   4.976   2.243   7.037  0.2686  0.1140 -0.7078
  235MOL0     O30923   4.874   2.154   7.009 -0.2576 -0.4055 -0.6813
  235MOL0     C30924   4.912   2.021   6.978 -0.2754 -0.2069  1.2178
  235MOL0     C30925   4.784   1.934   6.968 -0.5268 -0.0971 -0.1653
  235MOL0     C30926   4.740   1.891   7.110 -1.0128  0.1349 -0.5659
  235MOL0     C30927   4.639   1.775   7.124 -0.0154 -0.0273  0.1615
  235MOL0     C30928   4.576   1.779   7.259  1.2204  0.1623  0.3474
  235MOL0     C30929   4.419   1.767   7.238  0.4608  0.3965  0.3424
  235MOL0     C30930   4.368   1.903   7.185  0.1125 -0.3310 -0.1303
  235MOL0     C30931   4.236   1.903   7.108  0.1559 -0.1962  0.3048
  235MOL0    Cl30932   4.095   1.858   7.210  0.0902 -0.0162  0.1386
  235MOL0     C30933   5.118   2.226   7.008  0.8624 -0.2092 -0.6075
  235MOL0     C30934   5.207   2.315   7.047  0.0854 -0.5080 -0.7237
  235MOL0     O30935   5.286   2.634   6.985 -0.0723  1.1208  0.0280
  235MOL0     C30936   5.487   2.803   7.094  0.2515  1.1609  0.1507
  235MOL0     C30937   5.582   2.874   7.161  0.2766 -0.1513 -0.0031
  235MOL0     N30938   6.194   3.169   7.193  0.9644  1.3320  0.2982
  235MOL0     N30939   6.302   3.100   7.171  0.8561  0.0217 -1.4090
  235MOL0     C30940   7.638   3.504   7.279 -0.4743 -0.8961  0.8508
  235MOL0     C30941   7.749   3.592   7.278 -0.0901 -0.4138  0.2974
  235MOL0     C30942   8.009   3.949   7.433  0.2757 -0.0584  1.2302
  235MOL0     C30943   8.087   3.984   7.541 -0.5490  0.5401 -0.1462
  235MOL0     C30944   8.187   4.081   7.529  0.5299  0.0437 -0.4643
  235MOL0     C30945   8.201   4.157   7.411  0.0925 -0.7608 -0.0050
  235MOL0     O30946   8.310   4.240   7.412 -0.5297 -1.0359 -0.8878
  235MOL0     C30947   8.309   4.350   7.317  0.2297  0.7591  0.0487
  235MOL0     C30948   8.385   4.478   7.352 -0.3210  0.1133  0.5600
  235MOL0     C30949   8.532   4.459   7.367  0.2075  0.2683  0.2471
  235MOL0     C30950   8.602   4.583   7.412 -0.6393 -0.4700  0.0363
  235MOL0     C30951   8.743   4.553   7.428 -0.2736 -1.0313  0.6542
  235MOL0     C30952   8.863   4.520   7.433 -0.3579  0.7127  0.1247
  235MOL0     C30953   8.117   4.126   7.300 -0.1822 -0.5108 -0.0133
  235MOL0     C30954   8.024   4.021   7.315 -0.0611  1.0971  0.0425
  235MOL0     H30955   7.590   3.873   7.391  1.0604  0.1505  0.4703
  235MOL0     H30956   7.404   3.706   7.422 -0.1154 -1.4264  0.4053
  235MOL0     H30957   7.246   3.562   7.286  0.8914  0.5755 -2.0453
  235MOL0     H30958   7.282   3.491   7.451 -1.0266  1.5939 -1.0476
  235MOL0     H30959   7.208   3.267   7.344  0.8018  1.4872  0.9823
  235MOL0     H30960   7.208   3.347   7.188  1.0733  2.7691 -1.1311
  235MOL0     H30961   7.018   3.484   7.254 -3.3040 -0.7992 -0.2191
  235MOL0     H30962   7.036   3.434   7.421  2.4068  1.1926 -0.7152
  235MOL0     H30963   6.920   3.282   7.190  1.0760  0.1534  0.9110
  235MOL0     H30964   7.004   3.189   7.318  1.3115  1.0120  2.5686
  235MOL0     H30965   6.751   3.365   7.326 -0.2978 -1.1531 -1.4553
  235MOL0     H30966   6.806   3.270   7.477  0.4472 -0.0256  0.0016
  235MOL0     H30967   6.767   3.070   7.365 -1.2607 -0.7839  0.0172
  235MOL0     H30968   6.745   3.143   7.205 -0.1350  2.5427 -1.5195
  235MOL0     H30969   6.572   3.211   7.449  1.4963 -1.2762  0.4990
  235MOL0     H30970   6.537   3.251   7.278  0.2118  0.5981  0.9069
  235MOL0     H30971   6.520   2.988   7.424  2.2257  1.5961  0.1702
  235MOL0     H30972   6.532   2.986   7.244  0.1526 -0.7815 -0.3617
  235MOL0     H30973   6.282   3.084   7.504  1.1293  0.0647 -1.2574
  235MOL0     H30974   6.001   3.262   7.327 -1.0737 -1.9376 -1.0383
  235MOL0     H30975   6.053   3.228   7.496  1.5384  0.2116  0.3717
  235MOL0     H30976   6.018   2.985   7.421  1.2816  1.1936  1.9868
  235MOL0     H30977   5.919   3.059   7.285  0.9858  1.0809 -0.7108
  235MOL0     H30978   5.864   3.071   7.590 -2.6936  1.3999  1.3786
  235MOL0     H30979   5.775   3.165   7.477  0.0325  0.2844  0.9419
  235MOL0     H30980   5.671   2.936   7.548  0.1601 -0.2485 -0.0608
  235MOL0     H30981   5.805   2.843   7.473 -0.9622 -0.8116 -2.3267
  235MOL0     H30982   5.564   2.759   7.476  3.2301  0.0654 -1.1396
  235MOL0     H30983   5.387   2.609   7.359  1.0128 -2.4554 -1.4191
  235MOL0     H30984   5.005   2.555   7.182  2.0308  2.8209 -3.1203
  235MOL0     H30985   4.830   2.379   7.119  0.5469 -1.7385 -0.1014
  235MOL0     H30986   4.982   1.988   7.056  1.4475 -1.3554 -0.6963
  235MOL0     H30987   4.956   2.019   6.878  0.9067  1.7659  1.6513
  235MOL0     H30988   4.816   1.844   6.914 -1.1516 -1.2932  1.3664
  235MOL0     H30989   4.708   1.981   6.906  0.2437  0.3450 -0.8024
  235MOL0     H30990   4.700   1.980   7.159 -3.2728 -1.2186  0.2028
  235MOL0     H30991   4.827   1.859   7.169 -0.1257 -1.1070 -2.4569
  235MOL0     H30992   4.557   1.782   7.053 -1.0014  0.7669  1.3369
  235MOL0     H30993   4.685   1.678   7.104 -2.0281 -0.7369 -1.3938
  235MOL0     H30994   4.599   1.868   7.318 -0.3025  0.5376  0.4337
  235MOL0     H30995   4.598   1.697   7.327  3.3732 -0.5873 -1.1576
  235MOL0     H30996   4.379   1.744   7.337  1.3719  1.4448  0.9793
  235MOL0     H30997   4.396   1.690   7.164  0.1020  2.0045 -1.2904
  235MOL0     H30998   4.363   1.964   7.276 -0.5411 -1.1422  0.3941
  235MOL0     H30999   4.440   1.948   7.116 -1.9201  1.3886 -1.2662
  235MOL0     H31000   4.237   1.837   7.021 -1.4698  2.6096 -2.0373
  235MOL0     H31001   4.211   2.002   7.068  0.4408 -1.1501 -2.4223
  235MOL0     H31002   5.153   2.136   6.958 -1.8380 -0.7397 -1.7537
  235MOL0     H31003   5.313   2.301   7.030  0.4841  2.6620 -1.4365
  235MOL0     H31004   5.466   2.810   6.988  0.5070 -0.3090 -0.0263
  235MOL0     H31005   5.651   2.941   7.111  1.3808 -0.5430  0.9557
  235MOL0     H31006   7.646   3.408   7.230  3.0141 -1.1332  1.6286
  235MOL0     H31007   7.849   3.574   7.239  1.0649  3.4062  1.0536
  235MOL0     H31008   8.088   3.939   7.640  0.2341  0.9434  0.0355
  235MOL0     H31009   8.260   4.094   7.608  1.1737  1.2949 -1.2330
  235MOL0     H31010   8.207   4.389   7.310  0.0247  0.1552 -0.4897
  235MOL0     H31011   8.322   4.313   7.214  0.0189  0.0339  0.2721
  235MOL0     H31012   8.361   4.543   7.268 -2.0457  1.1903  1.8084
  235MOL0     H31013   8.343   4.520   7.445  0.6491 -0.7729  1.4209
  235MOL0     H31014   8.571   4.437   7.268 -0.8626  2.3717 -0.7192
  235MOL0     H31015   8.545   4.374   7.435  1.1780 -0.9383 -1.3839
  235MOL0     H31016   8.586   4.661   7.337 -1.0527 -2.1044 -1.6515
  235MOL0     H31017   8.563   4.627   7.504 -0.0573  2.2309 -0.9199
  235MOL0     H31018   8.964   4.493   7.411 -0.1811  0.3295  1.3259
  235MOL0     H31019   8.118   4.169   7.201 -0.0257 -1.5649 -0.4880
  235MOL0     H31020   7.969   4.002   7.224  1.1212 -1.4773 -0.2028
  236MOL0     O31021   1.525   5.624   1.573 -0.3220  0.2148 -0.5663
  236MOL0     C31022   1.622   5.693   1.601  0.0456  0.0113  0.0226
  236MOL0     O31023   1.636   5.826   1.552 -0.0427  0.1639  0.4501
  236MOL0     C31024   1.524   5.876   1.487 -0.3010  1.0322 -0.6212
  236MOL0     C31025   1.409   5.911   1.558 -0.1472  0.1173  0.1001
  236MOL0     C31026   1.300   5.967   1.496  0.6646  0.6800  0.2371
  236MOL0     C31027   1.311   5.997   1.356  0.5868 -0.2864 -0.3919
  236MOL0     O31028   1.224   6.055   1.274 -0.3067 -0.9832  1.0624
  236MOL0     C31029   1.138   6.152   1.337 -0.4539  0.3015 -0.3957
  236MOL0     C31030   1.123   6.283   1.260  0.2962 -0.4876  0.4136
  236MOL0     C31031   1.242   6.373   1.309 -0.1138 -0.2940 -0.3259
  236MOL0     C31032   1.250   6.500   1.235 -0.5597  0.1874 -0.3482
  236MOL0     C31033   1.319   6.474   1.101 -0.7598  0.2866  0.7805
  236MOL0     C31034   1.306   6.603   1.001  0.9019  0.2613  0.6744
  236MOL0     C31035   1.299   6.545   0.860  0.1130 -0.9418  0.2106
  236MOL0     C31036   1.142   6.508   0.828 -0.8970  0.3228 -0.9601
  236MOL0     N31037   1.137   6.413   0.722  0.4924  0.1006  0.1129
  236MOL0     C31038   1.043   6.315   0.696 -0.2849  0.0774 -0.5773
  236MOL0     C31039   1.077   6.238   0.589 -0.1085 -0.1471  0.2219
  236MOL0     C31040   1.012   6.117   0.531 -1.1758  0.6005 -0.5952
  236MOL0     C31041   0.863   6.145   0.474 -0.8394  0.5194 -0.5212
  236MOL0     C31042   0.795   6.019   0.415 -0.1053 -0.1064 -0.6643
  236MOL0     C31043   0.759   5.912   0.517 -0.1860 -0.5359  0.1381
  236MOL0     O31044   0.679   5.972   0.618 -0.0536 -0.8292  0.4994
  236MOL0     C31045   0.544   5.977   0.614 -0.1791 -0.2145 -0.1840
  236MOL0     C31046   0.468   5.946   0.496  0.1645  0.5221  0.2294
  236MOL0     C31047   0.327   5.972   0.492  0.3997  0.0327 -0.4648
  236MOL0     C31048   0.268   6.028   0.608 -0.4961 -0.1018  0.4157
  236MOL0     C31049   0.122   6.065   0.608  0.2057 -0.5471  0.5469
  236MOL0     O31050   0.038   5.993   0.521 -0.0927 -0.1909  0.5645
  236MOL0     C31051  -0.090   6.033   0.494  0.1211  0.4393  0.5366
  236MOL0     C31052  -0.202   6.004   0.580 -0.1335 -0.8728  0.2624
  236MOL0     C31053  -0.336   6.040   0.533  0.0769  0.8063 -0.6612
  236MOL0     C31054  -0.364   6.085   0.405  0.2245 -0.8253  0.4144
  236MOL0     O31055  -0.489   6.095   0.351  0.0400 -0.2428 -0.6682
  236MOL0     C31056  -0.599   6.027   0.406 -0.4897 -0.3233 -0.1904
  236MOL0     C31057  -0.721   6.067   0.315  0.0432  0.2513 -0.7190
  236MOL0     C31058  -0.846   5.987   0.342 -0.6700  0.3102 -0.8135
  236MOL0     C31059  -0.954   6.062   0.265 -0.6812 -0.5292  0.5544
  236MOL0     C31060  -1.075   5.979   0.269 -0.7463  0.2788  0.6061
  236MOL0     C31061  -1.196   6.048   0.207 -0.9585  0.4889 -0.5277
  236MOL0     C31062  -1.182   6.036   0.062  1.4220 -0.0796  0.3013
  236MOL0     C31063  -1.336   6.033   0.006  0.0867  0.3819 -0.0809
  236MOL0    Cl31064  -1.406   6.199   0.005  0.1707 -0.3552 -0.3311
  236MOL0     C31065  -0.251   6.109   0.326 -0.0044 -0.0422  0.4413
  236MOL0     C31066  -0.121   6.077   0.368  0.2664 -0.3556  0.0756
  236MOL0     O31067   0.081   6.152   0.688 -0.3525  0.5371  0.3356
  236MOL0     C31068   0.347   6.053   0.728 -0.6190 -0.2350 -0.6907
  236MOL0     C31069   0.480   6.024   0.726  0.1237 -0.2323 -0.7356
  236MOL0     N31070   1.203   6.276   0.558  0.1378  0.0281  0.1566
  236MOL0     N31071   1.240   6.371   0.640 -0.0115 -0.5195 -1.1436
  236MOL0     C31072   1.429   5.951   1.287  0.2960  0.4659  0.6180
  236MOL0     C31073   1.535   5.882   1.349  0.0087 -0.7456  0.8344
  236MOL0     C31074   1.720   5.627   1.700 -0.0292 -1.0591  0.1596
  236MOL0     C31075   1.857   5.674   1.716 -0.6167  0.1175 -0.2135
  236MOL0     C31076   1.951   5.609   1.800 -0.5311  0.2487 -0.5665
  236MOL0     C31077   1.905   5.504   1.880  0.6413  0.3577 -0.6076
  236MOL0     O31078   1.984   5.455   1.982  0.2003  0.4128  0.3092
  236MOL0     C31079   1.955   5.326   2.037  0.3292  0.1440 -0.1717
  236MOL0     C31080   2.094   5.261   2.056  0.8072  0.1836  0.6982
  236MOL0     C31081   2.082   5.126   2.111  0.3004 -0.2356 -0.7865
  236MOL0     C31082   2.049   5.013   2.012 -0.7154 -0.1330 -0.4770
  236MOL0     C31083   2.009   4.888   2.084 -0.1824 -0.5058  0.3157
  236MOL0     C31084   2.001   4.779   2.138  0.3824  0.0438  0.3581
  236MOL0     C31085   1.773   5.451   1.859  1.3749 -0.5062  0.1850
  236MOL0     C31086   1.680   5.514   1.773 -0.4603  0.6551 -0.6300
  236MOL0     H31087   1.411   5.912   1.666 -1.6483 -1.9786  0.2199
  236MOL0     H31088   1.213   5.988   1.557 -0.8356 -1.9956 -0.8160
  236MOL0     H31089   1.172   6.188   1.434 -2.6199  0.8231  0.2183
  236MOL0     H31090   1.041   6.101   1.339  0.9977 -2.7571 -1.2511
  236MOL0     H31091   1.033   6.343   1.271 -0.3757 -1.3505 -0.2570
  236MOL0     H31092   1.128   6.257   1.153 -1.5913  0.0478  0.1642
  236MOL0     H31093   1.332   6.313   1.294  1.3734  1.6488  0.5005
  236MOL0     H31094   1.232   6.396   1.416 -0.5116  4.5461 -1.1658
  236MOL0     H31095   1.145   6.530   1.227 -0.7303  0.3006  1.8543
  236MOL0     H31096   1.303   6.580   1.288  0.6678  0.3608 -1.7391
  236MOL0     H31097   1.270   6.386   1.059 -1.2386 -0.4816  2.8134
  236MOL0     H31098   1.425   6.451   1.114  0.1959  2.9018 -1.3793
  236MOL0     H31099   1.389   6.673   1.004  1.9826 -0.5006 -3.7753
  236MOL0     H31100   1.216   6.662   1.021  0.3672 -0.1362 -0.4610
  236MOL0     H31101   1.327   6.628   0.794 -1.2659 -0.3485  0.3450
  236MOL0     H31102   1.374   6.467   0.841  0.1355 -0.9521  0.3346
  236MOL0     H31103   1.077   6.595   0.813 -1.6537  0.2803  1.6653
  236MOL0     H31104   1.112   6.451   0.916  2.1981 -1.2580 -0.7935
  236MOL0     H31105   0.950   6.307   0.752 -0.8647 -1.3842 -1.6880
  236MOL0     H31106   1.014   6.031   0.598 -2.2371  1.8767  1.1595
  236MOL0     H31107   1.055   6.092   0.433 -0.0686  0.7516 -0.1672
  236MOL0     H31108   0.877   6.218   0.394 -1.7413  2.2683  0.8379
  236MOL0     H31109   0.797   6.195   0.546 -1.5224  1.5636 -1.8362
  236MOL0     H31110   0.702   6.050   0.366  1.2951  1.0877 -2.7244
  236MOL0     H31111   0.847   5.975   0.330 -1.8463  0.6804 -2.2133
  236MOL0     H31112   0.846   5.868   0.566  1.2048 -0.7292 -2.3724
  236MOL0     H31113   0.699   5.835   0.468  0.4068 -1.5598  0.9839
  236MOL0     H31114   0.502   5.911   0.399 -0.2576  0.7352 -0.0010
  236MOL0     H31115   0.270   5.956   0.402  0.0377 -0.9341 -0.0824
  236MOL0     H31116  -0.189   5.973   0.684  3.1861 -2.2704 -0.4542
  236MOL0     H31117  -0.412   6.015   0.606  1.6963 -0.0276  0.8401
  236MOL0     H31118  -0.607   6.057   0.511 -0.6369 -1.0195  0.0002
  236MOL0     H31119  -0.581   5.920   0.396  0.8066 -0.1892  0.4510
  236MOL0     H31120  -0.703   6.048   0.209 -0.4816  0.9753 -0.9492
  236MOL0     H31121  -0.731   6.176   0.325  0.2402  0.5439 -3.1152
  236MOL0     H31122  -0.872   5.980   0.448 -1.3541 -0.9371 -1.0409
  236MOL0     H31123  -0.827   5.885   0.308  0.5302 -0.5549  2.1407
  236MOL0     H31124  -0.966   6.159   0.314  0.4163  0.9828 -1.9578
  236MOL0     H31125  -0.923   6.085   0.163  1.0388 -2.3226  0.6071
  236MOL0     H31126  -1.090   5.955   0.375 -1.9833 -2.0815 -0.0389
  236MOL0     H31127  -1.052   5.890   0.211  1.5444  2.0795 -1.4559
  236MOL0     H31128  -1.196   6.157   0.218  0.2614  0.4887 -0.4347
  236MOL0     H31129  -1.287   6.005   0.249 -0.8046 -0.1335 -0.8350
  236MOL0     H31130  -1.123   6.113   0.012 -0.3162 -0.4422 -2.5650
  236MOL0     H31131  -1.127   5.947   0.032  0.6086 -0.1361 -1.1219
  236MOL0     H31132  -1.408   5.972   0.060 -0.3511  2.3547  1.6768
  236MOL0     H31133  -1.334   5.984  -0.092 -1.0764  0.2638 -0.0581
  236MOL0     H31134  -0.266   6.138   0.222 -0.0314  1.5751  0.8629
  236MOL0     H31135  -0.046   6.097   0.292 -0.1910 -1.9945 -0.8275
  236MOL0     H31136   0.305   6.102   0.815  0.8782  0.0776 -0.1156
  236MOL0     H31137   0.535   6.044   0.817 -0.7236 -3.0580  0.5218
  236MOL0     H31138   1.436   5.965   1.180  1.3072  0.8089  0.7141
  236MOL0     H31139   1.618   5.852   1.285 -0.9666  0.6061 -1.1773
  236MOL0     H31140   1.905   5.757   1.666 -0.7355  0.5930  0.4461
  236MOL0     H31141   2.051   5.652   1.809 -0.3449 -0.5636  1.8429
  236MOL0     H31142   1.878   5.269   1.983  0.3738  0.1762 -0.2695
  236MOL0     H31143   1.914   5.318   2.138 -0.9005 -1.2751 -0.7299
  236MOL0     H31144   2.151   5.252   1.963 -1.3933 -0.2789 -0.6900
  236MOL0     H31145   2.146   5.328   2.125  1.4927  3.6814 -2.8673
  236MOL0     H31146   2.011   5.119   2.195 -1.2106 -2.5747 -2.1549
  236MOL0     H31147   2.182   5.102   2.148 -0.7544 -0.2246  2.3935
  236MOL0     H31148   1.968   5.054   1.950  0.6482  7.6073  1.7219
  236MOL0     H31149   2.134   4.999   1.945 -0.0186  0.2248  0.3243
  236MOL0     H31150   1.991   4.695   2.204 -2.7270  0.3166  0.4006
  236MOL0     H31151   1.722   5.372   1.915 -2.6646  2.3153  0.9283
  236MOL0     H31152   1.579   5.475   1.774 -0.6790  1.1000  2.4076
  237MOL0     O31153  10.654   9.142   3.107 -0.3966 -0.3944 -1.0686
  237MOL0     C31154  10.716   9.206   3.195  0.1141 -0.5179 -0.2648
  237MOL0     O31155  10.838   9.174   3.245  0.2412  0.7362  0.5808
  237MOL0     C31156  10.925   9.077   3.194  0.0625  0.2216 -0.1821
  237MOL0     C31157  11.052   9.078   3.247  0.1594  0.3232  0.8805
  237MOL0     C31158  11.159   9.006   3.203  0.1544  0.1742  0.2326
  237MOL0     C31159  11.137   8.929   3.087  0.4000 -0.4858  0.7405
  237MOL0     O31160  11.237   8.860   3.018  0.3730  0.7748  0.0519
  237MOL0     C31161  11.366   8.909   3.029  0.1625 -0.0712  0.3806
  237MOL0     C31162  11.461   8.816   2.959  0.0072  0.0538  0.4380
  237MOL0     C31163  11.473   8.677   3.020 -0.3525 -0.8304  1.0801
  237MOL0     C31164  11.561   8.672   3.148 -0.3132 -0.0362 -0.0125
  237MOL0     C31165  11.574   8.530   3.186 -0.3048  0.4505 -1.1562
  237MOL0     C31166  11.689   8.523   3.286  0.3950 -0.0323  0.1700
  237MOL0     C31167  11.703   8.381   3.348  0.2790 -0.3069  0.4110
  237MOL0     C31168  11.599   8.349   3.457 -0.2226  0.2135  0.0753
  237MOL0     N31169  11.645   8.381   3.594  0.2594  0.4561 -0.0966
  237MOL0     C31170  11.580   8.448   3.693  0.2567 -0.2916  0.1480
  237MOL0     C31171  11.664   8.456   3.795  0.1163 -0.1135  0.6348
  237MOL0     C31172  11.655   8.549   3.908 -0.1500  0.2891  0.2469
  237MOL0     C31173  11.608   8.484   4.045  0.1372  0.3555 -0.2619
  237MOL0     C31174  11.710   8.408   4.121 -0.4926  1.0900 -0.9068
  237MOL0     C31175  11.725   8.264   4.088 -0.4655  0.3877  0.0521
  237MOL0     O31176  11.725   8.181   4.202 -0.1884  0.5459  0.6586
  237MOL0     C31177  11.760   8.047   4.184  0.7732 -0.4017  0.1463
  237MOL0     C31178  11.762   7.976   4.063  0.6234  0.3625  0.6315
  237MOL0     C31179  11.802   7.841   4.071 -0.2390 -0.3951  0.0621
  237MOL0     C31180  11.830   7.776   4.189 -0.1020 -0.5041 -0.7730
  237MOL0     C31181  11.880   7.638   4.202  0.2199 -0.2308  0.6645
  237MOL0     O31182  11.894   7.571   4.086  0.3158 -0.2445 -0.7558
  237MOL0     C31183  11.969   7.451   4.061  0.1852 -0.2265 -0.3853
  237MOL0     C31184  12.056   7.391   4.150 -0.5122  0.4336  0.5486
  237MOL0     C31185  12.120   7.274   4.114  0.1412  0.1054 -0.5765
  237MOL0     C31186  12.100   7.212   3.987  0.5977  0.3283  0.0142
  237MOL0     O31187  12.164   7.098   3.941 -1.4904  0.4442 -0.0063
  237MOL0     C31188  12.269   7.043   4.019  0.0933  1.1426  0.0031
  237MOL0     C31189  12.356   6.949   3.933  0.1834 -0.3551 -0.5714
  237MOL0     C31190  12.484   6.905   4.016 -0.5836 -0.2732  0.0581
  237MOL0     C31191  12.595   6.826   3.948  0.3051 -0.0006  0.1986
  237MOL0     C31192  12.696   6.756   4.035  0.2027  0.0687 -1.0170
  237MOL0     C31193  12.773   6.838   4.133 -0.6766 -0.9006 -0.2140
  237MOL0     C31194  12.890   6.907   4.064  0.2034  0.2343 -0.1543
  237MOL0     C31195  12.961   7.016   4.155 -0.7763  0.6495 -0.4963
  237MOL0    Cl31196  13.127   7.021   4.119  0.2572 -0.1943  0.1410
  237MOL0     C31197  12.023   7.275   3.899 -0.4244 -0.3160 -0.5105
  237MOL0     C31198  11.955   7.391   3.928 -1.0253 -0.9303  0.2498
  237MOL0     O31199  11.914   7.589   4.309  0.6913  0.7804 -0.1961
  237MOL0     C31200  11.806   7.843   4.309  0.7394 -0.3900  0.0673
  237MOL0     C31201  11.763   7.974   4.305  1.1042 -0.3278 -0.1555
  237MOL0     N31202  11.774   8.380   3.769 -0.2670 -0.1433  0.1218
  237MOL0     N31203  11.759   8.338   3.648  0.0613  0.0930  0.2733
  237MOL0     C31204  11.000   8.912   3.042 -1.8138 -0.7302  0.5056
  237MOL0     C31205  10.897   8.991   3.090 -0.1447 -0.1005  0.5734
  237MOL0     C31206  10.642   9.302   3.277  0.3778 -0.5756  0.3883
  237MOL0     C31207  10.498   9.294   3.290  0.4198 -0.5334 -0.1522
  237MOL0     C31208  10.440   9.390   3.366 -0.5382 -0.7253 -0.9898
  237MOL0     C31209  10.511   9.483   3.453  0.4223 -0.5088 -0.3281
  237MOL0     O31210  10.435   9.567   3.537 -0.1106  1.1368 -0.3221
  237MOL0     C31211  10.302   9.525   3.561  0.7827 -0.3051  0.4607
  237MOL0     C31212  10.200   9.615   3.494 -0.0536 -0.1037  0.1699
  237MOL0     C31213  10.067   9.628   3.583 -0.7680  0.0820 -0.3659
  237MOL0     C31214   9.966   9.733   3.534  0.6757 -0.2058  0.3023
  237MOL0     C31215   9.846   9.745   3.617 -0.2836 -0.0541  0.3439
  237MOL0     C31216   9.748   9.730   3.689  0.3259 -0.6636  0.0431
  237MOL0     C31217  10.651   9.477   3.448  0.7020  0.2306 -0.2346
  237MOL0     C31218  10.717   9.394   3.358 -0.0952 -0.5754 -0.2188
  237MOL0     H31219  11.071   9.158   3.317 -0.0802  2.2692 -1.1812
  237MOL0     H31220  11.253   9.033   3.249  0.2826  2.1440 -1.0525
  237MOL0     H31221  11.397   8.927   3.132  0.7992  0.6939  0.0724
  237MOL0     H31222  11.370   9.001   2.969 -0.3706  2.2579  3.6816
  237MOL0     H31223  11.556   8.869   2.947  0.0189  0.0478  0.4998
  237MOL0     H31224  11.429   8.803   2.856  2.5755  0.3281 -0.4662
  237MOL0     H31225  11.523   8.625   2.938  2.0159 -1.9754  3.1140
  237MOL0     H31226  11.375   8.637   3.046 -0.3045 -1.8690 -0.2515
  237MOL0     H31227  11.659   8.704   3.114 -0.1025 -2.3890 -1.9083
  237MOL0     H31228  11.531   8.742   3.226  0.2902  1.2379 -0.8937
  237MOL0     H31229  11.608   8.462   3.108  0.6327 -0.5362  0.0570
  237MOL0     H31230  11.481   8.498   3.234 -0.2022  0.1411 -1.1643
  237MOL0     H31231  11.673   8.598   3.365  1.8594  1.5907 -0.9877
  237MOL0     H31232  11.776   8.554   3.228 -0.5714  4.8944  0.8681
  237MOL0     H31233  11.696   8.313   3.262  1.6004 -1.2963  1.0448
  237MOL0     H31234  11.802   8.365   3.392  0.4094 -1.2124 -0.1878
  237MOL0     H31235  11.584   8.240   3.452  0.3547  0.1003 -4.7327
  237MOL0     H31236  11.502   8.392   3.432  1.1709  2.1773 -2.4260
  237MOL0     H31237  11.492   8.512   3.686 -0.9255 -1.9852 -1.2315
  237MOL0     H31238  11.573   8.619   3.890 -1.8090 -1.3984  0.8777
  237MOL0     H31239  11.755   8.592   3.920 -0.5550  1.2291  0.2956
  237MOL0     H31240  11.526   8.413   4.030 -0.1723  0.7408 -0.4234
  237MOL0     H31241  11.582   8.558   4.121  0.1214 -0.3792  0.4630
  237MOL0     H31242  11.812   8.449   4.111 -0.2389  0.7274  0.0788
  237MOL0     H31243  11.689   8.418   4.227  0.7832  0.4352 -0.5687
  237MOL0     H31244  11.808   8.251   4.019 -0.7869  1.3047 -0.5169
  237MOL0     H31245  11.644   8.236   4.020  1.1287  1.4266 -2.3928
  237MOL0     H31246  11.736   8.027   3.971 -1.9406 -2.0264 -0.1202
  237MOL0     H31247  11.824   7.788   3.980  1.0375  0.9528 -0.4513
  237MOL0     H31248  12.080   7.422   4.251  0.1649  3.2612 -0.3891
  237MOL0     H31249  12.184   7.223   4.185 -0.1025 -2.1700 -1.9072
  237MOL0     H31250  12.224   6.984   4.100 -2.0589 -1.2403 -2.7212
  237MOL0     H31251  12.337   7.118   4.060  1.8093 -0.1541 -0.3204
  237MOL0     H31252  12.394   7.009   3.850 -1.5581  0.8789 -0.5326
  237MOL0     H31253  12.311   6.860   3.887  0.9038 -0.7615 -0.5101
  237MOL0     H31254  12.442   6.859   4.106 -2.6224  0.6550 -0.3477
  237MOL0     H31255  12.537   6.997   4.043 -1.7374  0.9703 -1.6452
  237MOL0     H31256  12.543   6.750   3.890 -1.6723  0.0560  1.7739
  237MOL0     H31257  12.642   6.891   3.874 -0.1721 -0.1962 -0.2738
  237MOL0     H31258  12.758   6.687   3.977  1.2849 -0.9351  1.2201
  237MOL0     H31259  12.644   6.679   4.093 -0.8954  2.2331  1.0416
  237MOL0     H31260  12.818   6.769   4.205  0.4319 -1.1221 -1.0999
  237MOL0     H31261  12.718   6.913   4.191  0.1460  0.1250 -0.7279
  237MOL0     H31262  12.967   6.831   4.049  2.1780  2.2799 -0.9692
  237MOL0     H31263  12.869   6.959   3.970  1.0159 -0.6446 -0.8388
  237MOL0     H31264  12.954   6.981   4.259 -2.0595  1.5094 -0.2745
  237MOL0     H31265  12.919   7.117   4.166 -0.8821  0.4776  0.8348
  237MOL0     H31266  12.024   7.227   3.802 -0.3715 -2.2871  0.4156
  237MOL0     H31267  11.898   7.439   3.848  0.5633  1.3482  0.3677
  237MOL0     H31268  11.826   7.800   4.407  0.6635  1.1380  0.7819
  237MOL0     H31269  11.742   8.022   4.401  0.2021 -1.6286  0.3282
  237MOL0     H31270  10.972   8.843   2.963 -3.3406  0.4483 -0.0390
  237MOL0     H31271  10.800   8.986   3.043  0.6335 -0.4874 -1.0414
  237MOL0     H31272  10.441   9.228   3.225 -2.8205  0.7494  1.2377
  237MOL0     H31273  10.332   9.402   3.361 -0.2819  2.4745 -1.5030
  237MOL0     H31274  10.290   9.534   3.669  1.0682 -3.2614  0.8254
  237MOL0     H31275  10.282   9.417   3.560  0.4251 -0.2630  1.6736
  237MOL0     H31276  10.241   9.715   3.480 -0.5511  0.1626  0.5659
  237MOL0     H31277  10.174   9.570   3.397 -1.6563  1.3712 -0.1427
  237MOL0     H31278  10.102   9.648   3.684  0.8025  1.1407 -1.0812
  237MOL0     H31279  10.019   9.530   3.576 -1.0850  0.2982 -1.3823
  237MOL0     H31280  10.010   9.833   3.520  0.8358 -0.4346 -1.0492
  237MOL0     H31281   9.927   9.705   3.435 -1.8443  2.9410  0.2358
  237MOL0     H31282   9.661   9.723   3.751  1.2668  1.6109  1.7660
  237MOL0     H31283  10.723   9.544   3.494  1.0924  0.4165 -1.0897
  237MOL0     H31284  10.824   9.401   3.347  0.1585 -2.2292  0.9211
  238MOL0     O31285   4.995   4.509   1.841 -0.0393 -0.3268  0.2640
  238MOL0     C31286   5.001   4.466   1.955 -0.1053 -1.6850 -0.3209
  238MOL0     O31287   4.892   4.409   2.028  0.6495 -0.5762 -0.1705
  238MOL0     C31288   4.780   4.386   1.960  0.4648 -0.2674 -0.3959
  238MOL0     C31289   4.665   4.468   1.967  0.3151  0.0169 -0.4608
  238MOL0     C31290   4.542   4.429   1.911 -0.0824  0.6719 -0.4739
  238MOL0     C31291   4.537   4.314   1.836  0.5097  0.2214  0.5484
  238MOL0     O31292   4.429   4.275   1.768 -0.2184 -1.2415 -0.6152
  238MOL0     C31293   4.310   4.355   1.772  0.1668  0.0501  0.2142
  238MOL0     C31294   4.204   4.299   1.680 -0.2052  0.7617 -0.5548
  238MOL0     C31295   4.100   4.214   1.782 -0.5690 -0.1306  0.3632
  238MOL0     C31296   3.998   4.317   1.847 -0.8874  0.3330 -0.3805
  238MOL0     C31297   3.916   4.380   1.734  0.5223  0.7814  0.4706
  238MOL0     C31298   3.795   4.451   1.790 -0.1228 -0.2137  0.1261
  238MOL0     C31299   3.689   4.492   1.683  0.2912  0.2271 -0.2106
  238MOL0     C31300   3.544   4.493   1.718  0.1891 -0.4410  0.7079
  238MOL0     N31301   3.468   4.368   1.696 -0.7430  0.1453 -0.3830
  238MOL0     C31302   3.512   4.250   1.749  0.4947 -0.2228  0.8401
  238MOL0     C31303   3.426   4.159   1.710 -0.5204 -0.6297 -0.3087
  238MOL0     C31304   3.433   4.011   1.752  0.3311 -0.0855  0.8035
  238MOL0     C31305   3.549   3.945   1.672  0.1299 -0.4577 -0.0594
  238MOL0     C31306   3.585   3.806   1.721  1.0266 -0.3064 -0.1262
  238MOL0     C31307   3.662   3.801   1.849 -0.8806  0.7931 -0.7350
  238MOL0     O31308   3.785   3.875   1.844  0.4193 -0.2732  0.1796
  238MOL0     C31309   3.905   3.814   1.874  0.1024  0.4018 -0.7234
  238MOL0     C31310   4.013   3.868   1.799  0.0343  0.0481  0.6349
  238MOL0     C31311   4.142   3.813   1.812  0.6689 -1.0602  0.5441
  238MOL0     C31312   4.163   3.694   1.883  0.0447  1.0473 -0.3031
  238MOL0     C31313   4.301   3.625   1.876  0.4697 -0.2290 -0.1291
  238MOL0     O31314   4.317   3.518   1.953  0.6042  0.5994 -0.6479
  238MOL0     C31315   4.421   3.439   1.923  0.6662  0.0395 -0.4337
  238MOL0     C31316   4.552   3.492   1.948 -0.3206  0.0465  0.1776
  238MOL0     C31317   4.662   3.416   1.937 -0.7703  0.0247 -0.3150
  238MOL0     C31318   4.658   3.278   1.901  0.4311 -0.9730 -0.5882
  238MOL0     O31319   4.769   3.200   1.873  0.0471 -0.5257  0.7576
  238MOL0     C31320   4.894   3.261   1.906  0.1577 -0.4909 -0.1506
  238MOL0     C31321   5.006   3.158   1.908  0.7405 -0.1310  0.0020
  238MOL0     C31322   5.017   3.076   2.038  0.2955 -0.0722  0.3973
  238MOL0     C31323   4.925   2.961   2.051  0.0115  0.0166  0.4958
  238MOL0     C31324   4.935   2.895   2.185 -0.3226  0.2326 -0.8215
  238MOL0     C31325   4.845   2.762   2.183 -0.4630  0.3509 -0.4147
  238MOL0     C31326   4.854   2.700   2.325  0.3176  0.1420  0.7320
  238MOL0     C31327   4.772   2.769   2.430 -0.5379  0.1610 -0.0092
  238MOL0    Cl31328   4.734   2.667   2.579 -0.4527  0.5297  0.0728
  238MOL0     C31329   4.532   3.227   1.880  0.2913 -0.0468 -0.6106
  238MOL0     C31330   4.413   3.308   1.892  0.5541  0.9090  0.4968
  238MOL0     O31331   4.379   3.660   1.787 -0.4062  0.6046  0.7156
  238MOL0     C31332   4.052   3.641   1.951  0.7924  0.2919  0.4540
  238MOL0     C31333   3.920   3.694   1.949  0.1843 -0.3864  0.7665
  238MOL0     N31334   3.328   4.220   1.642 -0.1213 -0.2851  1.0767
  238MOL0     N31335   3.352   4.346   1.625  0.2079  0.0475 -1.1066
  238MOL0     C31336   4.652   4.234   1.821  0.2538 -0.1220 -0.8718
  238MOL0     C31337   4.774   4.274   1.879  0.2443  0.3872 -0.1996
  238MOL0     C31338   5.134   4.465   2.022 -0.2561 -0.0796  0.1303
  238MOL0     C31339   5.164   4.401   2.140 -0.3172  0.9217  0.2067
  238MOL0     C31340   5.285   4.406   2.197 -0.1550  0.0078  0.0541
  238MOL0     C31341   5.394   4.472   2.135  0.1954 -0.0712  0.5967
  238MOL0     O31342   5.528   4.461   2.171 -0.2367  0.1712  0.0627
  238MOL0     C31343   5.560   4.439   2.310  0.1964 -0.0984  0.3651
  238MOL0     C31344   5.699   4.491   2.339 -0.4700  0.8646 -0.3137
  238MOL0     C31345   5.805   4.390   2.319  0.5974 -0.4408  0.8644
  238MOL0     C31346   5.940   4.425   2.393 -0.4688 -0.0758 -1.0968
  238MOL0     C31347   5.985   4.562   2.380  0.5094 -0.2124  1.0053
  238MOL0     C31348   6.014   4.672   2.371  0.6664 -0.3252  0.7744
  238MOL0     C31349   5.368   4.524   2.010  0.5248 -0.0811  0.1418
  238MOL0     C31350   5.242   4.518   1.957 -0.2134  0.4260 -0.0924
  238MOL0     H31351   4.652   4.561   2.021  2.4475 -0.1624  0.4584
  238MOL0     H31352   4.451   4.484   1.933 -1.3430 -1.6221  0.3944
  238MOL0     H31353   4.338   4.455   1.740  1.2786 -0.2681  0.1368
  238MOL0     H31354   4.264   4.355   1.871 -0.9495 -0.7131 -0.2746
  238MOL0     H31355   4.252   4.220   1.621  0.4075 -0.9133  2.0427
  238MOL0     H31356   4.158   4.371   1.612 -2.5786  0.6683  0.8548
  238MOL0     H31357   4.150   4.153   1.857 -1.1139 -1.0804 -0.0341
  238MOL0     H31358   4.052   4.138   1.720  2.5398 -1.4516 -0.6183
  238MOL0     H31359   3.936   4.262   1.919  1.2229 -0.5028  0.8712
  238MOL0     H31360   4.050   4.394   1.904 -1.9520  0.1951  0.8354
  238MOL0     H31361   3.879   4.301   1.667 -0.5365 -0.4775  2.4347
  238MOL0     H31362   3.977   4.449   1.676  1.6108  0.1765  0.8768
  238MOL0     H31363   3.827   4.545   1.834 -1.0819  0.1030  0.1872
  238MOL0     H31364   3.753   4.387   1.869 -1.0827 -0.4109 -0.5250
  238MOL0     H31365   3.723   4.587   1.642  0.9639 -0.2712 -0.8480
  238MOL0     H31366   3.701   4.419   1.602  0.0935 -1.9883  1.6548
  238MOL0     H31367   3.500   4.568   1.652  2.0437 -1.9729 -2.5372
  238MOL0     H31368   3.541   4.535   1.819  0.0392  3.0021 -0.5985
  238MOL0     H31369   3.599   4.233   1.812 -0.1675 -3.7135  0.9974
  238MOL0     H31370   3.336   3.970   1.722  0.9441 -0.2953 -1.0369
  238MOL0     H31371   3.444   4.014   1.861 -0.3454  0.8858  0.8561
  238MOL0     H31372   3.638   4.007   1.687 -1.0585  1.1584  0.5931
  238MOL0     H31373   3.514   3.938   1.569 -1.2773  1.2649  0.2598
  238MOL0     H31374   3.496   3.743   1.730  1.9057 -1.5354  0.2302
  238MOL0     H31375   3.649   3.769   1.640 -2.1526  0.6514 -3.3462
  238MOL0     H31376   3.686   3.695   1.864 -0.1008  1.1196  0.5049
  238MOL0     H31377   3.596   3.836   1.929 -1.5587 -1.4975 -0.2075
  238MOL0     H31378   3.990   3.955   1.738 -2.5767  0.1347  1.6145
  238MOL0     H31379   4.220   3.856   1.750 -1.0701 -0.1676 -1.1562
  238MOL0     H31380   4.566   3.597   1.967 -1.1748  0.2475 -0.2399
  238MOL0     H31381   4.755   3.470   1.955  0.9857 -2.5438 -1.2654
  238MOL0     H31382   4.894   3.304   2.007  0.0136  0.5511 -0.5796
  238MOL0     H31383   4.914   3.337   1.830  0.3945  0.7484  1.1088
  238MOL0     H31384   5.098   3.211   1.883 -1.6836  3.5549 -2.0600
  238MOL0     H31385   4.981   3.083   1.833 -0.3716 -0.1733  0.3859
  238MOL0     H31386   5.006   3.145   2.122 -3.3314  0.8139 -0.6413
  238MOL0     H31387   5.120   3.038   2.039  0.8426  1.2407 -1.5616
  238MOL0     H31388   4.822   2.997   2.040  0.2810  0.2864 -1.5257
  238MOL0     H31389   4.945   2.886   1.975 -2.1217 -1.6403  1.4615
  238MOL0     H31390   4.901   2.967   2.260  1.2459  1.8586 -1.5950
  238MOL0     H31391   5.038   2.876   2.215  0.1380  1.1313 -1.7543
  238MOL0     H31392   4.880   2.697   2.102  2.2719  0.3504  0.6560
  238MOL0     H31393   4.746   2.793   2.152 -0.5736  1.0586  0.5883
  238MOL0     H31394   4.820   2.596   2.330  2.0100 -0.3807  2.6890
  238MOL0     H31395   4.957   2.706   2.360  1.8443  0.1755 -3.2576
  238MOL0     H31396   4.677   2.807   2.393  0.1412  0.9840 -0.9378
  238MOL0     H31397   4.819   2.864   2.458 -0.0220 -0.1806  0.3137
  238MOL0     H31398   4.506   3.130   1.841 -0.4418 -0.0145 -0.2106
  238MOL0     H31399   4.325   3.247   1.873  0.1384 -0.6385  5.8349
  238MOL0     H31400   4.059   3.549   2.009  1.2337  0.7232  1.0984
  238MOL0     H31401   3.841   3.655   2.011 -0.9378 -1.2847 -1.1326
  238MOL0     H31402   4.638   4.148   1.756 -4.7418  1.8131 -2.8631
  238MOL0     H31403   4.866   4.218   1.868 -0.5512 -1.1429  0.6399
  238MOL0     H31404   5.089   4.345   2.195  0.2950  1.8697  2.0942
  238MOL0     H31405   5.313   4.351   2.287  1.0485 -0.8388 -0.8083
  238MOL0     H31406   5.557   4.330   2.326  2.5813 -0.5563 -1.7655
  238MOL0     H31407   5.489   4.485   2.380 -0.3588 -1.5920  0.8452
  238MOL0     H31408   5.724   4.583   2.286 -0.4893 -0.4093 -2.6492
  238MOL0     H31409   5.696   4.509   2.447 -0.8239  1.5503 -0.4342
  238MOL0     H31410   5.818   4.358   2.215 -2.9826 -1.3347  0.5641
  238MOL0     H31411   5.772   4.300   2.373  1.5778 -1.0725  0.4477
  238MOL0     H31412   5.925   4.417   2.501  1.3766  0.0374 -0.7955
  238MOL0     H31413   6.012   4.346   2.370  0.1706  0.0929  0.2593
  238MOL0     H31414   6.045   4.773   2.386 -0.7011 -0.1150  2.6365
  238MOL0     H31415   5.443   4.561   1.941  0.3976  1.7287  0.9169
  238MOL0     H31416   5.237   4.562   1.858 -3.6392 -0.5355 -0.4597
  239MOL0     O31417   2.957   6.022   5.950 -0.4343 -0.0280  0.1952
  239MOL0     C31418   2.981   5.920   5.896 -0.7932  0.6723 -0.1613
  239MOL0     O31419   2.917   5.803   5.917 -0.4028  0.1586 -0.2815
  239MOL0     C31420   2.792   5.814   5.983  0.0286 -0.5799 -0.8574
  239MOL0     C31421   2.679   5.882   5.932 -0.0453 -0.0744  0.0643
  239MOL0     C31422   2.553   5.869   5.989  0.3711 -0.7092 -0.0458
  239MOL0     C31423   2.541   5.785   6.105 -0.8249  0.3936  0.1365
  239MOL0     O31424   2.410   5.761   6.146 -0.6007  0.0264  0.0917
  239MOL0     C31425   2.380   5.630   6.208 -0.6610 -0.4486 -1.0889
  239MOL0     C31426   2.246   5.574   6.161 -0.0822  0.5041 -0.0769
  239MOL0     C31427   2.124   5.627   6.247 -0.3539  0.2017  0.3057
  239MOL0     C31428   1.990   5.562   6.194  0.0692 -0.0896  0.9954
  239MOL0     C31429   1.875   5.598   6.284 -0.5851  0.0287 -0.8536
  239MOL0     C31430   1.873   5.492   6.399 -0.1664 -0.1308  0.8945
  239MOL0     C31431   1.813   5.362   6.351  0.4620  0.8669  0.1585
  239MOL0     C31432   1.812   5.237   6.458 -1.1586 -0.0498  0.3345
  239MOL0     N31433   1.890   5.128   6.398  0.1156  0.2279  0.4575
  239MOL0     C31434   2.026   5.124   6.387 -0.2131  0.6286 -1.1391
  239MOL0     C31435   2.043   5.005   6.320  0.3263 -0.5885 -0.4178
  239MOL0     C31436   2.180   4.946   6.284  1.0937 -0.2045 -0.1776
  239MOL0     C31437   2.188   4.795   6.240 -0.5143 -0.2511  0.2737
  239MOL0     C31438   2.297   4.716   6.317  0.3891 -0.3086  0.3874
  239MOL0     C31439   2.449   4.747   6.271 -0.0592  0.3311  0.1971
  239MOL0     O31440   2.489   4.706   6.139 -0.2407  0.1649  0.3398
  239MOL0     C31441   2.626   4.681   6.126 -0.2505 -0.0068  0.0717
  239MOL0     C31442   2.659   4.594   6.025  0.2231  0.7565 -0.2174
  239MOL0     C31443   2.793   4.551   6.006  0.1416 -0.4981 -0.3076
  239MOL0     C31444   2.893   4.603   6.079 -0.4076 -0.3759 -0.1997
  239MOL0     C31445   3.029   4.574   6.034  0.2249  0.3398 -1.3098
  239MOL0     O31446   3.052   4.495   5.927 -0.4025  0.1514  0.1129
  239MOL0     C31447   3.181   4.489   5.879 -0.0181  0.5642  0.2469
  239MOL0     C31448   3.260   4.609   5.868 -0.2977  0.3327 -0.2599
  239MOL0     C31449   3.393   4.607   5.824  0.2240 -0.0744 -0.0625
  239MOL0     C31450   3.450   4.487   5.780 -0.0890  0.1809  0.4614
  239MOL0     O31451   3.580   4.484   5.747 -0.1621 -0.0614  0.2191
  239MOL0     C31452   3.606   4.459   5.603 -0.7495 -0.6866  0.3731
  239MOL0     C31453   3.713   4.562   5.559 -0.3097 -0.7055 -0.7392
  239MOL0     C31454   3.854   4.508   5.594  0.3845  1.2691 -0.1933
  239MOL0     C31455   3.962   4.596   5.532 -0.0636  1.4151 -0.4023
  239MOL0     C31456   4.101   4.529   5.544  0.1771  0.3534  0.0443
  239MOL0     C31457   4.215   4.605   5.475  0.3317  0.4208 -0.8373
  239MOL0     C31458   4.344   4.545   5.510 -0.7220 -0.4924 -0.9593
  239MOL0     C31459   4.465   4.613   5.448  0.1177 -0.0371  0.2982
  239MOL0    Cl31460   4.619   4.514   5.466  0.7575 -0.0524 -0.3679
  239MOL0     C31461   3.372   4.370   5.783 -0.0500  1.0184 -0.0734
  239MOL0     C31462   3.237   4.375   5.827  0.9037  0.1047 -0.6548
  239MOL0     O31463   3.111   4.644   6.096  0.3585  0.1616 -0.2619
  239MOL0     C31464   2.871   4.688   6.186  0.3139  0.0697  0.6160
  239MOL0     C31465   2.733   4.720   6.214  0.3127  0.2167  0.9007
  239MOL0     N31466   1.916   4.957   6.281 -0.1503  0.0436  0.3719
  239MOL0     N31467   1.823   5.024   6.338  0.6370  0.2317  0.0453
  239MOL0     C31468   2.652   5.729   6.164 -0.6708  0.0757  0.0683
  239MOL0     C31469   2.780   5.748   6.114 -0.7157  0.6353 -0.0303
  239MOL0     C31470   3.098   5.925   5.793  0.2327 -0.0404  0.1300
  239MOL0     C31471   3.129   5.807   5.717 -0.0907 -0.1599 -0.2530
  239MOL0     C31472   3.221   5.808   5.616 -0.4159 -1.1545 -0.4818
  239MOL0     C31473   3.282   5.930   5.580 -0.3447 -0.5595  0.3567
  239MOL0     O31474   3.382   5.937   5.477  0.4905 -0.9028 -0.4069
  239MOL0     C31475   3.412   5.822   5.400 -0.3572  0.3473 -0.1890
  239MOL0     C31476   3.514   5.835   5.288 -0.2644  0.3148 -0.6791
  239MOL0     C31477   3.510   5.727   5.187 -0.3783 -0.3382  0.2279
  239MOL0     C31478   3.610   5.750   5.062 -0.3732 -0.3703 -0.3304
  239MOL0     C31479   3.751   5.755   5.094 -0.5898  0.6722 -0.0871
  239MOL0     C31480   3.870   5.752   5.107  0.0582  1.1328 -0.1599
  239MOL0     C31481   3.246   6.047   5.655 -0.4970  0.3874  0.7331
  239MOL0     C31482   3.155   6.041   5.760 -0.3506  0.1812 -0.8172
  239MOL0     H31483   2.672   5.939   5.840 -1.6102  0.3680  0.4263
  239MOL0     H31484   2.465   5.913   5.944  0.2304 -1.8142 -0.8812
  239MOL0     H31485   2.384   5.632   6.317  0.7271 -1.4344 -1.0865
  239MOL0     H31486   2.455   5.556   6.178 -1.4471 -1.9872  0.5555
  239MOL0     H31487   2.245   5.465   6.168 -2.2560  0.5126  0.3204
  239MOL0     H31488   2.228   5.603   6.057 -2.8872  0.6157  0.3739
  239MOL0     H31489   2.118   5.735   6.231  1.0360  0.2763  0.2070
  239MOL0     H31490   2.139   5.602   6.353  1.2217 -0.9733 -0.1510
  239MOL0     H31491   1.973   5.603   6.094  3.9104 -2.7973 -1.0192
  239MOL0     H31492   2.014   5.456   6.180  2.4837  0.5256  0.0049
  239MOL0     H31493   1.781   5.599   6.228  0.2363 -1.0227 -2.3024
  239MOL0     H31494   1.895   5.696   6.328  0.3197 -0.7746  0.6009
  239MOL0     H31495   1.799   5.541   6.463  0.9093  0.3587  1.7855
  239MOL0     H31496   1.968   5.474   6.450 -0.0344 -3.2523 -0.2481
  239MOL0     H31497   1.710   5.390   6.330  0.4944 -0.0806 -1.3904
  239MOL0     H31498   1.854   5.320   6.259  1.7351 -0.9064  1.4759
  239MOL0     H31499   1.714   5.197   6.485 -3.0827  2.7248 -1.9246
  239MOL0     H31500   1.874   5.272   6.541  1.2444 -0.1717 -1.3119
  239MOL0     H31501   2.102   5.193   6.420  1.1172 -0.7459 -1.2356
  239MOL0     H31502   2.241   4.963   6.373  1.4596  3.0564 -0.9386
  239MOL0     H31503   2.221   5.000   6.198 -2.0375 -0.6375 -2.0979
  239MOL0     H31504   2.212   4.769   6.137 -0.3213 -0.9416  0.4899
  239MOL0     H31505   2.095   4.749   6.273 -1.2121  1.2488  0.4473
  239MOL0     H31506   2.288   4.744   6.423  0.2474  2.7939 -0.3530
  239MOL0     H31507   2.277   4.609   6.302  3.2451 -1.1139  1.5076
  239MOL0     H31508   2.513   4.689   6.337 -0.8676 -1.2960 -0.3872
  239MOL0     H31509   2.478   4.851   6.286 -3.3228  1.1637  1.6472
  239MOL0     H31510   2.590   4.538   5.964  1.8953  0.3677 -1.8459
  239MOL0     H31511   2.815   4.475   5.932  1.7110 -1.4688  1.0685
  239MOL0     H31512   3.214   4.704   5.892 -1.3904  0.1305 -1.4600
  239MOL0     H31513   3.432   4.708   5.822 -3.2439  1.4586  1.1681
  239MOL0     H31514   3.519   4.479   5.541  0.5201  5.7125 -0.0524
  239MOL0     H31515   3.638   4.355   5.592 -2.4645 -1.1173 -0.8856
  239MOL0     H31516   3.706   4.662   5.602 -3.6816 -0.6463 -1.2106
  239MOL0     H31517   3.695   4.573   5.451 -0.6748 -2.3962 -0.8650
  239MOL0     H31518   3.865   4.403   5.567  2.1377  1.2248  0.5560
  239MOL0     H31519   3.871   4.512   5.702 -0.8326  3.0818 -0.0282
  239MOL0     H31520   3.948   4.627   5.428 -2.3040 -2.1733 -1.3744
  239MOL0     H31521   3.970   4.688   5.589  0.5489  1.7886 -1.0702
  239MOL0     H31522   4.098   4.437   5.485  1.3136  1.1655 -1.3601
  239MOL0     H31523   4.123   4.502   5.647  1.9880  2.7562  0.3692
  239MOL0     H31524   4.217   4.711   5.503 -3.4484  0.5591 -0.6577
  239MOL0     H31525   4.200   4.599   5.367  0.9789 -0.8531 -0.8735
  239MOL0     H31526   4.357   4.567   5.616 -0.8459 -0.0898 -1.0265
  239MOL0     H31527   4.352   4.438   5.489 -0.3842 -0.5969 -0.3343
  239MOL0     H31528   4.480   4.716   5.483  1.4040 -0.4516  1.0259
  239MOL0     H31529   4.441   4.610   5.341 -2.2185 -2.0517  0.7908
  239MOL0     H31530   3.423   4.277   5.760  0.7085  1.8287 -1.9311
  239MOL0     H31531   3.180   4.283   5.833  1.0371  0.0504 -0.1851
  239MOL0     H31532   2.942   4.741   6.248 -0.4434  0.3298  1.2767
  239MOL0     H31533   2.705   4.772   6.305  3.1303  1.5473  1.1045
  239MOL0     H31534   2.638   5.665   6.251 -2.5686 -1.7524 -1.4843
  239MOL0     H31535   2.875   5.708   6.147  0.5774  1.4723 -2.5566
  239MOL0     H31536   3.074   5.718   5.747  1.8744 -1.2414  0.3531
  239MOL0     H31537   3.240   5.719   5.558  0.5559 -0.6700 -0.9229
  239MOL0     H31538   3.319   5.790   5.352 -0.0293  1.8510 -1.9155
  239MOL0     H31539   3.439   5.743   5.471 -0.5209  1.4192  1.1236
  239MOL0     H31540   3.508   5.926   5.228  1.9435 -0.6822 -2.5988
  239MOL0     H31541   3.612   5.838   5.336  0.1888  0.7265 -1.6018
  239MOL0     H31542   3.406   5.709   5.157  0.1131 -1.7651 -0.7201
  239MOL0     H31543   3.529   5.634   5.242 -0.8617 -1.2845 -1.1658
  239MOL0     H31544   3.586   5.665   4.997 -1.0743 -0.7017  0.3497
  239MOL0     H31545   3.586   5.841   5.007 -0.1649  0.2015  0.5050
  239MOL0     H31546   3.976   5.761   5.122  0.1138  0.6677 -0.2748
  239MOL0     H31547   3.290   6.143   5.630  1.3956 -1.0430 -1.9422
  239MOL0     H31548   3.151   6.129   5.823 -1.3393 -1.3377  1.3733
  240MOL0     O31549   4.339   5.867   3.614 -0.2536 -0.0655 -0.6279
  240MOL0     C31550   4.354   5.764   3.672  0.4729  0.4388 -0.0378
  240MOL0     O31551   4.257   5.669   3.703 -0.6021  0.2734 -0.1154
  240MOL0     C31552   4.135   5.656   3.650 -0.3244 -0.2765 -0.5274
  240MOL0     C31553   4.080   5.531   3.670 -0.4549  0.4452  0.3458
  240MOL0     C31554   3.957   5.505   3.625 -0.3078  0.7965  0.1516
  240MOL0     C31555   3.870   5.596   3.564  0.4162 -0.7974  0.5292
  240MOL0     O31556   3.736   5.559   3.555  0.5940 -0.1118 -0.0709
  240MOL0     C31557   3.639   5.656   3.565 -0.3802 -0.0981  0.3512
  240MOL0     C31558   3.504   5.588   3.573  0.2084 -0.8954  0.4758
  240MOL0     C31559   3.399   5.698   3.599 -0.0660  0.5262  0.0986
  240MOL0     C31560   3.270   5.627   3.633  0.2604  1.1998  0.2255
  240MOL0     C31561   3.161   5.727   3.641  0.8437 -0.9905 -0.5125
  240MOL0     C31562   3.045   5.666   3.713  0.2539 -0.4392  0.8157
  240MOL0     C31563   2.923   5.760   3.712 -0.3336  0.3601  0.3965
  240MOL0     C31564   2.805   5.694   3.772  0.3720 -0.3126  0.0222
  240MOL0     N31565   2.675   5.739   3.722 -1.1127  0.1770  0.2998
  240MOL0     C31566   2.588   5.826   3.766  0.8785  0.0785  0.7389
  240MOL0     C31567   2.498   5.843   3.664 -0.1549  0.5203  0.8490
  240MOL0     C31568   2.384   5.940   3.659  0.6217 -0.1470 -0.7259
  240MOL0     C31569   2.386   6.034   3.534 -0.2258  0.7039  0.1263
  240MOL0     C31570   2.341   6.168   3.577  0.7102 -0.4584 -0.0944
  240MOL0     C31571   2.457   6.270   3.607 -0.0642  0.1746  0.6059
  240MOL0     O31572   2.565   6.208   3.687 -0.1279 -0.3121 -0.0119
  240MOL0     C31573   2.703   6.238   3.670  0.1714  0.1455 -0.1249
  240MOL0     C31574   2.749   6.346   3.592 -0.6910 -0.8785 -0.7289
  240MOL0     C31575   2.885   6.364   3.575  0.2869 -0.9827  0.2465
  240MOL0     C31576   2.981   6.274   3.626 -1.2541 -0.4298 -0.4184
  240MOL0     C31577   3.121   6.266   3.592 -0.1675 -0.8939 -0.1657
  240MOL0     O31578   3.172   6.138   3.566  0.1474  0.0283  0.2964
  240MOL0     C31579   3.301   6.128   3.514  0.5806 -0.0611  0.7363
  240MOL0     C31580   3.392   6.090   3.608 -0.0017  0.2530 -0.7732
  240MOL0     C31581   3.530   6.072   3.570 -0.2277 -0.7503 -0.4558
  240MOL0     C31582   3.561   6.083   3.435 -0.2867 -0.3611  0.9947
  240MOL0     O31583   3.689   6.052   3.379  0.0229  0.4369  0.8343
  240MOL0     C31584   3.747   6.149   3.286 -0.1573 -0.2022  0.2188
  240MOL0     C31585   3.856   6.078   3.204 -0.8529 -0.3532 -0.5257
  240MOL0     C31586   3.989   6.053   3.272  0.2791 -0.0693  0.5245
  240MOL0     C31587   4.103   6.052   3.172  0.0294  0.2406  0.0897
  240MOL0     C31588   4.235   6.029   3.233 -0.1155 -0.4827  0.2814
  240MOL0     C31589   4.349   6.009   3.138  0.4957 -0.2424  1.2534
  240MOL0     C31590   4.474   5.969   3.210 -0.1357  0.2708  0.0930
  240MOL0     C31591   4.589   5.926   3.110  0.2567 -0.4091  0.7518
  240MOL0    Cl31592   4.664   6.074   3.057  0.1894  0.4431  0.3815
  240MOL0     C31593   3.462   6.117   3.339 -0.0207  0.0682  0.7374
  240MOL0     C31594   3.333   6.135   3.380  0.1322 -0.4464 -0.3876
  240MOL0     O31595   3.179   6.369   3.571 -0.0415  0.2234  0.1899
  240MOL0     C31596   2.931   6.160   3.692 -0.1612  0.4740  0.4433
  240MOL0     C31597   2.798   6.143   3.718  0.6557 -0.3014  0.1440
  240MOL0     N31598   2.532   5.757   3.564 -0.2149  0.2780 -0.6939
  240MOL0     N31599   2.647   5.704   3.597 -0.0865  1.2973  0.2637
  240MOL0     C31600   3.933   5.722   3.532  0.4775  0.0668 -0.4604
  240MOL0     C31601   4.060   5.749   3.571 -0.0365 -0.7863 -0.0584
  240MOL0     C31602   4.505   5.733   3.707 -0.3203  1.1568  1.4415
  240MOL0     C31603   4.543   5.605   3.746 -0.2050  0.4659  0.4001
  240MOL0     C31604   4.671   5.572   3.769  0.1847  0.0468 -0.2146
  240MOL0     C31605   4.780   5.659   3.767 -0.7632  0.9539 -0.1525
  240MOL0     O31606   4.904   5.600   3.792  0.5395 -0.6618 -0.2824
  240MOL0     C31607   5.026   5.675   3.801 -0.2117 -0.4340  0.3732
  240MOL0     C31608   5.082   5.722   3.666  0.5155 -0.1644  0.0633
  240MOL0     C31609   5.109   5.612   3.558 -1.1002  0.5144  0.6882
  240MOL0     C31610   5.188   5.672   3.437 -0.1677  0.3544 -0.3743
  240MOL0     C31611   5.320   5.704   3.485 -0.0620 -0.0025 -0.4399
  240MOL0     C31612   5.433   5.747   3.529 -0.3637  0.5545  0.0488
  240MOL0     C31613   4.741   5.795   3.750 -0.5993 -0.2284  0.0105
  240MOL0     C31614   4.605   5.827   3.714 -0.9950 -0.4016 -0.5085
  240MOL0     H31615   4.144   5.454   3.713  0.4944  1.3534  0.6088
  240MOL0     H31616   3.914   5.405   3.633  1.6066 -0.1682 -0.9672
  240MOL0     H31617   3.657   5.716   3.476  1.2520 -1.2151 -0.1210
  240MOL0     H31618   3.660   5.720   3.651 -2.6750  1.1903  0.0284
  240MOL0     H31619   3.507   5.514   3.654  1.2591 -0.9978  0.3553
  240MOL0     H31620   3.476   5.540   3.479 -0.1629  2.4572 -1.2775
  240MOL0     H31621   3.392   5.764   3.512  0.2839  1.1758  0.5477
  240MOL0     H31622   3.424   5.772   3.676 -1.9309  0.0762  1.2041
  240MOL0     H31623   3.245   5.542   3.569 -2.5523 -0.4617  3.1902
  240MOL0     H31624   3.269   5.576   3.730 -0.9352 -0.1356 -0.4619
  240MOL0     H31625   3.115   5.756   3.546 -1.9780 -1.3546  0.6651
  240MOL0     H31626   3.186   5.816   3.701  1.9231 -0.3249 -1.8667
  240MOL0     H31627   3.066   5.631   3.814  2.2545  2.8527  1.6934
  240MOL0     H31628   3.014   5.576   3.658 -0.1461 -0.0972  0.4725
  240MOL0     H31629   2.950   5.845   3.775  0.1981 -0.8227  1.7973
  240MOL0     H31630   2.902   5.798   3.611 -0.5207  1.1594  0.7262
  240MOL0     H31631   2.815   5.712   3.879  0.6877  2.2412 -0.3696
  240MOL0     H31632   2.814   5.587   3.747  2.2279 -0.0266 -0.6764
  240MOL0     H31633   2.586   5.884   3.858  0.0889 -0.1846  0.8929
  240MOL0     H31634   2.376   5.993   3.754  0.2575  0.1997 -0.9456
  240MOL0     H31635   2.300   5.871   3.669  2.0114 -1.7168  0.8727
  240MOL0     H31636   2.309   5.998   3.465 -3.5125  3.3509  2.1140
  240MOL0     H31637   2.478   6.021   3.477  1.0696  0.0998  2.2622
  240MOL0     H31638   2.291   6.211   3.490  0.6750 -3.7285 -1.8072
  240MOL0     H31639   2.256   6.165   3.647 -0.6346  2.7999 -1.3516
  240MOL0     H31640   2.413   6.355   3.661  2.2964  0.3900  2.3778
  240MOL0     H31641   2.511   6.310   3.521  1.1641  0.9561  1.6940
  240MOL0     H31642   2.675   6.417   3.555 -0.7733 -1.3805 -1.5518
  240MOL0     H31643   2.922   6.445   3.513  2.1913 -1.9463  0.0448
  240MOL0     H31644   3.352   6.069   3.707 -1.6823 -0.7263 -1.6271
  240MOL0     H31645   3.605   6.047   3.644 -1.7267 -0.4270  1.2492
  240MOL0     H31646   3.791   6.231   3.344 -1.3409  2.2199 -2.0999
  240MOL0     H31647   3.675   6.207   3.228 -1.1272  0.9099  2.3874
  240MOL0     H31648   3.868   6.136   3.112 -2.1574  2.5495  0.9874
  240MOL0     H31649   3.822   5.978   3.177  1.5581 -0.3809 -4.2395
  240MOL0     H31650   4.002   5.959   3.327  1.9170 -0.7423 -0.9172
  240MOL0     H31651   4.004   6.133   3.344 -2.9782 -1.3001  2.8045
  240MOL0     H31652   4.077   5.981   3.093  1.6890 -2.6103  1.9461
  240MOL0     H31653   4.103   6.145   3.114  1.3969  0.6563  0.7240
  240MOL0     H31654   4.229   5.946   3.303 -0.6231 -2.2409 -1.7451
  240MOL0     H31655   4.268   6.118   3.288  2.0069 -0.7452 -0.4549
  240MOL0     H31656   4.359   6.101   3.080 -1.8092 -0.9820 -0.4339
  240MOL0     H31657   4.327   5.920   3.079 -0.6003 -0.5553  2.1010
  240MOL0     H31658   4.512   6.056   3.264 -0.6541  1.2611 -1.0874
  240MOL0     H31659   4.461   5.896   3.290  0.7675 -1.5614 -1.3309
  240MOL0     H31660   4.547   5.877   3.022 -1.0972  1.0595  0.5331
  240MOL0     H31661   4.659   5.854   3.154 -0.1281 -2.2421 -1.4602
  240MOL0     H31662   3.478   6.127   3.232  0.2907  2.8590  0.9737
  240MOL0     H31663   3.255   6.171   3.313  1.7922  1.9097 -1.2157
  240MOL0     H31664   2.992   6.076   3.725  0.2911  0.8987  0.6894
  240MOL0     H31665   2.758   6.061   3.777 -1.6035  2.0983  2.2137
  240MOL0     H31666   3.876   5.801   3.485  1.7551  1.0499 -0.3988
  240MOL0     H31667   4.087   5.852   3.550 -3.2366 -0.3779 -3.1794
  240MOL0     H31668   4.474   5.522   3.752  0.3664 -0.2902 -2.1607
  240MOL0     H31669   4.695   5.471   3.801  2.2485  0.1842 -1.1068
  240MOL0     H31670   5.095   5.611   3.856 -0.3197 -0.0778  0.9232
  240MOL0     H31671   5.020   5.750   3.880  0.2617 -0.7901  0.7564
  240MOL0     H31672   5.008   5.790   3.624  1.5931  1.2847  0.4225
  240MOL0     H31673   5.175   5.776   3.688  1.9554 -1.7066 -1.7470
  240MOL0     H31674   5.012   5.575   3.527 -1.9046  1.6551  1.7247
  240MOL0     H31675   5.160   5.527   3.603 -2.2969 -2.0848 -2.5221
  240MOL0     H31676   5.196   5.599   3.356 -0.9172 -0.4939  0.3020
  240MOL0     H31677   5.137   5.762   3.402 -0.9652 -0.1556 -0.5401
  240MOL0     H31678   5.528   5.777   3.568 -1.6642  2.4767  1.9258
  240MOL0     H31679   4.821   5.868   3.745  0.2887 -0.9650  2.3356
  240MOL0     H31680   4.586   5.934   3.707 -2.7014 -0.6571 -0.1412
  241MOL0     O31681   0.831  10.919   1.139  0.2819 -0.3469  0.4475
  241MOL0     C31682   0.866  10.871   1.247 -0.6874  0.3406  0.4254
  241MOL0     O31683   0.797  10.875   1.364 -0.0777 -0.0790  0.6140
  241MOL0     C31684   0.670  10.924   1.375  0.3601  0.3760  0.6834
  241MOL0     C31685   0.589  10.842   1.454  0.1568 -0.3763 -0.4708
  241MOL0     C31686   0.451  10.865   1.469  0.5324  0.4142  0.1937
  241MOL0     C31687   0.396  10.976   1.399 -0.1549 -0.1614  0.6987
  241MOL0     O31688   0.260  10.996   1.408  0.4638  0.3499 -0.9030
  241MOL0     C31689   0.191  10.948   1.291  0.1744  0.5932 -0.3726
  241MOL0     C31690   0.093  10.831   1.324 -0.1520 -0.1230  0.0901
  241MOL0     C31691  -0.000  10.800   1.205 -0.1625  0.4168  0.0923
  241MOL0     C31692  -0.086  10.911   1.149  0.1563 -0.3681 -0.2055
  241MOL0     C31693  -0.226  10.865   1.107  0.1066  0.3450 -0.0160
  241MOL0     C31694  -0.227  10.811   0.962  0.3683  0.1111  0.0102
  241MOL0     C31695  -0.377  10.782   0.912  0.6585 -0.3582 -0.7889
  241MOL0     C31696  -0.478  10.896   0.901  0.1734 -0.5422 -0.7355
  241MOL0     N31697  -0.444  11.010   0.814  0.4487 -1.2599  0.1139
  241MOL0     C31698  -0.456  11.136   0.871  0.4448 -0.2174 -0.3455
  241MOL0     C31699  -0.392  11.211   0.778  0.0890 -0.6075 -1.1047
  241MOL0     C31700  -0.383  11.363   0.777 -0.0625 -0.3638 -0.1811
  241MOL0     C31701  -0.396  11.430   0.636  0.7442 -1.1582 -0.3529
  241MOL0     C31702  -0.525  11.380   0.564 -0.2461  0.2390  0.5891
  241MOL0     C31703  -0.664  11.404   0.632  0.4349 -0.2107 -0.7392
  241MOL0     O31704  -0.700  11.543   0.603  0.0588  0.3845 -0.0078
  241MOL0     C31705  -0.804  11.602   0.668  0.5643 -0.2447  0.7237
  241MOL0     C31706  -0.808  11.741   0.672  0.9607 -0.8961 -1.3327
  241MOL0     C31707  -0.920  11.799   0.736 -0.2098  0.5868  0.8302
  241MOL0     C31708  -1.023  11.725   0.798  0.9698  0.3356 -0.7679
  241MOL0     C31709  -1.139  11.792   0.862 -0.0106  0.2338  0.0256
  241MOL0     O31710  -1.142  11.935   0.867 -0.1602 -0.9161 -0.3609
  241MOL0     C31711  -1.251  11.983   0.927  0.1208  0.0587 -0.5296
  241MOL0     C31712  -1.246  12.017   1.068  1.0577  1.0231 -0.3985
  241MOL0     C31713  -1.350  12.093   1.122  0.5460 -0.5226  0.0840
  241MOL0     C31714  -1.460  12.130   1.051  1.0871 -0.2324  0.2050
  241MOL0     O31715  -1.549  12.207   1.123  0.0940  0.1744  0.2880
  241MOL0     C31716  -1.649  12.283   1.054 -0.0066 -1.0385  0.2451
  241MOL0     C31717  -1.722  12.388   1.153  0.8054  0.4024  0.6466
  241MOL0     C31718  -1.801  12.313   1.255 -0.3182 -0.0065 -0.1099
  241MOL0     C31719  -1.909  12.217   1.200  0.1617 -0.1307 -0.1223
  241MOL0     C31720  -2.019  12.171   1.295 -0.6508 -0.4256 -0.2067
  241MOL0     C31721  -2.149  12.234   1.251 -0.1430  0.3252  0.2032
  241MOL0     C31722  -2.217  12.157   1.137  0.7738 -0.6126  0.0875
  241MOL0     C31723  -2.350  12.216   1.094 -0.4561  0.1834 -0.4120
  241MOL0    Cl31724  -2.330  12.328   0.959  0.1717 -0.2616 -0.2425
  241MOL0     C31725  -1.478  12.089   0.915  1.0670 -0.1742 -0.2437
  241MOL0     C31726  -1.367  12.024   0.851 -0.7901  1.1702  0.0653
  241MOL0     O31727  -1.224  11.725   0.919  0.0262  0.3243 -0.4226
  241MOL0     C31728  -1.004  11.594   0.800 -0.5604 -0.1188  1.0473
  241MOL0     C31729  -0.904  11.529   0.734  0.0040  0.1749  0.4654
  241MOL0     N31730  -0.346  11.132   0.671  0.0506  0.1235 -0.2293
  241MOL0     N31731  -0.376  11.005   0.697  0.0339 -0.4070  0.3508
  241MOL0     C31732   0.487  11.062   1.331  0.0827  0.1482  0.3643
  241MOL0     C31733   0.619  11.035   1.309 -0.8092  0.0977 -0.7621
  241MOL0     C31734   0.985  10.788   1.259  0.0626 -0.0023 -0.6367
  241MOL0     C31735   1.066  10.775   1.372 -0.1980  0.0525 -0.2389
  241MOL0     C31736   1.178  10.687   1.385  0.0715 -0.4389  0.5140
  241MOL0     C31737   1.209  10.613   1.272  0.1306  0.1076 -0.5339
  241MOL0     O31738   1.313  10.520   1.285 -0.1262  0.2878  0.3237
  241MOL0     C31739   1.420  10.533   1.389  0.4687 -0.2208 -0.5231
  241MOL0     C31740   1.531  10.431   1.355 -0.1747  0.1443  0.1296
  241MOL0     C31741   1.582  10.428   1.209  0.0285  0.4012  0.4247
  241MOL0     C31742   1.625  10.284   1.167 -0.4780  0.4240 -0.0350
  241MOL0     C31743   1.755  10.246   1.227  0.5124 -0.5763 -0.2734
  241MOL0     C31744   1.869  10.225   1.269  0.9893  0.2188  1.1060
  241MOL0     C31745   1.130  10.619   1.153 -0.4843  0.0074 -0.3761
  241MOL0     C31746   1.018  10.704   1.151  0.8510  0.5665  0.5699
  241MOL0     H31747   0.641  10.759   1.500  1.3222  0.5275 -0.1239
  241MOL0     H31748   0.375  10.809   1.523 -1.6958  1.8047 -1.3171
  241MOL0     H31749   0.258  10.894   1.224 -2.0567 -0.4201 -1.9412
  241MOL0     H31750   0.147  11.033   1.238  0.4329 -1.3513 -4.0643
  241MOL0     H31751   0.026  10.862   1.405 -1.3305 -1.5158 -0.3163
  241MOL0     H31752   0.143  10.738   1.354 -4.2768 -3.2708 -1.7936
  241MOL0     H31753  -0.064  10.720   1.243 -1.1625  1.2877  0.3072
  241MOL0     H31754   0.065  10.770   1.123  1.4020  4.0155 -0.1628
  241MOL0     H31755  -0.089  10.996   1.218  1.9178 -1.1709  0.9353
  241MOL0     H31756  -0.037  10.951   1.060  0.0845 -0.1211 -0.1346
  241MOL0     H31757  -0.294  10.950   1.093 -3.7938 -2.6788 -0.9523
  241MOL0     H31758  -0.268  10.804   1.188  0.1081  0.1651 -0.1509
  241MOL0     H31759  -0.167  10.720   0.962 -0.4670 -0.4500  0.0533
  241MOL0     H31760  -0.180  10.885   0.896 -1.8443 -0.4250 -2.3386
  241MOL0     H31761  -0.371  10.748   0.808 -3.9694 -0.2990 -1.3032
  241MOL0     H31762  -0.411  10.696   0.971 -1.2429  1.4898  1.0044
  241MOL0     H31763  -0.495  10.934   1.002  1.7162 -0.4480 -0.4932
  241MOL0     H31764  -0.572  10.850   0.866 -0.0776  1.1194 -2.4186
  241MOL0     H31765  -0.491  11.161   0.971  0.6312 -0.2087 -0.2823
  241MOL0     H31766  -0.296  11.391   0.836  0.1268  0.1894 -0.7097
  241MOL0     H31767  -0.466  11.407   0.834 -1.7810 -0.7566 -2.2576
  241MOL0     H31768  -0.312  11.396   0.574  0.8658 -0.8778 -0.3414
  241MOL0     H31769  -0.386  11.538   0.643 -0.6584 -0.9557 -1.1971
  241MOL0     H31770  -0.536  11.429   0.467 -0.4061 -0.0038  0.4836
  241MOL0     H31771  -0.497  11.276   0.542 -0.3908  0.8594 -3.0026
  241MOL0     H31772  -0.663  11.391   0.741 -4.1936  4.0680  0.1940
  241MOL0     H31773  -0.738  11.333   0.593  0.6093 -1.0509  0.4097
  241MOL0     H31774  -0.722  11.792   0.631  2.1550 -0.8349  1.0648
  241MOL0     H31775  -0.941  11.905   0.743  1.3595  0.9704  0.2739
  241MOL0     H31776  -1.155  11.997   1.122  0.3141 -0.8745  0.2420
  241MOL0     H31777  -1.347  12.111   1.229  0.6768  2.9112 -0.3944
  241MOL0     H31778  -1.723  12.222   1.002 -0.2818  0.0054 -0.6347
  241MOL0     H31779  -1.604  12.348   0.979 -1.7921  0.4856  0.3987
  241MOL0     H31780  -1.792  12.447   1.092  1.0079 -1.2703 -1.3306
  241MOL0     H31781  -1.650  12.459   1.195  2.6747 -0.2884 -1.1529
  241MOL0     H31782  -1.842  12.384   1.328 -3.0032 -2.9265  1.4665
  241MOL0     H31783  -1.725  12.256   1.310 -0.5110  0.3183  0.5104
  241MOL0     H31784  -1.954  12.250   1.105  1.7492 -0.1760 -0.9228
  241MOL0     H31785  -1.860  12.122   1.178 -0.1843 -0.3929  0.2185
  241MOL0     H31786  -1.989  12.205   1.395  3.0640  2.4177 -2.0493
  241MOL0     H31787  -2.027  12.062   1.292 -0.5606 -0.4232 -0.6018
  241MOL0     H31788  -2.126  12.335   1.214 -1.0167 -0.5309 -2.9966
  241MOL0     H31789  -2.217  12.253   1.334  1.4262  2.2600  1.1305
  241MOL0     H31790  -2.151  12.134   1.053  2.3078  0.8203  0.8497
  241MOL0     H31791  -2.237  12.067   1.195  0.2622 -0.7889 -0.3518
  241MOL0     H31792  -2.402  12.274   1.171 -0.6689  0.4577 -0.7551
  241MOL0     H31793  -2.414  12.136   1.056 -1.9962 -0.8024  3.7612
  241MOL0     H31794  -1.563  12.113   0.852 -0.0956 -1.9039  0.5843
  241MOL0     H31795  -1.374  11.989   0.748  0.6637  2.4195 -0.5085
  241MOL0     H31796  -1.080  11.528   0.840 -1.5266  2.5647  4.0112
  241MOL0     H31797  -0.895  11.422   0.749  0.2295  0.3793  1.8551
  241MOL0     H31798   0.441  11.154   1.295 -1.3316 -0.5162  0.4122
  241MOL0     H31799   0.684  11.101   1.253  1.7790 -1.0626  0.7268
  241MOL0     H31800   1.030  10.848   1.444 -1.9542  1.0634 -2.0338
  241MOL0     H31801   1.224  10.675   1.482  0.5867  3.6584  0.9484
  241MOL0     H31802   1.377  10.520   1.488 -3.9086  2.2256 -1.8167
  241MOL0     H31803   1.471  10.630   1.384  1.3757 -0.7125 -1.0439
  241MOL0     H31804   1.618  10.462   1.414  0.0911  1.2659 -0.8210
  241MOL0     H31805   1.491  10.337   1.393 -2.0430  1.3785  1.4010
  241MOL0     H31806   1.656  10.507   1.195 -1.7405  1.9120 -0.9418
  241MOL0     H31807   1.506  10.466   1.140  1.3322 -2.9316 -3.2276
  241MOL0     H31808   1.558  10.214   1.218 -0.7244  1.1611  0.6866
  241MOL0     H31809   1.622  10.266   1.060  0.7946  0.1297 -0.0349
  241MOL0     H31810   1.971  10.217   1.299  1.8736  1.0573 -1.4761
  241MOL0     H31811   1.156  10.548   1.075 -1.9132 -2.3112  1.1166
  241MOL0     H31812   0.958  10.675   1.065  0.6329  2.2541  0.1289
  242MOL0     O31813   9.813   1.936   8.694 -0.8255 -0.2899  0.5626
  242MOL0     C31814   9.813   1.871   8.590  0.1859 -0.1044  1.0918
  242MOL0     O31815   9.709   1.875   8.486 -0.4222  0.2962 -0.5980
  242MOL0     C31816   9.608   1.955   8.502  0.7746 -0.9904 -0.0865
  242MOL0     C31817   9.542   2.002   8.387 -0.2574 -0.3466 -0.1640
  242MOL0     C31818   9.399   2.036   8.400 -0.5928 -1.0376  0.0051
  242MOL0     C31819   9.341   2.053   8.525 -0.4931  0.3917  0.5171
  242MOL0     O31820   9.216   2.098   8.555 -0.3909  0.8151 -0.0879
  242MOL0     C31821   9.132   2.126   8.452  0.1123  0.1039  0.2055
  242MOL0     C31822   9.049   2.248   8.487 -0.1868  0.3050 -0.1817
  242MOL0     C31823   8.919   2.271   8.400  0.0843  1.2455 -0.6324
  242MOL0     C31824   8.958   2.315   8.257  0.2864  0.0082 -0.1258
  242MOL0     C31825   8.849   2.326   8.159 -0.0248 -0.0117  0.9374
  242MOL0     C31826   8.744   2.421   8.198  0.0071  0.2287 -0.6664
  242MOL0     C31827   8.636   2.421   8.100  0.3614 -0.0488 -0.2696
  242MOL0     C31828   8.679   2.501   7.978  0.5626  0.5119  0.9283
  242MOL0     N31829   8.568   2.554   7.908  0.5629  0.1030 -0.8479
  242MOL0     C31830   8.516   2.679   7.911 -0.2683 -0.6468  0.0311
  242MOL0     C31831   8.436   2.685   7.804  0.5359 -0.3591  0.3789
  242MOL0     C31832   8.351   2.799   7.758  0.5593 -0.2502 -0.2688
  242MOL0     C31833   8.206   2.773   7.803  0.9018  0.6847  0.4345
  242MOL0     C31834   8.109   2.888   7.760  0.9189  0.3125 -0.4478
  242MOL0     C31835   7.988   2.840   7.687 -0.8866  0.1589 -0.1717
  242MOL0     O31836   7.915   2.756   7.779 -0.5417  0.3540  0.2302
  242MOL0     C31837   7.791   2.706   7.744 -0.7589 -0.3927 -0.4945
  242MOL0     C31838   7.733   2.614   7.830  0.2257  0.1843 -0.1896
  242MOL0     C31839   7.605   2.566   7.817  0.3803 -0.7153  0.5429
  242MOL0     C31840   7.522   2.611   7.708  0.3936 -0.0262  0.5192
  242MOL0     C31841   7.378   2.589   7.708 -0.1090 -0.4190 -0.3808
  242MOL0     O31842   7.320   2.569   7.582  0.2300 -1.1852  0.0136
  242MOL0     C31843   7.187   2.544   7.566  0.2926  0.2750 -0.5164
  242MOL0     C31844   7.087   2.522   7.667 -0.4514  0.5224 -1.0462
  242MOL0     C31845   6.952   2.503   7.643 -0.1489 -0.1235 -0.1171
  242MOL0     C31846   6.908   2.497   7.505 -0.2817  0.0125  0.0771
  242MOL0     O31847   6.782   2.461   7.466 -0.2740  0.2887 -0.6526
  242MOL0     C31848   6.694   2.397   7.558 -0.7563  0.1590  0.7379
  242MOL0     C31849   6.560   2.376   7.486  0.4029  0.2350  0.3167
  242MOL0     C31850   6.461   2.303   7.575 -0.0394 -0.3551 -0.2643
  242MOL0     C31851   6.340   2.267   7.483  0.1171 -0.4549  0.3310
  242MOL0     C31852   6.221   2.204   7.555  0.0487 -0.9794  0.0032
  242MOL0     C31853   6.091   2.221   7.496 -0.2259 -0.4601  0.6305
  242MOL0     C31854   6.099   2.159   7.347  0.9927 -0.4245  0.0798
  242MOL0     C31855   5.968   2.082   7.316  0.3021  1.0771  0.8826
  242MOL0    Cl31856   5.983   1.919   7.391  0.0829  0.3269 -0.3180
  242MOL0     C31857   7.004   2.534   7.406 -0.5590 -0.3389  0.2430
  242MOL0     C31858   7.140   2.553   7.436  0.9013 -0.5071  0.6036
  242MOL0     O31859   7.322   2.576   7.815  0.2668  0.2101  0.4138
  242MOL0     C31860   7.587   2.692   7.610  0.2383  0.1993  0.1834
  242MOL0     C31861   7.714   2.740   7.633  0.2364 -0.1159  0.4864
  242MOL0     N31862   8.431   2.560   7.749 -0.2079 -0.2680  0.2275
  242MOL0     N31863   8.507   2.480   7.816 -0.3712 -1.2071  0.1056
  242MOL0     C31864   9.409   2.012   8.636 -0.4302  0.4938 -0.2512
  242MOL0     C31865   9.536   1.954   8.628 -0.0962 -0.4961 -0.5322
  242MOL0     C31866   9.931   1.787   8.562 -0.5978 -1.0384  0.0517
  242MOL0     C31867  10.044   1.800   8.643 -0.5892  0.2179 -0.4597
  242MOL0     C31868  10.163   1.740   8.610 -0.0725  0.5795  0.5300
  242MOL0     C31869  10.179   1.669   8.486  0.1643 -0.5538  0.5031
  242MOL0     O31870  10.290   1.601   8.443  0.3353  0.3733 -0.8134
  242MOL0     C31871  10.415   1.674   8.451  0.2275  0.1809 -0.7624
  242MOL0     C31872  10.451   1.728   8.310  0.1219  1.0337  0.3222
  242MOL0     C31873  10.489   1.620   8.212 -1.0684 -0.2732  0.4460
  242MOL0     C31874  10.640   1.569   8.239  0.6550  0.0450 -0.0825
  242MOL0     C31875  10.662   1.463   8.139  0.6783  0.0500  1.1667
  242MOL0     C31876  10.676   1.387   8.051  0.2040 -0.0172  0.6404
  242MOL0     C31877  10.064   1.652   8.406  1.4738 -0.6381  0.1029
  242MOL0     C31878   9.937   1.716   8.446  0.2720  0.0180  0.6532
  242MOL0     H31879   9.588   1.995   8.289 -0.6955  0.2124 -0.4154
  242MOL0     H31880   9.345   2.049   8.307 -1.7489  0.7728  0.8505
  242MOL0     H31881   9.080   2.036   8.420  0.2002 -0.4670  1.5997
  242MOL0     H31882   9.187   2.163   8.365 -0.8151 -4.9189 -2.8658
  242MOL0     H31883   9.117   2.333   8.475 -0.8215  0.7037 -1.0993
  242MOL0     H31884   9.011   2.254   8.589 -2.0616  0.2206 -0.8303
  242MOL0     H31885   8.859   2.348   8.449  0.1591  0.3945  0.8800
  242MOL0     H31886   8.864   2.176   8.400  0.3372  1.0945 -1.2419
  242MOL0     H31887   9.017   2.407   8.261  1.5540 -0.7104 -1.2243
  242MOL0     H31888   9.023   2.237   8.215 -1.5663 -2.0466  0.6441
  242MOL0     H31889   8.799   2.231   8.137 -2.1648  1.5276 -1.3907
  242MOL0     H31890   8.897   2.355   8.065 -1.3018  1.0873  0.5937
  242MOL0     H31891   8.793   2.516   8.222  1.8409 -0.4641 -1.4905
  242MOL0     H31892   8.696   2.390   8.292 -1.9895  0.5122 -1.5306
  242MOL0     H31893   8.616   2.317   8.073  3.8339 -0.9696  0.2059
  242MOL0     H31894   8.538   2.450   8.139 -0.6100  0.4819 -2.9166
  242MOL0     H31895   8.726   2.433   7.907 -0.3131  0.1435  0.6900
  242MOL0     H31896   8.744   2.585   8.006  1.8072  0.2429 -1.0070
  242MOL0     H31897   8.527   2.764   7.978 -2.0139  0.6719 -1.2601
  242MOL0     H31898   8.356   2.793   7.649 -1.9613  0.3101 -0.4552
  242MOL0     H31899   8.393   2.897   7.785 -1.6868  0.7665 -0.2619
  242MOL0     H31900   8.185   2.760   7.910 -0.9555  1.4096  0.1905
  242MOL0     H31901   8.172   2.680   7.756 -0.9192  0.1845  2.5674
  242MOL0     H31902   8.077   2.947   7.847 -0.3494 -0.5118 -0.3198
  242MOL0     H31903   8.157   2.962   7.696  1.9157 -0.9950 -1.2629
  242MOL0     H31904   8.019   2.793   7.593  0.1181  1.2228 -0.3996
  242MOL0     H31905   7.943   2.933   7.651 -0.4021  0.4699  0.0152
  242MOL0     H31906   7.794   2.578   7.912  0.4568  0.8392 -0.0659
  242MOL0     H31907   7.577   2.494   7.893 -4.0715  0.6692  0.5034
  242MOL0     H31908   7.101   2.524   7.774 -2.9542  1.9811 -0.6679
  242MOL0     H31909   6.882   2.492   7.725  0.8640  1.3141  0.9839
  242MOL0     H31910   6.678   2.444   7.656  1.2655 -0.1178  1.2574
  242MOL0     H31911   6.740   2.300   7.583 -1.4701  0.0723  1.8157
  242MOL0     H31912   6.583   2.318   7.396 -0.2474 -1.2324  1.0616
  242MOL0     H31913   6.520   2.473   7.458  1.5350 -0.1110 -3.0993
  242MOL0     H31914   6.423   2.360   7.661  1.9241  2.0130 -0.8432
  242MOL0     H31915   6.512   2.217   7.619 -0.4913 -1.2772 -1.4833
  242MOL0     H31916   6.306   2.353   7.425 -1.0803 -1.3810 -0.3771
  242MOL0     H31917   6.373   2.199   7.405 -0.7613 -2.9587  2.0088
  242MOL0     H31918   6.214   2.243   7.657 -2.2411 -1.3279  0.0281
  242MOL0     H31919   6.232   2.095   7.561 -0.7591 -1.2134 -1.9722
  242MOL0     H31920   6.054   2.324   7.485 -1.0169 -0.8860 -0.9617
  242MOL0     H31921   6.023   2.172   7.566 -2.2515  1.9127  0.4780
  242MOL0     H31922   6.091   2.247   7.283 -0.7859  0.4545  1.4007
  242MOL0     H31923   6.182   2.089   7.334 -0.1194 -1.7661 -0.1202
  242MOL0     H31924   5.932   2.072   7.213 -0.7034 -1.2783  1.4020
  242MOL0     H31925   5.882   2.138   7.352  0.0048  0.8820  0.4775
  242MOL0     H31926   6.974   2.535   7.301 -2.4012  2.2753  0.7026
  242MOL0     H31927   7.206   2.588   7.357 -0.2688  3.2214  1.0700
  242MOL0     H31928   7.537   2.718   7.516  1.3273 -0.9517 -0.7567
  242MOL0     H31929   7.749   2.807   7.556  1.1403 -2.5631 -1.3504
  242MOL0     H31930   9.369   2.031   8.735  0.2690  0.3449  0.0707
  242MOL0     H31931   9.580   1.917   8.720 -1.8834  0.8766  0.9504
  242MOL0     H31932  10.039   1.851   8.739  4.6285 -0.8579  0.7074
  242MOL0     H31933  10.244   1.746   8.682 -1.0561 -0.9100  1.8260
  242MOL0     H31934  10.493   1.611   8.494  1.3889  1.3667 -1.0849
  242MOL0     H31935  10.415   1.751   8.528  0.2239  0.1124 -0.6933
  242MOL0     H31936  10.357   1.771   8.272 -0.8565 -1.2857 -0.0644
  242MOL0     H31937  10.528   1.805   8.312  1.7324 -0.4787 -0.7016
  242MOL0     H31938  10.484   1.645   8.105  2.0444 -1.1769 -0.0088
  242MOL0     H31939  10.402   1.555   8.220 -3.1541  1.8264 -2.7930
  242MOL0     H31940  10.710   1.653   8.245  1.5381 -0.7286  0.8305
  242MOL0     H31941  10.648   1.527   8.340  4.7352 -0.5460 -0.4717
  242MOL0     H31942  10.697   1.307   7.984  0.4311 -0.1775  0.9005
  242MOL0     H31943  10.068   1.583   8.322 -2.4088 -2.1905  0.9675
  242MOL0     H31944   9.852   1.716   8.379  1.7637  2.7128 -1.4446
  243MOL0     O31945   2.984   2.350   1.597 -0.1641 -0.2146 -0.5769
  243MOL0     C31946   2.964   2.247   1.541 -0.7428  0.8251  0.1885
  243MOL0     O31947   2.848   2.168   1.549  0.6015 -0.3141 -0.3135
  243MOL0     C31948   2.721   2.211   1.580 -0.0786  0.3566  0.1539
  243MOL0     C31949   2.660   2.151   1.683 -0.7477  0.6571 -0.4864
  243MOL0     C31950   2.533   2.196   1.733  1.1649  0.6096  0.5255
  243MOL0     C31951   2.466   2.303   1.664 -0.3057 -0.5514 -0.2294
  243MOL0     O31952   2.338   2.358   1.697 -0.6248  0.6421 -0.0960
  243MOL0     C31953   2.244   2.267   1.760  0.0039 -0.5365  0.0522
  243MOL0     C31954   2.112   2.346   1.794  0.2681  0.1397 -0.3031
  243MOL0     C31955   2.129   2.437   1.920  0.1514 -1.0434 -0.3348
  243MOL0     C31956   1.994   2.484   1.966  0.8605  0.0106  0.7050
  243MOL0     C31957   2.001   2.567   2.085  0.4527 -0.6693 -0.3453
  243MOL0     C31958   1.860   2.593   2.146 -0.6789 -0.3971  0.7456
  243MOL0     C31959   1.876   2.691   2.266 -0.2949 -0.0442  0.2677
  243MOL0     C31960   1.740   2.724   2.326 -0.1840  0.2714  0.4853
  243MOL0     N31961   1.756   2.857   2.404  0.1658  0.0149  0.0868
  243MOL0     C31962   1.847   2.888   2.509 -0.2071  0.1526  0.3410
  243MOL0     C31963   1.796   2.977   2.598  0.4377  0.1985 -0.6270
  243MOL0     C31964   1.858   3.013   2.729  0.5239  0.3292 -0.4259
  243MOL0     C31965   1.958   3.127   2.716 -0.5378  0.7146  0.0386
  243MOL0     C31966   2.108   3.104   2.681  0.3610  0.2391  0.5358
  243MOL0     C31967   2.174   3.007   2.773 -0.1526  0.6176  0.2938
  243MOL0     O31968   2.175   3.083   2.898 -0.1812  0.0520 -0.3996
  243MOL0     C31969   2.296   3.133   2.936  0.2847  0.3345 -0.9486
  243MOL0     C31970   2.319   3.278   2.936  0.0644 -0.0322 -0.7958
  243MOL0     C31971   2.449   3.321   2.949  0.5039 -0.6067  0.3609
  243MOL0     C31972   2.553   3.228   2.981  0.3694 -0.9712 -0.1344
  243MOL0     C31973   2.688   3.276   2.987 -0.3193  0.3237  1.7711
  243MOL0     O31974   2.788   3.187   2.962 -0.0435  0.4564  0.2546
  243MOL0     C31975   2.923   3.213   2.949 -0.2591 -0.1806 -0.0059
  243MOL0     C31976   2.991   3.098   2.914  0.6062 -0.3949  0.1764
  243MOL0     C31977   3.130   3.097   2.884  0.4170 -0.2879 -1.1572
  243MOL0     C31978   3.197   3.222   2.881 -0.3624  0.1058 -0.6670
  243MOL0     O31979   3.329   3.221   2.844  0.3132  0.0015 -0.3670
  243MOL0     C31980   3.410   3.170   2.952 -0.3129  0.0041  1.1519
  243MOL0     C31981   3.543   3.144   2.896  0.3000 -0.4651 -0.1027
  243MOL0     C31982   3.644   3.102   3.007  0.7127  0.0288  0.0674
  243MOL0     C31983   3.785   3.048   2.959  0.3126  0.3697  0.1845
  243MOL0     C31984   3.883   3.010   3.069 -0.1196 -0.2927 -0.2170
  243MOL0     C31985   4.033   2.979   3.018  0.2218 -0.7301 -0.6515
  243MOL0     C31986   4.044   2.881   2.900  0.1563  0.5844  0.2907
  243MOL0     C31987   4.186   2.840   2.868 -0.5597  0.1500  0.8258
  243MOL0    Cl31988   4.229   2.686   2.969  0.0779  0.2820 -0.1869
  243MOL0     C31989   3.121   3.341   2.893  0.4414 -0.0129  0.1297
  243MOL0     C31990   2.989   3.329   2.940  0.0254  0.3782  0.3261
  243MOL0     O31991   2.705   3.396   3.029  0.3110  0.3216  0.6466
  243MOL0     C31992   2.525   3.086   2.993  0.5093 -0.1774 -0.6260
  243MOL0     C31993   2.394   3.034   2.967  0.2839  0.3732  1.1081
  243MOL0     N31994   1.670   3.005   2.551  0.0829 -0.3328  0.0511
  243MOL0     N31995   1.651   2.935   2.441  0.0755 -0.0125 -0.1641
  243MOL0     C31996   2.528   2.361   1.551 -0.0446  0.5470 -0.5972
  243MOL0     C31997   2.658   2.324   1.517  0.8419  0.6556  0.1305
  243MOL0     C31998   3.079   2.191   1.462  0.5866 -0.7143 -0.3322
  243MOL0     C31999   3.215   2.226   1.491 -0.3970 -0.1671 -0.4027
  243MOL0     C32000   3.313   2.154   1.432 -0.8492  0.0686  0.3491
  243MOL0     C32001   3.295   2.059   1.337  0.2687 -0.3829 -0.2266
  243MOL0     O32002   3.414   2.007   1.287  0.1766 -0.0324  0.0441
  243MOL0     C32003   3.415   1.905   1.186 -0.2659 -0.5141 -0.1013
  243MOL0     C32004   3.508   1.790   1.218  0.3713  0.6719 -0.7712
  243MOL0     C32005   3.654   1.814   1.180  1.0784 -0.0603  0.3978
  243MOL0     C32006   3.673   1.814   1.024  0.1788  0.8256 -0.5898
  243MOL0     C32007   3.802   1.862   0.971  0.2419 -0.3089  0.2246
  243MOL0     C32008   3.899   1.931   0.957  0.3570 -0.6245 -0.9759
  243MOL0     C32009   3.158   2.035   1.291 -0.0440 -0.0108  0.0603
  243MOL0     C32010   3.054   2.092   1.366  0.4212 -0.2843 -0.6165
  243MOL0     H32011   2.711   2.069   1.733 -2.5198  0.6175  1.4223
  243MOL0     H32012   2.494   2.144   1.820  0.2217  0.9472  0.3149
  243MOL0     H32013   2.290   2.235   1.854 -0.0177  1.4538  0.7906
  243MOL0     H32014   2.221   2.178   1.701  1.2256 -1.2697  0.6495
  243MOL0     H32015   2.039   2.268   1.815  0.2651  0.0419 -0.6687
  243MOL0     H32016   2.081   2.396   1.702  2.0898 -0.0982 -1.0928
  243MOL0     H32017   2.198   2.518   1.892  1.4825  0.0276  4.9694
  243MOL0     H32018   2.179   2.390   2.005 -1.6874 -1.5310  0.5282
  243MOL0     H32019   1.938   2.542   1.891  0.8860 -1.4015 -0.4519
  243MOL0     H32020   1.926   2.402   1.990 -0.4762  0.6027 -0.8252
  243MOL0     H32021   2.060   2.657   2.071 -0.2884 -0.2364 -0.7290
  243MOL0     H32022   2.061   2.508   2.156  0.1839 -1.9503 -1.1482
  243MOL0     H32023   1.820   2.500   2.188 -1.0828  0.7384  3.0554
  243MOL0     H32024   1.791   2.638   2.075 -3.7080 -2.1196  2.3584
  243MOL0     H32025   1.931   2.640   2.346 -2.4245 -3.6788 -0.3671
  243MOL0     H32026   1.928   2.784   2.241 -0.0610 -0.0079  0.8674
  243MOL0     H32027   1.697   2.649   2.392 -1.1975  1.9488  1.8389
  243MOL0     H32028   1.661   2.738   2.252 -0.2366 -5.3731 -0.9330
  243MOL0     H32029   1.944   2.838   2.510  0.9122  1.7922 -3.7832
  243MOL0     H32030   1.904   2.927   2.777 -0.2039  0.4329  0.4930
  243MOL0     H32031   1.777   3.041   2.798  1.1383  0.6086  0.1909
  243MOL0     H32032   1.972   3.178   2.812  1.6133  3.5976 -1.6433
  243MOL0     H32033   1.919   3.203   2.648 -0.3053  0.5148 -0.3216
  243MOL0     H32034   2.120   3.064   2.579 -1.8249  1.1301 -0.1222
  243MOL0     H32035   2.167   3.196   2.681  0.2089  0.3767  2.6096
  243MOL0     H32036   2.278   2.989   2.742 -0.7700 -1.0247 -1.0028
  243MOL0     H32037   2.122   2.912   2.788  1.4322 -0.3824 -0.3432
  243MOL0     H32038   2.234   3.342   2.916 -1.2802 -1.8250 -1.1206
  243MOL0     H32039   2.475   3.425   2.935 -1.3116 -0.1125  0.3605
  243MOL0     H32040   2.942   3.001   2.921  0.2497 -0.1291  2.0130
  243MOL0     H32041   3.178   3.001   2.869 -0.3309 -0.4877 -2.4397
  243MOL0     H32042   3.375   3.073   2.990 -0.7060 -0.0810  0.5858
  243MOL0     H32043   3.414   3.248   3.029  0.9338  1.1536 -0.0214
  243MOL0     H32044   3.576   3.236   2.846 -2.0297 -0.3216 -1.4709
  243MOL0     H32045   3.536   3.072   2.814 -2.1190  1.3168 -1.5850
  243MOL0     H32046   3.594   3.022   3.063  0.0180  1.7359  2.0200
  243MOL0     H32047   3.654   3.188   3.074  0.9543  0.8599 -1.0045
  243MOL0     H32048   3.770   2.958   2.899  0.9671  0.0764  0.4434
  243MOL0     H32049   3.838   3.115   2.891 -0.4746  0.1531 -0.6589
  243MOL0     H32050   3.842   2.926   3.124 -2.4978  1.2657  0.5376
  243MOL0     H32051   3.890   3.090   3.144  0.3577 -1.1647  0.6898
  243MOL0     H32052   4.084   2.935   3.104 -1.6015  2.1915  2.1230
  243MOL0     H32053   4.089   3.069   2.991  2.6122 -1.5758  1.1377
  243MOL0     H32054   3.969   2.801   2.902  1.3211 -0.6866 -2.2997
  243MOL0     H32055   4.020   2.939   2.810  0.7217 -2.9610 -2.3713
  243MOL0     H32056   4.265   2.913   2.888 -1.1702  0.4381  2.3187
  243MOL0     H32057   4.178   2.817   2.761  3.4315 -1.4642  0.7060
  243MOL0     H32058   3.164   3.439   2.878  1.5370 -0.5741 -0.5975
  243MOL0     H32059   2.943   3.427   2.943  2.2910  1.5866 -1.1288
  243MOL0     H32060   2.599   3.013   3.025  0.1040  0.1236  1.1301
  243MOL0     H32061   2.385   2.926   2.963 -2.6739  0.5090  1.8308
  243MOL0     H32062   2.495   2.451   1.502  0.7316  2.7676  2.6121
  243MOL0     H32063   2.701   2.372   1.430  0.2515  1.4121  0.2485
  243MOL0     H32064   3.230   2.290   1.577 -4.1174 -2.7947  2.5676
  243MOL0     H32065   3.417   2.180   1.448  0.1804  0.1311 -4.8596
  243MOL0     H32066   3.432   1.952   1.089 -0.6984  0.2524  0.1874
  243MOL0     H32067   3.316   1.860   1.178 -0.4939 -1.5209  5.0561
  243MOL0     H32068   3.514   1.783   1.327  0.1124  3.1471 -0.5403
  243MOL0     H32069   3.464   1.695   1.185  1.8499 -0.3772  0.1532
  243MOL0     H32070   3.720   1.736   1.219  2.6512 -0.4400 -2.6900
  243MOL0     H32071   3.697   1.911   1.205  2.4127 -0.1529 -1.3264
  243MOL0     H32072   3.660   1.713   0.985  1.6474  0.0127  0.9164
  243MOL0     H32073   3.595   1.867   0.968 -2.0035 -1.1217  0.4751
  243MOL0     H32074   3.966   2.012   0.978  0.5108 -1.0905  0.4504
  243MOL0     H32075   3.146   1.980   1.199  2.0327  0.6557 -0.6637
  243MOL0     H32076   2.949   2.071   1.348  0.1352 -0.1155  0.8016
  244MOL0     O32077   8.077   0.882   2.971  0.4258 -0.1813 -0.1204
  244MOL0     C32078   8.158   0.954   2.924 -0.0930 -0.6779  0.8536
  244MOL0     O32079   8.143   1.072   2.858  0.0401  1.1773 -0.2602
  244MOL0     C32080   8.020   1.118   2.832  0.4330 -0.3605 -0.3375
  244MOL0     C32081   7.951   1.080   2.718  0.0614 -0.4888  0.2480
  244MOL0     C32082   7.828   1.123   2.687  0.7970 -0.8004 -0.6114
  244MOL0     C32083   7.754   1.200   2.780 -0.3392 -0.0407 -0.3160
  244MOL0     O32084   7.623   1.229   2.749 -0.1233  0.1116  0.3477
  244MOL0     C32085   7.538   1.303   2.831  0.1364  0.2434  0.0748
  244MOL0     C32086   7.397   1.279   2.784 -0.0967 -0.0361 -0.3204
  244MOL0     C32087   7.309   1.170   2.840 -0.1633  0.3966  0.3882
  244MOL0     C32088   7.160   1.171   2.787  0.2831  0.3823 -1.0313
  244MOL0     C32089   7.075   1.083   2.869  0.2855  0.4032 -0.5014
  244MOL0     C32090   6.928   1.113   2.853  0.1409  0.3345 -0.2393
  244MOL0     C32091   6.858   1.018   2.959  0.5879  0.1262  0.0128
  244MOL0     C32092   6.704   1.043   2.964 -0.0826  0.0129 -0.7868
  244MOL0     N32093   6.671   1.177   3.020 -1.0139  0.8501 -0.5744
  244MOL0     C32094   6.654   1.290   2.945  0.2647  0.4053  0.0134
  244MOL0     C32095   6.576   1.372   3.027  0.3679 -0.0874  0.0957
  244MOL0     C32096   6.526   1.504   2.978 -0.1544 -0.1532  0.1982
  244MOL0     C32097   6.616   1.609   3.025  0.4366 -0.1330 -0.3465
  244MOL0     C32098   6.726   1.651   2.924  0.5724  0.2891  0.4050
  244MOL0     C32099   6.830   1.757   2.965  0.6532 -0.5034 -0.3104
  244MOL0     O32100   6.787   1.889   3.020  0.7931  0.2987  0.4137
  244MOL0     C32101   6.742   1.980   2.931 -0.1170  0.0221  0.7282
  244MOL0     C32102   6.608   2.016   2.933 -0.3901  0.2152 -0.0722
  244MOL0     C32103   6.547   2.115   2.853  0.2662 -0.1873  0.5364
  244MOL0     C32104   6.632   2.183   2.760  0.0774 -0.7759  0.1988
  244MOL0     C32105   6.587   2.290   2.660 -0.5723  0.1134 -0.3459
  244MOL0     O32106   6.454   2.332   2.658  0.5844 -0.8088  0.0734
  244MOL0     C32107   6.422   2.428   2.567 -0.2317 -0.9229  0.1104
  244MOL0     C32108   6.436   2.417   2.429 -0.0375  0.1825  0.2717
  244MOL0     C32109   6.381   2.505   2.341  0.0274 -0.5665  0.9773
  244MOL0     C32110   6.307   2.618   2.377  0.2436 -0.2580  0.1447
  244MOL0     O32111   6.238   2.703   2.298 -0.3397  0.0564  0.1442
  244MOL0     C32112   6.227   2.675   2.161 -0.7768  0.6761 -0.0254
  244MOL0     C32113   6.102   2.745   2.112 -0.1875 -0.7456 -0.5291
  244MOL0     C32114   6.107   2.894   2.103 -0.1583 -0.2580 -0.0535
  244MOL0     C32115   5.997   2.943   2.003 -0.3968  0.5156 -0.7289
  244MOL0     C32116   6.033   3.077   1.945  0.5330 -1.0767 -0.7221
  244MOL0     C32117   5.922   3.153   1.874  0.2532  0.7603  0.2725
  244MOL0     C32118   5.965   3.289   1.814  0.3110 -0.5702  0.7108
  244MOL0     C32119   5.836   3.360   1.772 -0.0185 -0.5523 -0.6871
  244MOL0    Cl32120   5.885   3.523   1.750  0.1585  0.4982 -0.0659
  244MOL0     C32121   6.301   2.638   2.520  0.0182 -0.1125  0.5865
  244MOL0     C32122   6.343   2.545   2.613 -0.3409  0.5062 -0.5680
  244MOL0     O32123   6.682   2.350   2.606 -0.2321  0.1663 -0.6067
  244MOL0     C32124   6.770   2.145   2.758  0.7864  0.2442 -1.1011
  244MOL0     C32125   6.824   2.048   2.845 -0.0210 -0.4568 -0.0630
  244MOL0     N32126   6.549   1.307   3.150 -0.6110  0.0369  0.3832
  244MOL0     N32127   6.609   1.197   3.140 -0.0573  1.0301 -0.0473
  244MOL0     C32128   7.820   1.237   2.895  0.5834  0.3123  0.6039
  244MOL0     C32129   7.950   1.197   2.925  0.1042 -0.2272  0.1476
  244MOL0     C32130   8.302   0.913   2.956 -0.1325  0.8088  0.0853
  244MOL0     C32131   8.412   0.969   2.876 -0.0127 -0.0541  0.2496
  244MOL0     C32132   8.546   0.932   2.903 -0.1702 -0.5084  0.3141
  244MOL0     C32133   8.570   0.849   3.017  0.4997  0.1807 -0.4938
  244MOL0     O32134   8.692   0.826   3.067  0.1336  0.6475  0.6694
  244MOL0     C32135   8.812   0.905   3.042 -0.3958 -0.5607 -0.2097
  244MOL0     C32136   8.786   1.036   3.131  0.2378 -0.2155  0.1764
  244MOL0     C32137   8.855   1.164   3.093 -1.5079 -0.0840 -0.4577
  244MOL0     C32138   8.784   1.277   3.170 -0.6610  0.7319 -0.0060
  244MOL0     C32139   8.884   1.360   3.239  0.2576  0.0059  0.3840
  244MOL0     C32140   8.968   1.431   3.285 -0.6952  0.3021  0.6955
  244MOL0     C32141   8.462   0.796   3.092  0.4203 -0.2500 -1.3008
  244MOL0     C32142   8.329   0.829   3.068 -0.8336 -0.3209  0.2172
  244MOL0     H32143   8.002   1.010   2.652  1.3510 -0.1231  0.8266
  244MOL0     H32144   7.778   1.080   2.601  2.2582 -4.0501  0.0199
  244MOL0     H32145   7.571   1.407   2.822  2.1828 -0.1730  1.7792
  244MOL0     H32146   7.550   1.269   2.934  0.3971  0.1796  0.0248
  244MOL0     H32147   7.410   1.271   2.676  1.7211  1.9461 -0.3007
  244MOL0     H32148   7.337   1.367   2.811  0.1156 -0.2823  1.0113
  244MOL0     H32149   7.306   1.171   2.949 -1.4133  1.4126  0.3632
  244MOL0     H32150   7.354   1.076   2.806 -0.9467  0.7486 -1.8193
  244MOL0     H32151   7.124   1.274   2.794  1.6083  0.7979  0.4241
  244MOL0     H32152   7.164   1.135   2.684  2.4077 -3.5319  0.2279
  244MOL0     H32153   7.095   1.102   2.975  1.2855 -1.0714 -0.3924
  244MOL0     H32154   7.106   0.980   2.854  1.6089  0.7132 -0.0628
  244MOL0     H32155   6.890   1.089   2.753  1.8660  0.6795 -1.0096
  244MOL0     H32156   6.923   1.220   2.872  1.5560  0.0649  1.9667
  244MOL0     H32157   6.876   0.912   2.939  0.7426  0.2365 -0.4299
  244MOL0     H32158   6.899   1.041   3.058  0.9587 -0.8486  0.0950
  244MOL0     H32159   6.648   0.971   3.025  4.0952 -2.5179  0.5116
  244MOL0     H32160   6.654   1.036   2.867  0.4242  0.5332 -1.0871
  244MOL0     H32161   6.688   1.307   2.843 -0.5649 -1.7625 -0.6976
  244MOL0     H32162   6.428   1.538   3.013 -0.3927  0.2714 -0.8321
  244MOL0     H32163   6.517   1.509   2.869  2.0687  0.6004 -0.0122
  244MOL0     H32164   6.659   1.587   3.123  2.6636  0.3294 -1.1489
  244MOL0     H32165   6.547   1.690   3.049 -0.9604 -1.7073  1.1939
  244MOL0     H32166   6.779   1.555   2.916 -0.5614 -0.3445  0.2449
  244MOL0     H32167   6.677   1.672   2.828 -0.5909 -2.3616  0.3362
  244MOL0     H32168   6.899   1.775   2.882 -1.7564 -0.9904 -2.5446
  244MOL0     H32169   6.895   1.705   3.036 -1.6427 -3.6419 -0.3216
  244MOL0     H32170   6.549   1.966   3.009  1.7777 -0.3974  1.3034
  244MOL0     H32171   6.444   2.145   2.868  0.6029  2.1546 -1.1586
  244MOL0     H32172   6.476   2.324   2.390 -1.5959 -0.0544 -0.8296
  244MOL0     H32173   6.389   2.492   2.234 -4.4082  1.7704  0.0958
  244MOL0     H32174   6.221   2.568   2.140  0.6637  0.1422  2.0311
  244MOL0     H32175   6.314   2.718   2.111  0.1460 -0.5475  0.4668
  244MOL0     H32176   6.014   2.699   2.158 -0.3406 -0.2375 -0.3067
  244MOL0     H32177   6.083   2.696   2.016 -0.8899 -4.2997  1.2337
  244MOL0     H32178   6.204   2.931   2.068 -0.6774  1.5174  0.3008
  244MOL0     H32179   6.096   2.932   2.205 -4.1812  0.5313 -0.6176
  244MOL0     H32180   5.991   2.873   1.919 -3.4812 -0.8961  0.5060
  244MOL0     H32181   5.903   2.951   2.059  1.1654  3.5065  1.7878
  244MOL0     H32182   6.115   3.068   1.873  1.6002  1.4346  0.0625
  244MOL0     H32183   6.071   3.130   2.033 -2.1546 -1.4573  0.7803
  244MOL0     H32184   5.841   3.173   1.944  1.0931  1.3783  1.0992
  244MOL0     H32185   5.895   3.097   1.785 -0.2240  0.9342  0.3074
  244MOL0     H32186   6.009   3.353   1.892 -0.7646 -2.2239  2.7868
  244MOL0     H32187   6.029   3.285   1.726 -2.6648  1.5624 -1.7440
  244MOL0     H32188   5.751   3.351   1.841  0.0444 -1.9846 -0.7612
  244MOL0     H32189   5.798   3.316   1.680  0.1046  1.5226 -1.7861
  244MOL0     H32190   6.247   2.729   2.546  0.4830  0.3381 -0.0042
  244MOL0     H32191   6.340   2.568   2.719  4.8283  1.5553 -0.4253
  244MOL0     H32192   6.844   2.203   2.704  1.5200  2.2465  1.8252
  244MOL0     H32193   6.930   2.038   2.865  0.1691 -1.2317 -1.3295
  244MOL0     H32194   7.773   1.299   2.971  0.9580 -0.6154  1.6112
  244MOL0     H32195   7.998   1.210   3.022  1.6378 -0.2845 -0.5936
  244MOL0     H32196   8.387   1.023   2.784 -2.8919 -2.3990 -0.5009
  244MOL0     H32197   8.634   0.980   2.861 -0.1738  2.4653  3.2570
  244MOL0     H32198   8.840   0.929   2.939  1.4245  2.2496  0.8244
  244MOL0     H32199   8.901   0.852   3.078  0.1913 -0.0924 -0.9519
  244MOL0     H32200   8.678   1.053   3.134 -0.3471 -3.4333  2.3326
  244MOL0     H32201   8.813   1.018   3.235  0.8085 -0.5738 -0.0243
  244MOL0     H32202   8.848   1.183   2.985 -0.9644 -0.7156 -0.6109
  244MOL0     H32203   8.962   1.155   3.111 -1.1456  0.8555 -1.9847
  244MOL0     H32204   8.741   1.338   3.090  2.7228  2.1403 -0.9251
  244MOL0     H32205   8.714   1.232   3.241 -1.3339  0.1267 -1.0250
  244MOL0     H32206   9.038   1.462   3.360  1.3347  0.2080 -1.0652
  244MOL0     H32207   8.502   0.733   3.171  1.5993  0.7713 -1.0455
  244MOL0     H32208   8.248   0.794   3.131 -1.2256  0.3731  0.1077
  245MOL0     O32209   6.993   1.552   4.792  0.2370  0.5345 -0.4290
  245MOL0     C32210   6.996   1.433   4.764 -0.6057 -0.2725 -1.0528
  245MOL0     O32211   6.890   1.344   4.741  0.1619 -0.5178  0.2915
  245MOL0     C32212   6.768   1.383   4.672 -0.4832  0.9919 -0.6259
  245MOL0     C32213   6.709   1.516   4.664 -0.2504 -0.4629  0.2377
  245MOL0     C32214   6.584   1.537   4.593 -0.0740 -0.4424  0.6173
  245MOL0     C32215   6.514   1.429   4.546  0.3958 -0.1279  0.2446
  245MOL0     O32216   6.402   1.449   4.467  0.1728  0.0822 -0.0055
  245MOL0     C32217   6.294   1.523   4.531 -0.1877 -0.8768  0.1259
  245MOL0     C32218   6.166   1.476   4.468  0.6054 -0.3641  0.3958
  245MOL0     C32219   6.149   1.534   4.316  0.4521  0.1032 -0.6523
  245MOL0     C32220   6.009   1.501   4.258  0.0168 -1.3526  0.2679
  245MOL0     C32221   5.998   1.521   4.100  0.5084 -0.5288 -0.9206
  245MOL0     C32222   5.875   1.451   4.048 -0.2838 -0.5708 -0.3291
  245MOL0     C32223   5.747   1.458   4.125 -0.4536  0.8481 -0.8013
  245MOL0     C32224   5.637   1.373   4.051  0.5329  1.3741 -0.4354
  245MOL0     N32225   5.511   1.373   4.133  0.2877 -0.1228  0.0105
  245MOL0     C32226   5.443   1.266   4.186 -0.0006  0.5039  0.2540
  245MOL0     C32227   5.317   1.304   4.205 -0.1909 -0.5913  0.0948
  245MOL0     C32228   5.208   1.214   4.246 -0.0336 -0.0462  0.8557
  245MOL0     C32229   5.083   1.285   4.276  0.4858  0.2247 -0.2956
  245MOL0     C32230   5.076   1.332   4.420  0.4876  0.7329  0.3488
  245MOL0     C32231   5.037   1.478   4.444  0.7399  0.1363  0.2375
  245MOL0     O32232   4.910   1.497   4.382 -0.1640  0.2822  0.0324
  245MOL0     C32233   4.801   1.444   4.449 -0.1968  0.7058  1.0816
  245MOL0     C32234   4.676   1.454   4.393  0.5889 -0.3330  0.4341
  245MOL0     C32235   4.558   1.417   4.458 -0.2979 -0.0779 -0.8606
  245MOL0     C32236   4.559   1.370   4.583 -0.1823  0.1772 -0.6565
  245MOL0     C32237   4.430   1.315   4.632 -0.8008  0.4967 -0.0947
  245MOL0     O32238   4.310   1.357   4.570 -0.0743 -0.3412  0.5189
  245MOL0     C32239   4.190   1.293   4.597 -0.5705  0.1323 -0.3482
  245MOL0     C32240   4.144   1.204   4.702  0.2851  0.0631 -0.0510
  245MOL0     C32241   4.019   1.145   4.697  0.4262  0.5625 -0.2712
  245MOL0     C32242   3.928   1.168   4.598 -0.4589  0.2930  0.4741
  245MOL0     O32243   3.806   1.114   4.610  0.7647 -0.3694 -0.5920
  245MOL0     C32244   3.697   1.218   4.629 -0.0916  0.2534  0.6366
  245MOL0     C32245   3.559   1.157   4.650  0.4951  0.4309 -0.3220
  245MOL0     C32246   3.450   1.268   4.679 -0.4890 -0.6583 -0.8736
  245MOL0     C32247   3.299   1.211   4.692 -0.4419  0.0979  0.1948
  245MOL0     C32248   3.214   1.325   4.741  0.6168 -0.1336  0.4228
  245MOL0     C32249   3.063   1.285   4.725  0.2091  0.4503  1.2463
  245MOL0     C32250   2.966   1.398   4.735 -1.7044  0.8558 -0.3083
  245MOL0     C32251   2.821   1.345   4.744 -1.0527 -0.2229  0.2577
  245MOL0    Cl32252   2.783   1.263   4.903  0.3457 -0.0746  0.7416
  245MOL0     C32253   3.965   1.273   4.508  0.5157  0.2742  0.2597
  245MOL0     C32254   4.092   1.323   4.502 -0.1279  0.1537 -0.2503
  245MOL0     O32255   4.441   1.254   4.740  0.0419 -0.1809  0.1000
  245MOL0     C32256   4.685   1.341   4.637  0.3905 -0.0946  0.2476
  245MOL0     C32257   4.801   1.392   4.578 -0.4203  0.8325 -0.3849
  245MOL0     N32258   5.316   1.445   4.192 -0.3612 -0.1322  0.1335
  245MOL0     N32259   5.426   1.484   4.147 -0.2556  0.8212  0.4672
  245MOL0     C32260   6.570   1.306   4.552 -0.2195  0.1012 -0.1023
  245MOL0     C32261   6.698   1.276   4.610  0.4444 -0.4498  0.6295
  245MOL0     C32262   7.134   1.369   4.779  0.4233 -0.1802  0.1987
  245MOL0     C32263   7.149   1.233   4.773  0.0869 -0.3876  0.8964
  245MOL0     C32264   7.275   1.180   4.797 -0.3027 -0.3251 -0.6504
  245MOL0     C32265   7.387   1.254   4.831  0.1542 -0.7277 -0.0088
  245MOL0     O32266   7.508   1.214   4.876 -0.4469 -0.0630 -0.3596
  245MOL0     C32267   7.532   1.090   4.954  0.1686 -0.2885  1.0331
  245MOL0     C32268   7.674   1.062   4.978  0.4514 -0.1391 -0.6240
  245MOL0     C32269   7.738   1.183   5.056  0.2830  0.4250  0.0513
  245MOL0     C32270   7.893   1.168   5.061 -0.0047  0.0484  0.1986
  245MOL0     C32271   7.928   1.088   5.170 -0.7600 -0.3342 -0.5549
  245MOL0     C32272   7.963   1.021   5.264  0.6376 -0.4784 -0.2001
  245MOL0     C32273   7.375   1.390   4.838  0.5504 -0.8431 -0.5548
  245MOL0     C32274   7.252   1.446   4.801  0.1326  0.4587 -0.0266
  245MOL0     H32275   6.763   1.600   4.708  1.0341 -0.4543 -1.2803
  245MOL0     H32276   6.527   1.628   4.579 -3.4057 -2.5339 -0.4339
  245MOL0     H32277   6.298   1.629   4.505  2.2057 -0.9868 -0.1372
  245MOL0     H32278   6.293   1.510   4.640 -0.2216 -0.9776  0.1135
  245MOL0     H32279   6.075   1.499   4.524 -0.1433 -2.1858  0.0150
  245MOL0     H32280   6.158   1.367   4.465  0.0292 -0.4113  2.4558
  245MOL0     H32281   6.219   1.496   4.241 -1.9142 -1.5549 -2.1686
  245MOL0     H32282   6.162   1.642   4.311  2.3253 -0.0527  0.0168
  245MOL0     H32283   5.976   1.399   4.276 -1.2716 -1.6270 -2.9746
  245MOL0     H32284   5.949   1.577   4.307  0.7909 -0.3939 -0.2247
  245MOL0     H32285   6.084   1.473   4.052  0.6256 -0.2494 -0.9896
  245MOL0     H32286   5.997   1.628   4.076  0.6145 -0.2823  0.1027
  245MOL0     H32287   5.906   1.347   4.052  0.1772 -0.4049  1.3571
  245MOL0     H32288   5.861   1.482   3.944 -1.4897 -2.2748 -0.7118
  245MOL0     H32289   5.761   1.416   4.225 -0.7597  0.5776 -0.8681
  245MOL0     H32290   5.723   1.564   4.133 -0.3521  0.7499  5.3028
  245MOL0     H32291   5.673   1.270   4.044 -1.1558  0.8596 -3.1244
  245MOL0     H32292   5.620   1.418   3.953  1.3409  3.6449  0.4018
  245MOL0     H32293   5.484   1.167   4.204  1.9274  1.4909  1.6848
  245MOL0     H32294   5.235   1.143   4.324 -2.3892 -1.6534  0.2878
  245MOL0     H32295   5.187   1.156   4.155 -1.0821  2.4946 -0.6532
  245MOL0     H32296   4.992   1.231   4.248  0.6453 -0.1616 -0.0838
  245MOL0     H32297   5.074   1.370   4.208  0.9247 -1.7659 -3.0363
  245MOL0     H32298   5.003   1.262   4.462  2.4404 -1.1541  0.7869
  245MOL0     H32299   5.171   1.314   4.473  0.5912  0.3357  0.0349
  245MOL0     H32300   5.106   1.548   4.394 -0.9119  0.9584 -0.9911
  245MOL0     H32301   5.042   1.494   4.552 -0.2670 -1.4920  0.5601
  245MOL0     H32302   4.677   1.480   4.288 -0.3552  2.4432  1.0353
  245MOL0     H32303   4.472   1.430   4.393 -0.4319 -4.2975 -1.8117
  245MOL0     H32304   4.201   1.172   4.788  3.5574  3.3910 -0.7301
  245MOL0     H32305   3.995   1.076   4.777  1.7924 -0.6547 -0.8694
  245MOL0     H32306   3.695   1.284   4.542  0.0863 -2.8715 -1.8974
  245MOL0     H32307   3.719   1.278   4.718 -0.6867  0.9639  0.3186
  245MOL0     H32308   3.561   1.091   4.737  3.1383  1.0063  0.1377
  245MOL0     H32309   3.541   1.094   4.563  2.1237 -2.2949  1.1942
  245MOL0     H32310   3.452   1.345   4.602  3.1214  1.4181  1.0317
  245MOL0     H32311   3.473   1.308   4.778 -0.8801  0.6904 -1.3139
  245MOL0     H32312   3.257   1.182   4.595 -0.8677  0.5500  0.2390
  245MOL0     H32313   3.281   1.129   4.760 -0.0512 -0.5373 -0.4485
  245MOL0     H32314   3.236   1.401   4.665  3.0247  2.4876  3.4381
  245MOL0     H32315   3.242   1.363   4.840  0.5033 -0.1689  0.4696
  245MOL0     H32316   3.052   1.209   4.802  2.2549 -0.7561  0.4416
  245MOL0     H32317   3.051   1.242   4.625  3.1537  0.3275  0.8689
  245MOL0     H32318   3.002   1.466   4.813  0.6655 -1.8425  1.1062
  245MOL0     H32319   2.982   1.452   4.641  1.5216  0.0700 -0.3181
  245MOL0     H32320   2.793   1.271   4.668  0.8963 -0.6190 -0.1287
  245MOL0     H32321   2.754   1.430   4.723  0.1006  0.3391 -1.3521
  245MOL0     H32322   3.887   1.301   4.438  1.4791  1.5473 -0.3370
  245MOL0     H32323   4.108   1.402   4.430  1.3135 -0.0987 -0.2273
  245MOL0     H32324   4.692   1.286   4.730 -1.4128  0.6372  0.8654
  245MOL0     H32325   4.889   1.388   4.641  1.8655 -0.0087 -3.3979
  245MOL0     H32326   6.515   1.227   4.501  3.3013 -1.5097 -1.7408
  245MOL0     H32327   6.744   1.178   4.614 -0.4363 -0.8499  2.5150
  245MOL0     H32328   7.066   1.181   4.726 -0.8451  0.6646  1.3265
  245MOL0     H32329   7.294   1.074   4.781 -0.0646 -0.0918 -2.0000
  245MOL0     H32330   7.474   1.015   4.900  2.3346 -1.2119 -0.0983
  245MOL0     H32331   7.486   1.093   5.053 -0.9907 -0.3423  0.5215
  245MOL0     H32332   7.683   0.970   5.037 -1.3803 -0.4454 -0.7650
  245MOL0     H32333   7.712   1.051   4.876 -1.3068 -0.8056 -1.2555
  245MOL0     H32334   7.689   1.197   5.153  0.1091 -2.1749  0.4287
  245MOL0     H32335   7.729   1.276   4.999 -1.8002  1.2442  1.5947
  245MOL0     H32336   7.932   1.120   4.971  0.8533 -3.5534  2.3129
  245MOL0     H32337   7.928   1.272   5.058 -2.3262  0.9526  1.6330
  245MOL0     H32338   8.006   0.968   5.347 -2.3175  0.1691  1.8805
  245MOL0     H32339   7.461   1.453   4.856 -2.6912  3.9373  0.1478
  245MOL0     H32340   7.246   1.552   4.824  0.7129 -0.3189  4.7370
  246MOL0     O32341   0.540   7.169   0.457 -0.0359  0.4635  0.4186
  246MOL0     C32342   0.572   7.242   0.365  1.0487  0.3809 -0.5288
  246MOL0     O32343   0.521   7.231   0.245  0.3134  0.2534  0.3270
  246MOL0     C32344   0.412   7.144   0.228 -0.5136 -0.9392  0.0544
  246MOL0     C32345   0.440   7.031   0.152  0.5414 -0.6408  0.2282
  246MOL0     C32346   0.334   6.946   0.112  0.1287  1.0535  0.9336
  246MOL0     C32347   0.199   6.971   0.145 -0.6812  0.3912  0.1927
  246MOL0     O32348   0.106   6.882   0.086  0.0688 -0.0655  0.3908
  246MOL0     C32349  -0.036   6.899   0.113 -0.3892  0.0500 -0.8003
  246MOL0     C32350  -0.113   6.811   0.006  0.6220 -0.7846 -0.8166
  246MOL0     C32351  -0.247   6.869  -0.034  0.0480 -0.2574 -0.6383
  246MOL0     C32352  -0.320   6.766  -0.122  0.4845 -0.4195 -0.6173
  246MOL0     C32353  -0.462   6.831  -0.142  0.2887  0.0079  0.4117
  246MOL0     C32354  -0.567   6.736  -0.210  0.0110  0.3827  0.0906
  246MOL0     C32355  -0.689   6.823  -0.248 -0.0306  0.0690 -0.5238
  246MOL0     C32356  -0.807   6.750  -0.293 -0.4517 -0.3230 -0.4311
  246MOL0     N32357  -0.874   6.683  -0.188 -0.4767  0.0869  0.2474
  246MOL0     C32358  -0.851   6.684  -0.047  0.6696 -0.0659 -1.1710
  246MOL0     C32359  -0.944   6.598  -0.001  0.2381 -0.3821  0.4951
  246MOL0     C32360  -0.964   6.570   0.149 -0.2079 -1.2457  0.4955
  246MOL0     C32361  -1.102   6.587   0.194  0.5131  0.0915  0.3104
  246MOL0     C32362  -1.202   6.471   0.153 -0.2040  0.1261  0.0028
  246MOL0     C32363  -1.300   6.444   0.272  0.0739 -0.0388 -0.1363
  246MOL0     O32364  -1.362   6.572   0.277  0.9322  0.0004  0.5104
  246MOL0     C32365  -1.479   6.575   0.352  0.2515  0.1526  0.2213
  246MOL0     C32366  -1.502   6.499   0.473 -0.2840  0.3798  0.8573
  246MOL0     C32367  -1.628   6.512   0.538  0.6533  0.0063 -0.4501
  246MOL0     C32368  -1.736   6.574   0.475  0.8730  0.7382 -0.2715
  246MOL0     C32369  -1.875   6.566   0.531  0.2520 -0.0249 -0.1714
  246MOL0     O32370  -1.973   6.637   0.471 -0.6726 -0.5807  0.4610
  246MOL0     C32371  -2.100   6.591   0.467  0.7993 -1.1499 -0.1904
  246MOL0     C32372  -2.137   6.458   0.469  0.3791 -0.3846 -0.7164
  246MOL0     C32373  -2.276   6.421   0.449  0.3135  1.0906  0.4100
  246MOL0     C32374  -2.375   6.522   0.428 -0.4183 -0.2051 -0.1794
  246MOL0     O32375  -2.507   6.493   0.405 -0.3587  0.3127  0.4279
  246MOL0     C32376  -2.565   6.392   0.489  0.1770  0.2600 -0.4361
  246MOL0     C32377  -2.711   6.373   0.479  0.3757  0.2043 -0.0437
  246MOL0     C32378  -2.779   6.512   0.494  0.0448 -0.4745 -0.0267
  246MOL0     C32379  -2.923   6.501   0.517 -0.3311  0.3149  0.2100
  246MOL0     C32380  -3.003   6.633   0.515  0.2850  0.0770  0.3092
  246MOL0     C32381  -2.933   6.749   0.594 -0.4405 -0.0283  0.8367
  246MOL0     C32382  -3.015   6.871   0.600  0.5081 -0.0115  0.5271
  246MOL0     C32383  -3.052   6.950   0.478 -0.7579  0.2414  0.5203
  246MOL0    Cl32384  -3.198   7.047   0.509  0.0118 -0.3526 -0.4808
  246MOL0     C32385  -2.329   6.653   0.432 -0.1982 -0.8498 -0.5537
  246MOL0     C32386  -2.197   6.691   0.449 -0.1279 -0.1592 -0.4552
  246MOL0     O32387  -1.885   6.488   0.626  0.2089  0.5541  0.0974
  246MOL0     C32388  -1.709   6.643   0.356  1.0296  0.1500  0.0965
  246MOL0     C32389  -1.586   6.648   0.292  0.3370 -0.4057 -0.5809
  246MOL0     N32390  -1.015   6.545  -0.108  0.1077  0.1170 -0.3134
  246MOL0     N32391  -0.978   6.600  -0.215 -0.2388 -0.0177  0.4708
  246MOL0     C32392   0.173   7.079   0.232  0.1242 -0.4264  0.0617
  246MOL0     C32393   0.277   7.166   0.272  0.1731 -0.0659 -0.3763
  246MOL0     C32394   0.673   7.351   0.395 -0.3348  0.1599 -0.3954
  246MOL0     C32395   0.703   7.453   0.302 -0.5249 -0.1193  0.7594
  246MOL0     C32396   0.791   7.559   0.333  0.6550 -0.1936  0.0272
  246MOL0     C32397   0.826   7.583   0.467  0.0851 -0.4088 -0.7633
  246MOL0     O32398   0.890   7.686   0.520  0.9144 -0.1842 -0.3956
  246MOL0     C32399   0.939   7.787   0.441 -0.2382  0.1456  0.2182
  246MOL0     C32400   1.092   7.762   0.425  1.0657 -0.1221 -0.3969
  246MOL0     C32401   1.158   7.888   0.355 -0.4543  1.0322  0.1270
  246MOL0     C32402   1.308   7.867   0.358  0.2486  0.2343 -0.3430
  246MOL0     C32403   1.386   7.991   0.323 -0.2565 -0.2231 -0.3724
  246MOL0     C32404   1.435   8.097   0.292  0.2538 -0.5990  0.2685
  246MOL0     C32405   0.798   7.486   0.559 -0.1744  0.6978 -0.5288
  246MOL0     C32406   0.719   7.369   0.529 -0.1389 -0.2021 -0.3138
  246MOL0     H32407   0.538   7.002   0.116  0.3652 -1.7465  0.5913
  246MOL0     H32408   0.351   6.871   0.035  0.8258 -0.8934  2.8953
  246MOL0     H32409  -0.057   7.006   0.116  3.5490  0.9351  0.5243
  246MOL0     H32410  -0.066   6.874   0.215  1.1388  4.8041  1.0885
  246MOL0     H32411  -0.125   6.716   0.059  0.3700 -0.3851 -0.1541
  246MOL0     H32412  -0.063   6.811  -0.091  0.9314  0.1594 -0.6587
  246MOL0     H32413  -0.215   6.953  -0.096 -2.0080  1.4127  0.4469
  246MOL0     H32414  -0.315   6.905   0.043 -1.0043 -0.9474 -1.2193
  246MOL0     H32415  -0.265   6.752  -0.215  0.8689  0.7945 -0.5976
  246MOL0     H32416  -0.330   6.676  -0.060 -3.2065  1.5934  2.1640
  246MOL0     H32417  -0.448   6.915  -0.211 -1.1418  0.4127  0.5823
  246MOL0     H32418  -0.509   6.876  -0.054 -0.9078 -1.2116  0.4275
  246MOL0     H32419  -0.602   6.666  -0.133  1.0724  1.6544  1.7934
  246MOL0     H32420  -0.520   6.690  -0.298  3.8105  0.4009  1.9056
  246MOL0     H32421  -0.714   6.893  -0.167  0.0673  1.4976 -1.6889
  246MOL0     H32422  -0.662   6.896  -0.325 -3.0067  3.2616  1.1377
  246MOL0     H32423  -0.762   6.683  -0.367 -0.1542 -0.5589 -0.0423
  246MOL0     H32424  -0.875   6.819  -0.343 -0.9938 -0.4638  0.1003
  246MOL0     H32425  -0.774   6.734   0.011  0.2204 -0.6156 -0.0740
  246MOL0     H32426  -0.901   6.641   0.204 -0.5716 -0.8107  0.3620
  246MOL0     H32427  -0.925   6.470   0.172  4.7373  0.4041  0.4628
  246MOL0     H32428  -1.145   6.680   0.156 -0.1590 -0.6874 -0.9213
  246MOL0     H32429  -1.093   6.591   0.302 -1.0361  1.9790  0.4089
  246MOL0     H32430  -1.263   6.508   0.070  1.6032  0.1384 -1.3829
  246MOL0     H32431  -1.149   6.381   0.121  0.6034  0.7809 -0.5513
  246MOL0     H32432  -1.240   6.423   0.361  4.3618  2.4559 -2.1001
  246MOL0     H32433  -1.370   6.363   0.251 -1.7192  1.5270 -0.4329
  246MOL0     H32434  -1.425   6.433   0.511  2.0478  0.6839 -2.8924
  246MOL0     H32435  -1.637   6.462   0.634 -0.6659  0.2822 -0.4085
  246MOL0     H32436  -2.064   6.383   0.496  0.0269 -0.7430 -0.7395
  246MOL0     H32437  -2.300   6.315   0.451 -1.5917  1.4351 -0.8123
  246MOL0     H32438  -2.537   6.422   0.590  1.9121 -0.2040 -0.7445
  246MOL0     H32439  -2.523   6.292   0.473 -0.2586 -0.2199  1.2320
  246MOL0     H32440  -2.749   6.301   0.552 -1.0647 -0.2584 -1.1853
  246MOL0     H32441  -2.734   6.339   0.377 -2.2666  0.8690  0.2555
  246MOL0     H32442  -2.765   6.568   0.401  2.1602 -0.2366  0.3732
  246MOL0     H32443  -2.723   6.562   0.573 -0.9785  0.2685  0.2412
  246MOL0     H32444  -2.961   6.435   0.439  0.0113  1.3796 -0.8868
  246MOL0     H32445  -2.941   6.453   0.614 -0.2045 -1.3568 -0.5662
  246MOL0     H32446  -3.097   6.620   0.569  0.6422 -1.2203  0.6473
  246MOL0     H32447  -3.019   6.642   0.407 -0.0164  1.0119  0.4232
  246MOL0     H32448  -2.837   6.769   0.546 -1.1899  0.3772 -0.5426
  246MOL0     H32449  -2.915   6.708   0.693  2.7129 -3.1376 -0.7952
  246MOL0     H32450  -3.114   6.842   0.634 -0.5971  0.0984 -2.2752
  246MOL0     H32451  -2.966   6.943   0.666 -1.4576  0.5837  1.3876
  246MOL0     H32452  -3.052   6.884   0.391  0.4840  1.4158 -0.4210
  246MOL0     H32453  -2.974   7.023   0.455 -1.6545  1.5242  1.4244
  246MOL0     H32454  -2.401   6.734   0.435  0.0747 -0.6005 -0.7367
  246MOL0     H32455  -2.181   6.798   0.448 -0.4694 -0.0992  0.0224
  246MOL0     H32456  -1.790   6.708   0.323 -1.2902 -2.9553 -0.8423
  246MOL0     H32457  -1.557   6.703   0.203  1.0782  0.4034  0.1402
  246MOL0     H32458   0.069   7.095   0.261  0.4467  2.4659 -0.1055
  246MOL0     H32459   0.245   7.262   0.313 -0.5340 -0.1069 -0.8173
  246MOL0     H32460   0.667   7.446   0.200  3.4012  0.8244 -0.8846
  246MOL0     H32461   0.809   7.621   0.246 -0.7884 -1.0735 -0.9408
  246MOL0     H32462   0.919   7.882   0.491 -0.6496 -0.2984  0.9145
  246MOL0     H32463   0.907   7.788   0.337  1.5351 -1.9145 -0.4332
  246MOL0     H32464   1.135   7.756   0.525 -1.4214 -0.2187  0.7408
  246MOL0     H32465   1.106   7.669   0.370 -1.5738 -1.6815  1.3762
  246MOL0     H32466   1.120   7.981   0.398  0.6578  2.5069 -1.9518
  246MOL0     H32467   1.126   7.886   0.251  0.2122 -1.9805 -0.1171
  246MOL0     H32468   1.325   7.845   0.464 -0.5701  0.1250 -0.2328
  246MOL0     H32469   1.343   7.778   0.306  3.9059 -0.3912  2.7386
  246MOL0     H32470   1.493   8.176   0.249 -1.2225  0.5012  0.2013
  246MOL0     H32471   0.835   7.500   0.660  1.4069  1.0022 -1.1310
  246MOL0     H32472   0.683   7.296   0.601 -2.0304  1.8236  0.9301
  247MOL0     O32473   7.107   2.069   2.673 -0.4242  1.2354  0.0689
  247MOL0     C32474   7.143   2.088   2.554 -0.6844 -0.7273  0.5237
  247MOL0     O32475   7.051   2.108   2.444  0.1432 -0.4092 -0.1191
  247MOL0     C32476   6.923   2.057   2.455  0.7591 -0.7090  0.8505
  247MOL0     C32477   6.909   1.938   2.525  0.2674  0.7824 -0.5467
  247MOL0     C32478   6.776   1.891   2.539 -0.0349  0.9075  0.0268
  247MOL0     C32479   6.663   1.953   2.492  0.8474 -0.0670  0.2373
  247MOL0     O32480   6.531   1.910   2.517 -0.0730  0.1346  0.7636
  247MOL0     C32481   6.509   1.818   2.629  0.5154 -0.0583 -0.4971
  247MOL0     C32482   6.355   1.827   2.669  0.4288 -0.3094  0.1724
  247MOL0     C32483   6.309   1.689   2.723 -0.3672  0.1785 -0.1561
  247MOL0     C32484   6.154   1.695   2.725 -1.6142 -0.0977  1.1731
  247MOL0     C32485   6.094   1.603   2.832 -0.8212  0.2608  0.6141
  247MOL0     C32486   5.943   1.597   2.831  0.1005  0.0137 -0.4337
  247MOL0     C32487   5.884   1.540   2.958  0.6478  0.0396 -0.3286
  247MOL0     C32488   5.785   1.642   3.022 -0.1043  0.5564  0.0394
  247MOL0     N32489   5.851   1.763   3.060 -0.1276  0.2413  0.5140
  247MOL0     C32490   5.879   1.773   3.190 -0.2977  0.0747  0.2155
  247MOL0     C32491   5.907   1.906   3.208  0.2515  0.4782  0.2550
  247MOL0     C32492   5.952   1.977   3.329  0.2296 -0.8314  0.1332
  247MOL0     C32493   5.856   1.953   3.447  0.8822  0.8954  0.1108
  247MOL0     C32494   5.898   2.021   3.579  0.2049  0.4817 -0.0183
  247MOL0     C32495   6.049   2.026   3.602 -0.7266  0.0260  0.7375
  247MOL0     O32496   6.056   2.070   3.740  0.1929 -0.1040 -0.7361
  247MOL0     C32497   6.172   2.102   3.800  0.0571  0.1581  0.1567
  247MOL0     C32498   6.176   2.145   3.938  0.5744  0.2120  0.2703
  247MOL0     C32499   6.293   2.174   3.999 -0.1539  0.2811 -0.2593
  247MOL0     C32500   6.415   2.176   3.926 -0.0049  1.4227  0.4953
  247MOL0     C32501   6.544   2.206   3.994  0.6904 -0.3765 -0.2197
  247MOL0     O32502   6.660   2.169   3.930  0.1621 -1.1389 -0.5336
  247MOL0     C32503   6.771   2.180   3.998 -0.7994  0.3186 -0.5160
  247MOL0     C32504   6.780   2.147   4.133  0.1369  0.3045  0.2334
  247MOL0     C32505   6.900   2.132   4.198  0.8131 -0.2288 -0.9346
  247MOL0     C32506   7.024   2.163   4.132 -0.1047 -0.2351 -0.3232
  247MOL0     O32507   7.155   2.152   4.176  0.1164  0.1611 -0.6052
  247MOL0     C32508   7.181   2.049   4.278  0.2312 -0.6239  0.6587
  247MOL0     C32509   7.316   2.081   4.339 -0.5225  0.6241  0.0682
  247MOL0     C32510   7.431   2.001   4.271 -0.1414 -0.0125  0.2030
  247MOL0     C32511   7.565   2.039   4.329 -0.1896 -0.3481  0.0367
  247MOL0     C32512   7.673   2.030   4.229 -0.1504  0.2107  0.6836
  247MOL0     C32513   7.815   2.067   4.278 -0.0787 -0.2247 -0.3284
  247MOL0     C32514   7.907   1.935   4.303  0.8800 -0.2627 -0.5511
  247MOL0     C32515   8.048   1.987   4.335 -0.4238  0.5973 -0.2219
  247MOL0    Cl32516   8.120   2.076   4.200 -0.0250 -0.1221  0.1656
  247MOL0     C32517   7.012   2.214   4.002  0.2742 -0.0561 -0.9834
  247MOL0     C32518   6.886   2.211   3.937 -0.5967  0.0639 -0.2910
  247MOL0     O32519   6.538   2.269   4.100 -0.1761 -0.4100 -0.3968
  247MOL0     C32520   6.416   2.130   3.792 -0.8812 -0.2530  0.3819
  247MOL0     C32521   6.293   2.096   3.727  0.6661 -1.0355  0.8311
  247MOL0     N32522   5.889   1.967   3.084  0.0329 -0.3263  0.4128
  247MOL0     N32523   5.854   1.878   2.996 -0.2925  0.3089  1.1040
  247MOL0     C32524   6.686   2.063   2.423 -0.6558 -1.0119  0.6004
  247MOL0     C32525   6.812   2.120   2.405  0.8830  0.2945  0.2212
  247MOL0     C32526   7.292   2.098   2.527  0.2374  0.4581  0.0335
  247MOL0     C32527   7.345   2.091   2.397 -0.8122  0.2235  0.1331
  247MOL0     C32528   7.485   2.092   2.375  0.0794  0.4739  0.0371
  247MOL0     C32529   7.577   2.100   2.483 -0.7129  0.9952 -0.5004
  247MOL0     O32530   7.713   2.123   2.480 -0.1826  0.1346  0.4944
  247MOL0     C32531   7.788   2.103   2.361 -0.6095 -0.5649 -0.6857
  247MOL0     C32532   7.927   2.174   2.353 -0.0361 -0.6233 -0.6238
  247MOL0     C32533   7.947   2.252   2.226  0.0859 -0.0135  0.7349
  247MOL0     C32534   8.060   2.353   2.219  0.4323  0.2358 -0.1723
  247MOL0     C32535   8.039   2.461   2.310 -0.0222 -0.7427 -1.6233
  247MOL0     C32536   8.018   2.534   2.409 -0.4362 -0.4392  0.1799
  247MOL0     C32537   7.527   2.092   2.609  0.2730 -0.3149 -0.0331
  247MOL0     C32538   7.385   2.102   2.630 -0.2439 -0.1329 -0.6241
  247MOL0     H32539   6.998   1.889   2.563  1.7401  1.8263 -2.4805
  247MOL0     H32540   6.763   1.790   2.578 -3.8776  0.0396 -2.9099
  247MOL0     H32541   6.557   1.845   2.723  1.3876 -1.3301 -0.5589
  247MOL0     H32542   6.540   1.717   2.603 -2.9386 -1.4987  0.3836
  247MOL0     H32543   6.293   1.834   2.578 -0.3002  1.0481  0.7481
  247MOL0     H32544   6.341   1.907   2.741 -1.7572  0.6821 -1.2441
  247MOL0     H32545   6.344   1.676   2.826 -0.5381  2.8808  0.3081
  247MOL0     H32546   6.357   1.611   2.663  4.4934  2.6758 -0.0235
  247MOL0     H32547   6.129   1.800   2.742  2.0232  0.7082  2.4770
  247MOL0     H32548   6.119   1.678   2.623  1.5033  1.6290 -0.3337
  247MOL0     H32549   6.127   1.635   2.931 -1.4286 -1.7237  1.5149
  247MOL0     H32550   6.126   1.500   2.813 -3.0236 -0.2590 -0.5543
  247MOL0     H32551   5.917   1.535   2.744 -2.4973 -3.3077  2.4184
  247MOL0     H32552   5.897   1.695   2.815 -2.1169 -0.7393  0.8417
  247MOL0     H32553   5.819   1.454   2.944 -1.0583  1.2715 -0.3746
  247MOL0     H32554   5.959   1.502   3.028 -1.0880  1.9421  2.8034
  247MOL0     H32555   5.741   1.593   3.109 -1.0113  1.0794 -0.1125
  247MOL0     H32556   5.712   1.671   2.946  1.0884  2.1645 -0.5520
  247MOL0     H32557   5.867   1.700   3.270 -0.3221 -2.2099 -1.7470
  247MOL0     H32558   5.980   2.079   3.301  4.1060 -1.9482 -0.6106
  247MOL0     H32559   6.041   1.931   3.373 -0.0360  0.4003  2.0677
  247MOL0     H32560   5.832   1.849   3.470 -1.7678  1.3918 -0.0968
  247MOL0     H32561   5.757   1.991   3.420  0.9759 -0.5943 -2.6915
  247MOL0     H32562   5.846   2.118   3.581 -0.4460  0.3103 -3.0373
  247MOL0     H32563   5.851   1.965   3.660 -2.0405  3.2827  0.7906
  247MOL0     H32564   6.105   2.087   3.529  1.9398 -1.1506  1.6497
  247MOL0     H32565   6.092   1.927   3.583  1.4177  1.0646 -0.2847
  247MOL0     H32566   6.084   2.150   3.996  0.2688  1.1181 -0.2612
  247MOL0     H32567   6.298   2.203   4.103 -0.9585  1.6400 -0.5692
  247MOL0     H32568   6.695   2.105   4.186 -1.5371  0.4440 -2.2111
  247MOL0     H32569   6.899   2.099   4.301 -0.2306 -0.7829 -1.1107
  247MOL0     H32570   7.184   1.947   4.239 -0.7359 -0.7768  0.9655
  247MOL0     H32571   7.113   2.069   4.361 -0.0264  2.8354 -0.2352
  247MOL0     H32572   7.302   2.060   4.445  0.7653 -2.2254 -0.2465
  247MOL0     H32573   7.339   2.185   4.313  3.6639  0.2582  1.5774
  247MOL0     H32574   7.426   2.008   4.162 -1.0993  0.2774  0.2501
  247MOL0     H32575   7.417   1.894   4.290  1.3962 -0.6026 -1.7064
  247MOL0     H32576   7.557   2.145   4.356 -4.0828  0.3351 -2.9072
  247MOL0     H32577   7.582   1.968   4.410 -0.2335 -1.0123 -0.5265
  247MOL0     H32578   7.655   2.094   4.142  2.1133  2.0471  1.4705
  247MOL0     H32579   7.679   1.926   4.194  0.0987  0.1602  0.8734
  247MOL0     H32580   7.812   2.116   4.375  1.8471  1.5632 -1.0868
  247MOL0     H32581   7.858   2.139   4.207 -0.2491 -0.1750 -0.3821
  247MOL0     H32582   7.870   1.887   4.395 -3.3034  2.1773 -0.7167
  247MOL0     H32583   7.917   1.869   4.217  5.8371  1.3477 -1.5033
  247MOL0     H32584   8.106   1.900   4.364 -0.3948  0.9373  0.7762
  247MOL0     H32585   8.049   2.056   4.420  0.3179 -0.4197  0.6201
  247MOL0     H32586   7.102   2.245   3.949  1.4480  3.4539  2.5467
  247MOL0     H32587   6.870   2.249   3.837  2.7204  3.9401  0.3994
  247MOL0     H32588   6.511   2.106   3.744 -2.2655 -1.1960 -2.0231
  247MOL0     H32589   6.304   2.066   3.623  0.6513 -2.6324  1.2565
  247MOL0     H32590   6.599   2.114   2.384  0.6324  1.5787  0.9617
  247MOL0     H32591   6.823   2.210   2.347  2.1780 -1.1161 -1.8588
  247MOL0     H32592   7.273   2.070   2.319 -1.4727 -0.6040  0.9491
  247MOL0     H32593   7.515   2.085   2.271  0.4834  1.3819  0.0845
  247MOL0     H32594   7.719   2.135   2.282 -2.5096 -3.7068 -0.4496
  247MOL0     H32595   7.817   1.998   2.361  1.7347  0.0147  0.7633
  247MOL0     H32596   7.927   2.233   2.446  0.9896 -2.7023  0.7912
  247MOL0     H32597   8.013   2.107   2.362 -1.0538 -2.3391 -2.7901
  247MOL0     H32598   7.866   2.318   2.192 -0.2949 -0.3347  1.0157
  247MOL0     H32599   7.965   2.177   2.148 -1.6228 -1.6035  1.7910
  247MOL0     H32600   8.152   2.306   2.254 -0.4093 -2.1853 -0.9381
  247MOL0     H32601   8.069   2.390   2.116 -0.2648  0.1607 -0.2666
  247MOL0     H32602   8.001   2.595   2.495  0.3885  1.1536 -0.7495
  247MOL0     H32603   7.590   2.101   2.697  1.3072  1.3858 -0.8922
  247MOL0     H32604   7.376   2.118   2.737 -3.1877 -1.4079 -0.6109
  248MOL0     O32605   8.352   5.582   2.925 -0.1644 -0.2148  0.2980
  248MOL0     C32606   8.300   5.673   2.874  0.6765 -0.0735  0.5001
  248MOL0     O32607   8.186   5.676   2.792  0.7369 -0.3632 -0.2124
  248MOL0     C32608   8.118   5.556   2.774 -0.1817 -0.2479 -0.1514
  248MOL0     C32609   8.176   5.439   2.724 -0.0291 -0.5098 -0.3423
  248MOL0     C32610   8.108   5.320   2.728  0.8486 -0.1161 -0.0322
  248MOL0     C32611   7.972   5.312   2.768  0.1034 -0.0834 -0.7121
  248MOL0     O32612   7.893   5.203   2.773  0.0591 -0.2628  0.0935
  248MOL0     C32613   7.944   5.097   2.840  0.0090 -0.0836 -0.3277
  248MOL0     C32614   7.839   5.011   2.911  1.1023 -0.0801 -0.3202
  248MOL0     C32615   7.738   5.112   2.992  0.5471  0.5516  0.2235
  248MOL0     C32616   7.631   5.027   3.062 -0.8826  0.1865  0.1542
  248MOL0     C32617   7.538   5.120   3.139 -0.4488  0.2014 -0.8367
  248MOL0     C32618   7.448   5.033   3.236 -0.0219 -0.4877 -0.6669
  248MOL0     C32619   7.322   5.105   3.290  0.3105  0.4242  0.4256
  248MOL0     C32620   7.253   5.015   3.395 -0.5833 -0.3239 -0.6504
  248MOL0     N32621   7.151   5.095   3.448  0.1959 -0.0184 -0.8714
  248MOL0     C32622   7.036   5.143   3.386  0.6695  0.7623  0.0899
  248MOL0     C32623   6.956   5.202   3.483 -0.0375  0.3783  0.2124
  248MOL0     C32624   6.820   5.264   3.474  0.0932  0.1880  0.4497
  248MOL0     C32625   6.824   5.409   3.529  0.1106  0.4622 -0.0705
  248MOL0     C32626   6.893   5.513   3.428  0.4879  1.0353  0.2314
  248MOL0     C32627   6.794   5.552   3.319  0.3521 -0.1235 -0.1090
  248MOL0     O32628   6.710   5.660   3.365 -1.0556  0.6646  0.4826
  248MOL0     C32629   6.580   5.664   3.330 -0.1285  1.0764 -0.0785
  248MOL0     C32630   6.487   5.573   3.382 -0.1307  0.2084 -0.2005
  248MOL0     C32631   6.350   5.583   3.364 -1.5982 -0.1476 -0.1076
  248MOL0     C32632   6.304   5.687   3.276  1.1422 -0.4427 -0.3160
  248MOL0     C32633   6.159   5.702   3.242  0.5232 -0.0166 -0.4877
  248MOL0     O32634   6.086   5.595   3.283  0.1196  0.3104  0.9460
  248MOL0     C32635   5.952   5.609   3.284  0.1570  0.2583  0.7721
  248MOL0     C32636   5.871   5.497   3.248 -0.0560  0.1087  0.3349
  248MOL0     C32637   5.735   5.506   3.218 -0.0995 -0.2136  0.3468
  248MOL0     C32638   5.669   5.625   3.253 -0.5506 -0.3005  0.0231
  248MOL0     O32639   5.539   5.625   3.204 -0.5351  0.2809  0.5250
  248MOL0     C32640   5.476   5.752   3.179 -0.0927  0.6582 -0.6072
  248MOL0     C32641   5.514   5.796   3.028 -0.6465 -0.7012 -0.0040
  248MOL0     C32642   5.460   5.703   2.920  0.7338  0.3066  0.0930
  248MOL0     C32643   5.312   5.700   2.922  0.7708  0.2083  0.0625
  248MOL0     C32644   5.261   5.655   2.786 -0.3289  0.6646  0.1471
  248MOL0     C32645   5.251   5.507   2.787  0.6779 -0.0024  0.0883
  248MOL0     C32646   5.241   5.447   2.644  0.3500 -0.5121 -1.2131
  248MOL0     C32647   5.233   5.297   2.660 -0.2649  0.6078  0.3342
  248MOL0    Cl32648   5.193   5.225   2.494 -0.3430 -0.3801  0.0904
  248MOL0     C32649   5.746   5.732   3.302  0.4079 -0.3004  0.6608
  248MOL0     C32650   5.877   5.727   3.311 -0.1962 -0.3581 -0.8228
  248MOL0     O32651   6.122   5.791   3.174 -0.2068  0.0554  0.7395
  248MOL0     C32652   6.399   5.770   3.213 -0.1462 -1.1622  0.7934
  248MOL0     C32653   6.538   5.764   3.243  0.4146  0.3154  0.2734
  248MOL0     N32654   7.030   5.193   3.611  0.1159  0.3408  0.7471
  248MOL0     N32655   7.143   5.121   3.579 -0.0130 -0.1692 -1.2500
  248MOL0     C32656   7.917   5.431   2.813  0.3386 -0.4707  0.1078
  248MOL0     C32657   7.986   5.553   2.817 -0.3349 -0.0970 -0.8788
  248MOL0     C32658   8.373   5.801   2.870 -0.3231  0.5178  0.9544
  248MOL0     C32659   8.469   5.828   2.964 -0.0803 -0.0780  0.3367
  248MOL0     C32660   8.531   5.948   2.965 -0.1495  0.5819  0.3359
  248MOL0     C32661   8.533   6.043   2.861 -0.2008 -0.7623  0.0989
  248MOL0     O32662   8.613   6.155   2.868  0.1950 -0.6971  0.7402
  248MOL0     C32663   8.584   6.265   2.781  0.2989  0.0582  0.6918
  248MOL0     C32664   8.687   6.379   2.808  1.4561 -0.0390  0.4945
  248MOL0     C32665   8.824   6.341   2.747 -0.3051 -0.5418  0.7766
  248MOL0     C32666   8.932   6.455   2.766 -0.8712  0.4822  0.7918
  248MOL0     C32667   9.064   6.402   2.722 -0.2597 -1.2559  0.1828
  248MOL0     C32668   9.177   6.368   2.688  0.2135 -0.2308 -0.5152
  248MOL0     C32669   8.451   6.007   2.759  0.2717 -0.1381  0.2007
  248MOL0     C32670   8.368   5.894   2.760  0.2399  0.3595 -0.3174
  248MOL0     H32671   8.275   5.449   2.681 -0.8172  1.3182 -1.8450
  248MOL0     H32672   8.156   5.232   2.687  0.8829 -0.7071  1.2302
  248MOL0     H32673   8.015   5.120   2.921 -1.7819  0.7330  1.0979
  248MOL0     H32674   8.002   5.038   2.768 -0.5175  0.0453 -0.8596
  248MOL0     H32675   7.890   4.944   2.981  0.0273  2.4882  3.1970
  248MOL0     H32676   7.781   4.954   2.838  0.8118 -0.1285 -0.0541
  248MOL0     H32677   7.688   5.177   2.920  1.0119  0.5125 -0.1449
  248MOL0     H32678   7.787   5.165   3.074  0.0846  0.5314  0.5193
  248MOL0     H32679   7.581   4.973   2.980  1.5069 -2.4986  0.3032
  248MOL0     H32680   7.667   4.950   3.130  0.6795  2.2991  1.8359
  248MOL0     H32681   7.463   5.172   3.078 -1.9407 -2.7525 -1.6914
  248MOL0     H32682   7.595   5.196   3.194 -0.5821 -1.2809  1.5043
  248MOL0     H32683   7.516   5.012   3.319  0.5722  4.4002  0.4098
  248MOL0     H32684   7.415   4.938   3.193  0.3199  0.1026 -2.3192
  248MOL0     H32685   7.353   5.203   3.327  0.9673 -0.3556  2.0466
  248MOL0     H32686   7.243   5.118   3.216  1.0668 -2.0179 -0.9584
  248MOL0     H32687   7.324   4.998   3.476 -1.4758 -1.0291  0.0046
  248MOL0     H32688   7.216   4.920   3.356  1.2936 -0.8478 -1.2624
  248MOL0     H32689   7.021   5.138   3.279  0.5095 -1.9619  0.1601
  248MOL0     H32690   6.746   5.202   3.526 -1.5741 -0.3897 -2.4409
  248MOL0     H32691   6.794   5.277   3.369 -0.1871  1.7336  0.6820
  248MOL0     H32692   6.873   5.408   3.626 -2.0841  0.7895  1.1033
  248MOL0     H32693   6.724   5.451   3.547  0.5669 -0.0307  4.9605
  248MOL0     H32694   6.918   5.599   3.491  2.7750 -2.3365  4.4682
  248MOL0     H32695   6.986   5.471   3.389 -0.3513 -0.4831 -0.2154
  248MOL0     H32696   6.725   5.475   3.283  1.5642  0.1042 -3.1755
  248MOL0     H32697   6.861   5.571   3.235  3.6658 -3.6053  1.4339
  248MOL0     H32698   6.533   5.504   3.452  0.3334  0.0078 -0.7050
  248MOL0     H32699   6.276   5.516   3.407 -0.7221  0.3952  2.3934
  248MOL0     H32700   5.936   5.411   3.231 -0.4652 -0.2929  0.7639
  248MOL0     H32701   5.674   5.425   3.180  0.8904 -0.5659 -0.5455
  248MOL0     H32702   5.503   5.828   3.253 -1.0782 -0.4504  0.9564
  248MOL0     H32703   5.366   5.745   3.184 -0.1400  1.7290  0.3489
  248MOL0     H32704   5.623   5.808   3.030 -0.3938 -2.1994 -1.9118
  248MOL0     H32705   5.472   5.894   3.003 -0.0639 -0.4203  0.1148
  248MOL0     H32706   5.488   5.599   2.939 -1.3927 -0.2407  0.5276
  248MOL0     H32707   5.499   5.738   2.824  0.1046  2.5767  0.6116
  248MOL0     H32708   5.268   5.647   3.008  3.2496 -2.1072  0.0567
  248MOL0     H32709   5.285   5.806   2.916  1.4756  0.3068 -2.4542
  248MOL0     H32710   5.320   5.695   2.704  1.2043 -0.2305  0.7707
  248MOL0     H32711   5.161   5.694   2.765 -0.0572  1.4364  0.2444
  248MOL0     H32712   5.160   5.480   2.841  1.2866 -0.0648  1.1096
  248MOL0     H32713   5.342   5.463   2.829  1.6045  0.2950 -1.5444
  248MOL0     H32714   5.154   5.477   2.584 -1.1938  0.1412  1.2065
  248MOL0     H32715   5.336   5.467   2.593  1.2143  2.4848  1.2461
  248MOL0     H32716   5.151   5.263   2.723  0.7515 -0.5486  1.0892
  248MOL0     H32717   5.332   5.255   2.684  0.5065  0.9405 -1.9874
  248MOL0     H32718   5.704   5.824   3.344  0.0498 -0.8045  1.4395
  248MOL0     H32719   5.926   5.819   3.341 -1.3234  0.3582 -1.1188
  248MOL0     H32720   6.364   5.839   3.138  1.8681  0.3687  1.1743
  248MOL0     H32721   6.610   5.819   3.185  0.8855 -1.0965 -0.5446
  248MOL0     H32722   7.814   5.432   2.849  0.9402 -1.3308  1.9669
  248MOL0     H32723   7.945   5.645   2.857  0.1851 -0.5007  0.6482
  248MOL0     H32724   8.499   5.759   3.042  0.2517 -1.9772 -1.3824
  248MOL0     H32725   8.601   5.976   3.042 -1.0735 -0.8003  1.7329
  248MOL0     H32726   8.477   6.282   2.794 -0.1590 -2.0040  0.0386
  248MOL0     H32727   8.596   6.229   2.678 -0.7076  1.6705 -0.0211
  248MOL0     H32728   8.647   6.471   2.764  1.8331 -0.3351 -0.4827
  248MOL0     H32729   8.694   6.384   2.917 -0.6385  0.2996  0.6395
  248MOL0     H32730   8.797   6.316   2.644 -0.5212  0.2698  0.6338
  248MOL0     H32731   8.863   6.256   2.805  0.7998  0.8625  2.1843
  248MOL0     H32732   8.909   6.538   2.699 -0.1606  1.3199  1.5673
  248MOL0     H32733   8.930   6.490   2.869  1.5515 -1.7505  1.7102
  248MOL0     H32734   9.275   6.334   2.662  0.1514 -0.3852 -0.5445
  248MOL0     H32735   8.437   6.055   2.663 -0.3130  0.0207  0.3610
  248MOL0     H32736   8.308   5.876   2.671  0.2877 -1.5428 -0.0201
  249MOL0     O32737   1.184   0.536   8.523 -0.0821  0.8011  0.7489
  249MOL0     C32738   1.265   0.436   8.525  0.7174  0.8253 -0.2945
  249MOL0     O32739   1.238   0.313   8.466  0.2961 -0.4256 -0.2608
  249MOL0     C32740   1.114   0.298   8.404 -0.2377 -0.0043 -0.2950
  249MOL0     C32741   1.119   0.246   8.276 -0.8397 -1.0073  0.2894
  249MOL0     C32742   1.004   0.224   8.202 -0.1862  0.7848  0.2861
  249MOL0     C32743   0.878   0.253   8.255 -0.2818 -0.1405  0.1012
  249MOL0     O32744   0.762   0.256   8.183  0.4277 -1.0001 -0.1207
  249MOL0     C32745   0.753   0.156   8.080  0.6413 -0.3281 -0.1122
  249MOL0     C32746   0.612   0.155   8.025 -0.5618 -0.2273 -0.2253
  249MOL0     C32747   0.605   0.100   7.879  0.4713  0.2794  0.3507
  249MOL0     C32748   0.563  -0.046   7.882  0.7715  0.3227 -0.5451
  249MOL0     C32749   0.519  -0.091   7.751 -0.0071  1.0802 -0.6320
  249MOL0     C32750   0.530  -0.241   7.721 -0.5324  0.3872  0.0808
  249MOL0     C32751   0.411  -0.328   7.784  0.3316  0.1551  0.5014
  249MOL0     C32752   0.280  -0.301   7.709 -0.1973  0.4281  0.0306
  249MOL0     N32753   0.294  -0.309   7.562 -0.0329 -0.0329  0.0247
  249MOL0     C32754   0.299  -0.431   7.498 -0.4853 -0.2495  0.0063
  249MOL0     C32755   0.301  -0.395   7.368 -1.4681  0.4483  1.0082
  249MOL0     C32756   0.331  -0.489   7.249  0.4325  1.5684  0.1140
  249MOL0     C32757   0.204  -0.524   7.171  0.0014 -0.3828  0.2174
  249MOL0     C32758   0.103  -0.593   7.271  0.3952  0.4509  0.6075
  249MOL0     C32759  -0.017  -0.659   7.196  0.2145 -0.1548 -0.5721
  249MOL0     O32760  -0.139  -0.666   7.273  0.2049  0.9072 -0.7719
  249MOL0     C32761  -0.246  -0.606   7.220  1.1030 -0.3734  0.4043
  249MOL0     C32762  -0.307  -0.687   7.126  0.1179 -0.0134  0.4470
  249MOL0     C32763  -0.399  -0.629   7.039  0.9194  0.0341  0.5168
  249MOL0     C32764  -0.433  -0.488   7.044  0.4606 -0.5282 -0.2657
  249MOL0     C32765  -0.543  -0.428   6.956 -1.0271  0.3646 -0.2853
  249MOL0     O32766  -0.547  -0.283   6.935  0.2734 -0.2186  0.0834
  249MOL0     C32767  -0.618  -0.227   6.835 -0.4842  0.3626 -0.4202
  249MOL0     C32768  -0.541  -0.137   6.755  0.5042  0.1599 -0.2018
  249MOL0     C32769  -0.598  -0.103   6.632 -1.0543 -0.3306  0.3428
  249MOL0     C32770  -0.719  -0.154   6.589  0.3462  0.3406  0.7769
  249MOL0     O32771  -0.801  -0.135   6.473  0.2230 -0.3417 -0.3600
  249MOL0     C32772  -0.781  -0.036   6.372  0.2166 -0.2868  0.3873
  249MOL0     C32773  -0.895  -0.029   6.275 -0.2063  0.6724 -0.1873
  249MOL0     C32774  -0.868   0.080   6.171  0.0397 -0.1505  0.5424
  249MOL0     C32775  -0.947   0.067   6.045 -0.6378 -0.4053  0.0217
  249MOL0     C32776  -0.887   0.167   5.942 -0.1298  0.2846  0.4171
  249MOL0     C32777  -0.999   0.192   5.845  0.6345 -0.2887  0.3587
  249MOL0     C32778  -0.931   0.260   5.719  0.5498 -0.9604  0.4929
  249MOL0     C32779  -0.889   0.159   5.617 -0.2809 -0.8708  0.5410
  249MOL0    Cl32780  -0.816   0.264   5.486 -0.2210  0.7406 -0.1179
  249MOL0     C32781  -0.799  -0.224   6.680 -0.0458 -0.4614  0.0357
  249MOL0     C32782  -0.746  -0.267   6.802 -0.7425  0.7409  0.9044
  249MOL0     O32783  -0.620  -0.504   6.903  0.2258  0.2913  0.2954
  249MOL0     C32784  -0.382  -0.421   7.157 -0.4775  0.7883 -0.5137
  249MOL0     C32785  -0.288  -0.476   7.239 -0.3257  0.2273 -0.4480
  249MOL0     N32786   0.294  -0.256   7.364 -0.3721 -0.1374  0.0199
  249MOL0     N32787   0.290  -0.206   7.478  0.0206  0.0840 -0.2445
  249MOL0     C32788   0.872   0.297   8.390 -0.1777  0.1682  0.5476
  249MOL0     C32789   0.993   0.317   8.459 -0.2802 -0.0272 -0.3812
  249MOL0     C32790   1.377   0.443   8.621 -0.7383  0.4853  0.1326
  249MOL0     C32791   1.396   0.549   8.708  0.1043 -0.5136 -0.1006
  249MOL0     C32792   1.512   0.563   8.782  0.2112  0.5546 -0.2703
  249MOL0     C32793   1.606   0.462   8.777  0.6344 -0.3858  0.6371
  249MOL0     O32794   1.723   0.484   8.851 -0.1055  0.2792  0.3035
  249MOL0     C32795   1.736   0.591   8.948  0.3368  0.1053 -0.0074
  249MOL0     C32796   1.650   0.554   9.071  0.3536 -0.0837 -0.2567
  249MOL0     C32797   1.680   0.408   9.094  0.1228  0.9201  0.5256
  249MOL0     C32798   1.653   0.373   9.248  0.5435  0.6380 -0.7184
  249MOL0     C32799   1.506   0.359   9.261 -0.5218 -0.2218 -1.1377
  249MOL0     C32800   1.388   0.330   9.251 -0.9227  0.1760  1.3645
  249MOL0     C32801   1.586   0.350   8.694 -0.9879  1.0116  0.0922
  249MOL0     C32802   1.464   0.337   8.627  0.7034 -0.2618 -0.1440
  249MOL0     H32803   1.219   0.239   8.235 -1.6790  1.2150 -2.4270
  249MOL0     H32804   1.030   0.211   8.097 -0.3004 -0.6057  0.4200
  249MOL0     H32805   0.767   0.058   8.127 -1.2629 -1.2429 -1.3462
  249MOL0     H32806   0.825   0.173   7.999 -1.6269 -1.4589 -2.4946
  249MOL0     H32807   0.576   0.258   8.034  2.5478  0.8503  1.1234
  249MOL0     H32808   0.556   0.096   8.099  0.6961  0.7825  1.6166
  249MOL0     H32809   0.703   0.095   7.830  0.8872 -1.0079  1.2647
  249MOL0     H32810   0.530   0.163   7.829  0.2747  0.9207  1.4269
  249MOL0     H32811   0.635  -0.114   7.927  0.2654  0.8428  1.1378
  249MOL0     H32812   0.474  -0.055   7.945  1.1090 -2.8412 -0.3853
  249MOL0     H32813   0.577  -0.047   7.669  2.1796 -1.1363 -0.4078
  249MOL0     H32814   0.421  -0.049   7.727 -0.5305 -0.3633 -1.1379
  249MOL0     H32815   0.625  -0.288   7.749 -1.8504 -1.4704  1.7501
  249MOL0     H32816   0.533  -0.258   7.613  3.2229  3.7533 -0.5878
  249MOL0     H32817   0.435  -0.434   7.773 -1.5249 -0.2842  0.4080
  249MOL0     H32818   0.404  -0.296   7.889  2.2710  1.2300  0.3571
  249MOL0     H32819   0.241  -0.202   7.735 -1.4785  0.9354 -3.3535
  249MOL0     H32820   0.210  -0.379   7.743  1.5028 -0.9649  0.4826
  249MOL0     H32821   0.316  -0.528   7.543  3.4291 -0.8752 -2.3753
  249MOL0     H32822   0.363  -0.586   7.288  0.2335  0.4986 -2.2284
  249MOL0     H32823   0.404  -0.450   7.178 -1.7683  1.5650 -2.3107
  249MOL0     H32824   0.227  -0.592   7.088  1.3272  2.9486 -2.3410
  249MOL0     H32825   0.152  -0.437   7.132  1.7335  0.1737 -0.9737
  249MOL0     H32826   0.144  -0.679   7.325  0.4535 -1.8720 -2.7883
  249MOL0     H32827   0.064  -0.516   7.337  2.3639  0.0434  2.3630
  249MOL0     H32828   0.017  -0.757   7.161  1.5855  0.9325 -2.3940
  249MOL0     H32829  -0.029  -0.603   7.103  2.8212 -1.6029 -1.8780
  249MOL0     H32830  -0.277  -0.790   7.109 -2.9091 -0.9066 -0.1269
  249MOL0     H32831  -0.458  -0.690   6.971  0.0106  0.5697  0.8110
  249MOL0     H32832  -0.446  -0.100   6.791  1.0347 -0.4867 -0.9194
  249MOL0     H32833  -0.542  -0.044   6.560  1.5137 -1.7724  1.0352
  249MOL0     H32834  -0.691  -0.059   6.314 -1.6247 -0.0006 -2.8418
  249MOL0     H32835  -0.752   0.057   6.421  0.8759 -1.1298  1.6544
  249MOL0     H32836  -0.994  -0.015   6.320  0.3702 -0.4848  1.5567
  249MOL0     H32837  -0.903  -0.122   6.218 -0.2082  0.8438 -0.4680
  249MOL0     H32838  -0.763   0.077   6.142 -0.7843 -1.3602 -2.7513
  249MOL0     H32839  -0.887   0.180   6.210  2.7590  0.8633 -0.5361
  249MOL0     H32840  -0.942  -0.039   6.016 -1.3409 -0.5195  0.3026
  249MOL0     H32841  -1.053   0.091   6.061 -1.1314 -1.3202 -1.5883
  249MOL0     H32842  -0.802   0.119   5.894  0.5617 -0.9889  2.7683
  249MOL0     H32843  -0.855   0.261   5.986  2.4522 -0.2753 -0.1472
  249MOL0     H32844  -1.076   0.258   5.887 -0.4935 -0.8789 -0.7015
  249MOL0     H32845  -1.056   0.100   5.827 -0.9881  0.0942  2.9951
  249MOL0     H32846  -1.003   0.325   5.668  0.6087  1.2029  2.9333
  249MOL0     H32847  -0.852   0.327   5.753 -1.7836  1.1842  2.1557
  249MOL0     H32848  -0.979   0.121   5.568 -1.2323  2.6119 -0.7750
  249MOL0     H32849  -0.818   0.086   5.657  1.7782  0.3474 -0.6610
  249MOL0     H32850  -0.898  -0.260   6.653 -0.5636  0.9316 -0.0481
  249MOL0     H32851  -0.796  -0.335   6.870  3.1080 -3.6079 -0.0833
  249MOL0     H32852  -0.400  -0.316   7.178  1.8121  0.7428  2.2921
  249MOL0     H32853  -0.241  -0.416   7.317  1.3965 -0.0860 -1.1972
  249MOL0     H32854   0.782   0.338   8.434  0.8345 -0.8356  3.9132
  249MOL0     H32855   0.976   0.359   8.558 -2.8986  1.2447 -1.2997
  249MOL0     H32856   1.332   0.637   8.709 -0.5243 -0.8997  2.8079
  249MOL0     H32857   1.535   0.658   8.828  0.5455  0.0329  0.6667
  249MOL0     H32858   1.728   0.687   8.896  1.6239 -0.1259 -0.6831
  249MOL0     H32859   1.835   0.586   8.994 -0.4046  0.8376  1.7527
  249MOL0     H32860   1.682   0.609   9.160 -0.2506 -0.2258  0.0594
  249MOL0     H32861   1.543   0.578   9.062 -0.0911 -0.8810  2.1461
  249MOL0     H32862   1.783   0.376   9.080  0.1834  1.4847 -0.4462
  249MOL0     H32863   1.617   0.355   9.021 -0.1557 -0.1742  1.5432
  249MOL0     H32864   1.699   0.280   9.280  0.2375  1.0133  0.8736
  249MOL0     H32865   1.702   0.445   9.314  0.4474  0.1034 -0.0576
  249MOL0     H32866   1.293   0.285   9.231 -0.0075 -1.0361 -0.5075
  249MOL0     H32867   1.655   0.267   8.687  1.1034  2.7209 -0.4418
  249MOL0     H32868   1.448   0.249   8.566 -2.0470  0.5679 -0.7487
  250MOL0     O32869  10.222   7.910   1.235  0.0721  0.3274 -0.2119
  250MOL0     C32870  10.239   7.789   1.241  0.8322  0.4784  0.0129
  250MOL0     O32871  10.338   7.716   1.177  0.8622 -0.2106 -0.4716
  250MOL0     C32872  10.424   7.783   1.096  0.5625  0.7448 -0.0519
  250MOL0     C32873  10.416   7.780   0.960  0.1678  1.3860  0.8192
  250MOL0     C32874  10.515   7.835   0.887  0.2781 -0.5595 -0.0967
  250MOL0     C32875  10.620   7.912   0.941 -0.3042  0.3726 -0.8827
  250MOL0     O32876  10.720   7.959   0.865  0.1570 -0.7414  0.8227
  250MOL0     C32877  10.769   8.092   0.894  0.1423  0.1095 -0.5638
  250MOL0     C32878  10.886   8.125   0.795  0.4965  0.1251  1.3069
  250MOL0     C32879  10.959   8.252   0.833 -0.4026 -0.0710  0.2270
  250MOL0     C32880  11.038   8.316   0.721  0.0346 -0.2344  0.3029
  250MOL0     C32881  11.097   8.453   0.768  0.7960  0.2262 -0.4528
  250MOL0     C32882  11.211   8.506   0.685 -0.1093  0.2208  0.5521
  250MOL0     C32883  11.179   8.588   0.553  0.0404  0.2718 -0.6493
  250MOL0     C32884  11.182   8.504   0.423  0.1924  0.9586  0.4488
  250MOL0     N32885  11.225   8.574   0.300  0.0690 -0.0241 -0.6117
  250MOL0     C32886  11.186   8.701   0.273 -0.4380  0.3319  0.6174
  250MOL0     C32887  11.245   8.727   0.155  0.0705  0.3279  1.0234
  250MOL0     C32888  11.224   8.855   0.073 -0.7198  0.3802  0.2530
  250MOL0     C32889  11.085   8.845   0.003  1.0513 -0.2555 -0.2984
  250MOL0     C32890  11.050   8.981  -0.070  0.1841 -0.0683  0.5687
  250MOL0     C32891  10.904   9.000  -0.107 -0.1960 -0.3275 -0.4982
  250MOL0     O32892  10.904   9.107  -0.204 -0.1616 -0.4833 -0.5723
  250MOL0     C32893  10.781   9.143  -0.252  0.0729 -0.0404 -0.1004
  250MOL0     C32894  10.780   9.264  -0.328  0.4027 -0.7607  0.1741
  250MOL0     C32895  10.660   9.311  -0.378 -0.5344 -0.7100 -0.0657
  250MOL0     C32896  10.534   9.252  -0.346  0.5376  0.3236  0.1602
  250MOL0     C32897  10.409   9.324  -0.379 -0.9487  0.2624  0.9538
  250MOL0     O32898  10.303   9.260  -0.345  0.4117  0.5695  0.8170
  250MOL0     C32899  10.168   9.302  -0.342 -0.4202  0.3131 -0.1580
  250MOL0     C32900  10.082   9.202  -0.293 -0.2950  0.3919 -0.4129
  250MOL0     C32901   9.950   9.237  -0.264  0.3841  0.7404 -0.0790
  250MOL0     C32902   9.897   9.365  -0.294 -0.4415 -0.1927  0.2416
  250MOL0     O32903   9.771   9.389  -0.247  0.0125 -0.6801  0.3905
  250MOL0     C32904   9.702   9.498  -0.308  0.9583 -0.2604  0.5900
  250MOL0     C32905   9.555   9.461  -0.332  1.3991 -0.2338  0.8358
  250MOL0     C32906   9.543   9.354  -0.443 -0.1104 -0.0937 -0.3385
  250MOL0     C32907   9.393   9.312  -0.454 -0.2497 -0.8199 -0.4474
  250MOL0     C32908   9.377   9.178  -0.519 -0.1134 -0.4065  0.4306
  250MOL0     C32909   9.236   9.145  -0.563  0.4475 -0.4592  0.3516
  250MOL0     C32910   9.185   9.226  -0.676 -0.8900 -0.9863  0.3823
  250MOL0     C32911   9.040   9.239  -0.695 -0.1312 -0.1134 -0.5997
  250MOL0    Cl32912   8.955   9.301  -0.560 -0.0452  0.1290 -0.1852
  250MOL0     C32913   9.989   9.462  -0.341  0.3590 -0.4761 -0.6765
  250MOL0     C32914  10.124   9.434  -0.354 -0.6937  0.3924  0.3024
  250MOL0     O32915  10.418   9.422  -0.450 -0.0011 -0.2455 -0.6913
  250MOL0     C32916  10.536   9.124  -0.279  0.3230 -0.6557  0.7152
  250MOL0     C32917  10.657   9.073  -0.231  0.6629  0.4915  0.8764
  250MOL0     N32918  11.306   8.609   0.102  0.6515 -0.9062  0.6160
  250MOL0     N32919  11.300   8.520   0.197  0.3855  0.1022 -0.3806
  250MOL0     C32920  10.631   7.910   1.077  0.1178  0.6611  0.5047
  250MOL0     C32921  10.536   7.840   1.151  0.0782 -0.1300 -0.9176
  250MOL0     C32922  10.144   7.701   1.308 -0.0296  0.3809  0.7216
  250MOL0     C32923  10.145   7.558   1.299 -0.8848 -0.3613  0.1334
  250MOL0     C32924  10.055   7.483   1.379 -0.2993  0.6107  0.1059
  250MOL0     C32925   9.956   7.546   1.460 -0.4395 -0.5608  0.1869
  250MOL0     O32926   9.873   7.462   1.539 -0.9328  0.7839 -0.2528
  250MOL0     C32927   9.767   7.521   1.616  0.3425  0.7415  0.0954
  250MOL0     C32928   9.716   7.407   1.701 -1.3158 -0.1929  0.1105
  250MOL0     C32929   9.610   7.446   1.803  0.2496 -0.3068 -0.1481
  250MOL0     C32930   9.663   7.511   1.931 -0.3129  0.9427 -0.0179
  250MOL0     C32931   9.556   7.555   2.010  0.7305  0.6321 -0.0291
  250MOL0     C32932   9.462   7.576   2.083  0.8540 -0.3930  0.0893
  250MOL0     C32933   9.954   7.683   1.466 -0.0786 -0.2895  0.1017
  250MOL0     C32934  10.048   7.752   1.394 -0.3568 -0.6540  0.1247
  250MOL0     H32935  10.342   7.717   0.911  1.3115  0.9862 -0.4511
  250MOL0     H32936  10.510   7.833   0.778  2.4329  2.6732 -0.4196
  250MOL0     H32937  10.812   8.101   0.994 -0.6483  1.8306 -0.3302
  250MOL0     H32938  10.688   8.165   0.884  1.8482  1.9446 -2.2149
  250MOL0     H32939  10.835   8.124   0.699 -2.1523  0.4572  2.6042
  250MOL0     H32940  10.960   8.046   0.786  0.1036 -0.0419 -0.8070
  250MOL0     H32941  11.011   8.232   0.927 -1.0878 -1.6582  0.2980
  250MOL0     H32942  10.894   8.327   0.881 -0.5850 -0.1901  0.1662
  250MOL0     H32943  11.109   8.242   0.683 -2.6959 -2.0870 -1.4644
  250MOL0     H32944  10.957   8.332   0.650 -1.1235  1.8605  1.9611
  250MOL0     H32945  11.133   8.432   0.869 -0.1212 -0.8995 -0.3278
  250MOL0     H32946  11.010   8.519   0.772 -0.0443 -0.9118  2.0679
  250MOL0     H32947  11.278   8.420   0.671 -0.8892 -0.1133 -1.5494
  250MOL0     H32948  11.265   8.572   0.753 -0.7279 -2.6733  4.1909
  250MOL0     H32949  11.078   8.629   0.567 -1.3181 -3.7449  3.6198
  250MOL0     H32950  11.259   8.663   0.554  2.4308 -2.1431 -0.9784
  250MOL0     H32951  11.086   8.458   0.399 -0.1338  2.0224 -0.4083
  250MOL0     H32952  11.256   8.424   0.433 -2.6405 -2.4547 -2.6082
  250MOL0     H32953  11.133   8.771   0.337  1.0922  1.4465  0.7018
  250MOL0     H32954  11.293   8.868  -0.011 -1.3470  2.8736  0.0537
  250MOL0     H32955  11.248   8.941   0.136  1.9290 -1.2679  1.6846
  250MOL0     H32956  11.011   8.835   0.083  2.9816  2.9119  2.1426
  250MOL0     H32957  11.076   8.777  -0.082 -0.8529  0.0721 -0.4146
  250MOL0     H32958  11.098   9.067  -0.021 -0.7727  0.7202  0.1596
  250MOL0     H32959  11.105   8.992  -0.163 -1.1345 -1.4379 -0.4114
  250MOL0     H32960  10.837   9.006  -0.021 -0.7046 -1.1325 -0.8196
  250MOL0     H32961  10.870   8.911  -0.161  0.1634 -0.9397  0.2621
  250MOL0     H32962  10.871   9.320  -0.346  0.2853 -0.7590 -0.4437
  250MOL0     H32963  10.664   9.404  -0.435 -4.9469  0.5071  1.1963
  250MOL0     H32964  10.116   9.103  -0.264  0.1024  0.3948 -0.8685
  250MOL0     H32965   9.887   9.159  -0.222 -1.7905 -0.9661 -5.5693
  250MOL0     H32966   9.744   9.529  -0.404  0.5658  1.0514  0.8175
  250MOL0     H32967   9.715   9.585  -0.243 -1.2188  1.2128 -0.7908
  250MOL0     H32968   9.505   9.552  -0.366  1.6804 -1.0568 -2.0299
  250MOL0     H32969   9.510   9.433  -0.236  0.7946 -2.8489 -0.1224
  250MOL0     H32970   9.615   9.273  -0.424 -1.0526 -1.0718 -0.8226
  250MOL0     H32971   9.580   9.396  -0.538  0.7923 -0.5803 -0.2207
  250MOL0     H32972   9.346   9.322  -0.356  2.9935 -1.3534  1.3008
  250MOL0     H32973   9.350   9.385  -0.523  0.2313 -1.2551 -1.2142
  250MOL0     H32974   9.417   9.101  -0.451  0.3472 -0.5301  0.0219
  250MOL0     H32975   9.440   9.166  -0.607 -0.3176 -4.3023  0.6238
  250MOL0     H32976   9.168   9.173  -0.482  1.6770 -0.5164  1.4562
  250MOL0     H32977   9.221   9.040  -0.591 -1.0480 -0.3749  0.7890
  250MOL0     H32978   9.224   9.327  -0.661 -0.1602 -1.5281  2.4308
  250MOL0     H32979   9.227   9.197  -0.773 -1.9567  0.3320 -0.5080
  250MOL0     H32980   9.004   9.137  -0.712 -2.3837  0.5262  0.0139
  250MOL0     H32981   9.023   9.292  -0.789  2.3074 -1.1050 -1.6698
  250MOL0     H32982   9.961   9.567  -0.345 -1.2081 -0.9111 -1.8494
  250MOL0     H32983  10.199   9.508  -0.379  0.4031  0.2032  2.8293
  250MOL0     H32984  10.440   9.076  -0.258  0.8414 -1.7861  0.5753
  250MOL0     H32985  10.641   8.981  -0.176 -1.0117 -0.5586 -1.2289
  250MOL0     H32986  10.706   7.963   1.135  1.1126 -0.7344  0.5162
  250MOL0     H32987  10.550   7.838   1.259  0.9403  1.6615 -0.9651
  250MOL0     H32988  10.212   7.513   1.227  1.3515  3.9001 -0.8107
  250MOL0     H32989  10.068   7.376   1.366 -1.4231  0.3513  1.0351
  250MOL0     H32990   9.686   7.537   1.544 -2.2861 -3.0712  1.8434
  250MOL0     H32991   9.788   7.613   1.671 -0.4416  2.7160 -2.6962
  250MOL0     H32992   9.669   7.328   1.642  0.8173  0.2936 -2.4205
  250MOL0     H32993   9.790   7.356   1.764 -0.7745 -1.4407 -1.4688
  250MOL0     H32994   9.560   7.353   1.830 -1.6203  0.5730 -0.4600
  250MOL0     H32995   9.541   7.516   1.756  1.0921  0.7288  0.1037
  250MOL0     H32996   9.725   7.444   1.991  0.7350  0.1746 -1.8897
  250MOL0     H32997   9.732   7.594   1.912  1.7066 -0.3182  1.4064
  250MOL0     H32998   9.379   7.607   2.143  0.1018  2.6538 -2.2872
  250MOL0     H32999   9.894   7.748   1.529 -0.0345 -1.0475  0.9266
  250MOL0     H33000  10.066   7.857   1.415 -4.3077  0.4319 -0.8712
  251MOL0     O33001   7.973   2.785   6.803 -0.0959 -0.1949 -0.0849
  251MOL0     C33002   8.059   2.721   6.858 -0.1514 -0.6405 -0.4520
  251MOL0     O33003   8.036   2.605   6.920 -0.5076 -0.4048 -0.0787
  251MOL0     C33004   7.930   2.525   6.906  0.5379  0.1612  0.0359
  251MOL0     C33005   7.946   2.387   6.914  0.1995  0.1218  0.4924
  251MOL0     C33006   7.839   2.301   6.912  0.8110  0.9601 -0.5288
  251MOL0     C33007   7.710   2.347   6.894 -0.0014 -0.3025 -0.2446
  251MOL0     O33008   7.612   2.256   6.876  0.3167  0.6821  0.0193
  251MOL0     C33009   7.478   2.287   6.837  0.1302 -1.0889 -0.3577
  251MOL0     C33010   7.416   2.152   6.781  0.4940  0.4078 -0.1622
  251MOL0     C33011   7.303   2.187   6.686 -0.1613 -0.3410 -0.0513
  251MOL0     C33012   7.179   2.221   6.770  0.4664 -0.1611 -0.7167
  251MOL0     C33013   7.057   2.273   6.685  0.0553  0.5704  0.0327
  251MOL0     C33014   7.085   2.401   6.592 -0.5621  1.4783  0.5256
  251MOL0     C33015   7.099   2.530   6.684 -0.6206  0.4177  0.0081
  251MOL0     C33016   7.133   2.666   6.614 -0.4333  0.5589 -0.9252
  251MOL0     N33017   7.021   2.724   6.545  0.1656 -0.9554  0.6826
  251MOL0     C33018   7.018   2.815   6.443 -0.0436  0.3257 -0.1258
  251MOL0     C33019   6.894   2.845   6.426  0.2250  0.1336  0.1552
  251MOL0     C33020   6.851   2.958   6.338 -0.0625 -0.4137 -0.6732
  251MOL0     C33021   6.706   3.001   6.370 -0.2862 -0.3072  0.2051
  251MOL0     C33022   6.706   3.089   6.498  0.0645 -0.9619  0.4866
  251MOL0     C33023   6.594   3.032   6.598 -0.1168  0.1898 -0.0350
  251MOL0     O33024   6.474   2.994   6.528  0.3831  0.3924 -0.0381
  251MOL0     C33025   6.358   2.994   6.602 -0.4444 -0.2050 -0.2883
  251MOL0     C33026   6.255   2.943   6.533  0.0678  0.1881  0.2245
  251MOL0     C33027   6.124   2.957   6.590 -0.0934 -0.1522 -0.4764
  251MOL0     C33028   6.101   3.011   6.713  0.4593 -0.6045  0.1172
  251MOL0     C33029   5.960   3.031   6.759 -0.5313  0.5464  0.1964
  251MOL0     O33030   5.856   3.046   6.676 -0.3260  0.1206  0.5113
  251MOL0     C33031   5.734   3.065   6.736 -0.5771 -0.2654  0.3192
  251MOL0     C33032   5.692   3.188   6.780 -0.0143  0.6965 -0.1855
  251MOL0     C33033   5.567   3.198   6.844 -0.1497 -0.5422 -0.4435
  251MOL0     C33034   5.470   3.094   6.837 -0.5255 -0.4985 -0.3158
  251MOL0     O33035   5.340   3.121   6.876 -0.0880 -0.3530 -0.2190
  251MOL0     C33036   5.263   3.001   6.903 -0.2976  0.7148  0.4221
  251MOL0     C33037   5.126   3.056   6.932 -0.4696  0.2812 -0.5201
  251MOL0     C33038   5.016   2.944   6.958 -0.3905  0.6478  0.2642
  251MOL0     C33039   4.873   2.998   6.940  0.7302 -0.5125 -0.5218
  251MOL0     C33040   4.753   2.891   6.949 -0.5304 -0.9185 -1.0941
  251MOL0     C33041   4.745   2.820   7.093 -0.2549  0.1508  0.6205
  251MOL0     C33042   4.660   2.689   7.068  0.3824  0.0737 -0.0671
  251MOL0     C33043   4.584   2.634   7.184  0.2219 -0.1541  0.9771
  251MOL0    Cl33044   4.695   2.552   7.305 -0.0780 -0.0252  0.3837
  251MOL0     C33045   5.514   2.971   6.780 -0.2722 -0.3162 -0.3129
  251MOL0     C33046   5.642   2.958   6.729 -0.1516  0.4796 -0.6337
  251MOL0     O33047   5.953   3.038   6.884  0.1000 -0.9195  0.1764
  251MOL0     C33048   6.210   3.061   6.786 -0.1353  1.0382 -0.2523
  251MOL0     C33049   6.339   3.038   6.736 -0.4661 -0.4181  0.8870
  251MOL0     N33050   6.827   2.770   6.513  0.4899  0.1597  0.6753
  251MOL0     N33051   6.889   2.692   6.578  0.8256  0.8007 -0.4797
  251MOL0     C33052   7.693   2.481   6.894 -0.5490 -0.8000 -0.1623
  251MOL0     C33053   7.795   2.572   6.899 -0.1989 -1.0352 -0.4320
  251MOL0     C33054   8.196   2.779   6.862 -0.0846  0.4437 -0.1728
  251MOL0     C33055   8.305   2.693   6.891 -0.1074  0.0683  0.2228
  251MOL0     C33056   8.439   2.733   6.879  0.4620 -1.3599  0.2117
  251MOL0     C33057   8.464   2.871   6.851 -0.2320  0.2986  0.1140
  251MOL0     O33058   8.594   2.920   6.846  0.0376  0.0721  0.1438
  251MOL0     C33059   8.627   3.026   6.758  0.0831 -0.2774 -1.2075
  251MOL0     C33060   8.766   3.066   6.797  0.1256  0.5766  0.5112
  251MOL0     C33061   8.825   3.180   6.709 -0.1517 -0.3271 -0.8374
  251MOL0     C33062   8.932   3.262   6.776 -0.8533 -0.5441 -1.1762
  251MOL0     C33063   8.980   3.366   6.687  0.4660 -0.1640 -0.1110
  251MOL0     C33064   9.005   3.463   6.611  0.1568  0.6179  0.6576
  251MOL0     C33065   8.349   2.958   6.835 -1.0186  0.7425  0.1406
  251MOL0     C33066   8.223   2.906   6.837 -0.1104 -0.1532  0.3383
  251MOL0     H33067   8.045   2.353   6.943  0.4052 -0.5552 -0.9220
  251MOL0     H33068   7.862   2.195   6.905 -3.2801 -0.2160  0.7900
  251MOL0     H33069   7.480   2.358   6.753  1.6466  1.1639  1.4684
  251MOL0     H33070   7.419   2.331   6.918 -0.8326 -3.9667  0.6092
  251MOL0     H33071   7.391   2.089   6.867 -1.0675  1.2413  0.0232
  251MOL0     H33072   7.490   2.093   6.727  0.3196 -0.8794  0.9520
  251MOL0     H33073   7.273   2.110   6.615 -0.0453  2.2338 -3.0776
  251MOL0     H33074   7.333   2.275   6.629  4.3133 -2.3482 -1.2564
  251MOL0     H33075   7.144   2.132   6.823 -0.7213  0.5934 -0.2025
  251MOL0     H33076   7.205   2.293   6.849 -0.5308 -1.3901  0.7903
  251MOL0     H33077   6.973   2.309   6.745 -2.3543 -1.1792 -2.0404
  251MOL0     H33078   7.028   2.187   6.624  0.4936  0.2284  0.2960
  251MOL0     H33079   7.009   2.417   6.515 -0.0977  4.1085  0.5267
  251MOL0     H33080   7.182   2.392   6.542 -1.0113  1.2472 -0.3243
  251MOL0     H33081   7.010   2.538   6.747 -0.8716  1.6553 -0.4872
  251MOL0     H33082   7.182   2.514   6.753 -1.6654 -1.9243  0.8302
  251MOL0     H33083   7.214   2.641   6.545 -0.6231 -1.4933 -0.4675
  251MOL0     H33084   7.174   2.723   6.697  0.2303 -2.4978  0.9887
  251MOL0     H33085   7.107   2.853   6.394  2.6986 -2.0403  2.5709
  251MOL0     H33086   6.846   2.930   6.232  2.5283 -0.5266 -0.8231
  251MOL0     H33087   6.923   3.039   6.355 -1.0632  0.0594  1.8082
  251MOL0     H33088   6.638   2.915   6.367  1.9093 -2.1395 -0.6757
  251MOL0     H33089   6.672   3.062   6.286  1.1522  2.0360  1.2166
  251MOL0     H33090   6.798   3.070   6.553 -0.0880 -1.5732  0.5395
  251MOL0     H33091   6.713   3.194   6.469  0.7435 -1.5679 -1.7778
  251MOL0     H33092   6.572   3.118   6.660 -2.0069  1.4673 -2.3227
  251MOL0     H33093   6.633   2.951   6.660  2.5377 -0.8000 -2.7272
  251MOL0     H33094   6.268   2.899   6.434 -1.1153 -1.2814  0.6715
  251MOL0     H33095   6.034   2.924   6.540 -0.0517 -1.8110  0.4869
  251MOL0     H33096   5.760   3.272   6.784 -1.0739  1.5330  1.3198
  251MOL0     H33097   5.540   3.298   6.875  1.1161 -0.7959  1.6848
  251MOL0     H33098   5.303   2.940   6.985 -0.0601 -1.8924 -1.5098
  251MOL0     H33099   5.262   2.926   6.824  2.5140  0.7558  0.2491
  251MOL0     H33100   5.082   3.099   6.842 -0.2976 -0.2495 -0.8672
  251MOL0     H33101   5.127   3.118   7.022  0.6604 -0.0184 -0.3138
  251MOL0     H33102   5.037   2.895   7.053  1.7433 -0.4568 -0.6977
  251MOL0     H33103   5.033   2.867   6.882 -3.3233 -0.4565  0.6230
  251MOL0     H33104   4.855   3.080   7.010  1.0858  0.7898 -1.8988
  251MOL0     H33105   4.860   3.044   6.841  0.2832  0.0953 -0.1841
  251MOL0     H33106   4.769   2.821   6.865  2.6291 -0.4172 -1.0227
  251MOL0     H33107   4.659   2.941   6.923  1.2085  2.0560 -2.0040
  251MOL0     H33108   4.684   2.887   7.154  0.2831  1.3488 -0.1128
  251MOL0     H33109   4.845   2.798   7.130 -0.8648 -3.1466  0.5820
  251MOL0     H33110   4.582   2.709   6.995  1.9422  0.0108 -1.8209
  251MOL0     H33111   4.720   2.608   7.027 -1.3234 -3.0549  3.0496
  251MOL0     H33112   4.504   2.567   7.149 -1.1256  1.5708  0.6254
  251MOL0     H33113   4.521   2.712   7.228  0.3676  0.9286 -0.6788
  251MOL0     H33114   5.455   2.879   6.781  1.6450 -1.5871  0.4127
  251MOL0     H33115   5.678   2.859   6.702 -2.2063 -1.5602  3.2043
  251MOL0     H33116   6.191   3.112   6.880 -0.9172 -2.1381  1.4465
  251MOL0     H33117   6.422   3.080   6.791 -0.9314  0.5553  0.8635
  251MOL0     H33118   7.595   2.525   6.876 -0.5514  1.9280  4.6310
  251MOL0     H33119   7.772   2.678   6.900 -0.1169 -0.9616 -2.2733
  251MOL0     H33120   8.294   2.585   6.897  0.8753 -0.5027 -4.3404
  251MOL0     H33121   8.525   2.674   6.910  3.9155  2.6123 -0.8149
  251MOL0     H33122   8.562   3.115   6.761 -0.3862 -0.6070 -1.5064
  251MOL0     H33123   8.615   2.988   6.656 -0.9403 -2.4044 -0.3544
  251MOL0     H33124   8.772   3.091   6.903  5.2016 -0.9031  0.8621
  251MOL0     H33125   8.832   2.983   6.772  0.2985  0.2075  2.0988
  251MOL0     H33126   8.741   3.236   6.666 -0.9840  2.0042  3.3023
  251MOL0     H33127   8.877   3.126   6.629 -1.6954 -1.1697 -1.2988
  251MOL0     H33128   8.883   3.302   6.865  0.3041 -1.9175  0.1363
  251MOL0     H33129   9.011   3.196   6.813 -2.1814 -0.3944  2.2785
  251MOL0     H33130   9.028   3.539   6.540  0.9045 -1.4576 -1.4255
  251MOL0     H33131   8.368   3.064   6.817  2.9991  0.2685  0.6892
  251MOL0     H33132   8.139   2.975   6.825  0.3678  0.4400  0.3553
  252MOL0     O33133   0.321   5.703   0.256  0.6059 -0.1447  0.1611
  252MOL0     C33134   0.307   5.800   0.184  0.0913  0.4591 -0.5605
  252MOL0     O33135   0.406   5.879   0.143 -0.1313  0.2927  0.2190
  252MOL0     C33136   0.542   5.849   0.131  0.2144  0.0164 -0.0895
  252MOL0     C33137   0.628   5.958   0.096  1.1010 -0.1860 -0.1432
  252MOL0     C33138   0.764   5.945   0.078 -0.6912  0.3249 -0.7225
  252MOL0     C33139   0.823   5.823   0.112 -0.0130  0.0679  0.5465
  252MOL0     O33140   0.960   5.811   0.094  0.0172 -0.5179  0.0795
  252MOL0     C33141   1.029   5.697   0.149  0.4077  0.3640 -0.2652
  252MOL0     C33142   1.170   5.675   0.105 -0.8938 -0.3475  0.6181
  252MOL0     C33143   1.271   5.779   0.158 -0.3800 -0.3438  0.4164
  252MOL0     C33144   1.276   5.784   0.308  0.8158  0.0277  0.1493
  252MOL0     C33145   1.396   5.864   0.356  0.0350  0.8255 -0.1275
  252MOL0     C33146   1.360   6.002   0.404 -0.1408  0.2972 -0.0101
  252MOL0     C33147   1.486   6.085   0.444 -0.4965  0.1751 -0.5836
  252MOL0     C33148   1.569   6.031   0.557 -0.0596  0.0611  0.4103
  252MOL0     N33149   1.674   5.936   0.539  0.2949 -0.5695 -0.5878
  252MOL0     C33150   1.722   5.871   0.425  0.9272  0.5161  0.1270
  252MOL0     C33151   1.792   5.771   0.476 -0.1389 -0.4766 -0.3058
  252MOL0     C33152   1.881   5.682   0.405 -1.0101  0.5125 -0.1980
  252MOL0     C33153   1.841   5.650   0.257  0.2278 -0.9489 -0.1916
  252MOL0     C33154   1.922   5.533   0.199 -0.1716 -0.5473  0.5376
  252MOL0     C33155   2.001   5.582   0.073 -0.3639 -0.6998  0.6302
  252MOL0     O33156   2.078   5.463   0.023 -0.4834  0.3997 -0.0493
  252MOL0     C33157   2.015   5.373  -0.056  0.0923 -0.5974 -0.1044
  252MOL0     C33158   1.871   5.354  -0.071  0.5619 -0.0449 -0.6005
  252MOL0     C33159   1.817   5.256  -0.158  0.8422 -0.1887  0.8915
  252MOL0     C33160   1.899   5.172  -0.234 -0.0707  0.5916 -1.6218
  252MOL0     C33161   1.846   5.074  -0.337 -0.4785 -0.1544  0.1387
  252MOL0     O33162   1.721   5.099  -0.385 -0.1666  0.3374 -0.1336
  252MOL0     C33163   1.674   5.005  -0.478  0.3596  0.4645 -1.0348
  252MOL0     C33164   1.541   4.960  -0.446 -0.7804 -0.1892  0.3480
  252MOL0     C33165   1.474   4.868  -0.528  0.0892 -0.1169  0.1572
  252MOL0     C33166   1.542   4.820  -0.637 -0.0726  0.3731  0.0069
  252MOL0     O33167   1.487   4.736  -0.731 -0.1153  0.1447  0.9555
  252MOL0     C33168   1.541   4.606  -0.740 -0.5879 -0.4739  0.4958
  252MOL0     C33169   1.462   4.510  -0.644 -0.3057 -0.3659  0.8338
  252MOL0     C33170   1.317   4.506  -0.675  0.2741 -0.5842  0.1804
  252MOL0     C33171   1.248   4.426  -0.567  0.7244 -0.1372 -0.2667
  252MOL0     C33172   1.100   4.458  -0.532  0.0209  0.0018  0.5730
  252MOL0     C33173   0.995   4.440  -0.644 -0.7351 -0.1466 -0.0492
  252MOL0     C33174   0.846   4.463  -0.613 -0.4722  0.3837 -0.4375
  252MOL0     C33175   0.776   4.552  -0.706 -0.1875  0.4381 -0.8421
  252MOL0    Cl33176   0.603   4.554  -0.656  0.4506  0.4183 -0.2654
  252MOL0     C33177   1.668   4.872  -0.675  0.1845 -0.6070 -0.7365
  252MOL0     C33178   1.736   4.959  -0.591  0.1275  0.2352  0.1423
  252MOL0     O33179   1.922   4.980  -0.374  0.0301  0.5499 -0.0612
  252MOL0     C33180   2.042   5.185  -0.212  0.2555 -1.5985  0.0171
  252MOL0     C33181   2.094   5.287  -0.126  1.1838 -0.3921  0.0028
  252MOL0     N33182   1.799   5.785   0.613  0.4537  1.0501 -0.2110
  252MOL0     N33183   1.722   5.875   0.652  0.0126 -0.0700  0.5317
  252MOL0     C33184   0.740   5.716   0.148  1.2653  0.2085 -1.0700
  252MOL0     C33185   0.599   5.725   0.148 -0.2321  0.0613  0.0720
  252MOL0     C33186   0.168   5.820   0.146 -0.6129 -0.0679 -0.9787
  252MOL0     C33187   0.059   5.771   0.223 -0.0498  0.1451 -0.1763
  252MOL0     C33188  -0.075   5.798   0.190  0.3435  0.4989  0.7174
  252MOL0     C33189  -0.105   5.876   0.076  0.5499 -0.4883 -0.2934
  252MOL0     O33190  -0.232   5.920   0.052 -0.3847 -0.2495  0.7976
  252MOL0     C33191  -0.346   5.843   0.096 -0.6447 -0.6847 -0.7054
  252MOL0     C33192  -0.480   5.899   0.047 -0.2643 -0.0312 -0.1182
  252MOL0     C33193  -0.511   5.872  -0.105  0.0416 -0.1364 -0.0306
  252MOL0     C33194  -0.640   5.937  -0.150  0.1580 -0.7994 -0.3727
  252MOL0     C33195  -0.765   5.884  -0.103  0.4843  0.7049 -0.0607
  252MOL0     C33196  -0.865   5.831  -0.050 -0.2115 -1.1322 -0.2000
  252MOL0     C33197   0.006   5.935   0.006 -0.2353 -0.2919  0.1407
  252MOL0     C33198   0.139   5.911   0.042 -0.3322  0.3021  0.9741
  252MOL0     H33199   0.579   6.050   0.066 -1.6286 -1.5358 -0.0591
  252MOL0     H33200   0.825   6.028   0.044  0.9978 -1.0763 -1.2783
  252MOL0     H33201   0.978   5.615   0.098  1.6496  0.0030 -0.9639
  252MOL0     H33202   1.002   5.691   0.255  1.5132 -0.9356 -0.0442
  252MOL0     H33203   1.164   5.683  -0.003 -0.3804 -2.2296  0.4021
  252MOL0     H33204   1.198   5.572   0.133  0.6161 -0.1896 -0.2245
  252MOL0     H33205   1.242   5.877   0.118 -1.7613 -0.8920  0.0027
  252MOL0     H33206   1.371   5.754   0.121  0.3140  0.0657  1.9501
  252MOL0     H33207   1.182   5.826   0.346 -0.0346 -2.4048  0.9078
  252MOL0     H33208   1.270   5.685   0.352  1.4018  0.4509  1.2113
  252MOL0     H33209   1.479   5.854   0.286 -0.4701 -0.0151 -0.6129
  252MOL0     H33210   1.428   5.804   0.442 -0.3802 -0.5428 -0.9079
  252MOL0     H33211   1.312   5.988   0.501  1.0686 -5.2260  0.1102
  252MOL0     H33212   1.296   6.045   0.326  0.0823  1.0726  0.2293
  252MOL0     H33213   1.536   6.101   0.348 -2.8037  0.8663 -1.7328
  252MOL0     H33214   1.454   6.181   0.486  0.6571  1.0086 -1.5359
  252MOL0     H33215   1.504   5.968   0.619  1.1467 -2.1748 -0.4918
  252MOL0     H33216   1.607   6.118   0.611  1.3029  0.7065 -1.4935
  252MOL0     H33217   1.695   5.891   0.321  1.0431 -0.1808 -0.0399
  252MOL0     H33218   1.894   5.595   0.470 -0.4842  1.4809  1.0358
  252MOL0     H33219   1.983   5.722   0.400 -1.2916  1.6620  2.0067
  252MOL0     H33220   1.860   5.742   0.202 -0.5717 -1.5387 -1.5111
  252MOL0     H33221   1.734   5.628   0.257  0.2152 -0.8911 -0.0108
  252MOL0     H33222   1.997   5.493   0.268 -0.6892  0.6399  1.8552
  252MOL0     H33223   1.858   5.448   0.174  0.7122 -0.6211 -1.6588
  252MOL0     H33224   2.079   5.656   0.095  2.4270 -3.5308  1.0834
  252MOL0     H33225   1.943   5.625  -0.009  0.2941 -1.6406 -0.3543
  252MOL0     H33226   1.806   5.425  -0.022  0.6633 -0.1630 -0.2938
  252MOL0     H33227   1.712   5.255  -0.182  1.2513 -2.3261 -1.1698
  252MOL0     H33228   1.492   4.994  -0.356 -0.2035  2.1663 -0.1484
  252MOL0     H33229   1.371   4.838  -0.513  0.8987 -1.7632  3.1742
  252MOL0     H33230   1.649   4.608  -0.723 -0.6257  0.6123  0.7201
  252MOL0     H33231   1.526   4.577  -0.844 -3.0926  2.5529 -0.1531
  252MOL0     H33232   1.483   4.539  -0.541 -1.6439  1.2233  0.7042
  252MOL0     H33233   1.494   4.407  -0.662  0.3957 -0.1513  0.8104
  252MOL0     H33234   1.294   4.464  -0.774 -1.3801 -0.7593  0.6046
  252MOL0     H33235   1.276   4.607  -0.667 -1.2124 -0.9382 -1.8916
  252MOL0     H33236   1.242   4.327  -0.613 -1.7999  0.3450 -1.1796
  252MOL0     H33237   1.314   4.426  -0.481  0.9675  0.3367 -0.4495
  252MOL0     H33238   1.109   4.562  -0.498  4.5614  0.3042 -0.9142
  252MOL0     H33239   1.060   4.394  -0.453 -0.6462 -2.0654 -1.3283
  252MOL0     H33240   0.987   4.334  -0.670 -2.6720 -0.5266  1.8317
  252MOL0     H33241   1.020   4.499  -0.733 -0.9031 -0.0291 -0.0161
  252MOL0     H33242   0.795   4.367  -0.625 -1.5830  0.3269  3.3677
  252MOL0     H33243   0.829   4.501  -0.512  0.5601  0.2832 -0.2163
  252MOL0     H33244   0.787   4.520  -0.810  2.8034  1.6359 -0.9785
  252MOL0     H33245   0.815   4.654  -0.698 -0.3963  0.4023  1.8579
  252MOL0     H33246   1.722   4.857  -0.768  2.1046  0.2287  0.1774
  252MOL0     H33247   1.834   4.980  -0.633 -0.9196 -0.0539 -2.6644
  252MOL0     H33248   2.106   5.119  -0.269 -0.4699 -1.6952 -0.7035
  252MOL0     H33249   2.201   5.288  -0.107  0.7916 -5.5656  5.6989
  252MOL0     H33250   0.779   5.619   0.178 -0.4083  0.1996  1.4231
  252MOL0     H33251   0.536   5.641   0.177  0.9271 -0.2865  1.7191
  252MOL0     H33252   0.077   5.718   0.315  1.3854  1.7524  0.5125
  252MOL0     H33253  -0.155   5.764   0.255  0.0263 -1.6694 -0.6680
  252MOL0     H33254  -0.347   5.852   0.205 -1.3997  0.7276 -0.8081
  252MOL0     H33255  -0.341   5.738   0.068  0.6135 -1.7307  2.8875
  252MOL0     H33256  -0.555   5.853   0.113  0.4910 -1.7911 -0.4302
  252MOL0     H33257  -0.490   6.003   0.077  1.2741 -0.6229  2.8547
  252MOL0     H33258  -0.519   5.764  -0.122  1.2670 -0.5193  1.6124
  252MOL0     H33259  -0.429   5.910  -0.167  1.2810  1.7074  2.5933
  252MOL0     H33260  -0.644   6.046  -0.140 -0.6889 -0.8097 -0.4878
  252MOL0     H33261  -0.641   5.932  -0.259 -1.6539  0.1300 -0.4404
  252MOL0     H33262  -0.961   5.796  -0.019 -0.6352  0.6751  0.7313
  252MOL0     H33263  -0.025   5.990  -0.082 -1.5645  0.8638  1.2757
  252MOL0     H33264   0.216   5.945  -0.027 -3.5850  0.7167 -2.7989
  253MOL0     O33265   9.071   8.347   8.031 -0.3506 -0.4231 -0.8512
  253MOL0     C33266   9.001   8.245   8.041 -0.5364 -0.0219  0.0156
  253MOL0     O33267   9.047   8.118   8.043 -0.1738  0.2013  1.0507
  253MOL0     C33268   9.181   8.093   8.038 -0.0147  0.1266  0.3382
  253MOL0     C33269   9.224   7.976   8.111  0.9741  0.0607 -0.8407
  253MOL0     C33270   9.352   7.924   8.101  0.5493 -0.7111 -0.0478
  253MOL0     C33271   9.447   7.983   8.026  0.4159  1.0199 -0.5646
  253MOL0     O33272   9.566   7.917   8.025  0.1315  0.9771  0.0391
  253MOL0     C33273   9.675   7.988   7.963 -0.3355  0.1308  0.0075
  253MOL0     C33274   9.796   7.909   8.014  0.1522  0.6830  0.0546
  253MOL0     C33275   9.927   7.972   7.964  0.3703  0.2452  0.0042
  253MOL0     C33276  10.049   7.886   7.950 -0.1242  0.4810  0.0471
  253MOL0     C33277  10.176   7.953   7.880  0.1480 -0.7915  0.5033
  253MOL0     C33278  10.216   8.087   7.957  0.2654 -0.0502 -0.2410
  253MOL0     C33279  10.337   8.159   7.904  0.1699  1.0448  0.2497
  253MOL0     C33280  10.465   8.071   7.908 -0.1115 -0.0481  0.4525
  253MOL0     N33281  10.486   8.024   8.052  0.1260 -0.3749  0.9104
  253MOL0     C33282  10.497   8.101   8.164  0.4526 -0.3653  0.3450
  253MOL0     C33283  10.576   8.030   8.250  0.1708 -0.6502  0.7107
  253MOL0     C33284  10.604   8.095   8.389 -0.4414  0.6264  0.6487
  253MOL0     C33285  10.747   8.169   8.387 -0.1323  0.7881  0.5333
  253MOL0     C33286  10.867   8.077   8.404 -0.3451 -0.6829 -0.0237
  253MOL0     C33287  10.994   8.151   8.430 -1.1253  0.6692  0.8443
  253MOL0     O33288  11.018   8.254   8.330  0.3894  0.4499 -0.4529
  253MOL0     C33289  11.141   8.316   8.310  0.0256  0.2890  0.3472
  253MOL0     C33290  11.253   8.292   8.388  0.4518 -0.1228 -0.0172
  253MOL0     C33291  11.373   8.347   8.361 -0.2090 -0.3935 -0.1318
  253MOL0     C33292  11.378   8.427   8.244 -0.1855 -1.4240  0.4106
  253MOL0     C33293  11.513   8.483   8.212 -0.6569  0.0803  0.8722
  253MOL0     O33294  11.524   8.534   8.087 -0.0464  0.8909 -0.0416
  253MOL0     C33295  11.647   8.583   8.055  0.4346 -0.3139  0.3254
  253MOL0     C33296  11.674   8.721   8.065  0.6288 -0.2071 -1.1806
  253MOL0     C33297  11.788   8.777   8.015 -0.8028 -0.9924  0.2835
  253MOL0     C33298  11.887   8.686   7.967  0.3877 -0.0520  0.4435
  253MOL0     O33299  11.999   8.747   7.932  0.4684  0.9236  0.2912
  253MOL0     C33300  12.129   8.689   7.944  0.6629 -0.0324  0.8688
  253MOL0     C33301  12.196   8.724   8.076  0.5314 -0.4182  0.4488
  253MOL0     C33302  12.329   8.797   8.062  0.8848 -0.0424  0.2565
  253MOL0     C33303  12.438   8.695   8.021  0.5987 -1.3647  0.3727
  253MOL0     C33304  12.579   8.757   8.013 -0.9350 -0.6815 -0.0368
  253MOL0     C33305  12.676   8.661   7.949  0.8010  0.3866  0.1076
  253MOL0     C33306  12.805   8.729   7.922  0.3571 -0.4416 -0.4873
  253MOL0     C33307  12.899   8.640   7.850 -0.7192 -0.0526  0.5661
  253MOL0    Cl33308  13.073   8.708   7.848 -0.2480  0.2060  0.0629
  253MOL0     C33309  11.867   8.551   7.953 -0.0340  0.2835 -0.0965
  253MOL0     C33310  11.740   8.502   7.989  0.5063 -0.1577 -0.1417
  253MOL0     O33311  11.608   8.458   8.285 -0.3317 -0.7331  0.1548
  253MOL0     C33312  11.262   8.458   8.162 -0.3220  0.0047  0.1117
  253MOL0     C33313  11.140   8.403   8.201  0.6459  0.0662 -0.2958
  253MOL0     N33314  10.621   7.914   8.187  0.5972 -0.3605 -0.1562
  253MOL0     N33315  10.565   7.913   8.074 -0.1038  0.1670 -0.1121
  253MOL0     C33316   9.421   8.110   7.977  0.2116 -0.0902  0.0388
  253MOL0     C33317   9.288   8.158   7.976  0.7105  0.5781 -0.4817
  253MOL0     C33318   8.853   8.256   8.036 -0.6398  0.7430 -0.1261
  253MOL0     C33319   8.801   8.387   8.035 -0.2249  0.4211 -0.2896
  253MOL0     C33320   8.667   8.413   8.021  0.6480 -0.1634 -0.0932
  253MOL0     C33321   8.582   8.310   7.993  0.7911 -0.5948 -0.6877
  253MOL0     O33322   8.446   8.326   7.983 -0.1275  0.0142  0.0073
  253MOL0     C33323   8.392   8.445   8.039  0.7224 -0.5086  0.0229
  253MOL0     C33324   8.248   8.469   7.994  0.1382 -0.1818 -0.7489
  253MOL0     C33325   8.166   8.592   8.041 -0.4182 -0.3384  0.8520
  253MOL0     C33326   8.051   8.622   7.943 -0.6111  0.3641  0.0031
  253MOL0     C33327   7.971   8.504   7.921 -0.4795 -0.2448 -0.7587
  253MOL0     C33328   7.914   8.394   7.913  0.3878  0.4485  0.4016
  253MOL0     C33329   8.628   8.182   7.992 -0.1190  0.2591 -0.9127
  253MOL0     C33330   8.760   8.147   8.028  0.5202 -0.5064  0.0621
  253MOL0     H33331   9.142   7.923   8.157  3.0647 -3.0112 -0.3517
  253MOL0     H33332   9.354   7.825   8.145  0.4133 -0.1457  1.2718
  253MOL0     H33333   9.684   8.092   7.994 -2.9428 -0.0682  1.7289
  253MOL0     H33334   9.671   7.975   7.854  0.4365  0.9199 -0.1224
  253MOL0     H33335   9.780   7.806   7.982 -0.7312  0.0034  2.4966
  253MOL0     H33336   9.799   7.917   8.123 -1.6095  4.0752 -0.0052
  253MOL0     H33337   9.942   8.066   8.018 -1.2949  0.6335 -0.1249
  253MOL0     H33338   9.900   7.996   7.861 -2.2513  1.1328  0.7934
  253MOL0     H33339  10.072   7.849   8.050  1.6122 -1.8400 -1.0971
  253MOL0     H33340  10.024   7.791   7.901 -1.6906  1.7334 -1.7323
  253MOL0     H33341  10.151   7.969   7.775 -1.4453 -3.3821  0.3965
  253MOL0     H33342  10.262   7.885   7.886  1.1758  0.5205  1.1097
  253MOL0     H33343  10.234   8.061   8.062  2.7498  1.8237 -0.1226
  253MOL0     H33344  10.128   8.152   7.953 -0.6507 -1.2732 -0.5867
  253MOL0     H33345  10.321   8.196   7.803 -0.5309  0.1022 -0.0002
  253MOL0     H33346  10.365   8.249   7.960 -0.0596  0.6076  1.0764
  253MOL0     H33347  10.546   8.141   7.886 -1.6643  1.1460 -1.8964
  253MOL0     H33348  10.458   7.985   7.840 -3.8548  0.2382  0.3078
  253MOL0     H33349  10.452   8.199   8.179  1.9862  0.0697  2.4943
  253MOL0     H33350  10.604   8.019   8.467 -0.7708 -1.5877 -1.3871
  253MOL0     H33351  10.529   8.170   8.416  0.6118  1.1830  2.1774
  253MOL0     H33352  10.752   8.256   8.454  0.3390  2.1649 -1.1903
  253MOL0     H33353  10.755   8.202   8.283 -1.5009 -0.4987 -0.0121
  253MOL0     H33354  10.846   8.006   8.485 -1.5205 -3.2818 -2.4447
  253MOL0     H33355  10.881   8.022   8.310  3.0683  0.0212 -0.0568
  253MOL0     H33356  11.076   8.079   8.434 -2.9509 -1.5362  1.2030
  253MOL0     H33357  10.993   8.198   8.529  1.2471  1.2368  0.6591
  253MOL0     H33358  11.264   8.226   8.474  3.8253  2.3410  1.6463
  253MOL0     H33359  11.457   8.320   8.424  1.0318  0.5534 -1.3359
  253MOL0     H33360  11.597   8.774   8.120  1.1183  0.1569 -0.8425
  253MOL0     H33361  11.790   8.885   8.010 -0.3173 -1.0505 -1.2167
  253MOL0     H33362  12.188   8.733   7.862 -1.4957  1.9562  0.2691
  253MOL0     H33363  12.114   8.581   7.934 -0.3602  0.2387 -1.0766
  253MOL0     H33364  12.210   8.638   8.142  2.8052 -1.9937 -1.8948
  253MOL0     H33365  12.133   8.804   8.117 -0.9880 -1.7122  0.7008
  253MOL0     H33366  12.354   8.838   8.160  2.0951  2.0036 -0.8160
  253MOL0     H33367  12.318   8.877   7.988 -1.0521 -0.9708 -0.5240
  253MOL0     H33368  12.440   8.620   8.101 -2.0247 -0.8881  0.9920
  253MOL0     H33369  12.414   8.648   7.925 -3.7241  3.0492 -1.1271
  253MOL0     H33370  12.615   8.785   8.113 -3.8246 -0.7506  1.1173
  253MOL0     H33371  12.575   8.845   7.949 -0.3323 -1.2611 -0.8877
  253MOL0     H33372  12.627   8.635   7.855 -0.1305  0.8911  0.4417
  253MOL0     H33373  12.703   8.570   8.005 -2.9577 -0.4698  0.7829
  253MOL0     H33374  12.778   8.815   7.860  2.1106  0.4924 -0.0464
  253MOL0     H33375  12.850   8.764   8.016 -1.7731  0.6024  0.1966
  253MOL0     H33376  12.866   8.634   7.746 -0.0119  1.1774  0.2528
  253MOL0     H33377  12.910   8.540   7.894 -1.8779 -1.3685 -1.9345
  253MOL0     H33378  11.944   8.496   7.901  0.0603  2.5888 -2.6216
  253MOL0     H33379  11.718   8.397   7.979 -1.4083  0.4382 -4.2880
  253MOL0     H33380  11.258   8.504   8.064 -0.3253  0.1202  0.1649
  253MOL0     H33381  11.049   8.423   8.146 -0.3151  0.6158  1.4562
  253MOL0     H33382   9.495   8.176   7.933 -0.5643  1.1991  0.6005
  253MOL0     H33383   9.280   8.258   7.934 -0.0190  0.4971 -0.5511
  253MOL0     H33384   8.869   8.472   8.033  0.3806 -0.0028  1.0837
  253MOL0     H33385   8.639   8.518   8.024 -0.7136 -0.5226  1.0350
  253MOL0     H33386   8.446   8.538   8.017 -1.6913  2.0490  3.7080
  253MOL0     H33387   8.395   8.456   8.148 -2.6516 -0.8002  0.2474
  253MOL0     H33388   8.245   8.476   7.885 -2.6663  1.5560 -0.6572
  253MOL0     H33389   8.192   8.381   8.027  0.6832 -0.4506 -0.5244
  253MOL0     H33390   8.230   8.681   8.049  0.1448 -0.6180 -0.3383
  253MOL0     H33391   8.125   8.568   8.140  1.2359  1.2163  1.9927
  253MOL0     H33392   8.002   8.715   7.973  1.5525  2.0876 -1.4476
  253MOL0     H33393   8.090   8.641   7.842  0.9520  0.6530  0.6197
  253MOL0     H33394   7.879   8.294   7.898  1.9275  0.0186 -0.5155
  253MOL0     H33395   8.554   8.107   7.963 -0.5761 -0.0343  0.9141
  253MOL0     H33396   8.803   8.048   8.042  1.0051 -0.0936  1.7952
  254MOL0     O33397   4.031   5.587   2.972  0.6115 -0.0943  0.4165
  254MOL0     C33398   4.041   5.611   3.094 -0.2123  1.1757 -0.0395
  254MOL0     O33399   3.936   5.611   3.177 -0.1820  0.2133  0.2125
  254MOL0     C33400   3.806   5.617   3.129 -0.5307  0.2283 -0.4057
  254MOL0     C33401   3.715   5.543   3.199 -0.8066 -0.0230  0.3661
  254MOL0     C33402   3.578   5.534   3.161 -0.0917 -0.4411  1.1352
  254MOL0     C33403   3.522   5.601   3.046 -0.4301  0.8898 -0.2900
  254MOL0     O33404   3.388   5.596   3.003 -0.2119 -0.3109 -0.6515
  254MOL0     C33405   3.299   5.512   3.076  0.1177 -0.1114 -0.3858
  254MOL0     C33406   3.160   5.559   3.046  1.0353 -0.2534 -0.1406
  254MOL0     C33407   3.123   5.710   3.076  0.4233  0.4160 -0.3120
  254MOL0     C33408   3.153   5.749   3.222 -1.3276 -0.2995  0.2395
  254MOL0     C33409   3.104   5.886   3.272 -0.4681 -0.0572  0.2283
  254MOL0     C33410   2.950   5.886   3.298 -0.3252  0.5003 -0.2396
  254MOL0     C33411   2.889   6.025   3.310  0.0146  0.3407  0.4044
  254MOL0     C33412   2.749   6.028   3.380  0.5997 -0.1102  0.2746
  254MOL0     N33413   2.649   5.981   3.278  0.1827 -0.1141  0.3878
  254MOL0     C33414   2.601   5.856   3.270 -0.3957  0.1129  0.9597
  254MOL0     C33415   2.494   5.868   3.182 -0.1426 -0.3155  0.7177
  254MOL0     C33416   2.396   5.752   3.151  0.2435  0.3320 -0.2845
  254MOL0     C33417   2.289   5.732   3.257  0.2577 -0.8359 -0.4769
  254MOL0     C33418   2.176   5.845   3.250 -0.5692 -0.1969  0.4154
  254MOL0     C33419   2.082   5.831   3.375  0.0903 -0.5538 -0.4207
  254MOL0     O33420   2.002   5.716   3.342  0.2814  0.1197 -0.1186
  254MOL0     C33421   1.868   5.728   3.311 -0.1655  0.1564  0.0697
  254MOL0     C33422   1.790   5.609   3.318 -0.8208 -0.4787 -0.0343
  254MOL0     C33423   1.652   5.600   3.294  0.1974 -0.3699  1.8581
  254MOL0     C33424   1.594   5.715   3.236  0.3268  0.3344 -0.3922
  254MOL0     C33425   1.451   5.714   3.202  0.1791 -0.8616  0.2837
  254MOL0     O33426   1.389   5.595   3.217  0.1639  0.0771  0.0778
  254MOL0     C33427   1.258   5.586   3.171  0.3286  1.0616  0.7276
  254MOL0     C33428   1.221   5.496   3.068 -0.0816  0.0143 -0.5592
  254MOL0     C33429   1.089   5.488   3.032  0.5698  0.1240 -0.9667
  254MOL0     C33430   0.993   5.556   3.105  0.1564 -0.6394 -0.7692
  254MOL0     O33431   0.863   5.547   3.073  0.6635 -0.3771  0.7178
  254MOL0     C33432   0.756   5.586   3.162  0.1411  0.1556 -0.9847
  254MOL0     C33433   0.695   5.725   3.127  0.7432  0.0667 -0.4088
  254MOL0     C33434   0.599   5.776   3.234 -0.6982 -0.5242 -0.0902
  254MOL0     C33435   0.444   5.752   3.211  0.5901  0.8291 -0.3219
  254MOL0     C33436   0.362   5.785   3.333 -0.1053 -0.0100  0.1898
  254MOL0     C33437   0.341   5.940   3.351 -0.6807 -0.2294 -1.6921
  254MOL0     C33438   0.248   5.993   3.246 -0.4883  0.0286 -0.9762
  254MOL0     C33439   0.231   6.148   3.260 -0.2988  0.1067 -0.0281
  254MOL0    Cl33440   0.384   6.242   3.219  0.2462 -0.0262 -0.0632
  254MOL0     C33441   1.027   5.642   3.210  0.3405 -0.3591 -0.0927
  254MOL0     C33442   1.160   5.657   3.239 -0.8144 -0.4938  0.4639
  254MOL0     O33443   1.408   5.804   3.141 -0.0674 -0.9852  0.0534
  254MOL0     C33444   1.670   5.831   3.222 -0.4383 -0.4969  0.1032
  254MOL0     C33445   1.806   5.834   3.251 -0.1112 -0.0682  0.4925
  254MOL0     N33446   2.490   5.997   3.135 -0.1065  0.2193 -0.0303
  254MOL0     N33447   2.568   6.064   3.202 -0.0637 -0.0913 -0.2079
  254MOL0     C33448   3.619   5.677   2.979 -0.0782  0.0561 -0.4360
  254MOL0     C33449   3.756   5.696   3.019 -1.8991 -0.6133  0.0614
  254MOL0     C33450   4.177   5.625   3.145 -0.1609  0.5582 -0.1708
  254MOL0     C33451   4.284   5.641   3.062  0.4159  0.6431 -0.3162
  254MOL0     C33452   4.416   5.626   3.112  0.3025  0.8803 -0.7573
  254MOL0     C33453   4.438   5.601   3.249  0.6294 -0.0364  0.5889
  254MOL0     O33454   4.566   5.610   3.283 -0.1550 -0.5736 -0.0434
  254MOL0     C33455   4.595   5.611   3.421  0.1028  0.4087 -0.2556
  254MOL0     C33456   4.750   5.610   3.421  0.8704 -0.9602 -0.4688
  254MOL0     C33457   4.808   5.492   3.359 -0.3450 -0.5583  0.3379
  254MOL0     C33458   4.801   5.384   3.463 -0.7210 -0.8774  0.1521
  254MOL0     C33459   4.861   5.261   3.414 -0.2138 -0.2161 -0.2159
  254MOL0     C33460   4.918   5.157   3.391 -0.2478  1.0259 -0.6016
  254MOL0     C33461   4.323   5.596   3.331 -0.3602  0.9733 -0.0411
  254MOL0     C33462   4.199   5.605   3.279  0.6257 -0.8562 -0.6441
  254MOL0     H33463   3.744   5.489   3.288  0.1375  1.6247  1.1109
  254MOL0     H33464   3.522   5.467   3.226 -0.2691  0.0343  1.4813
  254MOL0     H33465   3.313   5.519   3.185  1.7925 -2.1675 -0.4064
  254MOL0     H33466   3.315   5.409   3.042  2.4234 -0.1856  0.7081
  254MOL0     H33467   3.082   5.499   3.096  0.5108  1.3275  1.0409
  254MOL0     H33468   3.140   5.546   2.939  2.3922  0.2803 -0.4692
  254MOL0     H33469   3.016   5.719   3.057 -0.2364 -2.0267  1.7338
  254MOL0     H33470   3.179   5.786   3.020 -1.0865  2.5462  0.9521
  254MOL0     H33471   3.134   5.677   3.302  2.2099 -0.4092  1.1258
  254MOL0     H33472   3.261   5.762   3.218 -1.4452  1.1475  1.0366
  254MOL0     H33473   3.129   5.968   3.204  3.0119 -1.9474 -1.0295
  254MOL0     H33474   3.153   5.911   3.367 -3.7730  2.5736  1.4521
  254MOL0     H33475   2.933   5.832   3.392 -0.1920  0.8872  0.0040
  254MOL0     H33476   2.896   5.836   3.217  0.8771 -2.6638  0.7159
  254MOL0     H33477   2.967   6.074   3.369 -0.0013  0.5938  0.2148
  254MOL0     H33478   2.874   6.067   3.210 -1.8139  0.9520  0.8878
  254MOL0     H33479   2.721   6.132   3.401  0.5725 -0.1083  0.2287
  254MOL0     H33480   2.752   5.965   3.469  2.9713 -1.0323 -0.3959
  254MOL0     H33481   2.639   5.777   3.333 -3.3021  0.3021  3.1815
  254MOL0     H33482   2.466   5.669   3.165 -1.0107 -0.3684  2.8053
  254MOL0     H33483   2.351   5.755   3.052 -2.2465  0.0195  0.7604
  254MOL0     H33484   2.339   5.729   3.354 -1.3699 -0.4478  0.4123
  254MOL0     H33485   2.250   5.630   3.244  2.4700 -1.7909 -0.1070
  254MOL0     H33486   2.225   5.943   3.262 -3.9162  1.6344  0.3231
  254MOL0     H33487   2.115   5.843   3.159 -0.4202  1.1279  0.2611
  254MOL0     H33488   2.024   5.924   3.375  0.5991 -0.2325 -0.0917
  254MOL0     H33489   2.138   5.811   3.467  0.2075  1.1969 -0.0884
  254MOL0     H33490   1.832   5.517   3.357  1.1879  0.9408  1.3597
  254MOL0     H33491   1.592   5.510   3.305 -0.3806  0.2256  4.2209
  254MOL0     H33492   1.301   5.436   3.027  0.1796 -0.3137  0.4148
  254MOL0     H33493   1.061   5.425   2.948 -1.9049 -1.7970  1.1261
  254MOL0     H33494   0.779   5.578   3.268 -0.6683 -1.9939 -0.9415
  254MOL0     H33495   0.683   5.508   3.141  2.0797 -1.3394 -2.6336
  254MOL0     H33496   0.632   5.717   3.038  1.0688 -0.7455 -0.5770
  254MOL0     H33497   0.782   5.790   3.121 -0.0119  1.2662  0.7675
  254MOL0     H33498   0.614   5.884   3.229  2.1313 -0.8724 -1.1200
  254MOL0     H33499   0.629   5.751   3.336  0.5450  2.0573  0.2514
  254MOL0     H33500   0.396   5.792   3.121 -1.5927 -1.7826 -0.4438
  254MOL0     H33501   0.426   5.645   3.197 -1.5750  1.2312 -0.9644
  254MOL0     H33502   0.422   5.744   3.414  2.5419  1.7761 -0.7092
  254MOL0     H33503   0.264   5.739   3.319 -0.5225  1.0582 -0.5447
  254MOL0     H33504   0.430   6.003   3.347 -1.2557  0.7885  0.2485
  254MOL0     H33505   0.311   5.951   3.455  4.0806 -0.7334 -0.0321
  254MOL0     H33506   0.287   5.969   3.147 -2.2913 -1.1855 -1.4322
  254MOL0     H33507   0.150   5.945   3.259  1.2435 -2.9292  3.7331
  254MOL0     H33508   0.201   6.150   3.366 -0.3551  1.0372 -0.0534
  254MOL0     H33509   0.148   6.183   3.199 -0.0447 -0.9451 -1.0183
  254MOL0     H33510   0.960   5.697   3.274  1.5055 -0.5880  1.3701
  254MOL0     H33511   1.193   5.723   3.319  0.2087 -1.1562  0.6062
  254MOL0     H33512   1.610   5.917   3.194  2.3294  1.5475  0.0273
  254MOL0     H33513   1.867   5.919   3.223 -0.6584  0.1979  0.0818
  254MOL0     H33514   3.590   5.743   2.897 -1.8449  3.6509  2.7325
  254MOL0     H33515   3.817   5.760   2.957  0.8519 -1.3831  1.8186
  254MOL0     H33516   4.277   5.642   2.954  0.1575 -0.9912 -0.3382
  254MOL0     H33517   4.487   5.605   3.033 -0.1924 -1.5889 -0.6135
  254MOL0     H33518   4.554   5.531   3.483 -2.2973 -0.3454 -2.6421
  254MOL0     H33519   4.556   5.708   3.452  1.3336  0.1246  2.4670
  254MOL0     H33520   4.789   5.697   3.366  1.5650 -0.2269  1.1006
  254MOL0     H33521   4.792   5.622   3.522  3.2038  0.0819 -1.4720
  254MOL0     H33522   4.913   5.507   3.334 -0.8439 -0.0188 -1.5940
  254MOL0     H33523   4.754   5.461   3.270 -1.1317 -1.7953  1.2143
  254MOL0     H33524   4.847   5.425   3.553 -0.3326  0.9688 -0.8373
  254MOL0     H33525   4.702   5.352   3.496 -1.7020  1.6094 -0.1315
  254MOL0     H33526   4.966   5.065   3.367  0.3281  0.4584  2.3537
  254MOL0     H33527   4.319   5.578   3.438  2.4865  0.0855  0.0043
  254MOL0     H33528   4.119   5.591   3.351  2.2519 -1.3912  1.1454
  255MOL0     O33529   7.979   4.368  10.117  0.1010  0.0316  0.2046
  255MOL0     C33530   8.032   4.260  10.102 -0.3025 -0.3185 -0.5670
  255MOL0     O33531   7.972   4.146  10.049 -0.3510 -0.3595  0.9159
  255MOL0     C33532   7.850   4.166   9.991 -1.2172 -0.3548  0.6377
  255MOL0     C33533   7.747   4.070  10.028  0.6389  0.4571  0.0535
  255MOL0     C33534   7.632   4.058   9.949  0.7109  0.4851 -0.5612
  255MOL0     C33535   7.611   4.150   9.843  0.3989 -0.0304  0.6092
  255MOL0     O33536   7.504   4.141   9.759 -0.2837 -0.1120 -0.4938
  255MOL0     C33537   7.434   4.021   9.743  0.3351 -0.0926  0.5920
  255MOL0     C33538   7.304   4.021   9.814 -0.6880 -0.1982  0.1861
  255MOL0     C33539   7.216   3.910   9.756  0.2216 -0.7661 -0.0410
  255MOL0     C33540   7.084   3.927   9.836  0.2078 -0.0365  0.7906
  255MOL0     C33541   6.971   3.827   9.796 -0.3522 -0.1686 -0.0856
  255MOL0     C33542   6.838   3.866   9.853  1.1960 -0.2576 -0.5230
  255MOL0     C33543   6.721   3.773   9.781 -0.7991 -0.0781  0.1678
  255MOL0     C33544   6.717   3.635   9.812 -0.0432 -0.3651  0.0152
  255MOL0     N33545   6.596   3.568   9.774  0.1216  0.3691  0.0993
  255MOL0     C33546   6.474   3.595   9.821  0.4236  0.3678 -0.2832
  255MOL0     C33547   6.391   3.511   9.748  0.6127  0.3213  0.0757
  255MOL0     C33548   6.245   3.496   9.772  0.3590  0.1035 -0.3450
  255MOL0     C33549   6.165   3.619   9.718 -0.0064 -0.0146  1.6718
  255MOL0     C33550   6.148   3.735   9.817 -0.0790 -0.9848  1.0016
  255MOL0     C33551   6.077   3.863   9.744 -1.1139 -1.3108 -0.6813
  255MOL0     O33552   5.944   3.824   9.717  0.4763  0.2541 -0.3946
  255MOL0     C33553   5.846   3.841   9.808 -0.4370  0.9571 -0.3655
  255MOL0     C33554   5.720   3.803   9.763 -0.0122 -1.0515 -0.7419
  255MOL0     C33555   5.606   3.837   9.832 -0.6913  0.1956  0.1135
  255MOL0     C33556   5.609   3.894   9.962  0.7199  0.4130  0.5231
  255MOL0     C33557   5.485   3.904  10.049 -0.3444  0.5994 -0.3567
  255MOL0     O33558   5.358   3.884  10.006  1.0151  0.8927 -0.0603
  255MOL0     C33559   5.250   3.939  10.066 -1.4071  0.6170 -0.1455
  255MOL0     C33560   5.202   3.897  10.185 -0.3655 -0.3153 -0.8370
  255MOL0     C33561   5.081   3.954  10.240 -0.1075 -0.3062 -0.2600
  255MOL0     C33562   5.019   4.057  10.176 -0.1845 -0.0441 -0.1209
  255MOL0     O33563   4.903   4.111  10.231  0.2181 -0.3776 -0.1958
  255MOL0     C33564   4.909   4.147  10.369 -0.4330  0.5104  0.7277
  255MOL0     C33565   4.826   4.274  10.386  0.3387 -0.3886 -0.4549
  255MOL0     C33566   4.678   4.223  10.397 -0.5978 -0.1005  0.4317
  255MOL0     C33567   4.592   4.343  10.389 -0.4608 -0.1059  0.0442
  255MOL0     C33568   4.454   4.287  10.369  0.0980  0.0247 -1.2681
  255MOL0     C33569   4.349   4.409  10.383  0.7658  0.1108 -0.4004
  255MOL0     C33570   4.335   4.459  10.532 -0.2253  0.3540  0.3186
  255MOL0     C33571   4.250   4.578  10.559  0.2506 -0.0185  0.0724
  255MOL0    Cl33572   4.090   4.536  10.488 -0.2210 -0.0530  0.3875
  255MOL0     C33573   5.072   4.105  10.058  0.3130  0.0605 -0.0072
  255MOL0     C33574   5.187   4.050  10.004 -0.2281  0.2629  0.3534
  255MOL0     O33575   5.516   3.938  10.164 -0.4350 -0.0609 -0.0271
  255MOL0     C33576   5.733   3.927  10.019  0.3673  0.4163  0.4522
  255MOL0     C33577   5.852   3.899   9.941  0.5358  0.3121  0.5566
  255MOL0     N33578   6.475   3.453   9.652 -0.2647  0.4249  0.1092
  255MOL0     N33579   6.598   3.490   9.669  0.4117 -0.3695  0.5300
  255MOL0     C33580   7.718   4.229   9.800 -0.4147  0.2538  0.2938
  255MOL0     C33581   7.832   4.248   9.876 -0.4241  0.2204 -0.0232
  255MOL0     C33582   8.169   4.235  10.130 -0.2255 -0.3219  0.1914
  255MOL0     C33583   8.242   4.339  10.190 -0.2794  0.7929  0.0439
  255MOL0     C33584   8.378   4.333  10.203 -0.8938  0.1833  0.0031
  255MOL0     C33585   8.451   4.216  10.167  1.4643 -0.0778 -0.1099
  255MOL0     O33586   8.587   4.208  10.192  0.3099 -0.8665  0.1378
  255MOL0     C33587   8.645   4.119  10.289  0.1468 -1.0741  0.3759
  255MOL0     C33588   8.766   4.179  10.357 -0.4730 -0.1257 -0.2199
  255MOL0     C33589   8.815   4.097  10.464 -0.0230 -0.0545 -0.3247
  255MOL0     C33590   8.959   4.143  10.503 -0.3641 -0.3374  0.4329
  255MOL0     C33591   8.986   4.117  10.642 -0.4737 -0.0627  0.2911
  255MOL0     C33592   9.031   4.110  10.751 -0.6428 -0.0700  0.1351
  255MOL0     C33593   8.377   4.109  10.112  0.3309 -0.8998 -0.2076
  255MOL0     C33594   8.236   4.122  10.090 -0.1566  0.3033 -1.0672
  255MOL0     H33595   7.767   4.007  10.114  1.6661 -0.0203 -0.5100
  255MOL0     H33596   7.575   3.970   9.976  0.1619  0.1318 -2.7073
  255MOL0     H33597   7.492   3.931   9.768  3.0390  0.5963 -2.5157
  255MOL0     H33598   7.402   4.024   9.639 -0.6304  1.3875  0.9000
  255MOL0     H33599   7.251   4.114   9.794  1.9853  1.2769 -0.5486
  255MOL0     H33600   7.318   4.003   9.921  2.3419 -1.0697 -0.2575
  255MOL0     H33601   7.261   3.811   9.772  0.1387 -0.6346  1.1125
  255MOL0     H33602   7.199   3.926   9.650  1.1359  1.7707  0.1329
  255MOL0     H33603   7.106   3.901   9.940  0.7575 -1.9913  0.2312
  255MOL0     H33604   7.047   4.028   9.818 -1.5027 -0.8411 -0.4675
  255MOL0     H33605   6.997   3.729   9.835  1.9802  0.6801  0.6595
  255MOL0     H33606   6.963   3.825   9.687  0.4649  1.3395 -0.2084
  255MOL0     H33607   6.811   3.972   9.847 -0.8056 -0.6385  0.6250
  255MOL0     H33608   6.836   3.830   9.956 -2.1826 -1.0387 -0.7262
  255MOL0     H33609   6.630   3.811   9.828  0.0153  0.0587  1.7125
  255MOL0     H33610   6.718   3.791   9.673  0.2545 -4.9326 -0.8909
  255MOL0     H33611   6.744   3.632   9.918  0.1658  0.9215  0.0187
  255MOL0     H33612   6.801   3.577   9.773 -1.3782 -2.4083  0.0693
  255MOL0     H33613   6.432   3.662   9.895  0.4561  0.6037 -0.4778
  255MOL0     H33614   6.228   3.476   9.878 -2.5641 -2.9741 -1.2148
  255MOL0     H33615   6.203   3.408   9.724  2.2726 -1.2268  0.2930
  255MOL0     H33616   6.066   3.585   9.689  0.1512 -0.8891  2.1285
  255MOL0     H33617   6.212   3.654   9.626 -4.2771  1.2425 -0.2392
  255MOL0     H33618   6.089   3.699   9.902 -1.8077 -2.3116 -0.6720
  255MOL0     H33619   6.252   3.760   9.841  0.1819  0.7471 -1.5189
  255MOL0     H33620   6.126   3.880   9.648 -1.4094  1.9843 -0.3562
  255MOL0     H33621   6.078   3.957   9.800 -3.3303 -1.1774 -0.7885
  255MOL0     H33622   5.709   3.741   9.675  0.2382 -3.2071  0.6664
  255MOL0     H33623   5.511   3.815   9.783  0.0658  0.2803 -1.4759
  255MOL0     H33624   5.248   3.808  10.225  0.0814 -0.2719 -1.2462
  255MOL0     H33625   5.044   3.922  10.337 -0.8858  1.6736  0.1406
  255MOL0     H33626   5.012   4.165  10.401 -0.6791  0.6933  1.4429
  255MOL0     H33627   4.874   4.062  10.428  1.4415 -1.7406 -1.1803
  255MOL0     H33628   4.831   4.337  10.297  1.2300 -0.5198 -0.5120
  255MOL0     H33629   4.868   4.337  10.465 -1.6069  3.2326 -2.0838
  255MOL0     H33630   4.658   4.162  10.485  2.5413 -2.5873 -0.3934
  255MOL0     H33631   4.662   4.157  10.312 -0.4834 -0.4001  0.6434
  255MOL0     H33632   4.601   4.387  10.489 -3.2559  2.4992 -0.6949
  255MOL0     H33633   4.619   4.411  10.308 -0.3900 -1.1370 -0.8326
  255MOL0     H33634   4.421   4.218  10.447 -0.5000  1.8961  0.2287
  255MOL0     H33635   4.449   4.245  10.269  0.9269  0.5372 -1.5402
  255MOL0     H33636   4.248   4.379  10.352 -0.0564  1.3641  0.9684
  255MOL0     H33637   4.381   4.489  10.316  1.6060 -0.0549 -0.2101
  255MOL0     H33638   4.292   4.375  10.589  2.7020 -1.1389  0.4779
  255MOL0     H33639   4.435   4.478  10.572 -0.5693  0.3510  1.2058
  255MOL0     H33640   4.294   4.668  10.515 -1.6356  0.2051 -1.4564
  255MOL0     H33641   4.245   4.592  10.668 -0.3990  0.7686 -0.0494
  255MOL0     H33642   5.035   4.195  10.011 -0.5867 -0.3479 -0.1130
  255MOL0     H33643   5.236   4.089   9.915  2.1026 -0.7080  1.1185
  255MOL0     H33644   5.747   3.969  10.118  1.1674 -0.8646  0.9043
  255MOL0     H33645   5.948   3.921   9.986 -0.1983  0.9244  1.8826
  255MOL0     H33646   7.714   4.282   9.705  0.1199 -1.4968 -0.7567
  255MOL0     H33647   7.910   4.320   9.851 -0.7925  0.9647  0.8784
  255MOL0     H33648   8.188   4.411  10.251 -1.3261 -1.4792  1.9786
  255MOL0     H33649   8.442   4.404  10.255 -0.0560 -0.2873 -0.3598
  255MOL0     H33650   8.660   4.026  10.233 -0.4471 -0.5863 -0.6336
  255MOL0     H33651   8.562   4.104  10.358 -0.4363 -1.1514 -0.3294
  255MOL0     H33652   8.841   4.188  10.278  3.0073  0.1804  2.8749
  255MOL0     H33653   8.750   4.282  10.388 -0.3236  0.0016 -0.5616
  255MOL0     H33654   8.811   3.993  10.430 -0.7967  0.0968 -0.7274
  255MOL0     H33655   8.745   4.110  10.547 -1.6568 -3.5760 -0.9533
  255MOL0     H33656   9.037   4.103  10.437 -0.4931  0.7451 -0.3940
  255MOL0     H33657   8.958   4.252  10.504  0.1017 -0.2934  2.7908
  255MOL0     H33658   9.061   4.115  10.854 -1.2849  2.0961  0.2591
  255MOL0     H33659   8.439   4.026  10.080  1.9587  0.3415 -0.4060
  255MOL0     H33660   8.185   4.046  10.031 -0.8349 -0.0555 -0.0431
  256MOL0     O33661   3.054   1.776   3.489 -0.2539  0.0236 -0.1656
  256MOL0     C33662   3.040   1.823   3.377 -0.7990 -0.2203  0.4934
  256MOL0     O33663   2.922   1.873   3.327  0.3618  0.4785  0.2794
  256MOL0     C33664   2.807   1.863   3.396  0.1047 -0.3867  0.2757
  256MOL0     C33665   2.723   1.972   3.385 -0.2790  0.1540 -0.8437
  256MOL0     C33666   2.604   1.984   3.451 -0.5941 -0.4580 -0.5934
  256MOL0     C33667   2.558   1.873   3.522 -0.6775  0.1470  0.2759
  256MOL0     O33668   2.440   1.883   3.584  0.8701 -0.7619  0.4895
  256MOL0     C33669   2.351   1.766   3.578  0.8447  0.0811  0.6381
  256MOL0     C33670   2.225   1.790   3.661  0.1481 -0.1164 -0.1370
  256MOL0     C33671   2.129   1.894   3.591  0.4339  0.3082  0.1281
  256MOL0     C33672   1.988   1.914   3.643  0.3878  0.0090 -0.7901
  256MOL0     C33673   1.913   2.036   3.569 -0.9315 -0.1702  0.3471
  256MOL0     C33674   1.969   2.179   3.597 -0.4792 -0.8621  0.4577
  256MOL0     C33675   1.890   2.282   3.509 -0.0267 -0.2520  0.7497
  256MOL0     C33676   1.746   2.319   3.555 -0.3185 -0.2670  0.2730
  256MOL0     N33677   1.735   2.419   3.667 -0.0836 -0.1657 -0.0743
  256MOL0     C33678   1.682   2.384   3.791 -0.9323  0.5992 -0.0303
  256MOL0     C33679   1.682   2.498   3.863  0.1207 -0.2319  0.3234
  256MOL0     C33680   1.617   2.525   3.996 -0.1912  0.4561 -0.4691
  256MOL0     C33681   1.501   2.624   3.983  0.0089 -0.1946 -0.2529
  256MOL0     C33682   1.379   2.578   3.892  0.2318  0.0543  0.0724
  256MOL0     C33683   1.274   2.685   3.904 -0.0196 -1.0493  0.6487
  256MOL0     O33684   1.232   2.693   4.042 -0.2868  0.0463 -0.5011
  256MOL0     C33685   1.129   2.766   4.070  0.2757 -0.4760  0.1151
  256MOL0     C33686   1.077   2.865   3.982 -0.6851  0.1727  0.0369
  256MOL0     C33687   0.976   2.954   4.021  1.0984  0.5844 -0.0088
  256MOL0     C33688   0.920   2.937   4.151 -0.2286  0.9706  0.1681
  256MOL0     C33689   0.812   3.016   4.199  0.8648  1.0142  0.7182
  256MOL0     O33690   0.766   2.984   4.324  0.9420  0.2235  0.4221
  256MOL0     C33691   0.640   3.032   4.346  0.8349 -0.2752  0.2349
  256MOL0     C33692   0.629   3.154   4.416  0.3780 -0.5576  0.1240
  256MOL0     C33693   0.501   3.210   4.439  0.6979 -0.7268 -0.8950
  256MOL0     C33694   0.383   3.151   4.392 -0.2419 -0.3527  0.7508
  256MOL0     O33695   0.270   3.225   4.415  0.1100  0.5838 -0.1403
  256MOL0     C33696   0.150   3.195   4.335  0.0910 -0.4564  0.3042
  256MOL0     C33697   0.055   3.099   4.401  0.8443  0.9891  0.9970
  256MOL0     C33698  -0.088   3.112   4.337  0.2110  1.1753  0.0174
  256MOL0     C33699  -0.157   3.242   4.381  1.0179 -0.0714 -0.3879
  256MOL0     C33700  -0.297   3.248   4.323  0.3754 -0.9162  0.3769
  256MOL0     C33701  -0.368   3.385   4.341 -1.0814  0.5123 -0.3976
  256MOL0     C33702  -0.521   3.378   4.311 -0.4311  0.1565  0.0431
  256MOL0     C33703  -0.566   3.505   4.235  0.8634 -0.2126  0.1637
  256MOL0    Cl33704  -0.744   3.495   4.232  0.5050  0.0252 -0.1189
  256MOL0     C33705   0.396   3.032   4.325  0.2837  0.1964  0.0202
  256MOL0     C33706   0.518   2.970   4.308 -0.0569  0.9222  1.2081
  256MOL0     O33707   0.771   3.105   4.125  0.2531  0.4271  0.3507
  256MOL0     C33708   0.982   2.840   4.239  0.2298  1.1190  0.6578
  256MOL0     C33709   1.084   2.756   4.196 -0.5114 -0.1734 -1.0163
  256MOL0     N33710   1.725   2.600   3.775  0.0242 -0.2728 -0.0726
  256MOL0     N33711   1.756   2.548   3.655  0.3291  0.8263 -0.3078
  256MOL0     C33712   2.632   1.751   3.537 -0.9061  0.6231  0.1749
  256MOL0     C33713   2.761   1.753   3.478 -0.7072 -0.7159  0.8309
  256MOL0     C33714   3.155   1.837   3.290  0.1662 -1.1333  0.2531
  256MOL0     C33715   3.291   1.811   3.339  0.1719 -0.4242  0.1119
  256MOL0     C33716   3.404   1.825   3.254 -0.1109  0.1594  0.6095
  256MOL0     C33717   3.384   1.864   3.120  0.0246 -0.4402  0.1833
  256MOL0     O33718   3.486   1.884   3.028  0.0933 -0.3708 -0.4052
  256MOL0     C33719   3.615   1.941   3.076 -0.3284 -0.0654 -0.0324
  256MOL0     C33720   3.707   1.970   2.961 -0.0295 -0.5241  0.5330
  256MOL0     C33721   3.740   1.856   2.864  0.8118 -0.0266  0.6097
  256MOL0     C33722   3.861   1.888   2.778  0.2164 -0.3490  0.1927
  256MOL0     C33723   3.892   1.773   2.692 -0.2052 -0.5080  0.0154
  256MOL0     C33724   3.912   1.678   2.625  0.4756 -0.1095  0.5691
  256MOL0     C33725   3.247   1.879   3.078  0.0052 -0.7243 -0.1576
  256MOL0     C33726   3.136   1.877   3.159  0.0068 -0.0005 -0.5284
  256MOL0     H33727   2.741   2.065   3.331  3.0086  0.8365  1.1566
  256MOL0     H33728   2.535   2.068   3.458 -1.2026 -1.1031  2.8216
  256MOL0     H33729   2.405   1.681   3.620  0.1447 -1.1052 -0.7724
  256MOL0     H33730   2.326   1.742   3.474 -1.9094  1.2961  0.9424
  256MOL0     H33731   2.249   1.833   3.758 -1.2127 -0.5193  0.4160
  256MOL0     H33732   2.174   1.693   3.670  2.8248 -1.6567 -0.5128
  256MOL0     H33733   2.117   1.856   3.489  0.2983  0.1110  0.2150
  256MOL0     H33734   2.174   1.993   3.589 -1.1149  1.0397 -0.8280
  256MOL0     H33735   1.928   1.823   3.632  0.8386 -0.3024 -0.6682
  256MOL0     H33736   1.996   1.929   3.751  4.6372 -0.9252 -0.8196
  256MOL0     H33737   1.812   2.054   3.605 -0.7060  3.1749 -0.3645
  256MOL0     H33738   1.907   2.008   3.464  0.4486  1.3127 -0.1786
  256MOL0     H33739   2.070   2.200   3.561 -0.1984 -3.6096 -0.5281
  256MOL0     H33740   1.958   2.194   3.705  0.0102  0.7388  0.3265
  256MOL0     H33741   1.950   2.372   3.522 -1.6459  0.8289  1.0587
  256MOL0     H33742   1.893   2.246   3.405  2.0883  0.5331  0.4915
  256MOL0     H33743   1.700   2.222   3.575 -1.1004  0.1893  0.7060
  256MOL0     H33744   1.695   2.359   3.467 -2.1291  0.8029  1.7487
  256MOL0     H33745   1.648   2.289   3.833 -0.4685 -0.7336 -2.4706
  256MOL0     H33746   1.693   2.570   4.062  0.3588 -0.1998 -0.6502
  256MOL0     H33747   1.600   2.426   4.040 -0.1384 -0.4592 -2.4221
  256MOL0     H33748   1.552   2.708   3.936 -0.9257 -0.7796 -2.4137
  256MOL0     H33749   1.468   2.647   4.085  0.6532 -0.1251 -0.0550
  256MOL0     H33750   1.410   2.570   3.788  2.5827  1.0792  0.6256
  256MOL0     H33751   1.327   2.489   3.929 -0.4773  0.2495 -0.4265
  256MOL0     H33752   1.197   2.665   3.829 -1.0110 -1.8317  1.8373
  256MOL0     H33753   1.321   2.783   3.886  0.7403 -1.5982 -0.4575
  256MOL0     H33754   1.115   2.869   3.881 -0.8648 -2.2915 -0.1821
  256MOL0     H33755   0.932   3.026   3.953 -1.8521 -0.2219  0.8863
  256MOL0     H33756   0.719   3.213   4.435  2.0266 -2.1483 -2.1102
  256MOL0     H33757   0.488   3.306   4.488 -0.3647  1.1698 -4.5159
  256MOL0     H33758   0.164   3.168   4.229  1.1125 -0.6590  0.4794
  256MOL0     H33759   0.104   3.292   4.313  3.0409  1.1258  0.5431
  256MOL0     H33760   0.053   3.123   4.507  0.5115  2.6609  0.6270
  256MOL0     H33761   0.090   2.999   4.373 -1.2180  0.4335  0.2333
  256MOL0     H33762  -0.147   3.032   4.384  1.3548  1.9983  3.1085
  256MOL0     H33763  -0.087   3.107   4.228 -0.2454 -1.1352  0.0624
  256MOL0     H33764  -0.172   3.244   4.489 -2.5254  3.2758 -0.7085
  256MOL0     H33765  -0.105   3.334   4.353  0.2934  1.4493  2.7995
  256MOL0     H33766  -0.366   3.192   4.387 -0.1808  1.2225  1.7500
  256MOL0     H33767  -0.295   3.211   4.220  0.7190 -1.4141  0.5546
  256MOL0     H33768  -0.327   3.464   4.277 -2.5971  0.3382 -1.6482
  256MOL0     H33769  -0.352   3.408   4.447  0.1352 -0.8381 -0.2564
  256MOL0     H33770  -0.543   3.287   4.254  0.9015 -0.3651  0.3198
  256MOL0     H33771  -0.581   3.366   4.402 -0.4979  2.9709  0.4490
  256MOL0     H33772  -0.525   3.516   4.135 -0.6411 -0.3825 -0.4986
  256MOL0     H33773  -0.531   3.592   4.292 -0.1513 -0.2809  0.9157
  256MOL0     H33774   0.305   2.993   4.280 -0.8051  1.8211  0.7212
  256MOL0     H33775   0.527   2.868   4.272  3.2367  0.4974  2.9231
  256MOL0     H33776   0.933   2.832   4.336  0.6739 -0.4320  0.7795
  256MOL0     H33777   1.116   2.687   4.273 -3.5121  0.6392  1.1483
  256MOL0     H33778   2.619   1.656   3.588  3.0950 -1.6342 -2.4549
  256MOL0     H33779   2.823   1.664   3.478  0.2884 -0.0959 -1.0607
  256MOL0     H33780   3.295   1.788   3.445  2.6923 -1.0743 -0.0590
  256MOL0     H33781   3.508   1.818   3.284  0.0449  1.2589  0.3921
  256MOL0     H33782   3.682   1.873   3.130  3.0825  1.2448 -2.2393
  256MOL0     H33783   3.603   2.025   3.144 -4.2773  0.5474 -1.2206
  256MOL0     H33784   3.661   2.052   2.903 -2.7527 -2.7392 -0.6982
  256MOL0     H33785   3.794   2.018   3.005  1.0563  0.1915 -2.2138
  256MOL0     H33786   3.653   1.837   2.801  1.8187  1.5857 -1.3640
  256MOL0     H33787   3.753   1.763   2.920 -1.0617 -0.4044  0.5010
  256MOL0     H33788   3.845   1.984   2.728  0.4504 -1.1757 -1.5236
  256MOL0     H33789   3.945   1.898   2.848 -0.7634  2.1809  1.1336
  256MOL0     H33790   3.935   1.612   2.544 -1.3653  0.6618 -0.6222
  256MOL0     H33791   3.239   1.903   2.973 -4.2275 -1.4546 -0.1926
  256MOL0     H33792   3.038   1.901   3.120 -0.2206  3.1478  1.5945
  257MOL0     O33793   5.520   0.775   8.197  0.1521  0.1220  0.6045
  257MOL0     C33794   5.537   0.883   8.249 -0.7239 -0.1063  0.2698
  257MOL0     O33795   5.445   0.967   8.302  1.1245 -0.5598  0.5553
  257MOL0     C33796   5.307   0.952   8.284 -1.3355 -0.3840 -0.1003
  257MOL0     C33797   5.250   0.927   8.158 -0.2275  0.2240  0.7960
  257MOL0     C33798   5.112   0.917   8.138  0.0032 -0.4348 -0.1449
  257MOL0     C33799   5.027   0.920   8.253  0.2815  0.1267  0.3443
  257MOL0     O33800   4.892   0.895   8.227  0.2769  0.1823  0.3919
  257MOL0     C33801   4.812   0.830   8.326 -0.2581  0.3439 -0.0385
  257MOL0     C33802   4.690   0.779   8.256  0.3977  0.5404 -0.7431
  257MOL0     C33803   4.721   0.670   8.151 -0.1213  0.0907 -1.1851
  257MOL0     C33804   4.590   0.655   8.076  0.9502 -0.7776 -0.1044
  257MOL0     C33805   4.584   0.534   7.981  0.7822 -0.0286 -0.2645
  257MOL0     C33806   4.484   0.544   7.853 -0.3425  0.4967  0.5701
  257MOL0     C33807   4.335   0.537   7.885 -0.5612  0.6157  0.0162
  257MOL0     C33808   4.249   0.553   7.761  0.3106  0.5735  0.2485
  257MOL0     N33809   4.106   0.577   7.794 -0.1679 -0.4105  0.4227
  257MOL0     C33810   4.012   0.489   7.840 -0.0266  0.8218 -0.2238
  257MOL0     C33811   3.896   0.551   7.843  0.3474 -1.1346  0.0422
  257MOL0     C33812   3.765   0.516   7.908 -1.3180 -0.2433 -1.2059
  257MOL0     C33813   3.649   0.571   7.837  1.0316 -0.3313  0.1752
  257MOL0     C33814   3.509   0.530   7.900 -0.0596 -0.5525 -0.0687
  257MOL0     C33815   3.382   0.544   7.810  0.7915  1.1764  0.9865
  257MOL0     O33816   3.277   0.532   7.901 -0.3947  0.0032 -0.5261
  257MOL0     C33817   3.158   0.479   7.871  0.1668  0.4362  0.1124
  257MOL0     C33818   3.077   0.462   7.978  0.3121  0.4821 -0.1629
  257MOL0     C33819   2.945   0.420   7.969  0.2104  0.4933 -0.2521
  257MOL0     C33820   2.883   0.392   7.847  0.2445 -0.3221 -0.1241
  257MOL0     C33821   2.738   0.361   7.844  0.3378  0.0655  0.0885
  257MOL0     O33822   2.670   0.329   7.954  0.6459 -0.4061  0.2209
  257MOL0     C33823   2.545   0.296   7.955  0.1672 -0.4405  0.3194
  257MOL0     C33824   2.489   0.194   7.877  0.2588  0.2710 -0.0977
  257MOL0     C33825   2.356   0.152   7.899 -0.3792 -0.1305  0.4406
  257MOL0     C33826   2.272   0.215   7.984  0.1362  0.3613  0.3602
  257MOL0     O33827   2.139   0.171   7.996  0.1413  0.0472 -0.4561
  257MOL0     C33828   2.038   0.241   8.079 -0.6205 -0.1361 -0.0565
  257MOL0     C33829   1.914   0.158   8.077 -0.3008  0.0313  0.2405
  257MOL0     C33830   1.830   0.176   7.954  0.5958 -0.2422  0.5725
  257MOL0     C33831   1.728   0.061   7.939 -0.6064 -0.2764 -1.3940
  257MOL0     C33832   1.639   0.046   8.060 -0.8466 -0.1392  0.4572
  257MOL0     C33833   1.535   0.162   8.069  0.6715 -0.1814 -0.6289
  257MOL0     C33834   1.454   0.204   7.949  0.1960 -0.7626 -0.6013
  257MOL0     C33835   1.385   0.081   7.885 -0.6247  0.2632  0.2701
  257MOL0    Cl33836   1.255   0.037   8.000  0.0083  0.2046  0.4263
  257MOL0     C33837   2.325   0.330   8.052 -0.6463  0.0034  0.5623
  257MOL0     C33838   2.457   0.367   8.042  0.2975 -0.5859 -0.0052
  257MOL0     O33839   2.688   0.376   7.730 -1.3373  0.3590 -1.1266
  257MOL0     C33840   2.963   0.409   7.733 -0.5854 -0.7247  1.0605
  257MOL0     C33841   3.104   0.445   7.742  0.3971 -0.1664 -1.1097
  257MOL0     N33842   3.918   0.679   7.788  0.6555 -0.1111  0.0395
  257MOL0     N33843   4.042   0.688   7.763  0.1109  0.5343  0.5904
  257MOL0     C33844   5.082   0.970   8.380  0.7179  0.5546  0.1556
  257MOL0     C33845   5.223   0.978   8.388 -0.0645 -0.1974 -0.6345
  257MOL0     C33846   5.679   0.933   8.272 -0.3535  0.7105 -0.7134
  257MOL0     C33847   5.710   1.050   8.345  0.2697  0.2039  0.2223
  257MOL0     C33848   5.839   1.089   8.368  0.2724 -0.1286  0.0078
  257MOL0     C33849   5.949   1.020   8.306 -0.3593 -0.5454  0.6196
  257MOL0     O33850   6.072   1.083   8.326  0.1067  0.0415  0.0657
  257MOL0     C33851   6.180   1.058   8.233 -1.0594 -0.1435  0.4756
  257MOL0     C33852   6.263   1.188   8.237  0.5007 -0.0528 -0.5934
  257MOL0     C33853   6.334   1.215   8.100 -0.2738  0.5570 -0.0598
  257MOL0     C33854   6.426   1.335   8.077  0.2208 -0.2951  0.2159
  257MOL0     C33855   6.562   1.320   8.140  0.0984  0.5193  0.1266
  257MOL0     C33856   6.673   1.323   8.192 -0.2845  0.7310 -0.1363
  257MOL0     C33857   5.929   0.899   8.236  0.5545 -0.6020  0.9133
  257MOL0     C33858   5.791   0.859   8.226 -0.1266 -0.4110 -0.1953
  257MOL0     H33859   5.320   0.939   8.075  1.4374  0.5331  2.2025
  257MOL0     H33860   5.073   0.917   8.037  0.2262  2.1974 -0.2957
  257MOL0     H33861   4.791   0.897   8.409 -1.9071 -1.2103  0.8884
  257MOL0     H33862   4.866   0.745   8.371 -1.6919  0.4273  1.9689
  257MOL0     H33863   4.650   0.868   8.207 -1.8812  0.8347  1.4564
  257MOL0     H33864   4.623   0.727   8.325  2.0674 -2.7020 -1.3531
  257MOL0     H33865   4.762   0.579   8.196 -1.1084 -0.9115 -2.2437
  257MOL0     H33866   4.801   0.704   8.085  1.1988  0.0823  0.3419
  257MOL0     H33867   4.509   0.647   8.150 -0.0208  2.0647 -0.7455
  257MOL0     H33868   4.573   0.747   8.020 -1.5036 -0.6607  0.7088
  257MOL0     H33869   4.571   0.449   8.048 -3.0076  0.4104 -0.2270
  257MOL0     H33870   4.682   0.526   7.934  1.8597 -0.5449  1.9289
  257MOL0     H33871   4.516   0.458   7.793  0.5426  0.4973  1.0252
  257MOL0     H33872   4.515   0.634   7.800 -1.2099  0.3221 -0.2551
  257MOL0     H33873   4.314   0.437   7.924 -0.9301  1.1236  1.1514
  257MOL0     H33874   4.316   0.620   7.952  0.4017  1.5709 -0.8642
  257MOL0     H33875   4.266   0.469   7.693 -2.3413  2.0380 -2.5037
  257MOL0     H33876   4.278   0.636   7.696 -0.4382 -0.1967 -1.1394
  257MOL0     H33877   4.037   0.391   7.880 -2.1321  1.2625  2.5577
  257MOL0     H33878   3.768   0.546   8.013  0.2606 -1.8602 -0.7214
  257MOL0     H33879   3.770   0.407   7.916  2.9236 -0.1856 -0.3836
  257MOL0     H33880   3.653   0.541   7.732  0.8554  2.9166 -0.8672
  257MOL0     H33881   3.653   0.680   7.835 -2.0261 -0.1286 -0.6416
  257MOL0     H33882   3.517   0.426   7.931 -2.2108 -0.9438 -0.7022
  257MOL0     H33883   3.485   0.593   7.986 -1.0034  0.3564 -0.9783
  257MOL0     H33884   3.385   0.457   7.744  0.4907  1.6506  0.3377
  257MOL0     H33885   3.384   0.640   7.757 -1.1737  1.6820  1.7382
  257MOL0     H33886   3.124   0.470   8.075  2.6148 -1.3887 -1.0158
  257MOL0     H33887   2.884   0.393   8.055 -1.0521 -0.3322 -1.3641
  257MOL0     H33888   2.561   0.132   7.824  1.6064  2.0466 -0.4257
  257MOL0     H33889   2.323   0.068   7.839 -1.3918  1.8268 -1.9362
  257MOL0     H33890   2.021   0.345   8.049 -0.8503 -1.0540 -3.5272
  257MOL0     H33891   2.076   0.246   8.182  1.3366  0.0843 -0.7448
  257MOL0     H33892   1.850   0.189   8.160 -2.0202 -1.2144 -0.5460
  257MOL0     H33893   1.945   0.055   8.097 -0.5617  0.2380  1.7711
  257MOL0     H33894   1.894   0.185   7.866 -0.4846 -2.7925 -0.5844
  257MOL0     H33895   1.784   0.274   7.962  1.7506  0.3263  0.4476
  257MOL0     H33896   1.662   0.083   7.855 -0.7931  3.9028 -0.3495
  257MOL0     H33897   1.779  -0.032   7.912 -0.7835 -0.7122 -0.3129
  257MOL0     H33898   1.704   0.048   8.149 -0.9673 -0.4730  0.5571
  257MOL0     H33899   1.590  -0.052   8.058  1.5407 -1.4313  0.9340
  257MOL0     H33900   1.584   0.255   8.100 -1.5605  0.6724  0.4938
  257MOL0     H33901   1.465   0.131   8.146  0.3578 -0.1984 -0.9178
  257MOL0     H33902   1.378   0.272   7.988  2.1698 -0.2217  2.6490
  257MOL0     H33903   1.521   0.263   7.885 -1.2412  0.4759 -1.0270
  257MOL0     H33904   1.457   0.001   7.863 -0.8255 -1.4668  4.9099
  257MOL0     H33905   1.338   0.108   7.789  1.3976  2.8348 -0.0883
  257MOL0     H33906   2.263   0.380   8.126 -1.7142 -0.2185 -0.1547
  257MOL0     H33907   2.502   0.439   8.110  1.3633 -1.0479 -0.1934
  257MOL0     H33908   2.930   0.366   7.639  2.7218  1.3882 -1.2906
  257MOL0     H33909   3.161   0.446   7.650 -0.9101  3.8620 -2.1301
  257MOL0     H33910   5.017   0.984   8.466 -1.6300 -2.5149 -0.9229
  257MOL0     H33911   5.267   1.018   8.478 -0.0626  2.4495 -1.7020
  257MOL0     H33912   5.629   1.111   8.382 -0.0741  2.4088 -3.6832
  257MOL0     H33913   5.851   1.182   8.421 -0.2799  0.2208 -0.4759
  257MOL0     H33914   6.156   1.048   8.127  4.6429 -1.2379 -1.0364
  257MOL0     H33915   6.253   0.981   8.256  0.6192  0.5233 -2.1552
  257MOL0     H33916   6.201   1.263   8.287  1.9430 -0.6558  2.3108
  257MOL0     H33917   6.341   1.167   8.312  0.9653 -1.1226 -1.3381
  257MOL0     H33918   6.247   1.223   8.033 -1.3228 -3.4608  0.5729
  257MOL0     H33919   6.391   1.130   8.061 -0.7807 -0.0631  0.5377
  257MOL0     H33920   6.436   1.330   7.969  0.0278  0.7534  0.1375
  257MOL0     H33921   6.381   1.431   8.105  1.9447  1.1846 -1.7756
  257MOL0     H33922   6.761   1.338   8.252 -0.8800 -4.0839  2.4000
  257MOL0     H33923   6.014   0.845   8.196  1.3617  0.2483  1.4194
  257MOL0     H33924   5.770   0.765   8.176  2.4400 -1.4095  0.4625
  258MOL0     O33925   0.389   2.637   0.229  0.5569  0.3163  0.5672
  258MOL0     C33926   0.359   2.520   0.257 -0.4243  0.0693 -0.1658
  258MOL0     O33927   0.253   2.450   0.210  0.2133  0.6428  0.0363
  258MOL0     C33928   0.167   2.494   0.114  0.6423  0.8454 -0.5948
  258MOL0     C33929   0.057   2.555   0.169 -0.4818  0.4973  0.5981
  258MOL0     C33930  -0.044   2.605   0.086 -0.5865  1.0056  0.0569
  258MOL0     C33931  -0.035   2.583  -0.052 -0.6619  0.3839  0.1671
  258MOL0     O33932  -0.143   2.640  -0.119 -0.6868  0.8226 -0.1896
  258MOL0     C33933  -0.160   2.588  -0.259  0.1598 -0.6268  0.0532
  258MOL0     C33934  -0.257   2.682  -0.344 -0.3216  0.8133  0.0993
  258MOL0     C33935  -0.301   2.817  -0.271  0.5931 -0.4379 -0.2377
  258MOL0     C33936  -0.422   2.883  -0.346  0.8547  0.3463 -0.1713
  258MOL0     C33937  -0.465   3.026  -0.295 -0.0430  0.5866 -0.3637
  258MOL0     C33938  -0.547   3.111  -0.395 -0.1733  0.1225  0.1091
  258MOL0     C33939  -0.593   3.249  -0.341 -0.7059  0.1285  0.2186
  258MOL0     C33940  -0.678   3.338  -0.428  0.1002  0.5653  0.0754
  258MOL0     N33941  -0.791   3.282  -0.495  0.3409  0.8247  0.4118
  258MOL0     C33942  -0.787   3.261  -0.624 -0.4382  0.7151  0.4856
  258MOL0     C33943  -0.901   3.198  -0.646  0.7598 -0.1756  0.4748
  258MOL0     C33944  -0.942   3.147  -0.771  0.0150  0.0430  0.3987
  258MOL0     C33945  -1.064   3.057  -0.771 -0.5854  0.9233 -0.3464
  258MOL0     C33946  -1.187   3.129  -0.739  0.0696  0.0585  0.2114
  258MOL0     C33947  -1.308   3.034  -0.753  0.2189  1.0015  0.1396
  258MOL0     O33948  -1.423   3.091  -0.693  0.7758  0.0247  0.5644
  258MOL0     C33949  -1.537   3.021  -0.712 -0.3798 -0.0957 -0.0645
  258MOL0     C33950  -1.574   2.956  -0.834 -0.4176  0.0089 -1.1126
  258MOL0     C33951  -1.704   2.918  -0.852  0.6769  0.1683 -0.3330
  258MOL0     C33952  -1.806   2.941  -0.754  0.2970 -0.5926  0.0941
  258MOL0     C33953  -1.953   2.912  -0.766 -0.5449  0.3298 -0.8211
  258MOL0     O33954  -2.034   3.015  -0.738  0.5934 -0.3168  0.1537
  258MOL0     C33955  -2.165   2.981  -0.737 -0.3012  0.3505 -0.1691
  258MOL0     C33956  -2.216   2.895  -0.635 -0.7619 -0.7430  0.5964
  258MOL0     C33957  -2.354   2.867  -0.634 -0.0815 -0.1709 -0.0329
  258MOL0     C33958  -2.445   2.942  -0.717 -0.3993 -0.3425 -0.0969
  258MOL0     O33959  -2.574   2.899  -0.720 -0.4700 -0.3835 -0.4333
  258MOL0     C33960  -2.678   2.942  -0.809 -0.8193 -0.0525 -0.1640
  258MOL0     C33961  -2.774   2.832  -0.830  0.7180 -0.0788  0.1316
  258MOL0     C33962  -2.917   2.880  -0.842 -0.1896  0.5473  0.4056
  258MOL0     C33963  -2.938   2.975  -0.956 -1.1818 -0.3916 -0.3318
  258MOL0     C33964  -3.045   3.076  -0.942  0.4469  0.0039  0.4433
  258MOL0     C33965  -3.183   3.010  -0.960 -0.6004 -0.4147  0.0856
  258MOL0     C33966  -3.296   3.105  -0.974  1.3187  0.6130  0.2422
  258MOL0     C33967  -3.432   3.033  -1.009  0.0432  0.0933  0.0555
  258MOL0    Cl33968  -3.440   3.020  -1.187 -0.1461  0.0041  0.0533
  258MOL0     C33969  -2.397   3.044  -0.801  0.2494  0.6700  0.3032
  258MOL0     C33970  -2.256   3.059  -0.805 -0.2732  0.4222  0.2885
  258MOL0     O33971  -1.979   2.801  -0.806  0.5012 -0.3708 -0.3169
  258MOL0     C33972  -1.768   3.021  -0.642 -0.3110  0.2813 -0.1449
  258MOL0     C33973  -1.633   3.062  -0.625  0.4650  1.1406  0.3066
  258MOL0     N33974  -0.960   3.162  -0.527 -0.1347  0.8068 -1.1436
  258MOL0     N33975  -0.886   3.217  -0.434 -0.2622  0.6211  0.5028
  258MOL0     C33976   0.078   2.520  -0.110  0.0808  0.1018  0.2309
  258MOL0     C33977   0.180   2.479  -0.033  0.1346  0.5927  0.1722
  258MOL0     C33978   0.445   2.457   0.352 -0.3443 -1.1124 -0.1404
  258MOL0     C33979   0.444   2.314   0.381  0.7216  0.4991  0.1478
  258MOL0     C33980   0.541   2.251   0.462 -0.3996  1.0605  1.5839
  258MOL0     C33981   0.648   2.324   0.513  0.2172 -1.0974 -0.0647
  258MOL0     O33982   0.752   2.261   0.568 -0.5533  0.4911 -0.6774
  258MOL0     C33983   0.892   2.319   0.553  0.0137 -0.4885  0.2782
  258MOL0     C33984   0.939   2.322   0.407 -0.2737 -0.0816  0.3008
  258MOL0     C33985   0.959   2.173   0.354  0.0547  0.1960  0.0983
  258MOL0     C33986   1.010   2.174   0.212 -0.1928 -0.4049 -1.1217
  258MOL0     C33987   1.144   2.242   0.206 -0.4885 -0.1034  0.3657
  258MOL0     C33988   1.239   2.315   0.203 -0.2579  0.1853  0.5698
  258MOL0     C33989   0.644   2.462   0.511 -0.2816 -0.7499  0.0334
  258MOL0     C33990   0.546   2.530   0.425  0.2662  0.1990 -0.1581
  258MOL0     H33991   0.043   2.554   0.276  1.7411  3.1911  1.0314
  258MOL0     H33992  -0.142   2.638   0.120 -1.2879 -0.1176 -0.8192
  258MOL0     H33993  -0.180   2.481  -0.270  3.0060 -1.0849 -1.6648
  258MOL0     H33994  -0.063   2.610  -0.304 -0.1203 -0.7800 -0.6389
  258MOL0     H33995  -0.346   2.629  -0.380  0.1412  0.0096  0.1308
  258MOL0     H33996  -0.208   2.713  -0.437  0.6716  1.4522  0.8144
  258MOL0     H33997  -0.219   2.889  -0.277  0.0891  0.1123 -0.7080
  258MOL0     H33998  -0.330   2.801  -0.166  2.6303 -0.6410  0.3311
  258MOL0     H33999  -0.393   2.894  -0.451  1.7702  1.6384  0.2013
  258MOL0     H34000  -0.509   2.817  -0.335 -0.3564  2.1595  2.0025
  258MOL0     H34001  -0.379   3.093  -0.285 -1.0942  1.8357  0.6297
  258MOL0     H34002  -0.514   3.013  -0.198  0.4117  0.2863 -0.1688
  258MOL0     H34003  -0.634   3.052  -0.426 -0.3477  0.3791  0.1084
  258MOL0     H34004  -0.495   3.131  -0.489 -1.4069  1.0377 -0.4077
  258MOL0     H34005  -0.646   3.235  -0.246 -0.1267 -0.8028  0.4140
  258MOL0     H34006  -0.501   3.299  -0.310 -0.4498  0.5382 -1.1392
  258MOL0     H34007  -0.614   3.393  -0.498 -2.2823  2.0888 -1.0201
  258MOL0     H34008  -0.712   3.425  -0.370  2.4039  2.5343 -1.3147
  258MOL0     H34009  -0.716   3.303  -0.694 -1.7652 -0.2055 -1.5121
  258MOL0     H34010  -0.863   3.082  -0.810  0.4168  0.9318 -0.3183
  258MOL0     H34011  -0.953   3.234  -0.837  2.1121 -0.1862 -0.3310
  258MOL0     H34012  -1.045   2.977  -0.699  3.2026  2.4849  0.6423
  258MOL0     H34013  -1.076   3.016  -0.871  3.3498  0.1174 -0.6269
  258MOL0     H34014  -1.188   3.161  -0.634  1.6706 -1.4343  0.7457
  258MOL0     H34015  -1.201   3.215  -0.805 -0.3401  0.1886  0.4658
  258MOL0     H34016  -1.294   2.933  -0.712 -2.0597 -0.2560 -1.8803
  258MOL0     H34017  -1.324   3.023  -0.860 -1.6171 -0.9237  0.5244
  258MOL0     H34018  -1.505   2.943  -0.916  0.8361 -1.3017  0.1003
  258MOL0     H34019  -1.728   2.864  -0.944  0.1811 -1.0956  0.5066
  258MOL0     H34020  -2.144   2.850  -0.567  2.2797 -1.5117 -2.8487
  258MOL0     H34021  -2.385   2.786  -0.568 -1.7276  1.0663  0.8116
  258MOL0     H34022  -2.641   2.969  -0.908 -0.6244 -0.3213 -0.1628
  258MOL0     H34023  -2.722   3.031  -0.762  2.0707  2.2720 -1.4697
  258MOL0     H34024  -2.778   2.755  -0.752  2.1729 -1.8738 -1.4470
  258MOL0     H34025  -2.748   2.771  -0.917 -0.4691 -2.1510  1.1540
  258MOL0     H34026  -2.949   2.925  -0.747 -0.9190 -0.9552  0.9113
  258MOL0     H34027  -2.982   2.795  -0.863  0.0168 -0.0117  1.8440
  258MOL0     H34028  -2.846   3.033  -0.962 -1.5284  0.4706  1.7127
  258MOL0     H34029  -2.950   2.915  -1.047  4.0769 -2.6837  0.1256
  258MOL0     H34030  -3.027   3.152  -1.019  0.4645 -1.8260 -1.4168
  258MOL0     H34031  -3.029   3.134  -0.850 -2.1049 -0.8021  1.4798
  258MOL0     H34032  -3.210   2.950  -0.872 -0.2666  0.9237  1.1369
  258MOL0     H34033  -3.178   2.955  -1.054  1.0625 -1.4425  0.7358
  258MOL0     H34034  -3.309   3.174  -0.889  1.0659 -0.2172  0.8887
  258MOL0     H34035  -3.262   3.170  -1.055  1.3555 -0.1175 -0.3389
  258MOL0     H34036  -3.514   3.095  -0.972  0.5157  0.9485 -0.3168
  258MOL0     H34037  -3.433   2.930  -0.973 -0.1953 -2.1631 -5.4535
  258MOL0     H34038  -2.470   3.099  -0.859  0.0124 -0.3645 -0.3978
  258MOL0     H34039  -2.211   3.143  -0.857 -1.8155  2.4207  2.0490
  258MOL0     H34040  -1.834   3.040  -0.558 -0.4838 -1.0505  0.0479
  258MOL0     H34041  -1.610   3.114  -0.533 -0.8562 -3.6064  3.7128
  258MOL0     H34042   0.105   2.510  -0.214 -2.6035  2.1147 -0.7737
  258MOL0     H34043   0.270   2.434  -0.073 -0.4688 -1.9488  1.4364
  258MOL0     H34044   0.378   2.244   0.331  2.0514 -1.9779  1.6548
  258MOL0     H34045   0.536   2.142   0.465 -3.4893  1.0868  0.8945
  258MOL0     H34046   0.964   2.264   0.615  0.5673  1.8351  1.8509
  258MOL0     H34047   0.884   2.422   0.589 -2.7679 -0.5537  0.0458
  258MOL0     H34048   0.866   2.381   0.352  0.0517  1.8681  1.8510
  258MOL0     H34049   1.037   2.371   0.417 -1.4873  2.5815 -0.0132
  258MOL0     H34050   0.863   2.121   0.348  0.7368 -1.0143 -0.9644
  258MOL0     H34051   1.015   2.119   0.432 -2.7776 -1.0854  1.3906
  258MOL0     H34052   1.024   2.067   0.193  1.1974  0.1647 -3.6776
  258MOL0     H34053   0.937   2.222   0.146 -1.4635 -1.6658 -0.6820
  258MOL0     H34054   1.320   2.384   0.195 -0.5778  0.3660 -3.0308
  258MOL0     H34055   0.717   2.531   0.552 -1.9915 -0.2516  2.4779
  258MOL0     H34056   0.563   2.634   0.402 -1.1929  0.3684 -0.5280
  259MOL0     O34057  10.583   3.437  11.147 -0.2593  0.4643 -1.1564
  259MOL0     C34058  10.597   3.554  11.149  0.3908 -0.4286  0.2606
  259MOL0     O34059  10.718   3.621  11.162  0.2898  1.1067  0.4970
  259MOL0     C34060  10.817   3.537  11.155  0.2229 -0.4075 -0.2156
  259MOL0     C34061  10.902   3.556  11.046  0.9381 -0.2913  1.0632
  259MOL0     C34062  11.019   3.481  11.035 -0.0746  0.2407 -0.0873
  259MOL0     C34063  11.051   3.377  11.131 -0.0796  0.7001 -0.3399
  259MOL0     O34064  11.163   3.300  11.117  0.0729  0.6635  0.2644
  259MOL0     C34065  11.178   3.160  11.164  0.5093  0.6828  0.1299
  259MOL0     C34066  11.314   3.114  11.143  0.7275  0.2636  0.8849
  259MOL0     C34067  11.329   2.990  11.234  1.0076 -0.0282 -0.7783
  259MOL0     C34068  11.482   2.957  11.243 -0.7109  0.2696  0.4453
  259MOL0     C34069  11.527   2.952  11.386 -0.2312 -1.0705 -0.4360
  259MOL0     C34070  11.672   2.937  11.386 -0.0135  0.2360  0.0023
  259MOL0     C34071  11.748   3.056  11.320  0.6129  0.7325 -0.5003
  259MOL0     C34072  11.890   3.062  11.361 -1.2707  0.7004 -0.5488
  259MOL0     N34073  11.967   3.187  11.324 -0.3485 -0.5785  0.4543
  259MOL0     C34074  12.016   3.267  11.429 -0.2851 -0.3469  0.0188
  259MOL0     C34075  12.052   3.383  11.368  0.1191 -0.7159 -0.2914
  259MOL0     C34076  12.102   3.516  11.433 -0.5840 -0.5538 -1.0890
  259MOL0     C34077  12.162   3.501  11.573  0.6828  0.3117 -0.1730
  259MOL0     C34078  12.202   3.636  11.633 -0.9426  0.6117 -0.6319
  259MOL0     C34079  12.096   3.743  11.612 -0.5523  0.4315  0.1973
  259MOL0     O34080  12.091   3.792  11.482  0.1841 -0.6788  0.9271
  259MOL0     C34081  11.985   3.883  11.441  0.2495 -0.5284 -0.1277
  259MOL0     C34082  12.005   3.959  11.321 -0.1119  0.9543 -1.0395
  259MOL0     C34083  11.914   4.058  11.281  0.1680  0.7422 -0.3285
  259MOL0     C34084  11.792   4.079  11.352  0.6772 -0.7770 -0.3596
  259MOL0     C34085  11.697   4.180  11.298 -0.3186  0.2664 -0.0383
  259MOL0     O34086  11.580   4.193  11.365  0.2107 -0.1788 -0.6605
  259MOL0     C34087  11.478   4.260  11.303 -0.0908 -0.2305  0.0337
  259MOL0     C34088  11.418   4.362  11.373 -0.2777  0.6684  0.2468
  259MOL0     C34089  11.300   4.411  11.325  0.4054 -0.7940  0.4417
  259MOL0     C34090  11.244   4.368  11.201  0.0779 -0.8741 -0.3281
  259MOL0     O34091  11.138   4.441  11.160  0.4104 -0.6846 -0.4838
  259MOL0     C34092  11.075   4.413  11.038  0.3551 -0.4216  0.1197
  259MOL0     C34093  10.952   4.497  11.026 -0.5118 -0.5260  0.2850
  259MOL0     C34094  10.848   4.426  11.109 -0.1476  0.6004 -0.3253
  259MOL0     C34095  10.705   4.473  11.082  0.0336  0.0238  0.0366
  259MOL0     C34096  10.591   4.401  11.162 -0.0671 -0.1151  0.7276
  259MOL0     C34097  10.462   4.494  11.169  0.1958  0.7559  0.2280
  259MOL0     C34098  10.412   4.535  11.034  0.1323  0.1823  0.6745
  259MOL0     C34099  10.270   4.582  11.034 -0.2020 -0.0293  0.0921
  259MOL0    Cl34100  10.158   4.447  11.049 -0.2708  0.2901 -0.3685
  259MOL0     C34101  11.317   4.271  11.126  0.0337  0.9286 -0.1515
  259MOL0     C34102  11.423   4.211  11.185  0.3739 -0.3264  0.0206
  259MOL0     O34103  11.720   4.224  11.185 -0.0393 -0.3533  0.1805
  259MOL0     C34104  11.773   4.007  11.475 -0.5650 -0.2310  0.7544
  259MOL0     C34105  11.860   3.907  11.510 -0.5966  0.4912  0.2838
  259MOL0     N34106  12.004   3.375  11.236  0.0874 -0.6812 -0.6937
  259MOL0     N34107  11.966   3.265  11.212 -0.3168 -0.2914 -0.1545
  259MOL0     C34108  10.948   3.351  11.225 -1.1782 -0.5598 -0.1550
  259MOL0     C34109  10.841   3.433  11.244  0.8291 -0.1282  0.2555
  259MOL0     C34110  10.467   3.632  11.133  0.2032 -0.0502 -0.2049
  259MOL0     C34111  10.356   3.568  11.067 -1.1086 -0.0459 -0.0282
  259MOL0     C34112  10.234   3.627  11.063 -0.0634 -0.0009  0.1474
  259MOL0     C34113  10.217   3.757  11.113 -0.2369 -0.7866  0.4178
  259MOL0     O34114  10.098   3.830  11.108 -0.4404  0.5109 -0.4931
  259MOL0     C34115   9.984   3.742  11.093  0.4512 -0.1030  0.4336
  259MOL0     C34116   9.848   3.830  11.086 -0.0616 -0.7289 -0.4945
  259MOL0     C34117   9.728   3.746  11.055  0.3733  0.3808  0.3889
  259MOL0     C34118   9.591   3.827  11.060 -0.1314 -0.3454 -0.0868
  259MOL0     C34119   9.572   3.908  11.181 -0.3984  0.4580  1.6465
  259MOL0     C34120   9.561   3.979  11.275  0.7426  0.8564 -0.3174
  259MOL0     C34121  10.322   3.823  11.177 -0.9303 -0.6149  0.5357
  259MOL0     C34122  10.447   3.755  11.203 -0.5812 -0.1827 -0.0702
  259MOL0     H34123  10.897   3.644  10.981 -0.4689  0.7414  2.4904
  259MOL0     H34124  11.088   3.495  10.952  1.9046 -2.0351  1.0506
  259MOL0     H34125  11.112   3.101  11.099 -1.0995  0.9863  1.4290
  259MOL0     H34126  11.145   3.155  11.268  1.2556  1.5446  0.4178
  259MOL0     H34127  11.383   3.196  11.161  2.0151 -1.0757  2.3367
  259MOL0     H34128  11.319   3.088  11.036 -0.6440 -0.2020  0.9133
  259MOL0     H34129  11.280   2.911  11.176  0.2195  0.2802 -0.5459
  259MOL0     H34130  11.277   3.003  11.330 -0.9949 -1.0344 -1.6706
  259MOL0     H34131  11.499   2.862  11.191 -1.3149  1.1895 -1.5318
  259MOL0     H34132  11.541   3.032  11.188 -0.6193  1.4496  2.0796
  259MOL0     H34133  11.475   2.866  11.430  0.5331 -0.6497  1.4027
  259MOL0     H34134  11.507   3.049  11.434 -0.5000 -0.6560 -1.3705
  259MOL0     H34135  11.708   2.849  11.331  3.4865  0.1686  2.1153
  259MOL0     H34136  11.708   2.928  11.489 -1.3834 -1.9823  0.3422
  259MOL0     H34137  11.751   3.040  11.211 -0.3693  1.5149 -0.6592
  259MOL0     H34138  11.700   3.152  11.340 -3.1614 -1.0906  0.0595
  259MOL0     H34139  11.952   2.973  11.341  0.8094  1.6861  1.0911
  259MOL0     H34140  11.891   3.060  11.470 -2.7986 -1.3617 -0.5145
  259MOL0     H34141  12.032   3.245  11.534  1.1123 -2.7541 -0.6449
  259MOL0     H34142  12.013   3.577  11.448  0.6375  0.5660  2.3463
  259MOL0     H34143  12.162   3.561  11.354 -0.2911 -1.1673 -1.2259
  259MOL0     H34144  12.257   3.449  11.584  0.9114  1.0334  1.4226
  259MOL0     H34145  12.086   3.458  11.639 -3.0019  2.4645 -2.6248
  259MOL0     H34146  12.220   3.622  11.740  0.2621 -3.0074 -1.1876
  259MOL0     H34147  12.299   3.664  11.591 -1.3006  1.9719 -0.5819
  259MOL0     H34148  12.103   3.829  11.679 -0.3859 -0.2776  1.1190
  259MOL0     H34149  12.003   3.690  11.633 -0.1690  0.3660  1.8382
  259MOL0     H34150  12.097   3.934  11.270  0.2133  1.3787 -0.6549
  259MOL0     H34151  11.939   4.098  11.183 -1.3585  4.6605  0.6898
  259MOL0     H34152  11.465   4.400  11.463 -0.3240 -1.2701  1.1336
  259MOL0     H34153  11.248   4.494  11.371 -0.9314 -0.7167 -1.0973
  259MOL0     H34154  11.054   4.306  11.030  2.7764 -0.9594  0.0722
  259MOL0     H34155  11.146   4.439  10.958 -1.6598 -2.5533 -2.5749
  259MOL0     H34156  10.917   4.507  10.923  0.2816  1.3108  0.1585
  259MOL0     H34157  10.967   4.600  11.059 -1.7177 -0.2829  0.1224
  259MOL0     H34158  10.875   4.424  11.215  2.3976  0.9587 -0.9119
  259MOL0     H34159  10.850   4.319  11.090  1.3411  0.2858  1.3512
  259MOL0     H34160  10.695   4.580  11.104  1.6264 -0.1420  1.7814
  259MOL0     H34161  10.696   4.465  10.973 -0.3067 -0.3302  0.0884
  259MOL0     H34162  10.627   4.374  11.261  1.5374 -0.3130  0.1105
  259MOL0     H34163  10.564   4.311  11.105  0.0436  1.4747 -2.0174
  259MOL0     H34164  10.492   4.581  11.228  0.6682 -0.1042  1.3046
  259MOL0     H34165  10.379   4.439  11.215 -0.6952  1.7100 -0.2037
  259MOL0     H34166  10.482   4.607  10.990  0.8218 -1.0523 -0.2978
  259MOL0     H34167  10.405   4.453  10.961 -0.5245  2.3211 -1.8476
  259MOL0     H34168  10.249   4.631  10.938 -1.0568 -1.3854 -0.4414
  259MOL0     H34169  10.251   4.640  11.125 -1.6429 -3.6990  2.3661
  259MOL0     H34170  11.270   4.242  11.033 -0.1310 -1.5889  0.6608
  259MOL0     H34171  11.466   4.122  11.139 -1.2913 -0.1634 -2.0126
  259MOL0     H34172  11.677   4.029  11.521 -0.2720  0.5001  1.0236
  259MOL0     H34173  11.847   3.861  11.608 -1.4536  0.4331  0.1540
  259MOL0     H34174  10.948   3.261  11.286 -1.9845 -2.0680 -2.2800
  259MOL0     H34175  10.774   3.406  11.326 -1.1500 -0.9488 -1.5436
  259MOL0     H34176  10.368   3.466  11.029  1.6088 -0.8481  2.5974
  259MOL0     H34177  10.153   3.565  11.027  0.1141  0.3100 -0.8203
  259MOL0     H34178   9.985   3.665  11.170 -1.6472  0.8423  1.5213
  259MOL0     H34179   9.982   3.694  10.995  2.6018  1.8372 -0.6412
  259MOL0     H34180   9.834   3.889  11.177  4.0205  0.2160 -0.2764
  259MOL0     H34181   9.856   3.908  11.010 -0.4952 -0.9526 -0.7714
  259MOL0     H34182   9.738   3.650  11.108 -1.7615 -0.5064 -0.7233
  259MOL0     H34183   9.730   3.719  10.949  0.2239 -5.0426  1.4471
  259MOL0     H34184   9.587   3.892  10.972 -2.0395 -3.5965 -2.6275
  259MOL0     H34185   9.513   3.753  11.045  0.5396 -1.3846  1.3831
  259MOL0     H34186   9.559   4.028  11.371  0.4446  1.2929 -0.5400
  259MOL0     H34187  10.318   3.924  11.217  0.0381 -0.1935 -0.3999
  259MOL0     H34188  10.527   3.797  11.263  0.0026  1.2098 -1.7267
  260MOL0     O34189   8.739   3.955   1.666  0.1454 -0.0724  0.6372
  260MOL0     C34190   8.793   3.970   1.774  0.2510 -0.2480 -0.4224
  260MOL0     O34191   8.730   3.961   1.898 -0.2254 -0.9310  0.3440
  260MOL0     C34192   8.596   3.949   1.894  0.6049  0.4139  0.3117
  260MOL0     C34193   8.536   3.833   1.954 -0.0654  0.4831  0.8097
  260MOL0     C34194   8.403   3.801   1.933 -0.2226  0.0553  0.0623
  260MOL0     C34195   8.313   3.888   1.873 -0.4910  0.4799 -0.6933
  260MOL0     O34196   8.181   3.852   1.864  0.2924  0.0429 -0.2556
  260MOL0     C34197   8.117   3.805   1.982  0.8151 -0.5570 -0.3439
  260MOL0     C34198   8.092   3.931   2.076 -0.4579 -0.0183  0.3025
  260MOL0     C34199   7.995   3.901   2.192 -0.1818 -0.0618 -0.8220
  260MOL0     C34200   7.985   4.013   2.290  0.0932  0.1304 -0.0337
  260MOL0     C34201   7.898   3.974   2.407  0.1201 -0.0862  0.0500
  260MOL0     C34202   7.751   3.992   2.361  0.8587 -0.0165 -0.3065
  260MOL0     C34203   7.652   4.002   2.481 -0.8370  0.1389 -0.4562
  260MOL0     C34204   7.566   3.878   2.493  0.0108 -1.2205  0.0104
  260MOL0     N34205   7.474   3.898   2.600 -0.1091  0.6497  1.1427
  260MOL0     C34206   7.382   3.999   2.625  0.6314  0.6856 -0.2368
  260MOL0     C34207   7.316   3.954   2.741 -0.0702  0.5751  0.7522
  260MOL0     C34208   7.197   4.016   2.808 -0.5110 -0.1698  0.6393
  260MOL0     C34209   7.064   3.986   2.723 -0.1173 -0.3391 -0.2239
  260MOL0     C34210   6.941   4.006   2.806  0.2330  0.4044 -1.3557
  260MOL0     C34211   6.810   3.954   2.741  0.1217  0.0129 -0.0420
  260MOL0     O34212   6.717   3.945   2.848  0.4964 -0.0592  0.4819
  260MOL0     C34213   6.600   3.996   2.816 -0.1815 -0.3833 -0.4900
  260MOL0     C34214   6.489   3.909   2.805 -0.0768 -0.4144  0.0643
  260MOL0     C34215   6.359   3.960   2.764 -0.3721 -0.6362  0.0576
  260MOL0     C34216   6.337   4.097   2.736  0.4811 -0.5508 -0.0158
  260MOL0     C34217   6.213   4.154   2.693 -0.1043  0.6514 -0.0744
  260MOL0     O34218   6.108   4.063   2.682 -0.2295  0.0973 -0.6662
  260MOL0     C34219   5.979   4.098   2.652  0.6374  0.4088  0.4836
  260MOL0     C34220   5.913   4.216   2.690 -0.3440  0.9405  0.0219
  260MOL0     C34221   5.773   4.228   2.685  0.5095  0.3009  0.5000
  260MOL0     C34222   5.698   4.130   2.612  0.6671  0.0302 -0.5588
  260MOL0     O34223   5.560   4.138   2.590  0.3986 -0.7069 -0.5688
  260MOL0     C34224   5.493   4.246   2.666 -0.7415 -0.4121 -0.1123
  260MOL0     C34225   5.344   4.220   2.640  0.5019  0.0077 -0.1284
  260MOL0     C34226   5.257   4.295   2.732 -0.9858 -0.6317  0.0440
  260MOL0     C34227   5.111   4.264   2.694 -0.2076 -0.8124  0.9374
  260MOL0     C34228   5.008   4.298   2.800  0.1196 -0.2540 -0.1996
  260MOL0     C34229   4.898   4.199   2.787  0.2838  0.1403 -0.4385
  260MOL0     C34230   4.767   4.246   2.843  0.2453  0.6817 -0.3861
  260MOL0     C34231   4.755   4.283   3.003 -0.6151  0.4066  0.0770
  260MOL0    Cl34232   4.810   4.442   3.016 -0.4163 -0.1847  0.3573
  260MOL0     C34233   5.753   4.008   2.584 -0.3475  0.7684 -0.4563
  260MOL0     C34234   5.893   3.992   2.611  0.8037 -0.4271  1.2358
  260MOL0     O34235   6.208   4.275   2.666 -0.0052  0.1285  0.3265
  260MOL0     C34236   6.455   4.177   2.741 -0.8701 -0.2730  0.3014
  260MOL0     C34237   6.573   4.129   2.788 -0.5781 -0.3305  0.5128
  260MOL0     N34238   7.354   3.825   2.763  1.0796 -0.5535 -0.1657
  260MOL0     N34239   7.459   3.797   2.691  0.8284 -1.3632  0.1757
  260MOL0     C34240   8.367   4.004   1.827  0.5152 -0.2768 -0.0705
  260MOL0     C34241   8.501   4.040   1.844 -0.7677 -0.0969  0.2875
  260MOL0     C34242   8.937   4.002   1.757  0.1534  0.2120  0.8725
  260MOL0     C34243   9.022   3.968   1.862  0.0277 -0.7152  0.6527
  260MOL0     C34244   9.161   3.996   1.849 -0.2985  0.7453  0.5598
  260MOL0     C34245   9.219   4.047   1.735  0.2077 -0.4854  0.6106
  260MOL0     O34246   9.359   4.059   1.725  0.1636  0.5580  0.0726
  260MOL0     C34247   9.412   4.181   1.668 -0.5266 -0.3677  1.0515
  260MOL0     C34248   9.380   4.305   1.751 -0.1373 -0.5828 -0.7127
  260MOL0     C34249   9.406   4.297   1.908  0.1670 -0.7541  1.5557
  260MOL0     C34250   9.324   4.409   1.988  0.2727  0.1887  1.1610
  260MOL0     C34251   9.183   4.379   1.978  0.4875  0.1142 -0.0906
  260MOL0     C34252   9.072   4.335   1.984  0.2396  0.9533 -0.1222
  260MOL0     C34253   9.137   4.063   1.633  0.8860  0.1827  0.6423
  260MOL0     C34254   8.995   4.063   1.646 -0.3010  0.3459 -0.0102
  260MOL0     H34255   8.595   3.754   1.999  0.9821  0.6236 -0.2861
  260MOL0     H34256   8.365   3.717   1.990 -0.2129 -0.2055 -0.3128
  260MOL0     H34257   8.184   3.732   2.029  2.2987  1.3362  0.6506
  260MOL0     H34258   8.025   3.752   1.956  1.3963 -0.6469 -2.4116
  260MOL0     H34259   8.042   4.007   2.015  0.7279 -1.0142 -2.0508
  260MOL0     H34260   8.190   3.967   2.109 -0.3074 -1.9759  2.2011
  260MOL0     H34261   8.019   3.810   2.247 -2.1804 -1.6507 -2.4274
  260MOL0     H34262   7.896   3.884   2.150 -1.8131  3.1290  1.3675
  260MOL0     H34263   8.078   4.041   2.341  0.0434  1.0996 -0.4452
  260MOL0     H34264   7.948   4.097   2.231 -2.6555  1.6282  3.4835
  260MOL0     H34265   7.914   4.039   2.493  0.5613  0.5439 -0.4971
  260MOL0     H34266   7.924   3.876   2.447 -3.1025 -0.5071  1.3694
  260MOL0     H34267   7.726   3.906   2.299  0.5196 -0.2237  0.1101
  260MOL0     H34268   7.735   4.085   2.306 -0.4067  0.1287  0.2798
  260MOL0     H34269   7.703   4.040   2.570  1.1773  2.1708 -2.3355
  260MOL0     H34270   7.582   4.082   2.454  0.7418  1.1042 -1.8935
  260MOL0     H34271   7.619   3.783   2.505 -1.1095 -1.7769  0.6727
  260MOL0     H34272   7.512   3.878   2.398 -1.9201 -0.3983  1.0592
  260MOL0     H34273   7.355   4.085   2.565  1.6886  0.9479 -0.3482
  260MOL0     H34274   7.207   4.125   2.815 -4.2522  0.2151  2.2384
  260MOL0     H34275   7.192   3.985   2.912 -0.2056  1.6717  1.2410
  260MOL0     H34276   7.053   3.884   2.686 -3.1322 -0.2508  0.1889
  260MOL0     H34277   7.058   4.041   2.629 -0.2762 -3.5209 -2.2288
  260MOL0     H34278   6.951   3.958   2.904 -3.2902  0.9813 -0.5797
  260MOL0     H34279   6.925   4.110   2.835 -0.9563 -0.5028  1.7291
  260MOL0     H34280   6.834   3.856   2.700  2.0098  1.3378 -2.3878
  260MOL0     H34281   6.774   4.021   2.663 -1.3984 -0.9687 -0.2220
  260MOL0     H34282   6.517   3.807   2.828  1.4164  0.0441  0.4061
  260MOL0     H34283   6.278   3.889   2.758 -1.4347  0.2632  2.3738
  260MOL0     H34284   5.972   4.291   2.744  4.1325 -4.2789  3.5238
  260MOL0     H34285   5.733   4.323   2.719 -0.1672  0.2139 -0.0312
  260MOL0     H34286   5.524   4.344   2.630  0.2402  0.1085  1.9931
  260MOL0     H34287   5.512   4.223   2.771 -0.6957 -0.3825 -0.1145
  260MOL0     H34288   5.325   4.112   2.646  0.3165  0.0701  0.4882
  260MOL0     H34289   5.324   4.253   2.538 -2.5997 -0.0765  0.3598
  260MOL0     H34290   5.273   4.402   2.712 -0.5873 -0.6835  0.0649
  260MOL0     H34291   5.282   4.287   2.838 -2.3590  4.0211  0.9710
  260MOL0     H34292   5.081   4.327   2.610 -2.2725 -1.5972  1.0275
  260MOL0     H34293   5.099   4.162   2.658  1.8325 -0.2772 -1.5316
  260MOL0     H34294   4.979   4.403   2.785  0.6077 -0.3601 -2.0269
  260MOL0     H34295   5.065   4.270   2.890 -0.3080  0.4436  0.3043
  260MOL0     H34296   4.917   4.104   2.839  0.3460 -0.2911 -1.2342
  260MOL0     H34297   4.879   4.169   2.684  0.9775  1.2086 -0.8908
  260MOL0     H34298   4.731   4.328   2.779 -2.0676  0.2818  0.3130
  260MOL0     H34299   4.701   4.160   2.824 -1.2306  1.9784 -1.4635
  260MOL0     H34300   4.816   4.219   3.067 -3.1410 -5.2005 -2.4275
  260MOL0     H34301   4.653   4.273   3.040 -0.1031  0.6849  1.6203
  260MOL0     H34302   5.710   3.920   2.537  2.8808 -0.2062 -1.8527
  260MOL0     H34303   5.932   3.893   2.588 -0.2685 -0.0344 -3.1773
  260MOL0     H34304   6.459   4.283   2.718  0.4404 -1.0017 -3.7182
  260MOL0     H34305   6.666   4.184   2.780 -0.9524  0.3190  0.5774
  260MOL0     H34306   8.301   4.067   1.769  1.3682 -1.8682 -2.9304
  260MOL0     H34307   8.544   4.135   1.812 -1.9361 -0.1163 -1.4516
  260MOL0     H34308   8.972   3.929   1.950 -2.9227  0.5543 -0.3432
  260MOL0     H34309   9.225   3.960   1.929 -0.2329  1.3991  0.8021
  260MOL0     H34310   9.390   4.200   1.562 -1.4818 -0.9527  1.1435
  260MOL0     H34311   9.520   4.173   1.681 -0.8578 -2.5434  2.9603
  260MOL0     H34312   9.443   4.383   1.706 -0.1615  0.3748  0.8477
  260MOL0     H34313   9.273   4.323   1.737  0.2133  0.6226 -2.1310
  260MOL0     H34314   9.513   4.295   1.931  0.1093  2.5416  2.6728
  260MOL0     H34315   9.367   4.199   1.937 -2.0921 -1.3448 -2.6062
  260MOL0     H34316   9.370   4.405   2.087  0.7118  0.4778  0.9737
  260MOL0     H34317   9.353   4.503   1.941  0.7878 -0.6539 -0.2668
  260MOL0     H34318   8.978   4.287   2.004 -0.0973  0.6234 -2.2882
  260MOL0     H34319   9.186   4.096   1.542  2.7795  0.5176  1.7436
  260MOL0     H34320   8.936   4.092   1.560  1.3842  0.1719 -1.2723
  261MOL0     O34321   3.058   8.491   1.035  0.0710 -0.5243  0.5736
  261MOL0     C34322   3.110   8.444   0.938 -0.2255  1.1996  0.8743
  261MOL0     O34323   3.049   8.384   0.817  0.0677 -0.1613 -0.1822
  261MOL0     C34324   2.919   8.410   0.784  0.6687  0.5155 -0.7719
  261MOL0     C34325   2.826   8.501   0.842  0.5913 -0.3007  0.7835
  261MOL0     C34326   2.700   8.531   0.774 -0.8237 -0.0462 -0.4054
  261MOL0     C34327   2.649   8.456   0.672 -0.4321 -0.2079 -0.5662
  261MOL0     O34328   2.526   8.460   0.615  0.6818  0.5724  0.2123
  261MOL0     C34329   2.419   8.476   0.713  0.0354 -0.3228  1.5193
  261MOL0     C34330   2.364   8.620   0.690  0.0574  0.5158 -0.0668
  261MOL0     C34331   2.325   8.652   0.547 -0.3889  1.0550  0.7188
  261MOL0     C34332   2.216   8.562   0.491  0.0369  0.1132  0.3137
  261MOL0     C34333   2.068   8.598   0.527 -0.9498  0.4187  0.0215
  261MOL0     C34334   1.975   8.505   0.454  0.6924 -0.4214  0.1637
  261MOL0     C34335   1.832   8.523   0.517 -0.7962 -0.1914  0.7067
  261MOL0     C34336   1.722   8.481   0.408  0.7397 -0.4641  0.2700
  261MOL0     N34337   1.749   8.348   0.350 -0.1951  0.3120  0.1488
  261MOL0     C34338   1.766   8.226   0.417 -0.3219  0.4960  0.1957
  261MOL0     C34339   1.784   8.140   0.312  0.6543  0.3025 -0.1585
  261MOL0     C34340   1.814   7.999   0.334  0.2705 -0.3222  0.2801
  261MOL0     C34341   1.959   7.969   0.278 -0.8538 -0.3797  0.0954
  261MOL0     C34342   2.072   8.039   0.358 -1.0941  0.5780  0.7007
  261MOL0     C34343   2.209   7.998   0.293  0.9101  0.4108  0.1893
  261MOL0     O34344   2.317   8.041   0.382 -0.0030 -0.1395  0.5179
  261MOL0     C34345   2.445   8.041   0.338 -0.1768  0.1615  0.0236
  261MOL0     C34346   2.539   8.080   0.425 -0.4892 -0.1490 -0.3432
  261MOL0     C34347   2.672   8.074   0.388  0.1870  0.4218  0.3472
  261MOL0     C34348   2.714   8.044   0.266  0.0768  0.6337  0.5235
  261MOL0     C34349   2.857   8.053   0.237  0.9707  0.3383  0.4395
  261MOL0     O34350   2.939   8.079   0.334  0.0759 -0.4579 -0.4775
  261MOL0     C34351   3.075   8.083   0.319  0.8339  0.7349 -0.0933
  261MOL0     C34352   3.152   8.178   0.390  0.3062  0.4698 -0.2408
  261MOL0     C34353   3.291   8.169   0.377 -0.6886  0.3511  1.2059
  261MOL0     C34354   3.362   8.079   0.300  1.0364  0.1431 -0.2868
  261MOL0     O34355   3.493   8.076   0.297 -0.2368  0.6424 -0.2740
  261MOL0     C34356   3.562   8.196   0.347  0.2637 -0.8199  0.0819
  261MOL0     C34357   3.704   8.194   0.301 -0.9261 -0.1412  1.2833
  261MOL0     C34358   3.795   8.087   0.369  0.7265  0.6139  0.2880
  261MOL0     C34359   3.944   8.099   0.349 -0.7296 -0.5003  0.2707
  261MOL0     C34360   4.022   7.988   0.418 -1.0191  0.1720 -0.9626
  261MOL0     C34361   4.176   7.999   0.389  0.4870 -0.7552 -0.9041
  261MOL0     C34362   4.230   8.132   0.456  0.6790  0.9875  0.9611
  261MOL0     C34363   4.387   8.131   0.480  1.2406 -0.3580  0.1570
  261MOL0    Cl34364   4.461   8.280   0.541 -0.0086  0.2246 -0.0841
  261MOL0     C34365   3.291   7.979   0.234 -0.4430 -1.0031 -0.0278
  261MOL0     C34366   3.144   7.986   0.240 -0.3119 -0.4853  0.6440
  261MOL0     O34367   2.884   8.039   0.119  0.4156 -0.4664  0.5881
  261MOL0     C34368   2.619   8.002   0.172 -0.7219  0.1580  0.0516
  261MOL0     C34369   2.484   8.000   0.206  0.2920 -0.4163  0.6144
  261MOL0     N34370   1.771   8.209   0.192 -0.6924 -0.1117  0.3390
  261MOL0     N34371   1.761   8.338   0.217  0.0652  0.4232 -0.2635
  261MOL0     C34372   2.733   8.365   0.625  0.2126  0.7666 -0.6167
  261MOL0     C34373   2.862   8.335   0.682 -0.0244  0.4428 -0.0895
  261MOL0     C34374   3.254   8.430   0.949  0.4588  0.5339  0.3100
  261MOL0     C34375   3.320   8.515   1.045 -0.2215 -0.0853  0.2374
  261MOL0     C34376   3.456   8.500   1.069  0.1665 -0.3102 -0.3414
  261MOL0     C34377   3.528   8.408   0.994 -0.9763 -0.5511  0.2443
  261MOL0     O34378   3.655   8.390   1.030  0.4037  0.1682 -0.3977
  261MOL0     C34379   3.759   8.391   0.925  0.3525 -0.5589  0.0647
  261MOL0     C34380   3.868   8.293   0.945 -0.4069 -0.3630 -0.0905
  261MOL0     C34381   3.814   8.146   0.939 -0.7886 -0.7317  0.4662
  261MOL0     C34382   3.919   8.036   0.964 -0.5110 -0.9544  0.0802
  261MOL0     C34383   4.042   8.043   0.882 -0.5597 -0.6245  1.2384
  261MOL0     C34384   4.147   8.044   0.814 -0.3000 -0.0797  0.0303
  261MOL0     C34385   3.459   8.334   0.898 -0.3181 -0.6873 -0.2374
  261MOL0     C34386   3.323   8.338   0.878 -0.4859  0.4726  0.4658
  261MOL0     H34387   2.847   8.564   0.928  1.5479  0.2129  0.1930
  261MOL0     H34388   2.645   8.620   0.805 -0.2855  0.8690 -2.0084
  261MOL0     H34389   2.446   8.468   0.818  4.2241 -0.8283  0.5695
  261MOL0     H34390   2.348   8.398   0.683  0.4001  1.0019 -3.9509
  261MOL0     H34391   2.426   8.700   0.730  0.5201  0.6267 -0.9743
  261MOL0     H34392   2.276   8.629   0.754  2.4108 -1.0735  3.7362
  261MOL0     H34393   2.414   8.635   0.487  0.1420 -2.7675  2.3350
  261MOL0     H34394   2.294   8.757   0.550  2.2734  1.9695 -0.5866
  261MOL0     H34395   2.220   8.573   0.382  0.6096 -0.5916  0.2537
  261MOL0     H34396   2.246   8.459   0.513  1.3613 -0.0460 -1.9213
  261MOL0     H34397   2.039   8.698   0.495 -1.8660  0.0877 -0.2288
  261MOL0     H34398   2.065   8.585   0.635 -1.0499 -1.0843 -0.1424
  261MOL0     H34399   1.999   8.398   0.460  1.3326 -0.4020 -1.4916
  261MOL0     H34400   1.974   8.538   0.350 -1.8958 -0.7996  0.0093
  261MOL0     H34401   1.837   8.468   0.612  1.9236 -3.1019 -0.9280
  261MOL0     H34402   1.796   8.624   0.538 -3.3528 -0.8262 -0.2101
  261MOL0     H34403   1.724   8.556   0.328 -0.2436 -1.1976 -0.4802
  261MOL0     H34404   1.622   8.496   0.449  1.0010  0.8267  0.4609
  261MOL0     H34405   1.789   8.217   0.523  4.5178 -0.8434 -0.7369
  261MOL0     H34406   1.738   7.945   0.277  1.3367 -2.6428  0.9433
  261MOL0     H34407   1.802   7.968   0.439  2.8587 -3.5805 -0.2400
  261MOL0     H34408   1.946   7.989   0.171 -1.1680 -2.2544 -0.2455
  261MOL0     H34409   1.978   7.863   0.296  1.1674  0.0832  0.9373
  261MOL0     H34410   2.062   8.148   0.352  0.6279  0.9356  2.7697
  261MOL0     H34411   2.074   8.005   0.462  0.8824 -0.1366  0.4747
  261MOL0     H34412   2.231   8.057   0.204  2.3975  0.6036  0.6568
  261MOL0     H34413   2.211   7.892   0.263  3.2005 -0.8031  3.9245
  261MOL0     H34414   2.519   8.091   0.531 -0.9687 -1.2698 -0.2993
  261MOL0     H34415   2.745   8.112   0.459  0.4328 -3.0636  2.1765
  261MOL0     H34416   3.095   8.252   0.446 -2.8863 -0.8949 -1.4035
  261MOL0     H34417   3.349   8.247   0.427  0.0258  1.7021 -1.5488
  261MOL0     H34418   3.573   8.204   0.456  2.4310  1.1642 -0.2074
  261MOL0     H34419   3.516   8.285   0.306 -1.4642 -2.4133 -1.6180
  261MOL0     H34420   3.759   8.286   0.325 -0.7736 -0.0792  0.7133
  261MOL0     H34421   3.708   8.183   0.192 -0.4640  1.2212  1.1381
  261MOL0     H34422   3.772   7.994   0.316 -0.0364  0.3074  1.1304
  261MOL0     H34423   3.767   8.079   0.474  1.9223  2.6322  0.8249
  261MOL0     H34424   3.968   8.084   0.244  2.4155  1.0041  0.6349
  261MOL0     H34425   3.985   8.195   0.382 -2.0684 -0.3970  1.7217
  261MOL0     H34426   3.982   7.889   0.393 -1.5727  0.1883 -0.1984
  261MOL0     H34427   4.005   8.000   0.526 -1.2539  0.9182 -1.0761
  261MOL0     H34428   4.202   8.002   0.283  2.6542 -1.1585 -0.4365
  261MOL0     H34429   4.215   7.907   0.435 -3.9256 -1.4059  2.1559
  261MOL0     H34430   4.217   8.213   0.384 -2.2105 -1.1205 -1.0864
  261MOL0     H34431   4.181   8.155   0.552  0.1513 -0.8518  1.1576
  261MOL0     H34432   4.435   8.115   0.384 -1.4956 -1.6460 -1.1034
  261MOL0     H34433   4.412   8.042   0.539 -1.2015 -0.8140  0.6073
  261MOL0     H34434   3.343   7.896   0.187 -1.3630 -1.0776 -0.9418
  261MOL0     H34435   3.099   7.894   0.203 -0.3058  0.0855 -0.8894
  261MOL0     H34436   2.643   7.980   0.069  0.1127 -0.6119  0.3943
  261MOL0     H34437   2.418   7.981   0.122 -1.2386  0.6563  1.5363
  261MOL0     H34438   2.688   8.298   0.553 -0.7614  2.2467 -1.4398
  261MOL0     H34439   2.934   8.269   0.635  1.6739  2.2069 -0.1031
  261MOL0     H34440   3.269   8.587   1.107  0.8054  0.1522  0.8208
  261MOL0     H34441   3.519   8.571   1.122 -1.4407  0.9526 -0.0537
  261MOL0     H34442   3.798   8.493   0.912 -0.7484 -0.0848  0.3911
  261MOL0     H34443   3.712   8.367   0.829  0.2574 -0.7266  0.1533
  261MOL0     H34444   3.938   8.316   0.864  0.4383 -1.7088  0.2156
  261MOL0     H34445   3.923   8.321   1.036  0.5698 -1.0436 -0.4576
  261MOL0     H34446   3.792   8.133   0.833  3.4191 -0.4801 -0.6004
  261MOL0     H34447   3.719   8.135   0.993 -0.2412 -0.2012  1.5729
  261MOL0     H34448   3.947   8.028   1.070 -0.4384 -4.7446 -0.0982
  261MOL0     H34449   3.870   7.941   0.940  0.8357 -1.8235  0.6083
  261MOL0     H34450   4.235   8.046   0.753 -0.4667  1.7632 -0.1831
  261MOL0     H34451   3.518   8.259   0.847 -0.4729 -2.0109  1.4323
  261MOL0     H34452   3.266   8.267   0.819 -1.5535  0.0729  1.9235
  262MOL0     O34453   6.594   0.016   8.056 -0.0587 -0.1368 -0.8621
  262MOL0     C34454   6.511  -0.003   7.966 -1.0304 -0.3056  0.1507
  262MOL0     O34455   6.530  -0.086   7.851 -0.1813 -0.2372  0.3383
  262MOL0     C34456   6.665  -0.127   7.837  0.0748 -0.5914  0.2326
  262MOL0     C34457   6.739  -0.044   7.741  1.0535  0.3108 -0.2312
  262MOL0     C34458   6.870  -0.070   7.724  0.1359  0.1330 -0.0103
  262MOL0     C34459   6.935  -0.170   7.805 -1.1853  0.0742  0.8012
  262MOL0     O34460   7.075  -0.180   7.781 -0.1162  0.1809  0.2603
  262MOL0     C34461   7.154  -0.269   7.860  0.2665  0.3629  0.7058
  262MOL0     C34462   7.297  -0.260   7.802 -0.0053  0.5953 -0.9454
  262MOL0     C34463   7.391  -0.349   7.873 -0.2272  0.4561  0.2023
  262MOL0     C34464   7.521  -0.335   7.795 -0.0530 -0.2768  0.2499
  262MOL0     C34465   7.607  -0.450   7.846  0.4229  0.1380  0.5755
  262MOL0     C34466   7.744  -0.414   7.867  0.4219 -1.3711  0.1465
  262MOL0     C34467   7.836  -0.522   7.915  0.4790 -0.1304 -0.1357
  262MOL0     C34468   7.983  -0.483   7.906  0.2535 -1.0861 -0.5536
  262MOL0     N34469   8.065  -0.603   7.890 -0.4957  0.3505 -0.1316
  262MOL0     C34470   8.104  -0.664   7.773  1.3807  0.1091  0.2760
  262MOL0     C34471   8.170  -0.780   7.802 -0.0485 -0.5200 -0.6190
  262MOL0     C34472   8.230  -0.874   7.702  0.0061  0.5370  0.2039
  262MOL0     C34473   8.130  -0.970   7.647 -0.6679 -0.3453 -0.2709
  262MOL0     C34474   8.195  -1.034   7.522 -0.2298 -0.1422 -0.3663
  262MOL0     C34475   8.088  -1.101   7.433  0.0610 -0.1085 -0.6260
  262MOL0     O34476   8.017  -0.993   7.366  0.6240  0.4213  0.4316
  262MOL0     C34477   7.884  -1.006   7.340 -0.1268  0.0090  0.1341
  262MOL0     C34478   7.806  -1.126   7.348 -0.3926  1.0831  0.4586
  262MOL0     C34479   7.669  -1.128   7.318 -0.1959  0.1413 -0.4444
  262MOL0     C34480   7.605  -1.006   7.287  0.7003 -0.5020 -0.3820
  262MOL0     C34481   7.458  -1.010   7.261 -0.6140  0.0795  0.7786
  262MOL0     O34482   7.401  -0.918   7.178  0.3457  0.0004 -0.4868
  262MOL0     C34483   7.275  -0.931   7.136  0.7433  0.0291  0.0797
  262MOL0     C34484   7.224  -1.033   7.059  0.4246  0.2293  0.1216
  262MOL0     C34485   7.087  -1.051   7.019 -1.0603  0.7704  0.7155
  262MOL0     C34486   6.998  -0.952   7.057 -0.7462  0.1163  0.4669
  262MOL0     O34487   6.875  -0.969   7.004 -0.0155  0.3753  0.1231
  262MOL0     C34488   6.790  -0.864   6.978 -0.1672 -0.0904  0.0342
  262MOL0     C34489   6.664  -0.914   6.914  0.0568 -0.6724  0.8379
  262MOL0     C34490   6.571  -0.984   7.011  0.4595 -0.2975 -0.4712
  262MOL0     C34491   6.426  -1.009   6.972 -0.2349 -0.2369 -0.2672
  262MOL0     C34492   6.344  -1.043   7.099 -0.2707 -0.7188 -0.0320
  262MOL0     C34493   6.208  -1.086   7.082  1.4256  0.3250 -0.6942
  262MOL0     C34494   6.128  -1.037   6.956 -0.8378  0.6999 -0.6664
  262MOL0     C34495   5.977  -1.075   6.960 -0.0199  0.1486  0.3614
  262MOL0    Cl34496   5.879  -1.015   6.820  0.1237 -0.5221 -0.1428
  262MOL0     C34497   7.042  -0.841   7.138  0.6050  0.5845 -0.4310
  262MOL0     C34498   7.176  -0.835   7.179  0.2449 -0.3143  0.6811
  262MOL0     O34499   7.403  -1.115   7.296 -0.2814  0.2179  0.4335
  262MOL0     C34500   7.681  -0.883   7.276 -0.6223 -0.2495 -0.2290
  262MOL0     C34501   7.825  -0.882   7.300  0.4429  0.2036  0.0225
  262MOL0     N34502   8.182  -0.776   7.935  0.0929  0.3931 -0.3850
  262MOL0     N34503   8.119  -0.680   7.986 -0.0965 -0.8404 -0.6964
  262MOL0     C34504   6.865  -0.259   7.893  0.7858  0.0219  0.2836
  262MOL0     C34505   6.724  -0.230   7.905  0.6579  0.1016 -0.7059
  262MOL0     C34506   6.368   0.040   7.985  0.1625 -0.9006 -0.1650
  262MOL0     C34507   6.269  -0.056   8.005  0.9460  0.2938 -0.5106
  262MOL0     C34508   6.132  -0.016   8.008 -0.2250 -0.5881 -0.2271
  262MOL0     C34509   6.098   0.121   8.004 -0.0336  0.2738  0.0512
  262MOL0     O34510   5.974   0.173   8.032  0.3490  0.7413 -0.3292
  262MOL0     C34511   5.926   0.115   8.156  0.2497 -0.6825  0.2871
  262MOL0     C34512   5.811   0.209   8.212 -0.2267  0.4025  0.3988
  262MOL0     C34513   5.763   0.310   8.117  0.6758 -0.5961 -0.5162
  262MOL0     C34514   5.628   0.368   8.156 -0.0716  0.4136 -0.0970
  262MOL0     C34515   5.558   0.424   8.040 -0.3617 -1.5885 -0.7538
  262MOL0     C34516   5.504   0.463   7.946  0.0485 -0.6192  0.0092
  262MOL0     C34517   6.201   0.211   7.978 -0.1437 -0.2326  0.3370
  262MOL0     C34518   6.336   0.169   7.966  0.3220 -0.2659  0.2103
  262MOL0     H34519   6.681   0.026   7.682 -1.0720 -0.8805  0.3326
  262MOL0     H34520   6.930  -0.012   7.655 -1.0269 -0.5060 -1.6005
  262MOL0     H34521   7.118  -0.372   7.865  2.9483 -0.7443 -0.4921
  262MOL0     H34522   7.164  -0.231   7.962 -2.5063  2.1667  0.4260
  262MOL0     H34523   7.339  -0.159   7.811  1.8835 -0.3787  2.4936
  262MOL0     H34524   7.296  -0.294   7.698  0.0373 -1.7569 -0.2340
  262MOL0     H34525   7.341  -0.446   7.864  2.1388 -0.8108 -0.1766
  262MOL0     H34526   7.402  -0.325   7.979 -1.4161  0.0486  0.4313
  262MOL0     H34527   7.502  -0.350   7.688 -3.2626 -1.2544  0.8487
  262MOL0     H34528   7.565  -0.237   7.817  2.3808 -0.4721 -2.9799
  262MOL0     H34529   7.606  -0.525   7.767 -0.5951 -0.2902  0.9881
  262MOL0     H34530   7.563  -0.497   7.934 -2.2834 -0.1186 -0.8139
  262MOL0     H34531   7.760  -0.330   7.936  0.2212 -1.0107 -0.2438
  262MOL0     H34532   7.782  -0.390   7.768  2.4963 -2.1549  0.6955
  262MOL0     H34533   7.813  -0.542   8.021 -1.5630  0.8460 -0.3418
  262MOL0     H34534   7.822  -0.609   7.850 -1.7214 -1.0749  1.4619
  262MOL0     H34535   8.008  -0.411   7.984  1.6274 -0.6604 -1.3470
  262MOL0     H34536   7.989  -0.427   7.812  0.0196  0.6049  0.4025
  262MOL0     H34537   8.085  -0.624   7.673  4.7409  2.4899  0.4038
  262MOL0     H34538   8.313  -0.922   7.754 -0.4399  0.6362  1.0340
  262MOL0     H34539   8.256  -0.809   7.618 -3.6917  3.8325  1.3307
  262MOL0     H34540   8.043  -0.911   7.616 -1.7447 -0.4792  2.2430
  262MOL0     H34541   8.106  -1.041   7.727  0.2676  0.9084  1.1861
  262MOL0     H34542   8.256  -0.964   7.464  0.5075  0.1966  0.7879
  262MOL0     H34543   8.271  -1.105   7.555 -0.6175 -1.2120 -1.6671
  262MOL0     H34544   8.025  -1.163   7.497 -1.7909 -1.1482 -3.2780
  262MOL0     H34545   8.128  -1.173   7.361  0.1239  2.7432 -3.7471
  262MOL0     H34546   7.863  -1.217   7.368  3.0976  3.1018  0.4205
  262MOL0     H34547   7.612  -1.220   7.322  0.6144 -0.5006 -2.6559
  262MOL0     H34548   7.294  -1.113   7.036  0.6747  0.9672 -1.8927
  262MOL0     H34549   7.055  -1.144   6.974  0.4352  0.7485 -0.3708
  262MOL0     H34550   6.842  -0.798   6.907  1.6724 -0.6698  0.7719
  262MOL0     H34551   6.763  -0.812   7.071  0.4239 -1.1218  0.7982
  262MOL0     H34552   6.680  -0.972   6.823 -1.4426  2.8474 -1.8710
  262MOL0     H34553   6.611  -0.826   6.877  2.4841  1.5392  2.3349
  262MOL0     H34554   6.572  -0.925   7.103 -1.1969  4.0756 -2.9597
  262MOL0     H34555   6.612  -1.083   7.034 -0.1328  0.0639  2.5181
  262MOL0     H34556   6.375  -0.928   6.919 -1.8952 -0.8883  0.2401
  262MOL0     H34557   6.432  -1.096   6.906  1.8809 -1.8379  1.9077
  262MOL0     H34558   6.335  -0.951   7.157 -0.5207  1.4523 -3.2791
  262MOL0     H34559   6.389  -1.117   7.166 -1.0469 -0.4977  0.7623
  262MOL0     H34560   6.144  -1.069   7.169 -0.0383 -2.1469 -1.1905
  262MOL0     H34561   6.204  -1.195   7.074  1.1850 -0.2624  4.4272
  262MOL0     H34562   6.135  -0.928   6.958  0.4850  0.6232 -0.2895
  262MOL0     H34563   6.172  -1.078   6.865  0.3392 -1.8085  0.9010
  262MOL0     H34564   5.920  -1.035   7.045 -1.7151 -4.3354  1.6057
  262MOL0     H34565   5.968  -1.183   6.971 -2.5112  0.0268 -1.8731
  262MOL0     H34566   6.978  -0.755   7.158  1.0988  0.4438  2.1705
  262MOL0     H34567   7.208  -0.745   7.231 -0.4865 -0.7931  2.0162
  262MOL0     H34568   7.618  -0.797   7.251 -2.4938 -1.8211 -1.1514
  262MOL0     H34569   7.893  -0.799   7.285  0.4347  0.2719  0.3483
  262MOL0     H34570   6.902  -0.343   7.950  1.4954 -0.2742 -0.5977
  262MOL0     H34571   6.665  -0.287   7.976  0.7324  1.9437  0.9581
  262MOL0     H34572   6.279  -0.164   8.008  3.1038  0.3505 -2.5021
  262MOL0     H34573   6.056  -0.086   8.040  1.5655 -0.7321  4.5148
  262MOL0     H34574   6.004   0.113   8.232  2.9096 -0.3713 -2.2648
  262MOL0     H34575   5.898   0.015   8.122 -0.2553  0.1588 -2.0144
  262MOL0     H34576   5.739   0.133   8.247 -2.0129  1.1514 -1.4404
  262MOL0     H34577   5.841   0.252   8.308 -1.3493 -3.7271  2.8645
  262MOL0     H34578   5.747   0.259   8.021 -1.0686  0.3200 -0.7488
  262MOL0     H34579   5.835   0.392   8.113 -0.8205  0.8204  0.5117
  262MOL0     H34580   5.557   0.292   8.187  0.7028 -0.2517  0.0860
  262MOL0     H34581   5.644   0.445   8.233 -0.1759  0.8785 -0.5376
  262MOL0     H34582   5.446   0.508   7.868  1.8403  0.9245 -0.4988
  262MOL0     H34583   6.171   0.314   7.963 -0.6270 -0.4450 -0.2173
  262MOL0     H34584   6.411   0.248   7.959  0.1462  0.0205  1.3097
  263MOL0     O34585   2.129   6.552   1.428  0.2764 -0.0792  0.3989
  263MOL0     C34586   2.091   6.524   1.316 -0.4344 -0.4927  0.1562
  263MOL0     O34587   1.963   6.500   1.270  0.2274  0.8697 -0.5049
  263MOL0     C34588   1.857   6.553   1.331  0.9970 -1.2167  0.2421
  263MOL0     C34589   1.748   6.465   1.361 -1.4677  0.9121  0.1679
  263MOL0     C34590   1.635   6.518   1.423  0.1036  0.4376 -0.1948
  263MOL0     C34591   1.632   6.653   1.465  0.2444  0.1976  0.7267
  263MOL0     O34592   1.527   6.711   1.538 -0.3609 -0.2972  0.4345
  263MOL0     C34593   1.564   6.799   1.637  0.6729  0.8954 -1.6420
  263MOL0     C34594   1.434   6.853   1.693  1.1336  0.0935 -0.5849
  263MOL0     C34595   1.435   6.971   1.795 -0.9703 -0.2840  0.4574
  263MOL0     C34596   1.520   7.089   1.735  0.5021  0.0581  0.7022
  263MOL0     C34597   1.527   7.208   1.820  0.2868 -0.1411  0.4210
  263MOL0     C34598   1.403   7.304   1.800  0.4853  0.4363  0.3098
  263MOL0     C34599   1.377   7.434   1.882  0.0552  0.2099 -0.1883
  263MOL0     C34600   1.247   7.513   1.854  0.1918 -0.8346 -1.0073
  263MOL0     N34601   1.135   7.485   1.944 -0.8796  0.5225  0.1138
  263MOL0     C34602   1.143   7.414   2.061  0.9418 -0.4093  0.0150
  263MOL0     C34603   1.017   7.410   2.107 -0.7680 -0.1121 -0.4562
  263MOL0     C34604   0.954   7.344   2.222  0.0751 -0.5192 -0.2145
  263MOL0     C34605   0.894   7.220   2.164  0.6138 -0.0420  0.5193
  263MOL0     C34606   1.004   7.110   2.150  0.2210 -0.0372  0.6603
  263MOL0     C34607   1.024   7.052   2.290 -0.1282  0.0718  0.0569
  263MOL0     O34608   1.124   7.124   2.370 -0.3256  0.5968  0.7177
  263MOL0     C34609   1.262   7.111   2.342 -0.0829  0.0963 -0.3480
  263MOL0     C34610   1.342   7.195   2.420  0.4698 -0.4252 -0.4403
  263MOL0     C34611   1.474   7.210   2.398 -0.4555  0.5576 -0.5642
  263MOL0     C34612   1.537   7.127   2.305 -0.6940 -0.7483 -0.1715
  263MOL0     C34613   1.678   7.145   2.277  1.0108  0.1583  0.8504
  263MOL0     O34614   1.729   7.058   2.178  0.0129 -0.7489 -0.1393
  263MOL0     C34615   1.856   7.079   2.126  0.8088 -0.1242  0.3935
  263MOL0     C34616   1.869   7.167   2.024  1.3133 -0.2162  0.3338
  263MOL0     C34617   1.996   7.183   1.962  0.7909 -0.5292  0.4065
  263MOL0     C34618   2.100   7.096   1.988  0.2218 -0.0369  0.7652
  263MOL0     O34619   2.230   7.104   1.939 -0.5349  0.2633 -0.1757
  263MOL0     C34620   2.259   7.192   1.829  0.5296  0.4093  0.7377
  263MOL0     C34621   2.407   7.230   1.806 -0.3995 -0.8355  0.5781
  263MOL0     C34622   2.467   7.320   1.913 -0.4318 -0.0585  0.3424
  263MOL0     C34623   2.595   7.387   1.883 -0.3553  0.2640  0.3384
  263MOL0     C34624   2.628   7.472   2.005  0.0411 -0.2370 -0.2327
  263MOL0     C34625   2.734   7.586   1.983  0.0491 -0.1372 -0.9416
  263MOL0     C34626   2.683   7.701   1.902  1.0163  0.4952  0.6754
  263MOL0     C34627   2.751   7.829   1.922  0.9659  0.1396  0.1981
  263MOL0    Cl34628   2.700   7.896   2.082 -0.1890  0.0835  0.4389
  263MOL0     C34629   2.091   7.005   2.089  0.5391  0.8265  0.0986
  263MOL0     C34630   1.964   6.995   2.149  0.5674  0.1624 -0.2269
  263MOL0     O34631   1.741   7.235   2.338  0.2906  0.4924  0.5661
  263MOL0     C34632   1.464   7.033   2.230 -0.3785 -0.4369  0.2195
  263MOL0     C34633   1.330   7.024   2.249  1.6273 -0.0623 -1.2618
  263MOL0     N34634   0.935   7.493   2.025 -0.3183  0.1270  0.3689
  263MOL0     N34635   1.007   7.537   1.929  0.2194 -0.5239  0.3345
  263MOL0     C34636   1.739   6.732   1.426 -0.0645  0.3435  1.2152
  263MOL0     C34637   1.856   6.687   1.373 -0.2108  0.2951 -0.1291
  263MOL0     C34638   2.202   6.492   1.215  0.3733  0.1994 -0.4954
  263MOL0     C34639   2.172   6.439   1.094  0.4829 -0.7502  0.0391
  263MOL0     C34640   2.271   6.421   1.000 -0.6245  0.9537  1.0037
  263MOL0     C34641   2.406   6.438   1.028  0.0949 -0.5834  1.0556
  263MOL0     O34642   2.497   6.403   0.938  0.1324  0.4187  0.3507
  263MOL0     C34643   2.635   6.425   0.952 -1.0553 -0.5228  0.7015
  263MOL0     C34644   2.707   6.427   0.813 -0.4560  0.5784 -0.1145
  263MOL0     C34645   2.657   6.529   0.708 -0.2039 -0.3273 -0.6353
  263MOL0     C34646   2.739   6.551   0.584 -0.2092 -0.5526  0.2320
  263MOL0     C34647   2.697   6.683   0.531 -0.5175 -0.2832 -0.1626
  263MOL0     C34648   2.660   6.795   0.503  0.1817 -0.8139  0.7951
  263MOL0     C34649   2.431   6.519   1.144 -0.4017 -0.1885  0.2050
  263MOL0     C34650   2.336   6.541   1.240  0.0235  0.0823  0.3788
  263MOL0     H34651   1.760   6.360   1.335 -0.5704  0.7981  0.9852
  263MOL0     H34652   1.549   6.455   1.443  0.4935 -0.0363  0.0130
  263MOL0     H34653   1.633   6.874   1.597  2.8561  0.0165  0.2608
  263MOL0     H34654   1.615   6.741   1.715 -2.2921 -0.3439 -0.4713
  263MOL0     H34655   1.391   6.769   1.749 -0.0347  0.9440 -0.1697
  263MOL0     H34656   1.367   6.877   1.610  0.9793 -1.0351 -0.8039
  263MOL0     H34657   1.480   6.940   1.889  1.7417 -0.5383 -0.8327
  263MOL0     H34658   1.330   6.998   1.811 -0.9337 -0.2074  0.5617
  263MOL0     H34659   1.623   7.060   1.712 -0.4307 -0.5595 -3.4023
  263MOL0     H34660   1.470   7.111   1.641  1.1383 -1.2866  0.0209
  263MOL0     H34661   1.617   7.266   1.797 -2.1854  3.6265 -0.6447
  263MOL0     H34662   1.524   7.186   1.927 -0.8213  0.8928  0.6254
  263MOL0     H34663   1.322   7.231   1.810  0.4075  0.5833  0.7536
  263MOL0     H34664   1.400   7.335   1.695  0.7376 -1.4061 -0.2890
  263MOL0     H34665   1.385   7.415   1.990  0.7020 -2.0508 -0.5851
  263MOL0     H34666   1.459   7.502   1.857 -1.8148  2.9454  0.7247
  263MOL0     H34667   1.214   7.496   1.751  0.3156 -0.8495 -1.0439
  263MOL0     H34668   1.268   7.619   1.869  1.6811 -1.3959  1.4546
  263MOL0     H34669   1.235   7.377   2.104  1.5241  0.7045 -0.2199
  263MOL0     H34670   0.880   7.422   2.240  1.8535  2.3897 -4.0029
  263MOL0     H34671   1.027   7.337   2.303  0.5497  1.5387 -0.4083
  263MOL0     H34672   0.846   7.246   2.069 -2.2224 -3.0110  0.9469
  263MOL0     H34673   0.809   7.187   2.225  0.1471 -0.9176 -0.5734
  263MOL0     H34674   0.954   7.046   2.077 -1.9000  3.6637 -1.3938
  263MOL0     H34675   1.094   7.146   2.101 -0.3163 -0.9089 -1.0275
  263MOL0     H34676   1.046   6.945   2.287  0.8826  0.2306  1.0057
  263MOL0     H34677   0.939   7.045   2.359  1.7451 -1.4802  2.3781
  263MOL0     H34678   1.299   7.246   2.506  2.3636  0.3454  0.1100
  263MOL0     H34679   1.529   7.283   2.456 -1.2547  0.4527  0.3438
  263MOL0     H34680   1.786   7.231   1.997  1.3960 -1.2403 -2.7999
  263MOL0     H34681   1.997   7.260   1.885 -2.3134  0.0684  0.8444
  263MOL0     H34682   2.213   7.285   1.864  2.8132  2.1281 -0.5299
  263MOL0     H34683   2.208   7.158   1.739 -0.1154  4.0958 -0.4664
  263MOL0     H34684   2.399   7.281   1.710 -2.0595  0.1305  1.1853
  263MOL0     H34685   2.472   7.142   1.796  2.8764  1.5721 -0.7545
  263MOL0     H34686   2.470   7.248   1.995 -1.2662 -1.2303 -0.6200
  263MOL0     H34687   2.392   7.396   1.938 -0.9691 -0.6662  0.6027
  263MOL0     H34688   2.668   7.318   1.840  1.6823  2.6252 -0.2210
  263MOL0     H34689   2.576   7.445   1.793 -0.7476 -2.9333 -1.8095
  263MOL0     H34690   2.660   7.415   2.092 -2.7286  0.1542  1.1425
  263MOL0     H34691   2.536   7.523   2.036  0.4998 -0.8723  2.3864
  263MOL0     H34692   2.825   7.550   1.934  0.7177 -0.5990  0.5679
  263MOL0     H34693   2.757   7.618   2.085  0.1846 -1.5821 -0.4924
  263MOL0     H34694   2.689   7.683   1.795 -1.6666 -1.3711  0.7518
  263MOL0     H34695   2.575   7.720   1.910  0.2741 -2.9228  0.0226
  263MOL0     H34696   2.716   7.907   1.854 -0.0517  0.3896  0.9710
  263MOL0     H34697   2.859   7.810   1.921  0.5932 -2.3974  0.0595
  263MOL0     H34698   2.173   6.939   2.116  0.0432 -0.7052 -1.8852
  263MOL0     H34699   1.958   6.943   2.244  1.6331 -2.1926 -1.3542
  263MOL0     H34700   1.511   6.972   2.154  0.7535  0.5416  0.1018
  263MOL0     H34701   1.271   6.967   2.178  0.0053  1.8203 -1.5425
  263MOL0     H34702   1.740   6.837   1.453 -1.1614  0.7523 -0.2209
  263MOL0     H34703   1.931   6.757   1.339 -1.7158  1.9605 -0.2085
  263MOL0     H34704   2.070   6.408   1.073  0.3352 -1.5015  1.6782
  263MOL0     H34705   2.240   6.366   0.911  3.1679 -0.0533  0.1344
  263MOL0     H34706   2.668   6.349   1.022  2.2584 -0.5618 -0.7170
  263MOL0     H34707   2.644   6.527   0.992 -1.6211  1.4173 -3.5169
  263MOL0     H34708   2.809   6.456   0.839  0.1594 -1.5159 -0.0136
  263MOL0     H34709   2.699   6.326   0.772 -0.0438 -0.7056  2.7270
  263MOL0     H34710   2.653   6.621   0.768  1.7697 -1.6425  1.6947
  263MOL0     H34711   2.558   6.499   0.671 -0.5474 -2.6036  1.8740
  263MOL0     H34712   2.847   6.547   0.602  0.2213 -2.2295 -2.2627
  263MOL0     H34713   2.711   6.480   0.505 -1.1770  0.6454 -0.5407
  263MOL0     H34714   2.614   6.889   0.479 -2.7226 -2.5076 -0.7393
  263MOL0     H34715   2.535   6.543   1.165  1.3403 -3.0588 -3.8345
  263MOL0     H34716   2.366   6.593   1.331  1.9695  0.7532 -0.5831
  264MOL0     O34717   9.222   0.747   5.204  0.4244 -0.2402  0.8292
  264MOL0     C34718   9.233   0.832   5.290 -0.0523 -1.0020 -1.9013
  264MOL0     O34719   9.138   0.904   5.346 -0.5009  0.1358  0.2224
  264MOL0     C34720   9.010   0.900   5.303  0.8394  0.3939 -0.1588
  264MOL0     C34721   8.967   0.892   5.179  0.6295 -0.2603  0.0162
  264MOL0     C34722   8.828   0.908   5.148 -0.8119  0.0485  0.6509
  264MOL0     C34723   8.738   0.939   5.245  0.4178  0.9100 -1.3046
  264MOL0     O34724   8.602   0.960   5.210 -0.3878 -0.4602  0.2125
  264MOL0     C34725   8.512   0.916   5.305  0.2139  0.4406  0.3812
  264MOL0     C34726   8.376   0.909   5.224 -0.6873 -0.3422  0.0810
  264MOL0     C34727   8.405   0.813   5.106  0.7592 -0.4318  0.1492
  264MOL0     C34728   8.290   0.778   5.006 -0.4547  0.8343  0.5139
  264MOL0     C34729   8.160   0.724   5.081  0.5386 -0.0683 -0.3539
  264MOL0     C34730   8.036   0.731   4.984 -0.1642 -0.6734 -0.5383
  264MOL0     C34731   7.905   0.657   5.043 -0.2207 -0.0278  0.9297
  264MOL0     C34732   7.798   0.666   4.940  0.3781 -0.4202  0.3468
  264MOL0     N34733   7.664   0.625   4.993 -0.6155 -1.1067  0.0965
  264MOL0     C34734   7.617   0.502   4.977  0.6557  0.7736 -0.7010
  264MOL0     C34735   7.492   0.505   5.038 -0.1826 -0.0796  0.6378
  264MOL0     C34736   7.388   0.390   5.055 -0.7454  1.2228  0.0558
  264MOL0     C34737   7.246   0.421   4.999 -0.6232 -1.1975 -0.2975
  264MOL0     C34738   7.137   0.326   5.055 -0.1435  0.0011 -0.1468
  264MOL0     C34739   6.998   0.377   4.996 -1.1286  0.2107 -1.0403
  264MOL0     O34740   6.900   0.284   5.045  0.0478  0.2454 -0.7396
  264MOL0     C34741   6.771   0.313   5.009 -0.4215  0.2686  0.3068
  264MOL0     C34742   6.734   0.434   4.948 -1.1788  0.5237  0.3721
  264MOL0     C34743   6.599   0.456   4.920 -0.7796  0.2235  0.3848
  264MOL0     C34744   6.504   0.367   4.960 -0.1257  0.5881  0.5060
  264MOL0     C34745   6.354   0.400   4.953 -0.5821  0.5662  0.1562
  264MOL0     O34746   6.323   0.532   4.937 -0.2345 -0.0959 -0.0779
  264MOL0     C34747   6.195   0.584   4.972  0.0613  0.0946  0.5790
  264MOL0     C34748   6.178   0.726   4.968 -0.1244 -0.2347  0.2989
  264MOL0     C34749   6.058   0.793   4.994  0.6187 -0.5475 -0.0544
  264MOL0     C34750   5.941   0.713   5.017 -0.9721 -0.1825  0.0478
  264MOL0     O34751   5.829   0.782   5.032  0.0839  0.1732 -0.5043
  264MOL0     C34752   5.701   0.710   5.042  0.2118  0.5768 -0.5005
  264MOL0     C34753   5.582   0.809   5.049 -0.2761 -0.6884  0.3756
  264MOL0     C34754   5.453   0.754   4.996 -0.3679  0.9823  0.3575
  264MOL0     C34755   5.334   0.854   5.007 -0.1718  0.1080 -0.9500
  264MOL0     C34756   5.198   0.809   4.932 -0.3520 -0.2866 -0.6091
  264MOL0     C34757   5.146   0.664   4.966 -0.2361  0.9147 -0.1183
  264MOL0     C34758   5.005   0.656   4.921  1.0122  0.6762 -0.6226
  264MOL0     C34759   4.973   0.639   4.779 -0.0829  0.8674  0.5706
  264MOL0    Cl34760   4.962   0.469   4.722  0.4756  0.0616  0.0188
  264MOL0     C34761   5.954   0.571   5.018 -0.2083  0.2506 -0.0090
  264MOL0     C34762   6.078   0.509   4.996  0.4920 -0.4725 -0.3794
  264MOL0     O34763   6.272   0.312   4.958 -0.4537  0.2307  0.1713
  264MOL0     C34764   6.542   0.236   5.008  0.1183 -1.9512  0.3790
  264MOL0     C34765   6.680   0.213   5.038  0.1849  0.4033  0.2040
  264MOL0     N34766   7.480   0.630   5.104 -0.4753  0.4832  1.0015
  264MOL0     N34767   7.586   0.696   5.086 -0.7496 -0.3020  0.0812
  264MOL0     C34768   8.781   0.952   5.373 -0.5621 -0.4302 -0.5629
  264MOL0     C34769   8.916   0.925   5.406  1.0542 -0.2957 -0.5282
  264MOL0     C34770   9.370   0.874   5.340 -0.1408 -0.1284 -0.1912
  264MOL0     C34771   9.389   0.955   5.463 -0.1239 -0.1305  0.5333
  264MOL0     C34772   9.517   0.986   5.516 -0.6479  0.9119 -1.5275
  264MOL0     C34773   9.630   0.929   5.454 -0.0645  0.0732 -0.4204
  264MOL0     O34774   9.753   0.929   5.517  0.0950 -0.3466 -0.0068
  264MOL0     C34775   9.784   0.998   5.643  0.3114  0.3393  0.1245
  264MOL0     C34776   9.927   0.962   5.687 -0.1959  0.1756  0.6846
  264MOL0     C34777  10.032   1.019   5.584  1.3022 -0.1948  0.4491
  264MOL0     C34778  10.168   0.981   5.638 -0.2686  0.2756 -0.1171
  264MOL0     C34779  10.266   1.055   5.553 -0.8768  0.1687 -0.1232
  264MOL0     C34780  10.334   1.114   5.469  1.1582  0.0752  0.2633
  264MOL0     C34781   9.615   0.864   5.331 -0.8843  0.8470  1.3637
  264MOL0     C34782   9.490   0.838   5.276 -0.2701 -0.2963 -0.0275
  264MOL0     H34783   9.040   0.871   5.101 -1.0177 -0.4642 -1.5619
  264MOL0     H34784   8.800   0.891   5.045 -0.5636  0.7825  0.4609
  264MOL0     H34785   8.500   0.988   5.386  2.5983  1.7901 -0.3425
  264MOL0     H34786   8.535   0.815   5.341 -1.1592  0.7002  2.1107
  264MOL0     H34787   8.347   1.010   5.195 -0.6182  0.5602  2.8428
  264MOL0     H34788   8.298   0.872   5.292 -2.3414  2.9256  0.1348
  264MOL0     H34789   8.443   0.717   5.142  1.8000  0.7289  2.3152
  264MOL0     H34790   8.491   0.853   5.051 -0.5642  1.9243 -0.3561
  264MOL0     H34791   8.274   0.870   4.948  0.1705  0.5735 -0.0889
  264MOL0     H34792   8.329   0.698   4.943 -1.8205  1.9049 -1.8162
  264MOL0     H34793   8.134   0.791   5.164  0.4330 -0.0463 -0.4037
  264MOL0     H34794   8.175   0.631   5.136 -0.6477 -0.2890 -0.3687
  264MOL0     H34795   8.057   0.685   4.887  1.8513 -1.7431  0.3412
  264MOL0     H34796   8.022   0.837   4.962 -1.3498 -0.2904  1.8083
  264MOL0     H34797   7.930   0.553   5.067  3.5261  0.6101  0.4292
  264MOL0     H34798   7.880   0.708   5.136  2.4638 -0.1552  1.7867
  264MOL0     H34799   7.825   0.599   4.858  0.5940 -0.5429  0.5202
  264MOL0     H34800   7.803   0.771   4.908  1.7432 -1.4815 -3.6140
  264MOL0     H34801   7.646   0.412   4.923 -0.1578  0.5888 -0.8387
  264MOL0     H34802   7.381   0.362   5.161 -1.5624 -1.2973 -0.5814
  264MOL0     H34803   7.430   0.301   5.007 -2.7439  0.2006  0.0878
  264MOL0     H34804   7.257   0.426   4.891 -2.1440 -0.3707 -0.4430
  264MOL0     H34805   7.211   0.520   5.029 -0.0997 -0.8408 -0.8544
  264MOL0     H34806   7.173   0.227   5.025  2.0547  0.9698 -0.9508
  264MOL0     H34807   7.130   0.307   5.163 -0.7752 -5.7535 -0.8697
  264MOL0     H34808   7.002   0.362   4.888 -3.0805  0.9972 -1.2532
  264MOL0     H34809   6.977   0.481   5.020  1.3274  1.1452 -2.5666
  264MOL0     H34810   6.793   0.522   4.925  1.5472 -1.5064 -0.8627
  264MOL0     H34811   6.576   0.556   4.883  0.4533 -0.0877 -1.3293
  264MOL0     H34812   6.274   0.777   4.959 -0.4690  1.0074  2.8173
  264MOL0     H34813   6.046   0.901   4.984 -0.3773 -0.6271  0.1986
  264MOL0     H34814   5.690   0.667   5.142  0.5303  0.5544 -0.4731
  264MOL0     H34815   5.690   0.632   4.966 -2.0182 -0.0525  0.3992
  264MOL0     H34816   5.606   0.902   4.997 -1.3662 -0.9159 -0.5675
  264MOL0     H34817   5.583   0.830   5.156  4.1100 -2.3105  0.8703
  264MOL0     H34818   5.419   0.671   5.058 -0.4442  2.1602  1.9409
  264MOL0     H34819   5.468   0.719   4.894 -1.7777 -0.6725  0.6770
  264MOL0     H34820   5.296   0.882   5.106 -1.2527  0.0437 -1.3307
  264MOL0     H34821   5.376   0.950   4.975  0.2154  0.7719  1.3872
  264MOL0     H34822   5.215   0.824   4.825 -3.7792 -2.8376 -1.6857
  264MOL0     H34823   5.128   0.891   4.954 -0.5892  0.1399 -2.7101
  264MOL0     H34824   5.133   0.636   5.071 -3.3763 -1.5845 -1.0049
  264MOL0     H34825   5.204   0.591   4.910  0.0656  0.6959  0.4776
  264MOL0     H34826   4.947   0.579   4.972 -1.7890  3.8823  1.4739
  264MOL0     H34827   4.962   0.756   4.933  1.3543  0.8585 -0.8979
  264MOL0     H34828   5.038   0.702   4.719  0.0377  0.6792  0.5006
  264MOL0     H34829   4.870   0.671   4.757 -2.2289 -3.5034  2.8091
  264MOL0     H34830   5.874   0.498   5.030 -0.7211  1.2027  3.8015
  264MOL0     H34831   6.071   0.403   5.020  0.3858 -0.1478  1.0822
  264MOL0     H34832   6.469   0.163   5.040 -0.3013 -1.7326 -0.0603
  264MOL0     H34833   6.705   0.111   5.065 -1.8348 -0.5093 -1.2105
  264MOL0     H34834   8.726   0.983   5.462  3.1605 -0.4428  1.9513
  264MOL0     H34835   8.955   0.955   5.503 -2.9920  4.2569  0.0600
  264MOL0     H34836   9.300   0.982   5.519  0.4071 -1.5869  2.1682
  264MOL0     H34837   9.525   1.050   5.603 -0.8788  2.1578 -2.4077
  264MOL0     H34838   9.713   0.957   5.714 -1.0483 -0.7146 -1.7609
  264MOL0     H34839   9.769   1.106   5.631 -2.3689  0.6109  4.2746
  264MOL0     H34840   9.943   1.017   5.780 -0.2158 -2.0674  2.1013
  264MOL0     H34841   9.943   0.854   5.699 -1.9909 -0.3729 -1.3464
  264MOL0     H34842  10.032   1.128   5.571  0.4371 -0.4321 -2.2942
  264MOL0     H34843  10.015   0.984   5.481 -2.5127  2.5703 -0.0609
  264MOL0     H34844  10.189   1.010   5.742  1.2614  1.1211 -0.6245
  264MOL0     H34845  10.174   0.873   5.625 -0.9186  0.0748  1.0656
  264MOL0     H34846  10.404   1.164   5.405  0.2684  1.4780  0.3416
  264MOL0     H34847   9.704   0.835   5.277 -0.3473  0.7974  2.2667
  264MOL0     H34848   9.482   0.792   5.178 -0.6613  3.0831 -1.7454
  265MOL0     O34849   7.166   4.268   3.160  0.4220 -0.4591  0.2186
  265MOL0     C34850   7.225   4.157   3.168  0.2347 -0.6953  1.0348
  265MOL0     O34851   7.173   4.048   3.229  0.1039 -0.0347  0.2436
  265MOL0     C34852   7.050   4.065   3.281  0.7255  0.1976 -0.0211
  265MOL0     C34853   6.937   4.094   3.203 -0.3016  0.3655 -0.2595
  265MOL0     C34854   6.814   4.110   3.266  0.2006 -0.8580 -0.0323
  265MOL0     C34855   6.806   4.087   3.407  0.5439 -0.2970  1.1139
  265MOL0     O34856   6.673   4.097   3.459 -0.0564  0.8237 -0.0094
  265MOL0     C34857   6.656   4.066   3.600  0.5186  0.7266  0.8323
  265MOL0     C34858   6.506   4.081   3.646 -0.5653 -0.4014  0.4221
  265MOL0     C34859   6.425   4.179   3.559 -0.3743 -0.2267  0.6567
  265MOL0     C34860   6.275   4.188   3.591 -0.6106  1.0762 -0.7512
  265MOL0     C34861   6.207   4.286   3.510 -0.0732 -0.0020 -0.6465
  265MOL0     C34862   6.094   4.372   3.576  0.2036 -0.1876  0.2719
  265MOL0     C34863   6.017   4.458   3.464 -0.2726  0.0113  0.5690
  265MOL0     C34864   5.918   4.562   3.522  0.0107 -0.4616 -0.1907
  265MOL0     N34865   5.790   4.497   3.576 -1.5197  1.1581 -0.3213
  265MOL0     C34866   5.666   4.478   3.516 -0.2753 -0.5185  0.0825
  265MOL0     C34867   5.588   4.408   3.596  0.5033  0.5432  1.0609
  265MOL0     C34868   5.440   4.362   3.563  0.7634  0.1041 -0.3153
  265MOL0     C34869   5.361   4.342   3.691  0.6823  0.5747  0.2682
  265MOL0     C34870   5.211   4.330   3.662  0.2174 -0.6000  0.0003
  265MOL0     C34871   5.134   4.286   3.788  0.0792 -0.3920  0.2639
  265MOL0     O34872   5.076   4.401   3.856 -0.4206  0.3711  0.1165
  265MOL0     C34873   5.038   4.373   3.981 -1.3271  0.2698 -1.0983
  265MOL0     C34874   4.909   4.347   3.987 -0.1975  0.3648 -0.2471
  265MOL0     C34875   4.847   4.313   4.107  0.7078  1.0796  0.6518
  265MOL0     C34876   4.923   4.321   4.228  0.5651  0.1269  0.4640
  265MOL0     C34877   4.857   4.280   4.352 -0.2224 -0.2502 -0.1940
  265MOL0     O34878   4.923   4.298   4.470  0.3052 -0.4207  0.4786
  265MOL0     C34879   4.856   4.263   4.592  0.0021  0.3281  0.2090
  265MOL0     C34880   4.808   4.124   4.608  0.5874 -0.1801  0.3412
  265MOL0     C34881   4.753   4.094   4.725  0.5198  0.2791  0.0709
  265MOL0     C34882   4.727   4.186   4.833  0.1171 -0.0946 -0.3393
  265MOL0     O34883   4.663   4.123   4.940 -0.2065 -0.7891  0.6656
  265MOL0     C34884   4.598   4.202   5.036  0.1470  0.9390  0.8553
  265MOL0     C34885   4.667   4.216   5.179 -0.5521 -0.8488 -0.4536
  265MOL0     C34886   4.704   4.085   5.257  0.9973 -0.0176  0.2883
  265MOL0     C34887   4.566   4.013   5.298  0.0060 -0.5081 -0.0243
  265MOL0     C34888   4.619   3.868   5.342 -0.0168 -0.0493  0.4889
  265MOL0     C34889   4.621   3.792   5.216  0.3618  0.9811  0.7703
  265MOL0     C34890   4.635   3.632   5.235  0.4817 -0.6650  0.0227
  265MOL0     C34891   4.698   3.571   5.110  0.0106  0.5337 -0.6521
  265MOL0    Cl34892   4.873   3.595   5.115 -0.5230  0.3746 -0.2670
  265MOL0     C34893   4.774   4.315   4.828 -0.3400 -1.4003 -0.8020
  265MOL0     C34894   4.841   4.353   4.699 -0.2115  1.0158 -0.3019
  265MOL0     O34895   4.739   4.234   4.346 -0.0883  0.4091 -0.0796
  265MOL0     C34896   5.065   4.353   4.222 -0.1852  0.2715 -0.0110
  265MOL0     C34897   5.121   4.378   4.094 -1.0518 -0.4373 -1.3582
  265MOL0     N34898   5.662   4.369   3.705 -1.0583 -0.4830 -0.6417
  265MOL0     N34899   5.780   4.422   3.696  0.4642 -0.0845  0.7057
  265MOL0     C34900   6.915   4.058   3.482  0.7101 -0.3789  0.8056
  265MOL0     C34901   7.038   4.047   3.418 -0.7066  0.5100  0.1735
  265MOL0     C34902   7.354   4.127   3.104 -0.6184 -0.0401 -0.9857
  265MOL0     C34903   7.407   3.994   3.091 -0.1307  0.0555 -0.3488
  265MOL0     C34904   7.523   3.970   3.026 -0.9654  0.0039 -0.0489
  265MOL0     C34905   7.598   4.075   2.970  0.6954  0.2703  0.0651
  265MOL0     O34906   7.722   4.053   2.921  0.0198 -0.0330 -0.5640
  265MOL0     C34907   7.805   3.959   2.987 -0.4728 -0.9564 -1.1219
  265MOL0     C34908   7.949   4.014   3.000 -0.2705 -0.7508  0.2744
  265MOL0     C34909   8.003   4.065   2.861  0.7015 -0.1036 -0.0787
  265MOL0     C34910   8.158   4.050   2.853 -0.0255 -0.1228 -0.6883
  265MOL0     C34911   8.201   4.094   2.719 -0.4067  0.4442  0.1073
  265MOL0     C34912   8.243   4.116   2.609  1.2724 -0.2713  0.2683
  265MOL0     C34913   7.550   4.209   2.975 -0.2365  0.1019 -0.7847
  265MOL0     C34914   7.430   4.228   3.051 -0.0382 -0.3342 -0.0380
  265MOL0     H34915   6.946   4.093   3.095  1.5961  0.1901 -0.1367
  265MOL0     H34916   6.728   4.127   3.203 -0.5656  2.0056  1.5874
  265MOL0     H34917   6.721   4.136   3.652  1.5773  0.8509 -0.6055
  265MOL0     H34918   6.706   3.972   3.627  3.7083  2.0880  0.0991
  265MOL0     H34919   6.512   4.117   3.749  1.4104  0.5432  0.0170
  265MOL0     H34920   6.456   3.985   3.632 -0.1905 -0.8307  1.9144
  265MOL0     H34921   6.434   4.133   3.460  3.0374 -1.0025  1.2118
  265MOL0     H34922   6.481   4.273   3.568 -0.2989 -0.3318  1.3110
  265MOL0     H34923   6.225   4.090   3.587 -0.3076  0.9143 -0.6297
  265MOL0     H34924   6.268   4.221   3.695 -0.4601 -2.3944  0.5220
  265MOL0     H34925   6.152   4.237   3.429 -0.9394  1.1116 -0.7693
  265MOL0     H34926   6.280   4.347   3.455  0.6779 -0.7849 -0.5320
  265MOL0     H34927   6.129   4.441   3.653  2.2314 -0.0366 -0.7033
  265MOL0     H34928   6.025   4.304   3.627 -0.2920  0.7097  0.8385
  265MOL0     H34929   6.082   4.518   3.400  1.7913  1.4721  3.7849
  265MOL0     H34930   5.970   4.389   3.393 -2.2058  1.5374  0.3004
  265MOL0     H34931   5.882   4.636   3.449  2.5499 -0.0398 -1.1493
  265MOL0     H34932   5.974   4.620   3.596 -1.2404  0.5419 -0.0007
  265MOL0     H34933   5.652   4.522   3.418  0.5011 -2.4954 -0.9608
  265MOL0     H34934   5.446   4.262   3.519 -0.9018 -0.7577  1.3220
  265MOL0     H34935   5.395   4.429   3.489 -0.4543  2.2889  2.2335
  265MOL0     H34936   5.379   4.426   3.759 -0.2375  1.3405 -0.4036
  265MOL0     H34937   5.398   4.262   3.756  0.9967 -1.1375 -1.8982
  265MOL0     H34938   5.157   4.421   3.634 -0.9241 -1.0252  0.7690
  265MOL0     H34939   5.192   4.263   3.578 -2.8640  0.7691 -0.5537
  265MOL0     H34940   5.210   4.250   3.858 -1.6554  0.7508  2.8917
  265MOL0     H34941   5.056   4.211   3.770 -0.2142 -0.2026  0.7421
  265MOL0     H34942   4.845   4.349   3.899  0.4032 -0.1302 -0.7097
  265MOL0     H34943   4.743   4.286   4.121  0.5218  2.5534  2.4196
  265MOL0     H34944   4.813   4.057   4.523  0.6754  0.2804 -0.0223
  265MOL0     H34945   4.711   3.996   4.746  1.7520 -0.0080  1.3205
  265MOL0     H34946   4.503   4.156   5.066  0.5034 -0.2338  0.2285
  265MOL0     H34947   4.571   4.301   4.997  0.6651  2.4574  4.0216
  265MOL0     H34948   4.594   4.270   5.239 -3.3489 -1.8227 -2.7448
  265MOL0     H34949   4.751   4.284   5.167 -0.8009  0.1231  2.5508
  265MOL0     H34950   4.744   4.100   5.358 -1.0594 -2.2211  1.5149
  265MOL0     H34951   4.779   4.038   5.192  1.1419 -0.0617  0.4869
  265MOL0     H34952   4.516   4.064   5.381 -1.1851 -1.6289 -0.0173
  265MOL0     H34953   4.495   4.012   5.215 -0.7127 -0.4638  0.5789
  265MOL0     H34954   4.552   3.816   5.411  1.3381 -0.4356  1.5588
  265MOL0     H34955   4.722   3.869   5.379  1.3069  0.7465 -2.8252
  265MOL0     H34956   4.707   3.829   5.159  2.4631 -0.6551  2.6989
  265MOL0     H34957   4.532   3.810   5.155  2.5125 -2.9614 -4.3317
  265MOL0     H34958   4.701   3.615   5.321 -1.2184  1.2674  1.8236
  265MOL0     H34959   4.538   3.585   5.250 -0.5932  0.8294 -1.8571
  265MOL0     H34960   4.671   3.621   5.017  0.7958 -0.4472 -1.4163
  265MOL0     H34961   4.670   3.467   5.097  2.9060 -0.5438  0.7312
  265MOL0     H34962   4.760   4.384   4.911 -1.0032 -2.0115 -0.4000
  265MOL0     H34963   4.862   4.459   4.689 -1.6164  1.2846 -0.5939
  265MOL0     H34964   5.118   4.361   4.316 -1.7288 -2.2402  1.1799
  265MOL0     H34965   5.224   4.414   4.091 -0.8615 -1.0195 -2.5714
  265MOL0     H34966   6.916   4.038   3.588 -0.1174 -1.3090  0.6550
  265MOL0     H34967   7.123   4.009   3.475 -1.4284  0.1625  1.0515
  265MOL0     H34968   7.356   3.906   3.130 -2.2208  0.8223 -1.2138
  265MOL0     H34969   7.564   3.872   3.005  0.0546  0.4525 -0.2091
  265MOL0     H34970   7.817   3.875   2.918  1.3886 -2.2954  0.7104
  265MOL0     H34971   7.772   3.922   3.085  0.2108 -0.3255 -0.6388
  265MOL0     H34972   7.949   4.097   3.071  0.1724  0.8113 -1.4606
  265MOL0     H34973   8.010   3.932   3.036  0.8007  0.0861  0.3955
  265MOL0     H34974   7.973   4.170   2.855 -0.1284 -0.3525 -0.4241
  265MOL0     H34975   7.964   4.007   2.776 -0.9108  0.6420  0.1236
  265MOL0     H34976   8.189   4.128   2.924 -1.8893 -0.3406  0.4195
  265MOL0     H34977   8.194   3.948   2.870  1.6306  0.7776  1.7299
  265MOL0     H34978   8.272   4.139   2.508  2.0761  2.3130  1.0099
  265MOL0     H34979   7.623   4.282   2.940 -0.7769  1.4131  0.7103
  265MOL0     H34980   7.391   4.330   3.051  3.5929  1.3036 -2.9755
  266MOL0     O34981   9.491  10.612   6.980 -0.4231 -0.4532 -0.2695
  266MOL0     C34982   9.573  10.648   6.894  0.0216 -0.0781 -0.1494
  266MOL0     O34983   9.535  10.687   6.764  0.0769  0.1551 -0.3516
  266MOL0     C34984   9.402  10.705   6.736  1.1200  0.1610  0.4862
  266MOL0     C34985   9.310  10.776   6.822 -0.1052  0.7118 -0.3997
  266MOL0     C34986   9.182  10.797   6.780 -0.1196  0.2757  0.0130
  266MOL0     C34987   9.129  10.753   6.661 -0.0095  0.1505  0.0849
  266MOL0     O34988   9.000  10.790   6.625 -0.2252 -1.0417 -0.3259
  266MOL0     C34989   8.929  10.738   6.507  0.0456  0.3497  0.0141
  266MOL0     C34990   8.818  10.817   6.450  0.5910 -0.6390  0.2401
  266MOL0     C34991   8.693  10.805   6.538  0.7915 -0.2131 -0.1941
  266MOL0     C34992   8.590  10.916   6.497 -0.7869 -0.6446  0.0946
  266MOL0     C34993   8.532  10.885   6.354 -0.3004  0.7692  0.2406
  266MOL0     C34994   8.409  10.970   6.320  0.3303  0.4714  0.9178
  266MOL0     C34995   8.366  10.943   6.171 -0.4865 -0.2333 -0.0324
  266MOL0     C34996   8.225  10.978   6.140  0.5221 -0.2833  0.3332
  266MOL0     N34997   8.201  11.124   6.166  0.6009 -0.4314  0.2329
  266MOL0     C34998   8.089  11.172   6.243 -1.4925  0.3510  0.3611
  266MOL0     C34999   8.103  11.308   6.229  0.3634 -0.5733  0.3910
  266MOL0     C35000   8.004  11.391   6.303 -0.5242 -0.4700  0.1080
  266MOL0     C35001   7.869  11.406   6.230 -0.5662  0.2173  0.3783
  266MOL0     C35002   7.749  11.441   6.317 -0.2432  0.1587 -0.3301
  266MOL0     C35003   7.692  11.338   6.403 -0.2495  0.1411 -0.3515
  266MOL0     O35004   7.643  11.223   6.331  0.6113  0.1498  0.1108
  266MOL0     C35005   7.521  11.222   6.278  0.6669  0.8366 -0.1271
  266MOL0     C35006   7.465  11.105   6.236  0.7765  0.2108 -0.7910
  266MOL0     C35007   7.336  11.106   6.171 -0.7175 -0.1307 -0.4601
  266MOL0     C35008   7.252  11.220   6.154 -0.3281 -0.0548 -0.7754
  266MOL0     C35009   7.110  11.226   6.115  0.7525  0.8722  0.4753
  266MOL0     O35010   7.056  11.345   6.099  0.0266  0.4538  0.0501
  266MOL0     C35011   6.926  11.343   6.049  0.2786  0.2399  1.2794
  266MOL0     C35012   6.823  11.388   6.129 -0.4913 -0.2520 -0.9078
  266MOL0     C35013   6.687  11.390   6.098 -0.3504 -0.0782 -0.0461
  266MOL0     C35014   6.658  11.369   5.960  1.0756  0.0368  0.2619
  266MOL0     O35015   6.528  11.361   5.937  0.4447 -0.0477 -0.2535
  266MOL0     C35016   6.465  11.482   5.885  0.0551 -0.0590  0.1436
  266MOL0     C35017   6.320  11.476   5.923 -0.3015 -0.2542  0.9178
  266MOL0     C35018   6.236  11.581   5.835 -0.2698 -0.5899  0.6494
  266MOL0     C35019   6.082  11.580   5.871 -0.3593 -0.4816  0.8553
  266MOL0     C35020   6.039  11.665   5.985  0.3006 -0.1376  0.5811
  266MOL0     C35021   5.891  11.670   6.014  0.2629 -0.0901 -0.5309
  266MOL0     C35022   5.799  11.721   5.901  0.5722 -0.0196  0.4700
  266MOL0     C35023   5.655  11.672   5.922  0.6559  0.7432  0.3459
  266MOL0    Cl35024   5.582  11.736   5.768 -0.4444 -0.2023 -0.0103
  266MOL0     C35025   6.758  11.316   5.876 -0.4189 -0.3580 -0.2730
  266MOL0     C35026   6.891  11.298   5.916 -0.1195  0.3119  0.5473
  266MOL0     O35027   7.052  11.120   6.097 -0.0365  0.5336 -0.1343
  266MOL0     C35028   7.311  11.342   6.214  0.6125 -0.5649 -0.3390
  266MOL0     C35029   7.439  11.336   6.267  0.3304  1.1637 -0.3097
  266MOL0     N35030   8.228  11.348   6.166 -0.9229  0.1106  0.4474
  266MOL0     N35031   8.279  11.232   6.117 -0.1033  0.6769 -0.1409
  266MOL0     C35032   9.217  10.686   6.572 -0.5651  0.9460 -0.6564
  266MOL0     C35033   9.353  10.661   6.613  0.0239 -0.8652 -0.2028
  266MOL0     C35034   9.721  10.642   6.918 -0.6346  0.0852  0.2362
  266MOL0     C35035   9.816  10.684   6.820  0.2529  0.3470  0.1126
  266MOL0     C35036   9.959  10.671   6.838  0.9185  0.1360 -0.3466
  266MOL0     C35037  10.001  10.610   6.961 -0.6011 -0.6114 -0.3902
  266MOL0     O35038  10.132  10.581   6.994 -0.9072 -0.4127  0.0685
  266MOL0     C35039  10.240  10.623   6.909 -0.2200  0.3139 -0.0807
  266MOL0     C35040  10.379  10.576   6.945  0.3082  0.6324 -0.0335
  266MOL0     C35041  10.370  10.420   6.968  0.4750 -0.3156 -0.0305
  266MOL0     C35042  10.490  10.379   7.039 -0.5534  0.0086  0.0122
  266MOL0     C35043  10.491  10.424   7.175 -0.0499  0.3740 -0.5539
  266MOL0     C35044  10.484  10.462   7.292 -1.2354  0.4411  0.2024
  266MOL0     C35045   9.903  10.590   7.056  0.0554  0.8527 -0.6241
  266MOL0     C35046   9.766  10.589   7.037  0.0233 -0.1296  1.1040
  266MOL0     H35047   9.348  10.814   6.916 -0.7704 -2.8721  1.5262
  266MOL0     H35048   9.116  10.848   6.849 -0.2370  0.9458 -0.5728
  266MOL0     H35049   8.880  10.640   6.515  0.1253  0.1128 -1.7860
  266MOL0     H35050   9.003  10.730   6.427 -1.0465 -1.5849 -0.8923
  266MOL0     H35051   8.804  10.788   6.345  2.9674  4.1318 -1.7192
  266MOL0     H35052   8.848  10.922   6.454 -2.4378  0.3582 -0.6958
  266MOL0     H35053   8.718  10.836   6.641  1.9475 -0.3009 -0.4352
  266MOL0     H35054   8.642  10.709   6.534  0.1947  0.0356  0.9166
  266MOL0     H35055   8.516  10.931   6.577  1.0242  0.1778  1.6997
  266MOL0     H35056   8.641  11.012   6.506  0.1282 -1.2932  2.9230
  266MOL0     H35057   8.502  10.780   6.354 -0.4682  0.8124 -0.2150
  266MOL0     H35058   8.611  10.899   6.279 -0.0441 -0.7159  0.2072
  266MOL0     H35059   8.435  11.074   6.339 -1.7537  0.5742  3.9087
  266MOL0     H35060   8.321  10.939   6.377  1.2754 -2.0363  1.1508
  266MOL0     H35061   8.431  10.993   6.099 -1.9531 -2.8663 -3.4946
  266MOL0     H35062   8.362  10.839   6.136 -0.4571 -0.3463  0.3034
  266MOL0     H35063   8.145  10.924   6.191  0.5073  0.8574  1.5938
  266MOL0     H35064   8.214  10.965   6.032 -2.0144  0.5425  0.4186
  266MOL0     H35065   8.016  11.118   6.301 -3.7991 -1.3121 -3.6714
  266MOL0     H35066   8.048  11.490   6.318 -0.8385 -0.4848  1.2120
  266MOL0     H35067   7.994  11.337   6.397 -0.3036 -1.1357 -0.2433
  266MOL0     H35068   7.846  11.311   6.180  1.4330 -1.7872  2.9297
  266MOL0     H35069   7.876  11.485   6.155 -1.0433 -0.8025 -0.7636
  266MOL0     H35070   7.783  11.520   6.385 -3.4244  0.3230  1.2636
  266MOL0     H35071   7.671  11.472   6.247 -2.0124 -1.9628  0.5822
  266MOL0     H35072   7.608  11.382   6.458 -1.1611 -0.4957 -1.2012
  266MOL0     H35073   7.762  11.311   6.483 -0.6709 -0.2121 -0.0927
  266MOL0     H35074   7.535  11.022   6.234  0.4604 -0.0608 -0.5766
  266MOL0     H35075   7.292  11.014   6.135  0.9129 -1.1071 -0.0826
  266MOL0     H35076   6.849  11.390   6.235  0.5707 -2.2127 -1.0854
  266MOL0     H35077   6.611  11.418   6.170 -1.0781 -1.8291 -0.0842
  266MOL0     H35078   6.476  11.474   5.777  2.1762 -0.2910  0.3372
  266MOL0     H35079   6.509  11.572   5.929 -1.1616 -0.6351  2.7471
  266MOL0     H35080   6.309  11.497   6.030  0.1029 -0.6260  1.0346
  266MOL0     H35081   6.286  11.375   5.898  2.8620 -0.5327 -3.1904
  266MOL0     H35082   6.260  11.559   5.731  1.9673  0.7570  0.8252
  266MOL0     H35083   6.275  11.682   5.849 -3.4736  1.0411 -0.9536
  266MOL0     H35084   6.024  11.606   5.782 -0.5292 -2.9710  0.1749
  266MOL0     H35085   6.057  11.479   5.906  1.9760 -0.9550  1.3398
  266MOL0     H35086   6.072  11.769   5.971  2.9514 -1.0416 -0.6304
  266MOL0     H35087   6.086  11.626   6.076 -1.9271 -0.1539  1.8006
  266MOL0     H35088   5.878  11.723   6.109  0.8302  0.4793 -0.7629
  266MOL0     H35089   5.851  11.572   6.039 -2.1537  1.0209  0.2537
  266MOL0     H35090   5.793  11.830   5.899 -1.7666 -0.1060 -0.5548
  266MOL0     H35091   5.829  11.700   5.798 -1.5394 -0.4223 -0.1227
  266MOL0     H35092   5.604  11.728   6.000 -1.6493 -0.5682 -0.1169
  266MOL0     H35093   5.645  11.563   5.932  0.9984  0.8521  2.1611
  266MOL0     H35094   6.727  11.286   5.777 -0.6926 -0.3909 -0.1783
  266MOL0     H35095   6.974  11.256   5.861  0.3181  3.2915 -1.2604
  266MOL0     H35096   7.258  11.437   6.207 -0.8164 -0.9947  2.8261
  266MOL0     H35097   7.468  11.436   6.298 -1.1879  1.9346 -1.2337
  266MOL0     H35098   9.178  10.637   6.483 -2.8924 -0.3630  0.9736
  266MOL0     H35099   9.428  10.608   6.555 -1.2539 -1.0021 -1.7873
  266MOL0     H35100   9.779  10.721   6.725  1.0255 -1.6763 -1.0512
  266MOL0     H35101  10.022  10.690   6.752 -0.1578  0.2652 -1.1370
  266MOL0     H35102  10.223  10.730   6.895 -0.6700  0.2525 -0.0204
  266MOL0     H35103  10.232  10.576   6.811  1.4863  1.3374 -0.7409
  266MOL0     H35104  10.448  10.594   6.862  0.0112  0.6386 -0.2823
  266MOL0     H35105  10.421  10.630   7.030  0.4690  0.4864 -0.0195
  266MOL0     H35106  10.359  10.369   6.872  0.7815  0.5297 -0.5278
  266MOL0     H35107  10.286  10.387   7.030 -0.0477 -2.3722 -1.7035
  266MOL0     H35108  10.483  10.270   7.040  1.2163 -0.1511  1.7149
  266MOL0     H35109  10.585  10.401   6.990 -0.7044 -1.0667 -0.8021
  266MOL0     H35110  10.494  10.498   7.393 -1.7196  1.4964 -0.1091
  266MOL0     H35111   9.941  10.563   7.154 -0.8771 -2.4078 -1.0560
  266MOL0     H35112   9.693  10.544   7.103 -3.1790  0.3407 -1.8165
  267MOL0     O35113  10.185   6.201   5.278  1.0065  0.4675 -0.3950
  267MOL0     C35114  10.143   6.137   5.377 -0.3477 -0.0336 -0.2339
  267MOL0     O35115  10.013   6.129   5.412 -0.6333  0.3054 -0.2238
  267MOL0     C35116   9.913   6.187   5.343  0.7024 -0.4548 -0.5846
  267MOL0     C35117   9.919   6.313   5.283 -0.0403 -0.0349  0.2310
  267MOL0     C35118   9.805   6.370   5.217  0.2849  0.5398 -0.2453
  267MOL0     C35119   9.682   6.298   5.218  0.0537 -0.2301  0.1270
  267MOL0     O35120   9.572   6.346   5.158 -0.0017 -0.4511 -0.9806
  267MOL0     C35121   9.479   6.394   5.257  0.0552  0.5135 -0.0992
  267MOL0     C35122   9.387   6.508   5.209 -0.2634  0.2348 -0.4572
  267MOL0     C35123   9.300   6.476   5.090 -0.5084 -0.2916 -0.4744
  267MOL0     C35124   9.148   6.477   5.108 -0.7187  0.2605 -0.3844
  267MOL0     C35125   9.093   6.396   5.226 -0.3971  0.1187  0.3017
  267MOL0     C35126   8.962   6.327   5.189 -0.2014 -0.9369  0.1161
  267MOL0     C35127   8.852   6.419   5.229 -0.0158  0.3623 -0.6262
  267MOL0     C35128   8.720   6.351   5.191  0.6598 -0.1570  0.2067
  267MOL0     N35129   8.618   6.421   5.274  0.0090  0.4510  0.3643
  267MOL0     C35130   8.598   6.373   5.402  1.1577  0.3388 -0.5499
  267MOL0     C35131   8.508   6.465   5.450 -0.9174  1.0605 -0.3564
  267MOL0     C35132   8.455   6.444   5.593 -0.5362 -0.5547 -1.4853
  267MOL0     C35133   8.393   6.310   5.623  0.0524 -0.0978  0.1534
  267MOL0     C35134   8.279   6.278   5.524 -0.5912  0.0331 -0.2680
  267MOL0     C35135   8.165   6.380   5.544  0.0642  0.1744 -0.3374
  267MOL0     O35136   8.036   6.326   5.489 -0.0671 -1.0624  0.2615
  267MOL0     C35137   7.912   6.379   5.529  0.0373  0.2580  1.1148
  267MOL0     C35138   7.888   6.488   5.606  0.2392 -0.1658 -0.9028
  267MOL0     C35139   7.754   6.523   5.627  0.2924  0.6446  0.0768
  267MOL0     C35140   7.651   6.456   5.565 -0.6074 -0.5057 -0.3854
  267MOL0     C35141   7.507   6.483   5.600  0.7190 -0.0430  0.0026
  267MOL0     O35142   7.484   6.537   5.727  0.0497 -0.1085 -0.2234
  267MOL0     C35143   7.354   6.584   5.754 -0.6563 -0.5351  0.1967
  267MOL0     C35144   7.315   6.719   5.728 -0.4075 -0.2716  0.4328
  267MOL0     C35145   7.185   6.756   5.755 -1.2187 -0.5092 -0.1696
  267MOL0     C35146   7.094   6.663   5.801  0.2599  0.3216  0.5040
  267MOL0     O35147   6.965   6.712   5.820 -0.6923  0.0395 -0.2131
  267MOL0     C35148   6.865   6.612   5.847 -0.1304 -0.0751  0.2686
  267MOL0     C35149   6.733   6.659   5.871  0.9151 -0.7818  0.9902
  267MOL0     C35150   6.638   6.547   5.900 -0.3133  0.0723 -0.5485
  267MOL0     C35151   6.500   6.594   5.940  0.0590  0.1466 -0.3196
  267MOL0     C35152   6.394   6.491   5.941  0.1740  0.3257  0.2038
  267MOL0     C35153   6.257   6.545   5.996  0.2710 -0.1768 -0.1693
  267MOL0     C35154   6.155   6.433   6.003 -0.6809 -1.1083 -1.0794
  267MOL0     C35155   6.017   6.470   6.064 -0.2547 -0.0061 -0.4177
  267MOL0    Cl35156   6.039   6.516   6.225  0.5302 -0.1009 -0.3289
  267MOL0     C35157   7.131   6.535   5.827  0.2215  0.3180 -0.2318
  267MOL0     C35158   7.261   6.492   5.810 -0.0748 -0.3408  0.9153
  267MOL0     O35159   7.421   6.449   5.523  1.1240 -0.0058  0.1581
  267MOL0     C35160   7.678   6.344   5.477 -0.0758  0.4399  0.2421
  267MOL0     C35161   7.807   6.306   5.467  0.3857 -0.7511  0.2988
  267MOL0     N35162   8.475   6.558   5.357  0.5850  0.0767  1.0631
  267MOL0     N35163   8.537   6.535   5.248 -0.1533 -0.6347 -0.0078
  267MOL0     C35164   9.674   6.176   5.285  0.6377 -0.2353  0.3477
  267MOL0     C35165   9.783   6.119   5.348 -0.4644 -0.2065 -0.3630
  267MOL0     C35166  10.244   6.072   5.462 -0.6067 -0.1709 -0.2569
  267MOL0     C35167  10.373   6.063   5.408 -0.2603 -0.8128 -0.4413
  267MOL0     C35168  10.485   5.998   5.475  0.5620  1.1671 -0.8008
  267MOL0     C35169  10.455   5.943   5.597 -0.2862 -0.5519  0.1594
  267MOL0     O35170  10.563   5.893   5.659 -1.0034 -0.2770 -0.1044
  267MOL0     C35171  10.565   5.832   5.789 -0.1060  0.5841  0.7289
  267MOL0     C35172  10.530   5.686   5.773 -0.4961 -0.5181 -0.4911
  267MOL0     C35173  10.609   5.608   5.664 -0.0723 -0.9043  0.9263
  267MOL0     C35174  10.576   5.456   5.656 -0.1683 -0.5458  1.2498
  267MOL0     C35175  10.683   5.403   5.567 -0.4222  0.0168  0.0943
  267MOL0     C35176  10.769   5.355   5.499  0.5025  0.4881 -0.0971
  267MOL0     C35177  10.322   5.928   5.636  1.0282  0.2584 -0.3445
  267MOL0     C35178  10.217   5.998   5.583  0.5720 -0.6924  0.0653
  267MOL0     H35179  10.003   6.382   5.274 -1.2765  1.8027  2.1360
  267MOL0     H35180   9.799   6.471   5.178 -3.7983  0.6272  0.1511
  267MOL0     H35181   9.534   6.431   5.344 -2.0239 -0.2471  1.6508
  267MOL0     H35182   9.411   6.316   5.292 -1.5965  1.6226 -0.6924
  267MOL0     H35183   9.434   6.605   5.187 -2.8933  1.7172  0.0542
  267MOL0     H35184   9.323   6.529   5.294 -0.3549 -0.5629 -0.3203
  267MOL0     H35185   9.319   6.371   5.065  1.4875 -0.4191  1.2906
  267MOL0     H35186   9.329   6.524   4.996 -1.2270 -1.1758 -1.1696
  267MOL0     H35187   9.124   6.583   5.117  1.1785  0.8162 -1.4092
  267MOL0     H35188   9.115   6.429   5.015 -1.4393  1.3063 -0.6912
  267MOL0     H35189   9.085   6.459   5.315 -0.2359  0.1861  0.2696
  267MOL0     H35190   9.164   6.317   5.252 -0.1173  1.1878  3.0739
  267MOL0     H35191   8.951   6.230   5.239 -2.4035 -1.4554 -1.2032
  267MOL0     H35192   8.957   6.312   5.080 -1.3817 -0.2453  0.0551
  267MOL0     H35193   8.856   6.445   5.336 -1.3784 -2.0822  0.0789
  267MOL0     H35194   8.862   6.509   5.167  1.2555  0.2950 -0.5445
  267MOL0     H35195   8.725   6.244   5.212  1.8696 -0.1677 -0.1009
  267MOL0     H35196   8.697   6.362   5.084 -0.0146  0.3199  0.3916
  267MOL0     H35197   8.647   6.293   5.456  1.8357 -0.1796 -1.8686
  267MOL0     H35198   8.385   6.527   5.607  1.5821  1.4839 -2.3215
  267MOL0     H35199   8.536   6.461   5.665 -2.3249 -1.8034  0.9423
  267MOL0     H35200   8.365   6.305   5.729 -1.0067 -1.6180 -0.1683
  267MOL0     H35201   8.463   6.228   5.603 -2.0204 -1.7698 -0.6357
  267MOL0     H35202   8.310   6.274   5.419  1.6156 -0.8537  0.3611
  267MOL0     H35203   8.245   6.178   5.553  2.3456 -0.9068  0.3737
  267MOL0     H35204   8.200   6.462   5.481  0.7074  0.4588  0.3691
  267MOL0     H35205   8.151   6.401   5.651 -0.2242 -2.5511  0.2277
  267MOL0     H35206   7.969   6.548   5.646 -2.8432  2.7756  1.4686
  267MOL0     H35207   7.742   6.612   5.689  0.0397 -0.4263  1.6058
  267MOL0     H35208   7.386   6.794   5.695 -1.6573  0.1357 -1.4893
  267MOL0     H35209   7.154   6.859   5.740  1.1898 -0.0488 -2.9504
  267MOL0     H35210   6.884   6.554   5.938  2.2685  0.7325  0.3621
  267MOL0     H35211   6.855   6.532   5.773  0.8596  0.9892 -1.0719
  267MOL0     H35212   6.695   6.716   5.786 -0.5779  0.0248  2.1541
  267MOL0     H35213   6.745   6.727   5.956  2.8951  0.0134  0.1229
  267MOL0     H35214   6.676   6.485   5.982 -1.1863 -0.3815 -0.4698
  267MOL0     H35215   6.635   6.489   5.807  1.1218  0.1477 -0.6717
  267MOL0     H35216   6.503   6.630   6.043  0.8488  1.2652 -0.7165
  267MOL0     H35217   6.473   6.674   5.870  0.4245  0.6028  0.0575
  267MOL0     H35218   6.428   6.411   6.007  0.9048 -0.2343 -0.8264
  267MOL0     H35219   6.385   6.456   5.838  1.2662  2.0898 -0.5333
  267MOL0     H35220   6.211   6.626   5.938  0.9590  1.1234  1.0402
  267MOL0     H35221   6.282   6.591   6.092 -0.9586  0.4944 -0.1457
  267MOL0     H35222   6.122   6.407   5.901  0.0387  0.4589 -1.7506
  267MOL0     H35223   6.193   6.345   6.055 -0.4461 -1.6874 -2.2067
  267MOL0     H35224   5.949   6.384   6.059 -2.1265  1.4992 -1.9962
  267MOL0     H35225   5.974   6.554   6.010  1.5192  1.3100  0.1224
  267MOL0     H35226   7.059   6.467   5.871  0.4077  2.0182  2.9999
  267MOL0     H35227   7.299   6.396   5.842 -0.5823 -0.7239  0.3885
  267MOL0     H35228   7.600   6.295   5.421  0.1052 -0.2914  0.6241
  267MOL0     H35229   7.834   6.218   5.409 -1.5297 -0.9558 -0.3482
  267MOL0     H35230   9.581   6.121   5.279  0.7420 -0.2438 -2.1721
  267MOL0     H35231   9.779   6.029   5.409 -0.2066  0.1240  0.1465
  267MOL0     H35232  10.405   6.110   5.315 -0.4937  1.1035  0.3989
  267MOL0     H35233  10.584   6.000   5.429  2.3396 -0.7376  2.5409
  267MOL0     H35234  10.486   5.875   5.850 -2.3375  0.2861 -1.7430
  267MOL0     H35235  10.662   5.842   5.838 -0.0606 -0.2600  0.8250
  267MOL0     H35236  10.545   5.639   5.870  0.3186  1.2497  0.2974
  267MOL0     H35237  10.422   5.679   5.765 -0.6226  1.6198 -1.5226
  267MOL0     H35238  10.717   5.626   5.675  0.1758 -2.5331  1.3898
  267MOL0     H35239  10.592   5.643   5.562  1.2889  1.0068  1.2985
  267MOL0     H35240  10.587   5.414   5.756 -2.2064 -3.3801  0.3896
  267MOL0     H35241  10.479   5.440   5.608  1.0715  0.7516 -2.0129
  267MOL0     H35242  10.841   5.318   5.429 -0.4396 -1.5443 -0.0649
  267MOL0     H35243  10.293   5.873   5.725 -0.0474  1.2428 -0.0517
  267MOL0     H35244  10.115   6.001   5.618  0.0963  3.4324 -1.1052
  268MOL0     O35245   7.314   9.295  10.391 -0.8586  0.0047  0.1610
  268MOL0     C35246   7.357   9.410  10.393 -0.7787  1.3149  0.8920
  268MOL0     O35247   7.290   9.512  10.353 -0.3217  0.5701  0.4860
  268MOL0     C35248   7.158   9.508  10.312 -0.7389  0.3997  1.1115
  268MOL0     C35249   7.123   9.424  10.210 -0.1899 -0.5036 -0.0864
  268MOL0     C35250   6.993   9.419  10.157  0.0842 -0.4685 -0.0111
  268MOL0     C35251   6.901   9.516  10.198 -0.5285  0.1974  0.6412
  268MOL0     O35252   6.767   9.514  10.147  0.1433  0.5184 -0.3686
  268MOL0     C35253   6.696   9.406  10.209  0.9649 -0.3309  0.5250
  268MOL0     C35254   6.630   9.331  10.089 -0.0461  0.2624 -0.8735
  268MOL0     C35255   6.537   9.222  10.143 -0.4064 -1.1801  0.6114
  268MOL0     C35256   6.407   9.270  10.205 -0.3766  0.5039  0.3429
  268MOL0     C35257   6.310   9.157  10.257  1.0538 -0.8880  1.2223
  268MOL0     C35258   6.350   9.119  10.404  0.3273 -0.4339  0.5386
  268MOL0     C35259   6.301   8.978  10.447 -0.0293 -0.7009  0.2620
  268MOL0     C35260   6.322   8.950  10.590  0.2271 -0.0207  0.3148
  268MOL0     N35261   6.274   8.816  10.641  0.8529  0.0407 -0.5641
  268MOL0     C35262   6.151   8.763  10.637 -0.7180 -0.3562 -0.0750
  268MOL0     C35263   6.160   8.625  10.648  0.0164  0.1516 -0.0556
  268MOL0     C35264   6.049   8.537  10.680  0.1854  1.2261 -0.3722
  268MOL0     C35265   6.065   8.465  10.816  0.7657 -0.5878  0.2967
  268MOL0     C35266   5.943   8.362  10.832 -0.7251  0.1372  0.1787
  268MOL0     C35267   5.817   8.427  10.855  0.4189  0.0479  0.4820
  268MOL0     O35268   5.726   8.320  10.888  0.1188 -0.4876 -1.0029
  268MOL0     C35269   5.595   8.350  10.929  0.3934 -0.3216  0.3026
  268MOL0     C35270   5.513   8.242  10.980  0.0677 -0.2852 -0.7945
  268MOL0     C35271   5.367   8.254  10.992  1.3216 -0.2903  0.3964
  268MOL0     C35272   5.311   8.379  10.970  0.8543  0.2432 -0.1320
  268MOL0     C35273   5.169   8.393  11.004 -0.6038 -0.6291 -0.5206
  268MOL0     O35274   5.109   8.273  11.025 -0.0157  0.0110  0.5766
  268MOL0     C35275   4.983   8.269  11.084 -0.5937 -0.7313  0.0751
  268MOL0     C35276   4.867   8.337  11.029 -0.2295  0.3118 -0.7054
  268MOL0     C35277   4.745   8.314  11.088  0.6607 -0.4617  0.7793
  268MOL0     C35278   4.729   8.250  11.214 -0.7606 -0.3052  0.3655
  268MOL0     O35279   4.618   8.243  11.292 -0.3083 -0.3298  0.5728
  268MOL0     C35280   4.488   8.237  11.232 -0.1304  0.1169 -0.2052
  268MOL0     C35281   4.392   8.291  11.334  0.5525  0.5052  0.0949
  268MOL0     C35282   4.256   8.280  11.274  0.5417 -0.7724 -0.8794
  268MOL0     C35283   4.140   8.337  11.354  0.8714 -0.1645 -0.3987
  268MOL0     C35284   3.996   8.322  11.294  0.8331  0.1186  0.4414
  268MOL0     C35285   3.965   8.187  11.230 -0.6606 -0.5352 -0.4278
  268MOL0     C35286   3.825   8.191  11.193  0.0052  0.3615 -0.2147
  268MOL0     C35287   3.775   8.057  11.134 -0.9565 -0.4302  0.0525
  268MOL0    Cl35288   3.611   8.066  11.056 -0.3949 -0.3790  0.4662
  268MOL0     C35289   4.844   8.177  11.265  0.0546 -0.5486 -0.4204
  268MOL0     C35290   4.970   8.198  11.199 -1.1203 -0.5225 -0.0069
  268MOL0     O35291   5.124   8.507  11.028  0.5625 -0.2510 -0.5742
  268MOL0     C35292   5.389   8.482  10.930  1.0568 -0.0613  0.1454
  268MOL0     C35293   5.528   8.466  10.904  0.8546  0.0038  0.7391
  268MOL0     N35294   6.292   8.603  10.668  0.2031  0.3013  0.4373
  268MOL0     N35295   6.357   8.714  10.664 -0.0868  0.3430 -0.0853
  268MOL0     C35296   6.933   9.596  10.312 -0.8186  0.2785  0.6384
  268MOL0     C35297   7.066   9.599  10.370 -0.2058  0.2480  0.2562
  268MOL0     C35298   7.497   9.435  10.430  0.2931  0.4519  0.0878
  268MOL0     C35299   7.531   9.560  10.484 -0.3065  0.3196 -0.0956
  268MOL0     C35300   7.661   9.595  10.530 -0.6579  0.6821 -0.3508
  268MOL0     C35301   7.770   9.496  10.522  0.3394  0.1400 -0.4996
  268MOL0     O35302   7.899   9.535  10.558  0.1118 -0.4209 -0.3397
  268MOL0     C35303   8.007   9.453  10.516 -0.9820  0.8662  0.5412
  268MOL0     C35304   8.130   9.513  10.582  0.3243  0.2735 -0.0178
  268MOL0     C35305   8.260   9.449  10.529  0.7820  0.0131  0.3153
  268MOL0     C35306   8.368   9.517  10.608 -0.8274 -0.6216 -0.0662
  268MOL0     C35307   8.496   9.468  10.565 -0.0880 -0.1737 -0.4845
  268MOL0     C35308   8.601   9.410  10.534 -0.3549 -0.7923 -0.3931
  268MOL0     C35309   7.732   9.371  10.473 -0.2775 -0.2801  0.4479
  268MOL0     C35310   7.601   9.342  10.427 -0.0125 -0.2725  0.2640
  268MOL0     H35311   7.197   9.361  10.163 -0.2687  0.7163 -1.9450
  268MOL0     H35312   6.968   9.350  10.077 -0.3861 -2.1000  1.4723
  268MOL0     H35313   6.627   9.459  10.276 -2.0189 -0.1261 -2.4541
  268MOL0     H35314   6.751   9.328  10.262  2.2939 -1.5078 -2.4104
  268MOL0     H35315   6.709   9.281  10.034  2.1643  0.0242  2.2587
  268MOL0     H35316   6.571   9.401  10.028 -1.9697 -0.9820 -0.5420
  268MOL0     H35317   6.588   9.147  10.205  2.2073  0.7303  0.9634
  268MOL0     H35318   6.520   9.177  10.045  2.0442  2.0687 -1.5358
  268MOL0     H35319   6.435   9.334  10.288  1.1662 -0.7306  0.8332
  268MOL0     H35320   6.348   9.319  10.127 -2.2589 -0.5465  1.0456
  268MOL0     H35321   6.328   9.063  10.205  1.9859 -0.6816  1.1540
  268MOL0     H35322   6.205   9.189  10.255  1.0967 -0.7274  1.4312
  268MOL0     H35323   6.309   9.189  10.476 -1.5631  1.0533 -1.8259
  268MOL0     H35324   6.459   9.131  10.405  0.1114  2.0776  0.3205
  268MOL0     H35325   6.192   8.965  10.441 -0.2768  0.3406  1.8959
  268MOL0     H35326   6.346   8.899  10.386  1.3644 -0.7859  1.3429
  268MOL0     H35327   6.267   9.028  10.642 -2.1948  0.8289 -3.1738
  268MOL0     H35328   6.430   8.948  10.608  1.2502  1.3461 -4.4306
  268MOL0     H35329   6.056   8.816  10.632 -2.1640 -2.8837 -3.1669
  268MOL0     H35330   6.048   8.454  10.608  2.0290  0.3307  0.5615
  268MOL0     H35331   5.959   8.598  10.672  0.0960  1.1293 -0.1251
  268MOL0     H35332   6.061   8.539  10.896  0.9271 -0.3990  0.1297
  268MOL0     H35333   6.161   8.413  10.826  1.5225  0.8138  0.4969
  268MOL0     H35334   5.933   8.294  10.747  1.4242  1.9186 -1.6491
  268MOL0     H35335   5.977   8.297  10.913  4.0500  1.8483 -0.0818
  268MOL0     H35336   5.781   8.471  10.762  0.3066 -2.5019 -0.7928
  268MOL0     H35337   5.830   8.506  10.929  2.2294  1.5005 -1.2565
  268MOL0     H35338   5.556   8.145  11.004  0.4180  0.5488  2.4103
  268MOL0     H35339   5.306   8.171  11.028  1.4552 -0.8125 -0.5424
  268MOL0     H35340   4.876   8.391  10.935  1.8819 -0.5651 -1.0723
  268MOL0     H35341   4.658   8.367  11.049  0.4365 -1.8733 -0.7650
  268MOL0     H35342   4.470   8.136  11.196 -2.4001 -0.0253  1.1513
  268MOL0     H35343   4.474   8.297  11.142 -0.0569  3.7634  2.0074
  268MOL0     H35344   4.424   8.396  11.333 -0.4802  1.0952 -5.2107
  268MOL0     H35345   4.391   8.245  11.433 -2.8402 -0.4161 -0.2719
  268MOL0     H35346   4.248   8.175  11.242  2.0658 -0.0858 -3.8835
  268MOL0     H35347   4.264   8.334  11.179  0.4491 -2.0208 -1.6323
  268MOL0     H35348   4.132   8.284  11.449  0.1785 -0.8526 -0.8309
  268MOL0     H35349   4.164   8.443  11.365 -3.2490  0.8799  0.2041
  268MOL0     H35350   3.965   8.399  11.223  0.4993 -1.5269 -1.2851
  268MOL0     H35351   3.936   8.338  11.384  2.5252 -0.0892  1.6640
  268MOL0     H35352   3.979   8.104  11.300 -0.5206  0.0438  0.2371
  268MOL0     H35353   4.024   8.170  11.140 -0.2710  2.3200 -0.7861
  268MOL0     H35354   3.759   8.199  11.280  0.9304 -1.2104  0.6797
  268MOL0     H35355   3.804   8.271  11.122  2.0593  0.2190 -1.0636
  268MOL0     H35356   3.771   7.980  11.212 -0.8599 -1.1052 -0.6004
  268MOL0     H35357   3.841   8.019  11.055 -2.1812  1.1409 -1.8338
  268MOL0     H35358   4.829   8.133  11.362 -2.2459  4.1117  1.6704
  268MOL0     H35359   5.054   8.140  11.238 -2.6265 -0.3562  4.0303
  268MOL0     H35360   5.359   8.586  10.921 -1.5176 -0.4750  2.7347
  268MOL0     H35361   5.592   8.552  10.888  0.6908  0.0143  0.0937
  268MOL0     H35362   6.855   9.658  10.356  0.3095 -0.2474  3.6328
  268MOL0     H35363   7.087   9.656  10.459 -1.9880  0.8255  0.3554
  268MOL0     H35364   7.456   9.635  10.506  0.4674  1.3605 -0.8946
  268MOL0     H35365   7.690   9.690  10.572  4.6375 -0.1342 -1.4613
  268MOL0     H35366   8.020   9.455  10.408 -2.1459  3.1000  0.3801
  268MOL0     H35367   7.991   9.353  10.558  0.5612  1.1955  2.0630
  268MOL0     H35368   8.143   9.619  10.560  0.7706  0.8197  2.6006
  268MOL0     H35369   8.115   9.517  10.690  4.5636 -2.6059  0.9502
  268MOL0     H35370   8.282   9.473  10.425  1.7389 -0.5655  0.3711
  268MOL0     H35371   8.261   9.340  10.541 -1.5288 -0.1621 -0.5082
  268MOL0     H35372   8.372   9.625  10.591  2.1070 -0.9919 -2.6659
  268MOL0     H35373   8.357   9.503  10.716 -2.8188  0.9108 -0.0104
  268MOL0     H35374   8.698   9.373  10.506 -1.4427 -0.7608 -5.0295
  268MOL0     H35375   7.803   9.289  10.462  3.0535  2.3140  1.0947
  268MOL0     H35376   7.582   9.244  10.383 -2.0405  0.8391 -1.5736
  269MOL0     O35377   4.629   3.191   1.493 -0.0386 -0.7688  0.0528
  269MOL0     C35378   4.618   3.235   1.375  1.2152 -0.1127 -0.5199
  269MOL0     O35379   4.505   3.298   1.323  0.0192 -0.0904  0.5286
  269MOL0     C35380   4.388   3.323   1.392 -0.6041  0.2620 -0.5208
  269MOL0     C35381   4.384   3.360   1.524 -0.1147 -0.4450  0.0430
  269MOL0     C35382   4.266   3.400   1.585  0.4057  0.4208 -0.0241
  269MOL0     C35383   4.146   3.391   1.510 -0.0459 -1.1407 -0.6971
  269MOL0     O35384   4.018   3.411   1.566 -0.0633 -0.0633  0.0551
  269MOL0     C35385   3.977   3.536   1.630  0.6915  1.2542  0.6592
  269MOL0     C35386   3.935   3.636   1.530  0.0497 -0.4391 -0.0542
  269MOL0     C35387   3.797   3.609   1.459 -0.2950  0.9132  0.2071
  269MOL0     C35388   3.748   3.722   1.368 -0.2730 -0.4798  0.4018
  269MOL0     C35389   3.633   3.687   1.274 -0.4409 -0.2697 -0.0368
  269MOL0     C35390   3.502   3.708   1.352 -0.0438 -0.5495 -0.0654
  269MOL0     C35391   3.394   3.665   1.258  0.0761 -1.0547  0.1334
  269MOL0     C35392   3.269   3.640   1.339  0.7136 -1.3009  0.0571
  269MOL0     N35393   3.149   3.661   1.251 -0.4798  0.8452 -0.8395
  269MOL0     C35394   3.119   3.573   1.156  0.7419  0.6244 -0.2657
  269MOL0     C35395   2.989   3.608   1.123  0.1185  0.0200 -0.5754
  269MOL0     C35396   2.900   3.538   1.015 -1.8334 -0.3753 -0.1383
  269MOL0     C35397   2.743   3.525   1.044 -0.5185  0.1837 -0.0072
  269MOL0     C35398   2.659   3.494   0.932  0.4054  0.1185 -0.7310
  269MOL0     C35399   2.688   3.352   0.874  0.2908 -0.6537  0.8170
  269MOL0     O35400   2.600   3.324   0.763  0.3728  0.3225  0.0364
  269MOL0     C35401   2.472   3.328   0.793  0.8938  0.7103 -0.0324
  269MOL0     C35402   2.394   3.422   0.720 -1.1601 -0.3118  0.1112
  269MOL0     C35403   2.256   3.410   0.739  0.3329  0.0016  0.2777
  269MOL0     C35404   2.195   3.317   0.824  0.3594  0.3381 -0.5453
  269MOL0     C35405   2.047   3.305   0.831 -0.5939  0.2796  0.0009
  269MOL0     O35406   1.988   3.209   0.917 -0.0970  0.0511  1.0681
  269MOL0     C35407   1.850   3.219   0.920  1.7997 -0.8330  0.5618
  269MOL0     C35408   1.778   3.282   1.025  0.6619 -0.0296 -0.5208
  269MOL0     C35409   1.635   3.286   1.013  0.2373 -0.2755 -0.2930
  269MOL0     C35410   1.564   3.221   0.909 -0.4125  0.3342 -1.3121
  269MOL0     O35411   1.428   3.224   0.903 -0.0398  0.1494  1.1545
  269MOL0     C35412   1.347   3.255   1.017 -0.5611 -1.0284 -0.1260
  269MOL0     C35413   1.193   3.250   0.979  0.3516 -0.1508 -0.4665
  269MOL0     C35414   1.104   3.280   1.097 -0.5628  0.6090  0.3681
  269MOL0     C35415   0.963   3.257   1.036  0.0157  0.1672  0.2974
  269MOL0     C35416   0.862   3.268   1.146 -0.0727 -0.0194  0.2896
  269MOL0     C35417   0.733   3.198   1.114  0.7814  0.6660 -0.0338
  269MOL0     C35418   0.633   3.252   1.016 -0.0458 -0.6066  0.6882
  269MOL0     C35419   0.610   3.406   1.011  0.5170  0.3275  0.5180
  269MOL0    Cl35420   0.518   3.458   0.858 -0.1252  0.3319 -0.5487
  269MOL0     C35421   1.637   3.149   0.817 -0.7156  0.1846  0.5908
  269MOL0     C35422   1.776   3.149   0.814  0.4931  0.3553  0.0429
  269MOL0     O35423   1.993   3.354   0.732  0.2501  0.4063 -0.6228
  269MOL0     C35424   2.277   3.224   0.892 -0.1560  0.8852  1.1053
  269MOL0     C35425   2.420   3.223   0.874 -0.1542 -0.4054  0.1126
  269MOL0     N35426   2.950   3.710   1.201  0.0628 -0.6982  0.0545
  269MOL0     N35427   3.050   3.745   1.274  0.5544  0.6073  0.7856
  269MOL0     C35428   4.142   3.364   1.375 -0.1011  0.1531  0.5336
  269MOL0     C35429   4.274   3.334   1.312  0.1211  0.3015  0.8059
  269MOL0     C35430   4.725   3.191   1.276 -0.6607 -0.9864 -0.5839
  269MOL0     C35431   4.720   3.230   1.144  1.0515 -0.4127  0.3723
  269MOL0     C35432   4.829   3.218   1.050 -0.2902  0.4205 -0.0133
  269MOL0     C35433   4.933   3.134   1.092  0.4375 -0.0072  0.4082
  269MOL0     O35434   5.049   3.126   1.002 -0.0326 -0.5400  0.0168
  269MOL0     C35435   5.178   3.085   1.056 -0.1817 -0.4695 -0.1614
  269MOL0     C35436   5.281   3.158   0.981  0.0634 -0.0820  0.1056
  269MOL0     C35437   5.422   3.119   1.023 -0.4759 -0.9020 -0.4773
  269MOL0     C35438   5.526   3.214   0.967 -0.0804  0.6534 -0.3183
  269MOL0     C35439   5.539   3.183   0.827 -0.1624 -0.0683  1.0776
  269MOL0     C35440   5.539   3.184   0.705 -0.3020  0.9141  0.0273
  269MOL0     C35441   4.932   3.067   1.216 -0.4659 -0.9045 -0.2742
  269MOL0     C35442   4.836   3.111   1.312 -0.1759 -0.4835  0.1001
  269MOL0     H35443   4.467   3.360   1.593 -2.2807 -0.1119  2.8392
  269MOL0     H35444   4.277   3.408   1.692  0.1923 -1.5682  0.1821
  269MOL0     H35445   4.056   3.562   1.701 -0.7894  2.4676  1.9567
  269MOL0     H35446   3.887   3.511   1.688  0.1902 -3.1470 -1.6193
  269MOL0     H35447   4.010   3.644   1.451 -2.4002 -1.3578 -2.6842
  269MOL0     H35448   3.918   3.730   1.582 -0.5558  0.0026 -1.0202
  269MOL0     H35449   3.727   3.583   1.539  2.6425 -0.8161  2.4606
  269MOL0     H35450   3.813   3.517   1.402 -1.4266  1.1684 -0.5661
  269MOL0     H35451   3.724   3.810   1.428 -0.8067 -1.0467  1.0446
  269MOL0     H35452   3.840   3.739   1.312  2.8696 -2.3115  4.4267
  269MOL0     H35453   3.643   3.588   1.229 -1.3571  1.1988 -3.8711
  269MOL0     H35454   3.636   3.754   1.187 -2.9202  0.6232  0.5006
  269MOL0     H35455   3.500   3.814   1.379  1.8083 -0.5697  0.2187
  269MOL0     H35456   3.504   3.646   1.442  1.4247 -0.2598  0.1239
  269MOL0     H35457   3.379   3.748   1.189  0.4192  0.2161  1.5164
  269MOL0     H35458   3.428   3.584   1.194 -1.0926 -1.8230  0.4609
  269MOL0     H35459   3.262   3.715   1.418 -0.1357  0.5104 -1.6439
  269MOL0     H35460   3.272   3.537   1.373  0.0717 -1.8225 -1.3749
  269MOL0     H35461   3.168   3.485   1.116 -1.2345 -1.4345  1.5306
  269MOL0     H35462   2.944   3.439   1.000  0.4163  0.2298  1.9341
  269MOL0     H35463   2.909   3.604   0.928 -1.2309  2.2895  1.8355
  269MOL0     H35464   2.705   3.622   1.079  0.3600  0.9523 -1.1194
  269MOL0     H35465   2.721   3.457   1.128  0.1018 -2.7984 -2.0908
  269MOL0     H35466   2.555   3.508   0.960  1.1187  0.2932  2.1478
  269MOL0     H35467   2.674   3.564   0.849 -0.9342  1.9983  0.5504
  269MOL0     H35468   2.679   3.275   0.951 -1.2709  0.4537  1.8098
  269MOL0     H35469   2.787   3.346   0.829 -1.0419 -1.0767 -2.3761
  269MOL0     H35470   2.451   3.480   0.648 -0.2343 -2.5637 -1.0514
  269MOL0     H35471   2.189   3.479   0.689  0.5798 -0.3675 -0.5892
  269MOL0     H35472   1.837   3.326   1.104 -0.0337 -1.2477  0.7351
  269MOL0     H35473   1.587   3.339   1.094 -1.4807 -2.2082  0.0290
  269MOL0     H35474   1.360   3.361   1.040 -2.6961 -0.4720 -1.2577
  269MOL0     H35475   1.373   3.192   1.102 -0.6144 -1.1774 -0.2208
  269MOL0     H35476   1.168   3.150   0.942 -0.2889  1.4957 -5.2333
  269MOL0     H35477   1.183   3.332   0.907 -0.9482  2.1225  2.1428
  269MOL0     H35478   1.117   3.385   1.125 -2.6492  0.4190  2.3054
  269MOL0     H35479   1.127   3.211   1.180 -2.0360 -0.7298 -0.3044
  269MOL0     H35480   0.938   3.338   0.966 -0.8013  0.9179  1.4088
  269MOL0     H35481   0.957   3.161   0.984  1.1532  1.1761 -1.8562
  269MOL0     H35482   0.847   3.370   1.182 -3.3780 -0.3102  0.0381
  269MOL0     H35483   0.899   3.211   1.231 -1.7475 -0.1131  1.0064
  269MOL0     H35484   0.674   3.186   1.206 -0.2727 -0.6153 -0.8257
  269MOL0     H35485   0.758   3.095   1.087  0.9515  1.1501 -1.8377
  269MOL0     H35486   0.675   3.218   0.921  1.7203  0.6553  0.9556
  269MOL0     H35487   0.538   3.200   1.029  0.7721 -3.0623 -2.1520
  269MOL0     H35488   0.705   3.452   1.038  0.6318 -1.1843  2.9592
  269MOL0     H35489   0.541   3.429   1.092 -0.9702 -3.4758  0.5187
  269MOL0     H35490   1.582   3.099   0.738  3.3117 -0.6398 -1.9931
  269MOL0     H35491   1.820   3.100   0.728  0.8789 -1.2909  1.1402
  269MOL0     H35492   2.237   3.147   0.956  2.0396 -3.4151 -2.1373
  269MOL0     H35493   2.491   3.150   0.911 -0.1117 -0.0398  0.7696
  269MOL0     H35494   4.048   3.391   1.326  0.7722  3.5588  0.5278
  269MOL0     H35495   4.257   3.326   1.205 -3.1200  3.5958  0.8527
  269MOL0     H35496   4.634   3.283   1.105  0.7470 -1.6861 -0.7583
  269MOL0     H35497   4.828   3.266   0.952 -0.0172  0.2923 -0.0817
  269MOL0     H35498   5.204   2.979   1.050  3.3498  0.2656 -0.2337
  269MOL0     H35499   5.186   3.125   1.158  1.0056 -0.1247 -0.3792
  269MOL0     H35500   5.268   3.140   0.874 -0.6450 -1.5573  0.4106
  269MOL0     H35501   5.261   3.264   0.997 -1.7380 -0.6797  2.3649
  269MOL0     H35502   5.440   3.019   0.984 -2.3460 -1.2566 -0.5143
  269MOL0     H35503   5.429   3.110   1.132  0.3598 -3.4295 -0.6689
  269MOL0     H35504   5.494   3.314   0.999  0.6178  0.3486  1.4412
  269MOL0     H35505   5.626   3.186   0.999 -1.0821 -1.4011  1.2420
  269MOL0     H35506   5.527   3.188   0.599  2.2794  0.9829 -0.3307
  269MOL0     H35507   5.005   2.991   1.243  2.9793  1.8947 -0.8787
  269MOL0     H35508   4.838   3.068   1.412 -0.5000  1.1296  0.8414
  270MOL0     O35509  10.050   2.024   2.738 -0.1984 -0.4693 -1.0254
  270MOL0     C35510  10.082   2.127   2.798  0.2892  0.0670  0.6043
  270MOL0     O35511   9.989   2.211   2.869  0.3845 -0.0394 -0.3603
  270MOL0     C35512   9.870   2.195   2.816  0.6846 -0.1185  0.1540
  270MOL0     C35513   9.778   2.102   2.852  0.6351 -0.2901  0.0038
  270MOL0     C35514   9.645   2.099   2.807  0.6535 -0.1675 -0.3270
  270MOL0     C35515   9.601   2.201   2.720  0.9153  0.6869 -0.2751
  270MOL0     O35516   9.473   2.211   2.669  0.3041  0.1739  0.9615
  270MOL0     C35517   9.383   2.100   2.708  0.8776  0.5350 -0.4605
  270MOL0     C35518   9.249   2.104   2.628 -0.0521 -0.1557 -0.3806
  270MOL0     C35519   9.152   2.003   2.675 -0.4526  0.3769 -0.5659
  270MOL0     C35520   9.039   2.002   2.583  0.6965 -0.3469 -0.3442
  270MOL0     C35521   8.934   1.906   2.647 -0.1018  0.4308  0.2699
  270MOL0     C35522   8.788   1.912   2.591 -0.7562  0.4917 -0.5271
  270MOL0     C35523   8.719   1.784   2.623  0.9485  0.3019  0.2945
  270MOL0     C35524   8.576   1.799   2.579  0.8001  0.8588 -0.2627
  270MOL0     N35525   8.492   1.678   2.623 -1.1143 -0.5029 -0.0981
  270MOL0     C35526   8.396   1.681   2.722 -0.0841 -0.3281  0.8322
  270MOL0     C35527   8.327   1.564   2.719 -0.5820  0.2907  0.0800
  270MOL0     C35528   8.216   1.533   2.807  1.0118 -0.2903  0.0171
  270MOL0     C35529   8.088   1.482   2.730 -0.1764  0.6430 -0.1983
  270MOL0     C35530   8.024   1.597   2.642 -0.0355 -0.0050  0.3415
  270MOL0     C35531   7.891   1.544   2.594  0.8329  0.0040  0.1249
  270MOL0     O35532   7.820   1.671   2.569  0.1768 -0.4977  0.1614
  270MOL0     C35533   7.687   1.648   2.536  0.2757  0.0364 -0.0408
  270MOL0     C35534   7.602   1.752   2.501  0.7128  0.0456 -0.3996
  270MOL0     C35535   7.464   1.740   2.493  0.2687 -0.2550  0.1787
  270MOL0     C35536   7.403   1.612   2.504  0.2912  0.3915 -0.0591
  270MOL0     C35537   7.251   1.604   2.501  0.6528 -0.0266 -0.3081
  270MOL0     O35538   7.199   1.480   2.496  0.2890  0.5700  1.1031
  270MOL0     C35539   7.065   1.443   2.516 -0.1106  0.0058  0.0896
  270MOL0     C35540   7.022   1.322   2.469  0.3726 -0.1641  0.2142
  270MOL0     C35541   6.883   1.285   2.486  0.5675  0.5072 -0.5509
  270MOL0     C35542   6.788   1.373   2.551 -0.4878 -0.3001  0.2969
  270MOL0     O35543   6.655   1.337   2.568  0.1422  0.8987 -0.5671
  270MOL0     C35544   6.592   1.222   2.504 -0.2269  1.0369 -0.0536
  270MOL0     C35545   6.439   1.212   2.548 -0.1093  0.4293  0.3909
  270MOL0     C35546   6.438   1.168   2.695  0.8054  0.5910 -0.0410
  270MOL0     C35547   6.293   1.151   2.752  0.5090 -0.0801 -0.3434
  270MOL0     C35548   6.283   1.075   2.890  0.6309  0.5670 -0.0318
  270MOL0     C35549   6.145   1.080   2.952 -0.0408  0.6252 -0.7690
  270MOL0     C35550   6.097   1.215   2.995 -0.1188  0.7620  0.8323
  270MOL0     C35551   5.980   1.200   3.083 -0.0429  1.4237 -0.7226
  270MOL0    Cl35552   5.849   1.126   2.988 -0.1163 -0.1971  0.2911
  270MOL0     C35553   6.842   1.483   2.604 -0.1308 -0.6815 -0.1802
  270MOL0     C35554   6.972   1.522   2.579 -0.0284 -0.1050 -1.8730
  270MOL0     O35555   7.197   1.708   2.531 -0.0972  0.0160 -0.1348
  270MOL0     C35556   7.492   1.500   2.524 -0.1200 -0.1861  0.1957
  270MOL0     C35557   7.633   1.516   2.522 -0.4079 -0.4911  0.2529
  270MOL0     N35558   8.400   1.474   2.636  0.3250  0.3507  0.4426
  270MOL0     N35559   8.503   1.542   2.585 -0.5859 -0.1354 -0.6791
  270MOL0     C35560   9.695   2.297   2.680 -0.0616  0.0074 -0.3224
  270MOL0     C35561   9.827   2.294   2.730  1.1222  0.2001  0.5477
  270MOL0     C35562  10.228   2.163   2.833  0.5106  0.1482 -0.0454
  270MOL0     C35563  10.256   2.290   2.888  0.0173  0.1375  0.2700
  270MOL0     C35564  10.385   2.326   2.914  0.0490  0.1928  0.3487
  270MOL0     C35565  10.493   2.241   2.892  0.5247 -0.0689 -0.5701
  270MOL0     O35566  10.621   2.297   2.909  0.2999 -0.1562 -0.1858
  270MOL0     C35567  10.726   2.205   2.872  0.1553 -0.1648 -0.2632
  270MOL0     C35568  10.862   2.272   2.908  0.2223  0.0666  0.0484
  270MOL0     C35569  10.875   2.405   2.829  0.3865  0.6870 -0.6986
  270MOL0     C35570  11.024   2.433   2.817  0.2740  0.1529  0.7723
  270MOL0     C35571  11.046   2.555   2.737  0.3064  0.0249 -0.4509
  270MOL0     C35572  11.053   2.669   2.684  0.3786 -0.0548 -0.6782
  270MOL0     C35573  10.467   2.111   2.843 -0.0935  0.2847  0.1644
  270MOL0     C35574  10.337   2.073   2.810  0.5751  0.5065 -0.3280
  270MOL0     H35575   9.806   2.029   2.927 -0.2006  0.4664  1.0641
  270MOL0     H35576   9.594   2.007   2.829  3.9564 -1.5600  2.3788
  270MOL0     H35577   9.351   2.101   2.813 -0.1481  1.5675 -0.7758
  270MOL0     H35578   9.416   1.998   2.684 -2.4912 -0.7200 -0.3230
  270MOL0     H35579   9.268   2.083   2.522  1.1342 -0.8382 -0.0536
  270MOL0     H35580   9.199   2.200   2.640  0.2674 -0.1341  0.8501
  270MOL0     H35581   9.121   2.022   2.778 -2.9922 -3.3080 -0.4406
  270MOL0     H35582   9.195   1.903   2.667 -2.1880 -0.2863 -2.7961
  270MOL0     H35583   8.991   2.100   2.575 -2.6485 -1.7701  0.2200
  270MOL0     H35584   9.071   1.965   2.485  0.4108  1.3849 -1.1178
  270MOL0     H35585   8.922   1.942   2.749  2.4645  0.8104  0.4989
  270MOL0     H35586   8.983   1.809   2.650 -0.9859  0.0089  1.7377
  270MOL0     H35587   8.779   1.920   2.482 -0.3450 -1.8484 -0.7833
  270MOL0     H35588   8.752   2.002   2.642  1.0973  2.3503 -2.2749
  270MOL0     H35589   8.770   1.704   2.568 -2.0886 -2.6261  1.3517
  270MOL0     H35590   8.717   1.771   2.732  0.8897  4.0940  0.8781
  270MOL0     H35591   8.570   1.801   2.470 -1.4060 -0.7145 -0.2422
  270MOL0     H35592   8.534   1.889   2.626 -2.9537  0.5795 -2.5879
  270MOL0     H35593   8.357   1.769   2.771  1.0729  1.1649 -0.8223
  270MOL0     H35594   8.198   1.626   2.863  0.0358  0.1593 -0.9888
  270MOL0     H35595   8.244   1.461   2.884 -1.9115 -2.4516 -0.7300
  270MOL0     H35596   8.014   1.460   2.807 -1.4562  4.6582 -0.0610
  270MOL0     H35597   8.117   1.396   2.669 -0.3200  1.1460 -0.9859
  270MOL0     H35598   8.008   1.682   2.709 -0.2662  1.4968 -1.5340
  270MOL0     H35599   8.088   1.622   2.557 -2.8588  1.5811 -1.4523
  270MOL0     H35600   7.841   1.488   2.673  2.2184  1.1330  1.8583
  270MOL0     H35601   7.912   1.484   2.505 -0.3008 -1.2890  0.6990
  270MOL0     H35602   7.649   1.850   2.504 -0.3204  0.5353  0.0582
  270MOL0     H35603   7.413   1.835   2.492  2.9664  1.3577  2.1286
  270MOL0     H35604   7.095   1.267   2.410  1.3655  0.3991  0.8855
  270MOL0     H35605   6.843   1.195   2.441 -2.7383  0.9294  1.2196
  270MOL0     H35606   6.649   1.135   2.537 -0.4527  0.4423 -1.1642
  270MOL0     H35607   6.596   1.233   2.395 -0.4251 -3.2378 -0.6722
  270MOL0     H35608   6.396   1.132   2.488  0.4936  0.0945  0.3935
  270MOL0     H35609   6.396   1.311   2.534 -0.6579  0.1236 -0.0894
  270MOL0     H35610   6.503   1.235   2.752  0.9740 -1.3071  2.2006
  270MOL0     H35611   6.481   1.068   2.699 -1.0061 -0.1962  1.2593
  270MOL0     H35612   6.248   1.249   2.767  0.2262 -0.5799  2.6279
  270MOL0     H35613   6.232   1.092   2.682 -0.7639  0.4319  0.3042
  270MOL0     H35614   6.348   1.119   2.966 -0.0062  1.3932  0.0485
  270MOL0     H35615   6.314   0.974   2.864  0.7860  0.8215 -0.8885
  270MOL0     H35616   6.149   1.016   3.041 -0.0321 -2.1892 -2.6702
  270MOL0     H35617   6.071   1.037   2.884 -1.2442  0.1268  0.7959
  270MOL0     H35618   6.182   1.272   3.034 -1.0003  0.5165  3.3173
  270MOL0     H35619   6.056   1.268   2.909 -3.3731  1.9627  2.9187
  270MOL0     H35620   5.945   1.297   3.120  1.1426  1.0739  1.4882
  270MOL0     H35621   5.992   1.138   3.172 -0.6665  3.4144  0.8207
  270MOL0     H35622   6.779   1.555   2.656  0.5873  0.8557 -1.3291
  270MOL0     H35623   6.995   1.619   2.623  0.0234 -0.4328 -1.1671
  270MOL0     H35624   7.445   1.402   2.529 -0.9245 -0.0056 -2.3989
  270MOL0     H35625   7.689   1.425   2.542  2.5301  1.3985  1.2674
  270MOL0     H35626   9.657   2.382   2.625 -1.6796 -1.6540 -1.9250
  270MOL0     H35627   9.892   2.376   2.704 -1.4359  1.7774 -1.4290
  270MOL0     H35628  10.171   2.346   2.927 -0.5790 -1.6169  1.6483
  270MOL0     H35629  10.382   2.427   2.956 -1.8151 -0.2021  1.2837
  270MOL0     H35630  10.726   2.188   2.764  0.3258  1.3449 -0.5253
  270MOL0     H35631  10.727   2.113   2.932 -3.7801  0.1556  0.5678
  270MOL0     H35632  10.871   2.285   3.016 -0.5176  0.1070  0.1131
  270MOL0     H35633  10.942   2.203   2.880  0.7582  0.6275  0.1786
  270MOL0     H35634  10.837   2.484   2.896  0.0735 -0.7874  0.9407
  270MOL0     H35635  10.827   2.415   2.731 -0.8293  1.2967 -0.0727
  270MOL0     H35636  11.074   2.437   2.914  2.4803 -0.9748 -0.2374
  270MOL0     H35637  11.065   2.351   2.757 -0.7469  0.1383  0.0667
  270MOL0     H35638  11.058   2.765   2.637  2.7999  0.0632 -0.3298
  270MOL0     H35639  10.540   2.041   2.806 -0.1591 -0.3269  1.1548
  270MOL0     H35640  10.317   1.971   2.778  4.8581 -0.1072 -1.6753
  271MOL0     O35641   4.067   0.588   0.884 -0.6902 -0.7615 -0.5112
  271MOL0     C35642   4.149   0.501   0.851  0.1279 -0.2094  0.0937
  271MOL0     O35643   4.114   0.378   0.789 -0.5570 -0.0017 -0.3727
  271MOL0     C35644   3.989   0.333   0.827 -0.8839  0.6705 -0.3086
  271MOL0     C35645   3.877   0.384   0.769 -0.1364 -0.1357 -0.6486
  271MOL0     C35646   3.755   0.335   0.787  0.7898  0.2095  0.6081
  271MOL0     C35647   3.735   0.219   0.865 -0.3097 -0.3647  0.9137
  271MOL0     O35648   3.617   0.170   0.902  0.0174  0.0417 -0.7729
  271MOL0     C35649   3.494   0.217   0.848  0.4726 -0.2070 -0.3087
  271MOL0     C35650   3.389   0.152   0.934  0.4852  0.1902 -0.0112
  271MOL0     C35651   3.259   0.228   0.913 -0.2834 -0.2105  0.5994
  271MOL0     C35652   3.141   0.138   0.970  1.0070  0.6516 -0.5529
  271MOL0     C35653   3.009   0.205   0.957 -0.3024  0.0452 -0.4652
  271MOL0     C35654   2.955   0.223   0.815  1.2233 -0.3488 -0.7530
  271MOL0     C35655   2.805   0.234   0.815 -1.2263  0.3311 -0.6664
  271MOL0     C35656   2.732   0.103   0.853  0.7319  0.6964  0.1556
  271MOL0     N35657   2.587   0.118   0.849  0.4481  0.2748 -0.3148
  271MOL0     C35658   2.516   0.131   0.733 -0.5415  0.0535  1.1905
  271MOL0     C35659   2.386   0.130   0.766  0.6565 -0.5448 -0.2896
  271MOL0     C35660   2.266   0.121   0.675 -0.2841  0.4457  0.5703
  271MOL0     C35661   2.137   0.172   0.745 -1.2756 -0.3454 -0.2449
  271MOL0     C35662   2.023   0.179   0.643 -0.3470  0.3811 -0.1792
  271MOL0     C35663   1.898   0.239   0.714  0.0852  0.0506  0.5640
  271MOL0     O35664   1.844   0.150   0.809  0.1423  0.2222  0.4544
  271MOL0     C35665   1.715   0.169   0.842  0.0394 -0.2696 -0.9894
  271MOL0     C35666   1.666   0.298   0.870  0.1976 -0.4285  0.5055
  271MOL0     C35667   1.537   0.327   0.908 -0.0098 -0.4600 -0.0905
  271MOL0     C35668   1.449   0.220   0.927  0.1650  0.5399 -0.1770
  271MOL0     C35669   1.304   0.242   0.953  0.3604  0.3731  1.0331
  271MOL0     O35670   1.246   0.347   0.894 -0.8560  0.3751  0.3382
  271MOL0     C35671   1.114   0.374   0.898 -0.0370  0.4096 -0.7304
  271MOL0     C35672   1.021   0.340   1.000  0.2762 -0.8218 -0.9896
  271MOL0     C35673   0.878   0.356   0.972  0.2498  0.2720  0.1614
  271MOL0     C35674   0.839   0.408   0.853 -0.5906  0.1378 -0.0179
  271MOL0     O35675   0.709   0.411   0.808 -0.2507 -0.0594  0.3674
  271MOL0     C35676   0.617   0.320   0.885 -0.3534  0.1566  0.4089
  271MOL0     C35677   0.479   0.306   0.823 -0.9518 -0.1733  0.1567
  271MOL0     C35678   0.395   0.188   0.862 -0.0182 -0.0913  0.7263
  271MOL0     C35679   0.334   0.198   1.002 -0.0599  0.0294 -0.3372
  271MOL0     C35680   0.240   0.086   1.065  0.0643 -0.2272  0.0063
  271MOL0     C35681   0.156   0.147   1.182 -0.4087 -0.5530 -0.4929
  271MOL0     C35682   0.130   0.039   1.286  0.0801 -0.3160 -0.8076
  271MOL0     C35683   0.059   0.100   1.406 -0.2414 -0.0751  0.4691
  271MOL0    Cl35684  -0.014  -0.024   1.485 -0.0828  0.2224 -0.2125
  271MOL0     C35685   0.931   0.446   0.757 -0.8039  0.0193 -0.3440
  271MOL0     C35686   1.068   0.421   0.780  0.1590  0.3674  0.5886
  271MOL0     O35687   1.257   0.178   1.041  0.0935 -0.6496 -0.1756
  271MOL0     C35688   1.492   0.084   0.908  0.4256  0.0090  0.0130
  271MOL0     C35689   1.623   0.056   0.865 -0.1294 -2.3371  0.5138
  271MOL0     N35690   2.375   0.127   0.901 -0.7883  0.2807 -0.2462
  271MOL0     N35691   2.502   0.116   0.948 -0.4694  0.5337  0.0872
  271MOL0     C35692   3.846   0.160   0.929 -0.2645  0.4865  0.1744
  271MOL0     C35693   3.974   0.220   0.916 -0.7724  0.5798 -0.1801
  271MOL0     C35694   4.297   0.525   0.880 -0.6183  0.4806  0.3848
  271MOL0     C35695   4.390   0.429   0.830  0.0376  0.9681  0.1563
  271MOL0     C35696   4.527   0.460   0.818  0.0440  0.5328 -0.5246
  271MOL0     C35697   4.577   0.576   0.879  0.0737  0.1946  0.3103
  271MOL0     O35698   4.711   0.611   0.887 -0.3643  0.2182 -0.2778
  271MOL0     C35699   4.762   0.703   0.787  0.6184  0.7323 -1.1636
  271MOL0     C35700   4.891   0.638   0.726  0.5957 -0.3552 -0.0592
  271MOL0     C35701   4.873   0.521   0.631  0.3963  0.0388  0.0539
  271MOL0     C35702   5.010   0.473   0.577  0.5713  0.0155  0.4539
  271MOL0     C35703   5.004   0.342   0.513  0.4027  0.7611  0.2085
  271MOL0     C35704   4.988   0.232   0.447  0.1193  0.7220 -0.2415
  271MOL0     C35705   4.490   0.673   0.931 -0.3751  0.3398 -0.6880
  271MOL0     C35706   4.349   0.644   0.926 -0.1009 -0.9143 -1.0759
  271MOL0     H35707   3.904   0.472   0.710 -0.2498  1.5096  1.6133
  271MOL0     H35708   3.670   0.391   0.747  0.3507  1.0715  2.6425
  271MOL0     H35709   3.484   0.191   0.742 -2.3504  0.5498 -0.2867
  271MOL0     H35710   3.495   0.325   0.859 -2.4101 -0.3345  2.2205
  271MOL0     H35711   3.412   0.155   1.041 -0.4500  0.2065  0.2019
  271MOL0     H35712   3.384   0.047   0.905  0.7193 -0.1841  1.2443
  271MOL0     H35713   3.229   0.237   0.808 -0.9031  0.8482  0.8502
  271MOL0     H35714   3.251   0.326   0.963 -0.9052 -0.5701  1.2297
  271MOL0     H35715   3.131   0.052   0.905 -3.7013  0.7814 -0.3543
  271MOL0     H35716   3.148   0.108   1.075 -0.4427 -1.0926 -0.9161
  271MOL0     H35717   3.012   0.305   1.001 -0.3582 -0.6695  1.2566
  271MOL0     H35718   2.932   0.157   1.018 -1.7648  2.5620 -0.1864
  271MOL0     H35719   2.990   0.138   0.756  1.6398 -1.1414  0.5833
  271MOL0     H35720   2.981   0.325   0.783 -1.5985  0.5416 -0.4847
  271MOL0     H35721   2.781   0.313   0.886  0.1151  0.4044 -0.2714
  271MOL0     H35722   2.787   0.256   0.709  1.5974  0.0877 -1.2763
  271MOL0     H35723   2.752   0.070   0.955  1.7711 -0.9079 -0.5412
  271MOL0     H35724   2.758   0.025   0.782 -3.4430 -2.0447  1.2545
  271MOL0     H35725   2.556   0.109   0.635  1.3182 -2.8624  2.4796
  271MOL0     H35726   2.260   0.017   0.642  2.7863  0.5354 -0.5702
  271MOL0     H35727   2.289   0.188   0.592  1.1165 -1.9640 -1.1211
  271MOL0     H35728   2.164   0.270   0.784 -0.9079 -0.2665 -0.6832
  271MOL0     H35729   2.119   0.109   0.833  1.1799 -0.4408  0.2676
  271MOL0     H35730   2.054   0.251   0.566  0.7638 -1.7999 -1.8764
  271MOL0     H35731   2.010   0.080   0.600  0.6025  0.0997  0.1572
  271MOL0     H35732   1.829   0.276   0.637  3.0339  2.7226 -1.0452
  271MOL0     H35733   1.924   0.334   0.763 -0.2745  1.4943 -1.8792
  271MOL0     H35734   1.737   0.380   0.878 -0.3911 -0.0571  2.3758
  271MOL0     H35735   1.502   0.429   0.918  0.5258 -0.1546 -1.1786
  271MOL0     H35736   1.054   0.289   1.090 -1.1024  0.0675  0.0762
  271MOL0     H35737   0.800   0.322   1.039  0.0991 -1.2980 -0.7621
  271MOL0     H35738   0.593   0.352   0.987 -0.6522 -0.8668  0.6671
  271MOL0     H35739   0.661   0.220   0.883  1.3815  0.8934 -0.5625
  271MOL0     H35740   0.509   0.303   0.718  4.2890  1.1464  1.3494
  271MOL0     H35741   0.432   0.404   0.837  2.7731  1.8224 -0.0150
  271MOL0     H35742   0.446   0.092   0.857 -0.2798 -0.2603  1.2899
  271MOL0     H35743   0.312   0.171   0.792  1.4490 -2.1732 -0.5802
  271MOL0     H35744   0.415   0.200   1.075  1.1876 -1.9068 -1.5690
  271MOL0     H35745   0.278   0.291   1.014 -1.8328 -0.9915 -0.3236
  271MOL0     H35746   0.298  -0.003   1.091  0.7694  0.0235 -0.6799
  271MOL0     H35747   0.163   0.059   0.992 -0.8241  1.2829  0.3319
  271MOL0     H35748   0.071   0.196   1.135 -0.0127 -0.1682 -0.8152
  271MOL0     H35749   0.221   0.223   1.227  1.0795 -2.9858  1.8305
  271MOL0     H35750   0.062  -0.032   1.240 -0.6285 -0.9979  1.2083
  271MOL0     H35751   0.226  -0.002   1.318  0.4485  1.7474  1.0059
  271MOL0     H35752  -0.010   0.175   1.366  1.7872  2.0237  0.7701
  271MOL0     H35753   0.120   0.158   1.475  3.2694 -2.1372 -0.6629
  271MOL0     H35754   0.891   0.479   0.662  0.5543 -0.9196 -1.2850
  271MOL0     H35755   1.133   0.454   0.699 -0.6013  3.0831  0.9831
  271MOL0     H35756   1.429  -0.003   0.920  0.1846 -0.0203 -1.2650
  271MOL0     H35757   1.665  -0.036   0.827 -1.5063 -2.5101 -0.6711
  271MOL0     H35758   3.811   0.076   0.988 -2.8973  0.4816 -1.2048
  271MOL0     H35759   4.066   0.178   0.955 -1.1249  0.4535  0.5297
  271MOL0     H35760   4.349   0.338   0.789 -3.0006  3.5283 -3.1853
  271MOL0     H35761   4.585   0.395   0.754  1.6295  1.1148  0.2713
  271MOL0     H35762   4.783   0.799   0.835 -0.4020  0.8098 -0.8544
  271MOL0     H35763   4.688   0.727   0.711 -1.6455 -0.4403  0.5586
  271MOL0     H35764   4.963   0.707   0.681  2.6165 -2.3584 -0.0807
  271MOL0     H35765   4.945   0.606   0.816 -2.3701 -0.0059  1.9886
  271MOL0     H35766   4.807   0.547   0.548 -1.4382  2.3961  2.1007
  271MOL0     H35767   4.821   0.448   0.693  1.1472 -0.1468  0.4759
  271MOL0     H35768   5.043   0.544   0.500  0.5795 -0.7362 -0.2467
  271MOL0     H35769   5.086   0.473   0.656  0.2808 -0.6451  0.7318
  271MOL0     H35770   4.970   0.131   0.416 -0.2683  0.5403  0.5408
  271MOL0     H35771   4.519   0.763   0.984 -2.0750  2.0335 -2.4704
  271MOL0     H35772   4.293   0.721   0.977  3.0287 -1.1238  3.2271
  272MOL0     O35773   0.710   0.599  10.982 -0.2798 -0.5511  0.0648
  272MOL0     C35774   0.680   0.612  10.863 -0.2650  0.3433  0.7224
  272MOL0     O35775   0.769   0.616  10.759 -0.1110 -1.0941 -0.2589
  272MOL0     C35776   0.900   0.592  10.782  0.0823  0.3345  0.7735
  272MOL0     C35777   0.948   0.479  10.857 -0.2579  0.9831  0.3290
  272MOL0     C35778   1.077   0.472  10.902 -0.0312  0.1295 -0.1884
  272MOL0     C35779   1.174   0.552  10.849 -0.2893  0.7139 -0.5092
  272MOL0     O35780   1.300   0.510  10.885  0.4367 -0.5401  0.5702
  272MOL0     C35781   1.409   0.605  10.844 -0.0439 -0.6343  0.5529
  272MOL0     C35782   1.539   0.535  10.867 -0.0589  0.5581 -0.0818
  272MOL0     C35783   1.662   0.626  10.864 -0.8718 -1.0137 -0.6359
  272MOL0     C35784   1.711   0.674  10.724 -0.9095  0.3555 -0.1784
  272MOL0     C35785   1.847   0.741  10.736  0.5406 -0.3588  0.4304
  272MOL0     C35786   1.878   0.832  10.609 -0.7636 -1.4871 -0.4133
  272MOL0     C35787   2.002   0.915  10.651  0.2898 -1.1218  0.0121
  272MOL0     C35788   2.132   0.842  10.693 -0.6545  0.3163  0.3424
  272MOL0     N35789   2.230   0.940  10.716  0.3574  0.5747 -0.4098
  272MOL0     C35790   2.337   0.965  10.645  0.1807  0.0609 -0.0179
  272MOL0     C35791   2.388   1.078  10.704 -0.0109 -0.5281 -0.5955
  272MOL0     C35792   2.511   1.140  10.654 -0.5399 -0.5799 -0.0032
  272MOL0     C35793   2.638   1.054  10.688  0.7737  1.0858  0.6203
  272MOL0     C35794   2.753   1.146  10.683  0.3219  0.0150  0.1101
  272MOL0     C35795   2.891   1.084  10.666  0.1145  0.3688  0.7512
  272MOL0     O35796   2.914   1.022  10.793  0.0463 -0.6291 -0.0038
  272MOL0     C35797   3.044   1.000  10.826 -0.6675 -0.3366 -0.2797
  272MOL0     C35798   3.154   1.003  10.732 -0.3093 -0.0295 -0.4380
  272MOL0     C35799   3.284   0.985  10.777 -0.0037  0.4068  0.2227
  272MOL0     C35800   3.309   0.976  10.918 -0.5670  0.1258 -0.0836
  272MOL0     C35801   3.449   0.989  10.969  0.1614  0.9501 -0.2639
  272MOL0     O35802   3.548   1.016  10.867  0.4006 -0.7946 -0.0754
  272MOL0     C35803   3.673   1.052  10.918 -0.2833  0.1520  0.5109
  272MOL0     C35804   3.784   0.993  10.851  0.1939  0.0380 -0.0079
  272MOL0     C35805   3.917   1.015  10.902 -0.0469 -0.4289 -0.1664
  272MOL0     C35806   3.945   1.112  11.001 -0.4789  0.4467  0.2670
  272MOL0     O35807   4.082   1.130  11.028  1.2010  0.5157 -0.4672
  272MOL0     C35808   4.118   1.219  11.136  0.5984 -0.1347  1.1634
  272MOL0     C35809   4.264   1.210  11.176 -0.1383  0.0819 -0.6129
  272MOL0     C35810   4.357   1.266  11.074 -0.0115 -0.3665  0.9299
  272MOL0     C35811   4.503   1.237  11.124  0.1944 -0.1370  0.0808
  272MOL0     C35812   4.608   1.276  11.022 -0.0433 -0.3374  0.0545
  272MOL0     C35813   4.747   1.281  11.083 -0.4582  0.1099  0.7618
  272MOL0     C35814   4.836   1.377  10.990 -0.1568 -0.2340  0.1936
  272MOL0     C35815   4.985   1.353  10.994 -0.8220 -0.2827 -0.1928
  272MOL0    Cl35816   5.065   1.470  10.881  0.0246 -0.1653 -0.0261
  272MOL0     C35817   3.833   1.168  11.061  0.1449  0.0354  0.0587
  272MOL0     C35818   3.701   1.139  11.022 -0.0533  1.2479 -0.6640
  272MOL0     O35819   3.473   0.963  11.089  0.2392  0.0375 -0.3982
  272MOL0     C35820   3.203   0.963  11.004 -0.1141 -0.6718 -0.2066
  272MOL0     C35821   3.072   0.968  10.958 -0.1218 -0.1375  0.1731
  272MOL0     N35822   2.315   1.107  10.817 -0.2659  0.7844 -0.9989
  272MOL0     N35823   2.219   1.022  10.820  0.2967 -0.2728  0.0789
  272MOL0     C35824   1.131   0.663  10.776 -0.2151  0.4043 -0.4770
  272MOL0     C35825   0.996   0.688  10.751 -0.1805  0.7321 -0.9092
  272MOL0     C35826   0.535   0.594  10.839  0.0197 -0.2868  0.1168
  272MOL0     C35827   0.487   0.596  10.711 -0.2976  0.8636 -0.1220
  272MOL0     C35828   0.354   0.577  10.683  0.2485 -0.2855  0.6770
  272MOL0     C35829   0.255   0.557  10.777  0.7798  0.8387 -0.1494
  272MOL0     O35830   0.117   0.549  10.760 -0.2886 -0.4054 -0.4365
  272MOL0     C35831   0.074   0.531  10.627  0.4236 -0.0921  0.0981
  272MOL0     C35832  -0.080   0.516  10.611  0.7486 -0.2478 -0.3878
  272MOL0     C35833  -0.116   0.530  10.463  0.1339 -0.6047  0.8835
  272MOL0     C35834  -0.268   0.502  10.443 -0.0973  0.4796  0.2904
  272MOL0     C35835  -0.330   0.569  10.322  0.6408 -0.2233  0.2093
  272MOL0     C35836  -0.363   0.614  10.210 -0.7561 -1.1232 -0.0783
  272MOL0     C35837   0.297   0.547  10.905 -0.5613  0.1490  0.5389
  272MOL0     C35838   0.436   0.577  10.942  0.4650 -0.3472  0.0676
  272MOL0     H35839   0.881   0.399  10.888 -1.2451  1.6570  0.0166
  272MOL0     H35840   1.100   0.373  10.939  0.3286 -1.0332 -3.1692
  272MOL0     H35841   1.406   0.700  10.898  3.3725 -0.3555  0.5209
  272MOL0     H35842   1.406   0.637  10.739 -3.6170  1.0797  1.0320
  272MOL0     H35843   1.557   0.461  10.789 -0.7730  1.1233 -0.8015
  272MOL0     H35844   1.532   0.481  10.961 -0.0149  1.0999  0.2353
  272MOL0     H35845   1.740   0.576  10.922 -0.9438  0.1388  0.4755
  272MOL0     H35846   1.632   0.712  10.924 -2.5384  0.4006 -3.3117
  272MOL0     H35847   1.715   0.587  10.656 -4.5134  0.8716 -1.2804
  272MOL0     H35848   1.636   0.742  10.682  1.1231  1.7990 -1.6589
  272MOL0     H35849   1.927   0.671  10.760 -1.1668 -1.6874  2.5635
  272MOL0     H35850   1.831   0.809  10.820 -4.5081  0.4302 -0.8783
  272MOL0     H35851   1.798   0.903  10.585  1.6501  1.0815 -1.2828
  272MOL0     H35852   1.899   0.781  10.515  0.8700 -0.4959 -0.6148
  272MOL0     H35853   2.029   0.983  10.570 -1.7287 -0.7745 -0.4292
  272MOL0     H35854   1.974   0.962  10.745  3.9652 -0.7827  1.1023
  272MOL0     H35855   2.170   0.779  10.611  0.9019 -2.2382  2.8174
  272MOL0     H35856   2.129   0.771  10.776 -1.1554  0.0526  0.1034
  272MOL0     H35857   2.369   0.913  10.556  1.0090  2.0363 -0.9437
  272MOL0     H35858   2.526   1.228  10.718  1.9165 -0.2732 -0.9072
  272MOL0     H35859   2.506   1.160  10.547 -2.8867 -2.8626 -0.4134
  272MOL0     H35860   2.648   0.978  10.611  0.8809  0.8557  0.8601
  272MOL0     H35861   2.621   1.001  10.783 -3.7913 -2.0579 -1.5582
  272MOL0     H35862   2.736   1.212  10.598 -0.1375 -1.1493 -0.7417
  272MOL0     H35863   2.751   1.215  10.767  2.4292 -2.1706  2.1402
  272MOL0     H35864   2.968   1.155  10.634  0.8573  0.0849  1.8454
  272MOL0     H35865   2.877   1.011  10.585 -1.7017 -0.3583  1.6785
  272MOL0     H35866   3.151   1.032  10.627 -2.8886  1.7852  0.0418
  272MOL0     H35867   3.371   0.996  10.713  1.5688 -3.6911  1.3096
  272MOL0     H35868   3.763   0.928  10.767 -0.0053 -0.2354  0.2564
  272MOL0     H35869   4.002   0.971  10.850  0.7785 -0.1036  0.8664
  272MOL0     H35870   4.057   1.214  11.227  1.9887  3.8520  2.5137
  272MOL0     H35871   4.095   1.322  11.108  2.1876  0.3835  1.6629
  272MOL0     H35872   4.292   1.105  11.178  2.3612  0.6357 -2.0235
  272MOL0     H35873   4.283   1.265  11.269 -0.7099 -1.0880  0.2218
  272MOL0     H35874   4.335   1.374  11.074 -0.3656 -0.1115 -4.9531
  272MOL0     H35875   4.335   1.232  10.972 -1.2717  0.9610  0.7225
  272MOL0     H35876   4.510   1.286  11.221 -1.5690  1.2711 -0.4434
  272MOL0     H35877   4.531   1.133  11.146 -1.2629 -0.3325  1.1785
  272MOL0     H35878   4.589   1.370  10.970  1.7301 -1.2190 -2.3274
  272MOL0     H35879   4.607   1.206  10.938 -5.3202  0.3495 -0.7552
  272MOL0     H35880   4.796   1.183  11.079  0.6411  0.3667  4.4133
  272MOL0     H35881   4.751   1.305  11.190  1.2787 -1.8747  1.2218
  272MOL0     H35882   4.807   1.359  10.886 -2.3225  1.4103  0.4366
  272MOL0     H35883   4.801   1.480  10.996 -1.2515 -0.4059 -2.1780
  272MOL0     H35884   5.003   1.252  10.955 -0.3152  0.2724 -1.4709
  272MOL0     H35885   5.021   1.357  11.097 -0.7265 -2.1593 -0.1233
  272MOL0     H35886   3.833   1.242  11.140 -0.2082  0.0692  0.0290
  272MOL0     H35887   3.610   1.186  11.059 -0.7595 -0.3912 -0.2337
  272MOL0     H35888   3.224   0.951  11.110 -2.8626  0.8582  0.6338
  272MOL0     H35889   2.995   0.976  11.034  0.6894  1.9158  0.8713
  272MOL0     H35890   1.196   0.736  10.729 -0.1941  1.7114  1.4808
  272MOL0     H35891   0.973   0.776  10.692  0.6413  1.2063 -0.5501
  272MOL0     H35892   0.554   0.611  10.626  1.5676 -0.6772  1.0114
  272MOL0     H35893   0.335   0.579  10.577  1.0411 -1.1885  0.5035
  272MOL0     H35894   0.110   0.431  10.601 -0.2101 -0.0217 -1.1244
  272MOL0     H35895   0.117   0.601  10.555  2.1200 -1.1894 -0.0175
  272MOL0     H35896  -0.119   0.424  10.656  0.9091  0.7887  2.0447
  272MOL0     H35897  -0.123   0.600  10.666 -0.7065 -0.2280 -1.4890
  272MOL0     H35898  -0.046   0.475  10.399  2.0960  2.3387  0.3035
  272MOL0     H35899  -0.100   0.635  10.439  0.2971 -0.5565  1.2077
  272MOL0     H35900  -0.275   0.396  10.417  1.4585 -0.2666  2.5060
  272MOL0     H35901  -0.320   0.523  10.537  2.3520  0.1763  1.8117
  272MOL0     H35902  -0.392   0.668  10.123 -2.0323 -2.8507 -0.7908
  272MOL0     H35903   0.226   0.523  10.985  0.3647 -0.8534  1.0946
  272MOL0     H35904   0.460   0.574  11.048  1.4712 -0.6192 -0.1596
  273MOL0     O35905   4.608   6.299   9.860 -0.3423 -0.4347  0.7266
  273MOL0     C35906   4.676   6.240   9.777  0.4152  0.8696  0.3460
  273MOL0     O35907   4.627   6.169   9.685 -0.1882  0.2433 -0.1198
  273MOL0     C35908   4.489   6.165   9.666 -0.1979  0.1931  0.8848
  273MOL0     C35909   4.438   6.033   9.669 -0.7775 -0.1999 -0.7052
  273MOL0     C35910   4.305   6.009   9.649 -0.4126 -0.2988  0.0663
  273MOL0     C35911   4.214   6.110   9.629 -0.1382  1.1708  1.2044
  273MOL0     O35912   4.083   6.061   9.596 -0.6156 -0.6906  0.2889
  273MOL0     C35913   3.976   6.143   9.630 -1.6568 -0.7782 -0.6058
  273MOL0     C35914   3.858   6.066   9.677  0.1513 -0.3693  0.7782
  273MOL0     C35915   3.775   5.990   9.566 -0.0515 -0.0302 -0.6156
  273MOL0     C35916   3.660   5.910   9.641  0.1363 -0.3058 -0.3908
  273MOL0     C35917   3.550   5.863   9.547  0.1282  0.2254  0.6693
  273MOL0     C35918   3.498   5.725   9.594  0.1956 -0.9000 -0.6031
  273MOL0     C35919   3.447   5.732   9.732 -0.6078  0.5274 -0.4769
  273MOL0     C35920   3.339   5.625   9.782 -0.6256 -0.1430  0.2963
  273MOL0     N35921   3.206   5.620   9.715  0.3378  0.4454 -0.3013
  273MOL0     C35922   3.186   5.562   9.590 -0.5568  0.4973 -0.9742
  273MOL0     C35923   3.055   5.544   9.586 -0.9280  0.2924  0.3692
  273MOL0     C35924   2.988   5.490   9.469  0.4790 -0.8792  0.5280
  273MOL0     C35925   2.989   5.332   9.470  0.1538  0.0362  0.1174
  273MOL0     C35926   2.916   5.269   9.353  0.2969 -0.6841  0.3229
  273MOL0     C35927   2.765   5.295   9.345  0.7155 -0.1915  0.4019
  273MOL0     O35928   2.714   5.220   9.233 -0.3590  1.0072  0.4657
  273MOL0     C35929   2.599   5.240   9.167 -0.2260  0.0840  0.5540
  273MOL0     C35930   2.515   5.356   9.186 -0.2205  1.1307  0.4513
  273MOL0     C35931   2.385   5.356   9.136  0.0631 -0.4106  0.5009
  273MOL0     C35932   2.334   5.244   9.059 -1.4862  0.1867 -0.3080
  273MOL0     C35933   2.198   5.241   9.007  0.9085 -1.3010  0.4616
  273MOL0     O35934   2.138   5.360   9.022  0.7982  0.5622  0.4645
  273MOL0     C35935   2.019   5.393   8.961 -0.0570 -0.0852  0.0411
  273MOL0     C35936   1.937   5.480   9.035 -0.3826 -0.1794 -0.7801
  273MOL0     C35937   1.809   5.510   8.984  0.6439  0.3247 -0.0434
  273MOL0     C35938   1.768   5.450   8.863 -0.3620  0.6016  0.3517
  273MOL0     O35939   1.644   5.479   8.806 -0.4428 -0.2225 -0.5098
  273MOL0     C35940   1.558   5.363   8.802 -0.6210 -0.4444  0.2391
  273MOL0     C35941   1.410   5.409   8.785 -0.2077  0.2090  0.6012
  273MOL0     C35942   1.306   5.294   8.750 -0.0825  0.0859  0.2471
  273MOL0     C35943   1.168   5.357   8.756 -0.2144  0.3936  0.9812
  273MOL0     C35944   1.076   5.244   8.698 -0.5308 -0.2436 -0.1443
  273MOL0     C35945   0.933   5.284   8.708  0.1645 -0.0635  0.1225
  273MOL0     C35946   0.841   5.191   8.621  0.4511 -0.1285 -0.3460
  273MOL0     C35947   0.693   5.243   8.637 -0.4108  0.1793  0.6265
  273MOL0    Cl35948   0.572   5.159   8.534  0.4028 -0.3825  0.5411
  273MOL0     C35949   1.853   5.361   8.789 -0.2500 -0.0227  1.3817
  273MOL0     C35950   1.975   5.333   8.839  0.7622 -0.2296 -0.7980
  273MOL0     O35951   2.141   5.138   8.965  0.0724  0.4627  0.7408
  273MOL0     C35952   2.427   5.138   9.037  1.0385  0.0322 -0.3976
  273MOL0     C35953   2.552   5.135   9.091  0.1832  0.3866 -0.3248
  273MOL0     N35954   2.994   5.598   9.701 -0.2988 -0.0517  0.0612
  273MOL0     N35955   3.089   5.641   9.779 -1.3287  1.2332 -0.1362
  273MOL0     C35956   4.262   6.244   9.622  0.3057  0.5424 -0.1426
  273MOL0     C35957   4.403   6.275   9.638  0.1424 -0.3481  0.2360
  273MOL0     C35958   4.824   6.237   9.786  0.2133  0.1992 -0.4753
  273MOL0     C35959   4.885   6.303   9.901 -0.3321  0.4654  0.2647
  273MOL0     C35960   5.027   6.303   9.914  0.3008  0.2493 -0.2431
  273MOL0     C35961   5.108   6.251   9.810  0.4942 -0.3656  0.1886
  273MOL0     O35962   5.244   6.269   9.819  0.2057  0.1420  0.2582
  273MOL0     C35963   5.330   6.222   9.716 -0.0467  0.3141  0.0381
  273MOL0     C35964   5.462   6.261   9.759  0.0785 -0.5785  0.3733
  273MOL0     C35965   5.492   6.405   9.708 -1.0619  0.8716  0.1323
  273MOL0     C35966   5.517   6.401   9.557  0.0435  0.0848  0.1018
  273MOL0     C35967   5.663   6.428   9.522  0.2502  1.0327 -0.1453
  273MOL0     C35968   5.777   6.442   9.498  0.2167  0.5821  0.0778
  273MOL0     C35969   5.042   6.188   9.698 -0.5863 -0.4098  0.0095
  273MOL0     C35970   4.901   6.181   9.689 -0.5417  0.2548  0.6086
  273MOL0     H35971   4.518   5.962   9.689 -1.1879 -1.1491 -2.2597
  273MOL0     H35972   4.270   5.906   9.651 -1.4531  0.0332 -0.2179
  273MOL0     H35973   3.938   6.213   9.555 -2.0314 -0.6079 -0.2608
  273MOL0     H35974   4.011   6.201   9.716 -0.3638 -0.8218 -1.0856
  273MOL0     H35975   3.794   6.128   9.741  0.0704  0.0551  0.2932
  273MOL0     H35976   3.903   5.984   9.734  1.0530 -2.0860 -2.2108
  273MOL0     H35977   3.843   5.913   9.527 -1.7176 -2.0258  0.2336
  273MOL0     H35978   3.736   6.062   9.494 -1.9595  0.2915  0.6773
  273MOL0     H35979   3.699   5.835   9.711 -0.6703  1.0415  1.6031
  273MOL0     H35980   3.617   5.985   9.709  3.7301  1.2837  0.3622
  273MOL0     H35981   3.585   5.847   9.445  0.0430  2.2676  0.2682
  273MOL0     H35982   3.477   5.944   9.552  0.7863  0.8317  0.7043
  273MOL0     H35983   3.576   5.649   9.606  0.4498 -0.3950  1.2966
  273MOL0     H35984   3.423   5.688   9.524  0.9696 -1.2584 -1.2573
  273MOL0     H35985   3.542   5.722   9.785 -0.7384 -1.8586 -0.5986
  273MOL0     H35986   3.403   5.829   9.760  1.8310  1.8463 -0.9670
  273MOL0     H35987   3.322   5.645   9.888 -0.6556  0.0966  0.2467
  273MOL0     H35988   3.382   5.524   9.775  0.4050  0.2580  0.6040
  273MOL0     H35989   3.262   5.528   9.520 -1.1003 -1.4679 -0.6609
  273MOL0     H35990   3.012   5.553   9.383 -2.6059  0.6643  0.6818
  273MOL0     H35991   2.883   5.516   9.487  0.9379  0.0414  2.1142
  273MOL0     H35992   2.947   5.299   9.565  0.1731  2.7424  1.1466
  273MOL0     H35993   3.090   5.294   9.486  0.1269  0.7454  2.2405
  273MOL0     H35994   2.969   5.294   9.260  1.0155 -3.7775 -0.1963
  273MOL0     H35995   2.923   5.160   9.357  1.1314 -0.7267 -1.2290
  273MOL0     H35996   2.742   5.402   9.336  1.0801 -0.0512  1.0868
  273MOL0     H35997   2.710   5.264   9.434 -1.6118  2.8839  0.2191
  273MOL0     H35998   2.540   5.432   9.258 -1.3849  3.2484 -1.2688
  273MOL0     H35999   2.335   5.453   9.136  0.3984 -0.2288  1.2361
  273MOL0     H36000   1.975   5.511   9.132  0.0345  1.1358 -1.3469
  273MOL0     H36001   1.739   5.574   9.039  1.8368  0.7631  1.0233
  273MOL0     H36002   1.562   5.319   8.903  0.2117  0.2822  0.5261
  273MOL0     H36003   1.588   5.292   8.725  0.1785 -0.0477  0.1779
  273MOL0     H36004   1.397   5.479   8.702 -1.8685  1.5382  1.9293
  273MOL0     H36005   1.389   5.460   8.879  0.7233 -1.0575  1.5363
  273MOL0     H36006   1.303   5.215   8.826 -0.0848 -3.1140 -2.8284
  273MOL0     H36007   1.327   5.241   8.657 -1.2524 -2.9506  1.5736
  273MOL0     H36008   1.146   5.400   8.854  0.5806  0.2537  1.2260
  273MOL0     H36009   1.170   5.453   8.703 -1.9993 -0.8727 -1.6128
  273MOL0     H36010   1.083   5.149   8.752 -0.6665 -0.9426 -1.3013
  273MOL0     H36011   1.103   5.219   8.595  0.6707 -0.2157  0.1511
  273MOL0     H36012   0.914   5.387   8.674 -1.7599  0.0235  1.3080
  273MOL0     H36013   0.895   5.279   8.810  0.0591  1.0393  0.1461
  273MOL0     H36014   0.869   5.200   8.516 -0.9650 -0.9651 -0.8132
  273MOL0     H36015   0.850   5.089   8.660 -1.1900  0.5513  2.0055
  273MOL0     H36016   0.692   5.350   8.619 -0.0566  0.1405  0.3760
  273MOL0     H36017   0.659   5.229   8.740 -0.7881  1.5144  0.7022
  273MOL0     H36018   1.810   5.315   8.701  1.0212  1.5904 -0.1390
  273MOL0     H36019   2.047   5.271   8.787  3.9094  2.5148 -0.1072
  273MOL0     H36020   2.399   5.044   8.990  0.7136 -0.5890  0.9847
  273MOL0     H36021   2.606   5.041   9.088 -2.0316 -1.1199  2.3525
  273MOL0     H36022   4.197   6.325   9.589  0.2479  0.9023  0.8391
  273MOL0     H36023   4.459   6.367   9.621  0.6355 -0.6728  0.0828
  273MOL0     H36024   4.824   6.358   9.971  1.0253 -0.1187  1.9740
  273MOL0     H36025   5.079   6.359   9.992 -0.6195  0.6094  0.1272
  273MOL0     H36026   5.307   6.263   9.617 -0.4914  1.7506  0.7003
  273MOL0     H36027   5.323   6.113   9.710  0.1004  0.3731 -1.6621
  273MOL0     H36028   5.478   6.251   9.867  2.0119  2.0585  0.4371
  273MOL0     H36029   5.528   6.185   9.715  2.7135  0.7209  1.8654
  273MOL0     H36030   5.578   6.446   9.761 -1.6868  1.0542  1.0232
  273MOL0     H36031   5.403   6.466   9.725 -1.1313  1.1109 -0.9918
  273MOL0     H36032   5.489   6.303   9.519 -0.3194  0.2098  0.0501
  273MOL0     H36033   5.441   6.472   9.524 -2.4075 -1.5812  1.7838
  273MOL0     H36034   5.882   6.456   9.480  0.0702  2.2382  0.3750
  273MOL0     H36035   5.106   6.144   9.622  0.5861  0.3386  0.5229
  273MOL0     H36036   4.853   6.127   9.608 -3.0711  1.4110  1.2371
  274MOL0     O36037  10.255   0.266   3.594  0.7742  0.0974 -0.4661
  274MOL0     C36038  10.233   0.144   3.624 -0.5412 -1.2031  0.2541
  274MOL0     O36039  10.113   0.088   3.646  0.7219 -0.0248  0.5935
  274MOL0     C36040  10.002   0.170   3.667 -0.2951 -0.6204  0.5384
  274MOL0     C36041   9.887   0.140   3.602  0.0691  0.3629  0.8670
  274MOL0     C36042   9.764   0.214   3.617  0.2895  0.2793  0.0291
  274MOL0     C36043   9.760   0.328   3.694 -0.5094 -0.0129 -1.4130
  274MOL0     O36044   9.640   0.385   3.717 -0.2651  1.1448  0.6609
  274MOL0     C36045   9.627   0.465   3.833  0.2032 -0.0075  0.2244
  274MOL0     C36046   9.669   0.612   3.786 -0.0452 -0.6393  0.4513
  274MOL0     C36047   9.540   0.679   3.732 -0.1075  0.7381 -0.0519
  274MOL0     C36048   9.568   0.830   3.711  0.6857  0.0801 -0.1526
  274MOL0     C36049   9.438   0.912   3.712  0.9085 -0.3020  0.4273
  274MOL0     C36050   9.345   0.895   3.583 -0.8469  0.1411  0.4793
  274MOL0     C36051   9.213   0.966   3.596  0.1302 -0.3303  0.3624
  274MOL0     C36052   9.137   0.967   3.461  0.5790  0.0726  0.1315
  274MOL0     N36053   9.125   0.828   3.418 -0.3512 -0.1867  0.4155
  274MOL0     C36054   9.213   0.767   3.329 -0.1241  0.1811  0.3818
  274MOL0     C36055   9.178   0.641   3.326 -0.3918  0.5165  0.4201
  274MOL0     C36056   9.242   0.519   3.258  0.5415 -0.1802 -0.3449
  274MOL0     C36057   9.385   0.489   3.294  0.5188 -0.7963 -0.0636
  274MOL0     C36058   9.436   0.354   3.233  0.5792  0.1029 -0.1749
  274MOL0     C36059   9.586   0.331   3.238  0.3015  0.2286 -0.5957
  274MOL0     O36060   9.651   0.417   3.151  0.1115 -0.0579  1.1311
  274MOL0     C36061   9.765   0.387   3.089  0.8141 -0.9379 -0.3591
  274MOL0     C36062   9.816   0.508   3.033  0.3016  0.6158  0.2485
  274MOL0     C36063   9.941   0.499   2.966  0.4103 -0.4804  0.5249
  274MOL0     C36064  10.020   0.379   2.953  0.8234 -0.0499 -0.6561
  274MOL0     C36065  10.156   0.389   2.891 -0.2665 -0.4831 -0.2947
  274MOL0     O36066  10.243   0.287   2.925  0.2227 -0.7264 -0.1836
  274MOL0     C36067  10.375   0.297   2.905 -0.0599  0.0831  0.2907
  274MOL0     C36068  10.453   0.178   2.887  1.0557 -0.3258  0.1879
  274MOL0     C36069  10.595   0.181   2.889  0.0852 -0.1441  0.3087
  274MOL0     C36070  10.663   0.296   2.931  0.5924  0.7746  0.4575
  274MOL0     O36071  10.804   0.289   2.936 -0.1147 -0.0938  0.1255
  274MOL0     C36072  10.870   0.410   2.910 -1.0472 -0.0984  1.2213
  274MOL0     C36073  11.013   0.373   2.857 -0.6384 -0.0812 -0.0300
  274MOL0     C36074  11.104   0.358   2.975 -0.3617 -0.8918  0.9911
  274MOL0     C36075  11.239   0.297   2.942  0.3049  1.4867 -0.7840
  274MOL0     C36076  11.327   0.274   3.063  0.1806 -0.3223 -1.0083
  274MOL0     C36077  11.457   0.206   3.025  1.3178 -0.7050 -0.2123
  274MOL0     C36078  11.542   0.162   3.141  0.4778  1.0063  0.2262
  274MOL0     C36079  11.671   0.099   3.069  0.3514 -0.3574 -0.0940
  274MOL0    Cl36080  11.807   0.062   3.187 -0.3995 -0.0897  0.0330
  274MOL0     C36081  10.579   0.407   2.957  0.4911  0.1122 -0.2827
  274MOL0     C36082  10.444   0.411   2.933  0.5013 -0.3724  0.8184
  274MOL0     O36083  10.189   0.497   2.851  0.6042  0.0209  0.0850
  274MOL0     C36084   9.972   0.262   3.025  1.0639  0.6517 -0.1362
  274MOL0     C36085   9.841   0.265   3.094 -0.3948 -0.0948  0.5751
  274MOL0     N36086   9.060   0.627   3.398  0.2115 -0.2724  0.0677
  274MOL0     N36087   9.029   0.736   3.448 -0.2777 -0.5556  0.2148
  274MOL0     C36088   9.879   0.359   3.758 -0.1796  0.1363 -0.1888
  274MOL0     C36089  10.000   0.284   3.745  0.5793  0.1225  0.3448
  274MOL0     C36090  10.346   0.058   3.643  0.6132 -0.6053  0.2759
  274MOL0     C36091  10.324  -0.077   3.661  0.2624  0.3201 -0.4133
  274MOL0     C36092  10.428  -0.173   3.672  0.7303 -0.1900  0.5186
  274MOL0     C36093  10.551  -0.128   3.699  0.2064 -0.3189 -0.6049
  274MOL0     O36094  10.653  -0.218   3.729 -0.8374  0.7577 -0.2963
  274MOL0     C36095  10.787  -0.182   3.701 -0.3962  0.6130  0.4167
  274MOL0     C36096  10.872  -0.294   3.645 -0.2784  0.7828  0.6834
  274MOL0     C36097  11.015  -0.246   3.628 -0.2033 -0.7361 -0.1529
  274MOL0     C36098  11.119  -0.356   3.659 -0.2654 -0.0926 -0.6392
  274MOL0     C36099  11.119  -0.473   3.565  0.3414  0.3878 -0.0101
  274MOL0     C36100  11.108  -0.549   3.471  0.4211 -0.2857  0.6776
  274MOL0     C36101  10.580   0.015   3.678  1.3808  0.0237 -0.6042
  274MOL0     C36102  10.474   0.104   3.646  0.1896 -0.4715 -0.6131
  274MOL0     H36103   9.900   0.045   3.550  2.4427  0.5444  1.0360
  274MOL0     H36104   9.674   0.167   3.578  0.3235  0.5174 -0.3460
  274MOL0     H36105   9.687   0.430   3.917  1.3375  1.5276  0.1100
  274MOL0     H36106   9.523   0.465   3.867 -0.0587  2.6297 -0.3700
  274MOL0     H36107   9.748   0.601   3.711  0.1899 -0.5923  0.6881
  274MOL0     H36108   9.718   0.665   3.868  3.3086 -1.6599 -0.7490
  274MOL0     H36109   9.450   0.654   3.787 -0.9269 -2.1683 -2.4426
  274MOL0     H36110   9.518   0.630   3.636 -1.9189  3.8297 -1.3355
  274MOL0     H36111   9.625   0.861   3.799  1.1215 -2.6671  0.6359
  274MOL0     H36112   9.639   0.845   3.629  2.9872 -1.9919  1.2804
  274MOL0     H36113   9.462   1.018   3.716  2.6724 -0.7038  3.5830
  274MOL0     H36114   9.383   0.896   3.804  1.6264 -0.4954  0.8349
  274MOL0     H36115   9.330   0.790   3.558 -1.2059  0.0425  1.0913
  274MOL0     H36116   9.393   0.943   3.497 -0.0967  0.3695  1.0165
  274MOL0     H36117   9.141   0.917   3.663 -1.6342  1.1488 -0.3688
  274MOL0     H36118   9.234   1.066   3.635  1.6864 -0.8326  0.8794
  274MOL0     H36119   9.188   1.022   3.381 -3.2183  0.9922 -1.8887
  274MOL0     H36120   9.038   1.013   3.469  0.6791  0.0446  1.8068
  274MOL0     H36121   9.275   0.827   3.263 -1.8736  0.5044 -1.0539
  274MOL0     H36122   9.236   0.539   3.151 -0.0541  0.4801 -0.1977
  274MOL0     H36123   9.172   0.436   3.277 -0.4228  0.7378  0.2522
  274MOL0     H36124   9.383   0.488   3.404 -2.7007 -1.7534 -0.0389
  274MOL0     H36125   9.443   0.573   3.254 -3.4271  1.3558 -1.8795
  274MOL0     H36126   9.385   0.277   3.292 -1.6056  0.3851 -1.5804
  274MOL0     H36127   9.397   0.341   3.132  2.1074  1.6046 -1.0109
  274MOL0     H36128   9.603   0.227   3.210 -0.0532  0.4187 -1.5317
  274MOL0     H36129   9.631   0.356   3.335 -1.2407 -0.5387  0.3515
  274MOL0     H36130   9.753   0.596   3.044 -2.7592 -1.3438 -0.2169
  274MOL0     H36131   9.983   0.587   2.919 -1.9258 -0.1145 -1.0680
  274MOL0     H36132  10.404   0.082   2.876 -0.2690  0.1448  1.6096
  274MOL0     H36133  10.655   0.091   2.880 -0.2453 -0.2962 -0.3858
  274MOL0     H36134  10.885   0.460   3.006  1.6670 -0.8279  1.2777
  274MOL0     H36135  10.827   0.469   2.829  3.9113  3.0673  0.4718
  274MOL0     H36136  11.050   0.455   2.796 -1.5420  0.6863  0.4389
  274MOL0     H36137  11.015   0.281   2.797 -0.3504 -0.5319  0.6525
  274MOL0     H36138  11.062   0.306   3.061  1.2884  1.5841  3.4808
  274MOL0     H36139  11.124   0.460   3.010 -0.2253 -0.1461 -1.1423
  274MOL0     H36140  11.224   0.198   2.898 -2.1139  0.6500  1.6460
  274MOL0     H36141  11.294   0.365   2.875  1.2367  1.2674 -0.2672
  274MOL0     H36142  11.266   0.212   3.130  1.6557  0.6605  1.4080
  274MOL0     H36143  11.351   0.365   3.118  0.5167 -0.8038 -0.3458
  274MOL0     H36144  11.510   0.283   2.967  0.4696 -3.3910 -5.0448
  274MOL0     H36145  11.425   0.120   2.966 -2.6333 -0.0972  0.8176
  274MOL0     H36146  11.568   0.230   3.222  2.5928 -0.2302  0.6705
  274MOL0     H36147  11.488   0.080   3.191  0.2619  0.8983 -0.1814
  274MOL0     H36148  11.703   0.167   2.989 -1.2151 -1.2218 -1.5217
  274MOL0     H36149  11.650   0.012   3.006  1.2151 -1.4588  1.0982
  274MOL0     H36150  10.624   0.499   2.994 -0.0491 -0.4212  1.8290
  274MOL0     H36151  10.396   0.509   2.938 -0.0217 -0.4051 -1.9154
  274MOL0     H36152  10.025   0.167   3.033  0.8071  0.5808  0.9654
  274MOL0     H36153   9.806   0.170   3.131 -0.7797 -0.4957 -0.7677
  274MOL0     H36154   9.884   0.445   3.825  1.6338  2.0634 -2.5979
  274MOL0     H36155  10.094   0.314   3.789  2.0786 -0.3755 -2.2711
  274MOL0     H36156  10.224  -0.117   3.671  0.2900  0.7554  2.4606
  274MOL0     H36157  10.405  -0.279   3.680 -1.6435 -0.0335 -2.5033
  274MOL0     H36158  10.826  -0.149   3.797 -1.0577  0.0415  0.8935
  274MOL0     H36159  10.795  -0.100   3.628 -0.8903 -1.1235 -1.6964
  274MOL0     H36160  10.862  -0.381   3.711 -2.4822  0.9156  0.5920
  274MOL0     H36161  10.824  -0.318   3.550 -0.5387 -1.0116  1.2292
  274MOL0     H36162  11.033  -0.162   3.696 -0.7170  0.3903 -1.3796
  274MOL0     H36163  11.028  -0.212   3.525 -2.0855  1.1122  0.1704
  274MOL0     H36164  11.224  -0.323   3.658 -0.7816  1.6324 -1.6233
  274MOL0     H36165  11.107  -0.397   3.759  2.2566 -2.7050 -1.2722
  274MOL0     H36166  11.103  -0.616   3.388 -1.7422  0.9534 -0.2877
  274MOL0     H36167  10.677   0.061   3.689  0.1042  2.6689  0.6177
  274MOL0     H36168  10.500   0.209   3.638  0.5946 -0.3767  1.4771
  275MOL0     O36169   4.888   4.471   7.797 -0.7946  0.1437 -0.0806
  275MOL0     C36170   4.830   4.448   7.904 -0.1868  0.0642  0.4126
  275MOL0     O36171   4.698   4.463   7.932 -0.5013  0.1615 -0.1336
  275MOL0     C36172   4.599   4.499   7.840  0.0692  0.3998 -0.5580
  275MOL0     C36173   4.608   4.471   7.702 -0.3644  0.4186  0.7314
  275MOL0     C36174   4.501   4.495   7.620 -0.4446 -0.2909 -0.2790
  275MOL0     C36175   4.382   4.540   7.673  0.2606 -0.5075  0.9658
  275MOL0     O36176   4.280   4.565   7.586  0.1396  0.2409 -0.2763
  275MOL0     C36177   4.153   4.613   7.631  0.7868 -0.7292  0.0693
  275MOL0     C36178   4.054   4.592   7.521  0.2070  0.1393  0.0986
  275MOL0     C36179   3.925   4.649   7.561  0.5067  0.0247 -0.4654
  275MOL0     C36180   3.830   4.665   7.440  0.5100 -0.9809 -0.7462
  275MOL0     C36181   3.685   4.695   7.477  0.0564  0.2846  0.2780
  275MOL0     C36182   3.599   4.755   7.359 -0.5201  0.0736 -0.5055
  275MOL0     C36183   3.460   4.775   7.403 -0.3210  0.8004 -0.3471
  275MOL0     C36184   3.375   4.819   7.279 -0.4512  0.0098 -0.0949
  275MOL0     N36185   3.273   4.908   7.331 -0.3163  0.1710  0.2442
  275MOL0     C36186   3.257   5.043   7.297 -0.0488 -0.1693  0.5003
  275MOL0     C36187   3.139   5.085   7.358  0.8459  0.2530 -0.4357
  275MOL0     C36188   3.080   5.227   7.359 -0.1108  0.3246  0.6573
  275MOL0     C36189   2.944   5.249   7.411  0.6726  0.8497  0.4130
  275MOL0     C36190   2.943   5.235   7.567 -0.1704  0.0653  0.3820
  275MOL0     C36191   2.821   5.305   7.642 -0.3832  0.0882 -0.4680
  275MOL0     O36192   2.701   5.250   7.598  0.4982  0.2850  0.6266
  275MOL0     C36193   2.587   5.307   7.646  0.1609  0.0163  0.4218
  275MOL0     C36194   2.481   5.233   7.598 -0.1176 -0.1268 -0.4278
  275MOL0     C36195   2.349   5.255   7.631  0.7456  0.4363 -0.4165
  275MOL0     C36196   2.314   5.360   7.712  0.4248 -0.5499 -0.6498
  275MOL0     C36197   2.172   5.382   7.765 -0.2256  0.3250 -0.3656
  275MOL0     O36198   2.160   5.491   7.850 -0.5195  0.1979  0.0221
  275MOL0     C36199   2.029   5.531   7.878 -0.4201 -0.2641  0.3905
  275MOL0     C36200   1.933   5.558   7.783 -0.0264  0.4942  0.5291
  275MOL0     C36201   1.803   5.600   7.821 -0.1520 -0.2060  0.8263
  275MOL0     C36202   1.773   5.614   7.956 -0.0195  0.4148 -0.9005
  275MOL0     O36203   1.643   5.651   7.984 -0.0985  0.1859  0.3136
  275MOL0     C36204   1.613   5.666   8.122 -0.4489 -0.5877 -0.7267
  275MOL0     C36205   1.466   5.706   8.119 -0.0374  1.1561 -0.7749
  275MOL0     C36206   1.431   5.842   8.066 -0.0777  0.2625  0.2756
  275MOL0     C36207   1.282   5.864   8.057 -0.1057  0.2255 -0.5635
  275MOL0     C36208   1.252   6.000   8.001 -0.2087 -0.0615 -0.6043
  275MOL0     C36209   1.100   6.025   7.967 -0.1021  0.1990  0.3316
  275MOL0     C36210   0.998   6.026   8.089  0.0111 -0.1108 -1.1113
  275MOL0     C36211   0.850   6.049   8.051  0.5465 -0.6019 -0.5195
  275MOL0    Cl36212   0.786   5.913   7.950  0.6532  0.0891 -0.1339
  275MOL0     C36213   1.875   5.589   8.054  0.2004 -0.0084  0.1257
  275MOL0     C36214   2.002   5.546   8.013 -0.1410 -0.5251  0.5414
  275MOL0     O36215   2.080   5.308   7.718 -0.1066 -0.3629 -0.3143
  275MOL0     C36216   2.417   5.442   7.768 -0.2206 -0.6346  0.4826
  275MOL0     C36217   2.557   5.414   7.734 -0.6777  0.3830  0.0051
  275MOL0     N36218   3.093   4.969   7.425 -0.4423 -0.7148  0.2253
  275MOL0     N36219   3.164   4.864   7.403  0.0034  0.0966 -0.3284
  275MOL0     C36220   4.372   4.574   7.805  0.3668  0.4264 -0.5082
  275MOL0     C36221   4.487   4.567   7.888  0.3532  0.4453 -0.4963
  275MOL0     C36222   4.923   4.429   8.025  0.2803  0.0044  1.3326
  275MOL0     C36223   5.062   4.415   8.017  0.0721  0.1099  0.4596
  275MOL0     C36224   5.135   4.428   8.133  0.3988 -0.6687  0.8057
  275MOL0     C36225   5.087   4.462   8.256  0.8617 -0.5246 -0.3432
  275MOL0     O36226   5.160   4.466   8.373 -0.4665 -0.3476 -0.4236
  275MOL0     C36227   5.281   4.382   8.370  0.2416  0.5442  0.3739
  275MOL0     C36228   5.331   4.337   8.504  0.3425  1.0536  0.0565
  275MOL0     C36229   5.415   4.215   8.497 -0.1448 -0.1129 -0.2150
  275MOL0     C36230   5.525   4.207   8.388 -1.4075 -0.0797 -0.4535
  275MOL0     C36231   5.496   4.184   8.250 -0.0451  0.3275 -0.4184
  275MOL0     C36232   5.482   4.175   8.128  0.2724 -0.2492  0.2617
  275MOL0     C36233   4.949   4.478   8.263 -0.2807  0.9164 -0.3595
  275MOL0     C36234   4.869   4.461   8.153  1.0236 -0.2179  0.5049
  275MOL0     H36235   4.694   4.413   7.671  0.6541  1.2242  1.9195
  275MOL0     H36236   4.514   4.481   7.513  0.1621  0.3085 -0.2876
  275MOL0     H36237   4.151   4.716   7.668 -1.1215 -0.6010 -0.3117
  275MOL0     H36238   4.118   4.558   7.719  1.0708 -0.6532  0.2324
  275MOL0     H36239   4.031   4.487   7.502 -3.6500  0.5942  1.4258
  275MOL0     H36240   4.094   4.639   7.431  1.5277  1.1401  1.1552
  275MOL0     H36241   3.938   4.751   7.600  2.4038  0.2896 -1.6901
  275MOL0     H36242   3.875   4.581   7.631  0.6772 -0.1022 -0.4657
  275MOL0     H36243   3.871   4.746   7.379 -0.7064 -1.7808 -2.6971
  275MOL0     H36244   3.828   4.578   7.374  0.6022 -2.5440  1.1897
  275MOL0     H36245   3.690   4.775   7.552 -2.4013 -0.7180  1.6650
  275MOL0     H36246   3.631   4.610   7.521  0.9977  0.3521  1.6312
  275MOL0     H36247   3.601   4.681   7.278 -1.5479  2.3356 -2.7215
  275MOL0     H36248   3.647   4.846   7.324  3.5721 -1.0578  1.5731
  275MOL0     H36249   3.406   4.684   7.434  0.0048  0.4884 -0.6786
  275MOL0     H36250   3.455   4.846   7.485 -0.6711 -1.0371  1.3046
  275MOL0     H36251   3.349   4.725   7.230  0.5208 -1.3421  1.8922
  275MOL0     H36252   3.435   4.877   7.208  1.2230 -3.6460 -1.9279
  275MOL0     H36253   3.322   5.117   7.251 -3.0671  3.4697  1.5131
  275MOL0     H36254   3.080   5.255   7.253 -0.2052  1.8140  1.0289
  275MOL0     H36255   3.147   5.303   7.399 -2.3154  1.8760  1.6006
  275MOL0     H36256   2.879   5.166   7.382  2.7841 -0.8109  0.1934
  275MOL0     H36257   2.906   5.346   7.377 -0.5487  1.5429  3.4241
  275MOL0     H36258   2.944   5.132   7.603 -3.8062  0.0060  0.6599
  275MOL0     H36259   3.036   5.278   7.608 -0.4510  0.5448  0.5347
  275MOL0     H36260   2.814   5.412   7.620 -0.5203 -0.1203 -1.5179
  275MOL0     H36261   2.838   5.289   7.749  2.3808  0.7809 -0.7202
  275MOL0     H36262   2.488   5.155   7.523  0.6340 -0.2672 -0.2110
  275MOL0     H36263   2.281   5.192   7.575  0.4621 -0.1248  0.5363
  275MOL0     H36264   1.965   5.543   7.681  2.2087 -1.1237  1.3858
  275MOL0     H36265   1.725   5.636   7.755 -0.3006  1.6258  1.9422
  275MOL0     H36266   1.670   5.753   8.156  1.4121 -0.9531 -2.7451
  275MOL0     H36267   1.636   5.575   8.177  2.0748 -1.6246 -3.2373
  275MOL0     H36268   1.440   5.697   8.225  0.4276 -0.0357 -0.7441
  275MOL0     H36269   1.414   5.622   8.072  0.7125  0.3913 -0.2652
  275MOL0     H36270   1.476   5.853   7.967 -0.4431 -1.1337 -0.0682
  275MOL0     H36271   1.479   5.915   8.132  0.5212  0.7244 -0.6514
  275MOL0     H36272   1.241   5.789   7.989 -1.5929  1.5542 -1.2142
  275MOL0     H36273   1.231   5.837   8.150 -0.8909  1.0582 -0.7334
  275MOL0     H36274   1.308   6.008   7.907  1.0803 -0.2233  0.1310
  275MOL0     H36275   1.292   6.078   8.066 -0.6568 -1.0095  0.8320
  275MOL0     H36276   1.066   5.956   7.890  0.5773  0.1790  0.0389
  275MOL0     H36277   1.079   6.121   7.921 -3.1109 -1.1196 -1.3709
  275MOL0     H36278   1.003   5.933   8.146 -0.6750  0.6889  0.3015
  275MOL0     H36279   1.028   6.107   8.156  0.1235  0.1782 -1.5071
  275MOL0     H36280   0.826   6.147   8.008 -1.3844 -0.6728  0.2704
  275MOL0     H36281   0.799   6.044   8.148  2.9668  1.2537  0.9571
  275MOL0     H36282   1.853   5.608   8.159  0.1464 -2.8124  0.6935
  275MOL0     H36283   2.072   5.531   8.095  0.0148 -1.7453  0.2146
  275MOL0     H36284   2.393   5.512   7.847 -2.1419  0.2315 -0.8008
  275MOL0     H36285   2.638   5.469   7.781 -0.5675  1.2671 -1.1848
  275MOL0     H36286   4.282   4.623   7.841  0.2775  0.6462 -1.0245
  275MOL0     H36287   4.485   4.611   7.988 -4.6822  0.9583 -0.5520
  275MOL0     H36288   5.118   4.396   7.926  0.2491  1.2053  0.3250
  275MOL0     H36289   5.241   4.409   8.122  0.1497 -1.0904 -1.3115
  275MOL0     H36290   5.363   4.432   8.317  0.5497 -0.1868  0.1576
  275MOL0     H36291   5.248   4.290   8.322 -0.4528  0.8045  0.3328
  275MOL0     H36292   5.390   4.418   8.549  1.3606 -1.1806  3.0402
  275MOL0     H36293   5.244   4.324   8.570  0.0253  1.8816 -0.1842
  275MOL0     H36294   5.347   4.130   8.482  0.6036 -1.0591  1.4491
  275MOL0     H36295   5.457   4.207   8.598 -2.1621  2.3176  0.9032
  275MOL0     H36296   5.576   4.304   8.384 -0.6080 -0.4340  0.7094
  275MOL0     H36297   5.585   4.123   8.423 -1.0698  1.3927  2.9334
  275MOL0     H36298   5.476   4.182   8.022  1.2552 -1.9764  0.0519
  275MOL0     H36299   4.901   4.505   8.357 -0.4956 -0.7560  0.0287
  275MOL0     H36300   4.762   4.476   8.148  1.2211  0.8848 -1.7344
  276MOL0     O36301   4.689   5.001   6.982  0.4313 -0.2278 -0.7198
  276MOL0     C36302   4.802   4.971   7.025  0.8240 -0.7977 -0.2796
  276MOL0     O36303   4.847   4.849   7.060 -0.9791 -0.3060 -0.0236
  276MOL0     C36304   4.765   4.739   7.061 -0.4920 -0.0240 -0.0674
  276MOL0     C36305   4.757   4.681   7.183  0.2007  0.7683  0.7295
  276MOL0     C36306   4.672   4.572   7.204 -0.2639  0.2878  0.4325
  276MOL0     C36307   4.582   4.533   7.106  0.5286 -0.2583  0.4997
  276MOL0     O36308   4.497   4.425   7.127  0.3489  0.1264  0.3218
  276MOL0     C36309   4.401   4.433   7.229  0.4708 -0.7463 -0.4103
  276MOL0     C36310   4.257   4.415   7.182  0.1867  0.0795 -0.2350
  276MOL0     C36311   4.221   4.516   7.072 -0.7394 -0.4459 -0.1300
  276MOL0     C36312   4.070   4.527   7.056 -0.0645 -0.1284  0.4831
  276MOL0     C36313   4.031   4.629   6.937 -0.1839  0.5368 -0.2844
  276MOL0     C36314   3.882   4.611   6.917 -0.1721  0.2436  0.5824
  276MOL0     C36315   3.835   4.662   6.785 -0.0207  0.0231  0.0600
  276MOL0     C36316   3.703   4.602   6.734  0.2515 -0.7516 -0.2860
  276MOL0     N36317   3.600   4.632   6.830  0.5709 -0.2081 -0.9248
  276MOL0     C36318   3.475   4.585   6.839 -0.0212 -0.1834  0.5722
  276MOL0     C36319   3.396   4.682   6.883 -0.3807 -0.4608 -0.7227
  276MOL0     C36320   3.253   4.651   6.873  0.2050 -0.0164  0.4037
  276MOL0     C36321   3.164   4.753   6.937  0.1035 -0.1476 -0.8060
  276MOL0     C36322   3.025   4.703   6.970  0.1133  0.1565  0.9768
  276MOL0     C36323   2.937   4.796   7.061  0.3595 -0.6049 -0.8519
  276MOL0     O36324   2.831   4.712   7.105  0.0893  0.8405  0.0661
  276MOL0     C36325   2.724   4.770   7.173 -0.4805  0.1460 -0.7369
  276MOL0     C36326   2.603   4.697   7.172  0.3469  0.0750 -0.3713
  276MOL0     C36327   2.485   4.745   7.234 -0.6547 -0.3151  0.2894
  276MOL0     C36328   2.490   4.878   7.294  0.0099  0.3035  0.2097
  276MOL0     C36329   2.373   4.920   7.366  0.6426  0.2916 -0.0317
  276MOL0     O36330   2.319   4.819   7.445  0.6857  0.0179  0.2210
  276MOL0     C36331   2.210   4.860   7.515 -1.3076 -0.1189  0.3856
  276MOL0     C36332   2.087   4.855   7.453 -1.1761 -1.1016 -0.9943
  276MOL0     C36333   1.970   4.893   7.516  0.8460  0.1776  0.5130
  276MOL0     C36334   1.978   4.941   7.643 -0.5482  0.2600 -0.6779
  276MOL0     O36335   1.857   4.981   7.690 -0.6852 -0.0273 -0.0512
  276MOL0     C36336   1.843   5.025   7.826 -0.2005 -0.0647 -0.7111
  276MOL0     C36337   1.695   5.042   7.880 -0.6868  0.4638 -0.5655
  276MOL0     C36338   1.624   4.914   7.899 -0.0316  0.3847 -0.6227
  276MOL0     C36339   1.485   4.936   7.953  0.5773 -0.3691  0.4393
  276MOL0     C36340   1.405   4.810   7.998  0.8783  0.1751 -0.0216
  276MOL0     C36341   1.261   4.862   8.040  0.1961  0.2602 -0.8760
  276MOL0     C36342   1.168   4.751   8.063 -0.4046 -0.8483 -0.2756
  276MOL0     C36343   1.029   4.798   8.112 -0.2350  1.5161 -0.2165
  276MOL0    Cl36344   1.041   4.886   8.270 -0.3011 -0.0724 -0.1487
  276MOL0     C36345   2.096   4.935   7.722 -0.4371  0.6998 -0.0015
  276MOL0     C36346   2.219   4.905   7.650 -0.1027  0.5442  0.5578
  276MOL0     O36347   2.336   5.039   7.357  0.5398 -0.4371  0.8250
  276MOL0     C36348   2.604   4.955   7.288  0.1983 -0.2306 -0.4073
  276MOL0     C36349   2.725   4.894   7.238 -0.0097 -0.6487 -0.3576
  276MOL0     N36350   3.463   4.798   6.908  0.1306  0.8892 -0.1314
  276MOL0     N36351   3.582   4.763   6.876 -0.0660  0.3139  0.3379
  276MOL0     C36352   4.576   4.606   6.986 -0.4227 -0.3605  0.1449
  276MOL0     C36353   4.675   4.701   6.957 -0.1012  0.5015 -0.4362
  276MOL0     C36354   4.894   5.089   7.032  0.4297 -0.5046 -0.3628
  276MOL0     C36355   4.867   5.198   6.958  0.8763 -0.6402  0.2720
  276MOL0     C36356   4.962   5.301   6.939  0.7450  0.3949  0.6767
  276MOL0     C36357   5.081   5.292   7.009 -0.3703 -0.0579  0.1496
  276MOL0     O36358   5.164   5.398   7.003  0.5398 -0.2802 -0.3667
  276MOL0     C36359   5.132   5.513   7.086  0.4281  0.3824  0.4162
  276MOL0     C36360   5.238   5.631   7.077  0.1620 -0.0702 -0.0339
  276MOL0     C36361   5.356   5.593   7.161 -0.2014 -0.9999  0.5804
  276MOL0     C36362   5.351   5.588   7.313  0.7600 -0.6230 -0.2466
  276MOL0     C36363   5.481   5.585   7.374  0.2737 -0.6348 -0.4306
  276MOL0     C36364   5.595   5.566   7.422 -0.2891  0.5367 -1.1708
  276MOL0     C36365   5.099   5.188   7.102  1.1926 -0.4328 -0.5386
  276MOL0     C36366   5.006   5.088   7.116  1.2786  0.8132  0.2654
  276MOL0     H36367   4.808   4.728   7.267  0.4686  0.3248  0.8158
  276MOL0     H36368   4.654   4.531   7.303  3.2381  0.2999  1.2136
  276MOL0     H36369   4.399   4.529   7.280 -2.3145 -0.2737 -1.2444
  276MOL0     H36370   4.424   4.369   7.315  1.3770  1.2863  0.9182
  276MOL0     H36371   4.191   4.449   7.262 -1.9778 -2.0617 -0.9750
  276MOL0     H36372   4.236   4.310   7.158  0.2907 -0.1478  0.6379
  276MOL0     H36373   4.275   4.501   6.978 -0.3405 -1.7968  0.2929
  276MOL0     H36374   4.252   4.609   7.120 -1.5286 -1.4669  2.5780
  276MOL0     H36375   4.028   4.433   7.020 -1.2471 -0.8432  3.4514
  276MOL0     H36376   4.012   4.559   7.142 -1.4546  0.8649 -0.7635
  276MOL0     H36377   4.091   4.600   6.850  1.7632  2.0750  0.4682
  276MOL0     H36378   4.046   4.729   6.979  0.6156 -0.2660  1.4509
  276MOL0     H36379   3.826   4.660   6.997  1.1549 -0.2272  1.8523
  276MOL0     H36380   3.865   4.503   6.921  2.0954 -0.2280 -0.6158
  276MOL0     H36381   3.838   4.771   6.775 -1.7384 -0.0398 -1.6204
  276MOL0     H36382   3.913   4.633   6.714 -0.0262  1.2657 -0.4964
  276MOL0     H36383   3.711   4.493   6.732  1.1797 -0.6675 -1.3130
  276MOL0     H36384   3.679   4.637   6.633  0.8788  1.4458  0.2566
  276MOL0     H36385   3.438   4.495   6.790 -0.5679 -0.1868  0.9814
  276MOL0     H36386   3.240   4.548   6.907 -2.1602  0.9856  2.8981
  276MOL0     H36387   3.227   4.645   6.767  0.5066  0.5596  0.2930
  276MOL0     H36388   3.168   4.843   6.875  0.7016  3.1684  3.5641
  276MOL0     H36389   3.204   4.777   7.036  0.0770  3.6606 -1.5800
  276MOL0     H36390   2.978   4.697   6.872 -0.4898  0.5862  1.2365
  276MOL0     H36391   3.034   4.601   7.008  1.0809  0.4804  1.6590
  276MOL0     H36392   2.892   4.873   6.999  3.1257 -0.0761 -2.3585
  276MOL0     H36393   2.991   4.834   7.148  2.0128 -1.1888 -1.5798
  276MOL0     H36394   2.588   4.597   7.131 -2.9457  0.5421 -0.6158
  276MOL0     H36395   2.408   4.668   7.237 -1.7737  0.7378 -0.2898
  276MOL0     H36396   2.077   4.823   7.350 -0.3476 -0.8001 -1.1707
  276MOL0     H36397   1.880   4.880   7.457  1.7399 -1.5318 -0.5579
  276MOL0     H36398   1.897   5.120   7.836  2.2864 -1.5523  1.4662
  276MOL0     H36399   1.906   4.953   7.880 -2.1060 -1.7974 -0.6503
  276MOL0     H36400   1.644   5.107   7.808  0.5550  1.3338 -0.6833
  276MOL0     H36401   1.685   5.097   7.974  2.0441 -0.0060  0.0662
  276MOL0     H36402   1.679   4.858   7.975  1.1082 -1.5842 -2.7586
  276MOL0     H36403   1.614   4.854   7.808 -1.2936  2.8885 -2.2691
  276MOL0     H36404   1.494   4.993   8.046 -1.4107 -0.4160  0.7098
  276MOL0     H36405   1.418   4.985   7.881  1.5950 -1.4461 -1.3273
  276MOL0     H36406   1.464   4.769   8.080  1.1964  1.2107  0.2810
  276MOL0     H36407   1.386   4.735   7.920  2.7847 -1.0590  0.6402
  276MOL0     H36408   1.225   4.921   7.956 -1.3961 -1.3509 -1.3919
  276MOL0     H36409   1.268   4.925   8.129 -0.1710 -1.6682  0.5941
  276MOL0     H36410   1.150   4.699   7.968  0.7048 -1.6626 -0.0528
  276MOL0     H36411   1.231   4.686   8.125  1.1716  2.1211  1.4673
  276MOL0     H36412   0.972   4.707   8.131  3.0753 -0.5837  0.3127
  276MOL0     H36413   1.002   4.866   8.031  2.2694 -0.1906 -2.6601
  276MOL0     H36414   2.100   4.961   7.827 -0.8652 -0.2007  0.2438
  276MOL0     H36415   2.309   4.916   7.710 -1.2390  3.1469  1.9388
  276MOL0     H36416   2.596   5.053   7.334  0.6650 -1.0297  1.4728
  276MOL0     H36417   2.812   4.959   7.249 -0.1694 -0.5988  0.6958
  276MOL0     H36418   4.509   4.595   6.901  1.5192 -0.8158 -1.4084
  276MOL0     H36419   4.678   4.753   6.862 -1.5175  3.9300  1.2264
  276MOL0     H36420   4.777   5.197   6.897  2.2922 -1.8664 -1.9376
  276MOL0     H36421   4.928   5.383   6.877  0.1853 -0.8073 -0.6495
  276MOL0     H36422   5.119   5.485   7.191 -0.1775 -1.9640 -0.2096
  276MOL0     H36423   5.033   5.538   7.046  1.2313  1.9222 -0.7379
  276MOL0     H36424   5.274   5.655   6.977  2.7202 -1.8762  0.3478
  276MOL0     H36425   5.192   5.718   7.125  1.1087  0.0381  0.7219
  276MOL0     H36426   5.419   5.679   7.137  0.4478 -2.0149 -1.5898
  276MOL0     H36427   5.394   5.497   7.125 -1.0934 -0.9994 -0.4243
  276MOL0     H36428   5.316   5.688   7.339  2.1891  0.6808 -2.8775
  276MOL0     H36429   5.285   5.511   7.352  1.8809 -0.6449  1.7768
  276MOL0     H36430   5.693   5.557   7.464 -0.4904  1.4220 -0.4869
  276MOL0     H36431   5.195   5.194   7.151  1.1805  3.1369 -0.6931
  276MOL0     H36432   5.012   5.009   7.189 -1.7751  0.0507 -0.1746
  277MOL0     O36433   0.573   9.111   5.473  0.9584  0.1027  0.2914
  277MOL0     C36434   0.629   9.214   5.439 -0.1935  0.8114  0.5142
  277MOL0     O36435   0.569   9.327   5.387 -0.8349 -0.8039  1.2273
  277MOL0     C36436   0.440   9.354   5.423 -0.5171 -0.0784  0.1365
  277MOL0     C36437   0.399   9.339   5.557  0.2563  0.4959 -0.3040
  277MOL0     C36438   0.269   9.377   5.594 -1.3173  0.7054  0.0242
  277MOL0     C36439   0.184   9.437   5.498  0.8323 -0.4660 -1.2500
  277MOL0     O36440   0.058   9.481   5.543 -0.1753  0.3925  0.1785
  277MOL0     C36441  -0.018   9.551   5.443 -0.0338  0.5186  0.1382
  277MOL0     C36442  -0.154   9.586   5.511  0.1308  0.7656 -0.1533
  277MOL0     C36443  -0.248   9.460   5.516 -1.1718 -1.5443  0.1423
  277MOL0     C36444  -0.363   9.501   5.612 -0.1493  0.2557 -0.2333
  277MOL0     C36445  -0.463   9.593   5.535  0.3285  0.2912 -0.2957
  277MOL0     C36446  -0.520   9.691   5.634 -0.5157  0.2675 -0.3456
  277MOL0     C36447  -0.624   9.785   5.580 -0.0849  0.2057 -0.1580
  277MOL0     C36448  -0.763   9.711   5.586  0.3531 -0.1503  0.0104
  277MOL0     N36449  -0.826   9.698   5.716  0.0612  0.4644 -0.2150
  277MOL0     C36450  -0.943   9.630   5.749 -0.2598  0.0545 -0.1119
  277MOL0     C36451  -0.979   9.672   5.872 -0.2880 -0.1677 -0.8600
  277MOL0     C36452  -1.101   9.631   5.961 -1.3950 -0.8811  0.3554
  277MOL0     C36453  -1.152   9.739   6.055 -0.2139 -0.3711  0.5217
  277MOL0     C36454  -1.294   9.697   6.112  0.5466  0.3181  0.0012
  277MOL0     C36455  -1.294   9.569   6.202 -0.2821 -0.0642 -0.4570
  277MOL0     O36456  -1.362   9.457   6.147  0.1469 -0.0649  0.6991
  277MOL0     C36457  -1.496   9.466   6.129 -0.7164 -0.8882 -0.8000
  277MOL0     C36458  -1.559   9.378   6.044  0.5589  0.7803 -0.4838
  277MOL0     C36459  -1.701   9.381   6.032 -0.3462 -0.8043  0.5219
  277MOL0     C36460  -1.781   9.481   6.084 -0.3327  0.7839  0.0272
  277MOL0     C36461  -1.928   9.475   6.059  1.2475 -0.2404  0.1509
  277MOL0     O36462  -1.976   9.377   5.969 -0.0112 -0.2510  0.4981
  277MOL0     C36463  -2.106   9.388   5.946  1.4210  0.3060  0.2875
  277MOL0     C36464  -2.155   9.453   5.836  1.1391  0.2795  0.0443
  277MOL0     C36465  -2.289   9.450   5.795 -0.3557  0.0393  0.3804
  277MOL0     C36466  -2.381   9.365   5.866 -0.7151 -1.1834 -1.0161
  277MOL0     O36467  -2.513   9.373   5.827 -0.1224  0.0099 -0.1758
  277MOL0     C36468  -2.624   9.313   5.890 -0.1564 -0.0044  0.1024
  277MOL0     C36469  -2.746   9.396   5.834 -0.0938  0.4612  0.1530
  277MOL0     C36470  -2.882   9.337   5.881  0.1825  0.1291  0.4160
  277MOL0     C36471  -2.983   9.453   5.854 -0.4815 -0.0735  0.2960
  277MOL0     C36472  -3.116   9.387   5.863  0.0630  0.6061  0.3051
  277MOL0     C36473  -3.232   9.490   5.883  0.0005 -0.1514  0.5140
  277MOL0     C36474  -3.238   9.591   5.763 -0.4190 -0.0875  0.4979
  277MOL0     C36475  -3.371   9.668   5.768 -0.4752  0.5732 -0.4044
  277MOL0    Cl36476  -3.359   9.796   5.908 -0.0891 -0.1075 -0.3035
  277MOL0     C36477  -2.332   9.299   5.979  0.2274 -0.0834  0.2340
  277MOL0     C36478  -2.197   9.310   6.018  0.4593 -0.5794  0.6205
  277MOL0     O36479  -2.001   9.552   6.126 -1.1757  0.2323 -0.3327
  277MOL0     C36480  -1.714   9.574   6.166 -0.0468  0.0917  0.9304
  277MOL0     C36481  -1.577   9.566   6.188 -0.3923  0.3689 -0.7414
  277MOL0     N36482  -0.891   9.770   5.913  0.5731 -0.1580 -0.4888
  277MOL0     N36483  -0.799   9.784   5.821  0.3305  0.0368  0.0301
  277MOL0     C36484   0.227   9.457   5.367 -0.3371  0.0241  0.2281
  277MOL0     C36485   0.354   9.412   5.330 -0.3225 -0.5854 -0.2911
  277MOL0     C36486   0.778   9.206   5.436  0.6316  0.1269  0.3985
  277MOL0     C36487   0.849   9.084   5.460 -1.2730 -0.5171 -0.5160
  277MOL0     C36488   0.991   9.089   5.477  0.0453 -0.5341 -0.3993
  277MOL0     C36489   1.060   9.214   5.457 -0.6274  0.7308 -0.0051
  277MOL0     O36490   1.199   9.228   5.456 -0.0827 -0.2478 -0.4901
  277MOL0     C36491   1.279   9.140   5.534  0.5420 -0.8351  0.1187
  277MOL0     C36492   1.425   9.168   5.493  0.5046  0.3611  0.2230
  277MOL0     C36493   1.478   9.093   5.369  0.6252 -0.7007 -0.3218
  277MOL0     C36494   1.468   8.935   5.390 -0.0550 -0.5953 -0.4818
  277MOL0     C36495   1.356   8.880   5.324 -0.5806  0.8542  0.2748
  277MOL0     C36496   1.258   8.843   5.256  0.1284  0.0601  0.1578
  277MOL0     C36497   0.989   9.321   5.439  0.2527 -0.1133 -0.1688
  277MOL0     C36498   0.851   9.320   5.425 -0.1892 -1.2238 -0.2392
  277MOL0     H36499   0.455   9.292   5.637  0.6714  1.7757  0.1841
  277MOL0     H36500   0.235   9.355   5.695  1.4634 -2.1332  0.5080
  277MOL0     H36501  -0.039   9.480   5.362 -0.4603 -1.5167  1.9227
  277MOL0     H36502   0.037   9.637   5.403  1.0349 -0.1567  0.1042
  277MOL0     H36503  -0.202   9.661   5.447  0.3713  0.8151 -0.2770
  277MOL0     H36504  -0.142   9.623   5.613 -1.6343  0.4206  0.2192
  277MOL0     H36505  -0.192   9.376   5.559  1.2625 -0.4267 -0.6841
  277MOL0     H36506  -0.289   9.435   5.417 -2.5782 -0.0257  0.2953
  277MOL0     H36507  -0.415   9.410   5.643 -0.3568  1.0900  2.0676
  277MOL0     H36508  -0.321   9.565   5.690 -2.7876  2.8873 -0.7835
  277MOL0     H36509  -0.545   9.540   5.486 -1.6599  3.8629 -1.2691
  277MOL0     H36510  -0.417   9.660   5.462 -1.5759  1.1324 -0.7899
  277MOL0     H36511  -0.432   9.739   5.677  1.0906 -1.2605 -1.7481
  277MOL0     H36512  -0.575   9.638   5.712  0.2276  0.8457  0.5929
  277MOL0     H36513  -0.640   9.871   5.645 -0.2470  0.1940 -0.1825
  277MOL0     H36514  -0.603   9.815   5.476 -0.9057  0.4238 -0.2643
  277MOL0     H36515  -0.744   9.610   5.548  1.9788  0.6939 -1.5872
  277MOL0     H36516  -0.830   9.758   5.513  1.3439  1.1380 -0.0933
  277MOL0     H36517  -1.004   9.571   5.682 -0.0095 -0.2099 -0.1070
  277MOL0     H36518  -1.057   9.554   6.024  0.4077  0.1578  0.4279
  277MOL0     H36519  -1.175   9.588   5.893  1.5214 -3.6557 -1.2907
  277MOL0     H36520  -1.158   9.836   6.004  0.5870 -0.8467 -0.5202
  277MOL0     H36521  -1.077   9.757   6.132  2.9623  3.1151 -2.9011
  277MOL0     H36522  -1.338   9.780   6.169 -1.2052  0.1513 -1.0334
  277MOL0     H36523  -1.369   9.689   6.032 -0.7128 -0.0739  1.1889
  277MOL0     H36524  -1.346   9.592   6.296 -1.0242 -1.2414 -0.5556
  277MOL0     H36525  -1.194   9.530   6.223 -0.9115 -1.7485 -0.4478
  277MOL0     H36526  -1.503   9.293   6.009  0.6613 -1.5735  4.5737
  277MOL0     H36527  -1.747   9.301   5.974  1.1098 -1.9981  0.9498
  277MOL0     H36528  -2.083   9.509   5.777  1.1952  2.7683  2.2855
  277MOL0     H36529  -2.315   9.492   5.698  0.9452  1.5593  0.6447
  277MOL0     H36530  -2.627   9.307   5.999  3.3653 -0.2630  0.3022
  277MOL0     H36531  -2.641   9.216   5.844  1.2677  1.1244 -3.1454
  277MOL0     H36532  -2.749   9.404   5.725  1.8820  5.2261  0.2341
  277MOL0     H36533  -2.729   9.501   5.860  2.3094  0.2008 -0.1437
  277MOL0     H36534  -2.879   9.306   5.985  2.9606 -0.1102  0.3227
  277MOL0     H36535  -2.921   9.255   5.820  0.2401  0.8756 -0.6729
  277MOL0     H36536  -2.970   9.536   5.923  1.3962  0.2530 -0.4012
  277MOL0     H36537  -2.963   9.491   5.753 -0.4248 -0.7251  0.0504
  277MOL0     H36538  -3.121   9.319   5.948  0.9669 -0.7396 -0.6730
  277MOL0     H36539  -3.136   9.327   5.773 -0.7626  0.2425  0.7237
  277MOL0     H36540  -3.230   9.546   5.977  4.4781 -3.1079  2.5469
  277MOL0     H36541  -3.328   9.437   5.880 -1.2371  2.0201 -0.6846
  277MOL0     H36542  -3.152   9.657   5.777 -0.6578 -0.0274  1.8678
  277MOL0     H36543  -3.210   9.536   5.673  0.9107  0.9647  0.2382
  277MOL0     H36544  -3.461   9.606   5.771  0.5389 -0.9487  0.1465
  277MOL0     H36545  -3.382   9.720   5.673  0.2717 -0.9503 -1.3505
  277MOL0     H36546  -2.407   9.239   6.029 -0.4928  1.1238  0.6611
  277MOL0     H36547  -2.158   9.239   6.090  0.1033 -1.0931  0.3229
  277MOL0     H36548  -1.754   9.666   6.208  2.2833  2.0923 -0.9333
  277MOL0     H36549  -1.534   9.650   6.242 -1.6241 -0.2054  1.2018
  277MOL0     H36550   0.173   9.497   5.281  0.3227  0.9102  0.2079
  277MOL0     H36551   0.374   9.422   5.224  0.7275 -1.4832 -0.1963
  277MOL0     H36552   0.791   8.994   5.480 -1.6366 -0.4224 -1.1173
  277MOL0     H36553   1.058   9.006   5.501  3.3741  1.2669 -2.7592
  277MOL0     H36554   1.251   9.035   5.521 -0.7092 -0.9211  2.6816
  277MOL0     H36555   1.271   9.176   5.637  0.9000  1.6350 -0.6563
  277MOL0     H36556   1.434   9.276   5.485 -0.8920  0.4125 -1.3087
  277MOL0     H36557   1.493   9.130   5.569  0.7468 -1.1504 -0.7026
  277MOL0     H36558   1.578   9.136   5.370  0.3570 -0.0688  0.0563
  277MOL0     H36559   1.428   9.117   5.275 -0.1401 -0.9931 -0.0017
  277MOL0     H36560   1.561   8.888   5.358  0.5241  0.3592 -0.2356
  277MOL0     H36561   1.450   8.914   5.496  0.4956 -1.6261 -0.5855
  277MOL0     H36562   1.164   8.846   5.205 -1.7242 -2.6503  3.0713
  277MOL0     H36563   1.046   9.413   5.424  2.2630 -1.4438 -1.2361
  277MOL0     H36564   0.804   9.417   5.408  2.2465  0.3588  1.3919
  278MOL0     O36565   8.768  11.092   3.624  0.3923  0.2022 -0.2353
  278MOL0     C36566   8.775  11.200   3.576 -0.4929  0.2682  0.0677
  278MOL0     O36567   8.704  11.242   3.468 -0.2230 -0.4723  0.2690
  278MOL0     C36568   8.612  11.162   3.401 -0.1945  0.3914  0.9880
  278MOL0     C36569   8.623  11.028   3.395  0.2371  0.0501  0.8351
  278MOL0     C36570   8.535  10.955   3.315  0.1932 -0.5049  0.7649
  278MOL0     C36571   8.422  11.008   3.252  0.8730 -0.0987  0.4075
  278MOL0     O36572   8.349  10.919   3.179 -0.0358 -0.8426 -1.4975
  278MOL0     C36573   8.222  10.965   3.139  1.0375 -0.5906  0.2110
  278MOL0     C36574   8.153  10.857   3.056  0.0621 -0.8660  0.0425
  278MOL0     C36575   8.228  10.823   2.923 -0.2615 -0.2370 -0.3572
  278MOL0     C36576   8.157  10.713   2.853 -0.3763  0.6439  0.4420
  278MOL0     C36577   8.252  10.651   2.745 -0.4265  0.2934  0.5056
  278MOL0     C36578   8.222  10.510   2.702 -0.4814  0.2348 -0.8462
  278MOL0     C36579   8.074  10.478   2.658 -0.3977  0.1487  0.0012
  278MOL0     C36580   8.065  10.330   2.626  0.5648  0.0162 -0.4903
  278MOL0     N36581   7.933  10.284   2.578 -0.2925  0.8179 -0.1720
  278MOL0     C36582   7.914  10.212   2.466  0.7199 -0.4050  0.5170
  278MOL0     C36583   7.780  10.196   2.458  1.0495 -0.0235  0.2575
  278MOL0     C36584   7.699  10.128   2.336 -0.5499  0.1906 -0.4897
  278MOL0     C36585   7.554  10.172   2.327  0.5645  0.7312 -0.8225
  278MOL0     C36586   7.492  10.082   2.221  0.1706 -0.8423 -0.2038
  278MOL0     C36587   7.344  10.117   2.196  0.0320 -0.5493  0.1156
  278MOL0     O36588   7.259  10.131   2.310 -0.1304 -0.5486 -0.6402
  278MOL0     C36589   7.128  10.111   2.281  1.0190  0.8022  0.5578
  278MOL0     C36590   7.049  10.060   2.386 -0.2805  0.1578  0.3231
  278MOL0     C36591   6.907  10.049   2.368 -0.5677 -0.4532  0.8501
  278MOL0     C36592   6.841  10.089   2.253  0.3779  0.6364  0.5028
  278MOL0     C36593   6.692  10.069   2.228 -0.7557  0.8224  0.5040
  278MOL0     O36594   6.617  10.021   2.323 -0.4720 -0.0877 -0.3914
  278MOL0     C36595   6.489   9.993   2.290  0.2123  0.3641  0.1694
  278MOL0     C36596   6.438   9.859   2.323  0.0491  0.7515 -0.2092
  278MOL0     C36597   6.298   9.843   2.308  0.2020 -0.5296 -0.6295
  278MOL0     C36598   6.214   9.944   2.272 -0.2222  0.0981 -0.2214
  278MOL0     O36599   6.077   9.934   2.275  0.3442  0.2458  1.1520
  278MOL0     C36600   6.006   9.832   2.334  0.2385  0.1097  0.1337
  278MOL0     C36601   5.859   9.844   2.320  0.0419  0.7549  0.3278
  278MOL0     C36602   5.794   9.714   2.387 -0.3367 -0.5338 -0.2029
  278MOL0     C36603   5.644   9.738   2.371  0.9293  0.3132  0.5472
  278MOL0     C36604   5.555   9.644   2.453 -0.7534 -0.7240  0.0202
  278MOL0     C36605   5.409   9.647   2.403  0.1095 -0.3843 -0.4456
  278MOL0     C36606   5.344   9.784   2.412 -0.2551  0.3034 -0.4273
  278MOL0     C36607   5.249   9.785   2.295 -0.7852  0.1587  0.4948
  278MOL0    Cl36608   5.321   9.792   2.129  0.1690  0.0041 -0.1427
  278MOL0     C36609   6.270  10.065   2.217 -0.2164  0.1679 -0.0501
  278MOL0     C36610   6.403  10.102   2.239 -0.5996  0.5876  0.1128
  278MOL0     O36611   6.660  10.084   2.116  0.2853 -0.0093 -0.0620
  278MOL0     C36612   6.920  10.137   2.148 -0.0664 -0.0354  0.7447
  278MOL0     C36613   7.060  10.152   2.164  0.5299 -0.0469  0.0296
  278MOL0     N36614   7.724  10.258   2.566 -1.3425 -0.2389 -0.3164
  278MOL0     N36615   7.813  10.311   2.639  0.5148 -0.5629 -0.1329
  278MOL0     C36616   8.399  11.140   3.274 -0.5418 -0.8389  1.0176
  278MOL0     C36617   8.499  11.220   3.342  0.7497  0.5247 -0.3870
  278MOL0     C36618   8.884  11.286   3.612 -0.7792  0.8725  0.5244
  278MOL0     C36619   8.921  11.395   3.521 -0.5572  0.7385 -1.2804
  278MOL0     C36620   9.025  11.477   3.568  0.2229  0.0418 -0.2830
  278MOL0     C36621   9.099  11.458   3.685  0.9000  0.3453 -0.3963
  278MOL0     O36622   9.208  11.539   3.725 -0.1606 -0.0001  0.5304
  278MOL0     C36623   9.257  11.657   3.654  0.7554 -0.1305  0.2990
  278MOL0     C36624   9.160  11.775   3.659 -0.1163 -0.2585 -0.6101
  278MOL0     C36625   9.112  11.794   3.803 -0.5491  0.0521  0.0222
  278MOL0     C36626   9.027  11.910   3.827  0.4493 -0.7247  0.4442
  278MOL0     C36627   8.893  11.897   3.764 -0.5943 -0.1862 -0.2005
  278MOL0     C36628   8.787  11.896   3.710  0.3774  0.5414  0.7971
  278MOL0     C36629   9.073  11.341   3.764 -0.1069 -0.0573  0.6492
  278MOL0     C36630   8.959  11.264   3.735  0.4544 -0.6986  0.2416
  278MOL0     H36631   8.715  10.984   3.432  0.9462  0.9310  0.1555
  278MOL0     H36632   8.556  10.848   3.309  0.1544 -0.4624 -0.2974
  278MOL0     H36633   8.239  11.042   3.063 -0.3313 -2.4930 -2.2178
  278MOL0     H36634   8.158  10.993   3.223  0.0960  0.4423 -0.8160
  278MOL0     H36635   8.052  10.893   3.034  0.3159  0.0584  0.3650
  278MOL0     H36636   8.135  10.771   3.123 -3.8635 -0.6870 -0.5564
  278MOL0     H36637   8.332  10.798   2.946 -0.1057  0.1760 -0.5995
  278MOL0     H36638   8.230  10.913   2.862  2.6058  1.1785  1.6280
  278MOL0     H36639   8.121  10.640   2.926 -0.7050  1.1549  0.8033
  278MOL0     H36640   8.073  10.762   2.803  1.5971  2.7871 -0.9689
  278MOL0     H36641   8.357  10.658   2.776  0.8341 -2.9739 -2.4093
  278MOL0     H36642   8.230  10.713   2.658 -1.4883 -0.0744  0.4968
  278MOL0     H36643   8.253  10.437   2.777 -0.4794  1.8827  0.8231
  278MOL0     H36644   8.283  10.480   2.616 -0.9658  1.6115 -1.7085
  278MOL0     H36645   8.016  10.488   2.751 -1.7433 -2.7002 -0.4047
  278MOL0     H36646   8.036  10.537   2.575  0.3831  0.2253 -0.3036
  278MOL0     H36647   8.099  10.283   2.719  1.0198 -2.9666 -2.0414
  278MOL0     H36648   8.133  10.292   2.549  0.5477  0.5971 -0.8000
  278MOL0     H36649   7.991  10.184   2.395 -0.6556 -3.4466  0.0387
  278MOL0     H36650   7.712  10.021   2.355  2.0376  0.7155  1.1650
  278MOL0     H36651   7.747  10.156   2.242 -0.8297  0.0029 -0.6916
  278MOL0     H36652   7.566  10.274   2.291  0.5861  0.2080 -2.3825
  278MOL0     H36653   7.508  10.174   2.426 -0.6693  0.9097 -1.3793
  278MOL0     H36654   7.543  10.080   2.124 -2.9650  0.0130 -2.0176
  278MOL0     H36655   7.490   9.980   2.259  0.2439 -2.2614 -3.6235
  278MOL0     H36656   7.296  10.042   2.133  0.0593  0.6807 -1.4144
  278MOL0     H36657   7.346  10.208   2.136  0.8995 -0.8395 -0.3267
  278MOL0     H36658   7.098  10.050   2.482  1.4895 -2.5329 -0.7655
  278MOL0     H36659   6.847  10.013   2.452 -2.0010  0.9207  0.4697
  278MOL0     H36660   6.497   9.782   2.372  2.1942  0.2754 -3.2211
  278MOL0     H36661   6.259   9.749   2.345 -0.1664  0.6565  2.3225
  278MOL0     H36662   6.036   9.826   2.439 -1.3542  0.7913  0.6572
  278MOL0     H36663   6.033   9.736   2.288  1.8556  2.0114 -3.2631
  278MOL0     H36664   5.830   9.843   2.215 -5.3353 -0.8328  1.5271
  278MOL0     H36665   5.819   9.932   2.370  1.2655  0.7498  1.4036
  278MOL0     H36666   5.808   9.705   2.495  1.5131 -3.2229 -0.5656
  278MOL0     H36667   5.820   9.619   2.338 -0.5542 -0.6631 -0.0663
  278MOL0     H36668   5.615   9.840   2.398 -4.7658 -0.1147 -2.5684
  278MOL0     H36669   5.623   9.718   2.266 -1.3764 -1.5638  1.2960
  278MOL0     H36670   5.564   9.687   2.553 -1.4447  1.2283 -0.7013
  278MOL0     H36671   5.587   9.541   2.440  3.1045  0.1638  1.2426
  278MOL0     H36672   5.351   9.583   2.471  0.3351  1.3328  1.4413
  278MOL0     H36673   5.404   9.600   2.304  0.6497  0.8913 -1.0979
  278MOL0     H36674   5.288   9.792   2.505 -0.9151  2.1188 -0.9387
  278MOL0     H36675   5.411   9.870   2.404 -1.1765  1.1999  1.0665
  278MOL0     H36676   5.185   9.873   2.308 -2.6955 -0.9366 -0.8130
  278MOL0     H36677   5.184   9.697   2.293 -4.4863  2.6482  1.0311
  278MOL0     H36678   6.195  10.129   2.172 -1.1020 -0.8379 -0.0683
  278MOL0     H36679   6.447  10.195   2.205  0.1152  0.6637  1.1901
  278MOL0     H36680   6.883  10.158   2.048  0.0792  0.1467  0.7281
  278MOL0     H36681   7.108  10.217   2.091  0.1604 -0.3184 -0.4653
  278MOL0     H36682   8.308  11.183   3.232 -1.2535 -2.9128  0.3142
  278MOL0     H36683   8.478  11.327   3.338  1.6717  0.7116 -0.3251
  278MOL0     H36684   8.886  11.419   3.421 -1.3196  3.7598 -0.4191
  278MOL0     H36685   9.056  11.564   3.512 -0.1976  2.8132  3.3954
  278MOL0     H36686   9.261  11.631   3.548  2.0303 -2.9283  0.9256
  278MOL0     H36687   9.356  11.693   3.685  0.3982  2.2033 -1.0952
  278MOL0     H36688   9.199  11.870   3.623  3.2893 -1.5697 -0.7604
  278MOL0     H36689   9.072  11.747   3.600 -0.8202 -0.2894  0.4284
  278MOL0     H36690   9.197  11.806   3.871 -1.6738 -1.2645  1.7470
  278MOL0     H36691   9.065  11.701   3.836  0.9222 -1.4054 -1.7129
  278MOL0     H36692   9.020  11.932   3.934  0.2371 -1.5830  0.6109
  278MOL0     H36693   9.070  12.003   3.788 -0.3080 -0.4170  0.3373
  278MOL0     H36694   8.698  11.884   3.651  0.7770  2.9305 -0.4166
  278MOL0     H36695   9.136  11.322   3.851  0.4468  0.2624  0.3246
  278MOL0     H36696   8.937  11.184   3.805 -0.6740 -0.3019  0.3504
  279MOL0     O36697   1.926   4.240   1.390  0.1840  0.2411 -0.1099
  279MOL0     C36698   1.912   4.290   1.277 -0.3670  0.7351 -0.1098
  279MOL0     O36699   2.007   4.348   1.198  0.5956 -0.0250  0.5713
  279MOL0     C36700   2.142   4.347   1.228  0.1965 -0.4048  0.3411
  279MOL0     C36701   2.209   4.302   1.338 -0.5238  0.0212  0.9934
  279MOL0     C36702   2.343   4.333   1.347 -0.1535 -0.7069 -0.3801
  279MOL0     C36703   2.420   4.390   1.247 -0.1408 -0.3930  0.1978
  279MOL0     O36704   2.555   4.415   1.274  0.1116 -0.5140  0.6414
  279MOL0     C36705   2.619   4.512   1.182  0.4058  0.3360 -0.6565
  279MOL0     C36706   2.769   4.514   1.202 -0.0533 -0.6376 -1.1343
  279MOL0     C36707   2.796   4.556   1.352 -0.2547  0.3454 -0.5071
  279MOL0     C36708   2.949   4.562   1.385 -0.1342 -0.2972 -0.0046
  279MOL0     C36709   2.959   4.620   1.526 -0.4252  0.0220 -0.5645
  279MOL0     C36710   3.104   4.654   1.560  0.8135 -0.2195 -0.5271
  279MOL0     C36711   3.128   4.697   1.711  0.7321 -0.2690 -0.0058
  279MOL0     C36712   3.246   4.791   1.730 -0.6224  0.5515 -0.4386
  279MOL0     N36713   3.277   4.834   1.870  0.3529  0.7353  0.0791
  279MOL0     C36714   3.178   4.887   1.959  0.3722 -0.6552 -0.5903
  279MOL0     C36715   3.251   4.903   2.075 -0.4885  0.0435 -0.1510
  279MOL0     C36716   3.196   4.938   2.211 -0.6797  1.1491 -0.0887
  279MOL0     C36717   3.166   4.814   2.300 -0.9340  0.4037  0.3357
  279MOL0     C36718   3.074   4.845   2.420  0.1104 -0.0869  1.0098
  279MOL0     C36719   2.920   4.840   2.378 -0.0823  0.7347  0.6416
  279MOL0     O36720   2.874   4.696   2.379 -0.6725 -0.0962  0.4690
  279MOL0     C36721   2.747   4.668   2.354 -0.3912  0.1774  0.2354
  279MOL0     C36722   2.704   4.541   2.393  0.4432  0.1605 -0.0731
  279MOL0     C36723   2.579   4.491   2.371 -0.0679 -0.4443 -0.0649
  279MOL0     C36724   2.482   4.579   2.323 -0.2174  0.0267 -0.2166
  279MOL0     C36725   2.339   4.543   2.309  0.2446 -0.3872  0.2325
  279MOL0     O36726   2.307   4.414   2.297  0.4200  0.9548  0.0679
  279MOL0     C36727   2.177   4.378   2.259 -0.9533 -0.0891  0.0002
  279MOL0     C36728   2.116   4.279   2.316 -0.1968  0.4537 -0.0348
  279MOL0     C36729   1.984   4.242   2.281 -0.0252  0.5991 -0.0090
  279MOL0     C36730   1.918   4.299   2.174 -0.8573  0.7602  0.1678
  279MOL0     O36731   1.800   4.254   2.128 -0.5653  0.0587 -0.1978
  279MOL0     C36732   1.702   4.224   2.226  0.0327 -0.2766  0.6175
  279MOL0     C36733   1.575   4.218   2.133 -0.4873  0.4483  0.0647
  279MOL0     C36734   1.575   4.093   2.042 -0.1312  0.2520  0.5439
  279MOL0     C36735   1.538   3.956   2.112  0.0626 -0.0838 -0.1467
  279MOL0     C36736   1.561   3.828   2.026  0.2994  0.3522 -1.4094
  279MOL0     C36737   1.482   3.829   1.901  0.3508  0.7492  0.8011
  279MOL0     C36738   1.332   3.849   1.911 -0.1920  0.1503  0.0408
  279MOL0     C36739   1.261   3.821   1.774  0.0951 -0.4806 -0.3207
  279MOL0    Cl36740   1.258   3.637   1.737  0.3162 -0.1519  0.1006
  279MOL0     C36741   1.993   4.391   2.104  1.2599 -0.0181 -0.1482
  279MOL0     C36742   2.116   4.430   2.144  0.8218 -0.1977  0.7007
  279MOL0     O36743   2.264   4.636   2.298  0.1592 -0.3139 -0.8546
  279MOL0     C36744   2.522   4.707   2.272 -0.0224 -0.5361 -0.2083
  279MOL0     C36745   2.659   4.750   2.293  0.1573 -0.2700  0.2000
  279MOL0     N36746   3.378   4.864   2.053  0.1904  0.7688 -0.3587
  279MOL0     N36747   3.396   4.828   1.928 -0.5963 -0.3580 -0.3233
  279MOL0     C36748   2.354   4.436   1.129 -0.1408  0.5968  0.4988
  279MOL0     C36749   2.213   4.407   1.125 -1.2511 -0.5661 -0.3498
  279MOL0     C36750   1.773   4.290   1.224 -0.1733  0.1641 -0.0525
  279MOL0     C36751   1.726   4.372   1.112 -0.5683 -0.2291  0.5237
  279MOL0     C36752   1.590   4.360   1.066  0.0198  0.2495 -0.5803
  279MOL0     C36753   1.510   4.260   1.126 -0.5402  0.2918  0.9309
  279MOL0     O36754   1.388   4.266   1.079  0.6499 -0.1867 -0.1277
  279MOL0     C36755   1.299   4.157   1.104  0.5775 -0.4180 -0.0366
  279MOL0     C36756   1.173   4.172   1.009 -0.0402  0.8224  0.3051
  279MOL0     C36757   1.088   4.289   1.044 -0.5497  0.0180 -0.8809
  279MOL0     C36758   0.974   4.306   0.949 -0.5125  0.1653  0.2713
  279MOL0     C36759   0.841   4.361   0.995  1.0909 -0.2379  0.0954
  279MOL0     C36760   0.723   4.391   1.025 -0.6408  0.9091 -0.2354
  279MOL0     C36761   1.561   4.169   1.214  0.5760 -0.3125  0.3768
  279MOL0     C36762   1.689   4.184   1.266 -0.9891  0.2368  0.1427
  279MOL0     H36763   2.145   4.250   1.410 -0.8693 -0.6543  0.2092
  279MOL0     H36764   2.391   4.302   1.439 -2.3329  2.1657  1.9418
  279MOL0     H36765   2.575   4.611   1.197 -1.1195 -0.5539  1.3457
  279MOL0     H36766   2.617   4.480   1.077  2.7034  1.8118 -1.2124
  279MOL0     H36767   2.811   4.590   1.136  2.3852 -3.0266 -2.5564
  279MOL0     H36768   2.816   4.421   1.170  2.2924  0.8565 -2.2648
  279MOL0     H36769   2.753   4.475   1.412  0.2216 -0.4728 -1.2362
  279MOL0     H36770   2.750   4.652   1.375 -1.4388 -0.4553  0.6767
  279MOL0     H36771   2.994   4.464   1.366 -1.3874 -0.7780 -0.5833
  279MOL0     H36772   2.993   4.633   1.314 -0.6025  3.2888  2.9508
  279MOL0     H36773   2.929   4.540   1.595 -3.3766  2.5293  1.2723
  279MOL0     H36774   2.890   4.703   1.542 -1.0674 -0.2239 -1.9334
  279MOL0     H36775   3.143   4.737   1.501 -0.1402  2.2845  2.0851
  279MOL0     H36776   3.159   4.562   1.539  0.4249 -0.7390  0.6148
  279MOL0     H36777   3.034   4.743   1.741  1.6121  1.0886  0.7941
  279MOL0     H36778   3.146   4.601   1.760 -3.4388 -0.9561  0.5045
  279MOL0     H36779   3.242   4.876   1.661  1.0873  1.5642  0.6268
  279MOL0     H36780   3.332   4.729   1.701 -1.7078 -1.4425  0.3853
  279MOL0     H36781   3.073   4.907   1.941  0.7975  1.1928 -1.3049
  279MOL0     H36782   3.100   4.987   2.189 -1.6924  0.2358  1.9794
  279MOL0     H36783   3.267   5.007   2.257 -0.1723  2.9194 -3.2826
  279MOL0     H36784   3.266   4.780   2.330 -1.9223 -2.6384  0.4690
  279MOL0     H36785   3.130   4.735   2.234  0.2470 -0.3555  0.5712
  279MOL0     H36786   3.100   4.767   2.492 -0.1111 -1.1027  0.0399
  279MOL0     H36787   3.108   4.936   2.469  3.8497 -0.6100 -0.2658
  279MOL0     H36788   2.913   4.887   2.280 -0.6335 -0.0296  0.3043
  279MOL0     H36789   2.866   4.907   2.446 -3.2009 -0.7473 -0.1760
  279MOL0     H36790   2.776   4.482   2.450  2.0106  1.9290 -0.1364
  279MOL0     H36791   2.574   4.385   2.396  2.0319 -1.0699 -1.9515
  279MOL0     H36792   2.152   4.224   2.403 -2.5911 -1.5201 -0.1542
  279MOL0     H36793   1.940   4.159   2.334 -1.0195  0.1234 -1.5136
  279MOL0     H36794   1.690   4.307   2.295  0.9493  0.0321  0.4179
  279MOL0     H36795   1.723   4.130   2.279 -0.1142 -1.9741 -2.1155
  279MOL0     H36796   1.580   4.298   2.060  1.2272 -1.5689 -2.2038
  279MOL0     H36797   1.487   4.215   2.199 -0.5332 -0.3021 -0.0158
  279MOL0     H36798   1.667   4.080   1.984 -1.0545 -1.9736 -0.5190
  279MOL0     H36799   1.494   4.113   1.971  1.9983  0.5714 -1.9487
  279MOL0     H36800   1.591   3.937   2.206 -0.5856 -0.3989  0.1628
  279MOL0     H36801   1.429   3.960   2.127 -0.6178 -2.4054 -3.3907
  279MOL0     H36802   1.520   3.740   2.078  3.5708  0.6800  2.1824
  279MOL0     H36803   1.668   3.824   2.004  0.8611  3.7897  0.0643
  279MOL0     H36804   1.494   3.730   1.857  2.0378  0.9502  0.7317
  279MOL0     H36805   1.520   3.908   1.835  1.3580  0.6316  1.2150
  279MOL0     H36806   1.293   3.783   1.990 -1.3319 -1.6828 -1.9346
  279MOL0     H36807   1.306   3.952   1.937  2.5109  0.7332  0.7677
  279MOL0     H36808   1.307   3.890   1.702  1.0241 -0.0301  0.6797
  279MOL0     H36809   1.162   3.865   1.788  0.5643  0.3162  0.6589
  279MOL0     H36810   1.962   4.435   2.010  1.1329 -0.6360 -0.4045
  279MOL0     H36811   2.159   4.514   2.091 -0.3066  0.4014  0.6921
  279MOL0     H36812   2.443   4.769   2.232 -0.8355  0.4712  2.7166
  279MOL0     H36813   2.686   4.849   2.257  1.4389 -0.5237  0.4237
  279MOL0     H36814   2.394   4.492   1.046 -0.8081  0.0709 -0.1960
  279MOL0     H36815   2.161   4.435   1.035 -3.3171  0.8527  1.1764
  279MOL0     H36816   1.783   4.453   1.069  1.2961 -1.2869  0.8885
  279MOL0     H36817   1.550   4.424   0.988 -3.3271 -0.9038  0.0191
  279MOL0     H36818   1.262   4.158   1.207 -1.1429 -0.7561 -0.6069
  279MOL0     H36819   1.349   4.062   1.087  0.7395 -0.4536  0.6045
  279MOL0     H36820   1.217   4.197   0.912 -1.7944  2.3287 -0.1649
  279MOL0     H36821   1.111   4.084   0.991 -0.1051  1.1576 -1.2707
  279MOL0     H36822   1.147   4.381   1.052 -2.6505  1.2759  1.2647
  279MOL0     H36823   1.049   4.273   1.145  1.1718 -0.9334 -0.3240
  279MOL0     H36824   1.007   4.360   0.860 -0.9735  0.5444  0.3312
  279MOL0     H36825   0.947   4.204   0.920  2.6506 -0.5334 -0.6366
  279MOL0     H36826   0.621   4.401   1.058 -0.5984 -0.0141  0.1884
  279MOL0     H36827   1.502   4.082   1.242 -2.2139  0.8544 -1.3814
  279MOL0     H36828   1.714   4.111   1.343 -3.0579  0.4917  1.1294
  280MOL0     O36829   3.931   4.751  11.224  1.1797  0.1470 -0.2572
  280MOL0     C36830   4.018   4.835  11.207  0.1324 -0.9335  0.2857
  280MOL0     O36831   3.998   4.952  11.139 -0.4528 -0.9369  0.2080
  280MOL0     C36832   3.879   4.976  11.082  0.2636 -0.3389  0.7488
  280MOL0     C36833   3.808   5.078  11.134 -0.2126  0.1269 -0.0008
  280MOL0     C36834   3.679   5.118  11.079  0.3478  0.8968 -0.8025
  280MOL0     C36835   3.629   5.036  10.973 -1.1580 -0.2086  0.4763
  280MOL0     O36836   3.506   5.048  10.914 -0.5108  0.2171 -0.1370
  280MOL0     C36837   3.451   5.185  10.907 -0.6285  0.3771  0.1142
  280MOL0     C36838   3.318   5.179  10.837 -0.0005  0.6927 -0.3763
  280MOL0     C36839   3.216   5.083  10.897  0.1863  0.0208 -0.8487
  280MOL0     C36840   3.100   5.048  10.817 -0.3156 -0.0538  0.1563
  280MOL0     C36841   3.032   4.922  10.860  0.2446  0.3769  0.0374
  280MOL0     C36842   2.913   4.891  10.762  0.0797  0.1361  0.6840
  280MOL0     C36843   2.864   4.750  10.795 -0.0256 -0.5300 -0.2210
  280MOL0     C36844   2.749   4.721  10.701  0.0669  0.2293  0.6783
  280MOL0     N36845   2.692   4.587  10.727  0.0730 -0.1518  0.6001
  280MOL0     C36846   2.709   4.509  10.842  0.5135 -0.2000  0.5898
  280MOL0     C36847   2.623   4.402  10.822  1.1671 -0.3484  0.6613
  280MOL0     C36848   2.599   4.280  10.906  0.0601  0.4155  0.1720
  280MOL0     C36849   2.509   4.182  10.855 -0.1377  0.0404  0.0928
  280MOL0     C36850   2.364   4.221  10.846  0.2153 -0.8327  0.3003
  280MOL0     C36851   2.292   4.181  10.711 -0.6304 -0.3070  0.1498
  280MOL0     O36852   2.305   4.041  10.682  0.3677  0.1488 -0.8931
  280MOL0     C36853   2.216   3.961  10.746  0.0166 -0.4314  0.5305
  280MOL0     C36854   2.260   3.890  10.851  0.2298 -0.2173 -0.5711
  280MOL0     C36855   2.169   3.812  10.923  0.0851  0.3882  0.1157
  280MOL0     C36856   2.034   3.792  10.873 -0.0319 -0.1003 -0.1946
  280MOL0     C36857   1.951   3.692  10.951 -0.5390 -0.2554 -0.7151
  280MOL0     O36858   1.814   3.683  10.930 -0.1583 -0.0656 -0.3184
  280MOL0     C36859   1.729   3.590  10.996 -0.6168  0.0815 -0.4448
  280MOL0     C36860   1.603   3.641  11.029  0.0166  0.1785 -0.3889
  280MOL0     C36861   1.511   3.556  11.100  0.1151  0.4466  0.4944
  280MOL0     C36862   1.545   3.424  11.130  0.0318  0.3554 -0.5672
  280MOL0     O36863   1.467   3.327  11.194  0.8701  0.2036 -0.3907
  280MOL0     C36864   1.326   3.342  11.210  0.6589  0.0506 -0.2604
  280MOL0     C36865   1.266   3.208  11.234  0.4318 -0.1965  0.0413
  280MOL0     C36866   1.117   3.213  11.273 -0.7392 -0.0363  0.8839
  280MOL0     C36867   1.064   3.107  11.381  0.1788  0.4017 -1.0184
  280MOL0     C36868   1.063   2.962  11.334  0.1113  0.6541  0.0389
  280MOL0     C36869   1.044   2.872  11.456 -0.0834 -0.8189 -0.5898
  280MOL0     C36870   1.005   2.734  11.422  0.1924 -0.0063 -0.2129
  280MOL0     C36871   0.907   2.678  11.532 -0.3612 -0.3344  0.3924
  280MOL0    Cl36872   0.755   2.760  11.512  0.3083  0.0189 -0.2182
  280MOL0     C36873   1.663   3.372  11.088  0.6289  0.2534  0.4196
  280MOL0     C36874   1.757   3.452  11.021  0.2159  0.3000 -0.1212
  280MOL0     O36875   2.011   3.632  11.043 -0.1728  0.0577  0.0670
  280MOL0     C36876   1.993   3.868  10.762 -0.2263 -0.2462  0.6778
  280MOL0     C36877   2.084   3.952  10.704 -0.0848 -0.0777 -0.1554
  280MOL0     N36878   2.546   4.431  10.710  0.1584 -0.0644 -0.9589
  280MOL0     N36879   2.592   4.540  10.651  0.0566  0.0612 -0.0850
  280MOL0     C36880   3.702   4.924  10.923 -0.3541 -0.3739  0.5814
  280MOL0     C36881   3.819   4.892  10.985  0.5226  0.2574  0.1143
  280MOL0     C36882   4.152   4.810  11.258 -0.8489 -0.0817 -0.3698
  280MOL0     C36883   4.263   4.883  11.217 -0.4424 -0.0933 -0.2351
  280MOL0     C36884   4.392   4.855  11.262 -0.2144  0.2788 -1.0169
  280MOL0     C36885   4.423   4.751  11.353  0.0216  0.4126 -0.4224
  280MOL0     O36886   4.542   4.695  11.393  0.4803 -0.4547  0.0738
  280MOL0     C36887   4.663   4.739  11.327 -0.3479 -0.5854 -0.0073
  280MOL0     C36888   4.796   4.667  11.374 -0.0825  0.0050 -0.3489
  280MOL0     C36889   4.920   4.725  11.296  0.6222 -1.0636  0.2184
  280MOL0     C36890   5.017   4.608  11.270 -0.7558  0.1761 -0.8827
  280MOL0     C36891   5.091   4.589  11.394  0.4615  0.9577  1.1149
  280MOL0     C36892   5.140   4.549  11.498 -0.7744 -0.4187 -0.4509
  280MOL0     C36893   4.310   4.680  11.394  0.5795 -0.0893 -0.8936
  280MOL0     C36894   4.179   4.709  11.347  0.5259 -0.0144 -0.6884
  280MOL0     H36895   3.849   5.118  11.226  3.5447 -5.0225  0.9898
  280MOL0     H36896   3.637   5.199  11.137  1.1070 -0.5202  1.9118
  280MOL0     H36897   3.527   5.243  10.853 -1.1549 -0.1511 -1.2372
  280MOL0     H36898   3.438   5.221  11.010 -1.8661 -0.4882  0.2920
  280MOL0     H36899   3.347   5.154  10.735  2.6429  2.5538 -0.1899
  280MOL0     H36900   3.273   5.278  10.836 -0.3068  0.5520 -0.6513
  280MOL0     H36901   3.185   5.135  10.988  1.4456 -2.2042  0.9329
  280MOL0     H36902   3.253   4.988  10.936 -5.1552 -1.9628  0.1679
  280MOL0     H36903   3.024   5.125  10.831 -1.6214 -1.6209  2.4000
  280MOL0     H36904   3.127   5.039  10.711 -2.0227  1.3426 -0.4324
  280MOL0     H36905   3.000   4.934  10.963 -0.2831 -4.0174  0.5805
  280MOL0     H36906   3.093   4.832  10.851 -0.8350 -0.1461 -3.5115
  280MOL0     H36907   2.950   4.887  10.659  0.0490 -0.6337  0.6932
  280MOL0     H36908   2.836   4.968  10.770 -0.7657 -0.2600 -2.4356
  280MOL0     H36909   2.946   4.679  10.786  0.7849  0.2083  1.1241
  280MOL0     H36910   2.826   4.748  10.897  0.8299 -1.3933  0.0857
  280MOL0     H36911   2.775   4.724  10.595 -3.3896  0.0230 -0.2934
  280MOL0     H36912   2.665   4.788  10.724 -1.0013 -1.5373  2.1918
  280MOL0     H36913   2.777   4.522  10.926  0.2692  1.7053  0.5366
  280MOL0     H36914   2.563   4.312  11.003 -2.0227 -2.1707  0.3675
  280MOL0     H36915   2.697   4.239  10.931 -0.1870  1.1969  2.6356
  280MOL0     H36916   2.527   4.107  10.933 -0.5379 -1.0930 -0.8687
  280MOL0     H36917   2.550   4.153  10.758 -0.6992  4.0596 -1.5217
  280MOL0     H36918   2.313   4.163  10.923  0.0156 -0.6435  0.3152
  280MOL0     H36919   2.346   4.328  10.863  1.2905 -0.5976  0.0381
  280MOL0     H36920   2.338   4.243  10.634 -1.2811 -2.4166 -2.0417
  280MOL0     H36921   2.184   4.200  10.716 -0.7334 -1.0556  0.9830
  280MOL0     H36922   2.363   3.897  10.885 -0.9608  1.8933  3.2837
  280MOL0     H36923   2.212   3.764  11.010 -1.5514 -0.6227  0.4030
  280MOL0     H36924   1.567   3.735  10.988  0.8937 -0.3772 -2.5151
  280MOL0     H36925   1.417   3.597  11.135 -0.6369 -2.0159  1.5918
  280MOL0     H36926   1.287   3.383  11.116 -0.9918 -2.2827 -0.6567
  280MOL0     H36927   1.294   3.403  11.295  1.4485  0.7964 -0.4800
  280MOL0     H36928   1.323   3.157  11.312  2.4391 -2.0499 -2.4367
  280MOL0     H36929   1.278   3.146  11.144 -2.7293 -0.0607 -0.5668
  280MOL0     H36930   1.050   3.198  11.187  1.1757 -0.1321 -0.6740
  280MOL0     H36931   1.080   3.314  11.292  0.0612  0.4854 -0.2302
  280MOL0     H36932   1.134   3.117  11.464 -2.2921  2.0602  1.0405
  280MOL0     H36933   0.963   3.133  11.414 -0.0228  0.6943 -1.8446
  280MOL0     H36934   1.163   2.946  11.292 -0.6238  0.2808 -1.6672
  280MOL0     H36935   0.999   2.944  11.247  1.6993  2.6632 -1.6547
  280MOL0     H36936   0.965   2.921  11.514  1.0856  0.1851  0.2177
  280MOL0     H36937   1.137   2.877  11.513 -0.9655 -1.8053  1.0598
  280MOL0     H36938   0.958   2.731  11.323  1.3074 -1.1680 -0.7398
  280MOL0     H36939   1.091   2.666  11.426 -0.7453 -1.5816 -3.6221
  280MOL0     H36940   0.946   2.687  11.634  0.8395  1.3906 -0.1781
  280MOL0     H36941   0.892   2.571  11.517  1.1124 -0.6699  1.1208
  280MOL0     H36942   1.690   3.271  11.115  1.3862  1.1005  3.0853
  280MOL0     H36943   1.844   3.392  10.993 -1.4511 -2.5637  0.3924
  280MOL0     H36944   1.892   3.868  10.721 -0.3109  1.8425  0.7418
  280MOL0     H36945   2.049   4.017  10.624 -1.5732 -1.8462 -1.0127
  280MOL0     H36946   3.674   4.864  10.837 -0.0010 -0.4657  0.5293
  280MOL0     H36947   3.872   4.805  10.948 -2.6796 -1.5826 -0.4449
  280MOL0     H36948   4.258   4.972  11.154  0.0273 -0.5954 -0.9920
  280MOL0     H36949   4.464   4.932  11.233 -2.5996  3.0243 -0.1561
  280MOL0     H36950   4.668   4.845  11.355 -0.1194 -0.8203  0.8809
  280MOL0     H36951   4.663   4.723  11.219 -2.4293  2.5767 -0.5862
  280MOL0     H36952   4.821   4.698  11.476 -0.2909 -0.0159 -0.2920
  280MOL0     H36953   4.784   4.559  11.363  2.2393 -0.2926 -0.3286
  280MOL0     H36954   4.967   4.808  11.349 -1.4957  0.5723 -0.3254
  280MOL0     H36955   4.878   4.759  11.201  2.3507 -1.2308 -0.6285
  280MOL0     H36956   4.962   4.519  11.240 -2.5115  1.6603 -2.2592
  280MOL0     H36957   5.088   4.632  11.190  0.4247  0.3657  0.1904
  280MOL0     H36958   5.185   4.518  11.589 -1.6420  0.0713  0.1630
  280MOL0     H36959   4.311   4.602  11.469  1.0368  0.1766 -0.6156
  280MOL0     H36960   4.091   4.650  11.370 -0.3243  1.8446  1.0880
  281MOL0     O36961   7.453   0.038   9.118  0.2384 -0.1685 -0.3748
  281MOL0     C36962   7.461  -0.082   9.132 -0.7214 -0.4982  0.2492
  281MOL0     O36963   7.365  -0.162   9.177 -0.0903 -0.4374 -0.2743
  281MOL0     C36964   7.243  -0.115   9.223 -0.5770  0.4198  0.3911
  281MOL0     C36965   7.150  -0.213   9.258 -0.5543 -0.0695  0.3094
  281MOL0     C36966   7.020  -0.181   9.308  0.2111 -0.1093  0.1669
  281MOL0     C36967   6.993  -0.045   9.353  0.2339 -0.0050  1.0619
  281MOL0     O36968   6.882  -0.022   9.423 -0.1345  0.3462 -0.4509
  281MOL0     C36969   6.764  -0.004   9.338 -0.6112 -0.0197  0.1745
  281MOL0     C36970   6.652   0.049   9.437 -0.2198  0.4156 -0.7132
  281MOL0     C36971   6.558  -0.072   9.475 -0.3052 -0.0198  0.3600
  281MOL0     C36972   6.422  -0.027   9.536  0.0561  0.0966 -0.3007
  281MOL0     C36973   6.324   0.043   9.427  0.9626 -0.0144 -0.5238
  281MOL0     C36974   6.183   0.098   9.467 -0.1900  0.5036  0.0913
  281MOL0     C36975   6.205   0.222   9.561  0.1959  0.1639  0.0217
  281MOL0     C36976   6.066   0.279   9.586 -0.0355 -0.4991  0.0912
  281MOL0     N36977   6.064   0.374   9.700 -0.5211  0.2046  0.0752
  281MOL0     C36978   6.147   0.485   9.716  0.1432 -1.0454 -0.9284
  281MOL0     C36979   6.106   0.536   9.839 -0.6762  0.4421  0.2163
  281MOL0     C36980   6.164   0.652   9.913  0.7365 -1.1852  0.2200
  281MOL0     C36981   6.314   0.661   9.900 -0.2356  0.3539  0.2188
  281MOL0     C36982   6.391   0.706  10.023  0.3912 -0.0703  0.0222
  281MOL0     C36983   6.537   0.716   9.998 -0.2998 -0.0078  0.0594
  281MOL0     O36984   6.576   0.831   9.921 -0.1742  0.4396 -1.1161
  281MOL0     C36985   6.695   0.839   9.864  0.6248 -0.2241  0.3481
  281MOL0     C36986   6.812   0.795   9.919  0.5845  0.4078 -0.1492
  281MOL0     C36987   6.925   0.802   9.839 -0.6227  0.1780 -0.5789
  281MOL0     C36988   6.933   0.875   9.718  0.9505 -0.3423  0.0447
  281MOL0     C36989   7.055   0.883   9.643 -0.8874  0.6321  0.5794
  281MOL0     O36990   7.173   0.861   9.712 -0.4807  0.5552 -0.3557
  281MOL0     C36991   7.292   0.861   9.644 -0.9324 -0.3117 -0.8096
  281MOL0     C36992   7.324   0.763   9.557  0.4864  0.2560  0.2583
  281MOL0     C36993   7.447   0.755   9.485 -0.1251 -0.4970  0.0053
  281MOL0     C36994   7.549   0.860   9.508 -0.5239  0.3109 -0.5936
  281MOL0     O36995   7.671   0.873   9.448  0.4740  0.0999 -0.4618
  281MOL0     C36996   7.699   0.768   9.350  0.0610  0.1797 -0.2378
  281MOL0     C36997   7.830   0.816   9.280  0.6678  0.4702  0.2958
  281MOL0     C36998   7.956   0.826   9.366 -0.2678 -0.3685 -0.6519
  281MOL0     C36999   8.081   0.891   9.298  0.3841 -0.1289 -0.2582
  281MOL0     C37000   8.210   0.878   9.382 -0.1075 -0.7701 -0.3139
  281MOL0     C37001   8.327   0.954   9.314  1.0968 -0.3144 -0.2993
  281MOL0     C37002   8.450   0.950   9.415  0.3134 -0.9735 -0.3465
  281MOL0     C37003   8.492   0.804   9.435 -0.1515  0.1543  0.2675
  281MOL0    Cl37004   8.664   0.803   9.492  0.4343  0.2877 -0.0845
  281MOL0     C37005   7.517   0.959   9.606  0.0260  0.2387  0.2332
  281MOL0     C37006   7.386   0.959   9.671 -0.8012 -0.5285 -0.0869
  281MOL0     O37007   7.047   0.902   9.523  0.4067 -0.2521  0.0379
  281MOL0     C37008   6.812   0.923   9.671  1.0078  0.3501  0.0832
  281MOL0     C37009   6.695   0.905   9.741  0.4758 -0.6307 -0.2540
  281MOL0     N37010   6.003   0.465   9.888 -0.1801 -0.1168 -0.0353
  281MOL0     N37011   5.979   0.373   9.808 -0.4014  0.3671 -0.0446
  281MOL0     C37012   7.084   0.052   9.327  0.2707 -0.3915  0.1037
  281MOL0     C37013   7.208   0.024   9.261 -0.2632 -0.3173  0.8179
  281MOL0     C37014   7.590  -0.155   9.095  0.9806  0.9746  0.1414
  281MOL0     C37015   7.703  -0.083   9.079 -0.4615  0.3516  0.2791
  281MOL0     C37016   7.825  -0.133   9.023  0.6098 -1.5184  0.6433
  281MOL0     C37017   7.823  -0.266   8.987  0.4116  0.3768  0.2835
  281MOL0     O37018   7.927  -0.341   8.939 -0.5973 -0.7375  0.7810
  281MOL0     C37019   8.048  -0.275   8.913 -0.3862 -0.0821 -0.0491
  281MOL0     C37020   8.149  -0.376   8.863 -0.7136 -0.4573  0.2109
  281MOL0     C37021   8.290  -0.328   8.817  0.0935  0.1462 -0.6501
  281MOL0     C37022   8.382  -0.425   8.736  0.7096 -0.0021 -0.9365
  281MOL0     C37023   8.377  -0.568   8.788  0.4696 -1.3614  0.5212
  281MOL0     C37024   8.373  -0.679   8.832 -0.3566 -0.3577  0.0790
  281MOL0     C37025   7.708  -0.346   9.016 -0.1602  0.7964  0.6267
  281MOL0     C37026   7.594  -0.289   9.067  0.3435 -0.3452 -0.0527
  281MOL0     H37027   7.163  -0.317   9.229 -2.6725 -0.3060 -0.0103
  281MOL0     H37028   6.954  -0.264   9.329 -0.9006 -0.6876 -4.4470
  281MOL0     H37029   6.737  -0.098   9.290 -0.2887 -0.0398  0.0327
  281MOL0     H37030   6.784   0.074   9.264 -3.9995  3.3269  2.3615
  281MOL0     H37031   6.606   0.136   9.389 -0.2485  1.3479  0.9122
  281MOL0     H37032   6.686   0.094   9.531  0.0073 -2.3073  0.6055
  281MOL0     H37033   6.604  -0.151   9.534 -2.0505 -3.0877 -2.1074
  281MOL0     H37034   6.527  -0.124   9.385 -2.3430 -0.2997  1.1583
  281MOL0     H37035   6.367  -0.116   9.566  0.7686 -0.3830 -0.3840
  281MOL0     H37036   6.446   0.036   9.623  0.8052 -2.3348  1.3749
  281MOL0     H37037   6.304  -0.037   9.355  1.4044 -1.6774  1.1009
  281MOL0     H37038   6.384   0.130   9.398  2.5890 -0.3770  1.5321
  281MOL0     H37039   6.116   0.019   9.499  0.3673 -1.4581 -3.1318
  281MOL0     H37040   6.152   0.129   9.366  0.3738 -2.5961 -1.1486
  281MOL0     H37041   6.251   0.198   9.658 -1.0332  1.3245  0.9246
  281MOL0     H37042   6.267   0.284   9.496  0.8164  1.0086  1.3691
  281MOL0     H37043   5.990   0.205   9.611 -0.0484 -0.3169  0.6129
  281MOL0     H37044   6.032   0.335   9.498  1.0883 -1.5850 -1.0801
  281MOL0     H37045   6.237   0.528   9.672 -0.0361  2.2507  1.5252
  281MOL0     H37046   6.128   0.652  10.017 -0.4281  2.3873 -0.0489
  281MOL0     H37047   6.116   0.743   9.878  1.3231 -0.2863  1.6561
  281MOL0     H37048   6.341   0.717   9.810  2.1725  1.6679  1.6423
  281MOL0     H37049   6.341   0.557   9.882 -2.8882 -0.2087 -1.1077
  281MOL0     H37050   6.368   0.809  10.048  4.3308  0.8621  0.5108
  281MOL0     H37051   6.372   0.634  10.103 -0.6158 -2.0694 -1.9035
  281MOL0     H37052   6.570   0.620   9.956  0.1578  0.3455 -0.3986
  281MOL0     H37053   6.588   0.733  10.094  2.4790  1.3997 -1.5357
  281MOL0     H37054   6.821   0.739  10.011 -0.8585  0.9044  0.3267
  281MOL0     H37055   7.017   0.763   9.881  0.3540  1.7477 -1.1537
  281MOL0     H37056   7.250   0.689   9.529 -1.7195  1.8997  1.4106
  281MOL0     H37057   7.449   0.679   9.408 -0.4127 -0.1996 -0.3034
  281MOL0     H37058   7.625   0.746   9.273  0.1894  0.4848 -0.4488
  281MOL0     H37059   7.719   0.675   9.404  0.6345  0.4023 -0.0622
  281MOL0     H37060   7.812   0.916   9.237  1.9454  1.0031  0.9602
  281MOL0     H37061   7.856   0.756   9.192  2.0893 -1.0154  1.6844
  281MOL0     H37062   7.981   0.724   9.396 -1.2595 -0.4375 -0.0208
  281MOL0     H37063   7.931   0.886   9.454 -1.6749  0.0452 -1.3136
  281MOL0     H37064   8.088   0.835   9.205 -2.2713  1.1886 -1.3616
  281MOL0     H37065   8.042   0.993   9.289 -3.9802 -1.5706 -0.0827
  281MOL0     H37066   8.244   0.775   9.400  2.9526  0.6156  3.1396
  281MOL0     H37067   8.199   0.926   9.480  2.5388 -0.0390 -0.2894
  281MOL0     H37068   8.283   1.053   9.298 -0.1953 -0.8937 -0.4030
  281MOL0     H37069   8.349   0.907   9.218 -1.0034 -0.6231 -0.6655
  281MOL0     H37070   8.537   1.012   9.392  1.0112 -0.2601  3.5506
  281MOL0     H37071   8.419   1.003   9.506 -0.9741  2.0718 -2.3883
  281MOL0     H37072   8.494   0.749   9.341  1.2349 -1.7450  1.3394
  281MOL0     H37073   8.429   0.745   9.502 -1.3167  0.2557 -0.7131
  281MOL0     H37074   7.584   1.041   9.631 -1.7558  2.8741 -2.8246
  281MOL0     H37075   7.357   1.040   9.737 -1.1804 -0.3512 -0.4715
  281MOL0     H37076   6.808   0.973   9.575  0.0426 -0.0818 -0.1050
  281MOL0     H37077   6.598   0.931   9.698  1.3291 -0.3026 -2.0799
  281MOL0     H37078   7.065   0.148   9.374  1.6839 -0.5381  1.0094
  281MOL0     H37079   7.282   0.103   9.260  1.3991 -1.7803  2.0405
  281MOL0     H37080   7.695   0.025   9.092 -2.1981  0.0819  1.7497
  281MOL0     H37081   7.915  -0.081   8.994 -0.0719 -1.8280 -2.3885
  281MOL0     H37082   8.087  -0.232   9.005  3.1456 -3.6139  0.3618
  281MOL0     H37083   8.024  -0.208   8.830 -3.5377 -1.2165 -0.2174
  281MOL0     H37084   8.159  -0.438   8.952  2.1890 -0.9681 -0.3443
  281MOL0     H37085   8.106  -0.429   8.778 -0.9944  1.9415 -1.2354
  281MOL0     H37086   8.344  -0.292   8.905 -0.0696  2.3321 -1.3622
  281MOL0     H37087   8.281  -0.239   8.754 -0.5664  0.2541 -0.4144
  281MOL0     H37088   8.366  -0.423   8.628 -0.5175 -0.1878 -0.7717
  281MOL0     H37089   8.481  -0.380   8.739 -0.2415  2.1885 -0.6077
  281MOL0     H37090   8.365  -0.782   8.859  0.2944  0.3645  3.4726
  281MOL0     H37091   7.723  -0.453   9.010  2.5689  0.9298  2.7636
  281MOL0     H37092   7.502  -0.345   9.079 -1.2745  2.6251  2.8780
  282MOL0     O37093   8.685   9.295   7.820 -0.4707 -0.4531 -0.0801
  282MOL0     C37094   8.613   9.378   7.867 -0.8702 -0.5234 -0.5479
  282MOL0     O37095   8.509   9.440   7.810  0.2487  0.1393  0.3277
  282MOL0     C37096   8.466   9.418   7.683 -0.0940 -0.1611  0.5348
  282MOL0     C37097   8.537   9.383   7.578 -0.0642 -0.0084  0.4002
  282MOL0     C37098   8.480   9.355   7.453 -0.6680 -0.3990  0.1645
  282MOL0     C37099   8.345   9.363   7.431 -0.6015 -0.7349  0.0771
  282MOL0     O37100   8.292   9.312   7.319 -0.2728  0.2792  0.7820
  282MOL0     C37101   8.147   9.334   7.294 -0.7659  0.0598  0.3672
  282MOL0     C37102   8.100   9.312   7.155 -0.9787  0.5779 -0.4452
  282MOL0     C37103   7.960   9.347   7.118  0.3272  0.7501 -0.4994
  282MOL0     C37104   7.863   9.286   7.207  0.2572  0.8559 -0.4944
  282MOL0     C37105   7.729   9.301   7.141  0.3402 -0.0083 -0.4124
  282MOL0     C37106   7.620   9.265   7.239  0.3052  0.5017  0.3175
  282MOL0     C37107   7.490   9.297   7.165 -0.5034  0.6775 -0.1656
  282MOL0     C37108   7.370   9.313   7.262  0.2590  0.3913  0.1103
  282MOL0     N37109   7.240   9.323   7.192  0.0155 -0.2402  0.6229
  282MOL0     C37110   7.209   9.435   7.124 -0.4142 -0.1015 -0.0308
  282MOL0     C37111   7.080   9.427   7.105  1.1115  0.3140 -1.0292
  282MOL0     C37112   6.980   9.525   7.053  0.2154 -0.1690 -0.1412
  282MOL0     C37113   6.947   9.492   6.901 -0.4244  0.6464  0.3348
  282MOL0     C37114   6.923   9.348   6.859 -0.2652 -0.2535  0.0853
  282MOL0     C37115   6.783   9.306   6.914 -0.0534 -0.0932 -0.4539
  282MOL0     O37116   6.685   9.396   6.863 -0.0559  0.9047 -0.0666
  282MOL0     C37117   6.565   9.416   6.921 -0.1550 -0.2878  0.8936
  282MOL0     C37118   6.521   9.347   7.029  0.3002  0.3759  0.6482
  282MOL0     C37119   6.394   9.371   7.086  0.3739  0.2219  0.3991
  282MOL0     C37120   6.316   9.473   7.037 -0.3596  0.6146  0.0803
  282MOL0     C37121   6.181   9.481   7.080  1.0794 -0.7441  0.1879
  282MOL0     O37122   6.128   9.355   7.084 -0.1930 -0.6003 -0.6755
  282MOL0     C37123   5.993   9.333   7.119 -0.2686  0.1479  0.0912
  282MOL0     C37124   5.937   9.226   7.052  0.0429  0.6708  0.2297
  282MOL0     C37125   5.802   9.198   7.066 -0.2141  1.2317  0.0991
  282MOL0     C37126   5.723   9.272   7.148  1.8972  0.6548 -0.8970
  282MOL0     O37127   5.588   9.250   7.180 -0.2957  0.4383  0.1706
  282MOL0     C37128   5.526   9.133   7.119 -0.1444 -0.2589 -0.8920
  282MOL0     C37129   5.385   9.114   7.165  0.7827 -0.0119 -0.3143
  282MOL0     C37130   5.276   9.084   7.058 -0.4348  0.2067  0.6596
  282MOL0     C37131   5.131   9.068   7.115 -0.7441  0.7906  0.8949
  282MOL0     C37132   5.070   9.202   7.141 -0.7401  0.0616 -0.1400
  282MOL0     C37133   4.920   9.222   7.155 -0.8694  0.5049 -0.5867
  282MOL0     C37134   4.846   9.126   7.240 -0.7827  0.1122  0.1091
  282MOL0     C37135   4.693   9.146   7.245 -0.6200 -0.9062 -0.2447
  282MOL0    Cl37136   4.646   9.305   7.327  0.1910 -0.0936  0.1231
  282MOL0     C37137   5.778   9.375   7.221 -1.0455  0.0953  0.7093
  282MOL0     C37138   5.912   9.412   7.208 -0.6622 -0.0876  0.2507
  282MOL0     O37139   6.112   9.584   7.082 -0.2170 -0.0054  0.2531
  282MOL0     C37140   6.365   9.554   6.932  0.0591 -0.1333 -0.3069
  282MOL0     C37141   6.485   9.528   6.871  0.3521 -0.0781  0.2736
  282MOL0     N37142   7.036   9.302   7.149  0.2527  0.5059 -0.4428
  282MOL0     N37143   7.126   9.244   7.216 -0.9666 -0.5307 -0.3487
  282MOL0     C37144   8.265   9.412   7.541 -0.0718  0.7164  0.3039
  282MOL0     C37145   8.328   9.435   7.670 -0.8239  0.2492 -0.2540
  282MOL0     C37146   8.660   9.430   8.001 -0.8418 -0.7862  0.5681
  282MOL0     C37147   8.594   9.541   8.057 -0.2539  0.6226 -0.0033
  282MOL0     C37148   8.635   9.600   8.185 -0.6414 -0.3467 -0.0027
  282MOL0     C37149   8.753   9.550   8.247 -0.0164 -0.5235 -0.6226
  282MOL0     O37150   8.797   9.596   8.369  0.2581 -0.0472 -0.5016
  282MOL0     C37151   8.860   9.724   8.363  0.7832 -0.2841  0.3244
  282MOL0     C37152   8.935   9.767   8.488 -0.2203  0.1591  0.6995
  282MOL0     C37153   9.047   9.681   8.539 -0.6141  0.4697  1.1468
  282MOL0     C37154   9.168   9.664   8.449 -0.1959  0.6784 -0.7992
  282MOL0     C37155   9.205   9.799   8.400 -0.9741  0.4359  0.7638
  282MOL0     C37156   9.254   9.907   8.375  0.0307 -0.3131 -0.1504
  282MOL0     C37157   8.820   9.437   8.184  0.0208  0.3582 -0.1305
  282MOL0     C37158   8.768   9.378   8.074  0.1672 -0.1519  0.3894
  282MOL0     H37159   8.643   9.363   7.589  0.0445  0.1918 -0.2522
  282MOL0     H37160   8.541   9.302   7.381 -1.9256 -0.2507 -1.0498
  282MOL0     H37161   8.128   9.438   7.322 -1.6702  0.1039 -0.3414
  282MOL0     H37162   8.091   9.269   7.362  0.4437 -0.8086  0.5550
  282MOL0     H37163   8.120   9.213   7.112 -0.0861  1.7199 -2.8786
  282MOL0     H37164   8.172   9.372   7.097 -1.8096 -0.3365 -2.5318
  282MOL0     H37165   7.938   9.333   7.012 -0.1802 -1.1869 -0.1683
  282MOL0     H37166   7.954   9.455   7.136  1.6163  1.2342 -2.5586
  282MOL0     H37167   7.882   9.180   7.225 -0.4578  0.6206 -1.0978
  282MOL0     H37168   7.870   9.338   7.303  4.2754  1.1365 -0.7832
  282MOL0     H37169   7.718   9.251   7.045 -0.1782  0.1525 -0.4427
  282MOL0     H37170   7.728   9.405   7.108  2.9250  0.6753  1.4099
  282MOL0     H37171   7.637   9.322   7.330  1.7579  1.3334 -0.4243
  282MOL0     H37172   7.650   9.165   7.271 -0.2193  1.0065  2.5279
  282MOL0     H37173   7.491   9.391   7.110 -4.9848  0.1265 -1.6338
  282MOL0     H37174   7.476   9.212   7.098  1.4603  0.0704  0.1330
  282MOL0     H37175   7.389   9.396   7.330  0.3785 -1.5723  2.6496
  282MOL0     H37176   7.355   9.230   7.332 -4.5056  0.9638  0.0951
  282MOL0     H37177   7.279   9.517   7.110 -0.9045  0.1626 -0.9813
  282MOL0     H37178   7.025   9.624   7.059 -2.1264  1.0203 -0.9014
  282MOL0     H37179   6.893   9.522   7.119 -0.9373 -0.8865 -1.6204
  282MOL0     H37180   7.028   9.528   6.837  0.2822 -1.6054 -0.1056
  282MOL0     H37181   6.861   9.554   6.872 -0.6292  0.3007  0.2003
  282MOL0     H37182   6.924   9.333   6.751 -0.2689 -2.4923  0.3546
  282MOL0     H37183   7.010   9.293   6.897  0.8360  1.6320  0.4292
  282MOL0     H37184   6.776   9.311   7.023  1.0813 -3.1484 -0.1307
  282MOL0     H37185   6.769   9.200   6.890 -2.8618  0.1531 -0.2027
  282MOL0     H37186   6.572   9.254   7.054  0.7273  0.6664  0.8642
  282MOL0     H37187   6.356   9.296   7.153  1.0847  0.5933  1.2416
  282MOL0     H37188   6.002   9.169   6.986 -0.8714  0.9848 -0.9840
  282MOL0     H37189   5.758   9.123   7.001  1.0139  0.4582  0.1175
  282MOL0     H37190   5.578   9.038   7.132 -0.0786 -0.7049 -3.7756
  282MOL0     H37191   5.530   9.148   7.011  0.0285 -1.9314 -1.1420
  282MOL0     H37192   5.361   9.204   7.223  3.2236  0.6841 -0.2886
  282MOL0     H37193   5.388   9.032   7.237 -2.3201 -0.8695 -1.0172
  282MOL0     H37194   5.306   8.988   7.015  2.2793  1.8399 -1.4466
  282MOL0     H37195   5.274   9.156   6.975 -1.1010  3.1652  3.0843
  282MOL0     H37196   5.068   9.009   7.048 -0.6336  1.4111  0.2223
  282MOL0     H37197   5.139   9.018   7.212 -1.3027 -3.0412 -0.8687
  282MOL0     H37198   5.119   9.284   7.088 -0.7814 -0.0365 -0.3318
  282MOL0     H37199   5.113   9.225   7.239  0.9701 -0.4351 -0.7431
  282MOL0     H37200   4.864   9.203   7.063 -0.9980 -3.3057  0.1099
  282MOL0     H37201   4.901   9.321   7.197 -0.2258 -0.8126  3.2352
  282MOL0     H37202   4.866   9.024   7.207  2.9019  0.5139  0.6384
  282MOL0     H37203   4.884   9.131   7.342 -0.1979 -3.6004  0.1949
  282MOL0     H37204   4.657   9.057   7.299  1.2760 -2.7431 -1.8294
  282MOL0     H37205   4.653   9.158   7.144  0.5771  0.7973 -0.5609
  282MOL0     H37206   5.720   9.424   7.298 -2.2440  0.0854 -0.1556
  282MOL0     H37207   5.940   9.495   7.273 -3.1263  0.3712  0.8087
  282MOL0     H37208   6.302   9.633   6.892 -1.9218  0.7998  3.9804
  282MOL0     H37209   6.536   9.592   6.800  0.4953 -1.0410 -0.5075
  282MOL0     H37210   8.158   9.428   7.539 -0.1151  0.3877 -1.9093
  282MOL0     H37211   8.272   9.462   7.759 -0.0808  3.8698 -0.7464
  282MOL0     H37212   8.512   9.587   8.002 -0.4092 -1.0178 -1.2248
  282MOL0     H37213   8.583   9.688   8.222 -3.2525 -1.5627 -0.6065
  282MOL0     H37214   8.787   9.804   8.348 -1.9559 -3.0247 -2.8320
  282MOL0     H37215   8.925   9.730   8.275 -1.4177 -0.3188 -1.4202
  282MOL0     H37216   8.975   9.866   8.463 -0.8713 -0.0764 -1.4802
  282MOL0     H37217   8.869   9.774   8.575 -2.7588  2.8806 -1.2451
  282MOL0     H37218   9.007   9.580   8.553  1.0577 -0.2168  1.2004
  282MOL0     H37219   9.087   9.724   8.631  1.1049 -1.8020  1.5486
  282MOL0     H37220   9.250   9.638   8.516  0.0143  0.7383 -1.0284
  282MOL0     H37221   9.161   9.582   8.377 -2.3060  1.4886 -1.6082
  282MOL0     H37222   9.288  10.007   8.356 -2.0701  0.5744  0.4429
  282MOL0     H37223   8.913   9.399   8.226 -0.2704  0.6739  0.8428
  282MOL0     H37224   8.822   9.288   8.048 -0.3285  0.2735 -2.5560
  283MOL0     O37225   8.115   1.165   0.916  0.4586  0.0429  0.5447
  283MOL0     C37226   8.029   1.070   0.922 -0.5420 -0.7354  0.3738
  283MOL0     O37227   8.024   0.970   1.023  1.0113 -0.1105 -0.1642
  283MOL0     C37228   8.092   0.977   1.140  0.4939  0.0487 -0.5898
  283MOL0     C37229   8.224   1.008   1.152 -0.2066  0.1601 -0.3296
  283MOL0     C37230   8.286   1.011   1.281 -0.0662 -0.3515 -0.4155
  283MOL0     C37231   8.217   1.000   1.396  1.1977  0.4284  0.2707
  283MOL0     O37232   8.291   1.005   1.513 -0.0177  0.3266 -0.1962
  283MOL0     C37233   8.213   0.997   1.635 -0.2892 -0.5180 -0.8832
  283MOL0     C37234   8.311   0.971   1.751 -0.2062 -0.6642 -0.0821
  283MOL0     C37235   8.262   0.992   1.898 -0.9481 -0.1717  0.4588
  283MOL0     C37236   8.364   0.940   1.992 -0.8296 -0.5395 -0.3795
  283MOL0     C37237   8.340   0.928   2.144 -0.5453  0.4936  0.0946
  283MOL0     C37238   8.278   1.050   2.208  0.4254  0.2218  0.4029
  283MOL0     C37239   8.266   1.038   2.362  0.4193 -0.7869 -0.0443
  283MOL0     C37240   8.176   1.152   2.410  0.5531  0.4006 -0.3489
  283MOL0     N37241   8.035   1.127   2.374  0.0837 -0.1364 -0.4479
  283MOL0     C37242   7.976   1.005   2.355  0.0226  0.0883 -0.2687
  283MOL0     C37243   7.852   1.038   2.302 -0.4202  0.1098  0.7110
  283MOL0     C37244   7.751   0.949   2.243  0.8640  0.3493 -0.4650
  283MOL0     C37245   7.796   0.835   2.157  0.1384 -0.4081 -0.2663
  283MOL0     C37246   7.859   0.894   2.040  0.2296 -0.9524 -0.0401
  283MOL0     C37247   7.842   0.799   1.915 -0.4110  0.0982  0.0237
  283MOL0     O37248   7.908   0.670   1.934 -0.2754  0.4166  0.1675
  283MOL0     C37249   8.042   0.664   1.909  0.3000 -0.3140  0.5577
  283MOL0     C37250   8.124   0.638   2.016 -0.2883 -0.1480  0.5401
  283MOL0     C37251   8.256   0.603   1.978 -0.0647  0.0302 -0.3278
  283MOL0     C37252   8.301   0.601   1.843 -0.1639 -0.1610  0.0703
  283MOL0     C37253   8.434   0.550   1.803  0.0606 -0.3113  0.6092
  283MOL0     O37254   8.531   0.530   1.897 -0.0835 -0.8036  0.1135
  283MOL0     C37255   8.660   0.484   1.873  0.7660  0.6007  0.2755
  283MOL0     C37256   8.708   0.396   1.770  0.2337 -0.5661  0.3528
  283MOL0     C37257   8.848   0.376   1.749  0.1781 -0.4268  0.5169
  283MOL0     C37258   8.941   0.440   1.836 -0.5569 -0.1165  0.5580
  283MOL0     O37259   9.069   0.390   1.811 -0.1065 -0.8748 -0.2653
  283MOL0     C37260   9.183   0.417   1.889 -0.4211 -0.5639 -0.2157
  283MOL0     C37261   9.305   0.384   1.798  0.4231 -0.2987  0.9590
  283MOL0     C37262   9.440   0.379   1.872 -0.0109  0.0823  0.5890
  283MOL0     C37263   9.562   0.347   1.788  0.3251 -0.8619 -0.0931
  283MOL0     C37264   9.675   0.358   1.885  0.3948 -0.2644  0.2583
  283MOL0     C37265   9.810   0.352   1.812  0.2882  0.0658 -0.2674
  283MOL0     C37266   9.923   0.342   1.908 -0.0157  0.6223  0.0892
  283MOL0     C37267  10.052   0.395   1.849 -0.3149  0.0974  0.2888
  283MOL0    Cl37268  10.189   0.337   1.948 -0.0025  0.1956  0.1829
  283MOL0     C37269   8.892   0.517   1.941  0.4773  0.4375  0.5165
  283MOL0     C37270   8.756   0.532   1.965  0.6946  0.6063 -0.2378
  283MOL0     O37271   8.455   0.543   1.678  0.1288  0.1704  0.1492
  283MOL0     C37272   8.210   0.639   1.743 -0.8614 -0.7589 -0.0220
  283MOL0     C37273   8.079   0.667   1.779 -0.1622 -0.6701  0.9913
  283MOL0     N37274   7.840   1.177   2.297  0.6238 -0.3479 -0.1552
  283MOL0     N37275   7.952   1.229   2.338 -0.0779 -0.8742  0.3575
  283MOL0     C37276   8.079   0.978   1.392  0.8185  0.5704  0.4919
  283MOL0     C37277   8.018   0.965   1.262 -0.1384 -0.4134 -0.2230
  283MOL0     C37278   7.932   1.061   0.814 -0.0520 -0.2223  0.1406
  283MOL0     C37279   7.810   1.003   0.827 -0.3326  0.3417  0.4914
  283MOL0     C37280   7.714   1.036   0.721  0.0686 -0.4943 -0.4988
  283MOL0     C37281   7.754   1.088   0.596  0.2112 -0.0589  0.5847
  283MOL0     O37282   7.678   1.101   0.481  0.1014  0.5255  0.3369
  283MOL0     C37283   7.545   1.060   0.475  2.1769 -0.3242  0.1245
  283MOL0     C37284   7.489   1.068   0.337 -0.1498 -0.4864 -0.8984
  283MOL0     C37285   7.553   0.971   0.239  0.2356 -0.5126 -0.5160
  283MOL0     C37286   7.691   0.994   0.184 -0.0044 -1.0797  1.2579
  283MOL0     C37287   7.714   0.908   0.068 -1.2775  0.1534  0.5379
  283MOL0     C37288   7.731   0.834  -0.034  0.1241  0.2951  0.0911
  283MOL0     C37289   7.885   1.112   0.578 -0.2766  0.5010 -0.0595
  283MOL0     C37290   7.975   1.107   0.685 -0.2306  0.2566 -0.1875
  283MOL0     H37291   8.276   1.031   1.060  0.7350  1.2085  0.4391
  283MOL0     H37292   8.394   1.010   1.280 -0.0425 -1.8031 -2.4264
  283MOL0     H37293   8.150   0.908   1.625  0.6800 -1.3404 -0.0095
  283MOL0     H37294   8.156   1.087   1.658 -1.6095 -1.5750  0.1679
  283MOL0     H37295   8.396   1.038   1.732 -1.7113  1.0393 -1.1208
  283MOL0     H37296   8.342   0.866   1.752 -1.6085 -1.0934  0.8221
  283MOL0     H37297   8.164   0.943   1.897 -1.5782  0.9979 -1.8507
  283MOL0     H37298   8.252   1.100   1.917 -2.5340 -0.1779 -0.1847
  283MOL0     H37299   8.400   0.841   1.962  1.5195  0.7710 -2.2939
  283MOL0     H37300   8.455   0.999   1.984 -1.5289  0.2946 -4.7017
  283MOL0     H37301   8.439   0.915   2.188 -0.9172 -0.8041  0.5776
  283MOL0     H37302   8.276   0.840   2.149 -0.4493  0.2561 -1.9246
  283MOL0     H37303   8.182   1.062   2.156  0.8500 -1.8461 -0.9750
  283MOL0     H37304   8.336   1.138   2.177  2.6436 -0.4665  2.3238
  283MOL0     H37305   8.230   0.940   2.395  0.6704 -0.7476  0.3495
  283MOL0     H37306   8.366   1.048   2.406  1.2053 -0.8981 -1.7341
  283MOL0     H37307   8.211   1.242   2.358 -1.6169  2.1391  1.0005
  283MOL0     H37308   8.183   1.178   2.516  0.6966  0.5050 -0.3843
  283MOL0     H37309   8.020   0.907   2.370  2.5834  1.4766  2.3067
  283MOL0     H37310   7.685   1.018   2.189 -2.7112 -1.5366  1.1062
  283MOL0     H37311   7.680   0.906   2.315  1.6757 -0.2137  0.0138
  283MOL0     H37312   7.710   0.768   2.145 -1.0795  1.0570 -0.0453
  283MOL0     H37313   7.867   0.773   2.212 -1.4937 -3.1055 -0.9992
  283MOL0     H37314   7.814   0.993   2.025  0.6344 -0.2614  2.7477
  283MOL0     H37315   7.968   0.891   2.041  0.3530  0.3611  3.0118
  283MOL0     H37316   7.894   0.841   1.828  0.6030 -0.4510  0.3534
  283MOL0     H37317   7.735   0.793   1.894 -0.4996  0.4042  0.3723
  283MOL0     H37318   8.084   0.636   2.117  1.9192 -0.1669  1.4714
  283MOL0     H37319   8.328   0.573   2.054  1.5169 -1.9404 -2.4521
  283MOL0     H37320   8.643   0.350   1.696  0.7110 -1.2358  0.3408
  283MOL0     H37321   8.901   0.316   1.675  0.1512  0.7056 -0.4371
  283MOL0     H37322   9.185   0.343   1.970 -1.4707 -0.0359  0.3098
  283MOL0     H37323   9.187   0.523   1.915 -2.1590 -0.7837  1.1395
  283MOL0     H37324   9.314   0.467   1.727  0.9394 -0.3162  1.0043
  283MOL0     H37325   9.273   0.293   1.745 -1.3905 -0.9829  3.0681
  283MOL0     H37326   9.420   0.309   1.954  0.3454 -1.6558 -0.7486
  283MOL0     H37327   9.458   0.474   1.923 -1.1781  0.6998 -0.1030
  283MOL0     H37328   9.557   0.257   1.725  0.3808 -0.1817 -1.0947
  283MOL0     H37329   9.555   0.421   1.708  1.4592  0.5181  1.0196
  283MOL0     H37330   9.672   0.270   1.949  1.8691  0.8639  1.9705
  283MOL0     H37331   9.676   0.449   1.945  0.7427  0.7544 -1.2430
  283MOL0     H37332   9.812   0.446   1.755  1.5615  1.1733  1.5301
  283MOL0     H37333   9.821   0.261   1.752 -0.4947 -0.3876  0.2634
  283MOL0     H37334   9.899   0.389   2.004  1.0446 -1.7688  1.6517
  283MOL0     H37335   9.948   0.237   1.929  0.4846  0.7853  0.3421
  283MOL0     H37336  10.044   0.502   1.829  0.5561 -0.3302 -2.8950
  283MOL0     H37337  10.065   0.363   1.745  0.2382 -1.6454  0.8526
  283MOL0     H37338   8.968   0.561   2.005  0.2950  1.0753  0.3046
  283MOL0     H37339   8.722   0.589   2.051  1.7040  3.5421 -1.6560
  283MOL0     H37340   8.254   0.643   1.644  0.1167 -0.2363  0.4124
  283MOL0     H37341   8.008   0.704   1.706  0.2512 -2.9028 -0.6595
  283MOL0     H37342   8.009   0.967   1.474  0.0812  1.5286  0.0052
  283MOL0     H37343   7.914   0.932   1.262  0.0544 -1.0512 -0.1948
  283MOL0     H37344   7.770   0.957   0.917 -1.7147  0.8470  0.1584
  283MOL0     H37345   7.609   1.013   0.734 -0.0442 -0.4012 -1.1999
  283MOL0     H37346   7.496   1.136   0.537 -0.8823 -1.3662 -0.8255
  283MOL0     H37347   7.516   0.963   0.516 -0.0539 -0.2725 -1.1936
  283MOL0     H37348   7.382   1.049   0.333 -0.2970  0.0200  0.2081
  283MOL0     H37349   7.511   1.171   0.307  0.5377 -1.2477 -3.2683
  283MOL0     H37350   7.490   0.984   0.151 -1.4344 -0.4401  0.6576
  283MOL0     H37351   7.558   0.871   0.282  0.5599 -0.3842 -0.2552
  283MOL0     H37352   7.685   1.098   0.152 -1.4086 -1.5630 -0.1438
  283MOL0     H37353   7.765   0.978   0.264  2.0231  0.9283 -0.1010
  283MOL0     H37354   7.746   0.774  -0.122 -1.3982  0.4940 -0.3389
  283MOL0     H37355   7.920   1.140   0.479 -0.2488  3.1997  0.6139
  283MOL0     H37356   8.076   1.142   0.669 -0.4669  0.1065 -2.2748
  284MOL0     O37357   4.276   1.960   9.584  0.0071 -0.3373 -0.0566
  284MOL0     C37358   4.273   2.085   9.611  0.3046  0.5390 -0.1799
  284MOL0     O37359   4.158   2.155   9.645 -1.0017 -0.0755  0.9594
  284MOL0     C37360   4.038   2.087   9.653 -1.1344  0.7968 -0.6244
  284MOL0     C37361   4.014   2.010   9.769  0.2931 -0.1677  0.4660
  284MOL0     C37362   3.891   1.945   9.779 -0.4511  0.3425  0.0783
  284MOL0     C37363   3.788   1.968   9.691  0.7810 -0.5865  0.2093
  284MOL0     O37364   3.660   1.927   9.707  0.1041  0.3935  0.3034
  284MOL0     C37365   3.622   1.854   9.821 -0.6256 -0.2020 -1.0021
  284MOL0     C37366   3.491   1.777   9.784 -0.5316 -0.1203 -0.2536
  284MOL0     C37367   3.423   1.721   9.914  0.4109 -0.2827 -0.2452
  284MOL0     C37368   3.293   1.648   9.876  0.7505  0.4501 -0.1332
  284MOL0     C37369   3.226   1.558   9.984  0.4668  0.0581  0.0716
  284MOL0     C37370   3.104   1.477   9.923 -0.2671 -1.5506  0.8445
  284MOL0     C37371   2.988   1.567   9.864  0.1010  0.5564  0.7302
  284MOL0     C37372   2.868   1.473   9.828 -0.4532 -0.5216 -0.2648
  284MOL0     N37373   2.811   1.395   9.943 -0.4818  0.0437  0.1541
  284MOL0     C37374   2.835   1.263   9.972 -0.3606 -0.1583 -0.1216
  284MOL0     C37375   2.762   1.239  10.078 -0.3920 -0.7017  1.3526
  284MOL0     C37376   2.778   1.111  10.155 -0.3005  1.0560 -0.6247
  284MOL0     C37377   2.729   0.990  10.072  0.0412 -0.3540 -0.7314
  284MOL0     C37378   2.698   0.866  10.153  0.0833  0.3490 -0.9083
  284MOL0     C37379   2.697   0.742  10.062 -0.0822  0.4625  0.1769
  284MOL0     O37380   2.598   0.754   9.963  0.2685  0.2762  0.0405
  284MOL0     C37381   2.474   0.710   9.990 -0.2949  0.3289 -0.3906
  284MOL0     C37382   2.392   0.689   9.877  0.0689  0.4881  0.0395
  284MOL0     C37383   2.255   0.654   9.889  0.0125 -0.0322  0.4964
  284MOL0     C37384   2.202   0.626  10.019 -0.5290 -0.7794  0.0722
  284MOL0     C37385   2.060   0.598  10.023  1.2184 -0.7666  0.2614
  284MOL0     O37386   1.993   0.613   9.912  0.1542  0.2348  0.2784
  284MOL0     C37387   1.863   0.564   9.885 -0.2677 -0.3626 -0.4011
  284MOL0     C37388   1.778   0.646   9.806  0.0394 -0.5620  0.1067
  284MOL0     C37389   1.640   0.614   9.802  0.2717  0.0686 -0.1053
  284MOL0     C37390   1.595   0.498   9.862  1.5044 -0.1320 -0.7221
  284MOL0     O37391   1.459   0.476   9.877  0.2268 -0.3680 -0.6895
  284MOL0     C37392   1.399   0.401   9.765 -0.0755 -0.3546  0.0185
  284MOL0     C37393   1.320   0.506   9.688 -0.5153 -0.3315  0.0716
  284MOL0     C37394   1.249   0.460   9.555  0.1914  0.7696 -0.2013
  284MOL0     C37395   1.146   0.345   9.581 -0.7658 -0.2065 -0.0855
  284MOL0     C37396   1.051   0.322   9.465 -0.3650  0.1837  0.5052
  284MOL0     C37397   0.980   0.191   9.464 -0.6318  0.7767 -0.0558
  284MOL0     C37398   0.901   0.152   9.349  0.3165  0.7502 -0.3286
  284MOL0     C37399   0.989   0.103   9.238 -0.8447 -0.3620 -0.1909
  284MOL0    Cl37400   0.924  -0.051   9.176 -0.2991  0.5067  0.1641
  284MOL0     C37401   1.681   0.412   9.920  0.0064  0.1018  0.1450
  284MOL0     C37402   1.809   0.446   9.936 -1.6878  0.5560  1.0081
  284MOL0     O37403   2.013   0.568  10.130 -0.2945  0.1781 -0.1684
  284MOL0     C37404   2.287   0.632  10.122 -0.3904  0.0265 -0.4469
  284MOL0     C37405   2.413   0.686  10.117 -0.6311 -0.3716  0.0303
  284MOL0     N37406   2.688   1.352  10.121  0.2074 -0.1522 -0.0184
  284MOL0     N37407   2.724   1.443  10.037 -0.6518  0.9214 -0.0499
  284MOL0     C37408   3.819   2.045   9.573  0.5831  0.6333 -0.0350
  284MOL0     C37409   3.945   2.103   9.557 -1.0188 -0.0375  0.3136
  284MOL0     C37410   4.402   2.162   9.590 -0.6026  0.5843 -0.1967
  284MOL0     C37411   4.519   2.107   9.539  0.0691  1.2533 -0.0874
  284MOL0     C37412   4.636   2.177   9.548 -0.1608 -1.2912 -0.3484
  284MOL0     C37413   4.646   2.316   9.587  1.0130  0.1166  0.0875
  284MOL0     O37414   4.751   2.403   9.582 -0.0279  0.4269  0.0614
  284MOL0     C37415   4.886   2.357   9.568  0.7352 -0.1440  0.5747
  284MOL0     C37416   4.984   2.474   9.560 -0.0219 -0.5229  0.5417
  284MOL0     C37417   5.125   2.423   9.546  0.6575 -0.0926  1.7216
  284MOL0     C37418   5.170   2.419   9.392 -1.0306  0.2864 -1.0607
  284MOL0     C37419   5.192   2.549   9.328  0.1988  0.0329  0.7939
  284MOL0     C37420   5.197   2.662   9.274  0.7671  0.2303 -0.3391
  284MOL0     C37421   4.525   2.372   9.630  1.2862 -0.5534  0.2822
  284MOL0     C37422   4.404   2.294   9.628 -0.3861 -0.2038  0.9107
  284MOL0     H37423   4.087   1.981   9.844 -0.9395 -4.2249  0.3456
  284MOL0     H37424   3.873   1.882   9.865 -4.3993 -0.2064 -0.9222
  284MOL0     H37425   3.607   1.923   9.904  3.9035 -1.1163  0.8477
  284MOL0     H37426   3.704   1.788   9.849 -1.4207 -0.5508  0.6018
  284MOL0     H37427   3.512   1.697   9.713  3.5706 -0.2450  0.8360
  284MOL0     H37428   3.415   1.839   9.734  0.7048  2.9107  1.3692
  284MOL0     H37429   3.404   1.804   9.983 -0.9467  1.0023 -2.0388
  284MOL0     H37430   3.490   1.653   9.967 -2.2363 -1.1119  2.3213
  284MOL0     H37431   3.219   1.720   9.840 -2.7574 -2.8522 -0.1302
  284MOL0     H37432   3.326   1.585   9.792  1.6961 -0.3091  0.7707
  284MOL0     H37433   3.187   1.622  10.064 -1.4195 -0.6993 -0.1885
  284MOL0     H37434   3.299   1.493  10.033 -1.4403  0.1001  3.2839
  284MOL0     H37435   3.062   1.407   9.996 -1.1261 -0.0091  1.8838
  284MOL0     H37436   3.143   1.422   9.837  3.5291  2.5412 -0.4240
  284MOL0     H37437   2.960   1.656   9.922 -0.0264  0.2154  1.2021
  284MOL0     H37438   3.021   1.612   9.770 -1.6282  1.7292  0.6345
  284MOL0     H37439   2.889   1.391   9.758  0.5758 -1.0839  0.6688
  284MOL0     H37440   2.800   1.548   9.788  1.4308  1.2734 -0.2807
  284MOL0     H37441   2.909   1.200   9.924 -0.8805 -1.2808  0.4987
  284MOL0     H37442   2.704   1.120  10.235 -1.6741  1.1458 -1.8753
  284MOL0     H37443   2.877   1.080  10.189 -1.9307 -1.5980  2.2245
  284MOL0     H37444   2.812   0.971  10.004  0.4879 -0.3741 -0.1872
  284MOL0     H37445   2.645   1.013  10.006  0.3446  1.4968 -0.5228
  284MOL0     H37446   2.760   0.861  10.242 -0.9062 -1.6681 -0.2719
  284MOL0     H37447   2.594   0.879  10.184 -0.1341 -1.0178 -0.9873
  284MOL0     H37448   2.683   0.654  10.126 -0.5987 -0.2829 -0.9321
  284MOL0     H37449   2.795   0.743  10.013 -1.0707  2.2844 -1.9407
  284MOL0     H37450   2.437   0.701   9.778  0.1446 -1.7632 -0.2518
  284MOL0     H37451   2.187   0.650   9.804 -2.2568  0.9228  2.1655
  284MOL0     H37452   1.832   0.732   9.767 -0.5290 -0.6834 -0.9942
  284MOL0     H37453   1.559   0.679   9.771  0.4757  0.1070 -0.5762
  284MOL0     H37454   1.336   0.316   9.794  1.1086 -1.0189  0.7231
  284MOL0     H37455   1.470   0.352   9.698 -0.8414 -0.8297 -0.4578
  284MOL0     H37456   1.380   0.587   9.647 -0.0368  0.3102  1.9346
  284MOL0     H37457   1.252   0.540   9.767  2.3630 -0.9067  3.0555
  284MOL0     H37458   1.321   0.424   9.481  0.2347  1.9479 -0.7505
  284MOL0     H37459   1.192   0.541   9.509 -1.2621 -1.1869 -2.0788
  284MOL0     H37460   1.196   0.252   9.606  0.1273 -0.0790 -1.2970
  284MOL0     H37461   1.078   0.374   9.661  0.7171  1.5173  0.6113
  284MOL0     H37462   1.107   0.329   9.371 -0.4612  0.0490  0.4373
  284MOL0     H37463   0.992   0.413   9.452 -1.0863 -0.2562  0.6670
  284MOL0     H37464   0.911   0.179   9.548 -2.5091 -2.6507 -1.8746
  284MOL0     H37465   1.049   0.107   9.479 -1.2993  0.3372  0.6335
  284MOL0     H37466   0.832   0.070   9.367 -1.0764  1.0465 -3.7122
  284MOL0     H37467   0.846   0.241   9.318 -1.7287  0.0091  0.9903
  284MOL0     H37468   1.089   0.077   9.274 -1.0787 -2.1310 -0.7537
  284MOL0     H37469   0.981   0.180   9.161  3.0186  0.1260 -0.2814
  284MOL0     H37470   1.637   0.321   9.960 -2.8684  1.2372 -0.2498
  284MOL0     H37471   1.882   0.398  10.001 -0.8636  0.4403  0.0218
  284MOL0     H37472   2.245   0.616  10.221  1.4518  0.4282  0.4282
  284MOL0     H37473   2.470   0.705  10.208  2.1175 -3.3884 -0.8906
  284MOL0     H37474   3.740   2.064   9.500  1.4371  1.5851 -0.7458
  284MOL0     H37475   3.991   2.159   9.476  4.5540 -0.8518  2.4861
  284MOL0     H37476   4.526   2.006   9.500 -1.6603  1.3112 -0.6017
  284MOL0     H37477   4.728   2.128   9.517  0.1504  0.6819 -2.8880
  284MOL0     H37478   4.890   2.300   9.475 -2.0192  1.8856 -0.9466
  284MOL0     H37479   4.913   2.293   9.653  0.5728 -2.3041 -0.9142
  284MOL0     H37480   4.943   2.529   9.475  1.0939 -2.1812 -1.1409
  284MOL0     H37481   4.968   2.540   9.646  1.9984  0.5873  0.1397
  284MOL0     H37482   5.131   2.326   9.597  3.6629 -1.0101 -0.1604
  284MOL0     H37483   5.191   2.490   9.602  0.8441  0.3526  0.9816
  284MOL0     H37484   5.269   2.373   9.395 -1.4060 -0.4984  0.2651
  284MOL0     H37485   5.110   2.370   9.316 -0.2914  0.9319 -2.0878
  284MOL0     H37486   5.202   2.760   9.232 -2.0863 -0.3898 -2.4066
  284MOL0     H37487   4.519   2.475   9.661  2.7343 -0.7644  1.3817
  284MOL0     H37488   4.310   2.344   9.649 -2.2881 -2.6602 -1.1148
  285MOL0     O37489   8.874   8.007   3.351 -0.1901 -0.8388 -0.6040
  285MOL0     C37490   8.834   8.127   3.347 -0.1654 -0.1549  0.1217
  285MOL0     O37491   8.912   8.234   3.325 -0.1765 -0.1377 -0.6654
  285MOL0     C37492   9.029   8.215   3.254  0.1489 -0.4464 -0.1672
  285MOL0     C37493   9.147   8.247   3.326  0.0861 -0.1772  0.2036
  285MOL0     C37494   9.269   8.237   3.251 -0.0709 -0.4152 -0.2641
  285MOL0     C37495   9.271   8.192   3.114  0.4737  0.1187 -0.0172
  285MOL0     O37496   9.393   8.165   3.049  0.3483 -0.4249  0.2544
  285MOL0     C37497   9.503   8.248   3.093 -0.4012 -0.8060 -0.0716
  285MOL0     C37498   9.599   8.248   2.974 -0.1717  0.4722 -0.0142
  285MOL0     C37499   9.717   8.344   3.006  0.0100 -0.4493  0.5706
  285MOL0     C37500   9.813   8.334   2.886 -0.1356  0.0598 -0.5289
  285MOL0     C37501   9.927   8.437   2.900  0.1755 -0.6818  0.1889
  285MOL0     C37502  10.027   8.411   2.793 -0.3558 -0.4214 -0.6159
  285MOL0     C37503  10.116   8.290   2.825  0.5592 -0.1865  0.2010
  285MOL0     C37504  10.234   8.289   2.731  0.2224  0.0887  0.0274
  285MOL0     N37505  10.345   8.216   2.783 -0.2822 -0.1259 -0.1491
  285MOL0     C37506  10.364   8.077   2.796 -0.4965  0.0164  0.5734
  285MOL0     C37507  10.487   8.055   2.854 -0.4238  0.2244 -1.1873
  285MOL0     C37508  10.545   7.927   2.894  0.3272  0.5849  0.1468
  285MOL0     C37509  10.607   7.930   3.032 -0.3802 -0.2292 -0.6322
  285MOL0     C37510  10.754   7.985   3.014  0.0587 -0.5159 -0.3024
  285MOL0     C37511  10.847   7.943   3.132 -0.3935  0.5071  0.8342
  285MOL0     O37512  10.873   7.803   3.110  0.4303 -0.6197  0.4590
  285MOL0     C37513  10.974   7.747   3.193  0.0339 -0.3871 -1.0196
  285MOL0     C37514  10.971   7.762   3.337 -0.6479  0.5506 -0.3924
  285MOL0     C37515  11.070   7.691   3.409  0.5355  0.5143  0.5683
  285MOL0     C37516  11.158   7.606   3.337 -0.6260  0.2242  0.4062
  285MOL0     C37517  11.259   7.535   3.416 -0.4569  0.4832 -0.6748
  285MOL0     O37518  11.250   7.553   3.554 -0.6188 -1.3723 -0.1461
  285MOL0     C37519  11.350   7.499   3.636 -0.0871  0.2503 -1.0169
  285MOL0     C37520  11.438   7.582   3.700  0.4698  0.6047 -0.2726
  285MOL0     C37521  11.530   7.528   3.793 -0.0018  0.3599 -0.8942
  285MOL0     C37522  11.532   7.390   3.820 -0.2248  0.0443 -0.1746
  285MOL0     O37523  11.610   7.345   3.921  0.0298 -1.0907 -0.0885
  285MOL0     C37524  11.592   7.220   3.981 -0.3291 -0.0831 -0.0257
  285MOL0     C37525  11.722   7.181   4.058 -0.3460  0.5235 -0.2550
  285MOL0     C37526  11.714   7.060   4.152 -0.3067 -1.3343  0.0227
  285MOL0     C37527  11.846   7.022   4.228  0.0031  0.3081  0.1146
  285MOL0     C37528  11.844   6.891   4.311 -0.2532  0.4663  0.8123
  285MOL0     C37529  11.800   6.913   4.458  0.0232 -0.1952 -0.0551
  285MOL0     C37530  11.795   6.784   4.522 -0.5865 -0.3156  0.1876
  285MOL0     C37531  11.748   6.784   4.665  0.0539  1.0219  0.1450
  285MOL0    Cl37532  11.860   6.850   4.778 -0.5017 -0.2691  0.3652
  285MOL0     C37533  11.437   7.306   3.756 -0.0721  0.6387  0.5546
  285MOL0     C37534  11.350   7.358   3.658 -0.0936  0.6059  0.4716
  285MOL0     O37535  11.344   7.471   3.357 -0.2672 -0.2524  0.3846
  285MOL0     C37536  11.161   7.600   3.200  0.0399  0.1019  0.1004
  285MOL0     C37537  11.068   7.667   3.131  0.4497 -0.2687 -0.0596
  285MOL0     N37538  10.537   8.180   2.871  0.0886 -0.9626  0.5492
  285MOL0     N37539  10.459   8.277   2.829  0.1182  0.0176 -0.3628
  285MOL0     C37540   9.148   8.162   3.045 -0.3888 -0.0668 -0.2360
  285MOL0     C37541   9.030   8.168   3.122  0.1818 -0.0125 -0.1842
  285MOL0     C37542   8.698   8.157   3.381 -0.4596 -0.0169  0.1074
  285MOL0     C37543   8.656   8.286   3.392  0.8831  0.0347 -0.4392
  285MOL0     C37544   8.522   8.304   3.436 -0.5396 -0.3624 -0.0770
  285MOL0     C37545   8.436   8.197   3.468 -0.4255 -0.1930 -0.0753
  285MOL0     O37546   8.327   8.216   3.544 -0.9254 -0.0048 -0.2775
  285MOL0     C37547   8.273   8.347   3.557  0.2858  0.2835 -0.4646
  285MOL0     C37548   8.218   8.404   3.425  0.0700  0.1243 -0.0812
  285MOL0     C37549   8.087   8.333   3.389 -0.0419  0.2974  0.9274
  285MOL0     C37550   8.031   8.377   3.256  0.1384 -0.3017  0.6124
  285MOL0     C37551   7.971   8.507   3.264  0.6212  0.3538  0.0936
  285MOL0     C37552   7.937   8.624   3.273  0.0103  0.2144  0.2789
  285MOL0     C37553   8.482   8.073   3.433  0.3018  0.0781  0.2933
  285MOL0     C37554   8.612   8.051   3.382 -0.3262 -0.2339 -0.3583
  285MOL0     H37555   9.140   8.261   3.433 -2.5521  0.0867  0.0664
  285MOL0     H37556   9.357   8.253   3.312 -1.2230 -0.9984  1.6297
  285MOL0     H37557   9.563   8.216   3.179 -0.2166  3.9106  1.8838
  285MOL0     H37558   9.456   8.343   3.121 -0.2076 -0.4769 -0.8532
  285MOL0     H37559   9.533   8.279   2.893 -1.0619 -2.0838 -0.3424
  285MOL0     H37560   9.634   8.147   2.955 -1.1983 -0.0357  0.6607
  285MOL0     H37561   9.754   8.309   3.103 -2.6587  0.9473  2.2283
  285MOL0     H37562   9.668   8.441   3.021  0.5857  0.0245 -0.5031
  285MOL0     H37563   9.856   8.233   2.889 -1.2616 -0.5531 -2.5207
  285MOL0     H37564   9.756   8.348   2.793 -0.7291 -1.2017 -0.3716
  285MOL0     H37565   9.971   8.459   2.997 -0.7601  3.9648 -0.1957
  285MOL0     H37566   9.880   8.532   2.874 -1.4310 -1.6002 -0.3865
  285MOL0     H37567  10.089   8.497   2.766  1.9561 -1.3918  1.2623
  285MOL0     H37568   9.962   8.390   2.708  0.0845  1.6599 -1.5137
  285MOL0     H37569  10.144   8.291   2.930 -0.6019 -1.6848  0.5656
  285MOL0     H37570  10.053   8.201   2.812 -1.5939  1.2075  0.5885
  285MOL0     H37571  10.270   8.389   2.704 -1.1014 -0.0012 -2.2861
  285MOL0     H37572  10.204   8.243   2.636  1.5857 -0.9250  0.0478
  285MOL0     H37573  10.287   8.004   2.773 -1.6930  1.7530 -1.2740
  285MOL0     H37574  10.612   7.899   2.812 -0.7909  0.7408 -0.8645
  285MOL0     H37575  10.471   7.847   2.901 -0.8398  1.8104  3.4597
  285MOL0     H37576  10.606   7.824   3.058  1.2203 -0.5628 -1.7280
  285MOL0     H37577  10.552   8.003   3.093 -1.0246  1.6343 -3.2515
  285MOL0     H37578  10.793   7.951   2.917  1.0892  0.9417 -0.4337
  285MOL0     H37579  10.747   8.094   3.011 -1.5479 -0.6239 -1.2019
  285MOL0     H37580  10.798   7.977   3.224  0.4386 -1.5559  2.1267
  285MOL0     H37581  10.945   7.990   3.119  0.6216 -1.3790  1.1863
  285MOL0     H37582  10.906   7.834   3.387 -1.0317 -0.3981  0.4954
  285MOL0     H37583  11.079   7.688   3.517  1.5896 -0.9986  0.4626
  285MOL0     H37584  11.446   7.688   3.680  2.7643  0.4739 -0.3776
  285MOL0     H37585  11.592   7.599   3.847  0.5236  0.2509 -1.3472
  285MOL0     H37586  11.564   7.132   3.921  0.6274 -1.0090  0.8240
  285MOL0     H37587  11.512   7.231   4.053  1.1699  0.8680  1.5719
  285MOL0     H37588  11.769   7.268   4.106  1.3009  0.9064 -2.4186
  285MOL0     H37589  11.800   7.158   3.985 -0.7082  0.6922 -0.6976
  285MOL0     H37590  11.681   6.980   4.086  0.3800 -0.2688 -1.6779
  285MOL0     H37591  11.632   7.073   4.223 -0.5165  1.8483 -0.6573
  285MOL0     H37592  11.914   6.997   4.147 -3.3626 -1.8156 -2.3190
  285MOL0     H37593  11.891   7.107   4.280  1.6318  0.0157 -0.7585
  285MOL0     H37594  11.951   6.867   4.314 -0.0624  1.2346  0.3516
  285MOL0     H37595  11.780   6.815   4.265 -0.4505 -0.6220  2.7899
  285MOL0     H37596  11.699   6.953   4.470  0.8945  1.5229  2.3227
  285MOL0     H37597  11.863   6.984   4.512  1.7853 -0.9256 -1.0673
  285MOL0     H37598  11.727   6.729   4.456  2.1138  1.8145 -4.9363
  285MOL0     H37599  11.892   6.733   4.510  1.2073  3.3346 -2.6644
  285MOL0     H37600  11.733   6.678   4.688 -0.1394  0.3435 -2.6774
  285MOL0     H37601  11.654   6.839   4.671 -1.1515 -1.0714  2.3446
  285MOL0     H37602  11.430   7.200   3.774 -1.1694  0.9166  1.9968
  285MOL0     H37603  11.274   7.297   3.611  0.4270 -0.7545  1.3300
  285MOL0     H37604  11.226   7.531   3.147 -0.5781  0.9646 -1.8953
  285MOL0     H37605  11.046   7.655   3.025 -2.1519  0.5430  0.2996
  285MOL0     H37606   9.150   8.138   2.940 -0.3684 -1.6972  0.1132
  285MOL0     H37607   8.941   8.127   3.075  0.3530 -0.4765 -0.1022
  285MOL0     H37608   8.717   8.372   3.368 -1.7033  2.5219  1.2711
  285MOL0     H37609   8.489   8.407   3.448 -1.7041 -0.9499  2.1733
  285MOL0     H37610   8.342   8.423   3.594  0.0056 -0.1187  0.9140
  285MOL0     H37611   8.186   8.332   3.621  0.5191 -1.8414 -0.5871
  285MOL0     H37612   8.188   8.503   3.460  2.2087  0.8102 -0.0732
  285MOL0     H37613   8.283   8.411   3.338  0.9541  0.5380  0.6026
  285MOL0     H37614   8.004   8.323   3.460 -0.1683 -0.5715  0.6779
  285MOL0     H37615   8.120   8.230   3.371  0.7521  0.9158 -1.5402
  285MOL0     H37616   8.114   8.376   3.184  1.9397 -3.3167  2.5434
  285MOL0     H37617   7.958   8.304   3.220  1.9127 -0.9232 -2.0811
  285MOL0     H37618   7.906   8.724   3.297  1.0973  1.0054 -1.4341
  285MOL0     H37619   8.426   7.985   3.465  0.0108  0.2170  0.1785
  285MOL0     H37620   8.637   7.946   3.368  1.2917 -0.2030  1.8348
  286MOL0     O37621   5.794   3.630   0.314 -0.2375 -0.1386 -0.2871
  286MOL0     C37622   5.859   3.530   0.336  0.0773 -0.2734  0.3142
  286MOL0     O37623   5.803   3.410   0.365 -0.5418  0.1753 -0.0599
  286MOL0     C37624   5.664   3.397   0.362 -0.7240 -0.1781  0.1846
  286MOL0     C37625   5.589   3.320   0.265 -0.3137  0.7165 -0.1343
  286MOL0     C37626   5.459   3.288   0.293 -0.9110  0.0292 -0.6335
  286MOL0     C37627   5.390   3.341   0.408  0.5123 -0.2278  0.1002
  286MOL0     O37628   5.270   3.295   0.422  0.0728 -0.2921 -0.1346
  286MOL0     C37629   5.215   3.318   0.554  0.3387 -0.0547  0.4814
  286MOL0     C37630   5.093   3.234   0.547  0.5718  0.1646 -0.2584
  286MOL0     C37631   4.999   3.234   0.672 -1.3379  0.2168  0.3310
  286MOL0     C37632   4.861   3.166   0.653  0.3697 -1.1233  0.1093
  286MOL0     C37633   4.747   3.256   0.584  0.6688 -0.4518 -0.3150
  286MOL0     C37634   4.682   3.351   0.694 -1.0097 -0.4621  0.9504
  286MOL0     C37635   4.592   3.460   0.639  0.0919  0.7913 -0.0240
  286MOL0     C37636   4.507   3.522   0.747 -0.1445  1.0050 -0.3656
  286MOL0     N37637   4.430   3.425   0.820 -0.0225 -0.1063  0.0087
  286MOL0     C37638   4.341   3.342   0.760 -0.0154 -0.2701  0.3399
  286MOL0     C37639   4.302   3.262   0.856  0.3655  0.1013  0.1428
  286MOL0     C37640   4.215   3.144   0.835 -0.2469 -0.1961  0.6468
  286MOL0     C37641   4.062   3.174   0.842  0.3483 -0.9590  0.6195
  286MOL0     C37642   4.011   3.224   0.984 -0.5572 -0.2672  0.1541
  286MOL0     C37643   3.862   3.250   0.989 -0.4675 -0.0845  0.2557
  286MOL0     O37644   3.832   3.309   1.117  0.2673 -0.0726  0.2301
  286MOL0     C37645   3.702   3.294   1.159  0.3626  0.0841 -0.1360
  286MOL0     C37646   3.673   3.297   1.295 -0.4546 -0.0010 -0.3959
  286MOL0     C37647   3.550   3.278   1.352  0.6895  0.0262 -0.3630
  286MOL0     C37648   3.442   3.259   1.266  0.0628 -0.2119 -1.0044
  286MOL0     C37649   3.302   3.229   1.316 -0.5349 -0.1960  0.2245
  286MOL0     O37650   3.275   3.246   1.440 -0.9070  0.8033  0.3506
  286MOL0     C37651   3.151   3.214   1.481  0.4804  0.6902  0.3883
  286MOL0     C37652   3.137   3.095   1.541  0.4704 -0.5816  0.7852
  286MOL0     C37653   3.013   3.065   1.596  0.9697 -0.2320 -0.4176
  286MOL0     C37654   2.902   3.142   1.561 -0.1034 -0.1912 -0.2327
  286MOL0     O37655   2.784   3.091   1.603 -0.2185  0.4637  0.7003
  286MOL0     C37656   2.670   3.146   1.549  0.4626 -0.2830  0.0444
  286MOL0     C37657   2.551   3.052   1.550 -0.7115  0.6462  1.0877
  286MOL0     C37658   2.435   3.128   1.494  0.6302 -0.1259  0.3533
  286MOL0     C37659   2.333   3.159   1.600 -0.1228 -0.7037 -0.8077
  286MOL0     C37660   2.213   3.245   1.548 -0.1375 -0.0304 -0.5242
  286MOL0     C37661   2.133   3.186   1.437  0.7856  0.1446  0.0877
  286MOL0     C37662   2.007   3.277   1.412 -0.0534  0.7649  0.6714
  286MOL0     C37663   1.900   3.200   1.330  0.0579 -0.0862  0.3043
  286MOL0    Cl37664   1.832   3.088   1.434 -0.0123 -0.3121 -0.0346
  286MOL0     C37665   2.922   3.262   1.489 -0.4505  0.0650 -0.4773
  286MOL0     C37666   3.051   3.299   1.451  0.6531 -0.1692 -0.9451
  286MOL0     O37667   3.222   3.192   1.231 -0.2127  0.1438 -0.5985
  286MOL0     C37668   3.469   3.254   1.122  0.8768 -0.1843 -0.0519
  286MOL0     C37669   3.597   3.276   1.078 -0.1763 -0.6267 -0.2150
  286MOL0     N37670   4.353   3.295   0.973  0.0130 -0.4077  0.5879
  286MOL0     N37671   4.434   3.391   0.952 -0.4932 -0.4045 -0.3471
  286MOL0     C37672   5.456   3.440   0.484 -0.3759 -0.1169  0.0599
  286MOL0     C37673   5.594   3.457   0.468 -0.9291  0.4469  0.9299
  286MOL0     C37674   6.008   3.528   0.329  0.2289 -0.0249  0.0590
  286MOL0     C37675   6.078   3.408   0.352  0.0574 -0.4286 -0.2719
  286MOL0     C37676   6.216   3.401   0.344 -0.4213  0.5452 -0.3737
  286MOL0     C37677   6.286   3.511   0.303  0.2137 -0.0397  0.0569
  286MOL0     O37678   6.423   3.509   0.313  0.4005  0.0958  0.1745
  286MOL0     C37679   6.514   3.577   0.222  0.6860 -0.0096  0.4050
  286MOL0     C37680   6.489   3.547   0.072  0.5786 -0.0147  0.4651
  286MOL0     C37681   6.493   3.396   0.038  0.3726 -0.0214 -0.3583
  286MOL0     C37682   6.508   3.365  -0.113  0.1837 -0.0739  0.1417
  286MOL0     C37683   6.381   3.363  -0.185 -0.1388  0.2740  0.3445
  286MOL0     C37684   6.282   3.332  -0.248 -0.3514  0.2921  0.2139
  286MOL0     C37685   6.219   3.631   0.284 -0.6109  0.3825  0.6723
  286MOL0     C37686   6.084   3.639   0.303 -0.7538 -0.5260  0.2542
  286MOL0     H37687   5.640   3.259   0.191 -3.1139 -0.4700 -1.2503
  286MOL0     H37688   5.414   3.218   0.223 -2.0015 -1.1192  1.1337
  286MOL0     H37689   5.186   3.423   0.564  1.7037  0.4870 -0.8663
  286MOL0     H37690   5.294   3.291   0.624  2.5822  3.3314 -0.5383
  286MOL0     H37691   5.121   3.129   0.547  1.4285  0.3355  2.2937
  286MOL0     H37692   5.031   3.245   0.457 -4.3952 -0.2492  2.6937
  286MOL0     H37693   4.987   3.337   0.706  1.8198  1.5158 -2.0721
  286MOL0     H37694   5.042   3.173   0.752  0.3149  2.7398  1.4892
  286MOL0     H37695   4.879   3.076   0.593 -0.2142 -1.7763  0.8990
  286MOL0     H37696   4.826   3.139   0.753 -0.5387  1.0429  0.4146
  286MOL0     H37697   4.672   3.187   0.546 -0.0747 -0.1385  0.5644
  286MOL0     H37698   4.790   3.314   0.502  0.9903  2.8521  2.0045
  286MOL0     H37699   4.762   3.390   0.756  1.8665 -0.6097 -2.3460
  286MOL0     H37700   4.625   3.277   0.751  1.1773 -1.6595  1.6640
  286MOL0     H37701   4.659   3.536   0.600 -0.2824  0.8224 -0.6104
  286MOL0     H37702   4.535   3.418   0.556  2.3762 -0.6508 -0.9441
  286MOL0     H37703   4.437   3.603   0.722 -2.4546 -0.3804  1.1163
  286MOL0     H37704   4.566   3.566   0.828 -2.4841 -1.8870  3.2492
  286MOL0     H37705   4.302   3.344   0.659  0.1145  1.3592  0.2889
  286MOL0     H37706   4.256   3.072   0.907 -0.0284 -0.5973  0.1226
  286MOL0     H37707   4.247   3.095   0.743  1.3676  3.1387 -0.7290
  286MOL0     H37708   4.013   3.083   0.807 -2.4857  0.4832  0.5326
  286MOL0     H37709   4.037   3.258   0.777 -1.1511 -1.3271  0.6800
  286MOL0     H37710   4.034   3.135   1.043 -0.5944 -0.4419 -0.0923
  286MOL0     H37711   4.067   3.311   1.020 -1.7851 -0.3973  2.6162
  286MOL0     H37712   3.820   3.149   0.982  1.4159 -0.9233  0.5563
  286MOL0     H37713   3.837   3.315   0.904 -0.4538 -0.3563  0.0426
  286MOL0     H37714   3.761   3.320   1.355 -0.6656 -1.5404  0.5636
  286MOL0     H37715   3.536   3.290   1.459 -0.1994  3.0300 -0.7230
  286MOL0     H37716   3.225   3.034   1.560  2.2505  0.6481 -2.6802
  286MOL0     H37717   2.999   2.978   1.660  1.3877  1.0346  1.5008
  286MOL0     H37718   2.695   3.185   1.450 -3.2201 -0.0929 -0.9569
  286MOL0     H37719   2.640   3.236   1.604 -1.0386 -0.0400 -1.1272
  286MOL0     H37720   2.523   3.008   1.646 -1.2318 -1.0692  0.1980
  286MOL0     H37721   2.580   2.972   1.481  0.4957  0.4455  1.7793
  286MOL0     H37722   2.385   3.069   1.417  0.9859 -0.4232  0.3441
  286MOL0     H37723   2.475   3.213   1.438 -0.5073 -2.3797 -4.2935
  286MOL0     H37724   2.301   3.071   1.657  0.3140  0.4205  1.2745
  286MOL0     H37725   2.388   3.217   1.675  1.2121  0.3901 -2.5295
  286MOL0     H37726   2.251   3.344   1.520  3.0040 -0.6279  1.1161
  286MOL0     H37727   2.146   3.262   1.632  1.1312 -2.0975  1.0067
  286MOL0     H37728   2.102   3.084   1.457 -1.7712 -0.2211 -4.5102
  286MOL0     H37729   2.193   3.192   1.346 -0.7955  1.0707 -0.9316
  286MOL0     H37730   1.950   3.301   1.502  0.4766 -2.3656  1.9790
  286MOL0     H37731   2.051   3.361   1.356 -1.5499  1.0908 -0.0834
  286MOL0     H37732   1.938   3.151   1.240 -3.0651  0.6989 -1.5927
  286MOL0     H37733   1.817   3.267   1.305 -0.2990 -0.2598  1.0047
  286MOL0     H37734   2.839   3.326   1.458  0.1705  0.3296 -1.6319
  286MOL0     H37735   3.058   3.398   1.407  0.9176 -1.1911 -3.3670
  286MOL0     H37736   3.382   3.236   1.059  0.3755  1.0095  0.2638
  286MOL0     H37737   3.603   3.259   0.971 -1.7773 -0.7260 -0.3028
  286MOL0     H37738   5.408   3.492   0.566  0.0583 -0.1583  0.3440
  286MOL0     H37739   5.651   3.523   0.534  0.6945 -0.0143  0.0409
  286MOL0     H37740   6.014   3.323   0.375  0.7056 -0.3494  2.0476
  286MOL0     H37741   6.264   3.306   0.366 -1.3525  0.3383  0.8835
  286MOL0     H37742   6.615   3.543   0.245 -0.1118 -2.0052  1.2197
  286MOL0     H37743   6.499   3.685   0.233 -2.2104 -0.3135  0.3003
  286MOL0     H37744   6.390   3.587   0.046  0.7244  0.4624  0.6272
  286MOL0     H37745   6.556   3.603   0.005  0.4421 -1.1742 -0.6826
  286MOL0     H37746   6.397   3.362   0.079  0.7968 -0.9761 -0.1198
  286MOL0     H37747   6.570   3.340   0.092  1.6738  0.8791 -1.2242
  286MOL0     H37748   6.573   3.438  -0.161  0.8979 -1.8463 -1.7253
  286MOL0     H37749   6.568   3.273  -0.115  3.2558  1.8162 -1.5467
  286MOL0     H37750   6.198   3.316  -0.312 -1.3350 -0.1973  1.5595
  286MOL0     H37751   6.270   3.725   0.264 -1.4517  0.2453 -2.7288
  286MOL0     H37752   6.028   3.732   0.292  2.2130  1.0781 -3.3183
  287MOL0     O37753  10.739  10.254  10.745 -0.3102 -0.1375 -0.2391
  287MOL0     C37754  10.708  10.271  10.628 -0.4567 -0.4997  0.1048
  287MOL0     O37755  10.579  10.305  10.585 -0.5013 -0.2460  0.3214
  287MOL0     C37756  10.487  10.330  10.684 -0.5449  0.3770 -0.6097
  287MOL0     C37757  10.509  10.433  10.776  0.6900  0.2157  0.1652
  287MOL0     C37758  10.425  10.459  10.882  1.9635 -0.3655  0.3670
  287MOL0     C37759  10.327  10.370  10.909 -1.2307 -0.1941 -0.1903
  287MOL0     O37760  10.226  10.406  10.993  0.0627  0.0324  0.3853
  287MOL0     C37761  10.195  10.321  11.098 -0.0568 -0.3256  0.4378
  287MOL0     C37762  10.056  10.352  11.152  1.0417  0.3289  0.7652
  287MOL0     C37763  10.052  10.480  11.241  0.7470  0.7238 -0.1041
  287MOL0     C37764   9.917  10.527  11.277  0.3768 -0.1525 -0.0127
  287MOL0     C37765   9.904  10.677  11.310  0.8637 -0.0479 -0.1298
  287MOL0     C37766   9.888  10.771  11.189  0.0650 -0.9503 -0.1661
  287MOL0     C37767   9.816  10.911  11.212 -0.3224  0.2142  0.1982
  287MOL0     C37768   9.752  10.968  11.083  0.0170  0.4771 -0.5141
  287MOL0     N37769   9.678  11.094  11.101 -0.6960  0.1949 -0.5931
  287MOL0     C37770   9.549  11.108  11.073  0.2427  0.2055 -0.1598
  287MOL0     C37771   9.523  11.233  11.117 -0.3217 -0.4846  0.0322
  287MOL0     C37772   9.399  11.300  11.118  0.2033 -0.7312  0.6922
  287MOL0     C37773   9.283  11.259  11.210  0.5685 -0.7522  0.3398
  287MOL0     C37774   9.327  11.208  11.355  0.3048  0.8595  0.2293
  287MOL0     C37775   9.212  11.166  11.455 -0.5341  0.6561  0.0643
  287MOL0     O37776   9.130  11.062  11.395  0.5182  0.0054 -0.6800
  287MOL0     C37777   8.994  11.067  11.401  0.2766 -0.7850 -0.7742
  287MOL0     C37778   8.913  10.978  11.325 -0.0947  0.0012 -0.4989
  287MOL0     C37779   8.777  10.975  11.341  0.1465  0.5548  0.7899
  287MOL0     C37780   8.702  11.064  11.423  0.8918  0.0735 -0.4451
  287MOL0     C37781   8.559  11.047  11.434 -0.1150 -0.3368 -0.9365
  287MOL0     O37782   8.492  10.963  11.342 -0.9191 -0.6251 -0.1776
  287MOL0     C37783   8.365  10.935  11.377  0.0442 -0.1341  0.1246
  287MOL0     C37784   8.345  10.855  11.492 -0.1735  0.0043  0.2986
  287MOL0     C37785   8.220  10.820  11.542 -0.0767  0.3788  0.3877
  287MOL0     C37786   8.105  10.870  11.472  0.0186 -0.1528 -0.5384
  287MOL0     O37787   7.972  10.838  11.509 -0.3360 -0.3140  0.5168
  287MOL0     C37788   7.949  10.723  11.601  0.3785  0.6108 -0.1405
  287MOL0     C37789   7.801  10.717  11.624 -0.7331  0.8097  0.0663
  287MOL0     C37790   7.720  10.696  11.490  0.2744 -0.8018 -0.4907
  287MOL0     C37791   7.568  10.693  11.512 -0.4214 -0.5016 -0.2706
  287MOL0     C37792   7.512  10.571  11.595  0.4036  0.4841  1.1935
  287MOL0     C37793   7.365  10.579  11.632 -0.2295 -0.2759 -0.4166
  287MOL0     C37794   7.325  10.448  11.681 -0.3522 -0.4302 -0.6116
  287MOL0     C37795   7.284  10.357  11.568 -0.2748  0.2027 -0.2467
  287MOL0    Cl37796   7.123  10.393  11.487  0.1484 -0.0481  0.5273
  287MOL0     C37797   8.128  10.943  11.351 -0.2811  0.5278 -0.2279
  287MOL0     C37798   8.255  10.983  11.307 -0.2807  0.8119  0.1619
  287MOL0     O37799   8.509  11.121  11.516 -0.2978 -0.1357 -0.1271
  287MOL0     C37800   8.779  11.158  11.494 -0.2431 -0.8425 -1.1071
  287MOL0     C37801   8.921  11.163  11.480 -0.4975  0.1662 -0.1455
  287MOL0     N37802   9.643  11.291  11.150 -0.3283  0.2316  0.1571
  287MOL0     N37803   9.739  11.208  11.141  0.0278 -0.0593 -0.7448
  287MOL0     C37804  10.293  10.282  10.805 -0.9404  0.6274 -0.3809
  287MOL0     C37805  10.370  10.258  10.696  0.2811 -0.8092  0.1433
  287MOL0     C37806  10.822  10.277  10.526  0.5225 -0.9452 -0.3954
  287MOL0     C37807  10.791  10.301  10.399 -0.1283 -0.1353  0.7399
  287MOL0     C37808  10.889  10.270  10.303  0.1214  1.0581 -1.0233
  287MOL0     C37809  11.020  10.232  10.335  0.4718  0.4026 -0.4548
  287MOL0     O37810  11.118  10.198  10.248  0.5557  0.2599  0.3274
  287MOL0     C37811  11.091  10.202  10.108  0.1954 -0.7092 -0.1109
  287MOL0     C37812  11.225  10.186  10.048 -0.3168  0.5759  1.0093
  287MOL0     C37813  11.326  10.083  10.108  0.5757 -0.0359 -0.2739
  287MOL0     C37814  11.435  10.068  10.001 -0.1987  0.8553 -1.0587
  287MOL0     C37815  11.527  10.186  10.012 -0.1628 -0.1141 -0.3857
  287MOL0     C37816  11.615  10.267  10.018 -0.2038  0.1232 -0.2492
  287MOL0     C37817  11.046  10.212  10.466 -0.2994 -1.0194 -0.5751
  287MOL0     C37818  10.952  10.254  10.564  0.0617  0.4765 -0.6198
  287MOL0     H37819  10.600  10.491  10.760  0.9539 -0.2146  0.0631
  287MOL0     H37820  10.450  10.543  10.946  0.8417 -0.3013  0.7295
  287MOL0     H37821  10.265  10.341  11.180 -1.1759  0.0085  1.3319
  287MOL0     H37822  10.207  10.217  11.066 -0.2064 -0.5309  1.0314
  287MOL0     H37823  10.023  10.256  11.193  0.2530 -0.5771 -1.7945
  287MOL0     H37824   9.989  10.368  11.066  0.7518 -1.8377  0.5172
  287MOL0     H37825  10.104  10.561  11.189  2.2003  2.2605  3.4683
  287MOL0     H37826  10.104  10.468  11.336 -2.1008  1.2701  1.6563
  287MOL0     H37827   9.844  10.506  11.198  0.0792 -0.6501  0.3894
  287MOL0     H37828   9.884  10.470  11.364  0.5490 -0.3058 -0.0476
  287MOL0     H37829   9.984  10.704  11.379  1.1204 -0.2176 -0.3570
  287MOL0     H37830   9.811  10.680  11.368  0.5332 -1.1396 -0.5689
  287MOL0     H37831   9.831  10.720  11.111 -0.0565 -0.0417 -0.6857
  287MOL0     H37832   9.986  10.802  11.153  0.0779  1.6594  1.8096
  287MOL0     H37833   9.726  10.896  11.273 -0.3608  0.2315  0.1450
  287MOL0     H37834   9.876  10.986  11.263  1.6166 -1.5688  0.6670
  287MOL0     H37835   9.688  10.897  11.031  0.6759 -0.5442  0.0275
  287MOL0     H37836   9.828  10.999  11.010 -0.2231  1.8963 -0.1913
  287MOL0     H37837   9.483  11.030  11.038  1.1009 -0.9611  0.7165
  287MOL0     H37838   9.358  11.310  11.017 -1.0427 -1.2248  1.1363
  287MOL0     H37839   9.437  11.396  11.155 -1.9092  0.2694  0.4181
  287MOL0     H37840   9.227  11.181  11.158  2.2370 -1.5772 -0.2833
  287MOL0     H37841   9.210  11.340  11.220 -0.5684 -1.7745  0.5276
  287MOL0     H37842   9.399  11.126  11.346 -1.2175 -0.6722  1.3831
  287MOL0     H37843   9.376  11.292  11.405 -1.8774  2.5534 -0.3476
  287MOL0     H37844   9.158  11.259  11.476 -1.4213  0.0738  0.3728
  287MOL0     H37845   9.257  11.121  11.544  1.6124  0.7878 -0.8920
  287MOL0     H37846   8.953  10.907  11.254  1.2639  0.9231 -0.6804
  287MOL0     H37847   8.729  10.892  11.290 -0.5590 -0.2706  2.6777
  287MOL0     H37848   8.432  10.820  11.546 -0.0019 -0.5681 -0.3307
  287MOL0     H37849   8.214  10.751  11.625 -0.4566 -0.5086 -0.3615
  287MOL0     H37850   7.995  10.729  11.699  0.1884  0.5845 -0.0493
  287MOL0     H37851   7.977  10.632  11.546 -2.5732 -0.7921  0.4769
  287MOL0     H37852   7.788  10.815  11.671 -0.2306  0.0992  1.7702
  287MOL0     H37853   7.778  10.643  11.701  2.3570 -3.2839 -2.5194
  287MOL0     H37854   7.741  10.596  11.450 -1.9542 -0.9335 -1.4654
  287MOL0     H37855   7.734  10.780  11.422 -1.0609  1.1804  1.5227
  287MOL0     H37856   7.541  10.777  11.577  1.3357 -1.5075  1.9177
  287MOL0     H37857   7.508  10.688  11.421  2.5445 -0.1807 -2.4098
  287MOL0     H37858   7.568  10.569  11.689  2.4578  3.2713  0.1690
  287MOL0     H37859   7.533  10.485  11.531  1.0149  0.4871  1.3854
  287MOL0     H37860   7.307  10.611  11.545  0.3259 -0.3173 -0.8002
  287MOL0     H37861   7.358  10.655  11.710  1.1731 -0.8846  0.3393
  287MOL0     H37862   7.401  10.403  11.747 -0.7177  1.9797  1.6184
  287MOL0     H37863   7.240  10.463  11.748  0.2213  0.6510 -0.1021
  287MOL0     H37864   7.277  10.263  11.623  4.7197  0.0328  0.5312
  287MOL0     H37865   7.369  10.346  11.500  2.2451 -2.5375  2.9992
  287MOL0     H37866   8.045  10.976  11.289  1.5493  0.0755 -3.1092
  287MOL0     H37867   8.277  11.031  11.212  0.6421 -1.5219 -0.8901
  287MOL0     H37868   8.730  11.229  11.560  0.2603 -1.2919 -0.2326
  287MOL0     H37869   8.977  11.236  11.538 -0.3782 -1.1740  1.5224
  287MOL0     H37870  10.199  10.228  10.808 -0.3724 -0.3821  0.2000
  287MOL0     H37871  10.352  10.180  10.622  2.5740 -0.2697 -1.0966
  287MOL0     H37872  10.689  10.305  10.361 -0.4587  0.4540  1.6615
  287MOL0     H37873  10.874  10.273  10.195  1.1979 -0.2587 -1.2373
  287MOL0     H37874  11.051  10.301  10.085 -1.5858 -1.3269  0.1781
  287MOL0     H37875  11.023  10.124  10.073  0.7510  0.4088 -4.1571
  287MOL0     H37876  11.194  10.153   9.949 -0.0310  1.3872  0.6437
  287MOL0     H37877  11.265  10.287  10.039  0.1212  0.3089 -0.3286
  287MOL0     H37878  11.275   9.987  10.121 -0.2645  0.5807  1.1660
  287MOL0     H37879  11.361  10.115  10.207 -0.2252  1.3777 -0.4314
  287MOL0     H37880  11.496   9.979  10.018 -1.3509  0.4005  1.1059
  287MOL0     H37881  11.393  10.055   9.901 -2.3922  1.7541 -0.3139
  287MOL0     H37882  11.690  10.343  10.031 -0.2683  0.1898 -0.2686
  287MOL0     H37883  11.146  10.176  10.490  0.0491  0.4580  0.3211
  287MOL0     H37884  10.978  10.248  10.669 -1.0524  2.7330 -0.1488
  288MOL0     O37885   9.073  11.236   1.194 -0.2011  0.1206  0.5224
  288MOL0     C37886   9.104  11.237   1.072  0.9096 -0.0952  0.9206
  288MOL0     O37887   9.040  11.180   0.971 -0.2929  0.4566  0.8226
  288MOL0     C37888   8.929  11.105   1.001 -0.1545  0.8187  0.3451
  288MOL0     C37889   8.923  10.967   1.004 -0.6140 -0.1457 -0.3016
  288MOL0     C37890   8.798  10.893   1.015  0.2646  1.3972  0.2754
  288MOL0     C37891   8.667  10.952   1.025 -0.1983 -1.3097 -0.5701
  288MOL0     O37892   8.542  10.899   1.028 -0.4648  1.1393 -0.1901
  288MOL0     C37893   8.535  10.759   0.991 -0.4667 -0.1071  0.0916
  288MOL0     C37894   8.394  10.706   1.016 -0.6653  0.9841 -0.2876
  288MOL0     C37895   8.287  10.794   0.942  0.1638 -0.3212  0.0099
  288MOL0     C37896   8.145  10.743   0.975  0.7916  0.8025 -1.4452
  288MOL0     C37897   8.050  10.857   0.995 -0.3429  0.3835 -0.3152
  288MOL0     C37898   7.933  10.809   1.074  0.3720  0.5384 -0.2575
  288MOL0     C37899   7.817  10.913   1.062 -1.1132  0.5415  0.1726
  288MOL0     C37900   7.681  10.868   1.131  0.2273 -0.1381  0.8538
  288MOL0     N37901   7.701  10.901   1.272 -0.5191  0.1150 -0.9520
  288MOL0     C37902   7.648  11.003   1.341 -0.1944 -0.7744 -0.1550
  288MOL0     C37903   7.664  10.975   1.473  0.4956 -0.0406 -0.5042
  288MOL0     C37904   7.600  11.052   1.588  0.5624  0.9049  0.1716
  288MOL0     C37905   7.469  10.981   1.633  0.5698  0.3590 -0.7311
  288MOL0     C37906   7.347  11.009   1.552 -0.7032  0.1853 -0.5333
  288MOL0     C37907   7.232  10.923   1.600  0.0417 -0.4792  0.1950
  288MOL0     O37908   7.106  10.976   1.542  0.1442 -0.1315 -0.4844
  288MOL0     C37909   6.981  10.964   1.601 -0.4155 -0.9967  0.1071
  288MOL0     C37910   6.948  10.891   1.721 -0.2991  0.1632  0.8935
  288MOL0     C37911   6.817  10.888   1.764  1.1392 -0.7078  0.4339
  288MOL0     C37912   6.712  10.957   1.693  1.1860  0.2223 -0.5542
  288MOL0     C37913   6.580  10.966   1.751  0.2383 -0.1422 -0.5753
  288MOL0     O37914   6.474  11.005   1.669 -0.5195 -0.0498 -0.5850
  288MOL0     C37915   6.351  11.025   1.739  0.3228  1.0556  0.5544
  288MOL0     C37916   6.292  11.157   1.725 -0.5223  0.4300 -0.2466
  288MOL0     C37917   6.170  11.175   1.795  0.2403 -0.2568 -0.6094
  288MOL0     C37918   6.103  11.067   1.857  0.3082 -0.7156  0.1424
  288MOL0     O37919   5.994  11.097   1.921 -0.4498 -0.0195  0.3956
  288MOL0     C37920   5.877  11.087   1.845  0.1398  0.2957  0.1659
  288MOL0     C37921   5.785  11.006   1.929 -0.3327  1.2660 -0.6174
  288MOL0     C37922   5.650  10.985   1.872 -0.4489 -1.1012 -0.1173
  288MOL0     C37923   5.576  10.887   1.965  0.6447  0.3897 -0.2903
  288MOL0     C37924   5.437  10.849   1.908 -0.3042  0.2599 -1.1860
  288MOL0     C37925   5.354  10.794   2.016  0.3789  0.9298  0.1861
  288MOL0     C37926   5.204  10.789   1.981  0.7104 -0.5950 -0.7989
  288MOL0     C37927   5.105  10.764   2.099  0.1856  0.1649 -0.5323
  288MOL0    Cl37928   4.950  10.700   2.053 -0.7235 -0.1512  0.0024
  288MOL0     C37929   6.160  10.940   1.869  0.6956  0.3555 -0.6116
  288MOL0     C37930   6.283  10.922   1.805 -0.0592  0.7054 -0.1752
  288MOL0     O37931   6.573  10.942   1.871 -0.6466 -0.7926 -0.4529
  288MOL0     C37932   6.744  11.025   1.574 -0.5196 -0.3941  0.6087
  288MOL0     C37933   6.875  11.027   1.526  0.6346  0.1736 -0.8661
  288MOL0     N37934   7.742  10.867   1.477 -0.2245 -0.1987 -0.2703
  288MOL0     N37935   7.757  10.818   1.362 -0.5160  0.6180 -0.2783
  288MOL0     C37936   8.681  11.093   1.037  0.0357  0.0046 -0.4095
  288MOL0     C37937   8.802  11.163   1.030 -0.4960 -0.3906  0.1958
  288MOL0     C37938   9.217  11.330   1.045  0.0114 -0.0641 -0.1339
  288MOL0     C37939   9.312  11.367   1.143 -0.8022 -0.1583 -0.1900
  288MOL0     C37940   9.430  11.429   1.120  1.0808  0.4399 -0.2904
  288MOL0     C37941   9.455  11.480   0.990 -0.2036  0.7897  0.7691
  288MOL0     O37942   9.570  11.529   0.951  0.7127  0.3276  0.0022
  288MOL0     C37943   9.686  11.560   1.039  0.9040  0.0086  0.7865
  288MOL0     C37944   9.773  11.436   1.073 -0.1677  0.7178  0.4126
  288MOL0     C37945   9.919  11.453   1.043 -0.7860 -0.3437  0.9065
  288MOL0     C37946   9.999  11.345   1.127  0.3943 -0.7708  0.0622
  288MOL0     C37947  10.143  11.365   1.098  0.4645  0.3585 -0.5341
  288MOL0     C37948  10.258  11.374   1.087 -0.1262 -0.0598  0.1402
  288MOL0     C37949   9.363  11.451   0.887  0.5868 -0.0647  0.4357
  288MOL0     C37950   9.252  11.374   0.912  0.0960  0.0430 -0.5667
  288MOL0     H37951   9.013  10.907   1.002  0.7810  1.7370  1.6008
  288MOL0     H37952   8.808  10.785   1.010  2.9483  1.6310 -1.3725
  288MOL0     H37953   8.601  10.702   1.058 -0.7595  0.2014  0.6561
  288MOL0     H37954   8.559  10.751   0.885  2.3933  1.9087  0.4837
  288MOL0     H37955   8.383  10.711   1.124  1.7868 -1.1940  0.1593
  288MOL0     H37956   8.389  10.604   0.978  0.6087  0.4239  0.9689
  288MOL0     H37957   8.302  10.790   0.834  0.4431  2.8861 -0.1566
  288MOL0     H37958   8.303  10.899   0.967 -0.2822 -0.3973  0.6679
  288MOL0     H37959   8.108  10.669   0.902 -0.2303  0.7632 -0.8947
  288MOL0     H37960   8.150  10.685   1.068  1.3127  0.0134 -1.9447
  288MOL0     H37961   8.019  10.891   0.895 -1.2682 -0.3918 -0.3178
  288MOL0     H37962   8.098  10.943   1.041  1.9805 -0.0632 -1.7630
  288MOL0     H37963   7.962  10.805   1.179  0.9768 -1.7148 -0.4597
  288MOL0     H37964   7.892  10.710   1.052 -2.0013  0.5193  3.3266
  288MOL0     H37965   7.855  11.012   1.090 -1.2773  0.7471 -0.3219
  288MOL0     H37966   7.792  10.924   0.956 -0.1297  2.0034  0.0582
  288MOL0     H37967   7.669  10.761   1.111  3.8133 -0.1681 -2.1765
  288MOL0     H37968   7.597  10.931   1.101  0.4574  0.4101  1.3352
  288MOL0     H37969   7.572  11.074   1.311 -1.6304 -0.6627  3.3811
  288MOL0     H37970   7.570  11.153   1.559 -1.6625  0.5457  1.0514
  288MOL0     H37971   7.664  11.061   1.676  3.4652  1.1940 -1.7872
  288MOL0     H37972   7.450  11.002   1.738  1.8293  1.9361 -0.7754
  288MOL0     H37973   7.483  10.874   1.617 -0.2739  0.1509 -0.1085
  288MOL0     H37974   7.316  11.111   1.575 -0.9224  0.0183 -0.0689
  288MOL0     H37975   7.365  11.008   1.444 -0.2874  0.1838 -0.4658
  288MOL0     H37976   7.229  10.920   1.709 -0.0084 -0.8042  0.1870
  288MOL0     H37977   7.249  10.821   1.564  0.2851 -0.0701 -0.9077
  288MOL0     H37978   7.024  10.833   1.772 -0.4600 -0.1229  0.8158
  288MOL0     H37979   6.781  10.838   1.853 -1.9601  1.5299  0.6365
  288MOL0     H37980   6.333  11.240   1.669 -1.0693  0.6865 -0.2779
  288MOL0     H37981   6.120  11.271   1.798 -1.7888 -1.2171  2.8750
  288MOL0     H37982   5.906  11.034   1.754  3.2483 -1.2773  1.8914
  288MOL0     H37983   5.833  11.182   1.813 -1.1995  0.0815  1.2904
  288MOL0     H37984   5.777  11.047   2.030 -2.2188 -0.0664 -0.1615
  288MOL0     H37985   5.832  10.907   1.928  0.3092  1.4412  2.0477
  288MOL0     H37986   5.653  10.956   1.766  5.0989 -1.0272 -0.3006
  288MOL0     H37987   5.601  11.083   1.881 -0.7884 -1.3417  0.7478
  288MOL0     H37988   5.632  10.794   1.977 -2.4856 -1.7099 -0.6409
  288MOL0     H37989   5.565  10.924   2.067 -1.8002  0.7241 -0.6054
  288MOL0     H37990   5.437  10.768   1.834 -2.1102  0.7051 -1.7005
  288MOL0     H37991   5.400  10.941   1.863  2.1544  1.9127 -0.0782
  288MOL0     H37992   5.370  10.862   2.101  1.0035  1.6579 -0.4934
  288MOL0     H37993   5.391  10.693   2.035 -2.4268  0.0041  1.2313
  288MOL0     H37994   5.193  10.895   1.956 -0.7350 -0.5420 -0.0542
  288MOL0     H37995   5.176  10.731   1.893  0.2200 -0.2638 -0.8628
  288MOL0     H37996   5.100  10.858   2.155 -0.4416 -0.4050  0.3955
  288MOL0     H37997   5.137  10.683   2.166 -2.1945 -0.3276  0.1054
  288MOL0     H37998   6.105  10.862   1.920 -0.0777  1.4016  0.1892
  288MOL0     H37999   6.326  10.823   1.810 -0.8171  0.4258  3.8609
  288MOL0     H38000   6.667  11.080   1.520  3.2337  0.8032 -4.1120
  288MOL0     H38001   6.912  11.081   1.439  3.6090 -1.5095 -0.8035
  288MOL0     H38002   8.599  11.164   1.030  0.9373  1.0181 -1.1332
  288MOL0     H38003   8.798  11.269   1.007  4.6463  0.1249  0.6052
  288MOL0     H38004   9.294  11.326   1.242 -0.4136 -3.2213 -1.3071
  288MOL0     H38005   9.503  11.453   1.196  0.2248  3.4565 -0.2677
  288MOL0     H38006   9.655  11.616   1.128 -0.8308  0.4034 -0.0035
  288MOL0     H38007   9.754  11.631   0.990 -0.2377  1.3081  1.0058
  288MOL0     H38008   9.757  11.412   1.179  0.5292 -0.8566  0.1786
  288MOL0     H38009   9.740  11.358   1.004  2.0467  2.9339 -3.5011
  288MOL0     H38010   9.954  11.546   1.089 -0.3734 -0.5515  1.0231
  288MOL0     H38011   9.951  11.452   0.939  1.0013 -0.1254  1.4085
  288MOL0     H38012   9.979  11.365   1.232  0.0938 -2.7443  0.4273
  288MOL0     H38013   9.970  11.240   1.114  0.3564 -0.6781 -0.6523
  288MOL0     H38014  10.365  11.378   1.079 -0.3155  1.5171 -3.2198
  288MOL0     H38015   9.386  11.464   0.782  0.3702 -0.2096  0.3700
  288MOL0     H38016   9.191  11.359   0.824 -0.3320  0.9430 -0.4300
  289MOL0     O38017   6.881   7.835   8.227 -0.3792 -0.1114 -0.2488
  289MOL0     C38018   6.977   7.832   8.301  0.0124 -1.5057  1.1034
  289MOL0     O38019   7.052   7.938   8.334  0.2300 -0.0564 -0.9681
  289MOL0     C38020   7.016   8.065   8.303 -0.2247 -0.5659  0.0181
  289MOL0     C38021   7.119   8.159   8.301 -0.3380  0.2598  0.3122
  289MOL0     C38022   7.104   8.294   8.275 -0.0896 -0.1324  0.3412
  289MOL0     C38023   6.980   8.341   8.250  0.2203  0.1187 -0.2612
  289MOL0     O38024   6.943   8.469   8.227  0.1243 -0.6414  0.1839
  289MOL0     C38025   7.021   8.566   8.293 -0.8581 -0.5261  0.6524
  289MOL0     C38026   6.941   8.700   8.284  0.5586 -0.7301  0.2280
  289MOL0     C38027   6.793   8.699   8.333  0.5860 -0.1837  0.1902
  289MOL0     C38028   6.709   8.817   8.279 -0.3134  0.2219  0.3051
  289MOL0     C38029   6.574   8.813   8.335  0.1938 -0.3452 -0.8139
  289MOL0     C38030   6.498   8.930   8.274 -0.2128 -0.1841  0.6080
  289MOL0     C38031   6.358   8.968   8.331 -0.6682  0.2187 -0.7394
  289MOL0     C38032   6.250   8.860   8.301  0.3921  0.7714  0.3004
  289MOL0     N38033   6.108   8.907   8.312 -0.0181  0.6263  0.0560
  289MOL0     C38034   6.005   8.888   8.411  0.5564  0.9485 -0.0615
  289MOL0     C38035   5.900   8.955   8.366 -0.2419 -0.5797 -0.2544
  289MOL0     C38036   5.783   8.991   8.453  1.1380  0.2692  0.8461
  289MOL0     C38037   5.658   8.892   8.425 -0.6801  0.0062 -0.5222
  289MOL0     C38038   5.589   8.912   8.301  0.7892  0.3209 -0.2085
  289MOL0     C38039   5.469   8.830   8.301  0.4003  0.6111  0.8348
  289MOL0     O38040   5.367   8.859   8.403 -1.0566  0.2361 -0.2180
  289MOL0     C38041   5.234   8.828   8.381 -0.3977 -1.1808  1.6664
  289MOL0     C38042   5.139   8.872   8.469 -0.0590 -0.2687 -1.2062
  289MOL0     C38043   4.997   8.853   8.450  0.1101 -0.3854  0.0987
  289MOL0     C38044   4.951   8.777   8.338  0.2787 -0.0093 -0.2815
  289MOL0     C38045   4.806   8.727   8.330 -0.4617 -0.0226 -0.4188
  289MOL0     O38046   4.772   8.629   8.242 -0.1416 -0.1409  0.0640
  289MOL0     C38047   4.661   8.543   8.235  0.0206  0.5840  0.7219
  289MOL0     C38048   4.670   8.433   8.147 -0.4310 -0.0246  0.2130
  289MOL0     C38049   4.560   8.335   8.129 -0.9831 -0.9508 -0.3232
  289MOL0     C38050   4.447   8.368   8.200  0.5542  0.5987  0.3647
  289MOL0     O38051   4.334   8.285   8.183  0.2805 -0.3664 -0.6394
  289MOL0     C38052   4.206   8.345   8.201  0.1484 -0.0956  0.1345
  289MOL0     C38053   4.086   8.266   8.146 -0.1303 -0.3001 -0.2772
  289MOL0     C38054   4.063   8.130   8.216  1.2109 -0.6605  0.6319
  289MOL0     C38055   3.916   8.084   8.216  0.3161 -0.1712  0.4390
  289MOL0     C38056   3.901   7.945   8.279 -0.5618  0.2285 -0.2668
  289MOL0     C38057   3.965   7.833   8.211 -0.1933  0.3754 -0.0657
  289MOL0     C38058   3.933   7.694   8.263 -0.6567  0.4631 -0.3545
  289MOL0     C38059   3.790   7.630   8.223 -0.1068  0.1549 -0.2362
  289MOL0    Cl38060   3.807   7.582   8.060 -0.0823  0.2023  0.0571
  289MOL0     C38061   4.442   8.480   8.281  0.8394 -0.3676 -1.0147
  289MOL0     C38062   4.547   8.570   8.305 -0.3787 -0.6862  0.1860
  289MOL0     O38063   4.725   8.787   8.407 -0.0052  0.2177  0.5592
  289MOL0     C38064   5.050   8.721   8.248 -0.1429 -0.1975 -0.6459
  289MOL0     C38065   5.186   8.759   8.270  0.1056  0.9065 -0.2413
  289MOL0     N38066   5.916   8.993   8.234 -0.3188  0.3333  0.2752
  289MOL0     N38067   6.042   8.964   8.204 -0.0847  0.3479  0.6991
  289MOL0     C38068   6.873   8.247   8.245  0.2456 -0.3380  0.0883
  289MOL0     C38069   6.888   8.111   8.277 -0.1727 -0.3216 -0.5597
  289MOL0     C38070   7.012   7.708   8.360  0.7626  0.3328 -0.0629
  289MOL0     C38071   6.943   7.589   8.334 -0.3112  0.1528 -0.8461
  289MOL0     C38072   6.974   7.468   8.397 -0.6847 -0.6522  0.6094
  289MOL0     C38073   7.078   7.452   8.490 -0.6274 -0.7195  0.0807
  289MOL0     O38074   7.117   7.326   8.543  0.3940 -0.4534  0.8765
  289MOL0     C38075   7.209   7.304   8.645 -0.0417 -1.2332  0.0561
  289MOL0     C38076   7.217   7.157   8.662 -0.2545  0.8573 -1.0071
  289MOL0     C38077   7.324   7.096   8.557 -0.1286  0.5881  0.4029
  289MOL0     C38078   7.326   6.936   8.570 -1.3990 -0.0805 -0.0173
  289MOL0     C38079   7.193   6.884   8.538 -0.7298 -0.1267  0.9241
  289MOL0     C38080   7.078   6.859   8.515 -0.5055  0.1100  0.6678
  289MOL0     C38081   7.145   7.569   8.522  0.1701 -0.4642 -0.3048
  289MOL0     C38082   7.114   7.697   8.459 -0.0979 -0.2026 -0.0851
  289MOL0     H38083   7.218   8.119   8.318  0.2626  1.9587  1.0755
  289MOL0     H38084   7.196   8.349   8.260  0.5503 -1.4845 -0.9472
  289MOL0     H38085   7.118   8.569   8.242  0.3444 -0.9783  2.7656
  289MOL0     H38086   7.038   8.539   8.398 -3.5940 -1.5236  0.9349
  289MOL0     H38087   6.956   8.732   8.181 -1.4819 -2.5786 -0.7147
  289MOL0     H38088   7.005   8.771   8.337  1.7923  0.6193 -2.8527
  289MOL0     H38089   6.797   8.697   8.442  2.1703 -2.4557  0.1564
  289MOL0     H38090   6.750   8.605   8.298  0.4702 -0.8267  1.9500
  289MOL0     H38091   6.761   8.912   8.296  1.1595 -0.1686 -1.6007
  289MOL0     H38092   6.720   8.819   8.170  1.6697 -1.3811  0.4096
  289MOL0     H38093   6.579   8.816   8.444 -0.7327 -1.3620 -0.7251
  289MOL0     H38094   6.522   8.719   8.314  0.6949 -0.8939  0.3200
  289MOL0     H38095   6.493   8.898   8.170 -0.3814 -1.2045  0.9143
  289MOL0     H38096   6.560   9.020   8.278 -1.1640  0.8483 -3.2994
  289MOL0     H38097   6.361   8.985   8.439  0.1404  0.2858 -0.7700
  289MOL0     H38098   6.325   9.062   8.285 -1.6246 -1.7039 -4.3713
  289MOL0     H38099   6.263   8.766   8.355  2.8617  0.9863  0.1797
  289MOL0     H38100   6.266   8.835   8.196  2.2686 -0.3680  0.8101
  289MOL0     H38101   6.008   8.844   8.510  0.1119 -0.6356 -0.7132
  289MOL0     H38102   5.756   9.096   8.439 -0.9139 -0.2880  0.2701
  289MOL0     H38103   5.816   8.986   8.557  1.5872  0.0641  0.6937
  289MOL0     H38104   5.592   8.911   8.510 -0.0101  2.1896 -0.4492
  289MOL0     H38105   5.702   8.793   8.441  1.7355  1.1584  0.2998
  289MOL0     H38106   5.562   9.015   8.277 -0.1664 -0.8664 -5.5934
  289MOL0     H38107   5.652   8.881   8.217  0.2068  0.3839 -0.6763
  289MOL0     H38108   5.490   8.723   8.303 -0.0014  0.4796 -0.6689
  289MOL0     H38109   5.430   8.855   8.202 -0.0685 -0.0610  0.8481
  289MOL0     H38110   5.189   8.918   8.554  0.3175 -0.9644 -1.0445
  289MOL0     H38111   4.930   8.889   8.527  0.5805  1.4348 -0.2999
  289MOL0     H38112   4.764   8.422   8.094  0.5837 -1.0560  2.1218
  289MOL0     H38113   4.563   8.266   8.045 -1.8078  0.4387 -1.5498
  289MOL0     H38114   4.198   8.443   8.154  0.2027 -1.2051 -2.3140
  289MOL0     H38115   4.192   8.363   8.308 -0.7332 -0.4612  0.0906
  289MOL0     H38116   4.099   8.247   8.039 -1.5994  0.1830 -0.5622
  289MOL0     H38117   4.002   8.333   8.166  0.1474 -0.5656  2.0217
  289MOL0     H38118   4.082   8.144   8.323  1.4686  1.4820  0.3527
  289MOL0     H38119   4.123   8.051   8.169  2.8559 -0.7372  2.7110
  289MOL0     H38120   3.856   8.156   8.272  0.3974  3.2723 -3.4538
  289MOL0     H38121   3.885   8.078   8.112  1.4179 -4.9614  0.1583
  289MOL0     H38122   3.792   7.930   8.285 -0.4665  0.0651  1.6196
  289MOL0     H38123   3.947   7.957   8.377  2.7538 -0.1676 -1.6495
  289MOL0     H38124   4.074   7.841   8.205 -0.2554  1.6698  0.3866
  289MOL0     H38125   3.942   7.832   8.104 -0.8530 -6.0451 -0.2932
  289MOL0     H38126   4.002   7.619   8.225 -0.0752 -0.5128  2.4411
  289MOL0     H38127   3.949   7.691   8.371 -1.4009 -1.3870 -0.2691
  289MOL0     H38128   3.709   7.703   8.222 -0.3824 -0.1491 -0.6613
  289MOL0     H38129   3.764   7.539   8.278  0.2685  0.6538  0.7977
  289MOL0     H38130   4.347   8.507   8.326  1.4820 -0.5767  0.5280
  289MOL0     H38131   4.536   8.657   8.370 -0.0689  2.0788 -3.2205
  289MOL0     H38132   5.025   8.664   8.159 -1.3850 -1.6414  0.5522
  289MOL0     H38133   5.258   8.735   8.192 -2.0964  1.8732 -2.7343
  289MOL0     H38134   6.773   8.284   8.223  0.6449 -0.5309 -2.3503
  289MOL0     H38135   6.798   8.050   8.276  1.2185 -2.5030  0.2242
  289MOL0     H38136   6.864   7.587   8.259 -2.6518  0.2546  1.4572
  289MOL0     H38137   6.927   7.373   8.374 -0.2721 -0.7889  0.3263
  289MOL0     H38138   7.171   7.342   8.740  1.7995  2.5742 -0.5403
  289MOL0     H38139   7.306   7.350   8.623 -0.7875  0.4940  0.2349
  289MOL0     H38140   7.235   7.128   8.766 -2.8613 -1.3424 -1.0574
  289MOL0     H38141   7.122   7.111   8.634 -0.9071  0.3341  1.8246
  289MOL0     H38142   7.422   7.142   8.571  0.0370  0.1105  0.8910
  289MOL0     H38143   7.289   7.122   8.457 -2.0724  0.0801  0.8950
  289MOL0     H38144   7.395   6.896   8.495  0.0637  3.6746 -0.9114
  289MOL0     H38145   7.369   6.915   8.668 -1.0812 -0.2200 -0.1860
  289MOL0     H38146   6.976   6.826   8.512  0.3484 -2.8192  0.4521
  289MOL0     H38147   7.229   7.555   8.588 -1.5219 -0.8718  1.8704
  289MOL0     H38148   7.176   7.785   8.478 -1.7270  0.7765  0.9613
  290MOL0     O38149   9.161   8.729   1.352  0.1792 -0.1866 -0.7690
  290MOL0     C38150   9.179   8.764   1.235  0.4394 -0.1999 -0.1771
  290MOL0     O38151   9.106   8.725   1.128  0.0921  0.2823  0.3295
  290MOL0     C38152   9.009   8.634   1.152 -0.5145 -0.1715  0.9213
  290MOL0     C38153   8.877   8.673   1.169 -0.2265 -0.5399  0.7672
  290MOL0     C38154   8.780   8.581   1.206  1.1427 -0.0012 -0.0249
  290MOL0     C38155   8.819   8.446   1.240  0.8014 -0.3066  0.3874
  290MOL0     O38156   8.720   8.352   1.259  0.0411  0.7765 -0.2677
  290MOL0     C38157   8.696   8.319   1.394 -1.0271 -0.2957  0.0755
  290MOL0     C38158   8.586   8.213   1.402  0.3296 -0.1154  0.1794
  290MOL0     C38159   8.451   8.299   1.418 -0.3305 -0.0041  0.2034
  290MOL0     C38160   8.345   8.211   1.359 -0.1360  0.3016 -0.3411
  290MOL0     C38161   8.200   8.238   1.405 -0.4728 -0.6887 -0.5965
  290MOL0     C38162   8.162   8.382   1.368  0.7882 -0.7871 -0.0735
  290MOL0     C38163   8.015   8.409   1.401 -0.2276 -0.3788  0.1531
  290MOL0     C38164   7.989   8.454   1.545  0.9008  0.6006  0.0790
  290MOL0     N38165   7.842   8.462   1.579 -0.9232  0.6749  0.1716
  290MOL0     C38166   7.759   8.346   1.600 -0.5965 -0.8757 -0.3642
  290MOL0     C38167   7.650   8.385   1.668 -0.0732 -0.7603  0.2654
  290MOL0     C38168   7.541   8.309   1.741  0.2641  0.0885  0.8354
  290MOL0     C38169   7.520   8.362   1.884 -0.0210  0.3727  0.0280
  290MOL0     C38170   7.446   8.244   1.966  0.3882 -0.1179 -0.1048
  290MOL0     C38171   7.303   8.232   1.933 -0.3759  0.8185  0.4025
  290MOL0     O38172   7.217   8.284   2.038  0.5875  0.3271 -0.1213
  290MOL0     C38173   7.081   8.265   2.023  0.8889  0.0108  0.1910
  290MOL0     C38174   6.993   8.292   2.129 -0.1650  0.4984 -0.5684
  290MOL0     C38175   6.857   8.266   2.130  0.7028  0.7374 -0.5065
  290MOL0     C38176   6.801   8.203   2.023  0.3595  0.7995  0.3214
  290MOL0     C38177   6.664   8.168   2.006  0.7141 -0.2530 -0.2630
  290MOL0     O38178   6.592   8.216   2.112  1.0553 -0.0883  0.1509
  290MOL0     C38179   6.453   8.204   2.133 -0.1112 -0.8662 -0.3566
  290MOL0     C38180   6.385   8.090   2.107 -0.3584  0.5265  0.5475
  290MOL0     C38181   6.247   8.066   2.125 -0.1867  0.4911 -0.4065
  290MOL0     C38182   6.177   8.164   2.193  0.1924 -0.0925 -1.2227
  290MOL0     O38183   6.038   8.150   2.200 -0.5271 -0.5022  0.2515
  290MOL0     C38184   5.957   8.268   2.179  0.2703  0.4025  0.1845
  290MOL0     C38185   5.810   8.231   2.152 -0.3884  0.3957 -0.9551
  290MOL0     C38186   5.724   8.356   2.114 -0.6840 -0.2382 -0.5976
  290MOL0     C38187   5.577   8.304   2.104  0.5153 -0.5923  0.0963
  290MOL0     C38188   5.471   8.401   2.069 -0.2747 -0.6742  0.1355
  290MOL0     C38189   5.335   8.327   2.019  0.3711 -0.7890 -0.7215
  290MOL0     C38190   5.235   8.444   2.006  0.2424  0.1285 -0.7428
  290MOL0     C38191   5.260   8.538   1.897 -0.0138 -0.2490  0.4579
  290MOL0    Cl38192   5.127   8.664   1.887 -0.0022 -0.5485  0.0256
  290MOL0     C38193   6.242   8.282   2.223 -0.1488 -0.3793  0.1321
  290MOL0     C38194   6.377   8.303   2.198  1.1402  0.6696 -0.5291
  290MOL0     O38195   6.623   8.106   1.907  0.4131  0.3319 -0.6061
  290MOL0     C38196   6.884   8.170   1.911 -0.3594 -0.6857  0.2999
  290MOL0     C38197   7.022   8.214   1.908  1.0449  0.5952  0.3556
  290MOL0     N38198   7.660   8.526   1.675  0.2054 -0.2900  0.4608
  290MOL0     N38199   7.771   8.561   1.618  0.6457  0.4124 -0.2610
  290MOL0     C38200   8.947   8.405   1.229  0.5289 -0.4777 -0.2961
  290MOL0     C38201   9.042   8.497   1.173 -0.0547  0.6312  0.1244
  290MOL0     C38202   9.277   8.875   1.217 -0.4699 -0.2173  0.3747
  290MOL0     C38203   9.333   8.930   1.331 -0.5277  0.2828 -0.8496
  290MOL0     C38204   9.425   9.043   1.317  0.8608  0.1598 -0.6812
  290MOL0     C38205   9.457   9.089   1.193 -0.5896 -0.9654  0.3176
  290MOL0     O38206   9.544   9.194   1.164 -0.3246  0.3223 -0.2709
  290MOL0     C38207   9.615   9.261   1.264  0.5012  0.1390  0.3265
  290MOL0     C38208   9.675   9.387   1.216  0.2747 -0.3894 -0.4314
  290MOL0     C38209   9.792   9.347   1.111 -0.7844 -0.7002  0.6812
  290MOL0     C38210   9.851   9.474   1.039  0.1493  0.4003 -0.7058
  290MOL0     C38211   9.861   9.595   1.114 -0.3045 -0.0067 -1.0756
  290MOL0     C38212   9.871   9.703   1.166 -0.2307 -0.4389 -0.6772
  290MOL0     C38213   9.401   9.039   1.079  0.3699  1.0931  0.0428
  290MOL0     C38214   9.306   8.932   1.082  0.7944  0.2139  0.0836
  290MOL0     H38215   8.846   8.776   1.155  1.6875  0.0802  0.8045
  290MOL0     H38216   8.678   8.619   1.204 -0.2656 -3.4131  0.7306
  290MOL0     H38217   8.673   8.403   1.459 -0.4754 -1.1889  1.4720
  290MOL0     H38218   8.784   8.272   1.439  0.6091  0.0650 -2.5014
  290MOL0     H38219   8.605   8.135   1.476 -1.1131 -0.6850 -0.0265
  290MOL0     H38220   8.586   8.159   1.307  1.1745  0.0884  0.0586
  290MOL0     H38221   8.454   8.400   1.376 -2.9308 -0.8047 -2.2396
  290MOL0     H38222   8.429   8.312   1.524  1.1474 -1.2215  0.6881
  290MOL0     H38223   8.352   8.222   1.250  5.9735  2.9281 -0.0721
  290MOL0     H38224   8.363   8.107   1.385 -1.4273 -0.1531 -1.1811
  290MOL0     H38225   8.184   8.224   1.513  0.4311  3.7673  0.3284
  290MOL0     H38226   8.135   8.172   1.348 -0.8624  0.9621 -2.1485
  290MOL0     H38227   8.182   8.403   1.263 -1.2660 -1.0246 -0.5660
  290MOL0     H38228   8.213   8.459   1.426 -0.5662 -0.8208  1.2351
  290MOL0     H38229   7.954   8.472   1.335 -2.4618  0.5329  2.8557
  290MOL0     H38230   7.954   8.319   1.392 -2.6350  1.2756 -1.3089
  290MOL0     H38231   8.036   8.552   1.555  2.3417  0.1033 -1.4327
  290MOL0     H38232   8.036   8.389   1.619  1.2051 -0.2360 -0.8306
  290MOL0     H38233   7.790   8.245   1.574  1.7403 -0.7190  1.5562
  290MOL0     H38234   7.563   8.202   1.743 -1.0960 -0.1991  1.3427
  290MOL0     H38235   7.451   8.329   1.682  0.6462 -0.2395  0.1187
  290MOL0     H38236   7.454   8.449   1.878 -0.3867 -0.0073 -1.9791
  290MOL0     H38237   7.616   8.390   1.929 -0.2370  2.5043 -0.6940
  290MOL0     H38238   7.504   8.151   1.962  0.1556 -0.4580  2.4866
  290MOL0     H38239   7.441   8.265   2.073 -1.4119 -0.5151 -0.0919
  290MOL0     H38240   7.281   8.125   1.921 -3.9876  1.6188 -1.4701
  290MOL0     H38241   7.282   8.277   1.835  0.6899 -2.0044 -1.2417
  290MOL0     H38242   7.046   8.347   2.206 -1.0368  0.7103 -0.1104
  290MOL0     H38243   6.801   8.299   2.217 -0.2086  1.5915 -1.3807
  290MOL0     H38244   6.441   8.005   2.069 -1.4829 -1.1446  2.3929
  290MOL0     H38245   6.207   7.971   2.091 -0.0577  0.2772  0.0358
  290MOL0     H38246   5.998   8.322   2.093  1.3567 -0.4384  0.1390
  290MOL0     H38247   5.956   8.332   2.267  0.3768 -2.1738  2.1761
  290MOL0     H38248   5.768   8.174   2.235 -1.1368  1.5120 -0.5392
  290MOL0     H38249   5.810   8.157   2.071  2.7759  0.6166 -1.2898
  290MOL0     H38250   5.745   8.395   2.014 -1.8065  0.4993 -0.5674
  290MOL0     H38251   5.734   8.441   2.183 -0.8740 -1.3302  0.8302
  290MOL0     H38252   5.572   8.226   2.027 -3.4320 -0.4755 -0.0000
  290MOL0     H38253   5.543   8.259   2.198 -0.9619  0.2028 -0.0137
  290MOL0     H38254   5.509   8.477   2.000 -1.7963  1.1559  1.1996
  290MOL0     H38255   5.455   8.462   2.159 -3.9151 -1.5037  0.1755
  290MOL0     H38256   5.299   8.250   2.088 -0.4772  1.0596  0.9948
  290MOL0     H38257   5.350   8.277   1.923  2.0654 -2.7185  0.4636
  290MOL0     H38258   5.138   8.396   1.988 -0.4870  1.0205  0.6545
  290MOL0     H38259   5.223   8.493   2.103 -0.0227 -1.0309 -0.1706
  290MOL0     H38260   5.258   8.479   1.806  2.4024 -1.8158  1.3146
  290MOL0     H38261   5.359   8.585   1.897 -0.1732  0.3937 -3.6063
  290MOL0     H38262   6.183   8.360   2.271  0.7191  0.5269 -0.2346
  290MOL0     H38263   6.422   8.396   2.232  0.8271  0.0809  1.6291
  290MOL0     H38264   6.858   8.108   1.826 -3.9826  1.0788 -0.0669
  290MOL0     H38265   7.080   8.184   1.821 -1.5747  0.0790 -1.3205
  290MOL0     H38266   8.983   8.305   1.248  1.0285  0.0203  1.6559
  290MOL0     H38267   9.144   8.464   1.156 -0.0129 -0.6330  2.4154
  290MOL0     H38268   9.315   8.886   1.429  1.0207  0.5150 -0.4278
  290MOL0     H38269   9.461   9.081   1.412  2.3516 -0.5626 -0.9341
  290MOL0     H38270   9.683   9.191   1.311  1.2538  0.8124  0.2546
  290MOL0     H38271   9.546   9.295   1.342  1.4989  4.1086 -0.2985
  290MOL0     H38272   9.589   9.443   1.178 -1.6247 -3.2660 -0.7068
  290MOL0     H38273   9.714   9.451   1.296  0.4824  0.1670 -0.9732
  290MOL0     H38274   9.752   9.281   1.034 -2.2511 -2.2094  2.6109
  290MOL0     H38275   9.873   9.294   1.163  0.7558 -1.2036 -2.0852
  290MOL0     H38276   9.947   9.439   1.002  0.2791 -0.5788  0.4842
  290MOL0     H38277   9.780   9.502   0.960 -2.9529  3.5745  2.7569
  290MOL0     H38278   9.879   9.796   1.219 -0.5747 -1.4502  1.2561
  290MOL0     H38279   9.424   9.083   0.983  1.7735  0.4257  0.0458
  290MOL0     H38280   9.263   8.889   0.992  1.6298 -0.6478  0.0848
  291MOL0     O38281  10.697   1.460   6.944 -0.7221  0.2084  0.2733
  291MOL0     C38282  10.744   1.461   6.832 -0.1583 -0.2880  0.0251
  291MOL0     O38283  10.697   1.395   6.731  0.0534 -0.6436  0.0397
  291MOL0     C38284  10.574   1.334   6.727  1.1303 -0.9035 -0.0201
  291MOL0     C38285  10.456   1.362   6.798  0.1998  0.3740  0.1472
  291MOL0     C38286  10.337   1.291   6.773 -0.5257 -0.2528 -0.1938
  291MOL0     C38287  10.331   1.186   6.683  0.4615 -0.4509  0.5997
  291MOL0     O38288  10.204   1.133   6.653  0.2000  0.3162  0.3086
  291MOL0     C38289  10.187   1.030   6.547 -0.3591  0.0370 -0.2087
  291MOL0     C38290  10.037   0.991   6.511 -0.2715 -0.1785 -0.4980
  291MOL0     C38291   9.968   1.107   6.430  0.1611 -0.0564 -0.9503
  291MOL0     C38292   9.819   1.062   6.412 -0.0113 -0.6084 -0.2663
  291MOL0     C38293   9.727   1.178   6.372  0.3724 -0.0497 -0.1928
  291MOL0     C38294   9.583   1.129   6.363 -0.8895  0.4819  1.1302
  291MOL0     C38295   9.487   1.245   6.336  0.5531  0.5333 -0.3049
  291MOL0     C38296   9.348   1.197   6.299  0.2113 -0.9466 -0.6948
  291MOL0     N38297   9.258   1.314   6.304 -0.2767  0.5625 -0.0108
  291MOL0     C38298   9.203   1.373   6.186  0.7769  0.0163 -1.2093
  291MOL0     C38299   9.135   1.483   6.228  0.4054  0.2460 -0.1314
  291MOL0     C38300   9.056   1.583   6.149  0.5144  0.4677 -0.2090
  291MOL0     C38301   8.907   1.569   6.181  0.0766 -0.0065 -0.1177
  291MOL0     C38302   8.831   1.685   6.121 -0.0421  0.2847  0.2622
  291MOL0     C38303   8.684   1.678   6.158  0.0727  0.5134 -0.4790
  291MOL0     O38304   8.611   1.802   6.125  0.8731 -0.7772 -1.0011
  291MOL0     C38305   8.477   1.810   6.113  0.3741  0.8184  0.6729
  291MOL0     C38306   8.385   1.700   6.119 -0.4172 -0.8046 -0.2680
  291MOL0     C38307   8.252   1.720   6.080 -0.0592  0.0060 -0.3937
  291MOL0     C38308   8.194   1.850   6.066 -0.0725  1.0939 -0.3210
  291MOL0     C38309   8.052   1.867   6.028  0.3148 -0.0382  0.0515
  291MOL0     O38310   8.027   1.993   5.981 -0.0551  0.0930 -0.1835
  291MOL0     C38311   7.899   2.010   5.929  1.3351  0.4312 -0.0730
  291MOL0     C38312   7.884   2.038   5.793 -0.1131 -0.1220 -0.0544
  291MOL0     C38313   7.748   2.039   5.741  0.3265  0.7318  0.1635
  291MOL0     C38314   7.638   2.041   5.825  0.4435  0.1913 -0.7148
  291MOL0     O38315   7.504   2.054   5.791  0.1877  0.3124 -0.0309
  291MOL0     C38316   7.476   2.124   5.665  0.9905  0.6325 -0.6110
  291MOL0     C38317   7.338   2.200   5.683  0.0031 -0.0526  0.3456
  291MOL0     C38318   7.232   2.145   5.596 -0.5743  0.1561 -0.1646
  291MOL0     C38319   7.264   2.139   5.444  1.4091 -0.7559 -0.4217
  291MOL0     C38320   7.133   2.180   5.374  0.8378  0.3240  0.1723
  291MOL0     C38321   7.037   2.065   5.373 -0.5043  0.1877  0.0938
  291MOL0     C38322   6.909   2.090   5.281 -0.1782 -0.1069 -0.3635
  291MOL0     C38323   6.813   1.969   5.273 -0.0165 -0.3967 -0.5931
  291MOL0    Cl38324   6.702   1.979   5.135  0.1075  0.2482  0.5686
  291MOL0     C38325   7.657   2.019   5.963 -0.3064 -0.8353  0.2043
  291MOL0     C38326   7.785   1.999   6.014  0.5297  0.4167  0.3237
  291MOL0     O38327   7.974   1.773   6.032  0.0102 -0.1001  0.1976
  291MOL0     C38328   8.286   1.955   6.070 -0.8708  0.1377  0.3160
  291MOL0     C38329   8.424   1.940   6.089  0.6753 -0.1730  0.4577
  291MOL0     N38330   9.129   1.463   6.372  0.4650 -0.3998  0.5862
  291MOL0     N38331   9.204   1.377   6.410 -0.0523 -0.3791 -0.2413
  291MOL0     C38332  10.444   1.156   6.613 -0.0801 -0.3713  0.1428
  291MOL0     C38333  10.563   1.230   6.633  0.6009 -0.7206  0.4340
  291MOL0     C38334  10.851   1.555   6.799  0.0717 -0.3846  0.3512
  291MOL0     C38335  10.904   1.548   6.669  0.4213 -0.1130  0.4246
  291MOL0     C38336  11.008   1.626   6.627  0.0718  0.1288  0.2985
  291MOL0     C38337  11.049   1.734   6.710 -0.8916 -0.7046 -0.5129
  291MOL0     O38338  11.153   1.814   6.671 -0.4996  0.0406 -0.1379
  291MOL0     C38339  11.194   1.823   6.530  0.6272  1.4351 -0.2508
  291MOL0     C38340  11.306   1.924   6.508 -0.2507 -0.3859 -0.0422
  291MOL0     C38341  11.432   1.895   6.592  0.2137  0.1831  0.2420
  291MOL0     C38342  11.528   2.008   6.565 -0.4038  0.6446  0.3437
  291MOL0     C38343  11.641   2.014   6.655 -0.0931  0.3460 -0.6433
  291MOL0     C38344  11.730   2.034   6.738  0.4423 -0.2112  0.4377
  291MOL0     C38345  10.992   1.745   6.831 -0.0141  0.3667  0.8397
  291MOL0     C38346  10.896   1.661   6.877 -0.7605 -0.4284  0.3150
  291MOL0     H38347  10.451   1.440   6.873  1.8081 -0.0198  0.7143
  291MOL0     H38348  10.242   1.313   6.822  0.2259  0.1230  1.1308
  291MOL0     H38349  10.242   0.946   6.591  0.3221  0.2825 -0.5828
  291MOL0     H38350  10.231   1.051   6.450  0.9043  1.3032  0.5988
  291MOL0     H38351   9.982   0.985   6.605 -0.1511 -1.5141 -0.4837
  291MOL0     H38352  10.040   0.889   6.471  0.2106 -0.6384  0.6655
  291MOL0     H38353  10.004   1.132   6.329 -0.1107  0.4816 -0.9142
  291MOL0     H38354   9.973   1.199   6.488 -0.7305 -1.1119  0.8596
  291MOL0     H38355   9.816   0.990   6.330 -0.1961  1.8985 -2.6188
  291MOL0     H38356   9.776   1.014   6.500 -1.0547  0.0979 -0.3711
  291MOL0     H38357   9.751   1.200   6.268 -1.5080 -2.1043 -1.1570
  291MOL0     H38358   9.727   1.267   6.435  1.1118 -0.3502  0.2433
  291MOL0     H38359   9.572   1.067   6.452 -0.1105 -0.5713  0.5101
  291MOL0     H38360   9.566   1.061   6.279  2.4140  0.7637  0.0739
  291MOL0     H38361   9.481   1.300   6.431 -0.8078 -2.9971  1.8580
  291MOL0     H38362   9.533   1.297   6.252 -0.0649 -0.0066 -0.9985
  291MOL0     H38363   9.311   1.123   6.371 -1.9144  0.5671 -0.1328
  291MOL0     H38364   9.355   1.151   6.200  0.0316 -0.9181 -0.7203
  291MOL0     H38365   9.232   1.339   6.087  1.2769  0.6059 -1.2782
  291MOL0     H38366   9.081   1.585   6.042 -2.3499 -1.0507 -1.0318
  291MOL0     H38367   9.078   1.683   6.188  0.2768 -0.1832  1.6399
  291MOL0     H38368   8.903   1.567   6.290 -0.6805  0.0394 -0.1410
  291MOL0     H38369   8.863   1.480   6.135  0.1303  0.4359 -1.0636
  291MOL0     H38370   8.870   1.781   6.154 -0.1764  0.3025  0.3700
  291MOL0     H38371   8.842   1.699   6.013 -1.9177 -0.7516 -0.1179
  291MOL0     H38372   8.675   1.655   6.265  1.8009 -0.8642 -0.5872
  291MOL0     H38373   8.641   1.589   6.110  0.2150  0.2733 -0.1665
  291MOL0     H38374   8.424   1.600   6.134  0.3163 -0.9047 -2.4747
  291MOL0     H38375   8.188   1.633   6.074 -2.1867  1.5012 -0.4308
  291MOL0     H38376   7.973   2.042   5.732 -0.6888  1.6119 -0.8406
  291MOL0     H38377   7.726   2.052   5.635 -2.0594 -0.2145  0.4724
  291MOL0     H38378   7.456   2.056   5.582 -0.5943 -1.1807  1.1706
  291MOL0     H38379   7.555   2.195   5.638  2.8232 -1.4718 -1.0331
  291MOL0     H38380   7.348   2.308   5.667 -2.2433  0.4660  2.0009
  291MOL0     H38381   7.302   2.189   5.785  0.2501  2.7317  0.8217
  291MOL0     H38382   7.147   2.212   5.612 -1.9976 -0.3941 -4.2873
  291MOL0     H38383   7.190   2.049   5.625 -3.5231  0.0729 -3.9022
  291MOL0     H38384   7.335   2.219   5.424  1.0169  0.7078  3.2841
  291MOL0     H38385   7.298   2.040   5.413 -0.3986 -1.4040 -0.4935
  291MOL0     H38386   7.159   2.216   5.273 -2.3370  2.8593  0.0767
  291MOL0     H38387   7.089   2.272   5.413  1.0776  1.1262 -1.3423
  291MOL0     H38388   6.993   2.045   5.472 -0.0093 -0.6420  0.1553
  291MOL0     H38389   7.089   1.977   5.335  0.0488  1.5308 -2.5100
  291MOL0     H38390   6.841   2.162   5.328 -3.2096 -2.4321 -0.8061
  291MOL0     H38391   6.952   2.126   5.187 -0.9212  0.0662 -0.6446
  291MOL0     H38392   6.764   1.972   5.371  1.2113 -1.6463  0.0919
  291MOL0     H38393   6.860   1.870   5.275  2.8976  0.8743 -0.7564
  291MOL0     H38394   7.573   2.041   6.028 -1.0333  1.0388 -1.2544
  291MOL0     H38395   7.788   1.979   6.121 -0.8955  0.1233  0.3198
  291MOL0     H38396   8.259   2.059   6.054  0.2746  0.7447  2.0389
  291MOL0     H38397   8.484   2.030   6.087 -0.6920  0.7799  1.0306
  291MOL0     H38398  10.451   1.067   6.552 -1.7436 -0.8958  0.6554
  291MOL0     H38399  10.647   1.196   6.573  0.5218 -0.8147  0.3773
  291MOL0     H38400  10.876   1.468   6.601  1.8366  0.8301 -1.3514
  291MOL0     H38401  11.038   1.612   6.524 -1.0584  1.0566 -0.1765
  291MOL0     H38402  11.099   1.853   6.484 -0.3075  2.3909  2.1467
  291MOL0     H38403  11.223   1.724   6.494  2.4465  1.7472  0.2759
  291MOL0     H38404  11.332   1.911   6.403 -0.6251  1.0652 -0.3448
  291MOL0     H38405  11.282   2.030   6.521 -1.8978 -0.6629 -0.5862
  291MOL0     H38406  11.473   1.795   6.575  1.0714  0.4247  0.8258
  291MOL0     H38407  11.401   1.902   6.697 -2.3119  1.0786 -0.4792
  291MOL0     H38408  11.551   2.009   6.458  1.7376  2.3447  0.7608
  291MOL0     H38409  11.485   2.108   6.575  0.1780  0.8938  0.3820
  291MOL0     H38410  11.807   2.054   6.810  2.0247 -1.0142 -0.9613
  291MOL0     H38411  11.018   1.819   6.906  0.6638  1.4285 -0.4134
  291MOL0     H38412  10.840   1.675   6.969 -1.3675  2.6465 -0.4225
  292MOL0     O38413   6.101   0.985   9.386  0.3025 -0.5311  0.0765
  292MOL0     C38414   6.151   0.954   9.494 -0.2278  0.5657 -0.5587
  292MOL0     O38415   6.118   0.844   9.566 -0.0323  0.1437  0.0159
  292MOL0     C38416   6.011   0.773   9.511  0.7273  0.2703 -0.1203
  292MOL0     C38417   6.036   0.671   9.413  0.8200  0.5452 -0.1562
  292MOL0     C38418   5.930   0.580   9.389 -0.1396 -0.9233  0.0029
  292MOL0     C38419   5.806   0.589   9.439  0.7231  0.3006  0.8705
  292MOL0     O38420   5.715   0.491   9.407  0.7898 -0.1260 -0.5242
  292MOL0     C38421   5.718   0.377   9.491  0.0621 -0.6772 -0.5093
  292MOL0     C38422   5.571   0.337   9.480 -0.2774 -0.0230  0.0846
  292MOL0     C38423   5.477   0.450   9.530 -0.0852 -0.3040  0.2274
  292MOL0     C38424   5.329   0.406   9.545 -0.3088  0.3399 -0.4759
  292MOL0     C38425   5.239   0.511   9.613  0.4526  0.3978  1.0189
  292MOL0     C38426   5.097   0.457   9.585  1.1333 -0.6507 -0.8207
  292MOL0     C38427   4.983   0.569   9.603  0.2439  0.3098 -1.0669
  292MOL0     C38428   4.837   0.517   9.580 -0.4838  0.6511  0.1787
  292MOL0     N38429   4.730   0.615   9.619  0.2372  0.5100  0.0253
  292MOL0     C38430   4.737   0.744   9.660  0.0104  0.8297  0.4597
  292MOL0     C38431   4.609   0.773   9.679  0.6434 -0.0156  0.4289
  292MOL0     C38432   4.555   0.901   9.736  0.1621  0.2127 -0.2643
  292MOL0     C38433   4.599   1.023   9.653  0.0193 -0.8324 -0.1998
  292MOL0     C38434   4.561   1.157   9.725 -0.1052 -0.4876 -0.0501
  292MOL0     C38435   4.415   1.172   9.764  0.0147  0.3115 -0.0574
  292MOL0     O38436   4.335   1.129   9.647  0.1792 -0.3122  0.2656
  292MOL0     C38437   4.205   1.095   9.653 -0.5827  0.2558 -0.3860
  292MOL0     C38438   4.153   1.019   9.545  0.6560 -0.9095 -0.3272
  292MOL0     C38439   4.018   0.985   9.537 -0.3642 -0.5664  0.2166
  292MOL0     C38440   3.927   1.020   9.638  0.2651 -0.5930  0.3074
  292MOL0     C38441   3.780   0.991   9.641  0.2170  0.3455  0.1486
  292MOL0     O38442   3.740   0.898   9.548  0.1969  0.3399  0.5249
  292MOL0     C38443   3.614   0.842   9.562 -0.4613 -0.2206 -0.1039
  292MOL0     C38444   3.518   0.847   9.662  0.5689 -0.3794 -0.4023
  292MOL0     C38445   3.400   0.772   9.653  0.3551 -0.2005  0.0134
  292MOL0     C38446   3.373   0.707   9.536  0.4933  0.9815 -0.2965
  292MOL0     O38447   3.262   0.624   9.537  0.1317 -0.0747 -0.2414
  292MOL0     C38448   3.177   0.652   9.422 -0.8161 -0.0415  0.2158
  292MOL0     C38449   3.038   0.659   9.461 -0.5031 -0.3758  0.0418
  292MOL0     C38450   2.973   0.527   9.504 -0.6864 -0.3315 -0.0884
  292MOL0     C38451   2.824   0.533   9.514 -0.4677 -0.6715  0.6015
  292MOL0     C38452   2.779   0.390   9.531  0.2671 -0.6454 -0.7556
  292MOL0     C38453   2.626   0.387   9.548 -1.0231 -0.2539  0.0280
  292MOL0     C38454   2.559   0.252   9.561 -0.0004 -0.0968 -0.2896
  292MOL0     C38455   2.403   0.255   9.546  0.6116  0.2639  0.4870
  292MOL0    Cl38456   2.330   0.343   9.668  0.3996  0.1343  0.2048
  292MOL0     C38457   3.458   0.707   9.431  0.0995 -0.5123 -0.1025
  292MOL0     C38458   3.586   0.767   9.452 -0.2654  1.1875  0.7853
  292MOL0     O38459   3.710   1.043   9.727  0.7012 -0.1383  0.4266
  292MOL0     C38460   3.981   1.091   9.741  0.6838  0.4105  0.0075
  292MOL0     C38461   4.112   1.130   9.749 -0.6230  0.1492 -0.1643
  292MOL0     N38462   4.525   0.666   9.650 -0.8022  0.5492 -0.9165
  292MOL0     N38463   4.608   0.570   9.627  0.1808 -0.5892  0.2318
  292MOL0     C38464   5.783   0.696   9.527  0.7558  0.0285  0.3420
  292MOL0     C38465   5.887   0.783   9.572  0.3681  0.6869  0.6024
  292MOL0     C38466   6.249   1.051   9.552 -0.5943  0.0149 -0.1560
  292MOL0     C38467   6.289   1.039   9.684 -0.4263  0.2652  0.3683
  292MOL0     C38468   6.374   1.134   9.741 -0.4900  0.0410 -0.2444
  292MOL0     C38469   6.424   1.244   9.676 -0.1530 -0.2652 -0.0727
  292MOL0     O38470   6.515   1.330   9.749  0.3640  0.8226  0.6250
  292MOL0     C38471   6.638   1.326   9.684  0.6585  0.1429 -0.1124
  292MOL0     C38472   6.750   1.340   9.783  0.4345  0.5580 -0.8066
  292MOL0     C38473   6.892   1.368   9.726  1.0371  0.1332 -0.8000
  292MOL0     C38474   6.946   1.249   9.654  0.3726  0.1876  1.1688
  292MOL0     C38475   7.083   1.267   9.615 -1.1322  0.3370 -0.4783
  292MOL0     C38476   7.201   1.288   9.593 -0.4845  0.5263 -0.5407
  292MOL0     C38477   6.393   1.248   9.536 -0.3015 -0.2062 -0.5355
  292MOL0     C38478   6.307   1.157   9.471  0.0767  0.5173 -0.6480
  292MOL0     H38479   6.133   0.650   9.368  0.1934  0.6920 -1.6320
  292MOL0     H38480   5.950   0.493   9.327  0.9967  1.7787 -3.7851
  292MOL0     H38481   5.748   0.392   9.595 -0.3743 -0.3256 -0.4323
  292MOL0     H38482   5.789   0.308   9.446 -0.1888 -1.0761 -0.3051
  292MOL0     H38483   5.536   0.250   9.536 -3.5940 -0.0718 -1.8204
  292MOL0     H38484   5.552   0.322   9.373  0.8058  3.7359 -0.7890
  292MOL0     H38485   5.486   0.522   9.448  1.6309 -3.2600 -2.4336
  292MOL0     H38486   5.515   0.499   9.620  1.4705 -1.9317  0.5359
  292MOL0     H38487   5.303   0.386   9.441 -2.9179 -2.8223  0.6303
  292MOL0     H38488   5.333   0.325   9.618  2.8104  2.9304  2.5944
  292MOL0     H38489   5.237   0.607   9.561  0.6810  1.0247  2.1357
  292MOL0     H38490   5.268   0.504   9.718  3.1888  0.9705  0.3752
  292MOL0     H38491   5.067   0.376   9.652  1.4001  1.5780  2.1913
  292MOL0     H38492   5.089   0.420   9.482 -1.2862 -1.0088 -0.5620
  292MOL0     H38493   4.983   0.604   9.707  0.6430 -0.2848 -0.8607
  292MOL0     H38494   5.009   0.656   9.541 -1.3303  1.1294 -0.6366
  292MOL0     H38495   4.830   0.425   9.639  1.8493 -0.1733 -0.7260
  292MOL0     H38496   4.824   0.495   9.473 -1.4923  0.7227  0.2759
  292MOL0     H38497   4.827   0.804   9.670  1.0418 -0.8326  1.4954
  292MOL0     H38498   4.590   0.924   9.837  3.1247  4.0478 -1.9210
  292MOL0     H38499   4.446   0.892   9.745  0.1909  1.2543  1.5142
  292MOL0     H38500   4.555   1.014   9.553 -0.9061 -0.1700  0.1371
  292MOL0     H38501   4.709   1.021   9.649  0.1489  1.9731  0.1438
  292MOL0     H38502   4.612   1.159   9.822 -1.2033 -0.5771  0.5514
  292MOL0     H38503   4.586   1.236   9.655 -1.5982 -0.5747 -0.7115
  292MOL0     H38504   4.392   1.278   9.781  0.7821  0.5799 -0.6574
  292MOL0     H38505   4.395   1.108   9.850 -1.6745  0.0027 -0.6237
  292MOL0     H38506   4.203   0.984   9.455  1.4220 -0.4974 -0.0744
  292MOL0     H38507   3.986   0.933   9.447  2.3889 -1.1820 -0.5025
  292MOL0     H38508   3.531   0.896   9.758  0.2119 -0.9629 -0.0513
  292MOL0     H38509   3.333   0.764   9.738  0.6466 -1.0667  0.1694
  292MOL0     H38510   3.188   0.566   9.357  0.8206  0.3222 -0.0396
  292MOL0     H38511   3.202   0.748   9.374 -0.8321 -0.3752 -0.4678
  292MOL0     H38512   2.977   0.693   9.376  0.0558  0.3750 -0.0723
  292MOL0     H38513   3.030   0.721   9.551 -0.9664 -1.5509  0.8309
  292MOL0     H38514   3.024   0.487   9.592  1.6050  1.8538 -0.3082
  292MOL0     H38515   2.985   0.461   9.417 -3.3216 -0.5841 -0.3378
  292MOL0     H38516   2.797   0.580   9.609 -0.1771  2.0675 -0.5556
  292MOL0     H38517   2.787   0.585   9.425  1.2737  0.5667  0.5300
  292MOL0     H38518   2.829   0.349   9.619 -0.9817  1.9497  1.2804
  292MOL0     H38519   2.808   0.327   9.446  2.0060 -1.5314  0.4284
  292MOL0     H38520   2.589   0.431   9.455  2.7242 -0.5363 -1.7898
  292MOL0     H38521   2.605   0.446   9.637  1.3176  0.2714  0.3013
  292MOL0     H38522   2.609   0.186   9.490  2.0612  1.8467 -0.7649
  292MOL0     H38523   2.581   0.212   9.660 -1.3759 -0.3979 -0.0861
  292MOL0     H38524   2.367   0.152   9.550 -1.6719  1.0555  2.1287
  292MOL0     H38525   2.377   0.309   9.455 -0.8636  1.1322  1.3878
  292MOL0     H38526   3.442   0.649   9.340  1.9218 -1.4453  0.1273
  292MOL0     H38527   3.654   0.764   9.368  0.3311 -1.6822  1.2576
  292MOL0     H38528   3.915   1.115   9.825 -0.3566  1.5638 -1.0961
  292MOL0     H38529   4.140   1.199   9.828  0.7237  2.1047 -2.1969
  292MOL0     H38530   5.687   0.710   9.576  0.8489 -0.1283  0.5779
  292MOL0     H38531   5.872   0.861   9.647  0.0364  0.5836  0.6443
  292MOL0     H38532   6.256   0.954   9.743  0.0333  1.5528  2.6061
  292MOL0     H38533   6.400   1.127   9.846 -0.1869 -0.2025 -0.3336
  292MOL0     H38534   6.636   1.408   9.611 -1.3330  0.2167 -0.0287
  292MOL0     H38535   6.656   1.238   9.622  0.3026  1.3229 -1.9680
  292MOL0     H38536   6.729   1.422   9.852 -0.2472 -0.3744  0.1106
  292MOL0     H38537   6.742   1.244   9.834 -0.7417  0.1767 -1.6656
  292MOL0     H38538   6.953   1.379   9.816 -0.4612 -1.1426  0.4385
  292MOL0     H38539   6.900   1.455   9.660 -2.3819  0.2390 -1.2381
  292MOL0     H38540   6.946   1.154   9.708 -0.6612 -0.1474  0.6165
  292MOL0     H38541   6.884   1.240   9.564  1.8203 -0.2877  0.1769
  292MOL0     H38542   7.303   1.321   9.587 -0.2693  1.1887  3.5948
  292MOL0     H38543   6.442   1.329   9.482  1.8419 -0.1732  1.2832
  292MOL0     H38544   6.291   1.154   9.363  0.1436 -1.2205 -0.6374
  293MOL0     O38545   5.933   8.118   9.283  0.3754 -0.3974  0.4840
  293MOL0     C38546   5.857   8.060   9.355 -0.0786 -0.3486  0.9937
  293MOL0     O38547   5.891   7.981   9.460 -0.2539 -0.1258 -0.3594
  293MOL0     C38548   6.020   7.952   9.493 -0.7410 -0.3438 -0.2581
  293MOL0     C38549   6.047   7.818   9.517  0.9019 -0.4024 -0.0020
  293MOL0     C38550   6.179   7.775   9.534  0.1958  1.6207  0.7637
  293MOL0     C38551   6.280   7.860   9.542  0.1655  0.2542 -0.8272
  293MOL0     O38552   6.412   7.826   9.561  0.1947 -0.1667  0.4296
  293MOL0     C38553   6.438   7.707   9.638 -0.0158 -0.7389  0.7473
  293MOL0     C38554   6.586   7.721   9.689 -0.1253 -0.2122 -0.4435
  293MOL0     C38555   6.680   7.744   9.571 -0.2752  0.2639  0.0228
  293MOL0     C38556   6.808   7.798   9.618 -0.9902  0.1994  0.0408
  293MOL0     C38557   6.929   7.825   9.520  0.6049  0.5243  0.3623
  293MOL0     C38558   6.969   7.698   9.452  0.3611 -0.2659  0.8869
  293MOL0     C38559   7.053   7.723   9.340 -0.2966  0.4248  0.4922
  293MOL0     C38560   7.191   7.785   9.358 -0.1507  0.2837 -0.3037
  293MOL0     N38561   7.241   7.810   9.227 -0.8698  0.3866 -0.0901
  293MOL0     C38562   7.197   7.900   9.130  0.1654 -0.1259  0.8696
  293MOL0     C38563   7.268   7.869   9.021  0.1683  0.0911  0.1040
  293MOL0     C38564   7.251   7.945   8.898  0.3422 -0.0256  0.5243
  293MOL0     C38565   7.115   7.929   8.829  0.5810  1.5502  0.5062
  293MOL0     C38566   7.109   7.992   8.689 -0.8631  0.6493  0.1674
  293MOL0     C38567   7.123   8.151   8.686  0.0786  0.1188  0.1349
  293MOL0     O38568   7.044   8.210   8.791  0.8264 -0.5191 -0.1020
  293MOL0     C38569   7.023   8.349   8.793 -1.1625 -0.5092 -0.0517
  293MOL0     C38570   6.939   8.395   8.889  0.4762  0.0902  0.0523
  293MOL0     C38571   6.899   8.530   8.887 -0.2190  0.5733 -0.2842
  293MOL0     C38572   6.936   8.619   8.784 -0.8593 -0.6860  0.3394
  293MOL0     C38573   6.876   8.761   8.774 -0.1221  0.6511 -0.0228
  293MOL0     O38574   6.894   8.826   8.652 -0.6053 -0.0746  0.1884
  293MOL0     C38575   6.821   8.937   8.637  0.7076 -0.1598  0.0174
  293MOL0     C38576   6.888   9.055   8.606 -0.1473 -0.3002  0.2017
  293MOL0     C38577   6.807   9.172   8.591 -0.1815  0.5105 -0.6985
  293MOL0     C38578   6.664   9.174   8.610  0.7700 -0.1255 -0.1225
  293MOL0     O38579   6.599   9.292   8.584 -0.3769 -0.4493  0.2595
  293MOL0     C38580   6.466   9.318   8.640 -0.0566 -0.7790  0.6628
  293MOL0     C38581   6.373   9.326   8.526  0.0262  0.6652 -0.5221
  293MOL0     C38582   6.233   9.326   8.576  0.7944 -0.5209 -0.2594
  293MOL0     C38583   6.134   9.356   8.465  0.3525  0.3307  0.1437
  293MOL0     C38584   5.993   9.341   8.527  0.8179  0.1720  0.3360
  293MOL0     C38585   5.957   9.456   8.610 -0.1590 -0.4141  0.0772
  293MOL0     C38586   5.800   9.451   8.632  0.0612 -0.5043 -0.2669
  293MOL0     C38587   5.758   9.546   8.748  1.0129 -0.1681  0.0989
  293MOL0    Cl38588   5.783   9.716   8.702 -0.0994 -0.2712  0.1672
  293MOL0     C38589   6.602   9.051   8.643 -0.2292 -0.8211  0.0375
  293MOL0     C38590   6.675   8.935   8.657 -0.0113  0.4632 -0.1658
  293MOL0     O38591   6.815   8.807   8.869 -0.6461  0.3146 -0.8193
  293MOL0     C38592   7.032   8.570   8.695 -0.7140 -0.7270  0.2024
  293MOL0     C38593   7.067   8.433   8.693 -0.7605  0.0459  0.4087
  293MOL0     N38594   7.357   7.764   9.048  0.0187 -0.8802  0.1824
  293MOL0     N38595   7.346   7.737   9.173 -0.4568 -0.8608 -0.1068
  293MOL0     C38596   6.253   7.995   9.532  0.2906 -0.0079  1.0263
  293MOL0     C38597   6.121   8.045   9.515  0.3718  0.2897  0.0848
  293MOL0     C38598   5.718   8.073   9.320 -0.3729 -0.2469 -0.3913
  293MOL0     C38599   5.613   8.023   9.413 -1.0305 -0.5396  0.1375
  293MOL0     C38600   5.482   8.047   9.384  0.3876  0.8889  0.3725
  293MOL0     C38601   5.434   8.114   9.274 -0.0544 -0.1004 -0.4604
  293MOL0     O38602   5.298   8.116   9.263  0.6686 -0.2929  0.4897
  293MOL0     C38603   5.246   8.177   9.147  0.2407 -0.0706  0.3652
  293MOL0     C38604   5.096   8.168   9.147 -0.2501  0.2798  0.0369
  293MOL0     C38605   5.048   8.254   9.033 -0.0644 -0.8056  1.1960
  293MOL0     C38606   4.905   8.223   8.991  0.0626 -0.1373  0.7644
  293MOL0     C38607   4.897   8.091   8.932  0.6507 -0.4950  0.5431
  293MOL0     C38608   4.898   7.978   8.889  1.0401  0.0260  0.0444
  293MOL0     C38609   5.536   8.171   9.194  1.0350  0.4926 -0.1985
  293MOL0     C38610   5.670   8.154   9.213 -0.5403  0.2057  0.0959
  293MOL0     H38611   5.958   7.755   9.512 -0.0712  1.0024 -1.4844
  293MOL0     H38612   6.195   7.668   9.525  2.1363  2.0494 -2.7852
  293MOL0     H38613   6.424   7.614   9.582 -2.0286  0.2856 -0.5525
  293MOL0     H38614   6.376   7.696   9.727 -0.9154 -2.3117 -0.0376
  293MOL0     H38615   6.624   7.638   9.750  2.7848  2.0216  1.0367
  293MOL0     H38616   6.594   7.810   9.751  0.2942  0.0409 -0.8549
  293MOL0     H38617   6.644   7.803   9.486  0.0665 -0.6353 -0.7662
  293MOL0     H38618   6.688   7.641   9.534 -0.8587  0.4145 -0.5244
  293MOL0     H38619   6.789   7.897   9.659 -1.2950  0.0630  0.2295
  293MOL0     H38620   6.844   7.731   9.697 -1.7887  0.8227  0.9578
  293MOL0     H38621   7.010   7.863   9.583 -1.0985  1.6170  1.9964
  293MOL0     H38622   6.896   7.909   9.458 -2.4433 -0.3220  0.6483
  293MOL0     H38623   6.878   7.646   9.419  0.0999 -0.3617  1.7130
  293MOL0     H38624   7.022   7.633   9.522  0.4923 -1.3227 -0.1618
  293MOL0     H38625   7.063   7.628   9.286 -4.0438 -0.3788  0.8800
  293MOL0     H38626   6.997   7.786   9.269 -1.2807 -0.5566  0.3584
  293MOL0     H38627   7.251   7.715   9.417 -1.1424 -1.5401 -1.3342
  293MOL0     H38628   7.197   7.883   9.405 -3.2525  1.9257 -2.9153
  293MOL0     H38629   7.113   7.968   9.141 -1.7618 -2.1304 -0.5397
  293MOL0     H38630   7.324   7.921   8.820 -2.1753  2.9992 -3.1475
  293MOL0     H38631   7.256   8.052   8.921 -0.5996  0.1908 -0.2168
  293MOL0     H38632   7.038   7.968   8.896  1.2660 -0.8413  2.8649
  293MOL0     H38633   7.089   7.823   8.824  2.5678  1.0518  0.1059
  293MOL0     H38634   7.191   7.961   8.623 -0.1219 -2.5949  2.3425
  293MOL0     H38635   7.018   7.965   8.635 -0.8951  0.3426  0.3691
  293MOL0     H38636   7.095   8.199   8.592  1.2237  1.9033  0.6702
  293MOL0     H38637   7.229   8.167   8.705  0.4425 -1.3969 -0.4077
  293MOL0     H38638   6.901   8.323   8.961  0.2124  1.5192  1.3965
  293MOL0     H38639   6.839   8.554   8.974 -0.5950 -1.5695  0.0998
  293MOL0     H38640   6.994   9.071   8.595 -0.3125  1.9440  1.2663
  293MOL0     H38641   6.865   9.245   8.536  0.5848 -0.4177 -1.1564
  293MOL0     H38642   6.473   9.423   8.672 -2.0314  0.4993 -2.5207
  293MOL0     H38643   6.438   9.251   8.722 -3.0641  1.3617  1.6104
  293MOL0     H38644   6.394   9.228   8.481  1.2710 -0.1129  1.5872
  293MOL0     H38645   6.392   9.411   8.460  3.5056  0.7784  0.4349
  293MOL0     H38646   6.215   9.404   8.651  0.5364 -1.8490  1.0875
  293MOL0     H38647   6.210   9.230   8.623 -0.9058 -0.8506 -1.6276
  293MOL0     H38648   6.146   9.453   8.416  1.2927 -0.4861 -1.3383
  293MOL0     H38649   6.151   9.270   8.399 -0.1352 -0.8450  1.5004
  293MOL0     H38650   5.982   9.251   8.588 -1.1310 -0.3546 -0.7395
  293MOL0     H38651   5.920   9.322   8.448  2.7646 -2.9285 -0.9135
  293MOL0     H38652   5.976   9.547   8.552  0.0228 -1.7716 -2.1317
  293MOL0     H38653   6.006   9.449   8.708 -1.9141 -0.8286  0.9586
  293MOL0     H38654   5.753   9.494   8.543  1.2000  1.7479  0.1362
  293MOL0     H38655   5.763   9.349   8.632 -1.2683 -0.0472 -1.1152
  293MOL0     H38656   5.795   9.543   8.851  1.6612 -1.9740 -0.1430
  293MOL0     H38657   5.650   9.527   8.751  1.0886 -0.8236 -0.7335
  293MOL0     H38658   6.495   9.041   8.654 -0.2323  0.3937  1.4850
  293MOL0     H38659   6.625   8.847   8.696 -0.3576  0.5772 -0.3519
  293MOL0     H38660   7.067   8.637   8.617 -1.0351  0.6544  1.1967
  293MOL0     H38661   7.146   8.394   8.629 -0.6781  2.7014 -1.2849
  293MOL0     H38662   6.336   8.066   9.531  0.4458 -0.1575 -1.6095
  293MOL0     H38663   6.097   8.150   9.506  0.4643  0.3415  0.4302
  293MOL0     H38664   5.644   7.962   9.497  0.0604 -2.9981 -1.9116
  293MOL0     H38665   5.412   8.005   9.456  1.6357  2.1514  2.4242
  293MOL0     H38666   5.296   8.138   9.057 -0.7343  1.6268 -0.9597
  293MOL0     H38667   5.260   8.285   9.156 -2.4236  0.3904 -0.2138
  293MOL0     H38668   5.065   8.064   9.139  0.3028  0.2058 -1.4415
  293MOL0     H38669   5.059   8.205   9.243  0.0405  0.6454  0.0109
  293MOL0     H38670   5.112   8.244   8.946 -1.0754  0.2994  0.2989
  293MOL0     H38671   5.040   8.357   9.069 -0.2985 -0.7434  0.9704
  293MOL0     H38672   4.844   8.227   9.082 -0.8799  0.0049  0.1321
  293MOL0     H38673   4.869   8.295   8.917 -0.4688 -0.6610  0.5022
  293MOL0     H38674   4.914   7.875   8.865  2.4853 -0.0493  1.1306
  293MOL0     H38675   5.512   8.222   9.101 -1.3205 -2.5518 -1.4369
  293MOL0     H38676   5.736   8.209   9.146  0.5311  0.6220  1.4403
  294MOL0     O38677   3.420   8.717   8.304  0.2608 -0.5652  0.0545
  294MOL0     C38678   3.384   8.681   8.189  0.1610  1.0062 -0.4822
  294MOL0     O38679   3.464   8.672   8.078 -0.5562  0.4099  0.4058
  294MOL0     C38680   3.595   8.687   8.089 -0.4178  0.0854  0.2039
  294MOL0     C38681   3.677   8.574   8.105  0.4733  0.0137  0.6604
  294MOL0     C38682   3.817   8.586   8.126 -0.0799  0.6187 -0.5799
  294MOL0     C38683   3.874   8.714   8.133  0.3947 -0.0393 -0.2382
  294MOL0     O38684   4.007   8.718   8.157 -0.3466 -0.0746  0.0127
  294MOL0     C38685   4.046   8.805   8.261 -0.7617 -0.2874  0.3953
  294MOL0     C38686   4.195   8.787   8.304  0.1783  1.1091 -0.0931
  294MOL0     C38687   4.289   8.853   8.207 -0.5264  0.1301 -0.1283
  294MOL0     C38688   4.276   9.002   8.189  0.4049 -0.1130 -0.5311
  294MOL0     C38689   4.421   9.066   8.186  1.2812 -0.0693  0.2117
  294MOL0     C38690   4.517   9.008   8.077  0.0140 -0.4151 -0.1681
  294MOL0     C38691   4.636   9.095   8.044  0.7514  0.5260  0.1495
  294MOL0     C38692   4.613   9.227   7.969 -0.5378  0.7808  0.3248
  294MOL0     N38693   4.595   9.191   7.826  0.0097  0.7744 -0.0832
  294MOL0     C38694   4.476   9.164   7.766 -0.6668  0.3450  0.3153
  294MOL0     C38695   4.504   9.135   7.646 -1.5725 -0.1641  0.7879
  294MOL0     C38696   4.407   9.105   7.531  1.0783 -0.7920  0.5413
  294MOL0     C38697   4.263   9.151   7.534 -0.1805  0.4833 -0.2962
  294MOL0     C38698   4.180   9.100   7.418 -0.2616  0.2974 -0.1239
  294MOL0     C38699   4.027   9.134   7.429  0.1156 -0.4750 -0.4425
  294MOL0     O38700   3.980   9.106   7.560  0.3689  0.0813  0.7721
  294MOL0     C38701   3.854   9.046   7.566  0.2732 -0.3180 -0.0772
  294MOL0     C38702   3.746   9.084   7.481  0.7111 -0.4518  0.0578
  294MOL0     C38703   3.617   9.036   7.493  0.1774 -0.9145 -0.0122
  294MOL0     C38704   3.581   8.946   7.594  0.1265  0.1562 -1.6630
  294MOL0     C38705   3.442   8.895   7.605  0.7142  0.2852 -0.0196
  294MOL0     O38706   3.365   8.889   7.494 -0.0293  0.6070  0.0539
  294MOL0     C38707   3.229   8.851   7.495  0.2797 -0.1374 -0.7260
  294MOL0     C38708   3.147   8.902   7.396 -0.4924  0.4294  0.3786
  294MOL0     C38709   3.021   8.854   7.381  0.3114  0.3359  0.3238
  294MOL0     C38710   2.972   8.752   7.462  0.4865 -0.4938 -0.6616
  294MOL0     O38711   2.852   8.687   7.445  0.1596 -0.3613 -0.2329
  294MOL0     C38712   2.754   8.765   7.368  0.5613  0.6617 -0.1332
  294MOL0     C38713   2.616   8.702   7.394  0.2785  0.4385  0.9160
  294MOL0     C38714   2.479   8.773   7.335  0.2430  0.5002 -0.2562
  294MOL0     C38715   2.357   8.694   7.363  0.6717  0.1708 -0.2575
  294MOL0     C38716   2.229   8.754   7.308 -0.3742 -0.0018  0.9213
  294MOL0     C38717   2.109   8.680   7.376  0.7169 -0.6325 -0.5110
  294MOL0     C38718   1.969   8.752   7.352 -0.3392  0.8046  0.1372
  294MOL0     C38719   1.863   8.672   7.423  0.5940 -1.0644  0.6970
  294MOL0    Cl38720   1.706   8.744   7.401 -0.1422 -0.0039  0.3855
  294MOL0     C38721   3.039   8.717   7.578 -0.6351  0.2651 -0.3095
  294MOL0     C38722   3.174   8.760   7.594  0.4999  0.0280  0.3336
  294MOL0     O38723   3.406   8.868   7.718 -0.4275 -0.3019 -0.2856
  294MOL0     C38724   3.687   8.910   7.684 -0.4037  0.0032 -0.0813
  294MOL0     C38725   3.818   8.960   7.666  0.5006  1.3196 -0.5200
  294MOL0     N38726   4.640   9.149   7.622 -0.0390  0.8791  0.2051
  294MOL0     N38727   4.692   9.182   7.739 -0.9587  0.4786  0.1889
  294MOL0     C38728   3.792   8.826   8.111 -0.6711  0.3548 -1.1414
  294MOL0     C38729   3.652   8.807   8.086 -0.2464 -1.5793  1.0693
  294MOL0     C38730   3.252   8.629   8.186 -0.1487 -0.2633  1.0063
  294MOL0     C38731   3.188   8.632   8.058  0.4114 -0.5312 -0.3160
  294MOL0     C38732   3.057   8.591   8.048  0.6720 -0.9880 -0.3190
  294MOL0     C38733   2.982   8.548   8.161 -0.1600  0.3764  0.5110
  294MOL0     O38734   2.853   8.514   8.144  1.1460  0.8738  0.2909
  294MOL0     C38735   2.795   8.433   8.248 -0.2958 -0.4847 -0.1491
  294MOL0     C38736   2.656   8.383   8.218  0.3244  0.7688  0.6534
  294MOL0     C38737   2.665   8.281   8.100  0.0027 -0.1484  0.7123
  294MOL0     C38738   2.546   8.181   8.112  0.1923 -0.6952  1.0751
  294MOL0     C38739   2.562   8.096   8.228 -1.2266  0.2113 -0.8833
  294MOL0     C38740   2.573   8.021   8.320  0.0585  0.3963 -0.8651
  294MOL0     C38741   3.047   8.552   8.286  0.9225 -0.6828 -0.1198
  294MOL0     C38742   3.180   8.589   8.293  0.3279 -0.6881 -0.3992
  294MOL0     H38743   3.629   8.476   8.109  1.5647 -0.5752 -0.0880
  294MOL0     H38744   3.877   8.496   8.136  1.9518  1.8032 -1.4563
  294MOL0     H38745   3.980   8.784   8.346  0.0443  2.6256  1.8814
  294MOL0     H38746   4.029   8.910   8.236 -1.0344  0.0252  1.8149
  294MOL0     H38747   4.211   8.679   8.303 -2.2161  0.6070 -3.6392
  294MOL0     H38748   4.206   8.824   8.406 -0.7057 -1.1062  0.8603
  294MOL0     H38749   4.284   8.812   8.106  3.5872 -1.3683  0.0707
  294MOL0     H38750   4.392   8.825   8.233  0.2995  3.2729  0.3596
  294MOL0     H38751   4.231   9.020   8.091  0.0249  0.3659 -0.2687
  294MOL0     H38752   4.208   9.040   8.265  0.5275 -2.4144  0.8392
  294MOL0     H38753   4.477   9.049   8.277  0.6013 -1.8450  0.3368
  294MOL0     H38754   4.412   9.174   8.169  2.6119 -0.1899 -1.5632
  294MOL0     H38755   4.458   9.006   7.985  2.7450  1.1695 -2.0921
  294MOL0     H38756   4.541   8.904   8.105 -0.8082 -0.3562  0.8036
  294MOL0     H38757   4.684   9.123   8.138  0.4203  1.0979  0.1519
  294MOL0     H38758   4.711   9.032   7.995  1.7214 -0.9273  3.2147
  294MOL0     H38759   4.704   9.287   7.978 -0.0753 -0.1297  2.2123
  294MOL0     H38760   4.531   9.284   8.013 -0.1783 -1.1958  3.9412
  294MOL0     H38761   4.375   9.157   7.804 -2.2261 -0.6689 -3.4921
  294MOL0     H38762   4.412   8.996   7.531 -1.8648 -1.0927  3.5724
  294MOL0     H38763   4.458   9.144   7.443  2.4066 -3.4043  0.0390
  294MOL0     H38764   4.264   9.261   7.535  1.3213  0.4921  2.0669
  294MOL0     H38765   4.213   9.129   7.629 -1.4506 -1.1291 -1.2751
  294MOL0     H38766   4.216   9.132   7.320 -0.1275  0.1247 -0.1311
  294MOL0     H38767   4.203   8.993   7.423  2.7775  0.8684  0.5902
  294MOL0     H38768   3.976   9.073   7.353 -1.0726  0.4174 -0.3976
  294MOL0     H38769   4.012   9.239   7.405 -1.9728 -0.5686  0.2537
  294MOL0     H38770   3.762   9.152   7.398  2.6252 -2.2930 -1.2018
  294MOL0     H38771   3.543   9.075   7.424 -1.9993 -0.1314  2.5573
  294MOL0     H38772   3.197   8.966   7.325  2.7263 -2.4208 -0.1810
  294MOL0     H38773   2.972   8.880   7.288 -0.4832 -2.4507 -0.1444
  294MOL0     H38774   2.764   8.756   7.260  1.7191 -2.1469  0.1230
  294MOL0     H38775   2.762   8.870   7.397 -2.2479  2.2520 -4.2998
  294MOL0     H38776   2.616   8.709   7.503  2.0511 -0.9302  1.0591
  294MOL0     H38777   2.610   8.598   7.360 -0.7428 -0.2375  2.9972
  294MOL0     H38778   2.494   8.796   7.229  2.8454  0.3760  0.0109
  294MOL0     H38779   2.482   8.873   7.380  0.7915  2.0410 -3.4195
  294MOL0     H38780   2.373   8.593   7.322  0.1702  0.4386 -1.1399
  294MOL0     H38781   2.343   8.682   7.470  0.3188  0.0214 -0.3184
  294MOL0     H38782   2.229   8.732   7.201 -2.7429  0.6389  0.7277
  294MOL0     H38783   2.219   8.862   7.327 -0.8271  0.3981 -1.2294
  294MOL0     H38784   2.125   8.659   7.483 -3.0502  3.4748  1.1394
  294MOL0     H38785   2.111   8.577   7.338 -1.9016 -0.6792 -0.6555
  294MOL0     H38786   1.966   8.855   7.388 -1.6460  0.6697  0.4735
  294MOL0     H38787   1.942   8.745   7.246 -4.0890  1.5398  0.9103
  294MOL0     H38788   1.885   8.659   7.529 -1.6390 -1.0302  1.2259
  294MOL0     H38789   1.861   8.571   7.381  2.2500 -1.0057  0.3917
  294MOL0     H38790   3.010   8.642   7.651  2.3171  0.2633  1.0098
  294MOL0     H38791   3.231   8.717   7.676 -0.5061  0.6061  1.3516
  294MOL0     H38792   3.668   8.826   7.750 -0.9739 -2.2607 -2.9251
  294MOL0     H38793   3.896   8.937   7.737  0.6529 -1.0218 -1.3519
  294MOL0     H38794   3.836   8.925   8.105 -2.6039  1.2220 -2.0239
  294MOL0     H38795   3.591   8.893   8.062  3.9082  1.6786  1.0526
  294MOL0     H38796   3.242   8.664   7.970  1.1896 -0.5214  0.1550
  294MOL0     H38797   3.011   8.599   7.950  0.2879  3.7888  0.0422
  294MOL0     H38798   2.781   8.487   8.343 -3.1843 -2.2420  0.5682
  294MOL0     H38799   2.857   8.345   8.267 -1.0638 -1.2121 -0.9033
  294MOL0     H38800   2.617   8.340   8.310 -1.0157  1.9955  0.6988
  294MOL0     H38801   2.580   8.461   8.204 -0.3174 -0.2359 -2.1778
  294MOL0     H38802   2.756   8.223   8.086 -0.1881  0.0509 -1.8167
  294MOL0     H38803   2.656   8.333   8.004 -1.2849 -0.3030  0.7247
  294MOL0     H38804   2.453   8.236   8.132 -0.1198 -0.9826  0.4462
  294MOL0     H38805   2.548   8.119   8.022 -1.0842  2.0404 -1.0072
  294MOL0     H38806   2.565   7.966   8.411  0.7827 -1.5370 -1.9135
  294MOL0     H38807   2.990   8.516   8.371 -0.6294  1.4264 -0.1836
  294MOL0     H38808   3.229   8.601   8.389  0.0325 -1.8650 -0.0945
  295MOL0     O38809   6.492   0.409   6.318  0.6608  0.5659  0.5782
  295MOL0     C38810   6.436   0.353   6.418 -0.6334 -0.6327 -0.7027
  295MOL0     O38811   6.500   0.264   6.502  0.6339  0.2602  0.3797
  295MOL0     C38812   6.633   0.238   6.496 -0.7080  0.4208  1.0449
  295MOL0     C38813   6.732   0.333   6.466 -0.0338 -0.3113 -0.0638
  295MOL0     C38814   6.866   0.287   6.462 -1.1058 -0.0062 -0.7968
  295MOL0     C38815   6.904   0.150   6.488  0.4069  0.4599  0.7226
  295MOL0     O38816   7.037   0.127   6.481  0.2243  0.0158 -0.1418
  295MOL0     C38817   7.078  -0.011   6.470 -0.6460  0.1135  0.1681
  295MOL0     C38818   7.101  -0.064   6.607  0.3372  0.9906 -0.1588
  295MOL0     C38819   7.235  -0.037   6.670  0.2816 -0.2661  0.1006
  295MOL0     C38820   7.339  -0.126   6.603  0.2385  0.5164  0.0812
  295MOL0     C38821   7.485  -0.105   6.656  0.1451  0.3112 -0.6686
  295MOL0     C38822   7.568  -0.231   6.627  0.7692  0.1345  0.0618
  295MOL0     C38823   7.706  -0.209   6.673 -0.2604 -0.8402 -0.3273
  295MOL0     C38824   7.791  -0.328   6.674  0.4748  0.2251  0.6769
  295MOL0     N38825   7.861  -0.349   6.547 -0.3370 -0.7919 -0.5567
  295MOL0     C38826   7.797  -0.397   6.430 -0.3252  0.3694 -0.3750
  295MOL0     C38827   7.900  -0.417   6.343  0.1017  0.1114 -0.6904
  295MOL0     C38828   7.871  -0.466   6.205  0.2723 -0.1838 -0.2583
  295MOL0     C38829   7.793  -0.361   6.129 -0.6536  0.5521 -0.0752
  295MOL0     C38830   7.830  -0.345   5.984  0.8404 -0.0702 -0.4463
  295MOL0     C38831   7.721  -0.263   5.913  0.3364  0.0983  0.9176
  295MOL0     O38832   7.682  -0.143   5.984 -0.0501  0.5023  0.8603
  295MOL0     C38833   7.588  -0.063   5.928  0.4146  0.2969 -0.1274
  295MOL0     C38834   7.602   0.069   5.956 -0.8299 -0.5516  0.1070
  295MOL0     C38835   7.518   0.164   5.904  0.7883  0.1859  0.9836
  295MOL0     C38836   7.412   0.124   5.827  0.5301 -0.4671 -1.2616
  295MOL0     C38837   7.306   0.233   5.793 -0.5323 -0.6342 -0.1790
  295MOL0     O38838   7.175   0.196   5.778  0.1401  0.4648  0.5374
  295MOL0     C38839   7.095   0.269   5.701  0.2102 -0.3889 -0.4672
  295MOL0     C38840   6.984   0.334   5.763 -0.7778  0.1702  0.7495
  295MOL0     C38841   6.897   0.409   5.681  0.2222  0.3753 -1.0145
  295MOL0     C38842   6.913   0.429   5.543  0.0060 -0.5692 -0.3058
  295MOL0     O38843   6.816   0.506   5.473 -0.2509 -0.0635 -0.6163
  295MOL0     C38844   6.794   0.481   5.337  0.4303  0.0290 -0.2554
  295MOL0     C38845   6.647   0.521   5.319  0.1638 -0.9044 -0.1648
  295MOL0     C38846   6.553   0.402   5.364 -0.2383 -0.5877  0.6274
  295MOL0     C38847   6.411   0.452   5.356 -0.0376  0.0168 -0.9068
  295MOL0     C38848   6.308   0.340   5.360  0.1104  0.4823 -0.3553
  295MOL0     C38849   6.159   0.379   5.341  0.8071  0.5391 -0.3700
  295MOL0     C38850   6.106   0.482   5.445  0.8403 -0.0270  0.3507
  295MOL0     C38851   5.957   0.520   5.403 -0.4673 -0.0298 -0.4326
  295MOL0    Cl38852   5.837   0.399   5.462  0.0039  0.2317  0.1004
  295MOL0     C38853   7.032   0.374   5.483 -0.5715 -0.4298 -0.2681
  295MOL0     C38854   7.119   0.290   5.564  0.1892  0.1835  0.7265
  295MOL0     O38855   7.338   0.350   5.788 -0.2288  0.4325 -0.2609
  295MOL0     C38856   7.384  -0.013   5.804  0.3037  0.5298 -0.1898
  295MOL0     C38857   7.475  -0.105   5.856 -0.2486  0.4572 -0.7456
  295MOL0     N38858   8.019  -0.388   6.407 -0.3275 -1.3276 -0.0224
  295MOL0     N38859   7.995  -0.335   6.526  1.0769  0.2852 -0.4442
  295MOL0     C38860   6.807   0.061   6.519  0.2219 -0.2795 -0.0507
  295MOL0     C38861   6.673   0.102   6.511  0.2385  0.5388 -0.1585
  295MOL0     C38862   6.291   0.394   6.446 -0.5086  0.2063 -0.2034
  295MOL0     C38863   6.228   0.343   6.560 -0.3388  0.1942  0.2773
  295MOL0     C38864   6.094   0.362   6.586 -0.0392  0.6872  1.1031
  295MOL0     C38865   6.012   0.428   6.489 -0.1331 -0.3170  0.3421
  295MOL0     O38866   5.881   0.435   6.513  0.9713 -0.1764  0.0126
  295MOL0     C38867   5.784   0.499   6.426  0.4788 -0.8184 -0.4929
  295MOL0     C38868   5.691   0.393   6.355 -0.2080  0.2764 -0.3063
  295MOL0     C38869   5.627   0.280   6.447  0.0859 -1.7031 -0.4488
  295MOL0     C38870   5.546   0.182   6.357  0.4446 -0.7589 -0.1327
  295MOL0     C38871   5.437   0.253   6.283  0.1603 -0.1948  0.0398
  295MOL0     C38872   5.369   0.328   6.213 -0.6707 -0.9079  0.5800
  295MOL0     C38873   6.075   0.470   6.371 -0.3180 -1.4355 -0.0529
  295MOL0     C38874   6.213   0.448   6.346  0.4191 -0.1996 -0.1079
  295MOL0     H38875   6.716   0.433   6.426 -1.0956  0.5589  2.2939
  295MOL0     H38876   6.948   0.351   6.432 -1.2217 -0.2594 -1.6802
  295MOL0     H38877   7.168  -0.014   6.408 -1.6505  0.4619 -1.3578
  295MOL0     H38878   7.009  -0.068   6.406  0.2045  0.9798 -1.5857
  295MOL0     H38879   7.095  -0.174   6.608  1.9981  0.8587  1.6158
  295MOL0     H38880   7.018  -0.041   6.674 -1.4518  0.9578 -2.2640
  295MOL0     H38881   7.241  -0.043   6.780 -2.2008  0.7154  0.3727
  295MOL0     H38882   7.263   0.068   6.657 -1.9796  0.4814  0.6879
  295MOL0     H38883   7.311  -0.229   6.625 -3.7153  0.7124 -3.0351
  295MOL0     H38884   7.345  -0.116   6.494  2.1822 -0.5782  0.0338
  295MOL0     H38885   7.484  -0.098   6.765  4.7421  0.6472 -0.4588
  295MOL0     H38886   7.536  -0.016   6.618  0.4956  2.2932  3.8280
  295MOL0     H38887   7.571  -0.257   6.521  2.0628 -0.5049  0.2242
  295MOL0     H38888   7.522  -0.318   6.676 -2.6201 -0.5378 -3.7893
  295MOL0     H38889   7.747  -0.133   6.607  1.7367 -1.6965 -0.1393
  295MOL0     H38890   7.713  -0.170   6.775  2.8346 -0.8695 -0.4595
  295MOL0     H38891   7.728  -0.414   6.701  0.3600 -0.0718 -0.4711
  295MOL0     H38892   7.873  -0.328   6.746 -0.1528 -1.1754  1.4485
  295MOL0     H38893   7.693  -0.420   6.410  0.5122 -2.4583 -1.9693
  295MOL0     H38894   7.817  -0.562   6.212  1.3713 -0.7526  0.8204
  295MOL0     H38895   7.965  -0.490   6.155  0.9722  3.0678 -0.7175
  295MOL0     H38896   7.816  -0.271   6.188  2.6044 -2.0787  3.1071
  295MOL0     H38897   7.689  -0.392   6.142 -0.7404  0.3882 -1.1027
  295MOL0     H38898   7.923  -0.289   5.992  1.5773 -1.3510  0.2668
  295MOL0     H38899   7.841  -0.442   5.935  1.1962 -1.5400  2.3896
  295MOL0     H38900   7.630  -0.316   5.882  0.6590  1.0944 -2.0777
  295MOL0     H38901   7.763  -0.230   5.818 -0.0087  0.1925  0.7947
  295MOL0     H38902   7.673   0.093   6.034 -3.6829  1.7581  2.2349
  295MOL0     H38903   7.531   0.265   5.941 -2.3655  0.2642  2.1185
  295MOL0     H38904   6.953   0.319   5.866 -1.1424 -1.7208  0.4077
  295MOL0     H38905   6.806   0.447   5.727  1.3036  2.2909 -0.3796
  295MOL0     H38906   6.818   0.378   5.310  4.7943  1.4130 -2.5923
  295MOL0     H38907   6.859   0.550   5.281  1.0547  1.9546  2.5776
  295MOL0     H38908   6.627   0.540   5.213 -2.8119 -1.9393  0.1342
  295MOL0     H38909   6.622   0.611   5.375  0.5341 -1.0298  0.2106
  295MOL0     H38910   6.570   0.350   5.459 -1.0724  1.1562  1.7801
  295MOL0     H38911   6.565   0.311   5.303 -0.4099 -1.8354  2.3908
  295MOL0     H38912   6.403   0.517   5.445  1.3036 -3.6961  2.2193
  295MOL0     H38913   6.394   0.511   5.266  0.5452 -0.2673 -1.2088
  295MOL0     H38914   6.316   0.296   5.460 -0.0461 -0.2176 -0.6459
  295MOL0     H38915   6.336   0.262   5.289 -0.0096 -2.0058  2.1471
  295MOL0     H38916   6.099   0.288   5.344  0.0307  0.9624 -2.1766
  295MOL0     H38917   6.158   0.429   5.244  1.7128  2.0893  0.3661
  295MOL0     H38918   6.117   0.434   5.543  0.9967  1.0938  0.9005
  295MOL0     H38919   6.167   0.572   5.434  0.7122 -0.2610 -4.6529
  295MOL0     H38920   5.957   0.530   5.294  2.3068 -3.4017 -0.9327
  295MOL0     H38921   5.941   0.612   5.460  0.8447 -1.4912  2.5199
  295MOL0     H38922   7.074   0.392   5.385 -0.1307 -0.6998 -0.1303
  295MOL0     H38923   7.214   0.254   5.527 -1.2365 -2.4306 -0.6107
  295MOL0     H38924   7.293  -0.044   5.755 -2.4762  1.7641  3.6595
  295MOL0     H38925   7.483  -0.206   5.816 -0.2778  1.2598 -2.8994
  295MOL0     H38926   6.826  -0.045   6.526  4.3344  0.2353 -0.7586
  295MOL0     H38927   6.601   0.027   6.542  2.5552 -1.6600  0.2481
  295MOL0     H38928   6.272   0.287   6.642 -4.2212 -3.5116  0.1662
  295MOL0     H38929   6.050   0.329   6.680 -0.0878 -1.3168  0.4321
  295MOL0     H38930   5.828   0.566   6.351 -0.1338 -2.1430 -2.1068
  295MOL0     H38931   5.705   0.559   6.472 -0.8142 -0.9876 -2.3707
  295MOL0     H38932   5.604   0.449   6.320  0.3712  0.2718 -1.8291
  295MOL0     H38933   5.738   0.347   6.268  0.0090  0.3540 -0.2305
  295MOL0     H38934   5.561   0.321   6.523 -0.7864  0.2556 -2.1515
  295MOL0     H38935   5.704   0.224   6.501  0.4435  0.0150  0.8999
  295MOL0     H38936   5.614   0.133   6.287  0.2048 -3.7813  1.5694
  295MOL0     H38937   5.495   0.103   6.414  0.3194 -0.7412 -0.2215
  295MOL0     H38938   5.318   0.408   6.162  2.1338 -1.3356 -3.3063
  295MOL0     H38939   6.024   0.530   6.296 -0.8668 -0.3600  1.1448
  295MOL0     H38940   6.263   0.471   6.252  0.1909  0.9989  0.0541
  296MOL0     O38941   5.818   6.747  10.105 -0.2766  0.1143 -0.3061
  296MOL0     C38942   5.888   6.688  10.194  0.1046 -0.1682 -0.1499
  296MOL0     O38943   5.836   6.622  10.296  0.7097 -0.3727 -0.1320
  296MOL0     C38944   5.703   6.579  10.288 -0.2545  0.1784 -0.4850
  296MOL0     C38945   5.661   6.465  10.214 -0.0189  0.5616 -0.2064
  296MOL0     C38946   5.533   6.411  10.225 -0.0147  0.4467 -0.2744
  296MOL0     C38947   5.435   6.472  10.299  1.0833  0.0485 -1.0088
  296MOL0     O38948   5.302   6.438  10.304  0.9552  1.0689 -0.0864
  296MOL0     C38949   5.279   6.297  10.268  0.2784  0.0394 -0.5141
  296MOL0     C38950   5.133   6.286  10.296  0.8692  0.0005 -0.6147
  296MOL0     C38951   5.087   6.153  10.240 -0.8786 -1.1242  0.7809
  296MOL0     C38952   4.937   6.132  10.251 -0.6318 -0.5686  0.4270
  296MOL0     C38953   4.876   6.042  10.147  0.3358 -0.0545  0.3188
  296MOL0     C38954   4.719   6.055  10.150 -0.4366 -0.6541 -0.4500
  296MOL0     C38955   4.663   5.960  10.042  0.6250 -0.2542 -0.6099
  296MOL0     C38956   4.511   5.973  10.061  0.2168 -0.3177  0.7101
  296MOL0     N38957   4.426   5.872   9.992 -0.1778 -0.3333 -0.4064
  296MOL0     C38958   4.305   5.907   9.939 -0.3362 -0.8120 -0.7764
  296MOL0     C38959   4.241   5.788   9.938 -0.1541 -0.2076  1.2569
  296MOL0     C38960   4.098   5.783   9.900  0.3761 -0.3079 -0.3131
  296MOL0     C38961   4.070   5.656   9.827  0.2914  0.3858  0.1909
  296MOL0     C38962   3.941   5.671   9.752  0.3170 -0.5308  0.4107
  296MOL0     C38963   3.880   5.559   9.670 -0.2431  0.1319  0.1228
  296MOL0     O38964   3.835   5.456   9.767 -0.3085 -0.0686  0.5376
  296MOL0     C38965   3.709   5.388   9.744  0.2747 -0.0572 -0.0440
  296MOL0     C38966   3.667   5.306   9.851 -0.6444  0.0409  0.4242
  296MOL0     C38967   3.543   5.243   9.844  0.0229 -0.5670 -0.0625
  296MOL0     C38968   3.475   5.251   9.712  0.1433 -0.0358 -0.1878
  296MOL0     C38969   3.348   5.182   9.709  0.4900  0.6070 -0.4639
  296MOL0     O38970   3.343   5.057   9.779  0.7305 -0.4354  0.3755
  296MOL0     C38971   3.224   4.997   9.789 -0.6293 -0.0557  0.6310
  296MOL0     C38972   3.184   4.954   9.917 -0.3355 -0.1495  0.1740
  296MOL0     C38973   3.064   4.885   9.938 -0.2315  0.7722  0.5891
  296MOL0     C38974   2.987   4.858   9.826  0.1025  0.2634  0.2760
  296MOL0     O38975   2.877   4.783   9.852 -0.4195  1.0626  0.0668
  296MOL0     C38976   2.807   4.719   9.746  0.2401  0.3181  0.2153
  296MOL0     C38977   2.660   4.674   9.787  0.4894  0.2407  0.6354
  296MOL0     C38978   2.591   4.606   9.666  0.5972  0.2209  0.2020
  296MOL0     C38979   2.451   4.550   9.697 -0.0631  0.7142  0.1560
  296MOL0     C38980   2.406   4.455   9.589 -0.2522 -0.3507  0.9359
  296MOL0     C38981   2.261   4.409   9.620  0.0011  0.3552  0.7023
  296MOL0     C38982   2.145   4.512   9.615 -0.1425 -0.7628  0.9813
  296MOL0     C38983   2.131   4.615   9.505 -1.0590  0.5131  0.0415
  296MOL0    Cl38984   2.258   4.731   9.493  0.4458  0.1303 -0.1160
  296MOL0     C38985   3.019   4.900   9.692  0.6565  0.9285 -0.7672
  296MOL0     C38986   3.136   4.975   9.674 -0.3402  0.1939  0.1122
  296MOL0     O38987   3.249   5.248   9.670  0.8205 -0.0418 -0.1480
  296MOL0     C38988   3.519   5.334   9.609  0.1283  0.8242  0.3416
  296MOL0     C38989   3.634   5.401   9.625  0.3370  0.6170  0.8992
  296MOL0     N38990   4.329   5.684   9.958  0.3087  0.0290  0.3208
  296MOL0     N38991   4.438   5.739   9.984 -0.0618 -0.6736  0.5276
  296MOL0     C38992   5.465   6.591  10.367 -0.1652 -0.7369  0.8220
  296MOL0     C38993   5.601   6.643  10.363  0.5185  0.1087  0.3861
  296MOL0     C38994   6.031   6.713  10.212  0.2300 -0.7153 -0.3298
  296MOL0     C38995   6.109   6.661  10.318  1.1154 -0.9989 -0.4270
  296MOL0     C38996   6.245   6.683  10.332 -0.3372  0.3964  0.3982
  296MOL0     C38997   6.316   6.739  10.227  0.3346 -0.6400  0.0362
  296MOL0     O38998   6.458   6.746  10.232 -0.1150  0.8408 -0.0636
  296MOL0     C38999   6.538   6.808  10.132  0.0386  0.4358 -0.6022
  296MOL0     C39000   6.691   6.828  10.172  0.7799 -1.0586  0.9285
  296MOL0     C39001   6.707   6.884  10.315 -0.6279 -0.3825 -0.6603
  296MOL0     C39002   6.591   6.977  10.363 -0.5578 -0.0049 -0.7973
  296MOL0     C39003   6.634   7.077  10.458  0.1096 -0.0787 -0.4721
  296MOL0     C39004   6.685   7.133  10.549 -1.1882 -0.8861  0.3144
  296MOL0     C39005   6.243   6.808  10.123 -0.2280  0.1466 -0.1072
  296MOL0     C39006   6.104   6.790  10.115 -0.1820  0.6866 -0.0315
  296MOL0     H39007   5.730   6.418  10.144  0.0503  1.0608 -0.4775
  296MOL0     H39008   5.512   6.324  10.164 -1.3711  0.9563 -0.5632
  296MOL0     H39009   5.327   6.234  10.343 -2.1967  0.9160  1.9838
  296MOL0     H39010   5.307   6.275  10.164  4.4927 -1.3842  0.7206
  296MOL0     H39011   5.072   6.365  10.252 -0.2000 -0.7410 -0.4980
  296MOL0     H39012   5.128   6.300  10.405  0.8899  6.0030 -1.0473
  296MOL0     H39013   5.133   6.063  10.280  1.2947  0.7408  2.7631
  296MOL0     H39014   5.100   6.162  10.131 -0.4266 -0.7771  0.8598
  296MOL0     H39015   4.917   6.082  10.347 -1.8858 -0.6022  0.1647
  296MOL0     H39016   4.872   6.220  10.261 -0.9960 -0.5680 -1.6732
  296MOL0     H39017   4.900   5.938  10.167  2.1221  0.3969  0.6662
  296MOL0     H39018   4.897   6.072  10.044  2.4322 -0.2733  0.6447
  296MOL0     H39019   4.672   6.153  10.155 -1.3082 -1.0614  4.6292
  296MOL0     H39020   4.691   6.019  10.249 -0.9633  0.7749 -0.0540
  296MOL0     H39021   4.684   5.972   9.936  0.7642  0.3489 -0.5183
  296MOL0     H39022   4.700   5.860  10.068  1.2742 -0.5693 -2.6109
  296MOL0     H39023   4.489   6.073  10.024  0.9599 -0.1491  0.7183
  296MOL0     H39024   4.481   5.972  10.166  0.1095 -0.7979  0.6784
  296MOL0     H39025   4.262   6.006   9.933  0.0426 -0.5431  0.6116
  296MOL0     H39026   4.081   5.875   9.844  1.5884  0.4864  0.5837
  296MOL0     H39027   4.033   5.792   9.987  0.4882  1.0037 -0.3486
  296MOL0     H39028   4.047   5.589   9.910  1.6525  0.4390  0.6451
  296MOL0     H39029   4.150   5.612   9.765  0.1009 -0.0098  0.2211
  296MOL0     H39030   3.872   5.705   9.830 -1.8037  2.1084 -2.3505
  296MOL0     H39031   3.960   5.758   9.688  1.3708 -0.1905  1.1520
  296MOL0     H39032   3.952   5.522   9.597 -1.3418  1.1468 -1.5208
  296MOL0     H39033   3.793   5.600   9.618 -0.1050 -1.5961 -1.5625
  296MOL0     H39034   3.732   5.301   9.938  0.2644  3.1702  0.0497
  296MOL0     H39035   3.500   5.189   9.928 -0.3902 -3.2936 -1.8852
  296MOL0     H39036   3.245   4.979  10.003 -0.4423  3.0829 -0.5692
  296MOL0     H39037   3.026   4.849  10.034  0.8066 -2.1439 -0.0109
  296MOL0     H39038   2.876   4.638   9.720  1.5334  1.9729 -1.7292
  296MOL0     H39039   2.797   4.792   9.666  3.3191 -1.0249 -1.5518
  296MOL0     H39040   2.609   4.763   9.824 -0.8450 -0.7811  1.3257
  296MOL0     H39041   2.665   4.606   9.873  0.5683 -0.6305 -0.0454
  296MOL0     H39042   2.656   4.524   9.633  2.3482  1.9723 -0.9081
  296MOL0     H39043   2.588   4.684   9.590 -0.2092 -1.5157 -1.6275
  296MOL0     H39044   2.465   4.487   9.785  1.4428 -1.2303 -1.3744
  296MOL0     H39045   2.384   4.635   9.712 -1.3580 -0.2579  0.1072
  296MOL0     H39046   2.477   4.372   9.580 -0.2304 -0.2053 -0.3743
  296MOL0     H39047   2.411   4.512   9.496 -1.3449  0.1801  1.1813
  296MOL0     H39048   2.273   4.361   9.718 -0.8417 -1.9473 -0.2487
  296MOL0     H39049   2.235   4.324   9.556 -0.6646 -3.3794  5.3522
  296MOL0     H39050   2.046   4.466   9.617 -1.3278  1.6595  2.7181
  296MOL0     H39051   2.147   4.578   9.702  0.2810  0.6884 -0.0909
  296MOL0     H39052   2.044   4.677   9.525 -0.1041  1.1902  2.6120
  296MOL0     H39053   2.130   4.562   9.409  1.3738 -0.1036  0.2788
  296MOL0     H39054   2.961   4.872   9.604 -0.9451 -0.1176  0.5663
  296MOL0     H39055   3.171   5.016   9.580  0.2851  1.1769  0.7497
  296MOL0     H39056   3.461   5.329   9.518 -0.8468 -0.6517  0.9861
  296MOL0     H39057   3.681   5.466   9.552 -0.1167 -1.2202 -1.1201
  296MOL0     H39058   5.393   6.656  10.417 -0.9995 -0.1366 -1.0427
  296MOL0     H39059   5.628   6.734  10.415  0.3040 -1.2176  2.9551
  296MOL0     H39060   6.057   6.611  10.400 -0.0210  2.1995  0.9393
  296MOL0     H39061   6.311   6.651  10.411 -0.6121  2.9847  1.7587
  296MOL0     H39062   6.510   6.911  10.107  1.0954  0.4284 -1.8940
  296MOL0     H39063   6.533   6.754  10.038 -1.9280 -0.4501 -0.0264
  296MOL0     H39064   6.759   6.743  10.160 -0.3883 -1.7475 -1.3723
  296MOL0     H39065   6.732   6.908  10.110  1.5162 -0.0249  2.6798
  296MOL0     H39066   6.804   6.933  10.316 -0.8686  0.1052 -0.6317
  296MOL0     H39067   6.727   6.801  10.384  0.2205  0.8226  0.5815
  296MOL0     H39068   6.550   7.026  10.274 -2.6676 -2.2641 -1.1715
  296MOL0     H39069   6.515   6.912  10.407  0.7854 -1.3075 -0.3231
  296MOL0     H39070   6.724   7.174  10.640  0.4261 -0.4713 -0.5383
  296MOL0     H39071   6.288   6.856  10.037  3.2215 -0.3010  1.2598
  296MOL0     H39072   6.057   6.833  10.027  4.5159 -1.8861 -4.3166
  297MOL0     O39073   0.863   0.054   8.847 -0.2295 -0.0329  0.1589
  297MOL0     C39074   0.951   0.051   8.761  0.4489  0.0316  0.1375
  297MOL0     O39075   1.050   0.148   8.750 -0.1564  0.4495  0.0627
  297MOL0     C39076   1.063   0.251   8.843  0.6982 -0.0145  0.7157
  297MOL0     C39077   0.948   0.324   8.887  0.2878  0.4000  0.8148
  297MOL0     C39078   0.963   0.426   8.964 -0.6295  0.0688 -0.4077
  297MOL0     C39079   1.092   0.462   9.023 -0.2461  0.0496  0.1540
  297MOL0     O39080   1.100   0.542   9.134  0.3431 -0.2268  1.2658
  297MOL0     C39081   1.009   0.651   9.147  0.2375  0.5100  0.0319
  297MOL0     C39082   1.035   0.731   9.270 -0.2648  0.3597  0.3666
  297MOL0     C39083   1.161   0.814   9.245  0.0632  0.1157  0.1316
  297MOL0     C39084   1.192   0.895   9.368 -0.3847  0.1640 -0.5651
  297MOL0     C39085   1.335   0.953   9.368  0.0604 -0.2596  0.9297
  297MOL0     C39086   1.444   0.850   9.403  0.5724 -0.5155  0.3263
  297MOL0     C39087   1.582   0.930   9.423 -0.2575 -0.0707 -0.6354
  297MOL0     C39088   1.701   0.842   9.457 -0.4351 -0.3456 -0.0662
  297MOL0     N39089   1.820   0.916   9.500 -0.4094 -0.0928 -0.1822
  297MOL0     C39090   1.924   0.941   9.417 -0.7661  0.6888 -1.2748
  297MOL0     C39091   2.014   0.968   9.516 -0.9601  0.1567  0.2120
  297MOL0     C39092   2.162   0.989   9.473 -0.1219 -0.8030  0.2659
  297MOL0     C39093   2.257   0.877   9.523  1.1534 -0.6529  0.0187
  297MOL0     C39094   2.398   0.894   9.451 -0.0194  0.4445 -0.2400
  297MOL0     C39095   2.453   0.753   9.445 -0.0515 -0.1821 -1.2472
  297MOL0     O39096   2.584   0.755   9.389 -0.1218  0.0202 -0.2301
  297MOL0     C39097   2.681   0.835   9.451  0.6538  0.3692 -0.1628
  297MOL0     C39098   2.778   0.887   9.370 -0.7963 -0.1581  0.8851
  297MOL0     C39099   2.878   0.980   9.418 -0.6007 -0.0051  0.9863
  297MOL0     C39100   2.877   1.017   9.550  0.1723 -0.7438 -0.2601
  297MOL0     C39101   2.987   1.103   9.596  1.1867  0.2060  0.3835
  297MOL0     O39102   3.095   1.119   9.510  0.5000 -0.2568  0.0879
  297MOL0     C39103   3.192   1.211   9.552  0.2749 -0.0644  0.1219
  297MOL0     C39104   3.305   1.148   9.601  0.1470 -0.3540 -0.3037
  297MOL0     C39105   3.410   1.226   9.637 -0.2588  0.2762 -0.5663
  297MOL0     C39106   3.411   1.364   9.623 -0.7757  0.3329 -0.3859
  297MOL0     O39107   3.514   1.452   9.651 -0.2248  0.1564 -0.3735
  297MOL0     C39108   3.649   1.404   9.666 -0.0368 -0.2201 -0.2006
  297MOL0     C39109   3.741   1.510   9.707  0.0514 -0.6054  1.4243
  297MOL0     C39110   3.882   1.469   9.764 -0.7352  0.2096  0.0353
  297MOL0     C39111   3.974   1.591   9.770  0.0480  0.4939 -0.2461
  297MOL0     C39112   4.116   1.551   9.763  0.3573  0.0172 -0.0843
  297MOL0     C39113   4.211   1.677   9.786 -0.2510 -0.1788  0.1031
  297MOL0     C39114   4.357   1.625   9.813  0.2496 -0.1756  0.6605
  297MOL0     C39115   4.460   1.732   9.781  1.0716  0.4286 -0.2782
  297MOL0    Cl39116   4.629   1.662   9.766 -0.0464  0.3046  0.0356
  297MOL0     C39117   3.300   1.427   9.568  0.0398  0.2976  0.4576
  297MOL0     C39118   3.182   1.355   9.543 -0.4416  0.4100  0.4128
  297MOL0     O39119   2.979   1.153   9.705 -0.2298 -1.1313 -0.0686
  297MOL0     C39120   2.775   0.964   9.635  0.1206  0.3056 -0.1890
  297MOL0     C39121   2.681   0.870   9.593  0.6530 -0.2417 -0.1312
  297MOL0     N39122   1.968   0.966   9.644 -0.3999 -0.2710  1.0934
  297MOL0     N39123   1.845   0.941   9.629 -0.8074  0.1822  0.0592
  297MOL0     C39124   1.206   0.402   8.971  0.3301 -0.8193 -0.3702
  297MOL0     C39125   1.191   0.287   8.889 -0.4761  0.0749 -0.7644
  297MOL0     C39126   0.944  -0.035   8.642 -0.6030  0.3758 -0.3447
  297MOL0     C39127   1.050  -0.035   8.543  0.1208  0.2858  0.0544
  297MOL0     C39128   1.050  -0.134   8.433  0.2585 -0.4053 -0.1602
  297MOL0     C39129   0.972  -0.245   8.435  1.0803 -1.1824 -0.1857
  297MOL0     O39130   0.984  -0.331   8.333 -0.7666  0.2650  0.2642
  297MOL0     C39131   0.894  -0.443   8.317  0.5834  0.1312  0.1549
  297MOL0     C39132   0.786  -0.401   8.216 -0.2857  0.9038 -0.4243
  297MOL0     C39133   0.829  -0.394   8.073 -0.3513 -0.3389  0.5976
  297MOL0     C39134   0.898  -0.263   8.032 -0.2447  0.0848  0.2407
  297MOL0     C39135   0.896  -0.228   7.887 -0.3806 -0.5778  0.8955
  297MOL0     C39136   0.899  -0.201   7.769  0.2542 -0.8681  0.5070
  297MOL0     C39137   0.870  -0.236   8.529  0.2662  0.1603 -0.8450
  297MOL0     C39138   0.849  -0.142   8.629  0.9979 -0.4094 -0.0495
  297MOL0     H39139   0.850   0.296   8.850  0.1786  0.6849  0.8896
  297MOL0     H39140   0.865   0.466   8.991 -0.8510 -0.9065  0.3046
  297MOL0     H39141   0.909   0.608   9.154  0.7317 -0.7891 -0.5440
  297MOL0     H39142   1.015   0.713   9.057 -1.0530 -3.1686 -2.8913
  297MOL0     H39143   1.051   0.654   9.346 -3.9819  0.9331  1.9420
  297MOL0     H39144   0.952   0.797   9.299  0.0127  0.2406  1.5054
  297MOL0     H39145   1.144   0.872   9.153  0.0145 -0.1317 -0.0155
  297MOL0     H39146   1.248   0.752   9.223  1.1081  0.4197  3.0316
  297MOL0     H39147   1.120   0.974   9.344 -2.3087 -1.3212  0.0622
  297MOL0     H39148   1.168   0.840   9.459 -0.6668  0.4085 -0.4921
  297MOL0     H39149   1.343   1.048   9.422 -0.8881 -0.5580  1.6266
  297MOL0     H39150   1.343   0.993   9.266 -1.0307 -0.3537  0.7908
  297MOL0     H39151   1.454   0.778   9.321 -2.4326 -0.7654  0.0796
  297MOL0     H39152   1.413   0.804   9.497  2.2695  0.5188  1.4545
  297MOL0     H39153   1.598   0.978   9.326  3.1245 -0.5933 -0.4638
  297MOL0     H39154   1.571   1.005   9.502  1.9288 -0.3974  0.0532
  297MOL0     H39155   1.732   0.779   9.372 -2.1271 -0.1037 -0.8934
  297MOL0     H39156   1.681   0.782   9.545  0.2457  0.8127  0.9090
  297MOL0     H39157   1.925   0.935   9.309 -0.6463 -1.0688 -1.2197
  297MOL0     H39158   2.204   1.080   9.516 -0.8554 -2.3728  4.7397
  297MOL0     H39159   2.161   1.018   9.367  1.7946  2.9276  1.1027
  297MOL0     H39160   2.209   0.785   9.487  2.0201 -0.6686 -1.1784
  297MOL0     H39161   2.261   0.868   9.632 -0.4263  3.5970  0.6165
  297MOL0     H39162   2.372   0.933   9.351 -0.0747 -0.0082 -0.4032
  297MOL0     H39163   2.464   0.967   9.498 -0.0789  0.0886  0.4044
  297MOL0     H39164   2.383   0.686   9.395 -0.7104  0.2394 -0.9031
  297MOL0     H39165   2.459   0.706   9.543  0.2883  1.6782 -0.3443
  297MOL0     H39166   2.771   0.875   9.262  0.1568  2.5816  0.4131
  297MOL0     H39167   2.947   1.012   9.341 -0.5988 -0.8066  0.6468
  297MOL0     H39168   3.310   1.040   9.591  2.5232 -0.3692  0.3978
  297MOL0     H39169   3.508   1.186   9.660 -0.3223  0.7614  0.5832
  297MOL0     H39170   3.680   1.346   9.579 -0.4938 -1.3610  0.3682
  297MOL0     H39171   3.644   1.340   9.755 -0.0404  0.2399  0.1329
  297MOL0     H39172   3.690   1.575   9.779 -2.9660 -0.0668 -1.0222
  297MOL0     H39173   3.756   1.570   9.616 -0.8458  0.4489  1.9407
  297MOL0     H39174   3.927   1.406   9.687 -0.2220  0.2821  0.2713
  297MOL0     H39175   3.881   1.430   9.866  2.0507  0.5717  0.2714
  297MOL0     H39176   3.956   1.667   9.694 -0.4059  1.4468  0.7978
  297MOL0     H39177   3.942   1.646   9.859 -1.3560 -0.7019  0.0263
  297MOL0     H39178   4.142   1.520   9.662 -0.0376  0.9537 -0.4797
  297MOL0     H39179   4.143   1.470   9.832  1.5662  1.6570  1.4771
  297MOL0     H39180   4.177   1.738   9.871 -2.2357  1.2030 -1.5796
  297MOL0     H39181   4.197   1.734   9.693  0.0303  2.4662  1.5674
  297MOL0     H39182   4.379   1.602   9.917  0.0061 -0.0621  0.7388
  297MOL0     H39183   4.370   1.538   9.748 -1.5660  0.4863 -0.6707
  297MOL0     H39184   4.459   1.800   9.866 -2.6280 -1.9592  1.8709
  297MOL0     H39185   4.427   1.772   9.685 -0.9095 -3.1037 -1.2690
  297MOL0     H39186   3.302   1.536   9.570 -2.8266  0.4311  1.6939
  297MOL0     H39187   3.094   1.407   9.506 -1.1582 -1.9529 -1.4333
  297MOL0     H39188   2.763   0.990   9.739  0.9815 -3.5098  1.0079
  297MOL0     H39189   2.613   0.832   9.668 -0.2150  1.5796  0.0463
  297MOL0     H39190   1.306   0.429   9.002 -1.2414  2.4305  2.5292
  297MOL0     H39191   1.276   0.231   8.853  0.5330  0.3838  1.0313
  297MOL0     H39192   1.132   0.035   8.542  3.7235 -3.5699  0.0579
  297MOL0     H39193   1.127  -0.116   8.358 -2.3361 -1.0548 -3.2298
  297MOL0     H39194   0.850  -0.478   8.411 -1.3740 -0.8424 -1.0487
  297MOL0     H39195   0.946  -0.533   8.284  0.8945 -0.5909  2.4210
  297MOL0     H39196   0.707  -0.477   8.218  0.4893  0.0867  1.4766
  297MOL0     H39197   0.750  -0.304   8.251  1.9338  1.3076  0.8913
  297MOL0     H39198   0.741  -0.404   8.009  0.6336  2.2873 -1.3572
  297MOL0     H39199   0.904  -0.468   8.045 -0.5345  0.0608 -1.0855
  297MOL0     H39200   0.857  -0.176   8.084 -1.3990  0.1344 -0.7120
  297MOL0     H39201   0.999  -0.267   8.074 -0.6330  0.7908  1.2942
  297MOL0     H39202   0.888  -0.163   7.670 -0.9566  1.1817  1.3691
  297MOL0     H39203   0.796  -0.315   8.524 -1.6231  1.4489  2.9055
  297MOL0     H39204   0.773  -0.160   8.704  2.2476  1.0107  1.6327
  298MOL0     O39205   0.021   8.048   3.293 -0.7290  0.1250  0.4139
  298MOL0     C39206   0.115   8.057   3.210 -0.0760 -0.5916 -0.3999
  298MOL0     O39207   0.122   8.141   3.105 -0.0799  0.7149  0.4868
  298MOL0     C39208   0.019   8.214   3.061  0.8803  0.6680 -0.0791
  298MOL0     C39209  -0.110   8.154   3.049  0.3049  0.2400  0.1766
  298MOL0     C39210  -0.219   8.226   3.000  0.7013 -0.2103 -0.2505
  298MOL0     C39211  -0.196   8.356   2.954  0.7467 -0.6390  0.4268
  298MOL0     O39212  -0.285   8.456   2.901  0.1384 -0.2644  0.1087
  298MOL0     C39213  -0.429   8.428   2.910  0.4031 -0.0171  0.5112
  298MOL0     C39214  -0.485   8.453   3.049 -0.6324 -0.3778  0.4142
  298MOL0     C39215  -0.631   8.471   3.067 -0.6797  0.7879  0.7158
  298MOL0     C39216  -0.699   8.577   2.979  0.7542  0.2643  0.3986
  298MOL0     C39217  -0.857   8.575   2.999  0.0784  0.7962 -0.9267
  298MOL0     C39218  -0.925   8.714   2.970  0.2751  0.7617  0.3794
  298MOL0     C39219  -1.066   8.718   3.004 -0.4904  0.2510 -0.4701
  298MOL0     C39220  -1.118   8.851   2.956  0.0474  0.3982  0.6393
  298MOL0     N39221  -1.262   8.871   2.963 -0.5081  0.2008  0.0955
  298MOL0     C39222  -1.327   8.935   3.061 -0.9330  0.2946  0.2685
  298MOL0     C39223  -1.455   8.954   3.022  0.6108  0.1939  0.5912
  298MOL0     C39224  -1.558   9.024   3.104  0.0332 -0.8108  0.3086
  298MOL0     C39225  -1.652   9.103   3.016  0.8981 -0.7231  0.4847
  298MOL0     C39226  -1.590   9.216   2.935 -0.1835  0.4487 -1.0714
  298MOL0     C39227  -1.690   9.284   2.845  0.2592 -0.3341 -0.4271
  298MOL0     O39228  -1.626   9.366   2.747 -0.0590 -0.0022  0.5526
  298MOL0     C39229  -1.702   9.436   2.658 -0.6663 -0.2018 -0.1536
  298MOL0     C39230  -1.641   9.520   2.562 -0.0456  0.1252  0.1133
  298MOL0     C39231  -1.718   9.579   2.458 -0.0547 -0.6594 -0.8160
  298MOL0     C39232  -1.865   9.571   2.458 -0.6051  0.6817  0.2556
  298MOL0     C39233  -1.947   9.631   2.353 -0.5076 -0.4566  0.0780
  298MOL0     O39234  -1.876   9.683   2.246  0.2060  0.2588 -0.5033
  298MOL0     C39235  -1.933   9.780   2.160  0.1894  0.0829 -0.9958
  298MOL0     C39236  -2.036   9.751   2.074  0.2674  0.6310  1.0669
  298MOL0     C39237  -2.092   9.858   1.996 -0.6442 -0.1351 -0.1638
  298MOL0     C39238  -2.037   9.989   2.011  0.0440 -0.3540 -0.0554
  298MOL0     O39239  -2.100  10.102   1.957  0.2394  0.3299  0.2592
  298MOL0     C39240  -2.096  10.107   1.817  0.3853 -0.1360 -0.2977
  298MOL0     C39241  -2.229  10.088   1.741 -0.1844 -1.4589 -0.6099
  298MOL0     C39242  -2.336  10.181   1.804  0.3303  0.3479 -0.8740
  298MOL0     C39243  -2.450  10.222   1.715 -0.1501  0.0057 -0.6097
  298MOL0     C39244  -2.556  10.295   1.802 -0.3085 -1.7541  0.8710
  298MOL0     C39245  -2.693  10.287   1.734 -0.0920  0.4834  0.9582
  298MOL0     C39246  -2.798  10.364   1.810 -0.0905  0.3204 -0.1236
  298MOL0     C39247  -2.898  10.272   1.879  0.0030 -0.9831  0.0097
  298MOL0    Cl39248  -2.965  10.141   1.767 -0.0378 -0.0330  0.1398
  298MOL0     C39249  -1.920  10.013   2.082  0.6032 -0.7604 -0.4175
  298MOL0     C39250  -1.883   9.911   2.168  0.4826 -1.0656  0.0657
  298MOL0     O39251  -2.073   9.643   2.361  0.8065  0.0655 -0.3214
  298MOL0     C39252  -1.926   9.500   2.564 -0.2993 -0.9769 -0.6754
  298MOL0     C39253  -1.843   9.429   2.654 -0.4734  0.5910 -0.7941
  298MOL0     N39254  -1.462   8.901   2.889 -0.7007 -0.0022 -0.6640
  298MOL0     N39255  -1.349   8.868   2.856  0.0129  0.9214  0.2262
  298MOL0     C39256  -0.067   8.416   2.962 -0.0387  0.4277  0.7398
  298MOL0     C39257   0.041   8.346   3.024  0.1740  0.7541  0.0147
  298MOL0     C39258   0.228   7.968   3.242 -0.8107  0.4422  0.0508
  298MOL0     C39259   0.363   8.009   3.225 -0.3093  1.1985  0.7869
  298MOL0     C39260   0.469   7.917   3.261 -0.4205 -0.4921 -0.1515
  298MOL0     C39261   0.449   7.792   3.301  0.5507 -0.3737 -0.0459
  298MOL0     O39262   0.559   7.711   3.329  0.0482  0.1427  0.6472
  298MOL0     C39263   0.537   7.595   3.413  0.1359 -0.5178 -0.8303
  298MOL0     C39264   0.663   7.586   3.497  0.4422  0.0502  0.1802
  298MOL0     C39265   0.765   7.470   3.456  0.1198  0.6310  0.3611
  298MOL0     C39266   0.704   7.342   3.488 -0.5423  0.3389 -0.3169
  298MOL0     C39267   0.790   7.229   3.527 -0.4474  0.0533 -0.1144
  298MOL0     C39268   0.852   7.129   3.567 -0.0381  0.8247  0.3192
  298MOL0     C39269   0.310   7.752   3.324  1.0143 -0.0486  0.1924
  298MOL0     C39270   0.205   7.846   3.300 -0.3603 -0.0119 -0.2969
  298MOL0     H39271  -0.125   8.052   3.080 -0.7667  0.5237  0.6205
  298MOL0     H39272  -0.323   8.197   3.006  0.4612  0.1560 -2.0671
  298MOL0     H39273  -0.437   8.322   2.885 -2.2334  0.2426 -0.0493
  298MOL0     H39274  -0.483   8.495   2.843  0.7738 -0.0149  0.2114
  298MOL0     H39275  -0.442   8.549   3.078  0.1483  0.5164 -3.1887
  298MOL0     H39276  -0.455   8.368   3.111  3.1716 -0.7401 -1.5746
  298MOL0     H39277  -0.649   8.503   3.170  0.0678  0.8060  0.8506
  298MOL0     H39278  -0.682   8.375   3.054 -0.6944  0.8968 -0.0571
  298MOL0     H39279  -0.659   8.674   3.012  0.7695 -0.0942  1.4752
  298MOL0     H39280  -0.686   8.562   2.871 -5.3548 -2.0814 -0.3891
  298MOL0     H39281  -0.860   8.536   3.101  2.1084  2.2703 -0.2511
  298MOL0     H39282  -0.899   8.502   2.929  2.2810  0.0389 -1.5460
  298MOL0     H39283  -0.916   8.724   2.861  1.5920 -0.0028  0.3950
  298MOL0     H39284  -0.870   8.797   3.016  1.8054  2.2341 -3.6184
  298MOL0     H39285  -1.122   8.633   2.964 -1.4329 -0.0694  1.3705
  298MOL0     H39286  -1.059   8.709   3.113  2.5423 -0.5091 -0.6509
  298MOL0     H39287  -1.091   8.866   2.851  0.2135  1.4169  0.8107
  298MOL0     H39288  -1.069   8.937   3.003 -0.6766  0.9830  0.3387
  298MOL0     H39289  -1.280   8.959   3.155  0.5461 -1.2512 -0.0312
  298MOL0     H39290  -1.512   9.084   3.183  0.6062  2.1811 -2.1199
  298MOL0     H39291  -1.611   8.950   3.165 -1.6677  1.6187  1.9857
  298MOL0     H39292  -1.729   9.152   3.075  1.3700  0.9971 -0.2734
  298MOL0     H39293  -1.705   9.033   2.950  0.1128  0.6671 -0.3990
  298MOL0     H39294  -1.542   9.285   3.006  0.9635 -0.5363 -0.8499
  298MOL0     H39295  -1.510   9.175   2.873 -0.5267 -0.0291 -1.2045
  298MOL0     H39296  -1.763   9.346   2.899 -1.2231 -0.6290 -2.0100
  298MOL0     H39297  -1.749   9.205   2.797  1.4412 -2.0711  0.8619
  298MOL0     H39298  -1.533   9.532   2.564 -0.0544  0.7985 -1.8293
  298MOL0     H39299  -1.664   9.638   2.384 -1.2158  1.5532  0.0046
  298MOL0     H39300  -2.064   9.646   2.068  1.4120  0.3721 -1.0789
  298MOL0     H39301  -2.176   9.840   1.929 -0.1406 -0.5850 -0.6834
  298MOL0     H39302  -2.018  10.038   1.784 -0.3246 -1.6669  1.1258
  298MOL0     H39303  -2.060  10.208   1.793  1.5625 -0.4765 -0.0363
  298MOL0     H39304  -2.269   9.988   1.725 -3.1118 -0.7144  1.2893
  298MOL0     H39305  -2.204  10.133   1.645  0.1984 -2.0128 -0.7727
  298MOL0     H39306  -2.287  10.277   1.823  0.6081  1.1834 -5.0627
  298MOL0     H39307  -2.355  10.127   1.898  3.4560 -0.5385 -0.6248
  298MOL0     H39308  -2.413  10.283   1.632  0.5459  0.1772 -0.1805
  298MOL0     H39309  -2.498  10.138   1.664  0.9309 -0.0421 -1.6095
  298MOL0     H39310  -2.522  10.400   1.808 -0.7497 -1.3619 -2.1630
  298MOL0     H39311  -2.562  10.247   1.900 -0.7275 -0.0123  1.7409
  298MOL0     H39312  -2.717  10.181   1.716  2.0912  0.1633 -0.4130
  298MOL0     H39313  -2.672  10.326   1.634 -1.2995  2.6483  1.4893
  298MOL0     H39314  -2.755  10.431   1.885 -1.2007 -0.1001  0.9339
  298MOL0     H39315  -2.840  10.423   1.727 -1.0754  1.1115  0.8984
  298MOL0     H39316  -2.981  10.332   1.917  0.8802 -0.5331  1.3095
  298MOL0     H39317  -2.842  10.243   1.968  0.7331  0.3197  0.0076
  298MOL0     H39318  -1.870  10.110   2.086 -2.9863  1.2806 -0.8554
  298MOL0     H39319  -1.800   9.930   2.236 -0.0227  0.9992  0.1590
  298MOL0     H39320  -2.033   9.502   2.578 -0.1469  0.5154  0.5640
  298MOL0     H39321  -1.890   9.371   2.733  0.1262 -0.1164 -0.9479
  298MOL0     H39322  -0.039   8.518   2.937  0.6702  0.1471  0.3901
  298MOL0     H39323   0.136   8.395   3.043  0.3187  0.1275  1.0177
  298MOL0     H39324   0.392   8.107   3.187 -1.4364  1.3126  0.1746
  298MOL0     H39325   0.573   7.947   3.259 -0.6738  0.4369  0.0763
  298MOL0     H39326   0.510   7.501   3.364  0.2553 -1.3012  0.5554
  298MOL0     H39327   0.457   7.609   3.486  0.1524 -3.0382 -0.2336
  298MOL0     H39328   0.713   7.682   3.481  0.3711  0.1294  0.4244
  298MOL0     H39329   0.638   7.575   3.603  2.1987  3.1249  1.0197
  298MOL0     H39330   0.857   7.482   3.516  0.8743 -1.8017 -0.2090
  298MOL0     H39331   0.800   7.471   3.352  0.7144 -0.2498  0.5403
  298MOL0     H39332   0.637   7.361   3.573  0.8057 -0.3805  0.9549
  298MOL0     H39333   0.642   7.302   3.407  1.6706 -0.4055 -1.7237
  298MOL0     H39334   0.905   7.042   3.599  0.2895  1.7573  2.5170
  298MOL0     H39335   0.288   7.655   3.366 -0.5240 -0.9801 -2.5716
  298MOL0     H39336   0.110   7.798   3.321  1.1721 -3.2844 -0.2648
  299MOL0     O39337   5.721   4.219   5.978 -0.1509  0.3918 -0.1915
  299MOL0     C39338   5.697   4.293   5.880 -0.2126 -0.1250 -0.5975
  299MOL0     O39339   5.605   4.386   5.887 -0.2491  0.0732  0.7485
  299MOL0     C39340   5.522   4.420   6.000  0.0632  0.4233 -0.1968
  299MOL0     C39341   5.386   4.390   5.987  0.0032 -0.5401  0.8205
  299MOL0     C39342   5.298   4.408   6.096 -1.4209  0.2716 -0.9538
  299MOL0     C39343   5.340   4.460   6.221  0.5856  0.0850  0.2483
  299MOL0     O39344   5.271   4.480   6.340 -0.1387 -0.8149  0.1714
  299MOL0     C39345   5.129   4.513   6.326 -0.6617 -0.2367 -0.1676
  299MOL0     C39346   5.060   4.522   6.471 -0.1121 -0.1036  1.1963
  299MOL0     C39347   4.922   4.569   6.452  0.6485 -0.0026 -0.6507
  299MOL0     C39348   4.832   4.468   6.408 -0.2222 -0.3128  0.0039
  299MOL0     C39349   4.682   4.512   6.407 -0.0650  0.3846  0.3736
  299MOL0     C39350   4.592   4.396   6.381  0.4916  0.4476  0.2319
  299MOL0     C39351   4.439   4.433   6.416 -0.4633  0.1437  0.1654
  299MOL0     C39352   4.412   4.483   6.560  0.3431 -0.2832  0.3194
  299MOL0     N39353   4.281   4.446   6.599  0.1614 -0.7933  0.9836
  299MOL0     C39354   4.250   4.327   6.656 -0.6042  0.2380  0.2658
  299MOL0     C39355   4.121   4.314   6.641  0.1468  0.5903 -0.4231
  299MOL0     C39356   4.044   4.194   6.652  0.4930  0.9061  0.6854
  299MOL0     C39357   3.918   4.237   6.727  0.0861  0.4025  1.1727
  299MOL0     C39358   3.839   4.112   6.776  1.1486  0.6468 -0.3248
  299MOL0     C39359   3.694   4.147   6.799 -0.0088  0.4655  0.2499
  299MOL0     O39360   3.683   4.249   6.898  0.2253 -0.2144 -0.9134
  299MOL0     C39361   3.560   4.280   6.957 -0.8078 -0.5383 -0.3523
  299MOL0     C39362   3.437   4.236   6.910  0.8378 -0.0264 -0.5610
  299MOL0     C39363   3.323   4.259   6.995 -0.0312  0.7761 -0.5412
  299MOL0     C39364   3.327   4.333   7.110 -0.1621 -0.1714  0.6880
  299MOL0     C39365   3.205   4.364   7.190  0.4324  0.1610 -0.0801
  299MOL0     O39366   3.219   4.404   7.314  0.3894  0.2150  0.5683
  299MOL0     C39367   3.113   4.449   7.391  0.2761 -0.4038  0.2446
  299MOL0     C39368   3.083   4.380   7.507  0.5241  0.0601 -0.2666
  299MOL0     C39369   2.981   4.434   7.595 -0.7535  0.2623 -0.7744
  299MOL0     C39370   2.899   4.539   7.558  0.1452  0.2785 -0.6491
  299MOL0     O39371   2.788   4.564   7.639 -1.0147  0.0145 -0.2323
  299MOL0     C39372   2.685   4.651   7.587 -0.5863  0.9103 -0.1838
  299MOL0     C39373   2.553   4.621   7.666  0.5976 -0.0264  0.0664
  299MOL0     C39374   2.582   4.650   7.812  0.9428  0.9391 -0.2864
  299MOL0     C39375   2.442   4.665   7.888  0.4446 -0.8632 -0.1808
  299MOL0     C39376   2.447   4.695   8.035 -0.4424 -0.0025  0.2314
  299MOL0     C39377   2.308   4.691   8.114 -0.2475  0.0918  0.3720
  299MOL0     C39378   2.220   4.814   8.062  0.2638  0.2096  0.5843
  299MOL0     C39379   2.130   4.866   8.170  0.0217  0.4051  1.0245
  299MOL0    Cl39380   2.224   4.955   8.296 -0.0009 -0.1217 -0.0282
  299MOL0     C39381   2.932   4.611   7.445  0.3365  0.5146 -0.3266
  299MOL0     C39382   3.027   4.556   7.351 -0.1384  0.0746  1.1723
  299MOL0     O39383   3.094   4.343   7.140 -0.0698  0.1849 -0.3473
  299MOL0     C39384   3.450   4.389   7.145 -0.0435 -0.2880  0.6404
  299MOL0     C39385   3.563   4.357   7.071 -0.2090 -0.2205 -0.1059
  299MOL0     N39386   4.074   4.433   6.590  0.2403 -0.1821 -0.1612
  299MOL0     N39387   4.164   4.519   6.568 -0.7319  0.6736  0.1849
  299MOL0     C39388   5.474   4.484   6.227 -1.0364  0.1406  0.4011
  299MOL0     C39389   5.572   4.474   6.121 -0.2999  0.6374 -0.3446
  299MOL0     C39390   5.767   4.272   5.755 -0.2018  0.0521  0.0424
  299MOL0     C39391   5.722   4.322   5.630 -0.7400  0.4940  0.3132
  299MOL0     C39392   5.797   4.288   5.509  0.7144 -0.0835  0.2674
  299MOL0     C39393   5.911   4.212   5.522  0.2926  0.1253 -0.5059
  299MOL0     O39394   5.955   4.176   5.398 -0.5952 -0.5670 -0.0156
  299MOL0     C39395   6.083   4.123   5.364  0.5852  0.8139  0.2483
  299MOL0     C39396   6.111   4.172   5.223 -0.7824 -0.6774  0.4442
  299MOL0     C39397   6.251   4.122   5.168  0.4640  0.2277 -0.6113
  299MOL0     C39398   6.334   4.220   5.084  0.0857  0.3171 -0.3561
  299MOL0     C39399   6.445   4.146   5.024 -0.8554 -0.5486 -0.3358
  299MOL0     C39400   6.536   4.076   4.981  0.8920  0.3254  1.0437
  299MOL0     C39401   5.955   4.164   5.641  0.7783 -0.6062  0.5152
  299MOL0     C39402   5.879   4.189   5.757 -0.2618  0.5222  0.0946
  299MOL0     H39403   5.341   4.354   5.895 -1.1834  1.2146  0.6581
  299MOL0     H39404   5.192   4.388   6.083 -1.8769  2.0259 -0.3188
  299MOL0     H39405   5.075   4.443   6.261  1.2564 -1.0410 -0.9701
  299MOL0     H39406   5.123   4.610   6.276  4.8891 -0.6011 -2.2301
  299MOL0     H39407   5.113   4.597   6.530 -0.3581 -0.9674  2.5603
  299MOL0     H39408   5.052   4.427   6.525  0.0257 -1.5204 -1.1594
  299MOL0     H39409   4.921   4.653   6.382  4.6018  0.1878 -0.6979
  299MOL0     H39410   4.881   4.611   6.544  0.1975 -2.9321  0.5905
  299MOL0     H39411   4.855   4.451   6.303  0.0760  0.9019 -0.1445
  299MOL0     H39412   4.850   4.372   6.456  1.6483  0.2139  0.4285
  299MOL0     H39413   4.649   4.588   6.335 -0.1715  0.4745  0.5151
  299MOL0     H39414   4.668   4.563   6.503  1.7704 -1.3935  1.6791
  299MOL0     H39415   4.609   4.310   6.447  0.6151 -0.3595 -0.8219
  299MOL0     H39416   4.600   4.354   6.280 -2.5015 -1.5441  0.6950
  299MOL0     H39417   4.398   4.492   6.334 -1.7604 -1.2505 -0.2132
  299MOL0     H39418   4.376   4.344   6.417  1.4779 -1.3117  1.7084
  299MOL0     H39419   4.433   4.589   6.580  0.6741 -0.2847 -0.0115
  299MOL0     H39420   4.483   4.420   6.615 -0.1748 -2.4871 -1.3979
  299MOL0     H39421   4.305   4.233   6.655 -3.8778 -1.8507 -0.9471
  299MOL0     H39422   4.095   4.101   6.679  0.2773 -0.3951 -2.8544
  299MOL0     H39423   4.007   4.173   6.551  0.7004  2.0438  0.3561
  299MOL0     H39424   3.862   4.290   6.649 -1.7749 -0.4398  1.8726
  299MOL0     H39425   3.952   4.295   6.813  4.7133  0.6452 -0.5691
  299MOL0     H39426   3.839   4.054   6.684  1.8097 -0.7111  0.5022
  299MOL0     H39427   3.874   4.055   6.863 -3.6070  0.6758  1.9520
  299MOL0     H39428   3.638   4.065   6.846 -2.7023  1.5641 -0.8265
  299MOL0     H39429   3.630   4.170   6.713 -1.5754 -1.6509  0.7599
  299MOL0     H39430   3.419   4.178   6.820 -1.7529  1.4173 -1.0869
  299MOL0     H39431   3.225   4.223   6.966 -0.8340 -1.2475  3.8369
  299MOL0     H39432   3.154   4.304   7.538  2.2382  1.0056 -1.6781
  299MOL0     H39433   2.954   4.378   7.684 -1.0467  1.0391 -0.3672
  299MOL0     H39434   2.672   4.634   7.480  0.0474  3.0785 -0.6384
  299MOL0     H39435   2.721   4.753   7.602  2.0288  0.0459  0.0244
  299MOL0     H39436   2.517   4.518   7.655  0.4004 -0.2871  2.4823
  299MOL0     H39437   2.480   4.693   7.627  3.3350  2.5093 -0.6668
  299MOL0     H39438   2.640   4.741   7.826  3.3231 -0.5500  0.0911
  299MOL0     H39439   2.637   4.563   7.849 -1.9095 -1.0433 -0.3914
  299MOL0     H39440   2.381   4.741   7.838 -0.6522 -3.6778 -3.5712
  299MOL0     H39441   2.381   4.576   7.875 -0.8575 -0.1030  0.4970
  299MOL0     H39442   2.509   4.783   8.055 -1.6861  1.0763 -0.5114
  299MOL0     H39443   2.499   4.607   8.075 -1.2157 -0.6977 -0.2703
  299MOL0     H39444   2.307   4.708   8.222 -1.5154  0.5193  0.3037
  299MOL0     H39445   2.258   4.597   8.085  0.8306 -0.6172  0.7549
  299MOL0     H39446   2.275   4.905   8.039 -0.5891  1.0594  1.7696
  299MOL0     H39447   2.170   4.777   7.972  2.0106 -1.0183  0.0659
  299MOL0     H39448   2.081   4.781   8.219  0.6590  0.0415  1.0302
  299MOL0     H39449   2.052   4.924   8.119  1.3800 -0.2677 -2.0005
  299MOL0     H39450   2.868   4.691   7.409  0.4789  0.4398 -0.7454
  299MOL0     H39451   3.031   4.593   7.249 -1.1187 -0.7736  0.8019
  299MOL0     H39452   3.444   4.453   7.233  0.2588 -0.0673  0.5056
  299MOL0     H39453   3.651   4.400   7.118 -1.1199  0.1308  1.3633
  299MOL0     H39454   5.493   4.519   6.328  1.4002 -0.0890  0.0750
  299MOL0     H39455   5.676   4.501   6.138 -0.6426  0.3296  2.9710
  299MOL0     H39456   5.640   4.391   5.617 -0.6941  0.7882  1.4943
  299MOL0     H39457   5.768   4.342   5.419  0.9117  1.8160  1.3002
  299MOL0     H39458   6.079   4.014   5.365 -0.3822  0.8442  1.5610
  299MOL0     H39459   6.156   4.155   5.439 -0.4748 -0.6150  1.9723
  299MOL0     H39460   6.031   4.164   5.149  0.5746 -1.7390 -0.9586
  299MOL0     H39461   6.128   4.279   5.239  0.0686 -1.1209  2.9726
  299MOL0     H39462   6.221   4.037   5.106 -1.3290 -0.0993  0.6391
  299MOL0     H39463   6.298   4.082   5.258 -0.0684 -2.6986 -1.5359
  299MOL0     H39464   6.287   4.274   5.002 -0.2130 -1.5912 -1.4722
  299MOL0     H39465   6.380   4.297   5.148  0.5023  1.0908 -1.5578
  299MOL0     H39466   6.604   4.013   4.927  0.6345  2.2968 -1.8260
  299MOL0     H39467   6.042   4.099   5.634  2.0110  0.8783  1.2429
  299MOL0     H39468   5.896   4.136   5.849 -1.4781 -0.7504 -0.3825
  300MOL0     O39469   0.669   6.044  10.971  0.2792 -0.4125  0.9060
  300MOL0     C39470   0.754   5.959  10.990  0.5009  0.8880  0.0200
  300MOL0     O39471   0.730   5.822  10.990 -0.3489 -0.5988  0.0269
  300MOL0     C39472   0.600   5.806  10.941  0.4464  0.3555  0.0442
  300MOL0     C39473   0.481   5.831  11.017  0.1357 -0.2625 -0.1964
  300MOL0     C39474   0.353   5.819  10.962 -0.5008  0.8286 -0.3726
  300MOL0     C39475   0.326   5.760  10.842  0.0812 -0.6881  0.1269
  300MOL0     O39476   0.194   5.751  10.804  0.3238  0.4031  0.4679
  300MOL0     C39477   0.177   5.718  10.662  0.5416  1.3560  0.1033
  300MOL0     C39478   0.030   5.729  10.614  0.0387 -0.1674 -0.6943
  300MOL0     C39479  -0.006   5.659  10.485  0.3567  0.4942 -0.4686
  300MOL0     C39480   0.022   5.768  10.376  0.0480  0.4924 -0.7860
  300MOL0     C39481   0.024   5.721  10.222 -0.4236 -0.6005 -0.4419
  300MOL0     C39482  -0.068   5.797  10.137  0.6566 -0.3049 -0.6357
  300MOL0     C39483  -0.068   5.744   9.995 -0.2424 -0.9842  0.3951
  300MOL0     C39484  -0.144   5.844   9.913  0.2019 -0.5897 -0.4920
  300MOL0     N39485  -0.076   5.978   9.885  0.1313 -0.7099 -0.7142
  300MOL0     C39486   0.043   6.009   9.817  0.0833 -0.1305  0.7428
  300MOL0     C39487   0.044   6.141   9.814 -0.6086  0.1295 -0.4843
  300MOL0     C39488   0.159   6.225   9.766  0.4343  0.4353 -0.6021
  300MOL0     C39489   0.251   6.262   9.883  1.0800 -0.7832 -0.3090
  300MOL0     C39490   0.351   6.149   9.909 -0.0650  0.2596  0.3147
  300MOL0     C39491   0.462   6.197   9.999 -0.4044 -0.0433 -0.8992
  300MOL0     O39492   0.571   6.110  10.002  0.5121  0.1593  0.7384
  300MOL0     C39493   0.685   6.165  10.066  0.3275 -0.2942 -0.1706
  300MOL0     C39494   0.711   6.285  10.131  0.3054  0.6818  0.0356
  300MOL0     C39495   0.836   6.317  10.179  1.5665 -0.4776  0.5421
  300MOL0     C39496   0.942   6.242  10.152  0.1808  0.3079 -0.4792
  300MOL0     C39497   1.070   6.289  10.194 -1.1792 -0.9138  0.8827
  300MOL0     O39498   1.090   6.426  10.206 -0.5922  0.0841 -0.1412
  300MOL0     C39499   1.208   6.489  10.251 -1.0900  0.5796 -0.0615
  300MOL0     C39500   1.318   6.429  10.312 -0.4081  0.7691 -0.2501
  300MOL0     C39501   1.416   6.501  10.375 -0.3258  0.5259  0.4345
  300MOL0     C39502   1.415   6.641  10.370  0.2581 -0.6716  0.2893
  300MOL0     O39503   1.508   6.723  10.432  0.6187 -0.2715 -0.3922
  300MOL0     C39504   1.643   6.693  10.386  0.0210  0.3839  0.1272
  300MOL0     C39505   1.709   6.830  10.409 -0.5229 -0.3692  0.6818
  300MOL0     C39506   1.864   6.846  10.379 -0.3686  0.2058 -0.5613
  300MOL0     C39507   1.887   6.851  10.228 -0.5374 -0.2461 -0.4249
  300MOL0     C39508   2.036   6.871  10.203 -0.0059 -0.2244  0.3630
  300MOL0     C39509   2.095   6.846  10.069 -0.4410 -0.2534  0.7827
  300MOL0     C39510   2.251   6.871  10.075 -0.2692  0.4595  0.2396
  300MOL0     C39511   2.328   6.777   9.992  0.7206  0.9167  0.2085
  300MOL0    Cl39512   2.326   6.609  10.055  0.0482  0.0767 -0.0674
  300MOL0     C39513   1.305   6.710  10.318  0.8884  0.2420  1.3533
  300MOL0     C39514   1.200   6.628  10.259 -0.6020 -0.9624 -0.5125
  300MOL0     O39515   1.163   6.206  10.192 -0.5229  0.0064 -0.3686
  300MOL0     C39516   0.922   6.114  10.093  0.2177 -0.3584  0.3802
  300MOL0     C39517   0.792   6.086  10.049 -0.7868 -0.2894 -0.3564
  300MOL0     N39518  -0.062   6.191   9.886 -0.3674 -0.0810 -0.0494
  300MOL0     N39519  -0.138   6.092   9.930  0.2358 -0.4802  1.3773
  300MOL0     C39520   0.438   5.714  10.769  0.3996 -0.0356  0.5855
  300MOL0     C39521   0.573   5.755  10.808  0.6285  0.4385  0.4061
  300MOL0     C39522   0.885   6.006  11.021 -0.0268  0.3275 -0.4696
  300MOL0     C39523   0.907   6.143  11.062  0.1351 -0.4010  0.2051
  300MOL0     C39524   1.038   6.178  11.110  0.8269 -0.0790 -0.0412
  300MOL0     C39525   1.147   6.082  11.111  0.6839  0.2887  0.2816
  300MOL0     O39526   1.272   6.098  11.152 -0.2282  0.0127  0.5047
  300MOL0     C39527   1.283   6.181  11.268  0.1566 -0.2688  0.5025
  300MOL0     C39528   1.432   6.192  11.300 -0.4524  0.1795  0.2792
  300MOL0     C39529   1.539   6.234  11.187 -0.5329  0.1468 -0.3910
  300MOL0     C39530   1.536   6.383  11.176 -0.1488  0.5905  0.2221
  300MOL0     C39531   1.612   6.427  11.062  0.3242 -0.2112  0.4930
  300MOL0     C39532   1.680   6.435  10.963 -0.4075 -0.3027 -0.0966
  300MOL0     C39533   1.128   5.953  11.053 -0.1140  1.2390  0.1975
  300MOL0     C39534   0.994   5.920  11.013 -0.4388  0.3078 -1.0045
  300MOL0     H39535   0.482   5.866  11.119  2.3301 -2.0888  0.4638
  300MOL0     H39536   0.271   5.853  11.025  1.9623  1.1946  2.8959
  300MOL0     H39537   0.213   5.615  10.651 -1.4585  0.7073 -0.7936
  300MOL0     H39538   0.240   5.787  10.605  2.0158  0.6628  0.8313
  300MOL0     H39539  -0.009   5.831  10.615  2.5789  0.9093  1.1264
  300MOL0     H39540  -0.022   5.672  10.691 -1.4644 -0.2827 -1.7611
  300MOL0     H39541  -0.111   5.632  10.477 -0.4232  3.5154 -1.5835
  300MOL0     H39542   0.047   5.565  10.470 -1.2197 -0.3233 -1.1020
  300MOL0     H39543  -0.039   5.858  10.388 -2.4297 -1.1955  0.0600
  300MOL0     H39544   0.128   5.793  10.389  0.2459 -1.1501  1.3612
  300MOL0     H39545   0.001   5.615  10.228 -0.0826 -0.6103  0.9667
  300MOL0     H39546   0.126   5.741  10.185  0.1881 -0.2432  1.3482
  300MOL0     H39547  -0.037   5.902  10.137 -0.3935  0.0189 -0.3407
  300MOL0     H39548  -0.166   5.796  10.185  0.2730  0.0977 -1.3720
  300MOL0     H39549   0.031   5.727   9.952  0.4742  0.4476  1.4250
  300MOL0     H39550  -0.122   5.649   9.986 -0.7722 -0.5304 -2.3026
  300MOL0     H39551  -0.245   5.842   9.955  0.5629 -3.7139  0.4733
  300MOL0     H39552  -0.167   5.796   9.817  1.1266 -5.2705  1.3811
  300MOL0     H39553   0.127   5.949   9.787  0.5207  0.9369 -0.2578
  300MOL0     H39554   0.116   6.306   9.708 -0.4863 -0.5484 -1.3341
  300MOL0     H39555   0.209   6.161   9.693 -1.6876 -2.3669  0.2181
  300MOL0     H39556   0.191   6.280   9.973  0.0017 -0.3380 -1.0946
  300MOL0     H39557   0.305   6.353   9.857 -1.8571  1.9057  2.1578
  300MOL0     H39558   0.301   6.065   9.957  0.5349 -0.1822  0.1670
  300MOL0     H39559   0.392   6.113   9.814 -2.5401 -2.4873  0.1433
  300MOL0     H39560   0.416   6.193  10.098  3.1247 -0.8464  0.8796
  300MOL0     H39561   0.496   6.296   9.965  2.7026 -1.0914 -1.1231
  300MOL0     H39562   0.626   6.351  10.146 -0.9350 -0.6945 -0.6030
  300MOL0     H39563   0.839   6.413  10.229  0.9508  0.9512 -1.9683
  300MOL0     H39564   1.328   6.323  10.330 -1.9562  0.7668  0.7425
  300MOL0     H39565   1.483   6.444  10.439  0.2337 -2.1701 -2.3350
  300MOL0     H39566   1.632   6.682  10.278 -2.7568  0.6091  0.3023
  300MOL0     H39567   1.690   6.611  10.440 -1.4216 -1.9709 -1.9433
  300MOL0     H39568   1.693   6.848  10.516 -2.4366 -0.2279  0.4124
  300MOL0     H39569   1.648   6.909  10.363 -1.9782 -0.9766  1.4893
  300MOL0     H39570   1.904   6.750  10.412 -1.9475 -0.4611 -0.4852
  300MOL0     H39571   1.907   6.932  10.431 -0.8614  0.5199 -0.6598
  300MOL0     H39572   1.859   6.759  10.176 -2.4311  0.3393 -0.5144
  300MOL0     H39573   1.823   6.927  10.184 -3.0098 -2.0395 -0.1160
  300MOL0     H39574   2.098   6.808  10.266  2.1043  0.7870 -0.6131
  300MOL0     H39575   2.055   6.976  10.226 -3.5888  0.5322  0.5180
  300MOL0     H39576   2.032   6.908  10.004 -1.3184  0.3420  2.1309
  300MOL0     H39577   2.088   6.740  10.044  3.1952 -1.3731  3.6025
  300MOL0     H39578   2.275   6.969  10.032 -3.0048  1.6231  1.1721
  300MOL0     H39579   2.291   6.866  10.176 -2.1569  1.8103  1.1213
  300MOL0     H39580   2.435   6.798   9.980  1.0973 -1.5563 -1.6632
  300MOL0     H39581   2.286   6.780   9.891  1.0639 -0.5079  0.0079
  300MOL0     H39582   1.306   6.819  10.318  0.2479  0.3444 -1.5160
  300MOL0     H39583   1.124   6.690  10.212 -2.6855 -3.4549 -0.6762
  300MOL0     H39584   1.012   6.053  10.091  1.0152  0.8156 -0.8973
  300MOL0     H39585   0.783   5.992   9.995 -2.9540  0.4935 -1.4726
  300MOL0     H39586   0.419   5.655  10.680 -1.0303  0.7457  0.3420
  300MOL0     H39587   0.655   5.733  10.740 -2.0383 -3.6374 -1.9443
  300MOL0     H39588   0.825   6.214  11.055 -1.7458 -2.3866  0.7490
  300MOL0     H39589   1.053   6.281  11.141  1.4834 -0.1097 -0.2360
  300MOL0     H39590   1.227   6.136  11.351 -3.3486  0.0125 -1.5371
  300MOL0     H39591   1.245   6.283  11.263 -1.9206 -0.7562  3.5634
  300MOL0     H39592   1.450   6.266  11.379  1.9638  0.4225 -0.4240
  300MOL0     H39593   1.461   6.094  11.338  0.5055  1.6193  3.6283
  300MOL0     H39594   1.510   6.192  11.090  3.3511  1.0552 -2.1076
  300MOL0     H39595   1.638   6.197  11.214 -1.1999 -0.4339  1.4580
  300MOL0     H39596   1.432   6.418  11.174 -0.2937  0.3028  1.5077
  300MOL0     H39597   1.591   6.426  11.261  0.8478  1.0320 -0.6316
  300MOL0     H39598   1.722   6.415  10.866 -2.5491 -1.2092 -0.9019
  300MOL0     H39599   1.212   5.884  11.060  0.0532  1.2889 -1.0955
  300MOL0     H39600   0.966   5.822  10.975 -1.4167 -0.5406  1.6863
  301MOL0     O39601  10.200   9.067   4.258  0.1963 -0.7745 -0.7985
  301MOL0     C39602  10.224   8.957   4.197  0.2618 -0.5589  0.2424
  301MOL0     O39603  10.128   8.863   4.170  0.1344  0.5350  0.4151
  301MOL0     C39604   9.994   8.880   4.177 -0.1229 -0.6058  0.1260
  301MOL0     C39605   9.913   8.762   4.194  0.2486  0.3508  0.4531
  301MOL0     C39606   9.778   8.764   4.177 -0.1065  0.1985 -1.3549
  301MOL0     C39607   9.711   8.882   4.169 -0.6938 -0.4683 -0.2019
  301MOL0     O39608   9.572   8.874   4.157 -0.0420  0.0499 -0.3512
  301MOL0     C39609   9.495   8.965   4.229 -0.1614 -0.4332 -0.9657
  301MOL0     C39610   9.362   8.979   4.164  0.0908  0.3248  0.0567
  301MOL0     C39611   9.369   9.093   4.071  0.5657 -0.0700  0.6049
  301MOL0     C39612   9.227   9.116   4.009 -1.4678  0.4044  0.1636
  301MOL0     C39613   9.129   9.203   4.086  0.2594 -0.1586  0.6094
  301MOL0     C39614   8.991   9.230   4.013 -0.2423  0.1038  0.4246
  301MOL0     C39615   8.990   9.316   3.891 -0.0521  0.0104 -0.0346
  301MOL0     C39616   8.845   9.325   3.834  0.3000  0.9012  0.1012
  301MOL0     N39617   8.806   9.198   3.780  0.5437 -0.6667  0.2977
  301MOL0     C39618   8.720   9.111   3.842  0.5127  0.0550 -0.2773
  301MOL0     C39619   8.746   8.990   3.787  0.0307 -0.4917 -1.2473
  301MOL0     C39620   8.670   8.866   3.809 -0.5924  0.2741  0.1719
  301MOL0     C39621   8.583   8.833   3.678 -0.4910 -0.0873 -0.3896
  301MOL0     C39622   8.488   8.712   3.687  0.2510  0.0822  0.3374
  301MOL0     C39623   8.367   8.746   3.769  0.4308 -0.6989 -0.2935
  301MOL0     O39624   8.278   8.636   3.752  0.1425  0.6034 -0.2025
  301MOL0     C39625   8.164   8.629   3.817  0.4322 -0.4827 -0.4665
  301MOL0     C39626   8.089   8.738   3.870 -0.0561  1.3622  0.1808
  301MOL0     C39627   7.969   8.716   3.936 -0.5063 -1.1130 -0.2100
  301MOL0     C39628   7.912   8.585   3.945  0.8233 -0.6853 -0.1010
  301MOL0     C39629   7.778   8.562   4.006  1.0524  0.5029 -0.5148
  301MOL0     O39630   7.727   8.439   4.026  0.2208  0.0346  0.9001
  301MOL0     C39631   7.592   8.433   4.049 -0.1647  0.3704  0.1260
  301MOL0     C39632   7.513   8.356   3.966 -0.9405  0.1822 -0.0384
  301MOL0     C39633   7.378   8.357   3.989  0.3802 -0.0247  0.7203
  301MOL0     C39634   7.312   8.423   4.090  0.8686 -0.2466  0.3563
  301MOL0     O39635   7.171   8.408   4.094 -0.2841 -0.0514  0.0510
  301MOL0     C39636   7.103   8.427   4.219 -0.2731  0.3737 -0.0021
  301MOL0     C39637   6.953   8.389   4.211 -0.7000 -0.1784  0.0481
  301MOL0     C39638   6.884   8.475   4.101 -0.5331  0.4634  0.4434
  301MOL0     C39639   6.738   8.511   4.151 -0.5800 -0.1457  0.0802
  301MOL0     C39640   6.687   8.639   4.093 -0.6701 -0.1055 -0.0638
  301MOL0     C39641   6.535   8.662   4.137 -0.1722 -0.3320  0.2306
  301MOL0     C39642   6.444   8.539   4.086 -0.0388 -0.8882 -0.2226
  301MOL0     C39643   6.295   8.561   4.081 -0.0844 -0.3826 -0.6446
  301MOL0    Cl39644   6.267   8.672   3.937 -0.1366 -0.2801 -0.0785
  301MOL0     C39645   7.386   8.507   4.172  0.1281 -0.0254  0.2359
  301MOL0     C39646   7.523   8.507   4.160  0.8652 -0.1702  0.6940
  301MOL0     O39647   7.722   8.667   4.035 -0.0809  0.2252  0.3032
  301MOL0     C39648   7.984   8.483   3.897 -0.3619  0.3090 -0.5649
  301MOL0     C39649   8.109   8.505   3.838  0.0647  0.8560  0.8124
  301MOL0     N39650   8.845   9.008   3.691 -0.2360 -1.0101 -0.2244
  301MOL0     N39651   8.875   9.128   3.689  0.0116 -0.1163 -0.2359
  301MOL0     C39652   9.776   8.997   4.164 -0.2918 -0.6724  0.5894
  301MOL0     C39653   9.920   9.001   4.168  0.1003 -0.0519 -0.2222
  301MOL0     C39654  10.369   8.922   4.159  0.1025 -0.6690  0.0250
  301MOL0     C39655  10.460   9.019   4.177 -0.5773 -0.0992 -0.3589
  301MOL0     C39656  10.586   9.000   4.131 -0.4198 -0.7613 -0.1754
  301MOL0     C39657  10.629   8.881   4.073  0.0404  0.0573  0.7580
  301MOL0     O39658  10.759   8.881   4.021  0.1562 -0.2303  0.2493
  301MOL0     C39659  10.821   8.753   3.997  0.7805  0.1213 -0.5639
  301MOL0     C39660  10.979   8.757   4.018  0.3306  0.2127  0.7888
  301MOL0     C39661  11.030   8.786   4.159 -0.4985 -0.4079  0.6941
  301MOL0     C39662  11.183   8.805   4.167 -1.0027 -0.8420 -0.8392
  301MOL0     C39663  11.238   8.667   4.164  0.5991 -0.2623  0.3707
  301MOL0     C39664  11.283   8.558   4.148  0.3579  0.3729 -0.1743
  301MOL0     C39665  10.536   8.772   4.072  0.0083  0.4929  0.6155
  301MOL0     C39666  10.401   8.801   4.103 -0.6976  0.5573  0.8195
  301MOL0     H39667   9.976   8.674   4.201  1.9477  1.5895  1.1661
  301MOL0     H39668   9.711   8.678   4.177 -2.2149  1.6306  1.9590
  301MOL0     H39669   9.542   9.062   4.248 -0.0655 -0.8851  1.4394
  301MOL0     H39670   9.493   8.921   4.329  0.6193  0.5107 -0.5188
  301MOL0     H39671   9.294   8.999   4.247  1.2881  2.1884  0.6440
  301MOL0     H39672   9.347   8.880   4.120  4.6892 -0.7091  0.3109
  301MOL0     H39673   9.432   9.058   3.989 -0.8003 -0.9706 -0.0948
  301MOL0     H39674   9.418   9.180   4.115 -1.0105  0.7589  0.8104
  301MOL0     H39675   9.239   9.182   3.922 -1.9352 -0.0134 -0.2280
  301MOL0     H39676   9.197   9.015   3.980  3.0249 -1.5233  1.3970
  301MOL0     H39677   9.178   9.298   4.107  0.2253 -0.6905  3.4660
  301MOL0     H39678   9.113   9.152   4.181  2.8417 -1.2846  0.5221
  301MOL0     H39679   8.923   9.285   4.078 -0.0940  0.2347  0.4727
  301MOL0     H39680   8.940   9.137   3.988 -0.7444  0.6916 -0.8195
  301MOL0     H39681   9.039   9.413   3.901 -0.9506  0.5968 -1.1074
  301MOL0     H39682   9.054   9.263   3.821  2.3390  1.2921  1.0353
  301MOL0     H39683   8.858   9.385   3.743  0.5699  1.6975  0.6462
  301MOL0     H39684   8.773   9.366   3.906  1.9301  3.4749  0.3971
  301MOL0     H39685   8.657   9.144   3.924  1.4517 -1.1247  0.9739
  301MOL0     H39686   8.598   8.865   3.891 -2.5697  0.9062 -1.4651
  301MOL0     H39687   8.744   8.788   3.828 -1.4460 -0.4815  0.4788
  301MOL0     H39688   8.649   8.802   3.596  1.9258 -0.9669  1.7545
  301MOL0     H39689   8.520   8.917   3.648  1.4433  2.3458  1.8651
  301MOL0     H39690   8.457   8.685   3.586 -2.4699 -2.9201  1.7973
  301MOL0     H39691   8.552   8.638   3.735  0.6898  1.6966  2.4222
  301MOL0     H39692   8.321   8.840   3.736 -1.8800 -0.1685  3.8300
  301MOL0     H39693   8.395   8.770   3.872 -2.1512  0.4327  0.2201
  301MOL0     H39694   8.126   8.839   3.855 -1.2009  1.6507 -0.8654
  301MOL0     H39695   7.917   8.804   3.970 -0.2998 -1.2180  0.3919
  301MOL0     H39696   7.565   8.300   3.889 -1.9919 -0.6328 -0.1832
  301MOL0     H39697   7.323   8.297   3.917  1.2560  1.8749 -1.7110
  301MOL0     H39698   7.114   8.528   4.259  1.6835 -0.2402  1.1786
  301MOL0     H39699   7.141   8.368   4.303  1.7044  0.8029 -0.5382
  301MOL0     H39700   6.908   8.395   4.310  3.0378 -3.0586  2.1926
  301MOL0     H39701   6.940   8.284   4.185 -2.9418  0.1614 -0.3967
  301MOL0     H39702   6.872   8.413   4.012 -0.7617 -3.1124  2.7669
  301MOL0     H39703   6.938   8.565   4.072 -0.8316  0.3368 -0.5391
  301MOL0     H39704   6.675   8.431   4.112 -0.5784  0.9885 -2.4777
  301MOL0     H39705   6.738   8.531   4.259 -0.4965  1.1056 -0.1314
  301MOL0     H39706   6.705   8.637   3.985 -0.0922  2.8326 -0.1160
  301MOL0     H39707   6.746   8.722   4.135 -1.4057  0.1809  0.4225
  301MOL0     H39708   6.499   8.760   4.103 -1.6600 -1.0002 -0.1894
  301MOL0     H39709   6.536   8.674   4.245  1.3611 -0.6932  0.2814
  301MOL0     H39710   6.479   8.507   3.987  0.0257 -0.9064 -0.1941
  301MOL0     H39711   6.468   8.457   4.155  1.4553  0.9761  1.5812
  301MOL0     H39712   6.247   8.601   4.172  0.4428  0.6341 -0.8025
  301MOL0     H39713   6.243   8.469   4.055  0.9207 -1.1462 -0.0232
  301MOL0     H39714   7.339   8.570   4.247 -1.4023 -1.1893  0.2904
  301MOL0     H39715   7.575   8.574   4.228  0.1299  3.1499 -1.7155
  301MOL0     H39716   7.950   8.381   3.910  1.5074 -0.0954  2.0383
  301MOL0     H39717   8.175   8.427   3.800  1.0597  3.5463 -3.7011
  301MOL0     H39718   9.727   9.093   4.154  3.6085  1.3576 -1.2734
  301MOL0     H39719   9.975   9.095   4.175 -1.1315  0.7617 -1.1860
  301MOL0     H39720  10.415   9.112   4.210 -0.6598 -0.6087  1.0400
  301MOL0     H39721  10.659   9.081   4.132 -1.4987  0.3491  3.2966
  301MOL0     H39722  10.797   8.716   3.897 -3.2215 -0.1685  0.3209
  301MOL0     H39723  10.778   8.675   4.060 -2.1122  1.6681 -0.4724
  301MOL0     H39724  11.013   8.666   3.968  0.5424  1.3365 -1.1899
  301MOL0     H39725  11.006   8.839   3.950  0.3218  0.4891  1.1164
  301MOL0     H39726  10.983   8.718   4.230 -2.9450  0.6414  0.2044
  301MOL0     H39727  10.995   8.887   4.186  0.6082 -0.5340  2.7760
  301MOL0     H39728  11.213   8.867   4.082  2.2440  1.6953  1.9165
  301MOL0     H39729  11.226   8.849   4.257  3.0002 -1.1195 -2.4475
  301MOL0     H39730  11.332   8.466   4.123  1.5196  1.2298 -1.2373
  301MOL0     H39731  10.556   8.672   4.035 -0.9501  0.4366  0.2209
  301MOL0     H39732  10.325   8.725   4.093 -2.6434  2.1977  2.3603
  302MOL0     O39733   7.601   6.128  10.358  0.5292 -0.4798 -0.5429
  302MOL0     C39734   7.672   6.029  10.369  0.2505  0.3343  0.2946
  302MOL0     O39735   7.643   5.901  10.324  0.2069  0.2549  0.3942
  302MOL0     C39736   7.539   5.890  10.236 -0.0638 -0.5729  0.7675
  302MOL0     C39737   7.562   5.850  10.100  0.1201 -0.5709 -0.2664
  302MOL0     C39738   7.453   5.829  10.014 -0.3854  0.0032  0.4189
  302MOL0     C39739   7.327   5.867  10.056  0.5179  0.6302 -0.0950
  302MOL0     O39740   7.221   5.844   9.975 -0.0152  0.2962 -0.8590
  302MOL0     C39741   7.223   5.915   9.858 -1.1898 -0.4073 -0.0041
  302MOL0     C39742   7.084   5.910   9.788  0.0823 -0.3350 -0.5790
  302MOL0     C39743   6.961   5.967   9.865 -1.1178  0.6459  0.4876
  302MOL0     C39744   6.825   5.935   9.807  0.3755 -0.4776  0.2214
  302MOL0     C39745   6.711   6.008   9.876  0.6805 -0.3253 -0.8039
  302MOL0     C39746   6.583   6.018   9.785  0.1334  0.3709 -0.2769
  302MOL0     C39747   6.465   6.088   9.862 -0.3891 -0.2366  0.2411
  302MOL0     C39748   6.376   6.171   9.776  0.6414 -0.3456  0.4432
  302MOL0     N39749   6.290   6.094   9.682  0.4275 -0.5685 -0.5514
  302MOL0     C39750   6.171   6.039   9.726 -0.1011 -0.5896  1.0380
  302MOL0     C39751   6.108   6.003   9.612 -0.5486  0.1576 -0.5520
  302MOL0     C39752   5.990   5.916   9.615 -0.0281  0.1724 -0.3901
  302MOL0     C39753   5.876   5.986   9.540 -0.5375  0.5645  0.6477
  302MOL0     C39754   5.747   5.910   9.565 -0.8406 -0.0665 -0.7990
  302MOL0     C39755   5.647   5.981   9.471  0.8273 -0.0360 -0.3472
  302MOL0     O39756   5.516   5.917   9.490  1.0090  0.2038  0.3279
  302MOL0     C39757   5.405   5.970   9.424 -0.3393  0.4680  0.7109
  302MOL0     C39758   5.408   6.095   9.354  0.3063  0.0045 -0.7332
  302MOL0     C39759   5.284   6.154   9.301  0.9343 -0.7936 -0.2392
  302MOL0     C39760   5.163   6.088   9.318  0.9221  0.2787 -0.7278
  302MOL0     C39761   5.040   6.133   9.247 -0.6930  0.6344  0.1112
  302MOL0     O39762   4.931   6.054   9.273 -0.4730 -0.5275  0.3302
  302MOL0     C39763   4.811   6.080   9.218  0.5493 -0.2465 -0.0701
  302MOL0     C39764   4.691   6.085   9.300  0.6583  0.0143  0.0546
  302MOL0     C39765   4.559   6.103   9.252  0.6130  0.5635  0.0093
  302MOL0     C39766   4.545   6.112   9.112  0.2770 -0.4299  0.4510
  302MOL0     O39767   4.429   6.150   9.051 -0.1358 -0.7154 -0.1066
  302MOL0     C39768   4.315   6.082   9.097  0.5159  0.1038 -0.0122
  302MOL0     C39769   4.220   6.082   8.974 -0.0691 -0.6131 -0.3344
  302MOL0     C39770   4.081   6.012   8.996  0.0199  0.9486 -0.0205
  302MOL0     C39771   3.988   6.097   9.083  0.0449 -0.7219  0.5034
  302MOL0     C39772   3.840   6.052   9.086 -0.2078  0.5920 -0.3010
  302MOL0     C39773   3.759   6.151   9.173 -0.5429  0.6492  0.4701
  302MOL0     C39774   3.615   6.089   9.204  0.1118 -0.3347  0.2647
  302MOL0     C39775   3.518   6.132   9.086 -0.1428  1.0087 -0.4967
  302MOL0    Cl39776   3.337   6.120   9.120 -0.2931  0.0560 -0.1409
  302MOL0     C39777   4.655   6.113   9.028 -0.2652 -0.2029  0.3150
  302MOL0     C39778   4.790   6.093   9.082  0.4446 -1.1325  0.6342
  302MOL0     O39779   5.032   6.243   9.195  0.2122  0.1195 -0.1517
  302MOL0     C39780   5.167   5.957   9.385  0.3753  0.4104 -0.3517
  302MOL0     C39781   5.282   5.901   9.441 -0.9422 -0.9709 -0.2765
  302MOL0     N39782   6.190   6.033   9.504 -1.0669 -0.0626  0.6708
  302MOL0     N39783   6.303   6.095   9.548  0.5627  0.7152  0.0060
  302MOL0     C39784   7.299   5.919  10.183  0.0425  0.3610 -0.4876
  302MOL0     C39785   7.404   5.914  10.278 -0.2841  0.2429 -0.2176
  302MOL0     C39786   7.784   6.031  10.463 -0.2606 -0.2276  0.0636
  302MOL0     C39787   7.867   5.922  10.488  0.1846 -0.0000  0.6994
  302MOL0     C39788   7.967   5.910  10.587  0.1242  0.3670 -0.6013
  302MOL0     C39789   7.969   6.009  10.676 -0.1748 -0.3748 -0.0161
  302MOL0     O39790   8.087   6.001  10.753  0.6236  0.3297 -0.0466
  302MOL0     C39791   8.104   6.113  10.842 -0.6241  0.1944  0.3406
  302MOL0     C39792   8.226   6.111  10.928  0.9509  0.4451 -0.5078
  302MOL0     C39793   8.228   6.232  11.025  1.1599 -0.5368 -0.4507
  302MOL0     C39794   8.146   6.199  11.156 -0.1098  0.4244 -0.0517
  302MOL0     C39795   8.135   6.306  11.250  0.0523 -0.5397  0.0898
  302MOL0     C39796   8.142   6.393  11.334  0.1383  0.0436 -0.5137
  302MOL0     C39797   7.879   6.116  10.667  0.4957 -0.0953  0.4108
  302MOL0     C39798   7.794   6.131  10.558  0.2761  0.3822 -0.4777
  302MOL0     H39799   7.659   5.809  10.073  0.7419  0.1413  0.7778
  302MOL0     H39800   7.467   5.779   9.919  1.4012 -0.0105  0.6556
  302MOL0     H39801   7.296   5.870   9.790  0.3284  1.6776  0.1534
  302MOL0     H39802   7.247   6.020   9.880  0.7929 -0.3383 -2.1187
  302MOL0     H39803   7.067   5.805   9.764 -4.7049  0.3641 -1.3934
  302MOL0     H39804   7.093   5.958   9.690 -1.8013 -1.5830 -1.4253
  302MOL0     H39805   6.984   6.074   9.867  2.0907  0.0495  1.2030
  302MOL0     H39806   6.961   5.936   9.970 -0.2292  2.1912  0.9750
  302MOL0     H39807   6.826   5.968   9.703  0.6714 -1.6427 -0.1621
  302MOL0     H39808   6.797   5.829   9.798  0.9878 -0.5229 -1.5244
  302MOL0     H39809   6.735   6.105   9.922  1.4914 -0.7976 -0.1869
  302MOL0     H39810   6.697   5.953   9.970 -1.4736 -1.7011 -1.8431
  302MOL0     H39811   6.540   5.922   9.756 -0.3962  1.2641 -2.6558
  302MOL0     H39812   6.620   6.079   9.702  1.6625  0.7477  0.6559
  302MOL0     H39813   6.402   6.008   9.901  0.4712 -1.4196 -0.7091
  302MOL0     H39814   6.494   6.155   9.943 -2.7699  0.8848  0.2464
  302MOL0     H39815   6.427   6.244   9.712 -2.2807  0.5095 -1.0846
  302MOL0     H39816   6.306   6.226   9.839 -1.7902  0.3527 -2.5843
  302MOL0     H39817   6.144   6.008   9.826 -3.1349 -1.3891  0.0718
  302MOL0     H39818   5.957   5.918   9.720 -0.1505 -1.0424 -0.3858
  302MOL0     H39819   6.006   5.811   9.587  0.2580  0.3037 -0.7187
  302MOL0     H39820   5.897   5.987   9.433 -2.1388  2.6792  0.2909
  302MOL0     H39821   5.862   6.091   9.565 -0.8853  1.1327 -1.6557
  302MOL0     H39822   5.764   5.804   9.545  1.2974 -0.0219  0.4911
  302MOL0     H39823   5.706   5.915   9.667 -1.0028  1.2107 -0.9053
  302MOL0     H39824   5.672   5.980   9.364  2.3034 -2.0110 -0.0318
  302MOL0     H39825   5.636   6.087   9.495  0.6805  0.3828 -2.1283
  302MOL0     H39826   5.493   6.161   9.340 -0.8218  1.1188 -2.9155
  302MOL0     H39827   5.277   6.249   9.247 -2.5675 -1.1137 -0.6020
  302MOL0     H39828   4.709   6.079   9.407  2.0258  0.8373 -0.1095
  302MOL0     H39829   4.475   6.104   9.320 -0.8985  0.6125 -1.7623
  302MOL0     H39830   4.269   6.122   9.188  1.3182  0.5256  0.2199
  302MOL0     H39831   4.332   5.975   9.112  0.2831 -0.1447 -1.3749
  302MOL0     H39832   4.280   6.033   8.896 -1.0180  0.9716 -2.1306
  302MOL0     H39833   4.205   6.185   8.941  1.5288  0.5878  2.2897
  302MOL0     H39834   4.095   5.915   9.044 -2.7213  2.3186  4.0233
  302MOL0     H39835   4.036   6.004   8.896  0.0043 -1.1063  0.0982
  302MOL0     H39836   4.023   6.095   9.187  2.0269 -1.8725 -0.1317
  302MOL0     H39837   3.999   6.200   9.049  1.4441 -1.8156 -2.7373
  302MOL0     H39838   3.836   5.948   9.119  3.5275 -1.1460 -4.4137
  302MOL0     H39839   3.803   6.049   8.983  1.3665 -0.0104 -0.8809
  302MOL0     H39840   3.732   6.243   9.120 -1.9277 -0.9331 -1.7501
  302MOL0     H39841   3.802   6.177   9.270  0.4380  0.2579  0.1464
  302MOL0     H39842   3.630   5.982   9.220  1.5507  0.0900  2.1159
  302MOL0     H39843   3.578   6.132   9.298 -1.7272  0.3691 -0.7279
  302MOL0     H39844   3.556   6.072   9.004 -2.7124  2.0310 -2.5688
  302MOL0     H39845   3.538   6.239   9.075  0.3784  1.0671  0.7481
  302MOL0     H39846   4.644   6.135   8.923 -2.8029 -0.6020  0.4344
  302MOL0     H39847   4.884   6.101   9.029  1.1317 -0.1041  1.9454
  302MOL0     H39848   5.081   5.892   9.395  1.3609 -0.5392  3.7322
  302MOL0     H39849   5.273   5.808   9.498 -1.0514  0.2391  1.7771
  302MOL0     H39850   7.197   5.944  10.211 -1.3031 -2.4420 -2.4118
  302MOL0     H39851   7.387   5.937  10.383  4.3113  3.6901  0.0812
  302MOL0     H39852   7.879   5.850  10.407  1.4820  0.5801  0.3421
  302MOL0     H39853   8.028   5.821  10.590 -1.8825 -1.1446 -2.1224
  302MOL0     H39854   8.024   6.112  10.917  0.9050  0.2420  2.0459
  302MOL0     H39855   8.097   6.210  10.792 -0.9044 -0.8011 -1.6420
  302MOL0     H39856   8.231   6.013  10.976 -1.3730 -0.1494 -1.3519
  302MOL0     H39857   8.316   6.123  10.866  2.1775  1.1678  1.3132
  302MOL0     H39858   8.194   6.326  10.981 -0.4205 -0.0073  1.7264
  302MOL0     H39859   8.333   6.254  11.048  0.8144  0.7903 -0.0203
  302MOL0     H39860   8.049   6.164  11.121  0.0196  1.0595 -1.0949
  302MOL0     H39861   8.197   6.113  11.200 -0.3129 -0.5238 -1.6218
  302MOL0     H39862   8.178   6.461  11.409  1.6353 -0.4234 -0.7726
  302MOL0     H39863   7.877   6.198  10.737  0.6041  0.2905 -0.0293
  302MOL0     H39864   7.725   6.215  10.555  0.8234  0.8139 -1.7977
  303MOL0     O39865   2.462   5.150   4.832  0.1065 -0.1313  0.0501
  303MOL0     C39866   2.464   5.265   4.857 -0.2095 -0.1728 -0.3694
  303MOL0     O39867   2.355   5.351   4.855  0.2512  0.0635  0.1152
  303MOL0     C39868   2.234   5.304   4.798  0.2120  0.4735  0.1205
  303MOL0     C39869   2.219   5.212   4.693 -0.7720 -0.4597 -0.5605
  303MOL0     C39870   2.098   5.179   4.631 -0.3984  0.1793 -0.5084
  303MOL0     C39871   1.977   5.240   4.674 -0.1380 -0.0635  1.5525
  303MOL0     O39872   1.855   5.216   4.616 -0.3624 -0.1910  0.2410
  303MOL0     C39873   1.830   5.086   4.561 -0.3930 -0.5765  0.0295
  303MOL0     C39874   1.697   5.056   4.620  0.5123  0.6063  0.2784
  303MOL0     C39875   1.651   4.910   4.595 -0.5465 -0.1853  0.2856
  303MOL0     C39876   1.529   4.871   4.679  0.8796  0.3636 -0.1776
  303MOL0     C39877   1.479   4.729   4.630  0.2744  0.0991  0.2133
  303MOL0     C39878   1.367   4.667   4.712 -0.3320  1.1820  0.3417
  303MOL0     C39879   1.329   4.528   4.656 -0.2673 -0.2123 -0.8661
  303MOL0     C39880   1.388   4.412   4.741  0.2101 -0.0071 -0.9423
  303MOL0     N39881   1.533   4.406   4.739 -0.2937 -0.3046 -0.7554
  303MOL0     C39882   1.613   4.457   4.838 -0.8179  0.2209  0.6411
  303MOL0     C39883   1.740   4.453   4.777 -0.1321  0.4092  0.0882
  303MOL0     C39884   1.881   4.488   4.829  0.3621 -1.0634 -0.3636
  303MOL0     C39885   1.903   4.639   4.847  0.0939 -0.2269  0.1155
  303MOL0     C39886   1.972   4.695   4.973 -0.2449 -0.2317  0.3166
  303MOL0     C39887   1.990   4.842   4.963  1.0391  0.3128 -0.7735
  303MOL0     O39888   2.043   4.902   5.076 -0.0279 -0.2624  0.3588
  303MOL0     C39889   2.178   4.872   5.102  0.4150 -0.1121 -0.9072
  303MOL0     C39890   2.277   4.923   5.022 -0.0602 -0.6229 -0.0439
  303MOL0     C39891   2.410   4.903   5.056  0.1353 -0.3394  0.2381
  303MOL0     C39892   2.451   4.815   5.157  0.4229  1.0104 -0.4767
  303MOL0     C39893   2.583   4.789   5.198  0.5643  0.4289  0.0713
  303MOL0     O39894   2.678   4.879   5.155  0.2426 -0.2330 -0.3705
  303MOL0     C39895   2.808   4.846   5.152  0.4204  0.3044  0.2631
  303MOL0     C39896   2.856   4.723   5.102  0.0482  0.0705 -0.4493
  303MOL0     C39897   2.988   4.712   5.064 -0.0623 -0.1175 -0.7596
  303MOL0     C39898   3.080   4.817   5.084  0.7315  0.3443  0.3632
  303MOL0     O39899   3.213   4.811   5.073 -0.0865  0.1644  0.0540
  303MOL0     C39900   3.269   4.750   4.950  0.1077  0.0722 -0.0995
  303MOL0     C39901   3.411   4.802   4.936 -0.1426 -1.0422 -1.1138
  303MOL0     C39902   3.513   4.753   5.040 -0.2972 -0.7748  0.3221
  303MOL0     C39903   3.625   4.857   5.052 -0.0058  0.1521  1.0494
  303MOL0     C39904   3.751   4.804   5.129 -0.4684 -0.2223 -0.0397
  303MOL0     C39905   3.845   4.918   5.179 -0.0706 -1.2683 -0.2832
  303MOL0     C39906   3.989   4.867   5.209 -0.0840  0.2916  0.9947
  303MOL0     C39907   4.100   4.983   5.235  0.9771  0.1866  0.1375
  303MOL0    Cl39908   4.243   4.900   5.307 -0.6804 -0.3426 -0.2141
  303MOL0     C39909   3.024   4.935   5.134 -0.1111 -0.0697 -0.2191
  303MOL0     C39910   2.895   4.954   5.168  0.2686 -0.1232 -0.6987
  303MOL0     O39911   2.602   4.685   5.258  0.6086  0.0728  0.3564
  303MOL0     C39912   2.343   4.743   5.230 -1.2964  0.4071  0.1754
  303MOL0     C39913   2.209   4.779   5.208  0.1278  0.4732  0.0680
  303MOL0     N39914   1.727   4.398   4.651  0.3961 -0.0151  0.5391
  303MOL0     N39915   1.601   4.380   4.624  0.0813 -0.5852  0.0608
  303MOL0     C39916   1.986   5.335   4.773  0.2313 -0.2319  0.0311
  303MOL0     C39917   2.117   5.370   4.829  0.2742  0.6266 -0.0997
  303MOL0     C39918   2.593   5.328   4.896 -0.9095  0.2059  0.1954
  303MOL0     C39919   2.604   5.464   4.908  0.2297  0.0387 -0.0700
  303MOL0     C39920   2.719   5.535   4.940  0.1288 -0.1200 -0.3270
  303MOL0     C39921   2.841   5.471   4.950 -0.2854  1.0466  0.7910
  303MOL0     O39922   2.965   5.527   4.958 -0.6547  0.0013  0.3435
  303MOL0     C39923   2.974   5.667   4.971  0.7819 -0.6035 -0.3234
  303MOL0     C39924   3.121   5.707   4.946  0.5969 -0.0190  0.6610
  303MOL0     C39925   3.146   5.735   4.799 -0.8233  0.4149  0.3108
  303MOL0     C39926   3.295   5.755   4.762  0.1266 -0.2058 -0.6106
  303MOL0     C39927   3.342   5.882   4.806  0.1699 -0.0545 -0.1553
  303MOL0     C39928   3.375   5.994   4.842 -0.3099 -0.9430  0.6823
  303MOL0     C39929   2.839   5.326   4.942  0.0779 -0.3511 -0.0432
  303MOL0     C39930   2.717   5.260   4.921  0.7581 -0.7577  0.5530
  303MOL0     H39931   2.297   5.156   4.644 -1.7239 -1.7715 -0.6239
  303MOL0     H39932   2.108   5.113   4.546  0.9223 -0.3956  0.0556
  303MOL0     H39933   1.902   5.010   4.591  0.3767  0.3029  0.4566
  303MOL0     H39934   1.835   5.103   4.453  0.3365  1.7573  0.3751
  303MOL0     H39935   1.622   5.126   4.583 -1.0290 -1.7045 -1.2600
  303MOL0     H39936   1.709   5.070   4.728  0.0215  0.5006  0.3466
  303MOL0     H39937   1.728   4.838   4.621 -0.1471  0.4014  0.7550
  303MOL0     H39938   1.634   4.903   4.487  0.2576 -0.4315  0.1703
  303MOL0     H39939   1.565   4.862   4.782  3.0334  1.5854 -0.7652
  303MOL0     H39940   1.459   4.954   4.668 -0.9425 -1.2041 -1.1037
  303MOL0     H39941   1.562   4.661   4.608 -0.5512 -0.1447 -2.6059
  303MOL0     H39942   1.438   4.751   4.530 -0.8045  0.8596  0.7982
  303MOL0     H39943   1.279   4.731   4.706 -1.3619 -0.2121  0.2489
  303MOL0     H39944   1.401   4.668   4.816  0.7654  2.3715  0.0020
  303MOL0     H39945   1.220   4.523   4.647 -0.5099  1.5581  0.6603
  303MOL0     H39946   1.352   4.532   4.549  0.4616  2.3749 -0.6628
  303MOL0     H39947   1.362   4.330   4.674 -2.7917  1.1410 -1.3240
  303MOL0     H39948   1.335   4.408   4.836  0.4143 -1.2300 -0.8651
  303MOL0     H39949   1.602   4.474   4.945  3.3599  1.1051  1.1278
  303MOL0     H39950   1.956   4.429   4.775  0.4507 -0.8530 -0.4734
  303MOL0     H39951   1.885   4.450   4.931  2.8232  0.2034  0.1049
  303MOL0     H39952   1.812   4.697   4.834  1.8995  3.6176  2.6877
  303MOL0     H39953   1.966   4.660   4.760  0.0824 -2.4135 -0.4892
  303MOL0     H39954   1.896   4.678   5.051 -1.6068 -2.4262 -1.3728
  303MOL0     H39955   2.064   4.644   5.004 -0.1384 -1.3540 -1.6903
  303MOL0     H39956   1.891   4.887   4.952  1.1128  0.9202  0.7765
  303MOL0     H39957   2.048   4.868   4.874  1.6743 -3.8254 -1.7385
  303MOL0     H39958   2.253   4.985   4.936 -2.9140 -0.0839  1.0297
  303MOL0     H39959   2.486   4.956   4.999  1.7971 -1.9445  0.8675
  303MOL0     H39960   2.786   4.641   5.096 -1.5056  1.2135  1.1748
  303MOL0     H39961   3.026   4.612   5.048  0.6362 -0.3358  1.8435
  303MOL0     H39962   3.209   4.776   4.862 -0.6136 -0.5631  0.1828
  303MOL0     H39963   3.255   4.642   4.964 -2.0220  0.6689  4.0714
  303MOL0     H39964   3.406   4.912   4.939 -2.5378 -1.1047 -0.7047
  303MOL0     H39965   3.443   4.769   4.837  2.8269 -1.1698 -0.2137
  303MOL0     H39966   3.547   4.659   4.995 -1.5040 -0.5198 -1.1941
  303MOL0     H39967   3.476   4.723   5.139  0.3850 -1.2405  0.4478
  303MOL0     H39968   3.665   4.886   4.954 -0.7346 -1.3571  0.2677
  303MOL0     H39969   3.582   4.946   5.100  2.6327  3.2778 -1.8575
  303MOL0     H39970   3.814   4.740   5.066 -2.2883 -2.1602 -0.0162
  303MOL0     H39971   3.715   4.739   5.209  1.8689 -1.9496 -0.2760
  303MOL0     H39972   3.800   4.966   5.266 -0.2321 -0.0079 -1.0351
  303MOL0     H39973   3.846   4.999   5.105 -1.7594 -0.3070  0.6831
  303MOL0     H39974   3.992   4.787   5.283  1.2349  0.4749  1.1635
  303MOL0     H39975   4.023   4.810   5.122 -0.5011  0.3646  0.7804
  303MOL0     H39976   4.060   5.064   5.297  1.0019 -0.4245  0.9575
  303MOL0     H39977   4.126   5.033   5.141  0.8893  1.9636  1.0118
  303MOL0     H39978   3.088   5.018   5.163 -1.2772  0.6020  0.5341
  303MOL0     H39979   2.872   5.050   5.213 -1.9009 -2.0697  2.7933
  303MOL0     H39980   2.374   4.674   5.307 -0.4410 -0.9210 -1.2987
  303MOL0     H39981   2.123   4.746   5.265 -0.5601 -0.9893 -1.7458
  303MOL0     H39982   1.896   5.388   4.802  0.5803  1.0826 -1.1902
  303MOL0     H39983   2.131   5.441   4.910 -0.4180  0.8856 -0.1944
  303MOL0     H39984   2.513   5.522   4.898 -1.1992 -1.8987  1.0267
  303MOL0     H39985   2.711   5.643   4.950  1.2824 -0.1680  1.7591
  303MOL0     H39986   2.931   5.703   5.065 -1.8474  0.6550 -1.8983
  303MOL0     H39987   2.911   5.708   4.892 -1.3096 -0.7437  1.1982
  303MOL0     H39988   3.153   5.795   5.002  0.8140 -0.6286  1.5098
  303MOL0     H39989   3.182   5.620   4.971  2.0811  0.8585  0.2460
  303MOL0     H39990   3.096   5.827   4.770  1.9943  2.5145  1.6581
  303MOL0     H39991   3.119   5.654   4.730  2.2628 -1.0378  0.6203
  303MOL0     H39992   3.352   5.675   4.811  0.5040 -1.2162 -2.5834
  303MOL0     H39993   3.320   5.733   4.657 -0.6839  1.0722 -1.0929
  303MOL0     H39994   3.417   6.089   4.868 -2.1652 -0.0878  0.6568
  303MOL0     H39995   2.930   5.267   4.946  1.4725  1.7033  0.0416
  303MOL0     H39996   2.711   5.152   4.926  2.1271 -0.8091  2.7961
  304MOL0     O39997   0.550   3.642   3.348 -0.5141 -0.1334  0.0813
  304MOL0     C39998   0.601   3.540   3.386  0.5306 -0.2645  0.2658
  304MOL0     O39999   0.593   3.490   3.511  0.1810  0.6684 -0.2408
  304MOL0     C40000   0.533   3.559   3.610  0.0413  0.5731  0.6469
  304MOL0     C40001   0.577   3.520   3.739  0.3780  0.2401 -0.3203
  304MOL0     C40002   0.521   3.581   3.850  1.0098 -0.4858  0.5606
  304MOL0     C40003   0.412   3.674   3.839 -0.4720 -0.3304 -0.0848
  304MOL0     O40004   0.344   3.721   3.952 -0.2271 -0.1848  0.1816
  304MOL0     C40005   0.209   3.768   3.937  0.0573 -0.6195  0.6530
  304MOL0     C40006   0.166   3.778   4.080 -0.3956  0.2914  0.1356
  304MOL0     C40007   0.017   3.826   4.086 -0.0970  0.5409  0.1809
  304MOL0     C40008  -0.031   3.811   4.222  0.0689  0.6864  0.1743
  304MOL0     C40009  -0.171   3.843   4.241 -0.2699  0.0911 -0.5587
  304MOL0     C40010  -0.218   3.786   4.373 -0.4020 -0.4278  0.5670
  304MOL0     C40011  -0.370   3.825   4.391 -0.4361  0.0120 -0.1616
  304MOL0     C40012  -0.435   3.790   4.530  0.0789  0.6551 -0.0457
  304MOL0     N40013  -0.575   3.834   4.543  0.3399  0.0223  0.2306
  304MOL0     C40014  -0.627   3.852   4.666  0.9293 -0.2847  0.8912
  304MOL0     C40015  -0.749   3.891   4.640 -0.3423 -0.1504 -0.5807
  304MOL0     C40016  -0.849   3.956   4.746 -0.9709  0.3202 -0.2354
  304MOL0     C40017  -0.980   3.869   4.758 -0.4991  0.6503  0.1648
  304MOL0     C40018  -1.103   3.954   4.797  0.5655  0.8365 -0.6484
  304MOL0     C40019  -1.238   3.884   4.830 -0.6694 -0.1149 -0.6059
  304MOL0     O40020  -1.326   3.978   4.885 -0.0259 -0.2474 -0.6381
  304MOL0     C40021  -1.443   3.924   4.938 -0.2037 -0.3857  0.6645
  304MOL0     C40022  -1.511   4.017   5.021  0.4806 -0.8146  0.0604
  304MOL0     C40023  -1.634   3.977   5.065 -0.6492 -0.7652  0.1766
  304MOL0     C40024  -1.680   3.842   5.051 -0.7065 -0.3235 -0.8032
  304MOL0     C40025  -1.805   3.799   5.111  0.8599  0.0247  0.2384
  304MOL0     O40026  -1.869   3.890   5.188 -0.4306  0.0987  0.4950
  304MOL0     C40027  -1.991   3.866   5.255  0.0213  0.0765 -0.3647
  304MOL0     C40028  -2.112   3.803   5.200  0.7030 -0.9264  0.3057
  304MOL0     C40029  -2.215   3.780   5.282  0.2454 -0.3044 -0.5698
  304MOL0     C40030  -2.219   3.827   5.418  0.4104  0.0589  0.0434
  304MOL0     O40031  -2.336   3.806   5.493 -0.0735 -0.3243 -0.4694
  304MOL0     C40032  -2.453   3.752   5.429 -0.2643 -0.1383  0.3063
  304MOL0     C40033  -2.571   3.720   5.521  1.2119 -0.0461 -0.1134
  304MOL0     C40034  -2.684   3.654   5.438  0.5728 -0.7059 -0.1014
  304MOL0     C40035  -2.816   3.635   5.509  0.5497 -0.2037 -0.8777
  304MOL0     C40036  -2.932   3.645   5.406 -0.1887  0.4793 -0.1050
  304MOL0     C40037  -3.063   3.598   5.468 -0.8169 -0.2754  0.3663
  304MOL0     C40038  -3.183   3.623   5.373 -0.5017 -0.2646  0.2434
  304MOL0     C40039  -3.323   3.611   5.435 -0.3378 -0.0498 -0.1790
  304MOL0    Cl40040  -3.339   3.710   5.586  0.0413  0.0549  0.4343
  304MOL0     C40041  -2.111   3.897   5.465  0.1544  0.7775  0.2879
  304MOL0     C40042  -1.993   3.916   5.388  0.7957 -0.1267  0.2518
  304MOL0     O40043  -1.851   3.689   5.078 -0.3776 -0.4318 -0.4879
  304MOL0     C40044  -1.612   3.763   4.974 -0.3597  1.3696 -0.7143
  304MOL0     C40045  -1.496   3.797   4.910  0.2336 -1.1957 -0.8989
  304MOL0     N40046  -0.776   3.885   4.503 -0.4979  0.4196 -0.2029
  304MOL0     N40047  -0.667   3.852   4.444  0.0079  0.2957  0.5555
  304MOL0     C40048   0.362   3.702   3.712  0.1021 -0.3947  0.0352
  304MOL0     C40049   0.419   3.646   3.597  0.8128  0.4252 -0.7291
  304MOL0     C40050   0.704   3.480   3.302  0.3193 -0.0890  0.0639
  304MOL0     C40051   0.726   3.340   3.312  0.0015 -0.3855  0.2612
  304MOL0     C40052   0.815   3.279   3.230 -0.0379 -0.3557 -0.1484
  304MOL0     C40053   0.899   3.352   3.143  0.3529  0.4333 -0.4713
  304MOL0     O40054   0.998   3.292   3.066  0.3683  0.2498 -0.3308
  304MOL0     C40055   1.003   3.154   3.039 -0.4915  0.8222  0.0677
  304MOL0     C40056   1.112   3.093   3.131  0.3772 -0.7534 -0.7811
  304MOL0     C40057   1.138   2.945   3.097  0.3740 -0.4087  0.1969
  304MOL0     C40058   1.243   2.888   3.187 -0.6648  1.0466  0.5940
  304MOL0     C40059   1.280   2.758   3.133  0.2383  0.1365  0.5213
  304MOL0     C40060   1.330   2.660   3.089 -0.2737  0.5776  0.1005
  304MOL0     C40061   0.875   3.492   3.131 -0.3020  0.7182  0.5946
  304MOL0     C40062   0.774   3.554   3.211 -0.3575 -0.2206  0.8327
  304MOL0     H40063   0.649   3.439   3.749 -0.4677 -0.4584  0.2959
  304MOL0     H40064   0.556   3.549   3.948  2.8765 -1.5842 -0.4020
  304MOL0     H40065   0.151   3.693   3.884 -0.6450  0.9480 -0.9015
  304MOL0     H40066   0.218   3.870   3.897  3.1758 -0.5540  1.2322
  304MOL0     H40067   0.229   3.848   4.136 -0.1731  0.7059 -0.6262
  304MOL0     H40068   0.184   3.678   4.122  0.8640  0.8422  0.9960
  304MOL0     H40069  -0.031   3.763   4.011 -1.2149  0.9806  0.5056
  304MOL0     H40070   0.019   3.930   4.053  1.0466  0.1754 -0.9766
  304MOL0     H40071  -0.009   3.709   4.253 -0.5731  0.2675 -0.7250
  304MOL0     H40072   0.040   3.875   4.276  0.5919  2.4364 -2.3898
  304MOL0     H40073  -0.231   3.801   4.160  1.1882 -1.4875 -0.8756
  304MOL0     H40074  -0.186   3.950   4.254 -2.8727 -0.1476 -1.0319
  304MOL0     H40075  -0.159   3.823   4.458 -0.6617 -0.3875  0.7311
  304MOL0     H40076  -0.200   3.680   4.353  0.0933 -0.5897  1.8008
  304MOL0     H40077  -0.365   3.934   4.381 -4.0222  0.4073  1.0321
  304MOL0     H40078  -0.435   3.782   4.315  1.2683 -3.9366  0.3773
  304MOL0     H40079  -0.370   3.842   4.601 -0.5221  1.6517 -0.2093
  304MOL0     H40080  -0.435   3.683   4.552  0.3634  0.7859  0.6340
  304MOL0     H40081  -0.577   3.863   4.762 -0.3844  0.9269  1.4564
  304MOL0     H40082  -0.858   4.058   4.708  1.7958 -0.2213 -2.6817
  304MOL0     H40083  -0.804   3.971   4.845 -0.9197  0.8220 -0.3311
  304MOL0     H40084  -0.968   3.782   4.824 -0.8364 -1.1695 -2.0490
  304MOL0     H40085  -1.009   3.826   4.662 -2.3253  0.7049  0.6513
  304MOL0     H40086  -1.088   4.020   4.883 -0.0286  2.3490 -1.6659
  304MOL0     H40087  -1.139   4.018   4.716  0.0148 -1.7080 -2.5505
  304MOL0     H40088  -1.222   3.807   4.905  0.6825  2.3387  1.7938
  304MOL0     H40089  -1.268   3.842   4.733 -0.5442 -0.4165 -0.5140
  304MOL0     H40090  -1.471   4.116   5.036  0.7653 -0.7577 -0.9765
  304MOL0     H40091  -1.678   4.060   5.119 -0.2728 -1.4270  1.5416
  304MOL0     H40092  -2.108   3.770   5.097 -1.1790  0.7104 -0.3497
  304MOL0     H40093  -2.275   3.699   5.243  3.4366 -3.7008  0.9552
  304MOL0     H40094  -2.424   3.655   5.387 -1.2680 -0.7363  0.9564
  304MOL0     H40095  -2.484   3.821   5.351  2.6958  1.8742  0.7400
  304MOL0     H40096  -2.613   3.813   5.561 -0.9124 -0.1486 -1.9486
  304MOL0     H40097  -2.538   3.663   5.609 -2.6443 -0.1835  1.4285
  304MOL0     H40098  -2.651   3.553   5.410 -0.3383 -0.7437 -1.0599
  304MOL0     H40099  -2.702   3.713   5.348 -0.5605 -1.6443 -0.5196
  304MOL0     H40100  -2.815   3.537   5.557 -0.1248  0.0848 -0.2475
  304MOL0     H40101  -2.822   3.709   5.590 -0.5274 -1.7518  0.5060
  304MOL0     H40102  -2.913   3.601   5.308  1.9127 -1.4100  1.0479
  304MOL0     H40103  -2.947   3.752   5.390 -0.1821  0.0329 -4.1396
  304MOL0     H40104  -3.079   3.659   5.558 -0.5051 -0.1547  0.3443
  304MOL0     H40105  -3.050   3.494   5.498 -0.2177 -0.4980 -0.6477
  304MOL0     H40106  -3.169   3.724   5.333  1.4798 -1.1701 -1.5754
  304MOL0     H40107  -3.179   3.553   5.289  1.0173 -2.1258  1.7796
  304MOL0     H40108  -3.327   3.504   5.460  3.4622 -0.0124  1.2903
  304MOL0     H40109  -3.402   3.638   5.365  0.0168 -0.3191 -0.6899
  304MOL0     H40110  -2.111   3.927   5.569 -3.2211 -1.3139  1.0646
  304MOL0     H40111  -1.902   3.964   5.423  0.1356  1.2477  0.1557
  304MOL0     H40112  -1.633   3.657   4.976  3.1690  0.5435  1.2119
  304MOL0     H40113  -1.471   3.717   4.840 -0.7332 -0.3096 -2.2846
  304MOL0     H40114   0.274   3.766   3.708  0.6796  0.4783  0.8009
  304MOL0     H40115   0.380   3.685   3.504 -1.7061 -0.6497 -0.2150
  304MOL0     H40116   0.692   3.291   3.402  0.6465  1.7083  1.7411
  304MOL0     H40117   0.828   3.173   3.252  1.9116 -0.0087  0.5798
  304MOL0     H40118   1.021   3.136   2.932 -1.2469 -0.0932  0.0731
  304MOL0     H40119   0.904   3.111   3.060 -0.1930  0.3525  0.5427
  304MOL0     H40120   1.202   3.156   3.132 -0.5462  0.8040  3.1257
  304MOL0     H40121   1.080   3.099   3.235  4.0413 -0.4329  0.4845
  304MOL0     H40122   1.168   2.938   2.992 -0.3116 -2.5971  0.0931
  304MOL0     H40123   1.044   2.895   3.122 -0.1284  1.4434  2.2465
  304MOL0     H40124   1.319   2.966   3.193  0.8486 -0.3590  0.2770
  304MOL0     H40125   1.209   2.871   3.289  1.3263 -1.6267  0.9246
  304MOL0     H40126   1.377   2.567   3.064 -0.3188  0.2751  1.0981
  304MOL0     H40127   0.936   3.545   3.059 -1.3052  1.4953  0.2919
  304MOL0     H40128   0.771   3.662   3.201  0.8928 -0.2909 -0.6704
  305MOL0     O40129  10.754  10.615   8.295 -0.3763  0.2752  0.3812
  305MOL0     C40130  10.803  10.725   8.304  0.2792 -0.0733  0.2225
  305MOL0     O40131  10.802  10.822   8.206  0.0675 -0.4425  0.8505
  305MOL0     C40132  10.763  10.805   8.079  0.7480  0.2113  0.5514
  305MOL0     C40133  10.837  10.838   7.973 -0.6174  0.0804  0.8658
  305MOL0     C40134  10.792  10.828   7.842 -0.1039 -0.0072 -0.8209
  305MOL0     C40135  10.665  10.791   7.811  0.5878 -0.5617  0.2695
  305MOL0     O40136  10.609  10.804   7.682  0.1706  0.1545 -0.3153
  305MOL0     C40137  10.674  10.724   7.574 -0.1948 -0.1506  0.8052
  305MOL0     C40138  10.708  10.795   7.445  0.4138 -0.0099  0.6633
  305MOL0     C40139  10.622  10.920   7.403 -0.0120  0.2475 -0.6608
  305MOL0     C40140  10.501  10.874   7.336 -0.3309 -0.1511  1.4243
  305MOL0     C40141  10.407  10.997   7.334 -0.2470 -0.2984 -0.0485
  305MOL0     C40142  10.266  10.930   7.303  0.2168 -1.0112  0.5887
  305MOL0     C40143  10.250  10.888   7.154  0.0597 -1.3789  0.1271
  305MOL0     C40144  10.226  11.015   7.065 -0.1795 -0.0067  0.8356
  305MOL0     N40145  10.086  11.066   7.083  0.0423 -0.5597 -0.2903
  305MOL0     C40146   9.979  11.041   7.004  0.5330 -0.4654 -1.0082
  305MOL0     C40147   9.883  11.124   7.044 -0.2391 -0.2190  0.0156
  305MOL0     C40148   9.763  11.138   6.955  0.3771  0.2964 -0.1499
  305MOL0     C40149   9.638  11.166   7.042 -0.4137  0.1635  0.0368
  305MOL0     C40150   9.511  11.161   6.958 -0.9854 -0.9035  0.3434
  305MOL0     C40151   9.509  11.281   6.862  0.3480 -0.6571 -1.1223
  305MOL0     O40152   9.386  11.289   6.790  0.3227 -0.5601 -0.1046
  305MOL0     C40153   9.279  11.355   6.853  0.3797 -0.6698 -0.0282
  305MOL0     C40154   9.179  11.413   6.779 -0.3782 -0.0651  1.1576
  305MOL0     C40155   9.078  11.497   6.823 -0.0367 -0.4338  0.3742
  305MOL0     C40156   9.075  11.528   6.959  0.3897  0.3904 -0.0259
  305MOL0     C40157   8.968  11.616   7.011  0.9707  0.1792  0.7685
  305MOL0     O40158   8.844  11.614   6.948 -0.0867  0.2181  0.2764
  305MOL0     C40159   8.733  11.692   6.972 -0.0400  0.0027  0.3538
  305MOL0     C40160   8.740  11.820   7.029  0.1845  0.1081  0.1882
  305MOL0     C40161   8.628  11.898   7.036  0.5011 -0.3671  0.1461
  305MOL0     C40162   8.503  11.848   7.004 -0.0271  0.1057  0.0083
  305MOL0     O40163   8.393  11.921   6.988 -0.4399  0.0428  0.4089
  305MOL0     C40164   8.355  11.983   7.112 -0.8165 -0.4945  0.1206
  305MOL0     C40165   8.213  11.959   7.131  0.0691  0.1838  0.3390
  305MOL0     C40166   8.130  12.028   7.015  0.0556  0.4569 -0.7956
  305MOL0     C40167   7.984  12.012   7.031  0.8027 -0.2555  0.1051
  305MOL0     C40168   7.920  12.094   6.913 -0.6960  0.1647 -0.4520
  305MOL0     C40169   7.785  12.033   6.856  0.9502 -0.2396 -0.4227
  305MOL0     C40170   7.685  12.149   6.870  0.0934 -0.0744 -0.7091
  305MOL0     C40171   7.551  12.089   6.820 -0.1674 -0.2884  0.0759
  305MOL0    Cl40172   7.482  11.972   6.920 -0.1614 -0.7777  0.1584
  305MOL0     C40173   8.497  11.713   6.963  0.1425 -0.3905 -0.2032
  305MOL0     C40174   8.607  11.638   6.945 -0.1773  0.2052 -0.0640
  305MOL0     O40175   8.988  11.686   7.111 -0.3733 -0.1235 -0.5328
  305MOL0     C40176   9.157  11.461   7.052  0.2749 -0.5348  0.6529
  305MOL0     C40177   9.259  11.382   6.997 -0.3075 -0.4068  0.5010
  305MOL0     N40178   9.926  11.191   7.154  0.2738 -0.5430  0.6309
  305MOL0     N40179  10.046  11.149   7.182  0.0172  0.4131  0.9401
  305MOL0     C40180  10.584  10.758   7.915  0.2509 -0.5676 -1.0261
  305MOL0     C40181  10.633  10.748   8.049  0.0103  0.0089 -0.1080
  305MOL0     C40182  10.862  10.757   8.436 -0.3304  0.7842  0.7571
  305MOL0     C40183  10.921  10.660   8.510 -0.0585 -0.7302 -0.6187
  305MOL0     C40184  10.983  10.674   8.636  0.0868 -0.1750 -0.0915
  305MOL0     C40185  10.984  10.805   8.684  0.3945 -0.1055  0.5373
  305MOL0     O40186  11.050  10.845   8.796  0.0362 -0.1842 -0.1738
  305MOL0     C40187  10.985  10.910   8.903 -0.2423 -0.4761  0.0593
  305MOL0     C40188  11.066  11.026   8.954 -1.2314 -0.3067 -0.4443
  305MOL0     C40189  10.993  11.091   9.075 -0.2498  0.6810  0.8413
  305MOL0     C40190  11.074  11.205   9.136  0.0998 -0.2118  0.3219
  305MOL0     C40191  11.005  11.257   9.254 -0.2084 -0.2821  0.0546
  305MOL0     C40192  10.951  11.285   9.362 -0.7610 -0.6912  0.3965
  305MOL0     C40193  10.912  10.905   8.618 -0.8854  0.0289  0.4282
  305MOL0     C40194  10.838  10.877   8.492 -0.1257  0.0284 -0.4817
  305MOL0     H40195  10.937  10.879   7.982  0.2070 -1.3522 -0.9491
  305MOL0     H40196  10.840  10.862   7.751 -1.9716  1.3280 -1.3688
  305MOL0     H40197  10.588  10.662   7.545 -0.2615  1.9788 -4.8575
  305MOL0     H40198  10.762  10.672   7.613 -1.1296  0.5711  4.2243
  305MOL0     H40199  10.700  10.717   7.369  0.2517  0.0143  0.6558
  305MOL0     H40200  10.815  10.816   7.458  0.2146 -0.4005  3.4656
  305MOL0     H40201  10.677  10.989   7.339  0.5609  0.9800  0.5722
  305MOL0     H40202  10.605  10.973   7.498  0.5058 -0.3634 -0.2210
  305MOL0     H40203  10.528  10.849   7.233  0.4814  1.7332  1.1341
  305MOL0     H40204  10.462  10.781   7.377 -2.9832 -0.1721 -0.8694
  305MOL0     H40205  10.446  11.075   7.267 -2.9511  1.9195  0.7821
  305MOL0     H40206  10.411  11.060   7.424  0.7157  2.9608 -2.1675
  305MOL0     H40207  10.184  11.000   7.320 -1.5764 -3.0043  0.4245
  305MOL0     H40208  10.245  10.850   7.375  0.0910 -1.1148  0.4355
  305MOL0     H40209  10.346  10.842   7.128  2.0478  1.4735  1.8456
  305MOL0     H40210  10.169  10.817   7.136  0.7427 -2.3817  0.8910
  305MOL0     H40211  10.242  10.996   6.958  3.8233  1.3192  1.0471
  305MOL0     H40212  10.297  11.092   7.096 -1.9079  3.0121 -1.9804
  305MOL0     H40213   9.967  10.978   6.916 -2.2534 -1.9414  0.2979
  305MOL0     H40214   9.743  11.040   6.911 -1.7421 -0.0985  1.5411
  305MOL0     H40215   9.784  11.208   6.873  0.4241  0.4716  0.0125
  305MOL0     H40216   9.647  11.263   7.091 -0.0467 -0.3930  1.0976
  305MOL0     H40217   9.628  11.094   7.123 -1.9933 -3.2706 -2.9144
  305MOL0     H40218   9.505  11.065   6.906  1.9822 -1.6611  1.2479
  305MOL0     H40219   9.427  11.161   7.029  0.2361 -2.9998  1.9114
  305MOL0     H40220   9.592  11.270   6.793  1.3058 -0.6245 -0.0106
  305MOL0     H40221   9.519  11.366   6.930 -0.3943 -1.5134  0.1087
  305MOL0     H40222   9.173  11.386   6.674 -1.4320  0.3704  1.0944
  305MOL0     H40223   9.016  11.547   6.749  2.3353  2.6536  0.2946
  305MOL0     H40224   8.839  11.859   7.052  0.5623 -1.4301  1.3001
  305MOL0     H40225   8.641  11.996   7.080  2.0585 -0.3696 -0.2589
  305MOL0     H40226   8.378  12.090   7.112 -2.7416 -0.0028 -2.3467
  305MOL0     H40227   8.411  11.932   7.191  1.6001  1.2930 -0.3199
  305MOL0     H40228   8.176  11.989   7.230 -1.9778  0.7874 -0.5648
  305MOL0     H40229   8.198  11.853   7.109 -0.2537  0.0337  1.2188
  305MOL0     H40230   8.157  11.977   6.922 -1.6168 -1.2639 -0.4078
  305MOL0     H40231   8.160  12.133   7.016 -2.3496  1.3788  4.0512
  305MOL0     H40232   7.973  11.908   6.998  2.5651 -0.2012 -0.7655
  305MOL0     H40233   7.936  12.028   7.128 -2.0263 -0.5636 -1.1447
  305MOL0     H40234   7.980  12.111   6.823  0.9497 -2.3911  0.0720
  305MOL0     H40235   7.899  12.185   6.970  0.6096  0.0856  0.1940
  305MOL0     H40236   7.756  11.952   6.923  0.6926  1.3141  1.4177
  305MOL0     H40237   7.796  11.999   6.753 -0.9047 -1.7281 -0.1869
  305MOL0     H40238   7.677  12.175   6.976  2.6174 -2.5621  0.2299
  305MOL0     H40239   7.712  12.234   6.807 -0.3564  0.7397  0.1664
  305MOL0     H40240   7.566  12.043   6.722  1.0340 -0.7790  0.4733
  305MOL0     H40241   7.471  12.162   6.808 -1.3018 -1.9052 -3.6068
  305MOL0     H40242   8.396  11.678   6.944  0.4810 -1.0859 -0.7636
  305MOL0     H40243   8.595  11.536   6.910 -1.6436 -0.6885  2.7730
  305MOL0     H40244   9.134  11.458   7.158  0.4652 -4.3558  0.6892
  305MOL0     H40245   9.309  11.318   7.069 -0.0309 -1.3159 -0.4827
  305MOL0     H40246  10.480  10.730   7.902 -0.3242  0.0517  1.6569
  305MOL0     H40247  10.575  10.714   8.134  2.5691 -1.0754  1.3123
  305MOL0     H40248  10.927  10.567   8.455 -0.5554  1.4896 -4.8521
  305MOL0     H40249  11.040  10.595   8.683  0.1058 -0.3476 -0.4050
  305MOL0     H40250  10.962  10.836   8.980 -2.8406  0.4443  0.2717
  305MOL0     H40251  10.886  10.943   8.868  0.6708  2.1291 -0.3069
  305MOL0     H40252  11.166  10.986   8.977 -0.4777 -0.8555 -4.0752
  305MOL0     H40253  11.087  11.102   8.879  2.0097  0.6343  1.2225
  305MOL0     H40254  10.978  11.006   9.143  1.2793  0.9094  1.5047
  305MOL0     H40255  10.892  11.118   9.044 -0.5975 -2.7834 -1.7362
  305MOL0     H40256  11.166  11.154   9.167  1.1355  0.6200 -1.2326
  305MOL0     H40257  11.080  11.278   9.055 -1.2643 -0.2895  0.1386
  305MOL0     H40258  10.918  11.315   9.459 -0.6474  1.3743 -0.1526
  305MOL0     H40259  10.918  11.005   8.661  1.3769  0.9484 -1.7697
  305MOL0     H40260  10.789  10.964   8.449  0.4368  0.7705  0.3498
  306MOL0     O40261   1.806   9.401   1.639  0.5556  0.5827 -0.4862
  306MOL0     C40262   1.818   9.514   1.690 -0.5366  0.5221  0.7655
  306MOL0     O40263   1.721   9.606   1.709  0.2278  0.3702 -0.0620
  306MOL0     C40264   1.597   9.581   1.658 -0.6239  0.3821 -0.5251
  306MOL0     C40265   1.571   9.524   1.536 -0.5038 -1.2072 -0.0697
  306MOL0     C40266   1.440   9.494   1.501 -0.2335  0.5380  0.5281
  306MOL0     C40267   1.332   9.530   1.581  0.6281  0.0893 -0.0097
  306MOL0     O40268   1.206   9.503   1.538 -0.5188  0.7398  0.1057
  306MOL0     C40269   1.083   9.563   1.595 -0.2360  0.1075 -0.1084
  306MOL0     C40270   1.070   9.704   1.564  0.3998 -0.2439 -0.5677
  306MOL0     C40271   0.940   9.745   1.644  0.3320 -0.6995  0.0907
  306MOL0     C40272   0.910   9.894   1.605 -0.7903  0.7465 -0.0254
  306MOL0     C40273   0.772   9.942   1.654  0.1517 -0.3808 -0.9836
  306MOL0     C40274   0.737  10.067   1.579  0.2629 -0.3675  0.3874
  306MOL0     C40275   0.603  10.130   1.602  1.2660 -0.0505 -0.1428
  306MOL0     C40276   0.615  10.285   1.587  0.6277 -0.5045  0.2668
  306MOL0     N40277   0.487  10.349   1.602  0.0255  0.4382  0.0127
  306MOL0     C40278   0.383  10.324   1.513  0.1371  0.2655  0.2266
  306MOL0     C40279   0.270  10.358   1.583 -0.9176  0.0670  0.0826
  306MOL0     C40280   0.128  10.378   1.538 -0.5600 -0.2764  0.4560
  306MOL0     C40281   0.112  10.390   1.392  0.4542  0.1672  0.2987
  306MOL0     C40282  -0.039  10.409   1.365  0.0436  0.2102 -0.6601
  306MOL0     C40283  -0.080  10.408   1.219 -0.1979  0.3078 -0.1249
  306MOL0     O40284  -0.212  10.453   1.202  0.0673 -0.3900 -0.2563
  306MOL0     C40285  -0.315  10.369   1.204 -0.2235  0.3641  0.2620
  306MOL0     C40286  -0.435  10.428   1.176  0.0659  0.1286  0.3960
  306MOL0     C40287  -0.553  10.353   1.179 -0.6066 -0.2797  0.2034
  306MOL0     C40288  -0.553  10.210   1.200 -0.1681 -0.5869 -0.7648
  306MOL0     C40289  -0.678  10.138   1.211  0.5205 -0.3917  0.5140
  306MOL0     O40290  -0.788  10.222   1.213  0.2648  0.2828 -0.7249
  306MOL0     C40291  -0.916  10.175   1.188 -0.2627 -0.3048 -0.0899
  306MOL0     C40292  -1.014  10.258   1.240 -0.5821 -0.0260  0.5842
  306MOL0     C40293  -1.151  10.214   1.243  0.2080  0.0438  0.7787
  306MOL0     C40294  -1.191  10.091   1.182  0.3340 -0.8857 -0.0297
  306MOL0     O40295  -1.321  10.040   1.196 -0.2847  0.3031 -0.3220
  306MOL0     C40296  -1.417  10.132   1.238  0.2981 -0.4243  0.0080
  306MOL0     C40297  -1.558  10.091   1.194  0.7880 -0.4364  0.4479
  306MOL0     C40298  -1.661  10.199   1.235  0.0688  0.4019  0.0177
  306MOL0     C40299  -1.800  10.170   1.170 -0.4510  0.5065  0.3032
  306MOL0     C40300  -1.908  10.264   1.233 -0.1712  0.3147  0.4998
  306MOL0     C40301  -2.052  10.234   1.193  0.4676 -0.4116  0.8876
  306MOL0     C40302  -2.168  10.285   1.288 -0.2912  0.5979 -0.3127
  306MOL0     C40303  -2.289  10.210   1.244 -0.0426  0.7192 -0.2729
  306MOL0    Cl40304  -2.434  10.230   1.349  0.2403 -0.4229  0.1276
  306MOL0     C40305  -1.090  10.014   1.130 -0.8420  0.6912  0.2153
  306MOL0     C40306  -0.960  10.048   1.140  0.6370 -0.1596  0.1139
  306MOL0     O40307  -0.669  10.019   1.196  0.4683  0.0648 -0.0898
  306MOL0     C40308  -0.431  10.152   1.225  0.7722 -1.5815  1.0189
  306MOL0     C40309  -0.313  10.232   1.233  0.1414 -0.4602 -0.0527
  306MOL0     N40310   0.301  10.383   1.711  0.5459 -0.2952  0.2869
  306MOL0     N40311   0.431  10.391   1.721 -0.2390 -0.3370 -0.4590
  306MOL0     C40312   1.353   9.591   1.704 -0.1831  0.4425 -0.0028
  306MOL0     C40313   1.486   9.617   1.740 -0.2875 -0.0280 -0.4987
  306MOL0     C40314   1.958   9.546   1.723 -0.3610  0.6031  0.4301
  306MOL0     C40315   2.046   9.443   1.756  0.1653  0.0136 -0.6187
  306MOL0     C40316   2.181   9.468   1.791 -0.6720 -0.3675 -0.2121
  306MOL0     C40317   2.230   9.600   1.804  0.1214  0.1494  0.2766
  306MOL0     O40318   2.364   9.615   1.835 -0.1217 -0.1040  0.7898
  306MOL0     C40319   2.403   9.734   1.901  0.0601 -1.2210  0.4361
  306MOL0     C40320   2.554   9.738   1.910  0.0192  0.6395 -0.2710
  306MOL0     C40321   2.611   9.665   2.039 -0.6192  0.2529 -0.0433
  306MOL0     C40322   2.664   9.766   2.139 -0.6392 -0.4135 -0.5667
  306MOL0     C40323   2.813   9.771   2.122  0.2090  0.6512 -0.4886
  306MOL0     C40324   2.936   9.760   2.118 -1.2722  0.1620 -0.8967
  306MOL0     C40325   2.135   9.701   1.791  0.1396 -0.2017 -0.4896
  306MOL0     C40326   2.002   9.678   1.739  0.0597 -0.3563 -0.6818
  306MOL0     H40327   1.650   9.516   1.462  0.3465  2.2713  0.2877
  306MOL0     H40328   1.413   9.449   1.406 -1.0667  1.7088  0.1791
  306MOL0     H40329   1.084   9.549   1.704  0.0270 -2.2666 -0.3784
  306MOL0     H40330   0.993   9.511   1.563 -0.4300 -1.1850  2.3040
  306MOL0     H40331   1.054   9.710   1.455  2.2967 -1.6819 -0.9744
  306MOL0     H40332   1.151   9.768   1.598  0.1954 -1.2177  1.9179
  306MOL0     H40333   0.955   9.733   1.752  3.6095 -0.7281 -0.2828
  306MOL0     H40334   0.857   9.678   1.618  1.8542 -2.3137 -0.8303
  306MOL0     H40335   0.987   9.956   1.651  0.3977 -2.5506  2.9180
  306MOL0     H40336   0.912   9.898   1.496 -0.6152  3.8482  0.0018
  306MOL0     H40337   0.772   9.958   1.762  1.4682 -0.5188 -0.9507
  306MOL0     H40338   0.699   9.861   1.642 -0.4162 -0.3388  1.5938
  306MOL0     H40339   0.740  10.045   1.472  0.4285  1.3246  0.0167
  306MOL0     H40340   0.808  10.148   1.598 -0.6019  0.5392 -0.1586
  306MOL0     H40341   0.528  10.088   1.534 -0.3774  0.0124  1.5500
  306MOL0     H40342   0.563  10.125   1.704 -0.2938  2.9914 -0.5050
  306MOL0     H40343   0.650  10.310   1.487  3.1439  2.3926  1.7045
  306MOL0     H40344   0.694  10.314   1.657  3.0994 -2.9663 -1.2900
  306MOL0     H40345   0.388  10.300   1.407  2.0469  0.1108  0.3164
  306MOL0     H40346   0.107  10.480   1.572  3.1393  0.6800  0.3277
  306MOL0     H40347   0.049  10.313   1.576 -2.1435 -0.4575 -2.8674
  306MOL0     H40348   0.135  10.296   1.342 -1.9535 -0.5293  0.3805
  306MOL0     H40349   0.163  10.479   1.352  0.6333  0.2769  0.7629
  306MOL0     H40350  -0.090  10.326   1.413 -1.3510  0.2137 -2.0666
  306MOL0     H40351  -0.067  10.504   1.412 -3.3131 -1.6067  1.4599
  306MOL0     H40352  -0.072  10.305   1.183 -3.4360 -0.4631  0.9798
  306MOL0     H40353  -0.025  10.483   1.163  0.1643  4.8247  5.4103
  306MOL0     H40354  -0.441  10.532   1.146 -3.2962  0.3131  1.2537
  306MOL0     H40355  -0.647  10.398   1.146  0.1333  0.6280 -0.7260
  306MOL0     H40356  -0.969  10.347   1.283  0.5090  0.5130 -1.5426
  306MOL0     H40357  -1.229  10.277   1.284 -2.2006 -2.4296  0.3298
  306MOL0     H40358  -1.405  10.235   1.204  1.0743 -0.3558  0.4720
  306MOL0     H40359  -1.420  10.149   1.346 -3.1799  1.2135 -0.2101
  306MOL0     H40360  -1.581   9.990   1.228 -1.9070  0.5427  1.7983
  306MOL0     H40361  -1.552  10.091   1.084  0.8472  0.8201  0.4300
  306MOL0     H40362  -1.631  10.303   1.219  1.6354  0.7395  3.9988
  306MOL0     H40363  -1.674  10.186   1.343  0.3482  0.7288  0.0921
  306MOL0     H40364  -1.797  10.195   1.064  3.3664  0.9523  0.3541
  306MOL0     H40365  -1.828  10.067   1.192  0.1758  0.3514  0.4143
  306MOL0     H40366  -1.888  10.369   1.208 -2.9968  0.4676 -1.5690
  306MOL0     H40367  -1.898  10.248   1.340 -0.8271 -4.5389  0.0606
  306MOL0     H40368  -2.047  10.125   1.200  0.7149 -0.8530 -3.4045
  306MOL0     H40369  -2.081  10.262   1.091 -0.4828 -1.6503  0.8004
  306MOL0     H40370  -2.136  10.254   1.388  1.2854  2.0622 -0.3053
  306MOL0     H40371  -2.165  10.394   1.283  1.2238  0.6143  0.4383
  306MOL0     H40372  -2.259  10.105   1.251 -0.2353  0.7091  0.4777
  306MOL0     H40373  -2.311  10.219   1.138  0.3245 -0.0584 -0.4263
  306MOL0     H40374  -1.103   9.923   1.072  0.1565  1.6192 -1.5596
  306MOL0     H40375  -0.877   9.995   1.095  1.3507  2.4654 -1.8855
  306MOL0     H40376  -0.419  10.044   1.234  1.3214 -1.6228 -0.0098
  306MOL0     H40377  -0.218  10.181   1.247  0.4804  0.3129  0.4818
  306MOL0     H40378   1.276   9.618   1.775  0.5041  1.1205  0.5053
  306MOL0     H40379   1.504   9.669   1.834 -1.1828  1.4372 -1.1002
  306MOL0     H40380   2.004   9.343   1.761 -1.8214  0.7806 -1.0481
  306MOL0     H40381   2.237   9.379   1.818 -0.9551 -0.6057 -0.4116
  306MOL0     H40382   2.346   9.750   1.993 -0.7831  0.3219 -0.3194
  306MOL0     H40383   2.391   9.825   1.841  0.3325 -0.5731  1.3309
  306MOL0     H40384   2.596   9.690   1.821  0.4904  1.2558 -0.3917
  306MOL0     H40385   2.596   9.839   1.911 -1.5146  1.3174  1.8429
  306MOL0     H40386   2.680   9.585   2.012 -0.7292 -0.6323  2.0810
  306MOL0     H40387   2.523   9.617   2.085  0.1981 -0.8672  0.4120
  306MOL0     H40388   2.615   9.864   2.139 -2.5764 -1.2838  1.7204
  306MOL0     H40389   2.649   9.729   2.240  3.1894  1.0467  0.7395
  306MOL0     H40390   3.041   9.741   2.108 -1.3405 -0.6666 -0.1137
  306MOL0     H40391   2.173   9.803   1.790  2.4858 -1.0101 -0.0705
  306MOL0     H40392   1.934   9.760   1.721 -0.6528 -0.6996  0.3629
  307MOL0     O40393   4.544   2.210   3.949  0.8228  0.3912 -0.8215
  307MOL0     C40394   4.611   2.128   3.884 -0.7237 -0.1466 -0.1379
  307MOL0     O40395   4.568   2.025   3.814 -0.0663 -0.4557 -0.0235
  307MOL0     C40396   4.427   2.007   3.805 -0.8135 -0.0245  0.1861
  307MOL0     C40397   4.360   2.014   3.689 -0.2835  0.5971 -0.1397
  307MOL0     C40398   4.218   1.990   3.689  0.1061  0.0245 -0.2413
  307MOL0     C40399   4.147   1.945   3.808 -0.0775 -0.6657 -0.6491
  307MOL0     O40400   4.015   1.916   3.808  0.1557  0.3397 -0.1875
  307MOL0     C40401   3.940   1.900   3.933 -0.4492  0.5793  0.7636
  307MOL0     C40402   3.803   1.837   3.913  0.7265 -0.1251  1.2324
  307MOL0     C40403   3.722   1.846   4.047 -0.3884  0.1161  0.3921
  307MOL0     C40404   3.593   1.763   4.016 -0.2150  0.1521  0.3788
  307MOL0     C40405   3.517   1.743   4.149 -0.2474  0.6070  0.1229
  307MOL0     C40406   3.439   1.855   4.214 -0.2855  0.0435 -0.0340
  307MOL0     C40407   3.357   1.942   4.110 -0.4636  0.4494 -0.3480
  307MOL0     C40408   3.255   1.867   4.025  0.1350  0.3112  0.0441
  307MOL0     N40409   3.126   1.840   4.094 -0.1285 -0.3748 -0.0030
  307MOL0     C40410   3.098   1.737   4.184  0.3287  0.1750  0.1777
  307MOL0     C40411   2.977   1.762   4.237 -0.3799  0.1707  0.5983
  307MOL0     C40412   2.910   1.667   4.327  0.0281 -0.5278  0.1995
  307MOL0     C40413   2.835   1.737   4.430 -0.3693  0.1176 -0.3170
  307MOL0     C40414   2.935   1.801   4.540 -0.1223  0.7052  0.2646
  307MOL0     C40415   2.863   1.885   4.654 -0.4517 -0.4268  0.4394
  307MOL0     O40416   2.790   1.993   4.590 -0.9363  0.0582 -0.1182
  307MOL0     C40417   2.655   2.012   4.606  0.0323  0.2289 -0.1639
  307MOL0     C40418   2.589   2.058   4.492 -1.0319 -0.7660 -0.2947
  307MOL0     C40419   2.445   2.072   4.495  0.1942  0.3623  0.2544
  307MOL0     C40420   2.371   2.026   4.605  1.0771  0.1220 -0.4947
  307MOL0     C40421   2.225   2.038   4.595 -0.6245  0.8967  0.1677
  307MOL0     O40422   2.150   1.971   4.691 -0.2953  0.7946  0.5413
  307MOL0     C40423   2.011   1.986   4.679  0.4780  0.3953 -0.4957
  307MOL0     C40424   1.945   1.921   4.572 -0.2646 -0.7806 -0.0394
  307MOL0     C40425   1.807   1.944   4.562  0.2889 -0.0050 -1.3740
  307MOL0     C40426   1.733   2.015   4.655  0.2161  0.6591  0.0481
  307MOL0     O40427   1.597   2.014   4.631 -0.5370 -0.7300  0.7048
  307MOL0     C40428   1.516   2.095   4.719  0.5039  0.4136  0.6784
  307MOL0     C40429   1.383   2.102   4.652 -0.5249  0.1247  0.2939
  307MOL0     C40430   1.298   2.194   4.739  0.6051 -0.0115  0.1694
  307MOL0     C40431   1.164   2.223   4.666 -1.2510 -0.1119  0.4795
  307MOL0     C40432   1.074   2.315   4.735  0.6883 -0.7513 -0.3682
  307MOL0     C40433   0.927   2.311   4.691  0.1967  0.6869  0.4542
  307MOL0     C40434   0.869   2.170   4.723  1.0413  0.0508 -0.1804
  307MOL0     C40435   0.735   2.178   4.797  0.4916 -1.1966 -0.4201
  307MOL0    Cl40436   0.607   2.246   4.692 -0.1868  0.5879  0.4234
  307MOL0     C40437   1.802   2.072   4.762 -0.0825 -0.8651 -0.0805
  307MOL0     C40438   1.941   2.063   4.777  1.2523 -0.4386 -0.1489
  307MOL0     O40439   2.178   2.109   4.509  0.3350 -0.4205  0.0783
  307MOL0     C40440   2.438   1.985   4.727  0.0505 -0.0410  0.0205
  307MOL0     C40441   2.579   1.981   4.717  0.5730  1.2234  0.3667
  307MOL0     N40442   2.929   1.878   4.179  0.9696  0.7585  0.0689
  307MOL0     N40443   3.017   1.919   4.092  0.2774 -0.2855 -0.3136
  307MOL0     C40444   4.226   1.941   3.928 -0.9228  0.0463 -0.0959
  307MOL0     C40445   4.361   1.968   3.926  0.2750 -0.9272  0.6304
  307MOL0     C40446   4.755   2.166   3.869  0.8715  0.2710 -0.1328
  307MOL0     C40447   4.850   2.082   3.801 -0.0005 -0.2638  0.3387
  307MOL0     C40448   4.976   2.129   3.780  0.1388 -0.1265 -0.4803
  307MOL0     C40449   5.013   2.257   3.830  0.7816 -0.1150 -0.1238
  307MOL0     O40450   5.141   2.315   3.797  0.0968  0.0829  0.0125
  307MOL0     C40451   5.221   2.262   3.685 -0.3794 -0.2969 -0.7072
  307MOL0     C40452   5.320   2.167   3.741  0.1617 -0.0411 -1.3822
  307MOL0     C40453   5.442   2.233   3.818  0.6781  0.0178 -0.1148
  307MOL0     C40454   5.571   2.179   3.758  0.4657  0.1606  0.0322
  307MOL0     C40455   5.680   2.253   3.817  0.0659  0.2939  0.5270
  307MOL0     C40456   5.784   2.285   3.867  0.1652 -0.1221  0.0210
  307MOL0     C40457   4.934   2.333   3.911  0.0137  0.5074  0.0421
  307MOL0     C40458   4.796   2.291   3.921  0.0966  0.2921 -0.1576
  307MOL0     H40459   4.419   2.052   3.607  0.7735 -2.3165 -0.8681
  307MOL0     H40460   4.162   1.988   3.596  2.1210 -2.2149 -1.5341
  307MOL0     H40461   3.934   1.999   3.978 -2.8323  1.2859 -0.8960
  307MOL0     H40462   3.998   1.835   4.000 -1.0253 -0.6413  0.1277
  307MOL0     H40463   3.806   1.732   3.880  0.6139 -0.1168  1.1949
  307MOL0     H40464   3.745   1.892   3.838  2.6455  0.7233  0.3035
  307MOL0     H40465   3.697   1.949   4.077 -2.4754  0.7588 -2.9826
  307MOL0     H40466   3.760   1.796   4.136 -0.6012 -1.6386 -0.4750
  307MOL0     H40467   3.539   1.820   3.939 -0.4305  1.9594  1.8060
  307MOL0     H40468   3.607   1.667   3.967 -0.6049 -0.8965  2.2410
  307MOL0     H40469   3.571   1.682   4.222 -1.2529 -0.1876  0.2196
  307MOL0     H40470   3.444   1.670   4.112  0.2622 -0.7939  1.7521
  307MOL0     H40471   3.500   1.919   4.279 -1.4749 -2.5712  4.1165
  307MOL0     H40472   3.372   1.817   4.292 -0.3698  3.5070  1.7564
  307MOL0     H40473   3.311   2.028   4.161  2.0828  2.6488 -1.5670
  307MOL0     H40474   3.431   1.981   4.041 -2.3234  0.2253 -2.5795
  307MOL0     H40475   3.301   1.771   3.997  0.4206 -0.0620  1.6985
  307MOL0     H40476   3.232   1.921   3.933  0.4606  0.2856 -0.0570
  307MOL0     H40477   3.156   1.647   4.206 -0.9099 -0.5951  0.3512
  307MOL0     H40478   2.990   1.604   4.367  0.2481  0.3275  1.1550
  307MOL0     H40479   2.842   1.610   4.263  0.7373 -0.6576 -0.4576
  307MOL0     H40480   2.760   1.673   4.478 -1.3024  1.0797 -0.4352
  307MOL0     H40481   2.772   1.812   4.380 -1.4715 -2.6111 -3.3512
  307MOL0     H40482   2.995   1.722   4.586  0.3398 -0.6098 -2.3825
  307MOL0     H40483   3.007   1.865   4.490 -0.7719  0.6009 -0.8466
  307MOL0     H40484   2.937   1.928   4.722  1.4888 -2.5848 -0.2071
  307MOL0     H40485   2.791   1.827   4.712 -0.3987 -0.6275  0.3031
  307MOL0     H40486   2.643   2.075   4.399 -0.4083 -1.5493 -0.0953
  307MOL0     H40487   2.396   2.113   4.407 -2.4848 -0.0906  1.4215
  307MOL0     H40488   1.999   1.862   4.499 -0.2235  0.5685 -1.1601
  307MOL0     H40489   1.752   1.903   4.478 -0.3984  0.2046 -1.0406
  307MOL0     H40490   1.554   2.196   4.736  0.6470  0.5020 -0.1244
  307MOL0     H40491   1.519   2.044   4.816  0.8140 -0.1838  0.3598
  307MOL0     H40492   1.338   2.003   4.641  1.1601 -0.5578 -0.7291
  307MOL0     H40493   1.398   2.143   4.552  1.4086  2.5540  1.4754
  307MOL0     H40494   1.353   2.281   4.775 -0.6370  0.1885  1.6987
  307MOL0     H40495   1.284   2.140   4.833  4.2376 -0.2775  0.7171
  307MOL0     H40496   1.180   2.253   4.562 -1.5283  0.6508  0.6554
  307MOL0     H40497   1.112   2.127   4.652 -0.4181 -0.2273 -2.6409
  307MOL0     H40498   1.109   2.418   4.729  2.0382 -1.2332 -1.1456
  307MOL0     H40499   1.081   2.286   4.840 -1.1186  2.7235  0.8710
  307MOL0     H40500   0.922   2.320   4.582  2.5383 -1.3523  0.0837
  307MOL0     H40501   0.868   2.386   4.744 -1.7332 -0.3027 -0.1993
  307MOL0     H40502   0.860   2.110   4.633  0.9792 -0.6616  0.2965
  307MOL0     H40503   0.940   2.115   4.786 -0.4911  1.1016  2.6691
  307MOL0     H40504   0.747   2.227   4.894 -0.0133 -0.8002 -0.5542
  307MOL0     H40505   0.720   2.074   4.827  2.3916 -0.9377  1.7035
  307MOL0     H40506   1.748   2.135   4.831  1.8394  0.3257  0.4087
  307MOL0     H40507   1.974   2.120   4.863 -3.0734  1.2893  0.6063
  307MOL0     H40508   2.385   1.968   4.821 -3.0283  2.2922 -1.1380
  307MOL0     H40509   2.636   1.941   4.801 -0.4397 -1.0351  0.0422
  307MOL0     H40510   4.187   1.904   4.022 -0.4096 -0.3995 -0.0554
  307MOL0     H40511   4.413   1.967   4.022 -0.2334  0.7969  0.9557
  307MOL0     H40512   4.807   1.986   3.773 -1.8408  0.8341 -0.8689
  307MOL0     H40513   5.043   2.066   3.723  1.8538  0.3474  0.9362
  307MOL0     H40514   5.278   2.346   3.646 -3.5055  1.2276 -2.4407
  307MOL0     H40515   5.156   2.228   3.604  1.9456 -2.1106 -1.9204
  307MOL0     H40516   5.265   2.120   3.822  1.9984 -0.9348 -0.6100
  307MOL0     H40517   5.360   2.098   3.666 -0.9964 -0.8865 -1.2461
  307MOL0     H40518   5.441   2.201   3.922  0.2841 -0.3510 -0.2289
  307MOL0     H40519   5.439   2.343   3.815  2.0453  0.0925  0.6300
  307MOL0     H40520   5.579   2.070   3.759  0.9988  0.1090 -2.5526
  307MOL0     H40521   5.565   2.209   3.653 -2.2397  0.8841  0.3354
  307MOL0     H40522   5.874   2.322   3.911  1.4932 -2.4290 -0.6242
  307MOL0     H40523   4.975   2.422   3.956  1.0100  0.4330 -0.6809
  307MOL0     H40524   4.730   2.357   3.975 -0.0634 -0.7902  0.9994
  308MOL0     O40525   8.048   5.055  11.161 -0.4747 -0.1676  0.1816
  308MOL0     C40526   8.064   5.175  11.176 -0.3941 -1.0150  0.3199
  308MOL0     O40527   7.962   5.260  11.187  0.4885 -0.4644 -0.2843
  308MOL0     C40528   7.830   5.220  11.217 -0.1382 -0.6420 -0.4892
  308MOL0     C40529   7.803   5.165  11.343  0.4601 -0.1305 -0.4932
  308MOL0     C40530   7.675   5.103  11.358  0.5138  0.3397 -0.3473
  308MOL0     C40531   7.589   5.092  11.251  0.1207  0.5966  0.3442
  308MOL0     O40532   7.467   5.032  11.277 -0.1847  0.3389 -0.6309
  308MOL0     C40533   7.390   4.986  11.172 -0.3222 -0.4333  1.3696
  308MOL0     C40534   7.291   4.889  11.236 -0.6149  0.6710 -0.1377
  308MOL0     C40535   7.215   4.951  11.356 -1.2050  1.2869  0.0285
  308MOL0     C40536   7.084   4.883  11.383 -0.0473  0.1499  0.4288
  308MOL0     C40537   6.962   4.914  11.281  0.9424  0.0799 -0.1726
  308MOL0     C40538   6.828   4.875  11.343  0.4421 -0.5552  1.0087
  308MOL0     C40539   6.813   4.725  11.353  0.3093  0.2382  0.1072
  308MOL0     C40540   6.686   4.681  11.273  0.5617 -0.0566  0.0477
  308MOL0     N40541   6.699   4.534  11.239  0.0708 -0.5864  0.7244
  308MOL0     C40542   6.653   4.423  11.312 -0.4628 -0.6316 -0.1176
  308MOL0     C40543   6.656   4.315  11.235  0.4774 -0.3598  0.3135
  308MOL0     C40544   6.630   4.171  11.264  0.0594  0.0079  0.2947
  308MOL0     C40545   6.527   4.156  11.383  0.7096  0.2067  0.1801
  308MOL0     C40546   6.387   4.210  11.356 -0.6131 -0.4612 -0.3124
  308MOL0     C40547   6.309   4.213  11.494  0.2066 -0.8601  0.4665
  308MOL0     O40548   6.274   4.086  11.538  0.2664 -0.2328 -0.2276
  308MOL0     C40549   6.138   4.051  11.545  0.1402 -0.0138 -0.4114
  308MOL0     C40550   6.067   4.041  11.427  0.0994 -1.0986  0.2500
  308MOL0     C40551   5.927   4.026  11.427 -0.0928 -0.7277  0.3290
  308MOL0     C40552   5.861   3.989  11.550 -0.1050  0.5446  0.7603
  308MOL0     C40553   5.711   3.960  11.559 -0.2883 -1.0288 -0.6468
  308MOL0     O40554   5.671   3.899  11.667  0.1010  0.0990  0.0754
  308MOL0     C40555   5.546   3.868  11.696  0.8828  0.0440 -0.5591
  308MOL0     C40556   5.488   3.912  11.824 -0.0666  0.1619  1.0995
  308MOL0     C40557   5.362   3.869  11.856  0.8797 -0.2316  0.3178
  308MOL0     C40558   5.280   3.797  11.774 -0.1272 -0.2523 -0.9475
  308MOL0     O40559   5.155   3.760  11.803 -0.4234  0.2200 -0.0748
  308MOL0     C40560   5.052   3.741  11.700 -0.3435  0.4560 -0.1746
  308MOL0     C40561   4.911   3.717  11.754 -1.2626 -0.4807  0.2625
  308MOL0     C40562   4.843   3.843  11.801  0.0916 -0.2976 -0.5019
  308MOL0     C40563   4.701   3.811  11.843 -0.0970  0.1866 -0.1649
  308MOL0     C40564   4.616   3.931  11.865 -0.7119  0.3815  0.7516
  308MOL0     C40565   4.468   3.888  11.875  0.3981 -1.1218 -0.2206
  308MOL0     C40566   4.380   4.012  11.881  0.2108  0.1634 -0.9780
  308MOL0     C40567   4.241   3.978  11.956 -0.5760 -0.0740 -0.0961
  308MOL0    Cl40568   4.172   3.820  11.912  0.3462 -0.2532  0.1094
  308MOL0     C40569   5.333   3.741  11.658 -0.2319  0.0333  0.0697
  308MOL0     C40570   5.457   3.783  11.620  0.1494  1.5409 -0.6161
  308MOL0     O40571   5.634   3.995  11.467 -0.1075 -0.1936  0.2972
  308MOL0     C40572   5.939   3.991  11.669  0.0730 -0.7130 -0.0430
  308MOL0     C40573   6.079   4.019  11.662 -0.3828 -0.1149 -0.5202
  308MOL0     N40574   6.704   4.364  11.109  0.9931  0.3812  0.5996
  308MOL0     N40575   6.739   4.489  11.119 -0.6395 -0.5767  0.1249
  308MOL0     C40576   7.609   5.177  11.140  0.9259  0.0306 -0.2211
  308MOL0     C40577   7.730   5.235  11.120  0.1846  0.5611 -0.1738
  308MOL0     C40578   8.202   5.233  11.176  0.1628 -0.1639  0.4389
  308MOL0     C40579   8.225   5.372  11.160  0.0104 -0.0912  0.4671
  308MOL0     C40580   8.352   5.424  11.154 -0.3422 -0.0369  0.2010
  308MOL0     C40581   8.464   5.345  11.184  0.2717  0.1292  0.9346
  308MOL0     O40582   8.590   5.403  11.188 -0.8783  0.4287 -0.1966
  308MOL0     C40583   8.602   5.542  11.169 -0.0516 -0.5123 -0.2324
  308MOL0     C40584   8.749   5.593  11.185  0.5379 -0.0628 -0.1167
  308MOL0     C40585   8.752   5.752  11.179 -0.6271 -0.4954  1.0229
  308MOL0     C40586   8.707   5.819  11.053 -0.6388 -0.5212 -0.6600
  308MOL0     C40587   8.570   5.818  11.007 -0.7541  0.8860 -0.2764
  308MOL0     C40588   8.453   5.809  10.979  1.1444  0.5947  1.0198
  308MOL0     C40589   8.444   5.204  11.208 -0.5564  0.3816  1.0778
  308MOL0     C40590   8.321   5.152  11.197  0.7490  0.0260  1.2037
  308MOL0     H40591   7.878   5.188  11.419 -1.3910  1.1943  1.0299
  308MOL0     H40592   7.648   5.053  11.451  1.7539 -2.1870 -1.2653
  308MOL0     H40593   7.449   4.931  11.099 -2.2214 -2.3302  1.1644
  308MOL0     H40594   7.327   5.069  11.138  1.1340  0.5619  0.9908
  308MOL0     H40595   7.338   4.799  11.275  0.2072  1.9372  1.9621
  308MOL0     H40596   7.229   4.857  11.151  1.9668 -1.7380 -1.2544
  308MOL0     H40597   7.202   5.058  11.341  0.2590  1.7243  1.5875
  308MOL0     H40598   7.270   4.925  11.447  1.2454 -0.4632 -1.7891
  308MOL0     H40599   7.093   4.775  11.397  0.4123  0.4683  3.1104
  308MOL0     H40600   7.051   4.929  11.476  1.4322  0.4355  0.8434
  308MOL0     H40601   6.976   4.855  11.190  0.5972  0.9613 -0.8133
  308MOL0     H40602   6.961   5.015  11.238  1.1634  0.0741 -0.1903
  308MOL0     H40603   6.755   4.926  11.280  0.7157 -1.1097  0.2393
  308MOL0     H40604   6.822   4.916  11.445 -2.8781  1.5176  0.1321
  308MOL0     H40605   6.898   4.677  11.304 -1.0252 -0.5229 -1.5377
  308MOL0     H40606   6.810   4.700  11.460 -2.7948  1.0550  0.2943
  308MOL0     H40607   6.676   4.730  11.176 -1.0603 -1.6556 -0.6629
  308MOL0     H40608   6.600   4.697  11.339 -0.6966 -2.5145 -0.8434
  308MOL0     H40609   6.645   4.422  11.420  1.6374  1.6573  0.1426
  308MOL0     H40610   6.729   4.144  11.301  0.2741 -0.4180 -0.5730
  308MOL0     H40611   6.609   4.108  11.178 -2.8206 -0.6322  1.3555
  308MOL0     H40612   6.562   4.201  11.477 -2.6208 -0.5339  1.9116
  308MOL0     H40613   6.512   4.052  11.414  0.5139  0.3712  0.6480
  308MOL0     H40614   6.395   4.315  11.326  0.3784 -0.4958 -0.2188
  308MOL0     H40615   6.331   4.147  11.287 -1.9675 -0.5798  0.8504
  308MOL0     H40616   6.216   4.267  11.475 -0.4875 -0.7559  3.6868
  308MOL0     H40617   6.357   4.276  11.569 -0.3279  2.3912 -1.7231
  308MOL0     H40618   6.133   4.057  11.342  2.5993 -2.5995  1.7863
  308MOL0     H40619   5.879   4.035  11.330  0.3636 -1.8001 -0.0227
  308MOL0     H40620   5.549   3.980  11.881  0.1646 -0.0346  1.0898
  308MOL0     H40621   5.313   3.901  11.947 -0.9700 -0.4397 -0.5651
  308MOL0     H40622   5.066   3.649  11.642 -2.8656  0.4761 -0.9106
  308MOL0     H40623   5.051   3.825  11.630  2.5475  0.8140  0.0723
  308MOL0     H40624   4.918   3.644  11.835  1.7418  0.6300  1.1343
  308MOL0     H40625   4.851   3.678  11.671  2.3007 -1.1595 -2.2603
  308MOL0     H40626   4.834   3.917  11.721 -1.0660 -1.7426 -1.7697
  308MOL0     H40627   4.897   3.885  11.886  0.6169 -2.5193  0.3294
  308MOL0     H40628   4.641   3.750  11.775  1.0574  0.0055 -1.0527
  308MOL0     H40629   4.702   3.753  11.936 -1.3161 -2.1114 -1.5033
  308MOL0     H40630   4.627   4.003  11.783 -2.6732  0.9214  0.9196
  308MOL0     H40631   4.648   3.983  11.956 -1.1586  3.2723 -0.6190
  308MOL0     H40632   4.462   3.832  11.969  0.4739  2.8904  2.4533
  308MOL0     H40633   4.428   3.816  11.803 -0.4318 -0.1896 -0.7156
  308MOL0     H40634   4.423   4.096  11.937  0.1075  0.0589 -0.7433
  308MOL0     H40635   4.369   4.052  11.780  1.1462  1.1282 -0.7205
  308MOL0     H40636   4.158   4.043  11.929 -1.4167 -0.7130  0.8537
  308MOL0     H40637   4.261   3.995  12.063 -1.1731 -1.3693  0.2452
  308MOL0     H40638   5.263   3.679  11.602 -1.0904 -1.4808  2.6589
  308MOL0     H40639   5.488   3.744  11.524  0.2056 -1.4475  0.4931
  308MOL0     H40640   5.893   3.974  11.765 -0.2352  2.7985  0.5344
  308MOL0     H40641   6.140   4.018  11.752  0.8394  1.6203 -1.2864
  308MOL0     H40642   7.536   5.193  11.061  2.2866  1.7569 -1.2169
  308MOL0     H40643   7.764   5.279  11.027  2.4463  1.4108  0.9772
  308MOL0     H40644   8.134   5.431  11.161 -0.0070 -0.0894 -0.5383
  308MOL0     H40645   8.351   5.533  11.158  0.3344  0.2174 -3.5300
  308MOL0     H40646   8.542   5.597  11.242 -0.8961  0.7847 -1.8631
  308MOL0     H40647   8.567   5.563  11.068 -2.8349 -1.4006  0.4546
  308MOL0     H40648   8.800   5.562  11.277 -1.3736  2.1241  1.8122
  308MOL0     H40649   8.796   5.542  11.100 -1.7752 -3.1683  0.2954
  308MOL0     H40650   8.856   5.779  11.198 -0.4915 -0.8664  0.8062
  308MOL0     H40651   8.702   5.782  11.272 -1.0795 -2.6696  1.5554
  308MOL0     H40652   8.731   5.925  11.067 -0.3272 -0.4550 -1.6097
  308MOL0     H40653   8.778   5.796  10.973  0.6270  1.8054 -0.3120
  308MOL0     H40654   8.346   5.812  10.981  1.0689 -1.3963  2.0960
  308MOL0     H40655   8.533   5.151  11.239  0.9752  1.8124 -0.6195
  308MOL0     H40656   8.300   5.047  11.216  2.0424 -0.7407 -1.2384
  309MOL0     O40657   8.636   1.569   4.043  0.0225 -0.2446 -0.0449
  309MOL0     C40658   8.714   1.478   4.090  0.1617  0.4514 -0.6819
  309MOL0     O40659   8.678   1.348   4.112 -0.0794  0.6948  0.4779
  309MOL0     C40660   8.542   1.325   4.115  0.2502  0.4609 -0.3553
  309MOL0     C40661   8.447   1.347   4.013 -0.4940 -0.6494 -0.6022
  309MOL0     C40662   8.309   1.320   4.031 -0.0437  0.5713  0.0122
  309MOL0     C40663   8.271   1.245   4.141  0.4360 -0.6126  0.0418
  309MOL0     O40664   8.149   1.194   4.165 -0.3119 -0.0996  1.1269
  309MOL0     C40665   8.039   1.250   4.083  0.5835  0.1423  0.3490
  309MOL0     C40666   7.917   1.203   4.150 -0.4884  0.5343  0.6584
  309MOL0     C40667   7.787   1.249   4.081 -1.0264 -0.4743 -0.9442
  309MOL0     C40668   7.669   1.154   4.102 -0.1619 -0.3092 -0.4701
  309MOL0     C40669   7.551   1.190   4.010  1.1731 -0.3561  1.1176
  309MOL0     C40670   7.416   1.151   4.052 -0.5914 -0.2626  0.0774
  309MOL0     C40671   7.409   0.997   4.056 -0.1400 -0.0489  0.3559
  309MOL0     C40672   7.280   0.945   4.130  0.0703 -0.1517 -0.9128
  309MOL0     N40673   7.265   0.801   4.145 -0.5509 -0.0555 -0.1065
  309MOL0     C40674   7.146   0.736   4.113 -0.3132  0.1353 -0.9213
  309MOL0     C40675   7.185   0.606   4.124  0.5471 -1.1817 -0.9547
  309MOL0     C40676   7.100   0.484   4.102 -0.4865 -0.6501 -1.0156
  309MOL0     C40677   6.956   0.487   4.166  0.1840 -0.8156 -0.5897
  309MOL0     C40678   6.856   0.418   4.073 -0.2388 -0.8202 -0.6161
  309MOL0     C40679   6.707   0.454   4.102  0.4862  0.6414  0.7181
  309MOL0     O40680   6.673   0.436   4.237 -0.3739 -0.4561 -0.8600
  309MOL0     C40681   6.551   0.452   4.284  0.2908  0.2213  0.4572
  309MOL0     C40682   6.527   0.426   4.418  0.8369 -0.1087 -0.3320
  309MOL0     C40683   6.402   0.431   4.477  0.1157  1.0845  0.1021
  309MOL0     C40684   6.286   0.474   4.405 -0.4618 -0.3554  0.3038
  309MOL0     C40685   6.144   0.462   4.459 -0.1303 -0.5122  0.0195
  309MOL0     O40686   6.123   0.405   4.582 -0.0366  0.3840  0.2276
  309MOL0     C40687   5.993   0.405   4.633  0.9880 -0.0116  0.2425
  309MOL0     C40688   5.903   0.517   4.634  0.6337  0.3190  0.6571
  309MOL0     C40689   5.767   0.503   4.683 -0.3671  0.1144 -0.5700
  309MOL0     C40690   5.729   0.384   4.741 -0.6830  0.1102 -1.4466
  309MOL0     O40691   5.598   0.380   4.794 -0.2115  0.1728 -0.4040
  309MOL0     C40692   5.510   0.268   4.763 -0.4080 -0.4557  0.2451
  309MOL0     C40693   5.372   0.298   4.827  0.9153  0.4397 -0.0586
  309MOL0     C40694   5.369   0.247   4.973 -0.6732  0.6525 -0.0076
  309MOL0     C40695   5.246   0.287   5.052 -0.6120  0.0866  0.5705
  309MOL0     C40696   5.120   0.205   4.990  0.6519 -1.3813  0.5352
  309MOL0     C40697   4.995   0.242   5.067  1.2441 -0.6909  0.5438
  309MOL0     C40698   4.875   0.174   5.004  0.4648 -0.3249 -0.0489
  309MOL0     C40699   4.748   0.232   5.067  0.1679 -0.1397  0.5820
  309MOL0    Cl40700   4.710   0.387   4.992 -0.2513 -0.0002  0.3903
  309MOL0     C40701   5.821   0.277   4.738  0.1595 -0.3367 -0.6120
  309MOL0     C40702   5.950   0.287   4.694 -0.2603  0.7628 -0.0690
  309MOL0     O40703   6.056   0.492   4.384  0.4762 -0.2973  0.5688
  309MOL0     C40704   6.315   0.517   4.274  0.0665  0.4567 -0.4256
  309MOL0     C40705   6.445   0.495   4.214  0.7214 -0.2577  0.5202
  309MOL0     N40706   7.320   0.600   4.154 -0.1049  0.6441  0.0795
  309MOL0     N40707   7.371   0.715   4.173 -0.4634 -0.6880 -0.2571
  309MOL0     C40708   8.371   1.210   4.233  0.0132 -0.3541 -0.1362
  309MOL0     C40709   8.506   1.243   4.218  0.0479  0.8748 -0.8238
  309MOL0     C40710   8.850   1.504   4.117  0.3797  0.8604  1.4838
  309MOL0     C40711   8.891   1.630   4.080 -0.6831  0.0368  1.0976
  309MOL0     C40712   9.029   1.667   4.096  0.4077  0.1854 -0.2690
  309MOL0     C40713   9.126   1.579   4.154 -0.2265  0.2932  0.0138
  309MOL0     O40714   9.261   1.601   4.171  0.2425 -0.9759  0.1298
  309MOL0     C40715   9.310   1.736   4.201  0.0274  0.4359  0.2701
  309MOL0     C40716   9.464   1.738   4.223 -0.3516 -0.6608  0.0388
  309MOL0     C40717   9.532   1.689   4.098  0.3936 -0.6213  0.1014
  309MOL0     C40718   9.681   1.723   4.114  0.1334  0.2624 -0.8786
  309MOL0     C40719   9.746   1.693   3.987 -1.4116 -0.1533 -0.7065
  309MOL0     C40720   9.799   1.662   3.884  0.2553  0.8951  0.0093
  309MOL0     C40721   9.081   1.448   4.191  0.7100  0.5754 -0.0805
  309MOL0     C40722   8.945   1.410   4.166  0.0086  0.1668 -0.0420
  309MOL0     H40723   8.483   1.396   3.923  1.8578  0.2203  0.7330
  309MOL0     H40724   8.242   1.330   3.947  0.7290  1.1790 -0.5498
  309MOL0     H40725   8.036   1.198   3.987  0.0401  1.6662 -0.4801
  309MOL0     H40726   8.034   1.358   4.074  2.0925  0.4336  2.1945
  309MOL0     H40727   7.917   1.250   4.248  0.8457  1.9897  0.0035
  309MOL0     H40728   7.909   1.094   4.160 -3.1715  0.5432 -0.4767
  309MOL0     H40729   7.809   1.255   3.975 -2.0588 -1.0607 -1.2134
  309MOL0     H40730   7.757   1.346   4.123  0.1829  0.0413 -1.2230
  309MOL0     H40731   7.693   1.050   4.079 -2.8199 -0.7407 -1.6722
  309MOL0     H40732   7.639   1.161   4.207  3.5262 -1.4949  0.8214
  309MOL0     H40733   7.569   1.144   3.913 -0.7475 -0.2116  0.6562
  309MOL0     H40734   7.545   1.297   3.988  1.4350 -0.9014 -2.1088
  309MOL0     H40735   7.342   1.190   3.982 -0.7009 -0.0913  0.2897
  309MOL0     H40736   7.393   1.198   4.148 -1.7693  2.1084 -1.2696
  309MOL0     H40737   7.409   0.958   3.954  0.3933 -0.3900  0.4845
  309MOL0     H40738   7.492   0.955   4.112 -0.4498  1.4760  2.0663
  309MOL0     H40739   7.195   0.995   4.083 -0.9750 -0.5214  0.5181
  309MOL0     H40740   7.297   0.991   4.227  1.4993 -2.2070 -0.1151
  309MOL0     H40741   7.051   0.770   4.073  0.6022  1.0569 -2.4029
  309MOL0     H40742   7.158   0.395   4.127  1.7283  1.0471  0.2966
  309MOL0     H40743   7.088   0.489   3.993  0.5020 -0.7269 -1.1396
  309MOL0     H40744   6.928   0.588   4.198  0.4258 -0.6151 -0.9941
  309MOL0     H40745   6.962   0.429   4.259  1.5024 -2.7376 -1.7936
  309MOL0     H40746   6.874   0.436   3.967  1.3395 -1.2518 -0.4387
  309MOL0     H40747   6.876   0.312   4.089  2.5609  0.0050  2.2635
  309MOL0     H40748   6.650   0.371   4.060  0.7091  0.4531  0.7796
  309MOL0     H40749   6.681   0.548   4.053  1.0968  1.0606  1.1644
  309MOL0     H40750   6.600   0.390   4.491  0.4828 -1.7428 -0.7483
  309MOL0     H40751   6.390   0.402   4.581 -1.5160  0.2903 -0.2659
  309MOL0     H40752   5.937   0.613   4.595 -2.8985  1.8593  1.0420
  309MOL0     H40753   5.708   0.594   4.680  1.5725  1.4733  0.1984
  309MOL0     H40754   5.543   0.171   4.802 -1.9636 -0.5550  1.4011
  309MOL0     H40755   5.496   0.250   4.656 -1.4011  3.9726 -0.5658
  309MOL0     H40756   5.285   0.256   4.776 -2.0095  2.5812  2.7573
  309MOL0     H40757   5.356   0.406   4.824  0.9092  0.4895  1.2704
  309MOL0     H40758   5.455   0.293   5.022 -0.3599 -1.0867  1.1709
  309MOL0     H40759   5.380   0.138   4.975 -2.1710  0.4605 -0.6823
  309MOL0     H40760   5.254   0.258   5.157 -0.4640  0.5627  0.6906
  309MOL0     H40761   5.241   0.395   5.035  0.1217 -0.1867 -1.8016
  309MOL0     H40762   5.140   0.098   4.992 -1.8810 -1.9218 -0.4552
  309MOL0     H40763   5.099   0.234   4.886  1.6881  2.1509  1.1485
  309MOL0     H40764   4.985   0.351   5.068  3.7150 -0.2009 -3.6740
  309MOL0     H40765   5.012   0.194   5.164  2.0307 -1.7136 -0.0869
  309MOL0     H40766   4.883   0.194   4.897  2.5632 -2.3506 -0.3545
  309MOL0     H40767   4.882   0.067   5.027  0.5382 -0.2649  0.2101
  309MOL0     H40768   4.753   0.241   5.176 -0.2272  1.9988  0.4594
  309MOL0     H40769   4.668   0.165   5.033  1.3961 -1.5082  0.2412
  309MOL0     H40770   5.787   0.176   4.759 -1.9175  0.5189  0.4889
  309MOL0     H40771   6.014   0.200   4.697 -2.3098 -1.0016 -3.0030
  309MOL0     H40772   6.238   0.560   4.210 -1.9391  0.4585  1.8371
  309MOL0     H40773   6.471   0.522   4.112 -1.3096 -1.1160 -0.2775
  309MOL0     H40774   8.349   1.150   4.320  0.6546  2.5566  2.1995
  309MOL0     H40775   8.585   1.218   4.288  1.4508  1.4163 -2.1661
  309MOL0     H40776   8.823   1.691   4.022 -1.1110 -1.2218  0.2275
  309MOL0     H40777   9.060   1.768   4.071  1.0281 -0.2673 -1.3708
  309MOL0     H40778   9.254   1.770   4.288 -1.4716 -3.9693  1.2828
  309MOL0     H40779   9.281   1.800   4.116 -0.2342 -0.0839 -0.0371
  309MOL0     H40780   9.480   1.844   4.246 -1.8664 -0.7120  1.4800
  309MOL0     H40781   9.498   1.689   4.314 -0.2433  1.0892  0.9942
  309MOL0     H40782   9.494   1.763   4.028 -1.4027  0.8695  2.4994
  309MOL0     H40783   9.519   1.589   4.056  1.8210 -2.5052  3.6956
  309MOL0     H40784   9.694   1.829   4.135  0.5807 -0.4115  3.1682
  309MOL0     H40785   9.730   1.670   4.196  1.9414 -1.1125 -2.7362
  309MOL0     H40786   9.841   1.627   3.793  0.1229  2.5750 -0.7425
  309MOL0     H40787   9.155   1.381   4.235  0.1802 -0.7363 -1.1312
  309MOL0     H40788   8.916   1.306   4.172  0.5195  0.0426  0.3035
  310MOL0     O40789   1.658  10.459   6.139 -0.4137  0.0060  0.1105
  310MOL0     C40790   1.727  10.513   6.052  0.2423  0.5738  0.2438
  310MOL0     O40791   1.686  10.549   5.931 -0.3968 -0.1605 -0.0696
  310MOL0     C40792   1.552  10.541   5.911 -0.6852 -0.1264  0.6100
  310MOL0     C40793   1.506  10.447   5.819 -0.8481 -0.3832  0.5245
  310MOL0     C40794   1.374  10.448   5.781 -0.3795  0.1258  0.9945
  310MOL0     C40795   1.282  10.533   5.840 -0.6497  0.4869 -0.2132
  310MOL0     O40796   1.153  10.521   5.805 -0.0257  0.2407 -0.1950
  310MOL0     C40797   1.056  10.493   5.903  0.3084 -0.1205 -0.3950
  310MOL0     C40798   0.926  10.467   5.842 -0.0355 -0.0221  0.2156
  310MOL0     C40799   0.867  10.594   5.781 -0.7994  0.5836  0.1535
  310MOL0     C40800   0.731  10.581   5.722 -0.4084 -0.0654 -0.2558
  310MOL0     C40801   0.625  10.504   5.815 -0.4670  1.1412 -0.0290
  310MOL0     C40802   0.508  10.443   5.737  0.0472  0.0408  0.3452
  310MOL0     C40803   0.421  10.367   5.841  0.4877 -0.3306 -0.1731
  310MOL0     C40804   0.314  10.273   5.796  0.7650  0.1816 -0.3003
  310MOL0     N40805   0.191  10.334   5.747 -0.1295 -0.6893 -0.8800
  310MOL0     C40806   0.182  10.396   5.632  0.1983 -0.0429 -0.5400
  310MOL0     C40807   0.048  10.443   5.638  0.7074  0.0704  0.3833
  310MOL0     C40808  -0.024  10.525   5.535 -0.6880 -0.4421 -0.2894
  310MOL0     C40809  -0.167  10.474   5.501 -0.4010 -0.7770  0.5163
  310MOL0     C40810  -0.223  10.544   5.380 -0.7769 -0.5048 -0.6693
  310MOL0     C40811  -0.353  10.470   5.348 -0.2726 -0.8474 -0.0088
  310MOL0     O40812  -0.426  10.553   5.261 -0.4462 -0.2186  0.0327
  310MOL0     C40813  -0.567  10.543   5.258  0.2425  0.6762 -0.6416
  310MOL0     C40814  -0.644  10.441   5.311 -0.1291 -0.1807 -0.6370
  310MOL0     C40815  -0.782  10.439   5.306 -0.0901 -0.0311 -0.1973
  310MOL0     C40816  -0.851  10.537   5.242  0.4941 -1.2268  0.4003
  310MOL0     C40817  -0.997  10.526   5.221 -0.1012 -0.3855  0.1984
  310MOL0     O40818  -1.050  10.418   5.288 -0.6569  1.0671 -0.1351
  310MOL0     C40819  -1.186  10.399   5.292 -0.2430 -0.4728 -0.1867
  310MOL0     C40820  -1.233  10.365   5.416 -0.2943 -0.5009  1.1003
  310MOL0     C40821  -1.361  10.316   5.428  0.8071  0.6162 -0.5418
  310MOL0     C40822  -1.447  10.301   5.318 -0.1076  0.7315  0.1152
  310MOL0     O40823  -1.577  10.255   5.336  0.6115 -0.2775 -0.8679
  310MOL0     C40824  -1.610  10.159   5.450  0.5634  0.1037  0.0216
  310MOL0     C40825  -1.742  10.085   5.421 -0.0843 -0.2625 -0.0416
  310MOL0     C40826  -1.855  10.182   5.387 -0.2161 -0.2951 -0.4614
  310MOL0     C40827  -1.995  10.097   5.379 -1.0323 -0.5394 -0.3706
  310MOL0     C40828  -2.115  10.183   5.336 -0.0234  0.4993  0.4677
  310MOL0     C40829  -2.140  10.289   5.441 -0.3590  0.5998  0.8059
  310MOL0     C40830  -2.279  10.353   5.450 -0.1088  0.0320  0.4996
  310MOL0     C40831  -2.397  10.263   5.486  0.2975 -0.0415 -0.1553
  310MOL0    Cl40832  -2.379  10.187   5.650  0.3073  0.1355 -0.0863
  310MOL0     C40833  -1.398  10.353   5.196  0.3885  0.3945  0.0081
  310MOL0     C40834  -1.267  10.390   5.179 -0.2182  1.1575  0.2621
  310MOL0     O40835  -1.067  10.610   5.157  0.5088 -1.1394 -0.5639
  310MOL0     C40836  -0.782  10.647   5.180  0.4253  0.9920  0.3119
  310MOL0     C40837  -0.640  10.645   5.190 -0.1918  0.6152  0.3621
  310MOL0     N40838  -0.010  10.396   5.750 -0.0773  0.1214  0.2857
  310MOL0     N40839   0.073  10.337   5.823 -0.6399 -0.2033 -0.5466
  310MOL0     C40840   1.322  10.625   5.935 -0.7494  1.4743  0.0264
  310MOL0     C40841   1.454  10.627   5.963 -0.8105  0.5137 -0.0612
  310MOL0     C40842   1.873  10.538   6.071  0.3299 -0.2100  0.2806
  310MOL0     C40843   1.929  10.520   6.199 -0.2130  1.0022  0.7731
  310MOL0     C40844   2.067  10.539   6.211 -0.3922  0.0282 -0.5708
  310MOL0     C40845   2.144  10.595   6.106  0.1763  0.4439  0.3166
  310MOL0     O40846   2.272  10.627   6.144  0.1241  1.0621  0.2774
  310MOL0     C40847   2.358  10.695   6.060 -0.3573 -0.5495  0.5263
  310MOL0     C40848   2.487  10.719   6.128  0.1760 -0.5088  1.2791
  310MOL0     C40849   2.589  10.747   6.023  0.1168 -0.2842  0.1989
  310MOL0     C40850   2.678  10.629   5.971  0.0262 -0.1742  0.3717
  310MOL0     C40851   2.808  10.634   6.047  0.2878  0.3193  0.3581
  310MOL0     C40852   2.914  10.649   6.092  0.2218  0.2634  0.3717
  310MOL0     C40853   2.085  10.624   5.989  1.4240  0.5130 -0.5558
  310MOL0     C40854   1.953  10.597   5.965 -0.2009 -0.2131  0.3722
  310MOL0     H40855   1.574  10.376   5.772 -0.2604 -0.2018  1.0910
  310MOL0     H40856   1.342  10.385   5.698 -0.9778  2.8723 -1.0091
  310MOL0     H40857   1.053  10.564   5.986 -0.9927 -0.6249  0.0143
  310MOL0     H40858   1.079  10.395   5.945  1.4486  1.2100  2.3180
  310MOL0     H40859   0.872  10.421   5.925 -0.8380  0.6107  0.0593
  310MOL0     H40860   0.937  10.393   5.762  4.1648 -0.1788  0.7489
  310MOL0     H40861   0.932  10.632   5.702 -1.3413  0.2892 -0.4473
  310MOL0     H40862   0.847  10.663   5.864 -1.4676 -0.3456  0.7873
  310MOL0     H40863   0.686  10.680   5.703 -1.3142 -0.1767  1.2182
  310MOL0     H40864   0.749  10.525   5.630 -1.3000  1.3218 -1.3228
  310MOL0     H40865   0.585  10.562   5.899 -2.4873 -1.4526  0.9319
  310MOL0     H40866   0.680  10.420   5.858 -0.5139  1.0152 -0.2154
  310MOL0     H40867   0.543  10.375   5.659 -0.6627 -0.6009  0.5803
  310MOL0     H40868   0.447  10.524   5.696  0.6177  1.0944  1.4759
  310MOL0     H40869   0.477  10.292   5.897 -1.2463 -1.8545 -0.3645
  310MOL0     H40870   0.379  10.428   5.922 -0.1989  1.4094 -1.7699
  310MOL0     H40871   0.279  10.216   5.882 -1.1556  0.7766 -0.6272
  310MOL0     H40872   0.357  10.211   5.716  0.0793  0.0484 -0.5696
  310MOL0     H40873   0.255  10.412   5.554  0.0167 -0.8156 -0.8719
  310MOL0     H40874   0.043  10.540   5.450 -0.4622  2.0275  0.2635
  310MOL0     H40875  -0.042  10.622   5.581 -1.2250 -0.8930  0.4695
  310MOL0     H40876  -0.234  10.487   5.586  0.0691 -1.0761  0.9333
  310MOL0     H40877  -0.168  10.369   5.469 -0.3687 -0.8044  0.6053
  310MOL0     H40878  -0.237  10.649   5.408 -2.3075 -1.5018  2.8497
  310MOL0     H40879  -0.159  10.533   5.292  0.2815 -2.6148  0.2862
  310MOL0     H40880  -0.403  10.458   5.445  2.0887  1.2195  1.5803
  310MOL0     H40881  -0.347  10.377   5.291 -1.9755 -0.3118 -1.1579
  310MOL0     H40882  -0.587  10.361   5.357  2.2727  1.5321 -0.4373
  310MOL0     H40883  -0.842  10.357   5.344 -0.7248 -0.5721 -2.2001
  310MOL0     H40884  -1.167  10.379   5.501  0.4453 -0.1698  0.4900
  310MOL0     H40885  -1.398  10.302   5.530  0.7322 -0.2762 -0.6812
  310MOL0     H40886  -1.620  10.211   5.546  1.5065  1.9120 -0.8085
  310MOL0     H40887  -1.522  10.094   5.451 -0.5052 -1.5124 -2.3406
  310MOL0     H40888  -1.759  10.024   5.510  2.6059 -0.8264  0.1639
  310MOL0     H40889  -1.722  10.015   5.340 -1.4647  1.3768 -1.9019
  310MOL0     H40890  -1.839  10.234   5.292  2.6129 -0.2338 -0.0438
  310MOL0     H40891  -1.868  10.264   5.458  0.7597 -3.0490  3.2018
  310MOL0     H40892  -1.976  10.025   5.299  3.5472 -3.5946  2.9341
  310MOL0     H40893  -2.011  10.049   5.476  1.2480 -1.3308 -0.3108
  310MOL0     H40894  -2.202  10.118   5.324  0.8311 -0.5583 -0.2183
  310MOL0     H40895  -2.086  10.225   5.239 -0.5333 -0.6975 -0.2218
  310MOL0     H40896  -2.077  10.377   5.429 -0.7699  0.6729 -1.0321
  310MOL0     H40897  -2.125  10.240   5.538  1.4650  1.4578  0.9942
  310MOL0     H40898  -2.269  10.447   5.506  1.2237  1.4706 -1.9934
  310MOL0     H40899  -2.295  10.383   5.346  3.6659  2.4820  0.4281
  310MOL0     H40900  -2.406  10.201   5.397 -1.8093  3.0061 -2.2588
  310MOL0     H40901  -2.483  10.330   5.474  0.5516  0.0516 -1.5689
  310MOL0     H40902  -1.455  10.338   5.105  0.5913  2.2790 -0.4711
  310MOL0     H40903  -1.221  10.410   5.083 -2.8055  0.4235 -1.2088
  310MOL0     H40904  -0.827  10.725   5.120  1.3949  1.5414  0.2751
  310MOL0     H40905  -0.580  10.726   5.149 -1.0039  0.7875 -0.5308
  310MOL0     H40906   1.258  10.700   5.980  0.3493  1.2966  1.9930
  310MOL0     H40907   1.477  10.699   6.041 -0.7656  1.0076 -0.5301
  310MOL0     H40908   1.860  10.482   6.273 -3.0539  2.4402 -0.9416
  310MOL0     H40909   2.114  10.533   6.308 -1.7256  4.0141  0.5495
  310MOL0     H40910   2.307  10.787   6.029  0.7881  0.9856  2.8612
  310MOL0     H40911   2.363  10.636   5.969 -3.3542 -1.0323  0.5721
  310MOL0     H40912   2.482  10.804   6.196  1.0790 -0.9597  1.9354
  310MOL0     H40913   2.509  10.635   6.195  4.8424  0.8772  1.8602
  310MOL0     H40914   2.653  10.827   6.063 -2.2739  2.2271 -0.6626
  310MOL0     H40915   2.538  10.784   5.934 -0.2613 -3.3468 -0.9760
  310MOL0     H40916   2.623  10.534   5.976  0.0172 -0.2008 -0.1564
  310MOL0     H40917   2.699  10.647   5.866  2.3359 -1.9927  0.4649
  310MOL0     H40918   3.003  10.691   6.136  0.2757  4.1621 -2.8912
  310MOL0     H40919   2.141  10.670   5.908  0.4887  2.2382 -0.2620
  310MOL0     H40920   1.902  10.620   5.872  1.3842 -0.5102 -0.6019
  311MOL0     O40921   6.694   4.748   1.978  0.0619  0.8736  0.4888
  311MOL0     C40922   6.760   4.638   1.978 -0.5365  0.4954  0.3231
  311MOL0     O40923   6.735   4.530   1.903  0.6331  1.4566 -0.1064
  311MOL0     C40924   6.623   4.530   1.820  0.4181 -0.7588 -0.4272
  311MOL0     C40925   6.493   4.594   1.847  0.1791  0.4634  0.3340
  311MOL0     C40926   6.388   4.598   1.758 -0.1322 -0.0807 -0.8087
  311MOL0     C40927   6.401   4.543   1.628 -0.6048 -0.1022  0.0346
  311MOL0     O40928   6.312   4.548   1.528  0.0587 -0.3992  0.1019
  311MOL0     C40929   6.176   4.520   1.578 -0.2281 -0.0595 -0.1880
  311MOL0     C40930   6.114   4.436   1.463 -0.5353  0.1644 -0.2054
  311MOL0     C40931   5.968   4.393   1.491 -0.0612  1.1184  0.7229
  311MOL0     C40932   5.878   4.417   1.364  0.5498 -0.6609  0.7969
  311MOL0     C40933   5.725   4.378   1.386 -0.2562 -0.2653  0.0459
  311MOL0     C40934   5.703   4.221   1.389  0.1817 -0.2794 -0.7266
  311MOL0     C40935   5.562   4.177   1.339 -0.8355  0.1487  0.3434
  311MOL0     C40936   5.555   4.034   1.285 -0.3574  0.6520  0.3003
  311MOL0     N40937   5.416   3.996   1.264  0.1728  0.7108 -0.0334
  311MOL0     C40938   5.310   4.080   1.238 -0.2962  0.3058  0.0376
  311MOL0     C40939   5.200   4.004   1.266  0.5225  0.6829  0.4848
  311MOL0     C40940   5.053   4.043   1.235 -0.8857  0.9224  0.0273
  311MOL0     C40941   4.977   4.096   1.357  0.4156  1.4164 -0.1713
  311MOL0     C40942   4.841   4.160   1.312  0.1193 -0.5121  0.3092
  311MOL0     C40943   4.710   4.082   1.338  1.0878 -0.0304  0.0172
  311MOL0     O40944   4.607   4.172   1.299  0.4016  0.0533  0.4059
  311MOL0     C40945   4.473   4.145   1.327  1.0339 -0.7771 -0.1802
  311MOL0     C40946   4.375   4.239   1.309 -0.2192 -0.8964  0.4402
  311MOL0     C40947   4.241   4.216   1.334  0.3052  0.3981 -0.5521
  311MOL0     C40948   4.191   4.096   1.374 -0.2799  0.7552 -0.2190
  311MOL0     C40949   4.047   4.071   1.401  0.3888  0.5666 -0.2210
  311MOL0     O40950   3.960   4.171   1.375 -0.2416 -0.4718 -0.3379
  311MOL0     C40951   3.829   4.135   1.347 -0.0880  0.5960 -0.0453
  311MOL0     C40952   3.721   4.157   1.436 -0.9610  0.3524 -0.6940
  311MOL0     C40953   3.589   4.144   1.395  0.3712  1.0697  0.1861
  311MOL0     C40954   3.559   4.082   1.268  0.0857 -0.7171 -0.2827
  311MOL0     O40955   3.428   4.057   1.216 -0.6496  0.9444  0.1311
  311MOL0     C40956   3.320   4.092   1.307 -0.7487 -0.0037  0.7856
  311MOL0     C40957   3.196   4.049   1.239  1.1729 -0.5494  0.8422
  311MOL0     C40958   3.076   4.121   1.300  0.1918  0.4567 -1.2253
  311MOL0     C40959   2.931   4.059   1.256 -1.0701  0.2020  0.1290
  311MOL0     C40960   2.808   4.123   1.317 -1.2930  0.6049 -0.6680
  311MOL0     C40961   2.706   4.023   1.379  0.9448 -0.1053 -0.7349
  311MOL0     C40962   2.624   3.938   1.282 -0.6362 -0.7116  0.3965
  311MOL0     C40963   2.546   4.039   1.190 -0.0874 -0.3386 -0.6930
  311MOL0    Cl40964   2.418   3.953   1.111 -0.0250  0.1418 -0.0549
  311MOL0     C40965   3.661   4.063   1.182 -0.6428  0.6609 -0.9251
  311MOL0     C40966   3.794   4.094   1.224  0.9314  0.5065 -0.3713
  311MOL0     O40967   4.017   3.964   1.452 -0.1625  0.3594 -0.5337
  311MOL0     C40968   4.289   4.000   1.413 -0.3330 -1.4492  0.2806
  311MOL0     C40969   4.424   4.021   1.383  0.1012 -0.3584  0.0493
  311MOL0     N40970   5.237   3.880   1.304 -0.7275  0.4240  0.6553
  311MOL0     N40971   5.361   3.886   1.310 -0.9256  0.0202 -0.2677
  311MOL0     C40972   6.511   4.468   1.598 -0.1036 -0.3649  0.0885
  311MOL0     C40973   6.624   4.471   1.693 -0.0202 -0.8267  0.1259
  311MOL0     C40974   6.876   4.638   2.068 -0.2864  0.0677  0.3339
  311MOL0     C40975   6.917   4.754   2.142  0.5984 -0.5202 -0.0306
  311MOL0     C40976   7.030   4.749   2.225 -0.0314 -0.0447  0.4801
  311MOL0     C40977   7.100   4.630   2.245 -0.8448 -0.1222 -0.6787
  311MOL0     O40978   7.225   4.629   2.312 -0.2029  0.0788 -0.3325
  311MOL0     C40979   7.300   4.754   2.291  0.3316 -0.2995 -0.0700
  311MOL0     C40980   7.455   4.734   2.318 -1.0634  0.2225  0.7193
  311MOL0     C40981   7.539   4.829   2.231 -1.1610 -0.4921  0.1542
  311MOL0     C40982   7.694   4.827   2.262 -1.6065 -0.6590  0.0454
  311MOL0     C40983   7.720   4.910   2.382  1.3328 -0.8198 -0.8604
  311MOL0     C40984   7.751   4.965   2.484  0.0860  0.0081 -0.2690
  311MOL0     C40985   7.058   4.519   2.179 -0.3977  0.0247 -0.2966
  311MOL0     C40986   6.944   4.521   2.093  0.1809  0.3529 -0.8886
  311MOL0     H40987   6.481   4.642   1.943  3.2386 -0.4756  1.3093
  311MOL0     H40988   6.299   4.655   1.783  1.7578  2.2483  0.9279
  311MOL0     H40989   6.117   4.611   1.591 -1.1619 -0.7942  0.8865
  311MOL0     H40990   6.167   4.462   1.670  2.9160  1.8536  1.4748
  311MOL0     H40991   6.168   4.341   1.455 -0.7101 -0.3833  3.4409
  311MOL0     H40992   6.107   4.497   1.372 -0.9403  1.8078  0.8861
  311MOL0     H40993   5.933   4.452   1.576 -1.3493 -0.8070  1.6181
  311MOL0     H40994   5.946   4.287   1.511  0.4864  1.0171  0.8234
  311MOL0     H40995   5.885   4.526   1.350  0.2210 -0.8045 -0.6043
  311MOL0     H40996   5.914   4.356   1.282  2.5930  0.8362  0.5151
  311MOL0     H40997   5.676   4.419   1.297  0.5963 -0.2710 -0.4461
  311MOL0     H40998   5.694   4.436   1.473  0.1840  0.4118 -0.2413
  311MOL0     H40999   5.717   4.180   1.490 -0.3633 -0.2427 -0.6312
  311MOL0     H41000   5.779   4.170   1.329  0.6394 -1.7554  1.0266
  311MOL0     H41001   5.481   4.189   1.412 -1.5489  1.9546 -0.6663
  311MOL0     H41002   5.521   4.229   1.252 -1.9370 -3.2048 -1.2892
  311MOL0     H41003   5.596   3.952   1.345  3.0099  0.5299 -1.8905
  311MOL0     H41004   5.613   4.035   1.192  1.6401  0.9458  1.4929
  311MOL0     H41005   5.311   4.185   1.213 -4.3118  0.7713  1.2317
  311MOL0     H41006   5.001   3.958   1.191  0.0054  0.7123 -0.6568
  311MOL0     H41007   5.051   4.116   1.154 -2.9538 -1.0356 -1.7930
  311MOL0     H41008   5.024   4.182   1.404  1.6314  0.4311  0.4799
  311MOL0     H41009   4.951   4.017   1.428 -1.3814  0.4256 -1.8145
  311MOL0     H41010   4.822   4.256   1.362 -0.7622 -1.3547  1.6541
  311MOL0     H41011   4.845   4.179   1.205 -2.4260 -3.7157 -0.5285
  311MOL0     H41012   4.709   4.054   1.444  0.7446 -1.5555 -0.3578
  311MOL0     H41013   4.702   3.985   1.287  1.6389  0.1611 -0.4458
  311MOL0     H41014   4.389   4.342   1.280 -2.3150 -0.0263  2.2354
  311MOL0     H41015   4.166   4.292   1.312  1.2813  1.5226 -0.0970
  311MOL0     H41016   3.728   4.193   1.538 -1.2233  2.2599 -1.3204
  311MOL0     H41017   3.517   4.186   1.465  1.3014  2.5340  0.3098
  311MOL0     H41018   3.323   4.201   1.320  0.1987 -0.0050  0.6359
  311MOL0     H41019   3.333   4.035   1.399 -0.9658 -0.0007  0.8189
  311MOL0     H41020   3.197   3.940   1.242  3.1041 -0.7067 -1.7266
  311MOL0     H41021   3.198   4.077   1.133  2.1318  0.4600  1.0993
  311MOL0     H41022   3.073   4.230   1.289 -1.0202  0.4824 -0.7988
  311MOL0     H41023   3.082   4.107   1.408 -1.4418  0.5926 -1.0840
  311MOL0     H41024   2.935   4.089   1.151  1.3118  1.3001  0.4497
  311MOL0     H41025   2.924   3.951   1.266  0.8307 -0.1652 -1.7069
  311MOL0     H41026   2.760   4.179   1.237  1.8178  2.9333 -1.1232
  311MOL0     H41027   2.836   4.198   1.392  1.7161 -1.0620  0.0635
  311MOL0     H41028   2.639   4.086   1.438  1.6750  1.0940 -1.1318
  311MOL0     H41029   2.762   3.966   1.454  1.4924  1.0884 -0.1959
  311MOL0     H41030   2.682   3.888   1.204 -2.9025 -0.3983 -1.6176
  311MOL0     H41031   2.550   3.871   1.327 -0.6884  0.6539  2.5302
  311MOL0     H41032   2.610   4.075   1.109  0.4949 -0.1200 -0.1512
  311MOL0     H41033   2.495   4.113   1.253 -3.6767 -1.5185 -1.9686
  311MOL0     H41034   3.634   4.024   1.084  1.9163 -2.4089 -0.5684
  311MOL0     H41035   3.861   4.078   1.140  0.0247 -1.0188 -0.8312
  311MOL0     H41036   4.264   3.902   1.453  1.4245 -2.0356  0.0562
  311MOL0     H41037   4.493   3.937   1.394 -0.8558 -1.8135 -3.5491
  311MOL0     H41038   6.515   4.408   1.507 -1.2819 -1.0028  0.4308
  311MOL0     H41039   6.714   4.417   1.667  1.5328  0.7525  1.8448
  311MOL0     H41040   6.867   4.850   2.132 -1.8873 -1.3796  2.7229
  311MOL0     H41041   7.058   4.837   2.281  0.5987 -0.3615  0.6711
  311MOL0     H41042   7.270   4.824   2.369  0.3663  1.2052 -1.3572
  311MOL0     H41043   7.282   4.799   2.192  1.3273  0.2715 -0.0066
  311MOL0     H41044   7.481   4.749   2.423  0.8162  0.5525  0.2398
  311MOL0     H41045   7.491   4.633   2.299 -0.5889  0.8008 -1.8214
  311MOL0     H41046   7.513   4.935   2.244 -2.2259 -0.6379 -0.6345
  311MOL0     H41047   7.527   4.801   2.126  0.5145  1.3984 -0.6216
  311MOL0     H41048   7.739   4.733   2.297 -1.3136  0.8848  4.4617
  311MOL0     H41049   7.752   4.863   2.177  1.2213 -0.8709  1.7665
  311MOL0     H41050   7.778   5.000   2.582  1.4990 -0.1552 -0.5778
  311MOL0     H41051   7.119   4.432   2.200  0.9403  1.7436  4.1406
  311MOL0     H41052   6.916   4.428   2.045  0.1530 -1.4274  2.2762
  312MOL0     O41053   3.255  10.889   1.133 -0.6615 -0.5703  0.1111
  312MOL0     C41054   3.319  10.920   1.235 -0.4418  0.2071 -0.1886
  312MOL0     O41055   3.295  10.872   1.363  0.1771 -0.1793 -0.2365
  312MOL0     C41056   3.195  10.778   1.373  0.0170 -0.0792 -0.8113
  312MOL0     C41057   3.059  10.823   1.373 -0.6250  0.0093  0.7839
  312MOL0     C41058   2.956  10.740   1.395 -0.6737  0.2889  0.3653
  312MOL0     C41059   2.972  10.593   1.402 -0.1529 -0.7743  0.2905
  312MOL0     O41060   2.867  10.511   1.439  0.4142  0.3481  0.9442
  312MOL0     C41061   2.733  10.561   1.461  0.0718  0.7881 -0.4916
  312MOL0     C41062   2.646  10.435   1.490  1.0536 -0.1491 -0.2541
  312MOL0     C41063   2.524  10.475   1.572  0.4060 -0.7613 -0.4655
  312MOL0     C41064   2.435  10.585   1.500 -0.5135 -0.2408  0.1677
  312MOL0     C41065   2.359  10.512   1.383  0.5508  0.3718  0.9016
  312MOL0     C41066   2.203  10.511   1.399 -0.8461 -1.4037  0.6209
  312MOL0     C41067   2.136  10.647   1.382 -0.7456  0.2873  0.2325
  312MOL0     C41068   1.988  10.627   1.337 -0.2363  0.5895 -0.1836
  312MOL0     N41069   1.908  10.738   1.348  0.6385 -0.9741  0.6549
  312MOL0     C41070   1.949  10.870   1.332 -0.2691  0.6768 -0.3401
  312MOL0     C41071   1.831  10.941   1.350 -0.6110  0.0147 -0.1549
  312MOL0     C41072   1.804  11.098   1.341 -0.3819  0.3750 -0.1831
  312MOL0     C41073   1.768  11.149   1.198  0.3865  0.3026  0.9428
  312MOL0     C41074   1.883  11.213   1.112 -0.3444  0.1646 -0.2656
  312MOL0     C41075   1.899  11.357   1.162 -0.1352 -0.3500 -0.3359
  312MOL0     O41076   1.971  11.355   1.286 -0.4646 -0.1040 -0.1372
  312MOL0     C41077   2.095  11.419   1.285 -0.3079 -0.4970 -0.9067
  312MOL0     C41078   2.206  11.373   1.210  0.5515 -0.3964 -0.4516
  312MOL0     C41079   2.337  11.429   1.227  0.0192 -0.0399  0.9866
  312MOL0     C41080   2.355  11.539   1.315 -0.4607  1.0107  0.3066
  312MOL0     C41081   2.484  11.597   1.320 -0.4977 -0.2909  0.5949
  312MOL0     O41082   2.594  11.527   1.295 -1.1815 -0.0089  0.1229
  312MOL0     C41083   2.719  11.579   1.285 -0.3394 -0.0283  0.5392
  312MOL0     C41084   2.754  11.710   1.241  0.1261  0.6003  0.1759
  312MOL0     C41085   2.888  11.757   1.242  0.2648  0.5091  0.4801
  312MOL0     C41086   2.992  11.668   1.274  0.0940  0.2388  0.2637
  312MOL0     O41087   3.121  11.694   1.269 -0.0812 -0.3290 -0.5679
  312MOL0     C41088   3.164  11.809   1.194 -0.2561 -0.1879  0.0537
  312MOL0     C41089   3.317  11.795   1.182 -0.2127  0.6107 -0.5619
  312MOL0     C41090   3.370  11.882   1.071 -0.3627 -0.3911  0.3076
  312MOL0     C41091   3.521  11.876   1.050  0.1975 -0.0128 -0.5190
  312MOL0     C41092   3.560  11.947   0.924  0.1981 -0.3411 -0.0797
  312MOL0     C41093   3.711  11.954   0.890  0.2512  0.7742 -0.3436
  312MOL0     C41094   3.736  12.008   0.747  0.5555 -0.4508 -0.4636
  312MOL0     C41095   3.867  12.082   0.725  0.0148 -0.4995 -0.7410
  312MOL0    Cl41096   3.919  12.078   0.555  0.0133 -0.1658 -0.2143
  312MOL0     C41097   2.951  11.539   1.322 -0.7196 -0.3563  0.5529
  312MOL0     C41098   2.822  11.492   1.328 -0.6166  0.4545 -0.5626
  312MOL0     O41099   2.482  11.715   1.343  0.3843  0.3967 -0.3642
  312MOL0     C41100   2.240  11.589   1.380 -0.0713  0.3106  0.6417
  312MOL0     C41101   2.115  11.529   1.374 -0.5575  0.3751  0.3895
  312MOL0     N41102   1.730  10.852   1.373  0.0438  0.2393  0.3301
  312MOL0     N41103   1.777  10.737   1.383  0.0872  0.1274  0.2801
  312MOL0     C41104   3.105  10.545   1.391  0.1851  0.3918 -0.4526
  312MOL0     C41105   3.215  10.629   1.371  0.4616 -0.4121 -0.2021
  312MOL0     C41106   3.449  10.986   1.205  0.6745 -0.2226  0.4063
  312MOL0     C41107   3.483  11.057   1.085 -0.1110 -0.4919 -0.1199
  312MOL0     C41108   3.612  11.104   1.055 -0.3156  0.2191  0.1882
  312MOL0     C41109   3.717  11.078   1.155 -0.7551 -0.4620  0.1818
  312MOL0     O41110   3.838  11.139   1.126 -0.5611  0.0531  1.1752
  312MOL0     C41111   3.957  11.114   1.199 -0.1835  0.4970 -0.0579
  312MOL0     C41112   4.080  11.176   1.132  0.3240 -0.2067 -0.1893
  312MOL0     C41113   4.083  11.138   0.977 -1.1241 -0.2785 -0.3341
  312MOL0     C41114   4.224  11.156   0.914 -0.0408  0.6299  1.3002
  312MOL0     C41115   4.297  11.284   0.936  0.1568  0.0394  0.5719
  312MOL0     C41116   4.362  11.380   0.945 -0.4162  0.4867 -0.2062
  312MOL0     C41117   3.685  11.004   1.265  0.0045 -0.5731 -0.7417
  312MOL0     C41118   3.555  10.959   1.289  0.5013 -0.4807 -0.6165
  312MOL0     H41119   3.031  10.928   1.372 -1.0077 -0.0878 -0.6023
  312MOL0     H41120   2.862  10.794   1.384 -0.8743  0.0473  0.9002
  312MOL0     H41121   2.692  10.607   1.371  0.0055 -0.2312 -1.0019
  312MOL0     H41122   2.733  10.632   1.544  0.8690 -2.0452  2.1445
  312MOL0     H41123   2.702  10.369   1.557  0.5404 -0.8943 -0.5476
  312MOL0     H41124   2.622  10.368   1.407 -0.6417 -0.7878  0.7034
  312MOL0     H41125   2.558  10.512   1.669  0.6341 -0.3192 -0.7118
  312MOL0     H41126   2.471  10.384   1.603  1.7148 -1.1233  0.8735
  312MOL0     H41127   2.371  10.622   1.581 -2.5284 -4.2911  0.6830
  312MOL0     H41128   2.496  10.669   1.466  0.2496 -1.0398 -0.4652
  312MOL0     H41129   2.394  10.409   1.370 -0.0461  0.4029 -1.3621
  312MOL0     H41130   2.378  10.564   1.288 -0.1226 -1.8187 -0.5138
  312MOL0     H41131   2.173  10.464   1.493  0.9807  0.4992  2.2512
  312MOL0     H41132   2.177  10.449   1.312  0.0149  0.0865 -0.7605
  312MOL0     H41133   2.129  10.699   1.479 -0.3506  0.6438  0.0731
  312MOL0     H41134   2.196  10.697   1.306 -0.1217 -3.2491 -1.8010
  312MOL0     H41135   1.944  10.542   1.390 -0.6455  0.0038 -1.4129
  312MOL0     H41136   1.991  10.607   1.229  0.7527 -0.6346  0.0505
  312MOL0     H41137   2.044  10.908   1.294 -0.6981  1.1821 -0.9254
  312MOL0     H41138   1.890  11.152   1.381  0.2820 -0.1609 -0.8741
  312MOL0     H41139   1.723  11.128   1.409  0.3666 -0.5636  1.1787
  312MOL0     H41140   1.694  11.228   1.210 -1.5303 -1.7582  3.7815
  312MOL0     H41141   1.723  11.067   1.140 -3.2968  2.1889  0.8659
  312MOL0     H41142   1.977  11.160   1.124 -0.7585 -0.6877 -0.6900
  312MOL0     H41143   1.860  11.214   1.005  1.2499  0.0441 -0.6244
  312MOL0     H41144   1.803  11.406   1.175  0.8839  1.3909  1.1845
  312MOL0     H41145   1.951  11.410   1.081 -3.1212 -0.9193 -2.7979
  312MOL0     H41146   2.193  11.291   1.140 -0.9630 -1.2700  0.7807
  312MOL0     H41147   2.417  11.384   1.168 -0.1110 -0.4614  1.1287
  312MOL0     H41148   2.678  11.783   1.213 -1.2608 -0.0599  2.0575
  312MOL0     H41149   2.913  11.859   1.214  1.5025 -0.1719 -1.0292
  312MOL0     H41150   3.140  11.908   1.234  0.7273  0.7595 -1.5761
  312MOL0     H41151   3.121  11.798   1.094  0.3308 -0.1494 -0.2059
  312MOL0     H41152   3.350  11.692   1.165  1.5357  1.3291 -1.8191
  312MOL0     H41153   3.357  11.824   1.279 -1.9871 -2.4491  1.2514
  312MOL0     H41154   3.337  11.986   1.083  2.4372  0.7697 -1.1380
  312MOL0     H41155   3.327  11.854   0.974 -0.1249  2.2692 -0.6521
  312MOL0     H41156   3.578  11.921   1.132  2.3919  0.5724 -2.2917
  312MOL0     H41157   3.561  11.775   1.036  0.3094  0.0689 -0.7923
  312MOL0     H41158   3.520  12.049   0.925 -0.2407 -0.4999 -0.7376
  312MOL0     H41159   3.517  11.896   0.837 -2.7357  0.0345  1.0452
  312MOL0     H41160   3.752  11.853   0.897 -0.5088  0.4469 -0.5214
  312MOL0     H41161   3.754  12.020   0.966 -0.0805  0.1579  0.3855
  312MOL0     H41162   3.745  11.927   0.674 -0.8740  0.4343 -1.6703
  312MOL0     H41163   3.652  12.073   0.721 -0.7024 -0.9742  1.9226
  312MOL0     H41164   3.935  12.046   0.803  0.3635  2.2618  0.3414
  312MOL0     H41165   3.850  12.188   0.748 -0.4494 -0.7558  0.1386
  312MOL0     H41166   3.033  11.476   1.356 -1.7734 -1.6768  0.7220
  312MOL0     H41167   2.799  11.395   1.371 -1.8299  1.3224  0.8259
  312MOL0     H41168   2.256  11.675   1.444 -0.8198 -0.0025  1.2659
  312MOL0     H41169   2.025  11.570   1.417  1.1180  2.7197  1.8510
  312MOL0     H41170   3.129  10.441   1.408 -1.3290  0.2543  1.1045
  312MOL0     H41171   3.310  10.579   1.357 -0.2565 -1.8880  0.0564
  312MOL0     H41172   3.408  11.085   1.011  0.5100 -0.8018 -0.8774
  312MOL0     H41173   3.625  11.174   0.973  0.7468 -0.0670  0.0893
  312MOL0     H41174   3.975  11.006   1.201 -3.1750 -0.1023  1.4318
  312MOL0     H41175   3.949  11.149   1.302  0.9906 -1.8650  0.8922
  312MOL0     H41176   4.060  11.283   1.136 -0.9668 -0.4376  0.2152
  312MOL0     H41177   4.172  11.146   1.182  1.7989  3.1337 -0.6489
  312MOL0     H41178   4.016  11.202   0.919 -1.2987  0.5813  0.7897
  312MOL0     H41179   4.059  11.032   0.964  0.0618 -0.6910  0.6656
  312MOL0     H41180   4.292  11.071   0.920 -0.2568  0.3682  0.2599
  312MOL0     H41181   4.212  11.151   0.806  1.3980  0.5710  1.1116
  312MOL0     H41182   4.431  11.462   0.947 -1.3557  1.2792  0.3154
  312MOL0     H41183   3.761  10.976   1.338 -0.6634 -0.6661 -0.0663
  312MOL0     H41184   3.537  10.902   1.380  0.9412 -0.9651 -0.8317
  313MOL0     O41185   5.598   6.776   9.101 -0.6065  0.4305 -0.8781
  313MOL0     C41186   5.646   6.704   9.011 -0.1422 -0.0747 -0.1054
  313MOL0     O41187   5.572   6.640   8.917  0.1240 -0.1861  0.4055
  313MOL0     C41188   5.433   6.635   8.935 -0.1026 -0.2510 -0.3058
  313MOL0     C41189   5.341   6.699   8.853 -0.5511 -0.3594 -0.0701
  313MOL0     C41190   5.203   6.682   8.871 -0.2365  0.7480 -0.6474
  313MOL0     C41191   5.151   6.610   8.981 -0.0700 -0.4902  0.3675
  313MOL0     O41192   5.014   6.584   8.975  0.1614  0.0192  0.0868
  313MOL0     C41193   4.959   6.458   8.983 -1.0999  0.3702 -0.2343
  313MOL0     C41194   4.852   6.437   8.887 -0.2486 -0.6117 -0.4131
  313MOL0     C41195   4.727   6.517   8.926 -0.2946  0.6572 -0.2845
  313MOL0     C41196   4.629   6.503   8.810 -0.6308 -0.4846 -0.2135
  313MOL0     C41197   4.513   6.612   8.817 -0.3402  0.3439 -0.4312
  313MOL0     C41198   4.442   6.617   8.956  1.0274  0.5868 -0.2347
  313MOL0     C41199   4.289   6.638   8.954  0.5259 -0.1891 -0.0197
  313MOL0     C41200   4.218   6.513   8.910  0.7555  0.1941  0.5523
  313MOL0     N41201   4.069   6.525   8.890 -0.1168  0.7816 -0.0047
  313MOL0     C41202   3.984   6.423   8.854 -0.5159  0.1275 -0.1226
  313MOL0     C41203   3.863   6.465   8.889  0.8219  1.3322 -0.1231
  313MOL0     C41204   3.742   6.386   8.871  0.0219  0.1817  0.0488
  313MOL0     C41205   3.667   6.450   8.750 -0.3836 -0.0317  0.9245
  313MOL0     C41206   3.553   6.357   8.701  0.8842 -0.1251 -0.3965
  313MOL0     C41207   3.466   6.426   8.593 -0.7780 -0.3773 -0.1863
  313MOL0     O41208   3.387   6.339   8.522  0.5762 -0.0342 -0.8076
  313MOL0     C41209   3.258   6.309   8.566  0.8206 -0.1004 -0.4765
  313MOL0     C41210   3.237   6.196   8.646  0.4542  0.0250 -0.2790
  313MOL0     C41211   3.099   6.170   8.684 -0.5067 -0.4295  0.0781
  313MOL0     C41212   2.991   6.265   8.652 -0.0228  0.5903 -0.0655
  313MOL0     C41213   2.853   6.248   8.697 -0.0222 -0.2065  0.0664
  313MOL0     O41214   2.757   6.334   8.650  0.2922  0.2430  0.2304
  313MOL0     C41215   2.625   6.307   8.682 -0.0008  0.4060  0.7182
  313MOL0     C41216   2.556   6.356   8.793  0.2440  1.2108 -0.2233
  313MOL0     C41217   2.416   6.344   8.793  1.0952 -0.3172  0.7728
  313MOL0     C41218   2.343   6.290   8.692  0.2606  0.9338 -0.7975
  313MOL0     O41219   2.203   6.299   8.692 -0.2310  0.0802  0.0265
  313MOL0     C41220   2.123   6.308   8.806 -0.1283  0.6662 -1.6159
  313MOL0     C41221   1.986   6.251   8.767 -0.6991  0.2084  0.0075
  313MOL0     C41222   1.909   6.326   8.664  0.0490  0.8870  0.3300
  313MOL0     C41223   1.771   6.254   8.633  0.3029  0.0363  0.2336
  313MOL0     C41224   1.687   6.334   8.531  0.1822 -0.5504 -0.2582
  313MOL0     C41225   1.573   6.254   8.463  0.3747 -0.9109  0.8078
  313MOL0     C41226   1.473   6.340   8.388 -0.1065 -0.4639 -0.0625
  313MOL0     C41227   1.386   6.237   8.314 -0.5831  0.0868  0.1421
  313MOL0    Cl41228   1.260   6.309   8.213  0.2281  0.2750 -0.1149
  313MOL0     C41229   2.409   6.236   8.591  0.9325 -0.5891 -0.2960
  313MOL0     C41230   2.547   6.252   8.580  0.0595 -0.1195 -0.2865
  313MOL0     O41231   2.841   6.161   8.779 -0.3959  0.0501  0.0066
  313MOL0     C41232   3.016   6.365   8.559  0.4780 -0.5460 -0.5278
  313MOL0     C41233   3.147   6.385   8.511  0.1420 -0.1504 -0.1563
  313MOL0     N41234   3.875   6.587   8.943 -0.1060 -0.8129 -0.2660
  313MOL0     N41235   3.999   6.627   8.936 -0.0080 -1.0747 -0.2432
  313MOL0     C41236   5.239   6.558   9.072  0.6369 -0.0991 -0.3256
  313MOL0     C41237   5.378   6.560   9.044 -0.1427  0.2285 -0.3633
  313MOL0     C41238   5.789   6.678   9.004  0.7371  0.1134  0.0445
  313MOL0     C41239   5.840   6.587   8.913  0.1621 -0.0903  0.3845
  313MOL0     C41240   5.983   6.570   8.904  0.1937  0.0813 -0.1963
  313MOL0     C41241   6.063   6.641   8.993  0.4436 -0.8198  0.5010
  313MOL0     O41242   6.204   6.640   9.002  0.2664  0.1840  0.4560
  313MOL0     C41243   6.265   6.551   8.910 -0.2636 -0.7703  0.1934
  313MOL0     C41244   6.422   6.558   8.920  0.1748 -0.2982 -0.4880
  313MOL0     C41245   6.486   6.472   8.810 -1.6525 -0.3560 -0.1062
  313MOL0     C41246   6.445   6.331   8.810  0.3107 -0.3853 -0.3386
  313MOL0     C41247   6.531   6.249   8.722  0.5335 -1.0016  0.7188
  313MOL0     C41248   6.597   6.195   8.630  0.5700 -0.6078 -0.7617
  313MOL0     C41249   6.022   6.733   9.078  0.0132  0.2186  0.2149
  313MOL0     C41250   5.884   6.752   9.077  0.1316 -0.4341 -0.2196
  313MOL0     H41251   5.374   6.749   8.763 -1.3783  1.3631  0.5351
  313MOL0     H41252   5.132   6.731   8.804  1.2090 -0.0987 -2.9173
  313MOL0     H41253   4.925   6.442   9.085 -0.9748  1.8181  0.0477
  313MOL0     H41254   5.036   6.380   8.974 -1.7487 -0.8978  3.4353
  313MOL0     H41255   4.840   6.330   8.871 -1.5342 -0.4666 -0.5184
  313MOL0     H41256   4.891   6.478   8.794 -0.0639 -0.0202 -0.0809
  313MOL0     H41257   4.754   6.619   8.956 -2.5206  1.6337 -1.3850
  313MOL0     H41258   4.682   6.472   9.015 -1.9615 -1.0355 -1.8937
  313MOL0     H41259   4.678   6.527   8.715  2.0269  1.8206  1.5996
  313MOL0     H41260   4.597   6.398   8.810  1.1289 -1.0677  1.0434
  313MOL0     H41261   4.439   6.575   8.745 -2.3849  2.1743  0.5984
  313MOL0     H41262   4.558   6.704   8.780 -0.3757 -0.4828 -2.7103
  313MOL0     H41263   4.480   6.692   9.026 -0.4715 -0.9719  2.4273
  313MOL0     H41264   4.462   6.516   8.992  0.6781 -0.1970 -2.1320
  313MOL0     H41265   4.252   6.647   9.057 -0.2788  0.5988 -0.3640
  313MOL0     H41266   4.272   6.725   8.890  1.2676 -0.3299 -0.4320
  313MOL0     H41267   4.245   6.422   8.963  0.3592  0.1931  0.7638
  313MOL0     H41268   4.258   6.484   8.813  0.2402  1.3601 -0.0258
  313MOL0     H41269   4.016   6.322   8.829  2.5701  1.4510 -2.0970
  313MOL0     H41270   3.676   6.396   8.957  0.5794 -1.8971  0.7835
  313MOL0     H41271   3.757   6.279   8.856 -0.0759  0.1016  0.5179
  313MOL0     H41272   3.734   6.462   8.664 -0.6472  0.2230  0.7526
  313MOL0     H41273   3.629   6.548   8.778  1.5254  0.8684  0.4941
  313MOL0     H41274   3.591   6.268   8.650 -2.3163 -1.1530 -1.1885
  313MOL0     H41275   3.485   6.332   8.783  0.1792  1.4678 -0.4625
  313MOL0     H41276   3.525   6.471   8.512 -1.4209  0.1562 -0.3648
  313MOL0     H41277   3.401   6.509   8.621 -1.3985 -0.3047 -1.7509
  313MOL0     H41278   3.312   6.121   8.667 -0.5582 -0.7762  0.6023
  313MOL0     H41279   3.088   6.078   8.740  0.0811 -1.6004 -1.6573
  313MOL0     H41280   2.613   6.402   8.874  0.6695 -2.2649  1.6555
  313MOL0     H41281   2.357   6.386   8.873 -1.0030  0.6860 -1.1899
  313MOL0     H41282   2.114   6.411   8.841 -1.7316 -0.1739  0.6476
  313MOL0     H41283   2.158   6.253   8.894 -1.1082  3.5651  0.7824
  313MOL0     H41284   1.929   6.249   8.860 -1.4949 -1.0969 -0.4798
  313MOL0     H41285   1.986   6.148   8.732 -3.4860 -0.4188  1.5784
  313MOL0     H41286   1.968   6.307   8.574  0.8957 -0.7018  1.1719
  313MOL0     H41287   1.892   6.431   8.688  3.1867  1.3439  0.9732
  313MOL0     H41288   1.779   6.152   8.594  1.0627 -0.0614  0.6397
  313MOL0     H41289   1.716   6.252   8.727  1.5803  2.8272  1.1362
  313MOL0     H41290   1.754   6.376   8.456 -0.9652  2.9217  0.4751
  313MOL0     H41291   1.644   6.421   8.581 -0.2735 -0.7039 -0.3706
  313MOL0     H41292   1.515   6.197   8.536 -0.3629 -2.3395 -0.8312
  313MOL0     H41293   1.614   6.187   8.388 -2.6126  0.6971 -2.5679
  313MOL0     H41294   1.419   6.409   8.453 -1.7864 -0.7008 -1.1346
  313MOL0     H41295   1.527   6.392   8.309 -1.9832 -2.4306 -2.8305
  313MOL0     H41296   1.350   6.160   8.383 -0.2689 -1.8404 -1.7560
  313MOL0     H41297   1.445   6.193   8.234  0.9876  3.1633 -0.5562
  313MOL0     H41298   2.354   6.191   8.509 -2.7623 -0.2566  1.8250
  313MOL0     H41299   2.593   6.223   8.486 -0.5411 -0.5822 -0.4470
  313MOL0     H41300   2.951   6.434   8.505  2.1750  0.9451 -0.7469
  313MOL0     H41301   3.157   6.451   8.426 -1.8469  0.7997  0.2962
  313MOL0     H41302   5.210   6.496   9.156  2.8215 -3.6860 -1.9645
  313MOL0     H41303   5.448   6.508   9.107  0.5932  0.7013 -0.7742
  313MOL0     H41304   5.773   6.531   8.849  0.6379  0.0199 -0.2138
  313MOL0     H41305   6.031   6.502   8.834  0.2714  0.9003 -0.9495
  313MOL0     H41306   6.250   6.578   8.805  2.7458  2.2184  0.3653
  313MOL0     H41307   6.237   6.448   8.935 -0.2788 -0.6034  0.8824
  313MOL0     H41308   6.454   6.663   8.918  0.7009 -0.4481 -0.0331
  313MOL0     H41309   6.450   6.521   9.019  0.1519 -2.8668 -1.3746
  313MOL0     H41310   6.593   6.484   8.831 -0.6048 -2.0370 -3.6919
  313MOL0     H41311   6.465   6.521   8.714  2.1680 -1.8848 -1.9511
  313MOL0     H41312   6.454   6.293   8.912  0.0462  1.7501  0.5342
  313MOL0     H41313   6.339   6.330   8.782 -0.1918 -0.9562  1.4665
  313MOL0     H41314   6.648   6.150   8.548 -1.3617 -0.8984 -1.8653
  313MOL0     H41315   6.089   6.782   9.148  0.9656 -1.9098  0.8520
  313MOL0     H41316   5.836   6.830   9.135 -1.1593  0.3350 -2.2426
  314MOL0     O41317   6.355   2.648   7.538  0.7680  0.5609 -0.1843
  314MOL0     C41318   6.390   2.728   7.621  0.3452 -0.0267  0.1043
  314MOL0     O41319   6.316   2.770   7.729 -0.0292 -0.0399  0.7963
  314MOL0     C41320   6.185   2.730   7.755 -0.0590 -0.1718 -0.0438
  314MOL0     C41321   6.098   2.658   7.675  0.2909  0.3628 -0.1524
  314MOL0     C41322   5.968   2.630   7.725 -0.4607 -0.2006  0.1418
  314MOL0     C41323   5.924   2.673   7.848 -0.1060 -0.2540 -0.0037
  314MOL0     O41324   5.795   2.633   7.889 -0.3211  0.4125  0.1904
  314MOL0     C41325   5.769   2.621   8.029 -0.3314 -0.1263 -0.1388
  314MOL0     C41326   5.694   2.497   8.063 -0.2127 -0.0940  0.4779
  314MOL0     C41327   5.681   2.490   8.213 -0.0744 -0.4042 -0.7921
  314MOL0     C41328   5.581   2.392   8.262  0.1094  0.3173  0.5418
  314MOL0     C41329   5.556   2.398   8.411  0.0047 -0.7265  0.0945
  314MOL0     C41330   5.424   2.319   8.454 -0.3190 -1.1053 -0.2304
  314MOL0     C41331   5.443   2.170   8.456 -0.0751  0.0032 -0.0640
  314MOL0     C41332   5.328   2.108   8.543 -0.9760  0.0825 -0.3201
  314MOL0     N41333   5.200   2.145   8.477  0.3062 -1.2983 -0.0774
  314MOL0     C41334   5.163   2.089   8.358 -0.1903  0.5274  0.1433
  314MOL0     C41335   5.024   2.094   8.354  0.1059 -0.8901  0.1048
  314MOL0     C41336   4.925   2.016   8.273  1.0923 -0.4059 -0.2312
  314MOL0     C41337   4.920   2.091   8.142  0.0022  0.2896 -0.4421
  314MOL0     C41338   4.804   2.050   8.055  0.3332 -0.5189  0.1246
  314MOL0     C41339   4.759   2.155   7.949  1.6025  0.9542  0.1225
  314MOL0     O41340   4.676   2.095   7.848  0.3125 -0.7279  0.1176
  314MOL0     C41341   4.551   2.054   7.889  0.9778  0.4155  0.2237
  314MOL0     C41342   4.455   2.154   7.929  0.2246 -0.1085 -0.3288
  314MOL0     C41343   4.320   2.120   7.944 -0.2850 -0.6249 -0.2670
  314MOL0     C41344   4.279   1.986   7.918 -0.1674  0.1264 -0.1436
  314MOL0     C41345   4.142   1.936   7.948  0.0515  0.6428 -0.6811
  314MOL0     O41346   4.107   1.825   7.889  0.1065  0.1249 -0.1301
  314MOL0     C41347   3.976   1.804   7.900 -0.2913  0.0342 -1.0207
  314MOL0     C41348   3.893   1.808   7.786  0.2495 -0.4752 -0.3875
  314MOL0     C41349   3.757   1.770   7.798  0.3034  0.5768  0.2792
  314MOL0     C41350   3.704   1.713   7.915  0.1018 -0.8941 -0.4177
  314MOL0     O41351   3.578   1.673   7.916 -0.2007 -0.3502  0.8436
  314MOL0     C41352   3.499   1.717   8.028 -0.8172 -0.6561 -0.0714
  314MOL0     C41353   3.359   1.749   7.974  0.6213  0.9846  0.5014
  314MOL0     C41354   3.252   1.788   8.070  0.2551 -0.6159 -0.5772
  314MOL0     C41355   3.112   1.738   8.029 -0.4065  0.6478  0.2129
  314MOL0     C41356   3.019   1.750   8.150  0.3003 -0.0521  0.9319
  314MOL0     C41357   2.875   1.716   8.108  0.4571  0.9893 -0.3261
  314MOL0     C41358   2.779   1.719   8.227 -0.1114  0.4018 -0.7601
  314MOL0     C41359   2.633   1.706   8.216  0.7864 -0.0678 -0.5072
  314MOL0    Cl41360   2.576   1.864   8.152 -0.6816  0.0939  0.5119
  314MOL0     C41361   3.789   1.717   8.029  0.5477  0.2804  1.0271
  314MOL0     C41362   3.921   1.758   8.015 -0.4437  0.2595 -0.3802
  314MOL0     O41363   4.071   2.014   8.013  0.2872 -0.8022  1.1869
  314MOL0     C41364   4.380   1.889   7.875 -0.1837 -1.5320  0.2111
  314MOL0     C41365   4.514   1.925   7.857 -0.3846 -0.2588 -0.6105
  314MOL0     N41366   4.984   2.161   8.472  0.4227 -0.0192 -0.2910
  314MOL0     N41367   5.087   2.187   8.544 -0.0664  0.4106 -0.9544
  314MOL0     C41368   6.006   2.769   7.915  0.6115  0.4806  0.7776
  314MOL0     C41369   6.138   2.785   7.873 -0.4910 -0.7969  0.2266
  314MOL0     C41370   6.530   2.779   7.603 -0.1326 -0.4611 -0.1177
  314MOL0     C41371   6.611   2.738   7.489 -0.3146 -0.3866  0.0718
  314MOL0     C41372   6.740   2.791   7.469 -0.8096  0.3295  0.2069
  314MOL0     C41373   6.799   2.865   7.574 -0.0731 -1.1190 -0.2810
  314MOL0     O41374   6.920   2.926   7.551  1.2441  0.0962 -0.1266
  314MOL0     C41375   7.006   2.990   7.655 -0.9302  0.6778  0.1801
  314MOL0     C41376   7.149   2.977   7.603  0.2897  0.4837  0.8555
  314MOL0     C41377   7.259   3.003   7.727  0.1555 -0.0827 -0.2694
  314MOL0     C41378   7.394   2.969   7.686 -0.4082  0.6410 -0.5993
  314MOL0     C41379   7.458   3.083   7.613  0.7857  0.0750  0.2370
  314MOL0     C41380   7.498   3.174   7.539 -0.0232  0.7329 -1.0561
  314MOL0     C41381   6.722   2.896   7.684  0.3253  0.0068 -0.3811
  314MOL0     C41382   6.595   2.852   7.705  0.2198  0.1471  0.0622
  314MOL0     H41383   6.118   2.603   7.583 -0.8970  1.4527 -1.1134
  314MOL0     H41384   5.893   2.576   7.668  1.0296 -4.7168  1.9344
  314MOL0     H41385   5.727   2.713   8.069  0.6483 -0.1102  0.9033
  314MOL0     H41386   5.869   2.610   8.073  0.3291  0.9487 -1.3127
  314MOL0     H41387   5.749   2.407   8.034  1.0689  0.2817  1.6102
  314MOL0     H41388   5.600   2.510   8.008 -1.1121  2.8235  2.4624
  314MOL0     H41389   5.646   2.584   8.256  1.6842 -0.5115  1.0000
  314MOL0     H41390   5.780   2.473   8.257 -1.3948 -1.3634  2.0125
  314MOL0     H41391   5.484   2.409   8.215 -0.3861 -2.5176  0.3625
  314MOL0     H41392   5.608   2.289   8.239  1.7078 -0.1153  3.7738
  314MOL0     H41393   5.544   2.505   8.426  2.5285  0.6642 -5.4037
  314MOL0     H41394   5.642   2.358   8.466 -2.0238 -3.5031  1.5137
  314MOL0     H41395   5.339   2.351   8.394  0.0733  1.1355  0.3195
  314MOL0     H41396   5.396   2.350   8.555  2.1308  0.9048 -0.0656
  314MOL0     H41397   5.438   2.121   8.358  1.9874 -2.7931  1.1076
  314MOL0     H41398   5.535   2.149   8.511 -0.6552  3.0458  2.3673
  314MOL0     H41399   5.334   2.136   8.649  0.5561 -2.7370  0.4329
  314MOL0     H41400   5.349   2.001   8.537  3.0756  0.8293 -3.4010
  314MOL0     H41401   5.230   2.026   8.299  2.9853  1.2520  2.6901
  314MOL0     H41402   4.829   2.020   8.324  2.1214  0.2595  1.7711
  314MOL0     H41403   4.954   1.910   8.270 -1.9818 -1.3228 -0.2299
  314MOL0     H41404   5.018   2.073   8.097  0.9153  1.5277  0.9835
  314MOL0     H41405   4.900   2.197   8.157 -1.1182  0.2379 -1.4387
  314MOL0     H41406   4.837   1.957   8.008  1.3297 -0.2144  0.1967
  314MOL0     H41407   4.716   2.040   8.118 -0.1493  0.2242 -0.4056
  314MOL0     H41408   4.850   2.188   7.898  0.7751  0.7932 -1.5115
  314MOL0     H41409   4.712   2.241   7.997  0.9016  2.4583 -2.9744
  314MOL0     H41410   4.474   2.257   7.956 -1.5722  0.5959 -1.5280
  314MOL0     H41411   4.249   2.198   7.967  0.6436  0.0373  0.4354
  314MOL0     H41412   3.949   1.835   7.697  3.2881  3.2348  2.2919
  314MOL0     H41413   3.691   1.766   7.712 -1.7508 -1.5800  1.8140
  314MOL0     H41414   3.537   1.812   8.068 -0.3988 -1.4870  1.6135
  314MOL0     H41415   3.501   1.640   8.105 -1.3814  0.7202  1.3855
  314MOL0     H41416   3.339   1.655   7.921  3.1860  0.8715 -0.4398
  314MOL0     H41417   3.361   1.821   7.892  1.3163  2.5914  1.8711
  314MOL0     H41418   3.241   1.897   8.072 -2.6461 -0.8332 -0.7082
  314MOL0     H41419   3.274   1.749   8.170 -0.0621  4.7853  1.9852
  314MOL0     H41420   3.081   1.805   7.948 -1.8577  1.1978  1.1867
  314MOL0     H41421   3.106   1.634   7.995  1.7042 -0.6019  3.2450
  314MOL0     H41422   3.019   1.855   8.180  2.9934  0.3964 -0.3918
  314MOL0     H41423   3.053   1.672   8.217  0.1891 -0.1559  0.8691
  314MOL0     H41424   2.867   1.617   8.064  1.9718  1.2900 -1.3595
  314MOL0     H41425   2.847   1.792   8.035 -3.9209 -0.4752 -0.4326
  314MOL0     H41426   2.808   1.627   8.278  2.3000  0.6981 -1.4742
  314MOL0     H41427   2.794   1.795   8.304 -1.0893  0.2397 -0.3969
  314MOL0     H41428   2.573   1.673   8.302  0.5514 -3.4725 -1.8353
  314MOL0     H41429   2.615   1.631   8.139  4.5050  0.0203 -1.6854
  314MOL0     H41430   3.755   1.674   8.122  0.3909  0.4098  1.0296
  314MOL0     H41431   3.981   1.758   8.106 -1.7838 -0.3057  0.5422
  314MOL0     H41432   4.348   1.787   7.852  0.9687 -1.4727 -1.9407
  314MOL0     H41433   4.590   1.861   7.814  0.8715  0.5874  0.3058
  314MOL0     H41434   5.966   2.813   8.005  1.0099  0.2449  1.0740
  314MOL0     H41435   6.206   2.832   7.944 -0.3911 -2.3590  1.2216
  314MOL0     H41436   6.579   2.656   7.426 -0.3639 -0.6101  0.3892
  314MOL0     H41437   6.802   2.748   7.391 -0.6979 -1.7576  1.3848
  314MOL0     H41438   6.992   2.933   7.747  2.5638  0.5588  0.7730
  314MOL0     H41439   6.991   3.097   7.672  2.9028  0.9425  3.2547
  314MOL0     H41440   7.165   2.884   7.548  0.9637  1.7696 -1.2635
  314MOL0     H41441   7.163   3.049   7.522  0.4653 -1.3473 -0.8177
  314MOL0     H41442   7.239   2.934   7.810  2.6245 -0.3231  0.1998
  314MOL0     H41443   7.265   3.106   7.763  1.0348 -0.3866  0.4888
  314MOL0     H41444   7.456   2.944   7.773 -1.8920  1.6641  0.8340
  314MOL0     H41445   7.379   2.877   7.629 -2.6081  0.3721  0.2886
  314MOL0     H41446   7.538   3.259   7.487  2.0456  0.8915  0.6681
  314MOL0     H41447   6.759   2.956   7.766 -0.3566 -0.0522 -0.0294
  314MOL0     H41448   6.539   2.881   7.794 -1.4940  1.6500 -1.4222
  315MOL0     O41449  11.102   1.743   0.344  0.1019  0.0605 -0.1145
  315MOL0     C41450  11.069   1.857   0.320 -0.1613 -0.4050 -0.0803
  315MOL0     O41451  11.145   1.967   0.346 -0.3768 -0.3240 -0.3726
  315MOL0     C41452  11.278   1.945   0.395  0.2267  0.0704  0.8138
  315MOL0     C41453  11.366   1.848   0.343 -0.9173  1.1470 -0.5032
  315MOL0     C41454  11.498   1.830   0.388  0.3533  0.0047 -0.6963
  315MOL0     C41455  11.550   1.923   0.492  0.3114  0.3893 -0.6914
  315MOL0     O41456  11.665   1.916   0.556  0.6669 -0.4917  0.5438
  315MOL0     C41457  11.732   1.787   0.549 -0.6273 -0.2869  0.6184
  315MOL0     C41458  11.852   1.772   0.638 -0.1628  0.4561  0.2471
  315MOL0     C41459  11.975   1.852   0.589 -0.5488 -1.4055  0.1659
  315MOL0     C41460  12.100   1.861   0.688  0.4110  0.2658  0.0594
  315MOL0     C41461  12.207   1.949   0.625 -0.5798  0.5705  0.5872
  315MOL0     C41462  12.330   1.980   0.707  0.3582  0.1810  0.4216
  315MOL0     C41463  12.414   1.865   0.751  0.9985  0.4590  0.8337
  315MOL0     C41464  12.431   1.853   0.896 -0.6725  0.3406  0.0764
  315MOL0     N41465  12.491   1.723   0.937 -0.0863 -0.0894  0.4360
  315MOL0     C41466  12.443   1.596   0.914  0.1722 -0.5975 -0.2715
  315MOL0     C41467  12.547   1.510   0.944  0.3638  0.3700 -0.1901
  315MOL0     C41468  12.524   1.364   0.954  0.0033  0.4177  0.2162
  315MOL0     C41469  12.472   1.314   1.081 -0.7293  0.4622  0.1636
  315MOL0     C41470  12.338   1.364   1.124 -0.7888 -0.0167 -0.3918
  315MOL0     C41471  12.298   1.292   1.259 -0.2312  0.1109 -0.2947
  315MOL0     O41472  12.175   1.351   1.292  0.4047 -0.6817  0.0659
  315MOL0     C41473  12.053   1.308   1.243 -0.1064 -0.6395 -1.8262
  315MOL0     C41474  11.933   1.363   1.299 -0.0592 -0.1644 -0.7525
  315MOL0     C41475  11.810   1.328   1.250 -0.4976 -0.1278  0.2529
  315MOL0     C41476  11.804   1.218   1.157  0.5509  0.1789 -0.3308
  315MOL0     C41477  11.673   1.171   1.102  0.1080  1.1197 -0.1212
  315MOL0     O41478  11.664   1.065   1.004 -0.4088 -0.3254 -0.2281
  315MOL0     C41479  11.528   1.051   0.965 -0.0293 -0.3027 -0.6151
  315MOL0     C41480  11.440   0.962   1.027 -0.6504 -1.0990 -0.2072
  315MOL0     C41481  11.313   0.944   0.987 -0.5271  0.2977  0.2067
  315MOL0     C41482  11.259   1.027   0.886 -0.3157  0.3316  0.9188
  315MOL0     O41483  11.132   0.992   0.843 -0.0108 -0.1094 -0.6393
  315MOL0     C41484  11.074   1.067   0.727 -0.1493  0.0479 -0.5424
  315MOL0     C41485  11.003   1.205   0.775  0.0411  0.7616  0.1029
  315MOL0     C41486  10.870   1.193   0.850 -0.1345  0.7348 -0.8123
  315MOL0     C41487  10.828   1.333   0.884  0.6137 -0.4636  0.1081
  315MOL0     C41488  10.699   1.344   0.955 -0.5464 -0.5368 -0.0932
  315MOL0     C41489  10.670   1.495   0.957  0.2967 -0.1689 -0.3778
  315MOL0     C41490  10.550   1.536   1.045  0.2173  0.2868  0.4547
  315MOL0     C41491  10.419   1.480   0.979 -0.2562 -0.3836  1.0767
  315MOL0    Cl41492  10.369   1.330   1.068  0.1081  0.0604  0.6969
  315MOL0     C41493  11.344   1.118   0.814  0.5732 -0.4788 -0.3915
  315MOL0     C41494  11.476   1.132   0.861  0.3283  0.1058  1.6068
  315MOL0     O41495  11.575   1.203   1.167  0.0583 -0.1561  0.0613
  315MOL0     C41496  11.921   1.157   1.111  0.6007 -0.0113 -0.3885
  315MOL0     C41497  12.045   1.213   1.147  0.2097  0.0636 -0.3340
  315MOL0     N41498  12.660   1.590   0.971  1.3073  0.3649  0.4191
  315MOL0     N41499  12.626   1.711   0.972  0.8568 -0.7668  0.0234
  315MOL0     C41500  11.461   2.016   0.537 -0.7158 -0.2938 -0.4961
  315MOL0     C41501  11.329   2.031   0.489 -0.7869 -0.3195  0.7614
  315MOL0     C41502  10.932   1.885   0.264  0.6639  0.8700  0.3158
  315MOL0     C41503  10.886   2.014   0.266  0.5515 -0.0409 -0.5592
  315MOL0     C41504  10.752   2.043   0.225 -0.8657  0.0948  0.8356
  315MOL0     C41505  10.672   1.943   0.173 -1.1909 -0.3647 -0.5829
  315MOL0     O41506  10.551   1.977   0.128 -0.5117 -0.3780  0.4211
  315MOL0     C41507  10.449   2.007   0.229 -1.1052  0.1348 -0.8937
  315MOL0     C41508  10.318   1.987   0.162  0.9451 -0.1184  0.9119
  315MOL0     C41509  10.279   2.096   0.062 -0.5990 -0.3266  0.7247
  315MOL0     C41510  10.190   2.061  -0.053 -0.1362  0.4338  0.5742
  315MOL0     C41511  10.169   2.184  -0.137  0.0011  1.3451 -1.3293
  315MOL0     C41512  10.147   2.281  -0.197  0.5311 -0.4026 -0.0975
  315MOL0     C41513  10.721   1.814   0.164 -0.0407  0.2480  0.0664
  315MOL0     C41514  10.846   1.788   0.205  0.6026 -0.0008  0.2770
  315MOL0     H41515  11.338   1.769   0.275  0.4226  0.5275 -0.3636
  315MOL0     H41516  11.561   1.750   0.352 -0.8861 -0.3542 -2.1933
  315MOL0     H41517  11.762   1.784   0.443 -0.8039  1.8100  0.4809
  315MOL0     H41518  11.669   1.699   0.567 -2.8808  0.4656 -2.5667
  315MOL0     H41519  11.881   1.667   0.645 -0.7617  0.0041 -2.5920
  315MOL0     H41520  11.819   1.810   0.735  0.0592  1.4051 -0.0370
  315MOL0     H41521  11.946   1.955   0.566 -2.2541 -1.7056  0.8038
  315MOL0     H41522  12.008   1.812   0.493  1.5620  2.5753 -0.9974
  315MOL0     H41523  12.074   1.899   0.788 -0.5237 -1.0323  0.3335
  315MOL0     H41524  12.140   1.761   0.702 -1.7359 -0.9592 -1.8638
  315MOL0     H41525  12.164   2.049   0.613 -3.9836 -0.8928 -0.6700
  315MOL0     H41526  12.243   1.907   0.530  3.5579  3.9360  0.3862
  315MOL0     H41527  12.289   2.031   0.795  1.9158  0.1904  1.1695
  315MOL0     H41528  12.400   2.052   0.664 -0.3240  0.7726  0.2772
  315MOL0     H41529  12.366   1.770   0.724 -0.1440  0.4458  2.7330
  315MOL0     H41530  12.515   1.869   0.709  2.4328  0.0016  3.9967
  315MOL0     H41531  12.332   1.864   0.942 -0.5587  1.2903  0.1165
  315MOL0     H41532  12.495   1.936   0.928  1.0829 -0.1940 -1.8717
  315MOL0     H41533  12.339   1.574   0.891 -0.9234  1.9221  1.7284
  315MOL0     H41534  12.620   1.315   0.940 -2.1501 -4.1360 -0.5691
  315MOL0     H41535  12.466   1.331   0.867 -0.3495 -0.5793  0.8182
  315MOL0     H41536  12.556   1.341   1.145 -0.9049  2.8684 -0.5295
  315MOL0     H41537  12.470   1.204   1.080  0.1463  0.4297  1.0776
  315MOL0     H41538  12.343   1.473   1.133 -2.1766  0.0473 -0.1852
  315MOL0     H41539  12.263   1.343   1.047 -2.6711 -1.2245  1.6235
  315MOL0     H41540  12.361   1.304   1.347 -1.5905  1.1025  0.5853
  315MOL0     H41541  12.290   1.184   1.248  0.1918 -0.2402  2.3169
  315MOL0     H41542  11.948   1.433   1.380  0.4663 -0.1209 -0.8833
  315MOL0     H41543  11.718   1.372   1.288 -1.2695 -0.2082 -1.4089
  315MOL0     H41544  11.464   0.906   1.117 -0.2855  0.2787  0.5730
  315MOL0     H41545  11.255   0.869   1.039  1.7449 -2.0656 -0.4758
  315MOL0     H41546  10.990   1.007   0.693 -2.4221  2.1276  1.0169
  315MOL0     H41547  11.148   1.079   0.647  0.9100  1.5930  0.5951
  315MOL0     H41548  11.000   1.264   0.682  2.0454  1.2166  0.2847
  315MOL0     H41549  11.077   1.253   0.839  0.6745 -1.2264  0.9336
  315MOL0     H41550  10.898   1.148   0.946  2.2117  0.9925 -1.3020
  315MOL0     H41551  10.799   1.129   0.797 -0.2940 -1.3089  1.7140
  315MOL0     H41552  10.907   1.396   0.925 -0.5144  0.8454  0.3349
  315MOL0     H41553  10.818   1.391   0.792  1.2181  0.8512  0.8509
  315MOL0     H41554  10.713   1.299   1.053  0.2000 -4.4449 -1.8157
  315MOL0     H41555  10.618   1.286   0.910 -2.0552  1.6260 -0.3221
  315MOL0     H41556  10.651   1.525   0.854 -1.5963 -0.7137 -0.2393
  315MOL0     H41557  10.760   1.551   0.982  0.5472 -0.1447 -1.2908
  315MOL0     H41558  10.558   1.493   1.145 -0.3440 -0.8031  0.0480
  315MOL0     H41559  10.552   1.644   1.064 -0.6027  0.9424 -2.6462
  315MOL0     H41560  10.424   1.449   0.875 -2.1384 -0.8892  1.1091
  315MOL0     H41561  10.345   1.560   0.966  1.4295  0.7435 -3.9537
  315MOL0     H41562  11.301   1.178   0.734 -0.6159  2.8109  2.4499
  315MOL0     H41563  11.544   1.205   0.819  1.0876 -0.5142  1.7250
  315MOL0     H41564  11.905   1.089   1.029  1.5771  1.2791 -1.6915
  315MOL0     H41565  12.136   1.173   1.101  0.4524  1.9164 -1.5907
  315MOL0     H41566  11.491   2.066   0.629 -0.3641 -2.9712  0.9721
  315MOL0     H41567  11.258   2.106   0.524 -0.9344  0.4442 -1.0497
  315MOL0     H41568  10.947   2.098   0.296  1.2284 -0.2581 -1.3045
  315MOL0     H41569  10.721   2.147   0.222  2.1200  1.0572 -1.1184
  315MOL0     H41570  10.464   2.108   0.269 -0.1720 -1.2033  2.5143
  315MOL0     H41571  10.452   1.936   0.312 -2.2402  1.0156 -0.0662
  315MOL0     H41572  10.326   1.895   0.103  0.9945 -0.5273  1.5369
  315MOL0     H41573  10.237   1.965   0.233  0.4793  0.1429  0.4619
  315MOL0     H41574  10.369   2.138   0.016 -1.8676  0.1524 -1.4730
  315MOL0     H41575  10.221   2.175   0.111  0.7305  0.7731  0.5921
  315MOL0     H41576  10.255   1.995  -0.111  1.6689  3.0303 -0.5558
  315MOL0     H41577  10.096   2.012  -0.025  2.0684 -3.2552  2.1643
  315MOL0     H41578  10.123   2.369  -0.252  0.3338  0.0271  0.6713
  315MOL0     H41579  10.650   1.740   0.129 -0.5105  0.5282  0.4227
  315MOL0     H41580  10.884   1.688   0.182  0.4014 -0.2583  1.0561
  316MOL0     O41581   0.520   4.697   6.802  0.5864 -0.3388 -0.0646
  316MOL0     C41582   0.491   4.753   6.913  0.5223  0.2873 -0.2869
  316MOL0     O41583   0.576   4.822   6.988 -0.3999 -0.2599  0.8024
  316MOL0     C41584   0.701   4.799   6.974 -0.2459  0.3208  0.4679
  316MOL0     C41585   0.781   4.910   6.990  0.4873  0.1883  0.9432
  316MOL0     C41586   0.919   4.899   6.994  0.2001 -0.1328  0.9426
  316MOL0     C41587   0.976   4.770   6.990 -0.9595 -0.2530 -0.0075
  316MOL0     O41588   1.118   4.744   7.000  0.9237 -0.4886 -0.4106
  316MOL0     C41589   1.207   4.841   6.947  1.0679 -0.9719 -0.3679
  316MOL0     C41590   1.314   4.758   6.873  0.6444  0.4023 -1.1881
  316MOL0     C41591   1.434   4.853   6.836 -0.7203 -0.0637 -0.0367
  316MOL0     C41592   1.554   4.782   6.765 -0.4114 -0.3746  0.0463
  316MOL0     C41593   1.665   4.886   6.723  0.2537  0.2611  0.2465
  316MOL0     C41594   1.773   4.830   6.627 -1.1210 -0.2342 -0.2450
  316MOL0     C41595   1.873   4.748   6.711 -0.0829  0.4101 -0.6252
  316MOL0     C41596   1.991   4.696   6.623 -0.2688  0.1484  0.2396
  316MOL0     N41597   1.976   4.556   6.588 -0.4002 -0.0229  0.4331
  316MOL0     C41598   1.954   4.500   6.458  0.4742  0.6448 -0.3457
  316MOL0     C41599   1.957   4.363   6.474  0.2338  0.6108 -0.0763
  316MOL0     C41600   1.960   4.254   6.362 -0.2099 -0.4062  0.1998
  316MOL0     C41601   2.110   4.239   6.306 -0.5086 -0.6648  0.2035
  316MOL0     C41602   2.126   4.103   6.237  0.4186 -0.6652  0.9778
  316MOL0     C41603   2.265   4.089   6.188 -0.5788 -0.1803  0.2178
  316MOL0     O41604   2.255   4.061   6.046  0.3349  0.0737 -0.2144
  316MOL0     C41605   2.363   4.032   5.977 -0.0327  0.2712  0.1356
  316MOL0     C41606   2.492   4.053   6.022  0.9973 -0.3732  0.2686
  316MOL0     C41607   2.604   4.021   5.949  0.4602  1.3689  0.6142
  316MOL0     C41608   2.576   3.963   5.817 -0.3597 -0.2068 -0.0035
  316MOL0     C41609   2.691   3.940   5.730 -0.6087  0.9630  0.2743
  316MOL0     O41610   2.817   3.957   5.775 -0.2669 -0.2109  0.3474
  316MOL0     C41611   2.928   3.963   5.699 -0.4010 -0.4129  0.1657
  316MOL0     C41612   2.930   4.004   5.563 -0.4068  0.3909 -0.4862
  316MOL0     C41613   3.053   4.014   5.491  0.2769  0.2058  0.6349
  316MOL0     C41614   3.175   3.982   5.549  0.2696  0.0532 -0.2806
  316MOL0     O41615   3.287   3.990   5.474 -0.0986  0.1928  0.7070
  316MOL0     C41616   3.392   3.896   5.511 -0.1636 -0.1136 -0.4202
  316MOL0     C41617   3.518   3.898   5.429  0.2462 -0.0518 -0.0198
  316MOL0     C41618   3.483   3.817   5.304  0.0980  0.1571  0.1960
  316MOL0     C41619   3.614   3.756   5.243  0.2084 -1.1155 -0.3114
  316MOL0     C41620   3.589   3.657   5.129 -0.0757  0.0111  0.4018
  316MOL0     C41621   3.719   3.637   5.052 -0.7945 -0.2248  0.3925
  316MOL0     C41622   3.685   3.544   4.934 -0.9224  0.3017  0.4113
  316MOL0     C41623   3.808   3.542   4.845  0.3354 -0.5422  0.1546
  316MOL0    Cl41624   3.936   3.434   4.908  0.3721  0.0661 -0.0319
  316MOL0     C41625   3.170   3.950   5.689 -0.3335  0.2398 -0.1935
  316MOL0     C41626   3.051   3.937   5.764 -0.4886  0.8506  0.2263
  316MOL0     O41627   2.669   3.910   5.618  0.4764 -0.0916  0.0608
  316MOL0     C41628   2.450   3.949   5.769  0.3110 -0.7462 -1.1862
  316MOL0     C41629   2.341   3.984   5.851 -0.4689 -0.6663  0.8909
  316MOL0     N41630   1.952   4.339   6.610 -0.0093 -0.1603  0.0960
  316MOL0     N41631   1.975   4.454   6.673 -0.2113  0.1149  0.5059
  316MOL0     C41632   0.896   4.654   6.990  1.0265  0.1524 -0.3452
  316MOL0     C41633   0.752   4.670   6.966 -0.4629 -0.0135  0.4994
  316MOL0     C41634   0.347   4.762   6.942 -0.1015 -1.6961 -0.0109
  316MOL0     C41635   0.297   4.849   7.041 -0.1875  0.5807  0.5332
  316MOL0     C41636   0.164   4.869   7.074 -0.2225 -0.2928  0.8372
  316MOL0     C41637   0.069   4.788   7.013 -0.9222 -0.3662 -0.1984
  316MOL0     O41638  -0.068   4.800   7.019  0.0940  0.6119 -0.1458
  316MOL0     C41639  -0.140   4.703   7.091 -0.2231 -0.5383 -0.0620
  316MOL0     C41640  -0.207   4.608   6.995  1.2833 -0.2223  0.5919
  316MOL0     C41641  -0.261   4.679   6.877 -0.3218 -0.4878  0.1068
  316MOL0     C41642  -0.374   4.609   6.793 -0.6411 -0.1957 -0.5059
  316MOL0     C41643  -0.451   4.703   6.724 -0.1276  0.2203  0.7528
  316MOL0     C41644  -0.511   4.791   6.667 -0.3708  0.7117  0.0196
  316MOL0     C41645   0.122   4.697   6.913  0.7363 -0.1458  0.1543
  316MOL0     C41646   0.256   4.686   6.882  0.4405  0.1695 -0.6212
  316MOL0     H41647   0.735   5.009   6.995 -0.2089 -0.1332  0.9747
  316MOL0     H41648   0.981   4.988   7.000  0.6639  0.1285 -3.9996
  316MOL0     H41649   1.260   4.888   7.031  1.9458 -0.0414 -1.4174
  316MOL0     H41650   1.161   4.911   6.878 -0.5457  0.0548  1.6404
  316MOL0     H41651   1.271   4.699   6.791 -0.2034 -0.0912 -0.3984
  316MOL0     H41652   1.335   4.677   6.943 -2.8472 -0.8073 -1.3563
  316MOL0     H41653   1.469   4.892   6.931 -1.8597  0.6360  0.1104
  316MOL0     H41654   1.393   4.935   6.776 -2.2976  0.6819  1.9610
  316MOL0     H41655   1.595   4.702   6.826 -3.6129 -0.3407  2.5451
  316MOL0     H41656   1.500   4.742   6.679 -0.0036 -0.1281 -0.3277
  316MOL0     H41657   1.719   4.930   6.808 -1.2510 -1.6332  2.3121
  316MOL0     H41658   1.617   4.967   6.667  1.1315 -0.7446 -2.0644
  316MOL0     H41659   1.824   4.919   6.588 -0.1608 -0.8245 -0.3868
  316MOL0     H41660   1.735   4.777   6.540  3.7112 -2.8977 -1.0661
  316MOL0     H41661   1.914   4.813   6.789  1.2371  2.2095 -2.7193
  316MOL0     H41662   1.827   4.658   6.754  2.0185 -0.7813 -0.7460
  316MOL0     H41663   2.090   4.691   6.670 -0.5734 -0.0395  0.8670
  316MOL0     H41664   1.996   4.761   6.535 -2.9278  0.1329  0.0050
  316MOL0     H41665   1.951   4.552   6.362  0.4996 -0.9944 -1.2781
  316MOL0     H41666   1.883   4.272   6.286 -1.4081 -0.5006  1.3596
  316MOL0     H41667   1.929   4.162   6.412  0.5697 -0.9328 -0.2581
  316MOL0     H41668   2.187   4.245   6.383  0.9503 -1.1466 -1.1570
  316MOL0     H41669   2.134   4.331   6.252 -2.1827  0.2019  0.8780
  316MOL0     H41670   2.092   4.018   6.296 -0.3401 -1.7839 -0.9789
  316MOL0     H41671   2.055   4.104   6.154  3.1155 -0.2115 -1.5013
  316MOL0     H41672   2.305   4.003   6.243 -1.2504 -1.6969 -1.5727
  316MOL0     H41673   2.327   4.179   6.201 -1.1087  0.0982  0.8467
  316MOL0     H41674   2.496   4.083   6.126  1.8137 -0.9030  0.4010
  316MOL0     H41675   2.702   4.052   5.982  1.0548 -0.2621  0.4399
  316MOL0     H41676   2.834   4.030   5.520 -1.0412  1.3260  1.3694
  316MOL0     H41677   3.051   4.045   5.387 -1.3360  2.9045  1.3709
  316MOL0     H41678   3.345   3.798   5.503 -3.4436  1.3486 -0.5101
  316MOL0     H41679   3.427   3.903   5.614  2.1755 -0.0350 -1.1464
  316MOL0     H41680   3.596   3.852   5.491 -0.5691  0.9850  1.8399
  316MOL0     H41681   3.551   3.998   5.402 -3.1781  1.9331  2.4858
  316MOL0     H41682   3.452   3.896   5.234  3.4242  1.7198  0.2942
  316MOL0     H41683   3.415   3.734   5.326 -0.2066 -0.1527 -1.7188
  316MOL0     H41684   3.679   3.831   5.198  0.0025 -0.0620  1.0549
  316MOL0     H41685   3.661   3.709   5.330  2.5683  1.6854  0.0826
  316MOL0     H41686   3.509   3.702   5.069 -0.9997 -1.2851  0.6275
  316MOL0     H41687   3.553   3.557   5.152  0.1724 -0.3758 -0.8158
  316MOL0     H41688   3.785   3.591   5.126  0.1555  2.1332  1.0950
  316MOL0     H41689   3.749   3.735   5.015 -0.8803  0.2815  1.6263
  316MOL0     H41690   3.676   3.441   4.968 -0.6111 -0.5883 -2.0017
  316MOL0     H41691   3.615   3.583   4.860  0.7057 -0.9276 -1.9189
  316MOL0     H41692   3.854   3.641   4.836  3.4185 -1.9825 -1.9194
  316MOL0     H41693   3.775   3.505   4.748  0.5245  0.0760 -0.1522
  316MOL0     H41694   3.267   3.935   5.736 -1.0019  1.3172  1.6544
  316MOL0     H41695   3.040   3.921   5.870 -0.2989 -0.5604  0.0539
  316MOL0     H41696   2.426   3.934   5.664 -4.1769  0.0464 -0.4690
  316MOL0     H41697   2.242   3.965   5.811  0.6705  0.1116 -2.7564
  316MOL0     H41698   0.947   4.558   6.981 -0.8380 -0.8772 -0.5189
  316MOL0     H41699   0.689   4.582   6.965  0.9024 -1.0375  0.7009
  316MOL0     H41700   0.375   4.911   7.085 -0.7595  1.7446 -0.0464
  316MOL0     H41701   0.132   4.943   7.147  0.4390 -0.0288  0.8640
  316MOL0     H41702  -0.211   4.767   7.144 -1.1223  0.4275 -2.3178
  316MOL0     H41703  -0.082   4.651   7.168 -1.1005 -2.8049 -0.8646
  316MOL0     H41704  -0.143   4.522   6.972 -0.3872 -2.0121  2.2305
  316MOL0     H41705  -0.294   4.566   7.047  0.1625  2.7181  1.2968
  316MOL0     H41706  -0.180   4.705   6.808  1.9187  1.5431  3.2138
  316MOL0     H41707  -0.317   4.762   6.921 -2.5774 -2.3221  0.8994
  316MOL0     H41708  -0.320   4.537   6.732  0.7534 -0.6703  1.1770
  316MOL0     H41709  -0.444   4.557   6.859  0.0108  0.8491  1.0781
  316MOL0     H41710  -0.567   4.864   6.614 -0.5070 -0.7692 -2.0091
  316MOL0     H41711   0.063   4.624   6.859 -1.3321  1.5416 -0.0037
  316MOL0     H41712   0.287   4.611   6.810 -2.5388 -0.7732 -1.0314
  317MOL0     O41713   0.436   7.489   9.274 -0.4341 -0.3651 -0.0293
  317MOL0     C41714   0.499   7.384   9.248 -0.1031 -0.4147 -0.1157
  317MOL0     O41715   0.445   7.276   9.193  0.7774 -0.3226  0.2294
  317MOL0     C41716   0.303   7.271   9.196  0.7453 -0.5080  1.0517
  317MOL0     C41717   0.231   7.269   9.312  0.1171  0.7167 -0.4115
  317MOL0     C41718   0.086   7.259   9.305  0.0001 -0.2838  0.4349
  317MOL0     C41719   0.022   7.238   9.182  0.2663  0.0776 -0.2484
  317MOL0     O41720  -0.118   7.244   9.180 -0.2771 -0.1152 -0.8569
  317MOL0     C41721  -0.190   7.137   9.122 -0.3265  0.5968 -0.2676
  317MOL0     C41722  -0.328   7.179   9.076  0.2494  0.1654  0.1815
  317MOL0     C41723  -0.389   7.075   8.988  0.3766  1.1708 -0.1531
  317MOL0     C41724  -0.529   7.125   8.926  0.0355 -0.3129 -0.0727
  317MOL0     C41725  -0.599   7.025   8.842 -0.0923  0.8982 -0.2958
  317MOL0     C41726  -0.676   6.919   8.918 -0.5287 -0.0365  0.0914
  317MOL0     C41727  -0.744   6.824   8.817 -0.9494 -0.5637  0.0301
  317MOL0     C41728  -0.820   6.707   8.880  0.5561  0.0466  0.2548
  317MOL0     N41729  -0.964   6.760   8.903  0.3949 -0.1620  0.2638
  317MOL0     C41730  -1.020   6.830   9.007 -0.6810 -0.5910 -0.1174
  317MOL0     C41731  -1.151   6.833   8.979 -0.5316  0.1346 -0.3738
  317MOL0     C41732  -1.250   6.920   9.039  0.6541  0.7706 -0.6155
  317MOL0     C41733  -1.399   6.878   9.026 -0.4731  0.3999  0.0086
  317MOL0     C41734  -1.480   6.943   9.136 -0.4822  0.5583  0.0524
  317MOL0     C41735  -1.631   6.929   9.108  0.9327  0.1251 -0.4107
  317MOL0     O41736  -1.679   6.798   9.153 -0.6068 -0.3917  0.1375
  317MOL0     C41737  -1.786   6.801   9.226  0.3452 -0.1555 -0.7931
  317MOL0     C41738  -1.895   6.731   9.186 -0.2850  0.3863 -0.2660
  317MOL0     C41739  -2.013   6.711   9.267  0.0323  0.3142  0.3411
  317MOL0     C41740  -2.024   6.777   9.390  0.0052  0.9847 -0.7075
  317MOL0     C41741  -2.140   6.764   9.479 -0.2995  0.6158 -0.0761
  317MOL0     O41742  -2.157   6.844   9.591 -0.4180  0.9315 -0.3434
  317MOL0     C41743  -2.273   6.840   9.657 -0.2645 -0.7699  1.3747
  317MOL0     C41744  -2.349   6.960   9.653  0.6112  0.7940  1.0815
  317MOL0     C41745  -2.478   6.959   9.717 -0.1799 -0.1112 -0.4222
  317MOL0     C41746  -2.513   6.846   9.790 -0.0439 -0.3531  0.4586
  317MOL0     O41747  -2.631   6.846   9.865 -0.1264 -0.2565 -0.8075
  317MOL0     C41748  -2.740   6.807   9.785  1.2110 -1.0736  0.3142
  317MOL0     C41749  -2.873   6.795   9.867 -0.1955  0.5790  0.1414
  317MOL0     C41750  -2.997   6.767   9.797  1.1786  0.7765 -0.7528
  317MOL0     C41751  -3.125   6.761   9.894 -0.3295 -0.5038  0.3435
  317MOL0     C41752  -3.253   6.741   9.803  0.2951  0.4711  0.1466
  317MOL0     C41753  -3.265   6.596   9.761 -0.3871 -1.1074  1.3049
  317MOL0     C41754  -3.402   6.574   9.694  0.7404  0.0617 -0.3801
  317MOL0     C41755  -3.423   6.419   9.675 -0.2650 -0.7773 -0.1453
  317MOL0    Cl41756  -3.310   6.354   9.554 -0.1246  0.3428 -0.1852
  317MOL0     C41757  -2.445   6.722   9.775 -0.8260 -0.0319 -0.9381
  317MOL0     C41758  -2.322   6.725   9.715 -0.5561  0.2188  0.0130
  317MOL0     O41759  -2.232   6.692   9.430 -0.9799  0.1260  0.3546
  317MOL0     C41760  -1.908   6.837   9.438  0.0168 -0.0007  0.2044
  317MOL0     C41761  -1.797   6.857   9.356 -0.0944  0.0509 -0.4487
  317MOL0     N41762  -1.173   6.754   8.867  0.6192  0.5498 -0.3250
  317MOL0     N41763  -1.064   6.703   8.828 -0.2419 -0.1179  0.1237
  317MOL0     C41764   0.097   7.239   9.059 -0.2554  0.3757  0.9050
  317MOL0     C41765   0.234   7.257   9.074 -0.0983  0.7412  0.2542
  317MOL0     C41766   0.646   7.379   9.272  0.4627  1.5880 -0.1121
  317MOL0     C41767   0.727   7.263   9.251  0.3463  0.7127  0.4344
  317MOL0     C41768   0.871   7.273   9.254  0.2614  0.3560  0.2163
  317MOL0     C41769   0.933   7.395   9.280 -1.0807  0.3466 -0.3301
  317MOL0     O41770   1.075   7.409   9.280  0.4956  0.6069  0.9106
  317MOL0     C41771   1.134   7.529   9.325 -0.2822 -1.5165  0.1061
  317MOL0     C41772   1.281   7.496   9.356 -1.2175  0.0775  0.7710
  317MOL0     C41773   1.365   7.611   9.397  0.0048  1.1382  0.6912
  317MOL0     C41774   1.509   7.560   9.407 -0.4914  0.0286 -0.0137
  317MOL0     C41775   1.592   7.661   9.479 -0.6095  0.3257 -0.7545
  317MOL0     C41776   1.651   7.744   9.548  0.8689 -0.5034 -0.2716
  317MOL0     C41777   0.847   7.500   9.324 -1.0386  0.1547 -1.1161
  317MOL0     C41778   0.703   7.490   9.322 -0.5098  0.1003  0.0041
  317MOL0     H41779   0.274   7.277   9.411 -0.6267 -0.4966  0.0406
  317MOL0     H41780   0.027   7.276   9.395 -2.3021  0.3332 -1.1165
  317MOL0     H41781  -0.189   7.048   9.185  0.9121  1.4086  0.9280
  317MOL0     H41782  -0.129   7.113   9.034 -1.1592 -1.7818 -0.2539
  317MOL0     H41783  -0.335   7.278   9.030 -2.3840  0.2380  0.5979
  317MOL0     H41784  -0.382   7.194   9.169 -2.0985  1.2779 -1.2651
  317MOL0     H41785  -0.406   6.984   9.046  3.8584  0.3031 -0.2672
  317MOL0     H41786  -0.316   7.052   8.910  0.4378  2.3102 -0.4464
  317MOL0     H41787  -0.602   7.141   9.006  0.5659  0.5215  0.2580
  317MOL0     H41788  -0.511   7.215   8.868  2.0812 -0.4537  0.2613
  317MOL0     H41789  -0.531   6.973   8.774 -1.3920 -0.5925 -0.5315
  317MOL0     H41790  -0.674   7.080   8.784 -1.9423 -0.2428  0.9017
  317MOL0     H41791  -0.756   6.969   8.974 -0.2957  1.5908 -0.9665
  317MOL0     H41792  -0.611   6.859   8.982 -0.3287  2.3792  2.3320
  317MOL0     H41793  -0.807   6.880   8.748  0.2298  4.2067  2.4148
  317MOL0     H41794  -0.660   6.776   8.765  0.2732 -1.4968  2.6800
  317MOL0     H41795  -0.768   6.674   8.970  0.2964 -2.2425 -0.3579
  317MOL0     H41796  -0.809   6.622   8.811  1.3926  0.4839 -0.1624
  317MOL0     H41797  -0.958   6.880   9.080 -0.1732 -0.3790 -0.6859
  317MOL0     H41798  -1.236   7.016   8.989  1.8973  0.6047 -0.6123
  317MOL0     H41799  -1.211   6.938   9.140  0.1878 -0.9767 -0.0795
  317MOL0     H41800  -1.410   6.769   9.028 -0.8147  0.4111 -0.7957
  317MOL0     H41801  -1.435   6.913   8.929 -0.2829 -0.7879 -0.5140
  317MOL0     H41802  -1.448   6.906   9.234  2.8474 -0.8531 -1.3782
  317MOL0     H41803  -1.461   7.050   9.129 -1.1635  0.5956 -1.5034
  317MOL0     H41804  -1.659   6.944   9.004  0.5376 -2.2748 -0.7026
  317MOL0     H41805  -1.684   7.006   9.165  2.0747  2.4165 -2.2928
  317MOL0     H41806  -1.900   6.680   9.090  1.2128 -1.0484  0.3597
  317MOL0     H41807  -2.087   6.643   9.225  2.2251 -0.5732 -2.3760
  317MOL0     H41808  -2.314   7.044   9.593 -0.4228 -0.5851 -1.6056
  317MOL0     H41809  -2.550   7.040   9.711 -1.1771 -0.5435  3.3434
  317MOL0     H41810  -2.719   6.709   9.741  0.1669 -1.2726  0.2272
  317MOL0     H41811  -2.755   6.888   9.713  0.5582  0.7735  2.4183
  317MOL0     H41812  -2.886   6.893   9.914 -1.7052  0.5535 -0.1966
  317MOL0     H41813  -2.868   6.728   9.953 -0.6870 -1.4205 -1.3183
  317MOL0     H41814  -2.994   6.670   9.747 -2.5842 -0.2799  0.7182
  317MOL0     H41815  -3.016   6.833   9.712  3.7576  0.2109 -1.8603
  317MOL0     H41816  -3.124   6.685   9.973 -2.3489  0.2489  1.1690
  317MOL0     H41817  -3.134   6.864   9.930  2.5612  0.8483 -2.3477
  317MOL0     H41818  -3.259   6.819   9.727  1.4474  0.3837 -0.0643
  317MOL0     H41819  -3.334   6.760   9.873  2.0420 -1.8898  3.0571
  317MOL0     H41820  -3.254   6.522   9.841 -1.1970 -0.5465  1.9466
  317MOL0     H41821  -3.189   6.583   9.684 -0.0819  0.2277  1.3582
  317MOL0     H41822  -3.477   6.611   9.765  0.5811 -0.4869 -0.2550
  317MOL0     H41823  -3.397   6.621   9.595  1.1134 -3.2170 -2.0751
  317MOL0     H41824  -3.528   6.400   9.650 -0.0113  0.6223 -2.5643
  317MOL0     H41825  -3.405   6.366   9.769 -2.6813 -1.9313 -0.2485
  317MOL0     H41826  -2.474   6.638   9.836  0.5055  1.1955  1.5682
  317MOL0     H41827  -2.275   6.627   9.720 -1.3927 -0.1730  0.3284
  317MOL0     H41828  -1.909   6.883   9.536 -3.9871  0.7028  0.0227
  317MOL0     H41829  -1.703   6.900   9.390  0.1847 -1.5187  0.9283
  317MOL0     H41830   0.048   7.223   8.963 -0.4395  2.2987  0.6351
  317MOL0     H41831   0.300   7.254   8.987  0.4514 -0.1653  0.6859
  317MOL0     H41832   0.680   7.171   9.217  0.4647 -0.2993  2.8282
  317MOL0     H41833   0.935   7.189   9.231  0.2730  0.7815 -1.4095
  317MOL0     H41834   1.094   7.575   9.416  1.3674 -0.5332  0.3762
  317MOL0     H41835   1.117   7.609   9.252 -0.7417 -2.2423 -0.5937
  317MOL0     H41836   1.292   7.416   9.430  4.0761  0.3537  0.6456
  317MOL0     H41837   1.324   7.455   9.264  0.6953  1.4945  0.9716
  317MOL0     H41838   1.332   7.651   9.493 -0.2419  0.8251  0.7372
  317MOL0     H41839   1.368   7.683   9.315  0.5890 -1.3122 -1.5713
  317MOL0     H41840   1.519   7.465   9.459 -4.0796  0.5451  1.9102
  317MOL0     H41841   1.543   7.542   9.304 -2.3230 -2.3452 -0.2886
  317MOL0     H41842   1.695   7.826   9.600 -2.0395  1.6221 -0.9057
  317MOL0     H41843   0.888   7.594   9.360  0.6502 -0.6846 -0.7365
  317MOL0     H41844   0.642   7.568   9.365  1.7199  1.4880  0.8113
  318MOL0     O41845   4.102   6.413   9.242  0.3017 -0.1867 -0.0883
  318MOL0     C41846   4.127   6.482   9.340  0.1819  0.2961  0.1368
  318MOL0     O41847   4.030   6.516   9.432  0.2662 -0.1677 -0.6077
  318MOL0     C41848   3.893   6.477   9.412 -0.6471 -0.1118  0.3258
  318MOL0     C41849   3.815   6.436   9.521 -0.0219  1.1216  0.2986
  318MOL0     C41850   3.685   6.406   9.496  0.6264  0.0456 -0.0347
  318MOL0     C41851   3.617   6.436   9.378 -0.8507 -1.4458  0.6705
  318MOL0     O41852   3.483   6.418   9.349  0.4914  0.4792 -0.0603
  318MOL0     C41853   3.410   6.378   9.469 -0.8465 -0.3286  0.3347
  318MOL0     C41854   3.258   6.349   9.453 -0.8578 -0.9999 -0.2157
  318MOL0     C41855   3.205   6.292   9.583 -0.4228 -0.0333  0.2288
  318MOL0     C41856   3.249   6.142   9.607 -0.1171 -0.8263  0.5017
  318MOL0     C41857   3.199   6.056   9.490 -0.2945  0.3250  0.0602
  318MOL0     C41858   3.139   5.938   9.550 -0.2597 -0.5299  0.0864
  318MOL0     C41859   2.988   5.955   9.579 -0.3913  0.1480 -0.3683
  318MOL0     C41860   2.944   6.048   9.697 -0.1247 -0.1319  0.3016
  318MOL0     N41861   2.810   6.098   9.664 -0.0784  0.7363  0.1099
  318MOL0     C41862   2.699   6.011   9.669 -0.3133 -0.1506 -0.4120
  318MOL0     C41863   2.601   6.084   9.597  0.1348 -0.4989  0.5379
  318MOL0     C41864   2.457   6.040   9.580  0.1502 -0.2851  0.2425
  318MOL0     C41865   2.426   5.950   9.464 -0.2056  0.1920  0.3804
  318MOL0     C41866   2.278   5.943   9.415 -0.2127 -0.6398 -0.0486
  318MOL0     C41867   2.174   5.896   9.512  0.1350  0.7537 -0.6970
  318MOL0     O41868   2.063   5.863   9.432 -0.5824 -1.0225  0.2255
  318MOL0     C41869   1.962   5.949   9.404  0.2813 -0.7057  0.7854
  318MOL0     C41870   1.984   6.086   9.401 -0.2422 -0.7174 -0.4759
  318MOL0     C41871   1.876   6.175   9.368  0.0022 -0.1567 -0.0409
  318MOL0     C41872   1.744   6.126   9.330 -0.1014 -0.0928 -0.1115
  318MOL0     C41873   1.630   6.221   9.301 -0.4550 -0.3513 -0.1579
  318MOL0     O41874   1.522   6.168   9.237 -0.1646  0.3882  0.4189
  318MOL0     C41875   1.403   6.235   9.236  0.3280  0.3464 -0.2106
  318MOL0     C41876   1.300   6.170   9.161 -0.6559  0.1177 -0.8403
  318MOL0     C41877   1.173   6.220   9.155 -0.2777 -1.0957  0.1424
  318MOL0     C41878   1.143   6.350   9.223  0.6850 -0.0047  0.0149
  318MOL0     O41879   1.033   6.432   9.210 -0.0070  0.8218  0.1976
  318MOL0     C41880   0.931   6.366   9.118  0.1022  0.2213 -0.4755
  318MOL0     C41881   0.810   6.454   9.115 -0.2910 -0.7235 -0.7095
  318MOL0     C41882   0.677   6.378   9.084 -0.6381 -0.0724  0.9628
  318MOL0     C41883   0.558   6.464   9.063  0.4893 -0.5701 -0.1283
  318MOL0     C41884   0.439   6.388   9.030 -0.0245 -0.2349 -0.0842
  318MOL0     C41885   0.321   6.486   9.035  0.1533  0.3194 -0.4106
  318MOL0     C41886   0.192   6.411   9.024 -0.2973 -0.4705 -0.0430
  318MOL0     C41887   0.070   6.490   9.056  0.3051  0.1690  0.4110
  318MOL0    Cl41888  -0.069   6.385   9.021 -0.0538 -0.0956 -0.1942
  318MOL0     C41889   1.235   6.405   9.302 -0.4455  0.0140  0.5003
  318MOL0     C41890   1.362   6.349   9.310 -0.2479 -0.3596 -0.9276
  318MOL0     O41891   1.640   6.344   9.327 -0.6726 -0.1050 -0.7341
  318MOL0     C41892   1.725   5.988   9.331 -0.2348 -0.2843 -0.6355
  318MOL0     C41893   1.836   5.901   9.361 -0.1181 -0.2369  0.5302
  318MOL0     N41894   2.667   6.188   9.531  0.2465  0.7645  0.3019
  318MOL0     N41895   2.790   6.196   9.578 -0.3834 -1.2689 -0.3267
  318MOL0     C41896   3.699   6.490   9.270 -0.0481  0.2534 -0.1214
  318MOL0     C41897   3.834   6.509   9.289 -0.2858 -0.0212 -0.0133
  318MOL0     C41898   4.269   6.510   9.350  0.2603  0.3205 -0.1337
  318MOL0     C41899   4.318   6.607   9.430  1.0243 -0.1593 -0.5515
  318MOL0     C41900   4.459   6.621   9.451  1.0669  0.1043 -0.0803
  318MOL0     C41901   4.549   6.552   9.381  0.2952 -0.1406  0.3748
  318MOL0     O41902   4.681   6.575   9.412  0.2312 -0.0452  0.1961
  318MOL0     C41903   4.785   6.513   9.336  0.0079  0.4120 -0.3080
  318MOL0     C41904   4.921   6.582   9.361  0.3146  0.4716  0.2221
  318MOL0     C41905   4.981   6.553   9.502  0.0056 -0.3394  0.6146
  318MOL0     C41906   5.132   6.604   9.505  0.3312  0.8347 -0.7821
  318MOL0     C41907   5.154   6.740   9.476  0.4351  0.2289 -0.7491
  318MOL0     C41908   5.164   6.860   9.454 -0.2796  0.5323 -0.3939
  318MOL0     C41909   4.504   6.460   9.286  0.0950  0.2069  0.4577
  318MOL0     C41910   4.367   6.434   9.279  1.1020  0.3803 -0.3693
  318MOL0     H41911   3.870   6.414   9.612 -1.6098  1.7467  1.4593
  318MOL0     H41912   3.631   6.363   9.580 -0.4569 -1.9613 -1.6756
  318MOL0     H41913   3.420   6.459   9.542 -0.1994  0.0798 -0.1960
  318MOL0     H41914   3.464   6.287   9.496  0.0947  0.1788  0.2011
  318MOL0     H41915   3.242   6.275   9.374 -1.0150  0.6416 -1.8152
  318MOL0     H41916   3.203   6.437   9.418 -1.5339  0.0515  3.1904
  318MOL0     H41917   3.096   6.300   9.590 -0.3926  3.0622 -1.0107
  318MOL0     H41918   3.246   6.349   9.666  0.3929 -3.0866  2.0701
  318MOL0     H41919   3.357   6.128   9.613 -0.1056 -0.5280  1.0375
  318MOL0     H41920   3.208   6.125   9.707 -3.1671  2.7397  0.1010
  318MOL0     H41921   3.283   6.039   9.422  0.5814  0.0028  1.2111
  318MOL0     H41922   3.124   6.107   9.428 -0.8097  1.8265  1.8482
  318MOL0     H41923   3.196   5.889   9.629 -2.2605 -1.6513  0.9237
  318MOL0     H41924   3.134   5.860   9.474 -0.1482 -0.6659  0.2187
  318MOL0     H41925   2.949   5.990   9.483 -0.6013 -2.8469 -1.4761
  318MOL0     H41926   2.945   5.856   9.592 -1.0747  0.1692 -2.1869
  318MOL0     H41927   3.014   6.131   9.709  1.6600 -1.4116 -0.7750
  318MOL0     H41928   2.946   5.987   9.788  1.1860  1.3312  1.3053
  318MOL0     H41929   2.681   5.914   9.712 -0.8755  0.4339  0.7292
  318MOL0     H41930   2.389   6.126   9.571 -2.9123 -2.7392 -3.1886
  318MOL0     H41931   2.411   6.003   9.672 -0.9186 -0.3864 -0.3169
  318MOL0     H41932   2.465   5.853   9.496 -0.4481  0.3596  1.2042
  318MOL0     H41933   2.498   5.979   9.386  2.6289 -1.4895  2.1987
  318MOL0     H41934   2.247   6.046   9.391 -1.8437 -1.4497 -1.7302
  318MOL0     H41935   2.275   5.880   9.326 -1.6756  1.4728 -1.6134
  318MOL0     H41936   2.156   5.972   9.589  0.4742  1.2659 -1.1205
  318MOL0     H41937   2.195   5.804   9.568 -0.0602  1.8187  1.2086
  318MOL0     H41938   2.079   6.137   9.417 -0.6173 -0.1611  0.0231
  318MOL0     H41939   1.886   6.283   9.376  2.7826 -0.3523 -0.0828
  318MOL0     H41940   1.335   6.075   9.121  1.3737  0.9278 -1.1221
  318MOL0     H41941   1.098   6.166   9.099  0.0657  1.1032 -2.6631
  318MOL0     H41942   0.897   6.275   9.168  3.4234 -1.5242 -1.1059
  318MOL0     H41943   0.967   6.349   9.017 -2.4682 -1.3737 -1.2079
  318MOL0     H41944   0.825   6.541   9.050 -1.0699  0.1345  0.2113
  318MOL0     H41945   0.804   6.492   9.217  0.9585 -2.0385 -0.1134
  318MOL0     H41946   0.659   6.307   9.165 -2.4684 -1.8246 -0.8688
  318MOL0     H41947   0.701   6.333   8.987  0.9256  3.9943 -0.7604
  318MOL0     H41948   0.544   6.517   9.157  0.5357  2.0923 -1.5465
  318MOL0     H41949   0.581   6.535   8.984  2.0481 -3.4477 -2.4880
  318MOL0     H41950   0.430   6.307   9.102  1.5138 -0.2799  0.1039
  318MOL0     H41951   0.461   6.349   8.930  0.7443  1.4325 -0.6113
  318MOL0     H41952   0.328   6.572   8.967  1.1236  2.4948  2.2789
  318MOL0     H41953   0.309   6.537   9.131 -1.6227  0.1957 -0.5198
  318MOL0     H41954   0.179   6.360   8.928  0.3685 -2.3088  0.8046
  318MOL0     H41955   0.192   6.329   9.095  1.2773  0.5345  1.1815
  318MOL0     H41956   0.073   6.578   8.991  1.7652  0.4143  0.7696
  318MOL0     H41957   0.062   6.517   9.161 -0.0114 -1.8846  0.9678
  318MOL0     H41958   1.218   6.504   9.345 -4.4575 -1.1052  1.9566
  318MOL0     H41959   1.430   6.406   9.372 -1.0144  1.2445 -1.4951
  318MOL0     H41960   1.632   5.938   9.303  1.4879 -2.9857 -1.9090
  318MOL0     H41961   1.834   5.792   9.354  1.2952 -0.2505  0.1604
  318MOL0     H41962   3.662   6.507   9.169 -2.5924 -0.3528  0.6160
  318MOL0     H41963   3.899   6.544   9.210  0.2028 -3.1390 -1.1058
  318MOL0     H41964   4.251   6.682   9.472  2.5142  0.0939  1.5104
  318MOL0     H41965   4.493   6.690   9.528 -1.6746  1.9146 -0.3353
  318MOL0     H41966   4.763   6.531   9.231  0.0251  2.9856  0.0597
  318MOL0     H41967   4.785   6.405   9.357  0.4471  0.5489  0.4391
  318MOL0     H41968   4.981   6.538   9.282  1.5126  0.5920  1.0466
  318MOL0     H41969   4.902   6.689   9.349  0.3411  0.6341  1.4452
  318MOL0     H41970   4.973   6.444   9.507  1.9607 -0.7922 -3.0572
  318MOL0     H41971   4.917   6.595   9.581 -2.2065  1.4497 -1.9260
  318MOL0     H41972   5.177   6.576   9.601 -0.0090 -0.3116 -0.9366
  318MOL0     H41973   5.177   6.544   9.426 -3.9595 -0.2413 -2.7350
  318MOL0     H41974   5.187   6.964   9.444 -0.9074  0.5727 -1.5840
  318MOL0     H41975   4.585   6.417   9.227  1.3617  1.9274  0.8837
  318MOL0     H41976   4.345   6.344   9.223  0.1837  0.5458 -0.2936
  319MOL0     O41977   2.361  10.950  10.137 -0.4892 -0.3696 -0.7534
  319MOL0     C41978   2.323  10.900  10.241  0.2148 -1.0762  0.6180
  319MOL0     O41979   2.205  10.849  10.261  0.5466 -0.1154 -0.1904
  319MOL0     C41980   2.104  10.859  10.166 -0.2129 -0.5852 -0.7357
  319MOL0     C41981   1.978  10.828  10.228 -0.6834 -0.6417 -0.0708
  319MOL0     C41982   1.859  10.843  10.154 -0.1789  0.1047 -0.9490
  319MOL0     C41983   1.853  10.864  10.021 -0.3856 -0.9133  0.0220
  319MOL0     O41984   1.735  10.851   9.946 -0.5752 -0.4802  0.4729
  319MOL0     C41985   1.608  10.850  10.013 -0.1033  0.8829 -0.6452
  319MOL0     C41986   1.502  10.901   9.916 -0.0612  0.0581  1.2386
  319MOL0     C41987   1.355  10.926   9.967  0.8290 -0.4204 -0.1372
  319MOL0     C41988   1.260  10.999   9.860 -0.3079  0.0579 -0.1273
  319MOL0     C41989   1.137  11.055   9.938  0.2987  1.3760  0.0836
  319MOL0     C41990   1.031  11.126   9.857 -1.0418  0.5510 -0.6162
  319MOL0     C41991   0.907  11.173   9.952  1.1094 -0.3794  0.2539
  319MOL0     C41992   0.783  11.199   9.870 -0.1188 -0.1109  1.0767
  319MOL0     N41993   0.688  11.299   9.932 -0.8304 -0.8775  0.9217
  319MOL0     C41994   0.609  11.375   9.854 -0.0259  0.1543 -0.2195
  319MOL0     C41995   0.507  11.414   9.941 -0.2425  0.3395  0.1827
  319MOL0     C41996   0.377  11.480   9.902  0.2064  0.4185 -0.1779
  319MOL0     C41997   0.263  11.380   9.911 -1.0995 -0.1494  0.3094
  319MOL0     C41998   0.130  11.424   9.833 -0.3027 -0.1038  0.2564
  319MOL0     C41999   0.086  11.573   9.840  0.9754 -0.8444 -0.2139
  319MOL0     O42000   0.017  11.611   9.722 -0.4349  0.2166 -0.5943
  319MOL0     C42001  -0.113  11.579   9.707 -0.4389  0.3060 -0.5997
  319MOL0     C42002  -0.184  11.655   9.612 -0.6118 -0.2906 -0.5740
  319MOL0     C42003  -0.314  11.631   9.585  0.0518  0.0752  0.1678
  319MOL0     C42004  -0.387  11.523   9.647  0.0599 -1.0005 -0.1304
  319MOL0     C42005  -0.524  11.487   9.614 -0.6428 -1.0833  0.5225
  319MOL0     O42006  -0.598  11.412   9.704  0.3808 -0.7560  0.7794
  319MOL0     C42007  -0.725  11.371   9.660  0.2504  0.2734  0.5430
  319MOL0     C42008  -0.825  11.457   9.606 -0.2826  0.0276  0.3554
  319MOL0     C42009  -0.954  11.412   9.578 -0.8253  0.3416 -0.7684
  319MOL0     C42010  -0.978  11.274   9.602 -0.0011 -0.2500  0.2684
  319MOL0     O42011  -1.104  11.223   9.582  0.4204 -0.4206 -0.3223
  319MOL0     C42012  -1.217  11.307   9.540 -0.3222  0.8358 -0.0969
  319MOL0     C42013  -1.352  11.239   9.539 -0.2301  0.2657  0.2229
  319MOL0     C42014  -1.359  11.144   9.422  0.0992  0.3709 -0.1603
  319MOL0     C42015  -1.496  11.067   9.437  0.4885  0.2992  1.3805
  319MOL0     C42016  -1.479  10.925   9.389 -0.4992  0.5198  1.6356
  319MOL0     C42017  -1.594  10.836   9.426  0.9343  0.3121  0.0878
  319MOL0     C42018  -1.572  10.694   9.369 -1.1667 -0.3258 -0.4682
  319MOL0     C42019  -1.565  10.675   9.218 -0.3571 -0.7860  0.7579
  319MOL0    Cl42020  -1.737  10.707   9.151 -0.3892 -0.1163 -0.3951
  319MOL0     C42021  -0.883  11.187   9.657  0.2146  0.7673  0.3161
  319MOL0     C42022  -0.757  11.242   9.688 -0.5367 -0.6870  0.1668
  319MOL0     O42023  -0.568  11.544   9.511 -0.1443 -0.0035  0.5947
  319MOL0     C42024  -0.318  11.456   9.749  0.1633 -0.1028 -0.7347
  319MOL0     C42025  -0.186  11.485   9.786 -0.6276  0.7225  0.7645
  319MOL0     N42026   0.532  11.352  10.063  0.0799 -0.4233  0.4333
  319MOL0     N42027   0.646  11.288  10.059  0.6200  0.0035  0.4557
  319MOL0     C42028   1.978  10.882   9.955  0.3808  0.5951 -0.1722
  319MOL0     C42029   2.105  10.893  10.026 -0.0611 -0.3302  1.1963
  319MOL0     C42030   2.425  10.875  10.338  0.1776  0.2062 -0.6238
  319MOL0     C42031   2.555  10.929  10.320 -0.5687 -0.1568  0.5532
  319MOL0     C42032   2.653  10.920  10.420 -0.0380  1.0208  0.4199
  319MOL0     C42033   2.627  10.847  10.537 -0.3026  0.1206 -0.8819
  319MOL0     O42034   2.738  10.820  10.615 -0.2585 -0.4215 -0.6916
  319MOL0     C42035   2.742  10.726  10.732  0.1956 -0.3146  0.8887
  319MOL0     C42036   2.848  10.623  10.687 -0.3660  0.2046  0.3292
  319MOL0     C42037   2.988  10.687  10.702 -0.5075 -0.2059  0.9719
  319MOL0     C42038   3.094  10.590  10.659  0.0793  0.0674 -0.7196
  319MOL0     C42039   3.221  10.651  10.647 -0.3208 -0.8697 -0.0316
  319MOL0     C42040   3.320  10.711  10.631 -0.1924  0.6809  0.4710
  319MOL0     C42041   2.499  10.799  10.553  0.7737  0.1466  0.7067
  319MOL0     C42042   2.395  10.812  10.462 -0.0946 -0.1005  0.2668
  319MOL0     H42043   1.975  10.797  10.332  1.3641  1.8069  0.8264
  319MOL0     H42044   1.767  10.825  10.208  0.9791 -2.6995  0.2667
  319MOL0     H42045   1.610  10.911  10.104 -1.3525 -0.5567  0.3957
  319MOL0     H42046   1.584  10.746  10.036 -2.0303  1.3511 -0.3369
  319MOL0     H42047   1.497  10.824   9.838 -1.0453  1.3549 -0.0297
  319MOL0     H42048   1.538  10.994   9.872  1.6136 -0.2391  1.8806
  319MOL0     H42049   1.362  10.977  10.063 -1.6360 -1.8402  0.8715
  319MOL0     H42050   1.308  10.832   9.995  0.3049  0.6235  2.8968
  319MOL0     H42051   1.318  11.079   9.814  2.3565 -1.5181  0.2849
  319MOL0     H42052   1.244  10.928   9.778  2.8442  0.4191 -1.1819
  319MOL0     H42053   1.172  11.119  10.020 -0.6749  0.3800  1.3081
  319MOL0     H42054   1.091  10.968   9.986  1.3307 -0.5986 -2.2652
  319MOL0     H42055   0.990  11.047   9.793 -3.4443  0.8662  0.4382
  319MOL0     H42056   1.075  11.203   9.793  0.0178  0.5727  0.1242
  319MOL0     H42057   0.888  11.095  10.026  0.8309  0.3494  0.9677
  319MOL0     H42058   0.946  11.256  10.011  3.4303 -2.6987  2.2242
  319MOL0     H42059   0.723  11.109   9.850  0.1690  0.1886 -1.5571
  319MOL0     H42060   0.819  11.246   9.778  1.1307 -1.3993  0.8700
  319MOL0     H42061   0.631  11.393   9.749  2.5693  0.3368  0.2870
  319MOL0     H42062   0.390  11.514   9.799  0.0223  0.8326 -0.0676
  319MOL0     H42063   0.358  11.566   9.967 -0.0999 -0.0633  0.3845
  319MOL0     H42064   0.243  11.361  10.017  0.9865  0.1618  0.8155
  319MOL0     H42065   0.294  11.290   9.858 -3.8468 -0.3935 -1.0615
  319MOL0     H42066   0.145  11.399   9.728 -0.0248 -1.5392  0.6173
  319MOL0     H42067   0.048  11.359   9.868 -2.8721  2.0824 -1.3033
  319MOL0     H42068   0.175  11.636   9.851  0.5489 -0.4395  1.0695
  319MOL0     H42069   0.027  11.579   9.931 -0.0304  0.9742 -0.9471
  319MOL0     H42070  -0.134  11.734   9.556  1.9330 -0.9251  0.6876
  319MOL0     H42071  -0.372  11.690   9.514 -0.9344  0.6036  1.3746
  319MOL0     H42072  -0.803  11.563   9.598  1.0892  0.0037  2.7102
  319MOL0     H42073  -1.028  11.483   9.543  0.4745  1.8328 -0.5955
  319MOL0     H42074  -1.195  11.356   9.445  0.2414  0.4732 -0.1552
  319MOL0     H42075  -1.215  11.392   9.609  2.1146  1.6349 -1.0487
  319MOL0     H42076  -1.431  11.315   9.536 -2.4204 -1.8908 -0.2925
  319MOL0     H42077  -1.357  11.180   9.631 -1.8631  0.3228  0.2056
  319MOL0     H42078  -1.268  11.085   9.413  2.2607  3.4494  0.1023
  319MOL0     H42079  -1.362  11.200   9.328  1.1107 -0.8405 -0.9400
  319MOL0     H42080  -1.529  11.067   9.541  0.2086 -0.9888  1.3088
  319MOL0     H42081  -1.582  11.104   9.381 -0.4436 -0.5945  2.1895
  319MOL0     H42082  -1.384  10.887   9.427 -0.5415  1.0039  2.2346
  319MOL0     H42083  -1.457  10.935   9.282  1.0446 -0.5571  1.8306
  319MOL0     H42084  -1.690  10.881   9.397  1.2879  2.6264  2.1157
  319MOL0     H42085  -1.595  10.828   9.536  0.0428 -4.3038 -0.0334
  319MOL0     H42086  -1.477  10.660   9.410  1.1329  2.6975 -2.7904
  319MOL0     H42087  -1.657  10.635   9.405  0.3576 -0.8320  2.5754
  319MOL0     H42088  -1.533  10.575   9.185 -0.9341 -0.7865  0.1879
  319MOL0     H42089  -1.497  10.742   9.166  1.5807 -2.1472  1.3987
  319MOL0     H42090  -0.908  11.086   9.685 -1.2050  1.3523  1.2409
  319MOL0     H42091  -0.691  11.177   9.743 -1.0359 -0.8501  0.5780
  319MOL0     H42092  -0.363  11.383   9.815  2.4932  0.4240  1.6181
  319MOL0     H42093  -0.137  11.447   9.875 -0.7050 -0.4630  0.3258
  319MOL0     H42094   1.946  10.887   9.851 -3.6109 -0.9803  0.7737
  319MOL0     H42095   2.197  10.900   9.969  1.5189 -0.1888  3.6501
  319MOL0     H42096   2.567  11.002  10.241 -1.1872  1.9368  2.2718
  319MOL0     H42097   2.752  10.958  10.401  0.8416 -1.0536  0.6105
  319MOL0     H42098   2.643  10.683  10.749  0.4947 -1.7950 -0.8732
  319MOL0     H42099   2.768  10.777  10.825  0.3640 -2.8754  2.3278
  319MOL0     H42100   2.857  10.534  10.749 -2.5515 -0.2505  0.1065
  319MOL0     H42101   2.827  10.594  10.583 -1.1650  0.3026  0.4516
  319MOL0     H42102   3.008  10.717  10.805  1.5035 -0.6699  0.7490
  319MOL0     H42103   2.989  10.782  10.647  0.6832 -1.5741 -1.5493
  319MOL0     H42104   3.106  10.513  10.736  0.7838 -0.6714 -1.5555
  319MOL0     H42105   3.065  10.542  10.566  0.1592 -1.6312  0.0889
  319MOL0     H42106   3.413  10.765  10.628 -0.2796  0.8194  0.2177
  319MOL0     H42107   2.486  10.731  10.637  3.2313 -1.7601 -0.3066
  319MOL0     H42108   2.299  10.764  10.479  0.2802 -1.2561 -0.7168
  320MOL0     O42109   4.222   0.713   6.261  0.3754  1.0287 -0.2460
  320MOL0     C42110   4.218   0.707   6.135 -0.5628  0.2293 -0.7584
  320MOL0     O42111   4.106   0.702   6.055 -0.1251 -0.3933  0.5214
  320MOL0     C42112   3.988   0.673   6.114 -0.6680 -0.4005  0.1319
  320MOL0     C42113   3.924   0.548   6.096 -0.2705 -0.6083  0.7578
  320MOL0     C42114   3.804   0.521   6.152  0.5838 -1.3373  0.8820
  320MOL0     C42115   3.737   0.619   6.217 -0.2483 -0.0158 -0.3001
  320MOL0     O42116   3.614   0.606   6.267  0.8990 -0.2372  0.1711
  320MOL0     C42117   3.518   0.520   6.192 -0.5405 -0.6822  1.4908
  320MOL0     C42118   3.476   0.579   6.060 -0.6675 -0.7313 -1.0011
  320MOL0     C42119   3.397   0.488   5.977  0.8514  0.2079 -0.4820
  320MOL0     C42120   3.340   0.578   5.866  0.1845  0.0823  0.1009
  320MOL0     C42121   3.292   0.496   5.748 -0.3912 -1.3793  0.7890
  320MOL0     C42122   3.162   0.436   5.769  0.3432  0.1724  0.4604
  320MOL0     C42123   3.136   0.357   5.641  0.9774  0.2119 -0.0541
  320MOL0     C42124   3.020   0.265   5.658 -0.4464 -0.6306 -0.2645
  320MOL0     N42125   2.998   0.191   5.534 -0.1876  0.0830  0.6854
  320MOL0     C42126   2.970   0.241   5.410  0.8382 -0.7386  0.4848
  320MOL0     C42127   2.907   0.142   5.341 -0.8844  0.3644  0.4867
  320MOL0     C42128   2.866   0.158   5.200 -0.1613 -0.2728 -0.1264
  320MOL0     C42129   2.714   0.128   5.197 -0.8844 -0.0994 -0.3101
  320MOL0     C42130   2.656   0.142   5.062 -0.5803 -0.0822 -0.5129
  320MOL0     C42131   2.504   0.143   5.061 -0.4875  0.8171 -0.1482
  320MOL0     O42132   2.449   0.036   5.143  0.4622  0.0718  0.2042
  320MOL0     C42133   2.309   0.023   5.147  0.8813 -0.3681  0.1779
  320MOL0     C42134   2.250  -0.102   5.174 -0.1375  0.1049  0.9668
  320MOL0     C42135   2.114  -0.126   5.173 -0.1231 -0.1283 -0.1090
  320MOL0     C42136   2.032  -0.013   5.163 -0.0611  1.4603  0.1454
  320MOL0     C42137   1.882  -0.031   5.160 -1.5126 -0.5304 -0.1178
  320MOL0     O42138   1.819   0.082   5.139 -0.1331 -1.1237 -0.0517
  320MOL0     C42139   1.689   0.070   5.114  0.6827 -0.5415  0.1286
  320MOL0     C42140   1.586   0.070   5.212  0.4102  0.1264 -0.3591
  320MOL0     C42141   1.447   0.074   5.182 -0.4434 -0.1058  0.0646
  320MOL0     C42142   1.396   0.072   5.058  0.3076 -0.6601  0.8890
  320MOL0     O42143   1.259   0.068   5.036 -0.3348 -0.1570  0.4604
  320MOL0     C42144   1.184  -0.041   5.094  0.0434  0.4456 -0.4254
  320MOL0     C42145   1.123  -0.005   5.224  0.0517  0.8265  0.0205
  320MOL0     C42146   1.042   0.125   5.234 -0.1569 -0.3601 -0.5765
  320MOL0     C42147   0.919   0.107   5.332  0.3372 -0.2050  0.4039
  320MOL0     C42148   0.786   0.060   5.261 -0.9571  0.2745  0.3092
  320MOL0     C42149   0.694   0.178   5.238  0.7942 -0.3224  0.6120
  320MOL0     C42150   0.589   0.175   5.124 -0.1420 -0.5150  0.0970
  320MOL0     C42151   0.478   0.061   5.139 -0.4955 -0.3107  0.0915
  320MOL0    Cl42152   0.374   0.118   5.280 -0.5507 -0.4326  0.3776
  320MOL0     C42153   1.494   0.077   4.957  0.1567 -0.0098  0.3962
  320MOL0     C42154   1.639   0.065   4.982 -0.5255 -0.6004  0.3010
  320MOL0     O42155   1.838  -0.140   5.176 -0.2500  0.2297 -0.7199
  320MOL0     C42156   2.085   0.115   5.135  0.4762 -0.0379  0.1564
  320MOL0     C42157   2.218   0.133   5.123 -1.0942  0.2603  0.0615
  320MOL0     N42158   2.901   0.028   5.419 -0.1263  0.3670  1.4782
  320MOL0     N42159   2.952   0.061   5.534 -0.1867 -0.3478  0.3640
  320MOL0     C42160   3.796   0.742   6.236 -0.0389 -0.4510  0.1153
  320MOL0     C42161   3.920   0.777   6.179 -0.7899  0.2634 -0.7582
  320MOL0     C42162   4.342   0.735   6.061  0.7638 -0.0505 -0.1608
  320MOL0     C42163   4.367   0.695   5.932  0.6199 -0.2538 -0.1703
  320MOL0     C42164   4.485   0.716   5.856 -0.2730  0.8567 -0.0836
  320MOL0     C42165   4.598   0.771   5.919 -0.4275  0.3010  0.1270
  320MOL0     O42166   4.719   0.784   5.846  0.0000  0.1181  0.7622
  320MOL0     C42167   4.845   0.838   5.902 -0.0704  0.1140  0.3821
  320MOL0     C42168   4.965   0.821   5.802  0.2496  0.0954 -0.2339
  320MOL0     C42169   4.938   0.925   5.689  0.1532 -0.0460  0.5226
  320MOL0     C42170   5.045   0.922   5.583  0.5739 -0.2133  0.2940
  320MOL0     C42171   4.990   0.934   5.443  0.6818 -0.1540  0.2602
  320MOL0     C42172   4.948   0.935   5.336  0.2125 -0.0114  1.3181
  320MOL0     C42173   4.571   0.830   6.044  0.1850 -1.1023 -0.8299
  320MOL0     C42174   4.454   0.811   6.117  0.5607  0.5423  0.1038
  320MOL0     H42175   3.961   0.462   6.042 -0.9252  0.6109 -1.7893
  320MOL0     H42176   3.760   0.422   6.160 -1.0741 -0.6655  0.3198
  320MOL0     H42177   3.442   0.509   6.270 -0.5808  1.1700  1.7558
  320MOL0     H42178   3.565   0.424   6.170 -0.8386 -0.6130  0.5277
  320MOL0     H42179   3.562   0.623   6.008 -0.6797  1.0659  0.4031
  320MOL0     H42180   3.424   0.671   6.087 -0.6358 -0.6340 -1.2694
  320MOL0     H42181   3.310   0.445   6.028  1.4044  2.0644  2.2317
  320MOL0     H42182   3.463   0.412   5.933 -0.8392 -0.3579 -2.1686
  320MOL0     H42183   3.260   0.643   5.904  0.2958 -0.9072  2.2002
  320MOL0     H42184   3.416   0.651   5.835  0.5120 -0.5624 -0.6431
  320MOL0     H42185   3.368   0.420   5.727 -0.3753 -0.8982 -1.1243
  320MOL0     H42186   3.291   0.568   5.665 -0.9933 -0.5987  1.4562
  320MOL0     H42187   3.092   0.521   5.771 -0.3280 -0.3758  0.5013
  320MOL0     H42188   3.155   0.378   5.861  1.8051 -4.6902 -2.1397
  320MOL0     H42189   3.120   0.420   5.553 -1.2453  1.5560  1.1816
  320MOL0     H42190   3.224   0.295   5.622  0.4884 -0.5781  0.2152
  320MOL0     H42191   2.932   0.328   5.675 -0.1130 -0.6448  1.7471
  320MOL0     H42192   3.045   0.203   5.745  2.6664 -0.6687 -1.0580
  320MOL0     H42193   2.972   0.343   5.373 -2.4388 -0.0947  1.6752
  320MOL0     H42194   2.912   0.073   5.148  0.2288 -2.7594  3.8468
  320MOL0     H42195   2.900   0.252   5.157  1.4016 -1.4917 -1.7092
  320MOL0     H42196   2.664   0.201   5.263 -0.9025 -0.6942  0.3489
  320MOL0     H42197   2.695   0.032   5.245 -1.8838  1.2138  2.1717
  320MOL0     H42198   2.698   0.236   5.024  1.0429 -0.6133 -0.1127
  320MOL0     H42199   2.696   0.053   5.012 -0.2750 -1.2841  1.7537
  320MOL0     H42200   2.465   0.139   4.959  1.0949 -1.0175 -0.7402
  320MOL0     H42201   2.478   0.241   5.103  0.9790  0.8031  0.8853
  320MOL0     H42202   2.320  -0.184   5.186  3.0504  2.4346 -0.1339
  320MOL0     H42203   2.069  -0.224   5.188  0.7559 -1.4540 -4.5742
  320MOL0     H42204   1.612   0.056   5.316  0.4100 -2.5403 -0.6485
  320MOL0     H42205   1.373   0.085   5.261 -0.4663  0.5794 -0.0526
  320MOL0     H42206   1.255  -0.124   5.099  0.8048  1.0799 -0.3585
  320MOL0     H42207   1.111  -0.088   5.027  2.4320 -1.7877 -1.6439
  320MOL0     H42208   1.202  -0.012   5.300  0.4882 -0.4288 -0.5123
  320MOL0     H42209   1.055  -0.086   5.252 -1.4093  2.3535  1.0451
  320MOL0     H42210   1.007   0.169   5.141  3.0547  1.0293 -1.2477
  320MOL0     H42211   1.105   0.205   5.273  0.2089 -0.0547 -1.7591
  320MOL0     H42212   0.933   0.028   5.406  1.3745  0.2634  0.7203
  320MOL0     H42213   0.886   0.187   5.399 -0.6336 -0.6112  0.4365
  320MOL0     H42214   0.743  -0.018   5.325 -2.2647  1.0200  0.3733
  320MOL0     H42215   0.800   0.021   5.159 -0.8387  1.0055  0.0381
  320MOL0     H42216   0.765   0.259   5.219 -2.1111  1.8899 -1.8050
  320MOL0     H42217   0.650   0.192   5.337  0.1305 -3.0481  0.8030
  320MOL0     H42218   0.543   0.273   5.106  2.8086  0.7213 -1.4218
  320MOL0     H42219   0.651   0.144   5.040  0.8124 -3.2686  1.6964
  320MOL0     H42220   0.529  -0.033   5.165  2.5103  1.6410  2.0200
  320MOL0     H42221   0.422   0.048   5.046  0.2530 -2.6134 -0.1077
  320MOL0     H42222   1.454   0.093   4.858  0.0046  0.9658  0.6081
  320MOL0     H42223   1.709   0.075   4.900 -1.6124  2.6200 -0.3954
  320MOL0     H42224   2.021   0.201   5.118  1.0657  0.7293  1.6540
  320MOL0     H42225   2.240   0.237   5.102 -4.5310  1.1195  0.2107
  320MOL0     H42226   3.740   0.826   6.276  0.9467  1.1060 -1.6239
  320MOL0     H42227   3.971   0.871   6.193  2.0220 -1.3452  0.6652
  320MOL0     H42228   4.289   0.647   5.874  0.7457 -1.1443  0.3723
  320MOL0     H42229   4.497   0.683   5.754  0.0016  0.2460  0.1385
  320MOL0     H42230   4.857   0.791   6.000  1.2297  0.2333  0.2899
  320MOL0     H42231   4.829   0.944   5.921  0.7445  0.5092 -1.0264
  320MOL0     H42232   5.063   0.853   5.839  2.0254 -2.5952 -2.2394
  320MOL0     H42233   4.976   0.718   5.769 -0.9358  0.6354 -2.5273
  320MOL0     H42234   4.938   1.026   5.730  3.2032  1.0622 -1.7700
  320MOL0     H42235   4.842   0.908   5.639 -0.4868  2.1733  0.9229
  320MOL0     H42236   5.112   1.006   5.603 -1.9793  2.4794 -1.5673
  320MOL0     H42237   5.096   0.827   5.599  2.2109  0.4383 -0.8543
  320MOL0     H42238   4.902   0.918   5.241  0.4432  0.1169  1.1813
  320MOL0     H42239   4.660   0.885   6.073 -0.3957 -0.5600 -0.0286
  320MOL0     H42240   4.457   0.854   6.217  2.7032  0.4815  0.1165
  321MOL0     O42241   6.500   7.211   8.758 -0.0179 -0.4767 -0.9473
  321MOL0     C42242   6.513   7.089   8.760 -0.2468 -0.4365  0.0971
  321MOL0     O42243   6.412   6.994   8.748 -0.2900  0.1611  0.7636
  321MOL0     C42244   6.280   7.005   8.728 -0.5347 -1.1078  0.4986
  321MOL0     C42245   6.218   7.121   8.676  0.1265  0.3178 -0.2355
  321MOL0     C42246   6.076   7.124   8.656  0.2077 -0.5881 -0.1147
  321MOL0     C42247   6.001   7.017   8.693  0.1472  0.2078 -1.3186
  321MOL0     O42248   5.861   7.002   8.678 -0.7474 -0.4004 -1.2291
  321MOL0     C42249   5.789   7.090   8.597  0.5515 -0.9630  0.2852
  321MOL0     C42250   5.697   7.155   8.691  0.7686  0.0097 -0.5412
  321MOL0     C42251   5.578   7.211   8.615  0.6482 -0.2062 -0.2591
  321MOL0     C42252   5.451   7.253   8.694 -0.1149 -0.3262 -0.8549
  321MOL0     C42253   5.466   7.403   8.745  0.6692  0.3154  0.5762
  321MOL0     C42254   5.365   7.422   8.859  0.4761  0.3881  0.0536
  321MOL0     C42255   5.217   7.439   8.811  1.2085  0.2385  0.1024
  321MOL0     C42256   5.123   7.444   8.933 -0.4624 -0.4847  0.5235
  321MOL0     N42257   4.986   7.481   8.893  1.1488  0.2664  0.6507
  321MOL0     C42258   4.912   7.575   8.951  0.6831  0.9101  0.1136
  321MOL0     C42259   4.784   7.570   8.900  0.2198 -0.2898  0.2313
  321MOL0     C42260   4.669   7.654   8.945 -1.5947  0.2666 -0.0092
  321MOL0     C42261   4.557   7.645   8.849  0.1723 -0.0298 -0.5280
  321MOL0     C42262   4.452   7.763   8.877  0.5762 -0.1151  0.3456
  321MOL0     C42263   4.324   7.744   8.794  0.6983 -0.2162  0.1159
  321MOL0     O42264   4.238   7.647   8.852  0.3624  0.3556  0.8489
  321MOL0     C42265   4.110   7.644   8.792 -0.8498 -0.2925  0.2896
  321MOL0     C42266   4.062   7.733   8.696 -0.7636 -1.4357  0.9065
  321MOL0     C42267   3.923   7.714   8.654 -1.3717  0.0222 -0.6530
  321MOL0     C42268   3.845   7.615   8.703  0.9165 -0.4927  1.0385
  321MOL0     C42269   3.707   7.599   8.653  0.7412 -0.1433  0.0173
  321MOL0     O42270   3.661   7.679   8.552 -0.2167 -0.2209 -0.3940
  321MOL0     C42271   3.524   7.691   8.525  0.4250 -0.4678 -1.2243
  321MOL0     C42272   3.438   7.582   8.497 -0.6160 -0.0436  0.0232
  321MOL0     C42273   3.302   7.601   8.478  0.6551 -0.5554  0.1139
  321MOL0     C42274   3.245   7.725   8.503  0.5507 -0.6630 -0.1646
  321MOL0     O42275   3.114   7.754   8.484 -0.7253  0.6558  0.8187
  321MOL0     C42276   3.019   7.645   8.477  0.7808 -0.0367 -0.3403
  321MOL0     C42277   2.881   7.716   8.480 -0.3614  0.1664 -0.8837
  321MOL0     C42278   2.777   7.610   8.515  0.5172 -0.4708 -0.1155
  321MOL0     C42279   2.641   7.672   8.519 -0.4460 -0.4076 -0.0525
  321MOL0     C42280   2.520   7.579   8.525  0.1671  0.6097  0.5895
  321MOL0     C42281   2.411   7.667   8.583  0.7690  0.3038 -0.7376
  321MOL0     C42282   2.288   7.582   8.587  0.3285 -0.2216 -0.0184
  321MOL0     C42283   2.196   7.569   8.467 -0.2445  0.1449 -0.6616
  321MOL0    Cl42284   2.129   7.735   8.454 -0.0264  0.2542  0.2325
  321MOL0     C42285   3.327   7.835   8.544 -0.3508  0.4053 -0.0868
  321MOL0     C42286   3.463   7.814   8.550  0.0158  0.2029 -1.0962
  321MOL0     O42287   3.641   7.513   8.709  0.7844  0.1284 -0.8759
  321MOL0     C42288   3.905   7.523   8.782 -0.3375  0.2459  0.0391
  321MOL0     C42289   4.032   7.537   8.832  0.2375  0.4464 -0.7069
  321MOL0     N42290   4.777   7.468   8.809 -0.1961  0.0173 -0.0380
  321MOL0     N42291   4.893   7.411   8.814 -0.7724 -0.0948  0.6052
  321MOL0     C42292   6.065   6.904   8.742 -0.3916 -0.5554 -0.0547
  321MOL0     C42293   6.201   6.904   8.779  0.3625  0.4190  0.3044
  321MOL0     C42294   6.653   7.045   8.770  0.3865 -0.2168 -0.9933
  321MOL0     C42295   6.682   6.915   8.805  0.2336  0.0700  0.6555
  321MOL0     C42296   6.820   6.871   8.826  0.3225  0.5769 -0.0226
  321MOL0     C42297   6.924   6.964   8.823  0.6339  0.1150  0.1188
  321MOL0     O42298   7.059   6.939   8.838 -0.4706  0.7636  0.4017
  321MOL0     C42299   7.093   6.828   8.927 -0.5334  0.4096  0.1035
  321MOL0     C42300   7.247   6.857   8.962  0.2618 -0.1272 -1.4590
  321MOL0     C42301   7.332   6.727   8.994  0.4720  0.2264 -0.2615
  321MOL0     C42302   7.478   6.729   8.940  0.1751  0.4191  0.0439
  321MOL0     C42303   7.529   6.594   8.926 -1.0732 -0.1290 -1.0545
  321MOL0     C42304   7.584   6.485   8.902 -0.1006  0.4600  0.0796
  321MOL0     C42305   6.891   7.092   8.795  0.1593 -0.1869 -0.1774
  321MOL0     C42306   6.758   7.144   8.770  0.7116  0.1861  0.8174
  321MOL0     H42307   6.268   7.216   8.658  2.0375 -0.0176  2.5507
  321MOL0     H42308   6.030   7.217   8.624  0.5658 -0.4083 -0.1121
  321MOL0     H42309   5.733   7.036   8.520 -0.3188  0.1773  0.0851
  321MOL0     H42310   5.847   7.172   8.552 -0.9895  1.4615  2.4410
  321MOL0     H42311   5.745   7.244   8.734  0.6532  1.0448 -2.4310
  321MOL0     H42312   5.669   7.081   8.766 -2.3570  1.2199 -0.3475
  321MOL0     H42313   5.527   7.134   8.557 -1.4988 -0.6238  2.0325
  321MOL0     H42314   5.603   7.281   8.534 -1.0577 -0.8234 -1.3686
  321MOL0     H42315   5.367   7.239   8.625  0.6285  3.3651 -2.7518
  321MOL0     H42316   5.439   7.178   8.773  1.4024 -1.9118 -2.0378
  321MOL0     H42317   5.457   7.469   8.659  0.8787  1.0045  1.0790
  321MOL0     H42318   5.568   7.402   8.784  0.3699 -3.8507  1.7974
  321MOL0     H42319   5.390   7.507   8.924 -0.1965  1.6828 -1.3336
  321MOL0     H42320   5.360   7.334   8.924  2.6843  0.7451  0.7927
  321MOL0     H42321   5.206   7.531   8.753 -0.1081 -1.3642 -2.3777
  321MOL0     H42322   5.179   7.362   8.743  0.7594  0.0010  0.6107
  321MOL0     H42323   5.158   7.518   9.006  0.4135 -0.3104 -0.0566
  321MOL0     H42324   5.123   7.347   8.983  0.3725 -0.0123  1.4936
  321MOL0     H42325   4.951   7.648   9.021  0.0828  0.5305  0.8567
  321MOL0     H42326   4.698   7.759   8.946  0.8567 -0.3279 -1.0232
  321MOL0     H42327   4.645   7.637   9.051 -1.7858 -3.2667 -0.5123
  321MOL0     H42328   4.509   7.548   8.864 -1.0174  0.7615  1.1179
  321MOL0     H42329   4.592   7.654   8.746  0.7775 -1.7658 -0.4999
  321MOL0     H42330   4.413   7.750   8.979 -1.6698  0.9626 -0.3085
  321MOL0     H42331   4.498   7.862   8.868 -0.5460  0.3302 -0.8279
  321MOL0     H42332   4.353   7.721   8.691  0.3559  0.1147 -0.0549
  321MOL0     H42333   4.271   7.839   8.796 -1.3459 -1.3052  0.1608
  321MOL0     H42334   4.118   7.821   8.665 -2.8143  0.1264  1.3850
  321MOL0     H42335   3.895   7.780   8.573  0.3085  0.6998 -0.7366
  321MOL0     H42336   3.471   7.481   8.476 -1.6579 -0.4716  0.3684
  321MOL0     H42337   3.245   7.517   8.438  0.3931 -0.0181 -0.6656
  321MOL0     H42338   3.028   7.580   8.565  3.2357 -0.6116 -0.9558
  321MOL0     H42339   3.028   7.581   8.389 -0.9492 -0.5925 -0.1449
  321MOL0     H42340   2.852   7.770   8.390 -0.5290 -0.2891 -1.1045
  321MOL0     H42341   2.874   7.795   8.556 -1.7608  1.7746 -2.6003
  321MOL0     H42342   2.803   7.575   8.615 -0.7530  2.4891  1.3427
  321MOL0     H42343   2.768   7.528   8.443 -1.2339  0.7356 -1.3450
  321MOL0     H42344   2.646   7.740   8.605 -3.4860 -1.0521  0.7564
  321MOL0     H42345   2.640   7.735   8.430  1.4978  1.3854  1.1091
  321MOL0     H42346   2.528   7.494   8.593 -2.7990 -3.1528 -3.1606
  321MOL0     H42347   2.486   7.535   8.431  2.6229  1.9122 -1.0217
  321MOL0     H42348   2.396   7.759   8.526 -3.0146 -1.3353 -2.7680
  321MOL0     H42349   2.431   7.701   8.685 -2.4596  0.0454  0.1095
  321MOL0     H42350   2.321   7.489   8.633  1.2157  1.0714  2.0653
  321MOL0     H42351   2.211   7.625   8.651  0.4661  0.0241 -0.0168
  321MOL0     H42352   2.120   7.494   8.492 -0.3517 -1.0179 -4.0373
  321MOL0     H42353   2.247   7.530   8.379  3.4098  2.2492  0.3402
  321MOL0     H42354   3.297   7.939   8.558  1.5272  0.9181  0.5928
  321MOL0     H42355   3.535   7.890   8.577 -0.0038 -0.3906  0.7894
  321MOL0     H42356   3.856   7.430   8.807 -0.9640  0.1863 -1.3023
  321MOL0     H42357   4.067   7.459   8.898  2.3344 -0.5057 -2.8160
  321MOL0     H42358   5.998   6.826   8.779  0.3284 -1.0799  0.1669
  321MOL0     H42359   6.244   6.824   8.838 -1.4893 -0.7681  0.1224
  321MOL0     H42360   6.602   6.845   8.828  1.5015 -1.7454 -0.1227
  321MOL0     H42361   6.827   6.765   8.851  2.1095  1.2938  3.1304
  321MOL0     H42362   7.068   6.729   8.888 -2.1817  0.5606  0.6868
  321MOL0     H42363   7.037   6.825   9.021  2.3722  2.3487  2.0653
  321MOL0     H42364   7.289   6.903   8.873 -0.6241  2.5491 -0.5735
  321MOL0     H42365   7.249   6.935   9.038  1.3651 -2.8759  1.6028
  321MOL0     H42366   7.275   6.654   8.936 -0.6839  2.4660 -2.1348
  321MOL0     H42367   7.340   6.706   9.101  6.3992  1.8494 -0.0577
  321MOL0     H42368   7.482   6.777   8.842  0.1124  1.4530  0.5282
  321MOL0     H42369   7.541   6.782   9.012 -1.0943  0.7453  0.9550
  321MOL0     H42370   7.631   6.390   8.885  0.9403  0.0865  4.1177
  321MOL0     H42371   6.970   7.164   8.777  0.4031 -0.2488  0.6097
  321MOL0     H42372   6.738   7.247   8.743 -0.5214 -0.1511  0.3318
  322MOL0     O42373   8.463   3.585   4.154 -0.1460 -0.0270 -0.2319
  322MOL0     C42374   8.489   3.703   4.107  0.2164 -0.5041  0.7487
  322MOL0     O42375   8.408   3.816   4.126  0.1660 -0.2576  0.0281
  322MOL0     C42376   8.279   3.797   4.178  0.1961  0.3254  0.0947
  322MOL0     C42377   8.217   3.913   4.229 -0.2358  0.0730 -0.0584
  322MOL0     C42378   8.081   3.909   4.276 -0.4289  0.8010 -0.0751
  322MOL0     C42379   8.006   3.794   4.278  0.2523 -0.4298  0.5167
  322MOL0     O42380   7.873   3.796   4.327 -0.3522  0.3560 -0.5195
  322MOL0     C42381   7.841   3.840   4.456  0.2504 -0.1675 -0.0977
  322MOL0     C42382   7.754   3.731   4.520 -0.0862  0.2054  0.1503
  322MOL0     C42383   7.607   3.767   4.504  0.4379  0.3732  0.1147
  322MOL0     C42384   7.520   3.656   4.528 -0.4014 -0.9234 -0.1248
  322MOL0     C42385   7.376   3.697   4.552 -0.0451 -1.7129  0.4266
  322MOL0     C42386   7.297   3.732   4.424  0.0709 -0.2076 -0.8889
  322MOL0     C42387   7.150   3.769   4.469 -0.1973  0.4132 -0.5592
  322MOL0     C42388   7.065   3.784   4.343 -0.5585 -0.3817  0.3519
  322MOL0     N42389   6.984   3.658   4.316 -0.6655 -0.3160 -0.5101
  322MOL0     C42390   7.041   3.550   4.251 -0.6046  0.0939  0.0700
  322MOL0     C42391   6.947   3.453   4.262 -0.8876 -0.6036  0.1035
  322MOL0     C42392   6.952   3.324   4.188  0.6933 -0.4766 -0.4516
  322MOL0     C42393   6.838   3.315   4.083 -0.1383  0.4173  0.9239
  322MOL0     C42394   6.722   3.225   4.118 -0.5069 -0.7255  1.1632
  322MOL0     C42395   6.594   3.278   4.034 -0.6202  0.8113  0.4108
  322MOL0     O42396   6.483   3.187   4.063  0.2796 -0.1538 -1.0060
  322MOL0     C42397   6.364   3.227   4.006  0.0854 -0.7712 -0.7057
  322MOL0     C42398   6.266   3.131   3.992 -0.0573 -0.8920 -0.3673
  322MOL0     C42399   6.140   3.156   3.931 -0.5734 -0.8149  0.1632
  322MOL0     C42400   6.112   3.278   3.880 -0.2581 -0.8057 -0.3188
  322MOL0     C42401   5.973   3.319   3.840  0.5892 -1.0012 -0.0056
  322MOL0     O42402   5.955   3.447   3.799 -0.2007  0.6176 -0.3736
  322MOL0     C42403   5.836   3.477   3.736 -0.2610  0.2363 -0.7585
  322MOL0     C42404   5.822   3.472   3.600 -0.8577 -0.1071  0.0355
  322MOL0     C42405   5.704   3.494   3.537 -0.5288  0.7145 -0.1245
  322MOL0     C42406   5.586   3.511   3.622 -0.3978  0.0300  0.3181
  322MOL0     O42407   5.462   3.514   3.572  0.3871 -0.3479  0.0277
  322MOL0     C42408   5.432   3.443   3.454  0.8890 -0.1104 -0.3129
  322MOL0     C42409   5.280   3.442   3.440  0.6379  0.4963  0.1727
  322MOL0     C42410   5.201   3.569   3.404 -0.6848  0.7350 -0.7791
  322MOL0     C42411   5.235   3.606   3.263 -0.6533  0.1134  0.2565
  322MOL0     C42412   5.127   3.707   3.211  0.3670  0.0483  0.8161
  322MOL0     C42413   5.177   3.760   3.069 -0.6192 -0.3582  0.2176
  322MOL0     C42414   5.098   3.874   2.997  1.0605  0.3875  0.3043
  322MOL0     C42415   5.156   3.886   2.861 -0.0566 -1.0775  0.2714
  322MOL0    Cl42416   5.328   3.937   2.857 -0.0657 -0.3156  0.1824
  322MOL0     C42417   5.598   3.526   3.759  0.4464  0.2111 -0.6356
  322MOL0     C42418   5.723   3.504   3.812  0.7250 -0.6648 -0.1015
  322MOL0     O42419   5.882   3.236   3.832 -0.2340 -0.2773 -0.8417
  322MOL0     C42420   6.216   3.379   3.885  0.5510  0.0709 -0.3183
  322MOL0     C42421   6.336   3.355   3.953  0.3864 -0.4325  0.3843
  322MOL0     N42422   6.844   3.505   4.348 -0.4491 -0.6476  0.9953
  322MOL0     N42423   6.862   3.634   4.367  0.1349  0.6036  0.0201
  322MOL0     C42424   8.059   3.680   4.222 -0.7954  0.2013  0.5844
  322MOL0     C42425   8.187   3.683   4.161 -0.5738  0.3264 -0.0031
  322MOL0     C42426   8.602   3.724   4.015 -0.0579  0.3682  0.9633
  322MOL0     C42427   8.623   3.849   3.963  0.9731  1.2893  0.7146
  322MOL0     C42428   8.738   3.865   3.879 -0.3092 -0.3539  0.4840
  322MOL0     C42429   8.829   3.773   3.844  0.3251  0.4119  0.8071
  322MOL0     O42430   8.943   3.819   3.777  0.5255 -0.2813  1.5979
  322MOL0     C42431   9.033   3.721   3.729  0.0671 -0.4914 -0.2711
  322MOL0     C42432   9.151   3.704   3.816 -0.0409  0.4498  0.0900
  322MOL0     C42433   9.238   3.825   3.839  1.0810  0.2131 -0.5641
  322MOL0     C42434   9.387   3.810   3.819 -0.5389 -0.2788 -0.2059
  322MOL0     C42435   9.417   3.828   3.678  1.0785  0.0072 -0.1045
  322MOL0     C42436   9.468   3.841   3.568 -0.0764 -0.8201  0.2757
  322MOL0     C42437   8.813   3.645   3.911  0.2787  0.1389 -0.3705
  322MOL0     C42438   8.697   3.623   3.984 -0.3401  0.2562  0.2945
  322MOL0     H42439   8.272   4.007   4.232  1.3430 -0.7424 -1.6200
  322MOL0     H42440   8.043   4.002   4.318  0.4810  0.4579  1.5693
  322MOL0     H42441   7.808   3.943   4.467  1.8057  0.4267 -0.6586
  322MOL0     H42442   7.934   3.827   4.513  1.5545  0.1675 -2.0764
  322MOL0     H42443   7.780   3.715   4.625 -2.8227 -2.1296  0.5953
  322MOL0     H42444   7.764   3.635   4.469  1.3101  1.5714 -2.3267
  322MOL0     H42445   7.593   3.811   4.405 -0.2413  3.2484  1.3671
  322MOL0     H42446   7.578   3.845   4.575 -0.9590  2.7691 -2.8693
  322MOL0     H42447   7.524   3.608   4.430  4.3252  0.8652 -1.1136
  322MOL0     H42448   7.558   3.597   4.612  3.2640  0.3990 -0.6672
  322MOL0     H42449   7.378   3.782   4.620 -1.2714 -1.7951  0.5927
  322MOL0     H42450   7.323   3.611   4.596  0.2085 -1.8399  0.4868
  322MOL0     H42451   7.305   3.642   4.362  0.2532 -1.9796  1.5518
  322MOL0     H42452   7.342   3.814   4.368 -0.6206  0.7160 -0.1339
  322MOL0     H42453   7.104   3.702   4.541 -0.7694  1.8565  0.4427
  322MOL0     H42454   7.158   3.865   4.520 -0.1025  0.2421 -0.2553
  322MOL0     H42455   7.133   3.810   4.262 -1.4987 -0.0787 -0.3586
  322MOL0     H42456   6.996   3.869   4.347 -1.7379 -1.2360 -1.0184
  322MOL0     H42457   7.134   3.548   4.195 -0.0545  3.0724  0.6781
  322MOL0     H42458   6.938   3.237   4.253 -2.4419  0.8133  0.7861
  322MOL0     H42459   7.050   3.321   4.138 -0.0842  1.1036 -2.1740
  322MOL0     H42460   6.892   3.289   3.991  1.8581  2.7837  1.3182
  322MOL0     H42461   6.801   3.414   4.053  0.8649 -0.2780 -3.2581
  322MOL0     H42462   6.741   3.117   4.113 -1.0016 -0.9085  2.8213
  322MOL0     H42463   6.697   3.243   4.223 -1.0247 -1.8059  1.2375
  322MOL0     H42464   6.616   3.263   3.928 -0.1022  0.2363  0.5917
  322MOL0     H42465   6.578   3.382   4.062  0.5398  0.8930  0.7959
  322MOL0     H42466   6.300   3.032   4.021  0.7850 -0.1410  1.3564
  322MOL0     H42467   6.076   3.068   3.929 -1.7616  0.0357 -1.2673
  322MOL0     H42468   5.904   3.456   3.531 -2.1366 -0.1541 -1.5493
  322MOL0     H42469   5.692   3.461   3.434 -1.0317  0.0801  0.1296
  322MOL0     H42470   5.459   3.338   3.467  1.2992  0.2576  2.2728
  322MOL0     H42471   5.487   3.482   3.368  1.4423 -0.7305 -0.2436
  322MOL0     H42472   5.248   3.402   3.536  2.2728  1.4429  1.1629
  322MOL0     H42473   5.252   3.369   3.363 -0.3642 -3.0337  3.5872
  322MOL0     H42474   5.229   3.646   3.476 -3.1915  1.6155 -0.6601
  322MOL0     H42475   5.095   3.544   3.415 -1.0264  2.5413  0.4553
  322MOL0     H42476   5.333   3.654   3.262 -1.1819  1.3368 -2.6340
  322MOL0     H42477   5.233   3.522   3.193  0.8983  0.8846 -0.7511
  322MOL0     H42478   5.124   3.786   3.286  6.2147  2.1147 -0.5681
  322MOL0     H42479   5.031   3.655   3.199  0.1708  0.6876 -0.5873
  322MOL0     H42480   5.174   3.671   3.006  0.4380 -1.6724  1.9360
  322MOL0     H42481   5.283   3.785   3.075 -1.1491  1.8922  1.4437
  322MOL0     H42482   4.990   3.854   2.992  1.4937 -2.0145 -2.3064
  322MOL0     H42483   5.108   3.974   3.040  2.8670  0.5491 -0.4068
  322MOL0     H42484   5.104   3.968   2.811  2.5555  1.4715  1.4477
  322MOL0     H42485   5.141   3.795   2.802  1.9826 -1.1763 -0.1940
  322MOL0     H42486   5.508   3.554   3.813  0.1401  0.9261 -1.4928
  322MOL0     H42487   5.729   3.513   3.919 -0.4218  4.9008 -0.1859
  322MOL0     H42488   6.205   3.482   3.855 -1.1724  0.4115  1.2572
  322MOL0     H42489   6.403   3.440   3.964 -0.3739  0.0324  1.6234
  322MOL0     H42490   7.999   3.591   4.230  1.5050 -1.3686  1.5130
  322MOL0     H42491   8.228   3.593   4.117 -0.6020 -0.9250  2.3705
  322MOL0     H42492   8.569   3.941   3.983 -0.4691  0.4340  0.8914
  322MOL0     H42493   8.740   3.966   3.842 -3.1018 -0.8527 -1.3262
  322MOL0     H42494   9.066   3.755   3.630 -1.4105 -0.5743 -0.8269
  322MOL0     H42495   8.983   3.629   3.698  2.8584 -0.8817 -4.4227
  322MOL0     H42496   9.139   3.639   3.904  1.4810 -0.8286 -0.5844
  322MOL0     H42497   9.213   3.632   3.761  2.0089 -0.5843  3.4089
  322MOL0     H42498   9.215   3.851   3.943  1.2358 -2.4540  0.2126
  322MOL0     H42499   9.203   3.898   3.765  0.4950 -1.1458 -1.6826
  322MOL0     H42500   9.441   3.895   3.862  0.4956 -0.5167 -1.0004
  322MOL0     H42501   9.438   3.720   3.854  0.7350 -0.3801 -2.1591
  322MOL0     H42502   9.514   3.855   3.472 -4.0276  0.8237 -1.6301
  322MOL0     H42503   8.894   3.573   3.902  0.2489  0.0516  0.0377
  322MOL0     H42504   8.688   3.518   4.013 -2.4365 -0.3689 -2.2446
  323MOL0     O42505  10.954   8.298   4.136 -0.1729 -0.1737 -0.3408
  323MOL0     C42506  11.013   8.270   4.237  0.8676  0.0371  0.3803
  323MOL0     O42507  11.003   8.332   4.365  0.5419 -0.6489 -0.3213
  323MOL0     C42508  10.931   8.450   4.380  0.1256 -0.9307 -0.6387
  323MOL0     C42509  10.979   8.551   4.461  0.7616 -0.3773 -0.0386
  323MOL0     C42510  10.894   8.656   4.500 -0.6994  0.2788 -0.3787
  323MOL0     C42511  10.765   8.673   4.463 -0.3770  0.3046  0.0925
  323MOL0     O42512  10.692   8.786   4.510  0.0190 -0.1773 -0.1108
  323MOL0     C42513  10.557   8.798   4.473 -0.7374  0.0596  0.0054
  323MOL0     C42514  10.492   8.905   4.561 -0.6674  0.3790  1.1792
  323MOL0     C42515  10.337   8.908   4.540 -0.7143 -0.1410  0.2029
  323MOL0     C42516  10.277   9.029   4.605  0.7083  0.3710  0.3677
  323MOL0     C42517  10.125   9.008   4.639 -0.0568  1.0276  0.3853
  323MOL0     C42518  10.031   9.004   4.523  0.8008 -0.5698 -0.5769
  323MOL0     C42519   9.885   8.979   4.568 -0.1291 -0.2957 -0.3406
  323MOL0     C42520   9.839   9.080   4.662  0.1782 -0.2050 -0.1844
  323MOL0     N42521   9.698   9.050   4.698  0.4565  0.0356 -0.4527
  323MOL0     C42522   9.652   9.032   4.829 -0.1106 -0.0136  0.1361
  323MOL0     C42523   9.526   8.992   4.816 -0.3616 -0.3516  0.4390
  323MOL0     C42524   9.439   8.944   4.932 -0.0101 -0.0130  0.3329
  323MOL0     C42525   9.291   8.988   4.915 -1.2478 -0.0252  0.0376
  323MOL0     C42526   9.281   9.140   4.934 -0.1650  0.0321  0.8393
  323MOL0     C42527   9.138   9.187   4.943  0.5984 -0.2973 -0.3345
  323MOL0     O42528   9.070   9.092   5.028  0.6915  0.4003  0.6201
  323MOL0     C42529   8.935   9.100   5.039 -1.0570  0.9987 -0.6617
  323MOL0     C42530   8.880   9.014   5.131  0.8797  0.1390 -0.1664
  323MOL0     C42531   8.744   9.018   5.165  0.2303 -0.1132 -0.3718
  323MOL0     C42532   8.657   9.111   5.095  1.7194  1.1709 -0.2663
  323MOL0     C42533   8.509   9.101   5.113  0.2452 -0.0118  0.6303
  323MOL0     O42534   8.431   9.188   5.039  0.6029  0.2600 -0.7344
  323MOL0     C42535   8.293   9.183   5.053  0.0203 -0.3569  0.5174
  323MOL0     C42536   8.221   9.295   5.088  0.3505 -0.1706 -0.1314
  323MOL0     C42537   8.087   9.297   5.093  0.0316 -1.0512 -0.9679
  323MOL0     C42538   8.015   9.183   5.063  1.3320  0.1766  0.0270
  323MOL0     O42539   7.872   9.168   5.070  0.3226 -0.1375  0.2153
  323MOL0     C42540   7.784   9.283   5.070 -0.0876  0.5107 -0.7337
  323MOL0     C42541   7.649   9.242   5.015  1.3016 -0.3399 -0.0514
  323MOL0     C42542   7.563   9.364   5.002 -0.1907  1.1434  0.7156
  323MOL0     C42543   7.426   9.327   4.973  0.2652  0.3368 -0.4484
  323MOL0     C42544   7.350   9.458   4.987  0.6327  0.2217 -0.0063
  323MOL0     C42545   7.201   9.444   4.995 -0.2898 -0.3939  1.0850
  323MOL0     C42546   7.120   9.580   4.992 -0.4617 -0.8135 -0.2646
  323MOL0     C42547   6.969   9.553   4.977 -0.0709  0.6238  0.1463
  323MOL0    Cl42548   6.881   9.712   4.942 -0.0383 -0.2178 -0.0899
  323MOL0     C42549   8.082   9.070   5.024 -0.3460 -0.5610  0.3539
  323MOL0     C42550   8.225   9.073   5.022  0.6652 -0.3639 -0.4384
  323MOL0     O42551   8.466   9.009   5.185  0.6651 -0.1643  0.2822
  323MOL0     C42552   8.715   9.209   5.013 -0.1012 -0.4553 -0.3053
  323MOL0     C42553   8.857   9.207   4.987  0.2580 -0.2384  0.1788
  323MOL0     N42554   9.485   9.009   4.685  0.0517 -0.0024 -0.0505
  323MOL0     N42555   9.588   9.038   4.613 -0.8302  0.2461  0.1107
  323MOL0     C42556  10.719   8.569   4.378  0.5261 -0.5105 -0.3384
  323MOL0     C42557  10.800   8.467   4.338  0.5594 -0.4580  0.0419
  323MOL0     C42558  11.095   8.147   4.232 -0.1115 -0.3409 -0.2427
  323MOL0     C42559  11.182   8.104   4.335 -0.6045  0.2637 -0.0258
  323MOL0     C42560  11.281   8.003   4.310  0.9899  0.3084 -0.6067
  323MOL0     C42561  11.262   7.930   4.194 -0.6729  0.4849  0.3353
  323MOL0     O42562  11.342   7.824   4.158 -0.1988 -0.8589 -0.0734
  323MOL0     C42563  11.425   7.756   4.245  0.0325  0.0006  0.6636
  323MOL0     C42564  11.419   7.618   4.198 -0.3656  0.4353  0.0779
  323MOL0     C42565  11.498   7.508   4.284 -1.0097 -0.2789 -0.6500
  323MOL0     C42566  11.413   7.454   4.407 -0.0686 -0.5970 -0.2756
  323MOL0     C42567  11.498   7.372   4.493 -0.1464  0.6463 -0.2037
  323MOL0     C42568  11.582   7.314   4.557  0.4120 -0.5670 -0.4203
  323MOL0     C42569  11.180   7.970   4.091 -1.0817 -0.0247  0.2269
  323MOL0     C42570  11.095   8.075   4.112  0.3401  0.5313 -0.5550
  323MOL0     H42571  11.076   8.533   4.506  0.0715 -0.1095  1.5987
  323MOL0     H42572  10.934   8.737   4.559  0.8019 -0.5167 -0.2488
  323MOL0     H42573  10.507   8.703   4.496 -2.4701  0.5614 -1.4700
  323MOL0     H42574  10.555   8.815   4.365 -1.2354  2.5362  0.3419
  323MOL0     H42575  10.532   9.005   4.540 -1.8768  0.6498 -0.0376
  323MOL0     H42576  10.517   8.871   4.661 -0.1980 -3.5206 -0.0919
  323MOL0     H42577  10.299   8.822   4.597  0.5181 -1.0846 -0.3362
  323MOL0     H42578  10.296   8.919   4.439  0.5724  1.0034 -0.2258
  323MOL0     H42579  10.316   9.043   4.707  0.7322  1.3902  0.2321
  323MOL0     H42580  10.288   9.120   4.545  0.1787 -0.6488 -1.3360
  323MOL0     H42581  10.096   9.089   4.706 -3.0110 -0.6618  1.3654
  323MOL0     H42582  10.105   8.922   4.703 -4.0283  2.9215  2.0753
  323MOL0     H42583  10.065   8.916   4.466  0.2187 -0.6025 -0.8817
  323MOL0     H42584  10.044   9.087   4.453  0.4967  1.1535  1.3470
  323MOL0     H42585   9.823   8.986   4.477 -1.7182 -0.1525  0.7107
  323MOL0     H42586   9.872   8.881   4.615  1.4111 -0.2480  0.2224
  323MOL0     H42587   9.842   9.169   4.598 -0.9931 -0.0427 -0.0353
  323MOL0     H42588   9.906   9.083   4.748  0.4602  0.3157 -0.4185
  323MOL0     H42589   9.696   9.030   4.928 -0.2343  0.5373  0.2036
  323MOL0     H42590   9.480   8.988   5.023  2.1044 -1.9474  0.4058
  323MOL0     H42591   9.441   8.835   4.946 -1.4999  0.1023  1.6655
  323MOL0     H42592   9.236   8.940   4.996 -0.1943  1.2644  1.5677
  323MOL0     H42593   9.250   8.950   4.820  0.3788 -0.6513 -0.4666
  323MOL0     H42594   9.327   9.171   5.029  2.2888  1.2613 -0.6432
  323MOL0     H42595   9.329   9.191   4.850 -1.6641 -3.6593 -2.5542
  323MOL0     H42596   9.084   9.194   4.848 -1.4901  2.8833  0.9288
  323MOL0     H42597   9.136   9.282   4.996 -2.3196 -1.6603  2.3013
  323MOL0     H42598   8.947   8.943   5.179  0.3395 -0.1012  0.2303
  323MOL0     H42599   8.698   8.948   5.234 -2.1468 -0.3710 -2.0991
  323MOL0     H42600   8.274   9.382   5.124 -0.0358  0.3852 -0.8645
  323MOL0     H42601   8.044   9.393   5.121  1.1941 -0.5320 -0.9035
  323MOL0     H42602   7.833   9.357   5.006 -0.2028  0.2642 -1.1097
  323MOL0     H42603   7.768   9.325   5.169 -0.8368 -3.3841  0.9803
  323MOL0     H42604   7.598   9.175   5.085  2.1496 -0.2962  0.6300
  323MOL0     H42605   7.652   9.191   4.919  0.5779  3.3110 -2.1795
  323MOL0     H42606   7.605   9.418   4.917  2.0717 -1.2694  0.1808
  323MOL0     H42607   7.581   9.421   5.094  1.2813  0.6969  0.7231
  323MOL0     H42608   7.417   9.289   4.871 -1.0635  0.2506 -0.3200
  323MOL0     H42609   7.387   9.254   5.044  1.0254  0.7344  0.3910
  323MOL0     H42610   7.379   9.522   4.903  0.8826 -0.1996 -0.2410
  323MOL0     H42611   7.382   9.493   5.086  1.6743 -1.4285  0.2851
  323MOL0     H42612   7.178   9.382   5.083  3.6863 -0.8782  1.9623
  323MOL0     H42613   7.169   9.382   4.911 -0.8277 -1.0796  1.7775
  323MOL0     H42614   7.137   9.636   5.084 -3.0131  0.6338 -0.5806
  323MOL0     H42615   7.162   9.641   4.912  1.0114 -0.2883  0.8733
  323MOL0     H42616   6.931   9.507   5.069 -3.7539  1.8225 -0.6121
  323MOL0     H42617   6.959   9.480   4.897 -4.2898  2.0522 -0.8880
  323MOL0     H42618   8.019   8.985   4.999  0.3024 -0.4050 -2.1173
  323MOL0     H42619   8.272   8.985   4.982 -1.1145 -1.3577 -0.4620
  323MOL0     H42620   8.657   9.285   4.962  0.7299  0.4583  0.0924
  323MOL0     H42621   8.898   9.293   4.935 -3.1429  1.3803 -0.0843
  323MOL0     H42622  10.618   8.580   4.338  0.7378 -0.7349 -0.9491
  323MOL0     H42623  10.751   8.400   4.268 -2.6294  1.5512  0.1689
  323MOL0     H42624  11.194   8.152   4.432 -1.3333  0.1006  0.1483
  323MOL0     H42625  11.348   7.981   4.393 -2.4991  1.0015  2.6745
  323MOL0     H42626  11.374   7.757   4.342 -1.2821  0.7238 -0.0112
  323MOL0     H42627  11.525   7.801   4.245 -0.3038  0.7935  2.0439
  323MOL0     H42628  11.315   7.585   4.200 -0.5861  1.1295  0.3783
  323MOL0     H42629  11.460   7.618   4.097  1.6370 -0.6759  0.8316
  323MOL0     H42630  11.596   7.542   4.317 -0.6283 -1.6005 -0.3724
  323MOL0     H42631  11.502   7.425   4.213 -0.2599 -0.0644 -0.8591
  323MOL0     H42632  11.381   7.544   4.459 -0.6223 -0.5568 -0.6685
  323MOL0     H42633  11.330   7.395   4.366 -0.3013 -1.5541  1.4646
  323MOL0     H42634  11.651   7.263   4.620 -0.3729  1.1521  2.0240
  323MOL0     H42635  11.171   7.920   3.995 -0.0266 -0.0620  0.1289
  323MOL0     H42636  11.036   8.102   4.025 -1.1991  1.7461  0.7883
  324MOL0     O42637   1.823   3.108   5.204  0.3417 -0.1958 -0.2906
  324MOL0     C42638   1.855   3.232   5.215  0.4687 -0.3186 -0.1845
  324MOL0     O42639   1.788   3.323   5.287  0.3976  0.2168  0.0254
  324MOL0     C42640   1.674   3.284   5.369  0.7303  0.3153 -0.0733
  324MOL0     C42641   1.566   3.369   5.373  0.4405 -0.2608  0.3622
  324MOL0     C42642   1.458   3.345   5.462 -0.2466 -0.0583  0.4446
  324MOL0     C42643   1.465   3.241   5.549  0.2974 -0.4854 -0.2731
  324MOL0     O42644   1.379   3.231   5.653  0.5279 -0.4325 -0.8157
  324MOL0     C42645   1.240   3.258   5.619  0.8024  0.8620 -0.0456
  324MOL0     C42646   1.146   3.236   5.742 -0.1985  0.2362  0.0838
  324MOL0     C42647   1.003   3.256   5.702  0.6292  1.1021  0.8455
  324MOL0     C42648   0.901   3.208   5.799  0.3662 -0.4173  0.8482
  324MOL0     C42649   0.765   3.201   5.727  0.3418 -0.0974  0.4401
  324MOL0     C42650   0.653   3.142   5.813 -0.1942  0.6764  0.3808
  324MOL0     C42651   0.518   3.194   5.775 -0.5343  0.1148  0.1210
  324MOL0     C42652   0.416   3.129   5.854  0.4431  1.1441 -0.7354
  324MOL0     N42653   0.279   3.136   5.805 -0.3500  0.4963 -0.0608
  324MOL0     C42654   0.200   3.251   5.813  0.6150 -0.5387  0.2536
  324MOL0     C42655   0.080   3.203   5.756 -0.7501 -0.9043  0.0498
  324MOL0     C42656  -0.039   3.282   5.735  0.0497  0.3469  0.3691
  324MOL0     C42657  -0.181   3.229   5.799 -1.0571  0.2794  0.7483
  324MOL0     C42658  -0.297   3.316   5.760  0.7035  0.0175  0.7964
  324MOL0     C42659  -0.430   3.243   5.782 -0.8725 -0.0987 -0.3873
  324MOL0     O42660  -0.447   3.166   5.664 -0.2077  0.2836  0.1157
  324MOL0     C42661  -0.583   3.134   5.644 -0.7477 -0.1697 -0.3633
  324MOL0     C42662  -0.691   3.151   5.730 -0.4713  0.1009 -0.1652
  324MOL0     C42663  -0.820   3.104   5.691  0.3770 -0.7293  0.6235
  324MOL0     C42664  -0.844   3.042   5.573 -0.4177  0.5656 -0.3372
  324MOL0     C42665  -0.977   2.995   5.544 -0.5888 -1.2107 -0.7158
  324MOL0     O42666  -1.069   3.014   5.641  0.5991  0.1925  0.0404
  324MOL0     C42667  -1.189   2.947   5.645 -0.6676 -0.3372 -0.6785
  324MOL0     C42668  -1.303   3.017   5.611 -0.2089 -0.4021  0.6469
  324MOL0     C42669  -1.423   2.954   5.588  0.0168 -0.1120  0.8018
  324MOL0     C42670  -1.442   2.817   5.615  0.1169 -0.7097 -0.4224
  324MOL0     O42671  -1.573   2.773   5.604 -0.0675 -0.1485  0.8297
  324MOL0     C42672  -1.614   2.653   5.667  0.2431  0.2998 -0.6519
  324MOL0     C42673  -1.768   2.613   5.638 -0.3933  0.2381  0.0741
  324MOL0     C42674  -1.793   2.599   5.489  0.6689  1.0203  0.0495
  324MOL0     C42675  -1.927   2.520   5.457 -0.3781 -0.7793 -0.5031
  324MOL0     C42676  -1.977   2.546   5.322 -0.1336 -0.3018  0.3633
  324MOL0     C42677  -2.124   2.509   5.311  0.1710 -0.2076 -0.1992
  324MOL0     C42678  -2.159   2.516   5.169  0.1223  0.5673  0.1620
  324MOL0     C42679  -2.295   2.446   5.156  0.1502 -0.3001  0.3989
  324MOL0    Cl42680  -2.370   2.497   5.005  0.0293  0.0245  0.1502
  324MOL0     C42681  -1.329   2.732   5.653  0.4719  0.1869  0.5712
  324MOL0     C42682  -1.208   2.806   5.658  0.1093  0.7373 -0.4204
  324MOL0     O42683  -0.997   2.943   5.436 -0.7571  0.0307 -0.1471
  324MOL0     C42684  -0.730   3.020   5.487  0.0316  0.1308 -0.3979
  324MOL0     C42685  -0.600   3.063   5.521  0.0707 -0.3987  0.0796
  324MOL0     N42686   0.097   3.081   5.719 -0.2094  0.0110  0.2383
  324MOL0     N42687   0.211   3.032   5.747 -0.0082 -0.5117  0.0481
  324MOL0     C42688   1.561   3.144   5.538  0.6673 -0.5472 -0.0823
  324MOL0     C42689   1.664   3.165   5.441 -1.0934  1.2781 -0.3960
  324MOL0     C42690   1.980   3.284   5.145  0.5206  0.0942 -0.6584
  324MOL0     C42691   2.043   3.408   5.194  0.3888  0.3924  0.5061
  324MOL0     C42692   2.165   3.454   5.138 -0.2513  0.6650  0.4404
  324MOL0     C42693   2.227   3.386   5.024  0.3055 -0.3409  0.0154
  324MOL0     O42694   2.345   3.437   4.981 -0.4202  0.2321  0.8978
  324MOL0     C42695   2.389   3.568   5.010 -0.2158  0.3382 -0.8773
  324MOL0     C42696   2.506   3.611   4.928 -0.7149  0.7325  0.2378
  324MOL0     C42697   2.639   3.545   4.961  0.8150  0.0811 -0.6021
  324MOL0     C42698   2.752   3.597   4.878 -0.2216  0.1361  0.4594
  324MOL0     C42699   2.721   3.593   4.736 -0.1841  0.0278 -0.4268
  324MOL0     C42700   2.717   3.579   4.619 -0.9151 -0.2673  0.2427
  324MOL0     C42701   2.177   3.261   4.992  0.1836  0.5912 -0.6412
  324MOL0     C42702   2.060   3.205   5.048 -0.5933 -0.9695 -0.2519
  324MOL0     H42703   1.570   3.446   5.296  0.3509  2.4700  2.9158
  324MOL0     H42704   1.386   3.426   5.453 -0.2610  0.1419  2.0697
  324MOL0     H42705   1.211   3.194   5.535 -1.5739  0.6390  0.8539
  324MOL0     H42706   1.214   3.360   5.591 -0.9832  1.0017  1.8292
  324MOL0     H42707   1.177   3.292   5.830  2.7090 -4.1503  2.2173
  324MOL0     H42708   1.173   3.131   5.760 -1.3331 -0.5221 -2.2538
  324MOL0     H42709   0.996   3.200   5.609  4.0722 -1.0985  1.7520
  324MOL0     H42710   0.980   3.360   5.676 -0.3625  0.7595  0.2892
  324MOL0     H42711   0.917   3.115   5.854  0.2831  1.7544  4.9519
  324MOL0     H42712   0.907   3.282   5.880 -3.1222  1.3103 -0.2471
  324MOL0     H42713   0.778   3.128   5.646  2.3162 -0.5931  1.1595
  324MOL0     H42714   0.723   3.294   5.689 -2.9960 -1.0892  1.2600
  324MOL0     H42715   0.676   3.168   5.916  0.8542 -2.8462  1.1933
  324MOL0     H42716   0.664   3.033   5.811  3.2539  0.9178  0.1608
  324MOL0     H42717   0.515   3.298   5.808  2.5299 -0.2966  2.0624
  324MOL0     H42718   0.487   3.183   5.670  1.9712 -0.3811 -0.6376
  324MOL0     H42719   0.424   3.185   5.948  6.0389 -0.3027 -0.0237
  324MOL0     H42720   0.443   3.025   5.874  1.5448  1.9097  2.2128
  324MOL0     H42721   0.231   3.345   5.859  3.8596 -1.7889  0.8027
  324MOL0     H42722  -0.055   3.280   5.626  0.8858  2.4361  0.1778
  324MOL0     H42723  -0.020   3.382   5.773  0.8486  0.2369  0.2695
  324MOL0     H42724  -0.175   3.233   5.908 -1.4155  3.5412  0.7219
  324MOL0     H42725  -0.207   3.131   5.759 -2.1601  2.1589 -3.6556
  324MOL0     H42726  -0.287   3.401   5.827  2.0053  0.0147  0.6263
  324MOL0     H42727  -0.298   3.353   5.657 -5.9262 -2.0187 -0.3509
  324MOL0     H42728  -0.513   3.315   5.787  0.8139  2.1024 -2.0755
  324MOL0     H42729  -0.428   3.176   5.868 -2.4008  0.6135  0.2468
  324MOL0     H42730  -0.679   3.220   5.814  2.3995  2.0930 -2.0043
  324MOL0     H42731  -0.903   3.116   5.759  1.1188 -0.5504  1.5179
  324MOL0     H42732  -1.292   3.123   5.589 -0.0727 -0.9242 -2.2776
  324MOL0     H42733  -1.501   3.024   5.559  0.6733 -0.9498 -3.7614
  324MOL0     H42734  -1.600   2.656   5.776  0.9259 -0.5916 -0.7118
  324MOL0     H42735  -1.555   2.567   5.634 -0.5756 -0.9871  1.0780
  324MOL0     H42736  -1.833   2.696   5.667  3.2834  2.8139  1.8056
  324MOL0     H42737  -1.804   2.524   5.690  0.6286 -0.2081  0.0418
  324MOL0     H42738  -1.712   2.542   5.444 -0.0448 -0.1821  0.2440
  324MOL0     H42739  -1.796   2.701   5.448  3.1889  0.3380 -2.0881
  324MOL0     H42740  -1.913   2.414   5.477 -0.0242 -0.7499 -0.5805
  324MOL0     H42741  -2.003   2.559   5.525 -1.7397 -2.6678 -0.8735
  324MOL0     H42742  -1.920   2.489   5.249 -0.2105  4.2240 -3.7801
  324MOL0     H42743  -1.964   2.652   5.296 -0.4058  0.2999  2.4796
  324MOL0     H42744  -2.183   2.575   5.376  1.3820 -0.7716  1.5690
  324MOL0     H42745  -2.138   2.404   5.337  0.3223 -0.7582 -2.2297
  324MOL0     H42746  -2.165   2.619   5.132  0.4181 -0.1250 -1.9144
  324MOL0     H42747  -2.085   2.471   5.102  1.1563  2.0682  0.2273
  324MOL0     H42748  -2.364   2.473   5.236  0.2754 -2.5651  1.3180
  324MOL0     H42749  -2.286   2.338   5.142 -4.0027 -0.5595 -1.8798
  324MOL0     H42750  -1.333   2.624   5.657 -0.6205  0.1990  0.1165
  324MOL0     H42751  -1.115   2.752   5.676 -1.3754 -2.3515 -1.4106
  324MOL0     H42752  -0.736   2.968   5.391  1.5046 -2.9243  1.0240
  324MOL0     H42753  -0.515   3.040   5.458  1.6337  3.4104  0.5507
  324MOL0     H42754   1.546   3.053   5.594 -0.2770  0.0078  0.5938
  324MOL0     H42755   1.743   3.092   5.428  1.3671  4.2396 -3.8725
  324MOL0     H42756   1.995   3.456   5.279 -2.4497  3.0777 -2.3152
  324MOL0     H42757   2.200   3.553   5.164  3.5251 -0.2320 -0.5277
  324MOL0     H42758   2.417   3.572   5.116 -5.0866  1.0805  0.6068
  324MOL0     H42759   2.317   3.648   4.990 -2.0932 -1.2163 -0.5250
  324MOL0     H42760   2.484   3.576   4.827  0.2638 -2.2665  0.9680
  324MOL0     H42761   2.508   3.720   4.925  0.6071  0.7034 -1.6175
  324MOL0     H42762   2.632   3.440   4.932  3.7506 -0.3703 -0.0093
  324MOL0     H42763   2.641   3.563   5.069 -2.3184  0.2786 -0.4999
  324MOL0     H42764   2.780   3.697   4.912  0.8538 -1.0882  3.4942
  324MOL0     H42765   2.836   3.530   4.900  1.2489  1.7244 -0.0393
  324MOL0     H42766   2.719   3.568   4.513 -1.5061 -2.7561  0.4357
  324MOL0     H42767   2.235   3.197   4.926  2.3788  0.6045  1.1409
  324MOL0     H42768   2.023   3.106   5.025 -3.0998  0.4411 -3.0304
  325MOL0     O42769  10.867   9.356   3.972  0.3836 -0.0851  0.1507
  325MOL0     C42770  10.835   9.318   4.082 -0.7097  1.1507  0.3254
  325MOL0     O42771  10.708   9.321   4.132  0.1595 -0.1496 -0.0824
  325MOL0     C42772  10.592   9.355   4.070  0.4731 -0.0516  0.6263
  325MOL0     C42773  10.482   9.363   4.158 -1.3773 -0.1395  0.2207
  325MOL0     C42774  10.350   9.378   4.109 -0.0557 -0.8522  0.4421
  325MOL0     C42775  10.334   9.410   3.971 -0.3142 -0.1143  1.1957
  325MOL0     O42776  10.220   9.454   3.902  0.4540  0.5644 -0.4517
  325MOL0     C42777  10.107   9.467   3.990 -0.2508  0.7471 -0.4625
  325MOL0     C42778   9.991   9.477   3.895 -1.1882  0.2624 -0.8093
  325MOL0     C42779   9.858   9.433   3.954  1.0679  0.3864 -0.1155
  325MOL0     C42780   9.756   9.381   3.838 -0.5629 -0.4291  0.7414
  325MOL0     C42781   9.615   9.380   3.887 -0.1030  0.0494  0.5102
  325MOL0     C42782   9.508   9.364   3.765 -0.8077 -0.4880 -0.2361
  325MOL0     C42783   9.377   9.431   3.808 -0.0173  0.2006  0.3297
  325MOL0     C42784   9.365   9.586   3.768 -0.5464  0.5722 -0.5130
  325MOL0     N42785   9.264   9.642   3.858  0.2671 -0.4859 -0.1754
  325MOL0     C42786   9.297   9.694   3.980  0.1908 -1.6018 -0.6473
  325MOL0     C42787   9.197   9.763   4.026 -0.3735 -0.6413 -0.1867
  325MOL0     C42788   9.181   9.838   4.156  0.0656 -0.1629  0.6504
  325MOL0     C42789   9.174   9.740   4.275  0.5519  0.2196  0.4869
  325MOL0     C42790   9.083   9.616   4.263 -0.4663 -0.3918  0.3730
  325MOL0     C42791   8.944   9.630   4.203 -0.3598 -0.0987 -0.6534
  325MOL0     O42792   8.880   9.510   4.254 -0.3690  0.0340  0.2663
  325MOL0     C42793   8.740   9.500   4.245  0.1102 -0.3814  0.6094
  325MOL0     C42794   8.647   9.589   4.196 -0.7054  0.0615  0.2882
  325MOL0     C42795   8.511   9.566   4.192  0.8877 -0.3160 -0.4012
  325MOL0     C42796   8.459   9.459   4.255  0.5242 -1.1243 -0.1635
  325MOL0     C42797   8.313   9.445   4.261 -0.3627  0.1329 -0.4339
  325MOL0     O42798   8.240   9.515   4.168 -0.2676  0.5143 -0.0981
  325MOL0     C42799   8.104   9.497   4.165 -0.0473  0.3428 -0.5826
  325MOL0     C42800   8.042   9.465   4.048  0.5428 -0.0998  0.0462
  325MOL0     C42801   7.908   9.470   4.029  0.3033  0.2344  0.1426
  325MOL0     C42802   7.819   9.493   4.141 -0.5009 -0.0349  0.1351
  325MOL0     O42803   7.690   9.497   4.143 -1.1314  0.1093 -0.9103
  325MOL0     C42804   7.624   9.408   4.049  0.4681 -0.3414  0.0780
  325MOL0     C42805   7.478   9.422   4.057  0.3618  0.8758  0.1504
  325MOL0     C42806   7.417   9.374   4.185  0.0441  0.5367 -0.2739
  325MOL0     C42807   7.270   9.399   4.201 -0.1293  0.1172  0.4352
  325MOL0     C42808   7.182   9.301   4.117  0.8770 -0.7955  0.1272
  325MOL0     C42809   7.044   9.343   4.126  1.2808 -0.6728  0.3951
  325MOL0     C42810   6.941   9.244   4.070  0.5371  0.3291  0.0829
  325MOL0     C42811   6.988   9.209   3.917 -0.4686  0.5910 -0.4532
  325MOL0    Cl42812   6.867   9.112   3.832  0.7420 -0.0530 -0.1889
  325MOL0     C42813   7.881   9.535   4.258  0.2472  0.4860  0.3523
  325MOL0     C42814   8.025   9.529   4.269  0.0998  0.1837 -0.4926
  325MOL0     O42815   8.268   9.360   4.341 -0.3900  1.2017  0.2766
  325MOL0     C42816   8.548   9.360   4.305  0.1144 -0.0043  1.1368
  325MOL0     C42817   8.687   9.387   4.309  0.1395  0.5752  0.8294
  325MOL0     N42818   9.097   9.757   3.927 -0.2570 -0.2773 -0.0590
  325MOL0     N42819   9.138   9.691   3.829  0.7651  0.4938  0.1678
  325MOL0     C42820  10.442   9.402   3.891 -0.3999  0.6056  0.7320
  325MOL0     C42821  10.566   9.358   3.933  0.0995  0.2973 -0.2813
  325MOL0     C42822  10.943   9.260   4.172 -0.1476 -0.5232  0.5686
  325MOL0     C42823  11.079   9.254   4.135  1.0756 -0.1496  0.4778
  325MOL0     C42824  11.170   9.194   4.214 -0.2151  0.7146 -0.3775
  325MOL0     C42825  11.137   9.134   4.336  0.8998 -0.4136  0.2097
  325MOL0     O42826  11.240   9.081   4.410 -0.4960 -0.0371  0.2736
  325MOL0     C42827  11.228   9.017   4.539 -0.0944 -0.4766 -0.5049
  325MOL0     C42828  11.359   8.946   4.581  1.0084  0.0340  0.5733
  325MOL0     C42829  11.414   8.842   4.483  0.5462 -0.0648 -0.5581
  325MOL0     C42830  11.517   8.749   4.541 -0.8902  0.4998 -0.7207
  325MOL0     C42831  11.651   8.816   4.560 -0.1428  0.2154 -0.2789
  325MOL0     C42832  11.748   8.875   4.605  0.2132 -0.6136 -0.1444
  325MOL0     C42833  11.003   9.134   4.374  0.1328  0.3223 -0.2307
  325MOL0     C42834  10.896   9.195   4.293 -0.3421 -0.1742  0.0396
  325MOL0     H42835  10.495   9.354   4.265 -2.7857 -0.3743  0.3970
  325MOL0     H42836  10.270   9.382   4.181 -1.4155  2.0283 -1.0545
  325MOL0     H42837  10.116   9.539   4.071  1.1199  0.3966 -0.2836
  325MOL0     H42838  10.098   9.373   4.045  1.9270  0.4545 -0.5466
  325MOL0     H42839  10.011   9.424   3.801  2.2981  1.4090 -0.8359
  325MOL0     H42840   9.981   9.581   3.862 -1.2948  0.3098 -0.6254
  325MOL0     H42841   9.812   9.518   4.005  0.3912 -0.2896  0.4215
  325MOL0     H42842   9.876   9.344   4.014  0.4644  1.2255  1.3609
  325MOL0     H42843   9.763   9.457   3.759  2.2598  1.1607  2.3504
  325MOL0     H42844   9.792   9.284   3.804  1.4316  0.8400 -1.0774
  325MOL0     H42845   9.601   9.474   3.942  2.7963  0.2493  1.0679
  325MOL0     H42846   9.603   9.296   3.957 -2.1962  0.6563  0.9347
  325MOL0     H42847   9.498   9.258   3.740  3.8716 -0.7603 -1.8535
  325MOL0     H42848   9.556   9.408   3.677  0.0297 -3.2694 -1.2791
  325MOL0     H42849   9.291   9.396   3.751 -2.9089  4.1687  1.8333
  325MOL0     H42850   9.368   9.422   3.916  1.0602  1.5958  0.5702
  325MOL0     H42851   9.335   9.601   3.664  2.0882  1.8743 -1.1563
  325MOL0     H42852   9.459   9.640   3.782 -0.4593 -0.2507  2.9429
  325MOL0     H42853   9.391   9.681   4.033 -0.0721  0.0098  0.2879
  325MOL0     H42854   9.101   9.912   4.152 -1.0075 -1.3527 -0.7236
  325MOL0     H42855   9.269   9.900   4.176 -0.9021  1.0718  1.1209
  325MOL0     H42856   9.144   9.796   4.364 -2.8318  0.6941 -0.8027
  325MOL0     H42857   9.270   9.693   4.299  0.0636 -1.7802 -1.1763
  325MOL0     H42858   9.137   9.544   4.200  0.8886 -0.9772  2.1260
  325MOL0     H42859   9.076   9.561   4.357  1.6254 -0.5888  0.4694
  325MOL0     H42860   8.943   9.623   4.094  0.0003  1.7423 -0.8045
  325MOL0     H42861   8.896   9.726   4.225  0.5773  0.7995 -2.3228
  325MOL0     H42862   8.677   9.682   4.149 -1.1274  0.8923  1.6293
  325MOL0     H42863   8.451   9.643   4.146  0.4378  1.9219  3.4661
  325MOL0     H42864   8.101   9.449   3.958 -0.3425  5.1711 -1.7856
  325MOL0     H42865   7.872   9.448   3.929 -1.1324  0.3084  0.6219
  325MOL0     H42866   7.655   9.305   4.066  2.5600  0.3913  0.9991
  325MOL0     H42867   7.645   9.438   3.946 -3.7952  0.5574 -0.7117
  325MOL0     H42868   7.433   9.374   3.970  0.2987  3.2335 -1.1773
  325MOL0     H42869   7.457   9.528   4.042  1.3151  1.0479 -0.0282
  325MOL0     H42870   7.467   9.416   4.272  2.5191 -1.9327 -0.3813
  325MOL0     H42871   7.428   9.266   4.199  1.3311  0.5159 -1.2425
  325MOL0     H42872   7.246   9.390   4.307  0.9439  1.3387  0.8177
  325MOL0     H42873   7.248   9.502   4.170  1.1296 -0.0911 -1.2799
  325MOL0     H42874   7.181   9.195   4.145 -2.0373 -0.6718  0.8074
  325MOL0     H42875   7.211   9.311   4.012  1.4146  2.8822  0.5058
  325MOL0     H42876   7.033   9.435   4.068 -1.2792  0.3953  2.3717
  325MOL0     H42877   7.019   9.368   4.229  1.2211 -1.4930  0.5891
  325MOL0     H42878   6.938   9.150   4.126  0.2948  0.2650 -0.0397
  325MOL0     H42879   6.840   9.284   4.077  0.6329  0.6421 -0.2875
  325MOL0     H42880   7.084   9.156   3.910 -1.3420 -1.2712  0.8453
  325MOL0     H42881   6.993   9.303   3.860  1.6457  2.0231  1.9128
  325MOL0     H42882   7.814   9.572   4.336  0.1407  0.9276  0.0519
  325MOL0     H42883   8.082   9.562   4.356  1.8587 -0.2698 -1.4191
  325MOL0     H42884   8.512   9.263   4.338  0.5501 -0.3908  0.5109
  325MOL0     H42885   8.756   9.317   4.354  0.5487  0.2424 -0.2736
  325MOL0     H42886  10.432   9.415   3.784  2.0322  1.9190  0.5715
  325MOL0     H42887  10.631   9.334   3.850  0.0042  3.6376 -1.4479
  325MOL0     H42888  11.112   9.317   4.053  0.3571  0.5547  0.7113
  325MOL0     H42889  11.273   9.192   4.178 -0.8726  1.3767 -2.4141
  325MOL0     H42890  11.142   8.950   4.530 -2.8550  2.8978 -1.6423
  325MOL0     H42891  11.195   9.081   4.621 -1.0394 -0.9512 -0.4923
  325MOL0     H42892  11.432   9.027   4.586  1.4667 -0.2233 -1.3509
  325MOL0     H42893  11.351   8.896   4.678  0.1312 -1.8668 -0.4193
  325MOL0     H42894  11.440   8.899   4.394  0.6083  0.2272 -0.3504
  325MOL0     H42895  11.329   8.778   4.456  0.8819  0.0795 -2.0379
  325MOL0     H42896  11.487   8.698   4.633  2.9612  1.1713  1.1311
  325MOL0     H42897  11.534   8.674   4.463 -0.6622 -2.6731  2.1384
  325MOL0     H42898  11.829   8.931   4.648 -1.0776  0.6261  0.7663
  325MOL0     H42899  10.969   9.089   4.467 -2.2272 -0.2295 -1.2897
  325MOL0     H42900  10.799   9.208   4.338  1.2952 -1.0412  4.3283
  326MOL0     O42901   3.470  11.096   0.409  0.4355 -0.3321 -0.5125
  326MOL0     C42902   3.530  11.157   0.500  0.5577 -0.6109 -0.9520
  326MOL0     O42903   3.495  11.155   0.639 -0.0078 -0.6297  0.6057
  326MOL0     C42904   3.367  11.102   0.673  0.2585  0.0764  0.3705
  326MOL0     C42905   3.368  10.997   0.762  0.6536 -0.9257  0.1473
  326MOL0     C42906   3.251  10.944   0.815  0.9611 -0.2663  0.7214
  326MOL0     C42907   3.125  10.993   0.769 -0.0236  0.5591 -0.2146
  326MOL0     O42908   3.008  10.933   0.818  0.0870  0.2714 -0.3285
  326MOL0     C42909   2.969  10.973   0.949  0.3409 -1.3726 -0.9844
  326MOL0     C42910   2.822  10.964   0.959 -0.0601  0.1862  0.1165
  326MOL0     C42911   2.756  10.956   1.091  0.3634 -0.3233 -0.8915
  326MOL0     C42912   2.760  11.102   1.157  1.2879  0.1830 -0.1306
  326MOL0     C42913   2.713  11.120   1.303 -0.2125 -0.0539  0.7916
  326MOL0     C42914   2.590  11.029   1.323 -0.0403 -0.1638 -0.0218
  326MOL0     C42915   2.467  11.086   1.249 -0.3076 -1.2342  0.2962
  326MOL0     C42916   2.338  11.015   1.287  0.6073 -0.0742  0.2158
  326MOL0     N42917   2.300  11.008   1.430 -0.2665 -0.1390 -0.7051
  326MOL0     C42918   2.269  11.120   1.508 -0.8791 -0.4547  0.1211
  326MOL0     C42919   2.243  11.061   1.628 -0.3152  0.8962 -0.5185
  326MOL0     C42920   2.215  11.129   1.758 -0.3504  0.4342 -0.0041
  326MOL0     C42921   2.066  11.120   1.816  0.3187  0.4841 -0.1279
  326MOL0     C42922   1.963  11.147   1.705 -0.3358 -0.6295 -0.0011
  326MOL0     C42923   1.815  11.133   1.752  0.7768 -0.5621 -0.0525
  326MOL0     O42924   1.782  11.260   1.814 -0.4553 -0.2285 -0.8998
  326MOL0     C42925   1.657  11.319   1.818  0.0206 -0.8480 -0.0678
  326MOL0     C42926   1.546  11.240   1.836 -0.1271 -0.2976 -0.6339
  326MOL0     C42927   1.422  11.292   1.858  0.9647  0.3001  0.0417
  326MOL0     C42928   1.400  11.429   1.866 -0.8217  0.4515 -0.4612
  326MOL0     C42929   1.259  11.480   1.892  0.6851 -0.5275 -0.8030
  326MOL0     O42930   1.184  11.400   1.962  0.5572  0.5274  0.5439
  326MOL0     C42931   1.058  11.447   1.991  0.6365 -0.2038  0.2422
  326MOL0     C42932   1.022  11.431   2.124  0.0600 -0.4719  0.1057
  326MOL0     C42933   0.890  11.465   2.163 -0.3077  0.7472 -0.2490
  326MOL0     C42934   0.789  11.499   2.074  0.1903 -0.3991  0.2226
  326MOL0     O42935   0.664  11.519   2.132 -0.3227  0.3194 -0.2381
  326MOL0     C42936   0.563  11.575   2.052 -0.0038  0.1948 -0.2822
  326MOL0     C42937   0.459  11.594   2.162  0.2954  0.8958 -0.1448
  326MOL0     C42938   0.321  11.645   2.108  0.4822 -0.0321  0.4746
  326MOL0     C42939   0.236  11.549   2.018  0.8982  0.2863 -0.4168
  326MOL0     C42940   0.123  11.632   1.947 -0.1532 -0.4820 -0.6317
  326MOL0     C42941   0.035  11.720   2.029 -0.7226 -0.1375  0.3215
  326MOL0     C42942  -0.084  11.765   1.936  0.6224 -0.1634  0.0370
  326MOL0     C42943  -0.155  11.888   1.994 -1.1723  0.3369 -0.4309
  326MOL0    Cl42944  -0.303  11.891   1.920  0.0999  0.0867  0.0638
  326MOL0     C42945   0.826  11.514   1.937  0.3364  0.5467  0.6376
  326MOL0     C42946   0.960  11.495   1.900  0.1340  0.1859 -0.2055
  326MOL0     O42947   1.234  11.599   1.868 -0.1551  0.0780 -0.0253
  326MOL0     C42948   1.516  11.507   1.856  0.2246 -0.3376  0.1669
  326MOL0     C42949   1.645  11.456   1.829  0.8189  0.2500  0.5797
  326MOL0     N42950   2.256  10.924   1.619  0.2163 -0.5467  0.8654
  326MOL0     N42951   2.287  10.891   1.498 -0.0082 -0.0148 -0.0196
  326MOL0     C42952   3.124  11.103   0.683  0.4600  0.0209  0.1796
  326MOL0     C42953   3.247  11.160   0.630  0.3571  0.4476  0.3936
  326MOL0     C42954   3.662  11.222   0.471 -0.2724  0.2301 -0.1150
  326MOL0     C42955   3.721  11.215   0.342 -0.6578 -0.0260  0.2290
  326MOL0     C42956   3.845  11.258   0.324 -0.0789  0.4436 -0.7655
  326MOL0     C42957   3.919  11.322   0.424  0.0903 -0.1974 -0.4217
  326MOL0     O42958   4.052  11.352   0.396 -1.4029  0.1680  0.0878
  326MOL0     C42959   4.149  11.371   0.503 -0.5985 -0.4605 -0.3264
  326MOL0     C42960   4.291  11.369   0.438  0.2177  0.0285  0.2671
  326MOL0     C42961   4.402  11.413   0.541 -0.1909 -0.8193  0.5968
  326MOL0     C42962   4.543  11.448   0.494  1.0109  0.0551 -0.2406
  326MOL0     C42963   4.633  11.332   0.506  0.1486  0.3363  0.1090
  326MOL0     C42964   4.717  11.243   0.515  0.7860 -0.7620  0.6115
  326MOL0     C42965   3.868  11.323   0.551  0.5949 -0.7521 -0.5127
  326MOL0     C42966   3.734  11.278   0.573 -0.2492  0.5850 -0.3937
  326MOL0     H42967   3.466  10.961   0.790  0.4617 -0.9385  0.8211
  326MOL0     H42968   3.258  10.857   0.880 -0.2655 -1.1237 -0.2440
  326MOL0     H42969   2.994  11.078   0.965  0.7007 -1.5236 -0.5399
  326MOL0     H42970   3.012  10.908   1.026 -1.1332 -0.8910  0.3007
  326MOL0     H42971   2.782  10.878   0.904  0.7051 -0.5683  0.7221
  326MOL0     H42972   2.777  11.049   0.907 -0.2296 -0.3076 -0.5607
  326MOL0     H42973   2.799  10.879   1.156  0.3203  0.1813 -0.2636
  326MOL0     H42974   2.649  10.937   1.080  0.1424 -0.8404  1.5013
  326MOL0     H42975   2.858  11.152   1.151  0.6772  1.2860 -1.5308
  326MOL0     H42976   2.695  11.157   1.089 -1.1539 -1.5391  0.6867
  326MOL0     H42977   2.691  11.226   1.320  0.3035 -0.0468  1.4381
  326MOL0     H42978   2.794  11.092   1.370  0.5533  0.0523 -0.0757
  326MOL0     H42979   2.567  11.025   1.430  2.2638  1.4315  0.5966
  326MOL0     H42980   2.595  10.926   1.288 -1.8510 -1.0267  2.0018
  326MOL0     H42981   2.458  11.194   1.268 -0.4089 -0.7442 -2.2464
  326MOL0     H42982   2.483  11.067   1.143  0.4279  1.5357 -0.1679
  326MOL0     H42983   2.355  10.911   1.260  2.0745  0.5338 -1.4230
  326MOL0     H42984   2.251  11.042   1.226  0.3291  1.1427  1.1237
  326MOL0     H42985   2.273  11.225   1.484  0.8407 -0.8697 -1.7057
  326MOL0     H42986   2.242  11.232   1.735  1.6642  0.3061  1.5607
  326MOL0     H42987   2.282  11.095   1.838 -0.3038 -0.5127 -0.4369
  326MOL0     H42988   2.048  11.199   1.889 -0.6384  1.9578 -1.8860
  326MOL0     H42989   2.046  11.025   1.866  1.7779 -1.1029 -2.3776
  326MOL0     H42990   1.976  11.242   1.653  0.9792 -1.5011 -1.3614
  326MOL0     H42991   1.982  11.066   1.634 -2.2309 -1.8466  0.8149
  326MOL0     H42992   1.806  11.061   1.833 -0.4544 -0.2409  0.1098
  326MOL0     H42993   1.747  11.118   1.668 -0.8357  0.4996  1.0183
  326MOL0     H42994   1.547  11.131   1.837  2.9499 -0.3834  1.5874
  326MOL0     H42995   1.343  11.221   1.876 -0.4076  1.3174 -1.6309
  326MOL0     H42996   1.091  11.389   2.196 -1.8361  0.1206  2.4132
  326MOL0     H42997   0.863  11.449   2.267 -0.3326  0.4712 -0.2968
  326MOL0     H42998   0.538  11.493   1.983 -1.0859 -2.0441  2.5502
  326MOL0     H42999   0.584  11.670   2.003 -0.4936  1.8562  2.5428
  326MOL0     H43000   0.493  11.665   2.238  4.2662 -1.8534  1.0127
  326MOL0     H43001   0.446  11.508   2.228  0.5792 -0.0243 -1.2381
  326MOL0     H43002   0.355  11.733   2.052  3.2686 -1.5224 -0.3881
  326MOL0     H43003   0.244  11.674   2.180 -0.8108 -1.3234 -0.3388
  326MOL0     H43004   0.307  11.503   1.949  2.0714 -1.2345  1.7019
  326MOL0     H43005   0.199  11.460   2.070 -1.0247  0.7232 -0.9245
  326MOL0     H43006   0.058  11.573   1.881 -1.3839  1.1378 -0.9217
  326MOL0     H43007   0.174  11.690   1.869  3.0052 -0.9504  0.9567
  326MOL0     H43008   0.088  11.814   2.049  1.1085 -1.2478  1.0127
  326MOL0     H43009   0.004  11.675   2.123 -0.1363  1.1211  1.1454
  326MOL0     H43010  -0.060  11.785   1.831 -0.0780 -1.6618 -0.4362
  326MOL0     H43011  -0.155  11.685   1.913 -0.2397  0.6090 -0.0340
  326MOL0     H43012  -0.106  11.983   1.973  1.0224 -1.2028 -2.8485
  326MOL0     H43013  -0.170  11.882   2.103 -0.9983  3.0797 -0.1791
  326MOL0     H43014   0.750  11.544   1.865  0.6563 -0.6223 -0.2114
  326MOL0     H43015   0.994  11.527   1.801 -0.3758 -1.0027 -0.7843
  326MOL0     H43016   1.503  11.614   1.867 -1.9267 -0.5334  0.0990
  326MOL0     H43017   1.720  11.534   1.827  0.2257  0.8650 -2.2092
  326MOL0     H43018   3.033  11.150   0.646 -0.4235 -2.0511 -0.4486
  326MOL0     H43019   3.240  11.243   0.562 -0.2069 -1.2334 -1.7106
  326MOL0     H43020   3.671  11.160   0.263 -0.8792  3.5760 -2.3497
  326MOL0     H43021   3.907  11.243   0.236  0.8358 -0.8916  0.0689
  326MOL0     H43022   4.144  11.293   0.580  0.4319 -0.1489  0.0756
  326MOL0     H43023   4.140  11.467   0.555 -1.4721 -0.1534 -1.0232
  326MOL0     H43024   4.304  11.264   0.409 -0.5869 -0.2991  1.0813
  326MOL0     H43025   4.292  11.424   0.343 -4.3964 -0.3503 -0.2099
  326MOL0     H43026   4.411  11.329   0.611  3.9415 -2.7991 -1.9544
  326MOL0     H43027   4.369  11.505   0.590 -1.4878 -0.4906 -0.8111
  326MOL0     H43028   4.543  11.479   0.390 -2.3303  0.8228 -0.1325
  326MOL0     H43029   4.590  11.529   0.550  1.7051  0.5040 -1.4513
  326MOL0     H43030   4.791  11.166   0.526  0.0551 -1.3790  1.3336
  326MOL0     H43031   3.929  11.335   0.639  0.8509 -1.1114 -0.6359
  326MOL0     H43032   3.696  11.276   0.674 -1.3944 -2.0450 -0.7716
  327MOL0     O43033   6.950   4.131   8.354  0.5537  0.4586 -0.2013
  327MOL0     C43034   6.945   4.123   8.478  0.6222  0.2983  0.3822
  327MOL0     O43035   7.017   4.198   8.568  0.2551  0.5037  0.3816
  327MOL0     C43036   7.119   4.270   8.511  0.0809  0.4038 -0.2209
  327MOL0     C43037   7.093   4.406   8.470 -0.7885  0.4130  0.1996
  327MOL0     C43038   7.195   4.478   8.414 -0.2827  0.2365 -0.5076
  327MOL0     C43039   7.319   4.414   8.388 -0.0445  0.4462  0.1286
  327MOL0     O43040   7.421   4.475   8.310  0.1812  0.3697 -0.4115
  327MOL0     C43041   7.397   4.576   8.210  0.4713  0.3318 -0.2947
  327MOL0     C43042   7.383   4.496   8.079  0.2049 -0.4992 -0.4112
  327MOL0     C43043   7.259   4.414   8.074  0.3862 -0.0255  0.1538
  327MOL0     C43044   7.126   4.487   8.088  0.4714 -0.7661  0.0061
  327MOL0     C43045   7.006   4.386   8.092 -0.8323 -0.4428 -0.2734
  327MOL0     C43046   6.878   4.447   8.148 -0.2125  0.2375  0.4651
  327MOL0     C43047   6.775   4.334   8.168 -0.5565 -0.5875  0.7529
  327MOL0     C43048   6.643   4.371   8.255 -0.1083  0.0156 -0.4361
  327MOL0     N43049   6.551   4.252   8.274  0.5428 -0.3213 -0.2940
  327MOL0     C43050   6.560   4.148   8.356  0.3151  0.2788  0.0736
  327MOL0     C43051   6.466   4.059   8.324 -1.0732 -0.5602 -0.8309
  327MOL0     C43052   6.451   3.933   8.393 -0.3396  0.4143 -0.5766
  327MOL0     C43053   6.378   3.945   8.528 -0.5149  0.4187 -0.6115
  327MOL0     C43054   6.281   4.060   8.535 -0.3789  0.7538  0.0900
  327MOL0     C43055   6.180   4.042   8.654 -0.2775  0.1215  0.7043
  327MOL0     O43056   6.063   4.108   8.629  0.2551  0.0978 -1.5894
  327MOL0     C43057   5.955   4.081   8.705  0.4815 -0.1668  0.3405
  327MOL0     C43058   5.954   4.007   8.827 -0.6129  0.5536 -1.0316
  327MOL0     C43059   5.835   3.974   8.897 -0.2751  0.3093 -0.0006
  327MOL0     C43060   5.714   4.008   8.831  0.2285 -0.9833  0.6339
  327MOL0     C43061   5.578   3.988   8.896 -0.1579 -0.8101  0.1152
  327MOL0     O43062   5.581   3.892   8.997 -0.3234 -0.5048 -0.3050
  327MOL0     C43063   5.468   3.840   9.047 -0.1707 -0.4275  0.5032
  327MOL0     C43064   5.453   3.706   9.034  0.1078  0.0234  0.7801
  327MOL0     C43065   5.336   3.648   9.096  0.7355 -0.2910  0.0263
  327MOL0     C43066   5.237   3.731   9.161  0.3438  0.8487  0.2575
  327MOL0     O43067   5.133   3.674   9.223  0.3177 -0.1503  0.1706
  327MOL0     C43068   5.024   3.752   9.284  0.1341 -0.5996  0.3877
  327MOL0     C43069   4.891   3.671   9.280 -0.2919 -1.3118  0.7868
  327MOL0     C43070   4.891   3.544   9.369 -0.6023 -0.5216 -0.5629
  327MOL0     C43071   4.754   3.477   9.371 -0.5673 -0.9338  0.9337
  327MOL0     C43072   4.757   3.334   9.421  1.1799 -0.6144  0.2813
  327MOL0     C43073   4.882   3.249   9.390  0.1719  0.5702 -0.5701
  327MOL0     C43074   4.867   3.102   9.433  0.3600  0.5737 -0.9169
  327MOL0     C43075   4.975   3.023   9.372 -0.1493 -0.4556 -0.8809
  327MOL0    Cl43076   4.986   2.855   9.419 -0.0332  0.1318 -0.4323
  327MOL0     C43077   5.260   3.868   9.157 -0.1564 -0.2863  0.9021
  327MOL0     C43078   5.377   3.929   9.105 -0.3894  1.0457  0.4547
  327MOL0     O43079   5.479   4.030   8.838 -0.0482  0.3626  0.3848
  327MOL0     C43080   5.715   4.081   8.715  1.0919 -0.5556 -0.3495
  327MOL0     C43081   5.831   4.109   8.647  1.0537  0.9520 -0.2445
  327MOL0     N43082   6.390   4.113   8.223 -0.3335  1.0225 -0.0784
  327MOL0     N43083   6.445   4.223   8.185 -0.1914 -0.4906 -0.0125
  327MOL0     C43084   7.341   4.280   8.428  0.6713 -0.3896  0.2804
  327MOL0     C43085   7.245   4.208   8.490  0.1044 -0.7488  1.2308
  327MOL0     C43086   6.861   4.004   8.520 -1.0136  0.3908 -0.9066
  327MOL0     C43087   6.844   3.892   8.440 -0.5631  0.1130 -0.3712
  327MOL0     C43088   6.776   3.783   8.495  0.0252 -0.6005  0.0165
  327MOL0     C43089   6.719   3.783   8.631 -0.9507  0.6675 -0.1817
  327MOL0     O43090   6.656   3.695   8.700 -0.1978  0.0972 -0.3579
  327MOL0     C43091   6.613   3.574   8.638 -0.3838 -0.4086  0.3911
  327MOL0     C43092   6.730   3.473   8.618 -0.0376  0.5225 -0.4845
  327MOL0     C43093   6.665   3.353   8.551 -0.2860 -0.5669  0.0326
  327MOL0     C43094   6.759   3.240   8.497  0.1179  0.7043 -0.1359
  327MOL0     C43095   6.822   3.303   8.384  0.2408 -0.5138  0.4368
  327MOL0     C43096   6.870   3.357   8.286 -0.1528  0.1821  0.1390
  327MOL0     C43097   6.736   3.902   8.703  0.2986  0.0381  0.7929
  327MOL0     C43098   6.793   4.011   8.648  0.3702 -0.8617 -0.6875
  327MOL0     H43099   6.995   4.452   8.480 -0.8900  0.4118 -0.6983
  327MOL0     H43100   7.193   4.585   8.396 -2.7222  0.1787 -0.8624
  327MOL0     H43101   7.483   4.643   8.198  1.5018 -0.8469  0.2800
  327MOL0     H43102   7.312   4.643   8.228 -1.3020 -1.3959 -1.9093
  327MOL0     H43103   7.468   4.436   8.046  1.1061  1.3432 -1.6050
  327MOL0     H43104   7.385   4.570   7.999  0.8200  1.5060  1.3709
  327MOL0     H43105   7.273   4.338   8.151 -1.5627  1.4977  2.1575
  327MOL0     H43106   7.257   4.370   7.974 -0.1678  3.0026 -1.3008
  327MOL0     H43107   7.133   4.554   8.174  1.8085  1.5436 -1.7818
  327MOL0     H43108   7.114   4.565   8.012  0.6682  1.1083  1.7768
  327MOL0     H43109   7.046   4.306   8.154  0.6656 -2.2501 -3.3272
  327MOL0     H43110   6.995   4.347   7.990  2.6463 -0.1898 -0.8571
  327MOL0     H43111   6.852   4.526   8.077 -1.0136  0.0352  0.5189
  327MOL0     H43112   6.913   4.485   8.245  1.1097 -0.2933  0.2217
  327MOL0     H43113   6.750   4.284   8.074  2.3404  1.7281 -1.4563
  327MOL0     H43114   6.818   4.249   8.221 -2.8727 -2.3525 -0.0310
  327MOL0     H43115   6.584   4.451   8.210  1.3745  1.4569  0.0863
  327MOL0     H43116   6.674   4.420   8.347 -1.0360 -1.6198  0.7899
  327MOL0     H43117   6.632   4.125   8.435 -0.6641  0.5939  1.0932
  327MOL0     H43118   6.547   3.883   8.402 -1.1384 -1.3511 -1.3479
  327MOL0     H43119   6.387   3.870   8.330 -0.6278 -0.9137  0.9443
  327MOL0     H43120   6.449   3.945   8.611  1.4195 -1.2057 -2.1761
  327MOL0     H43121   6.309   3.860   8.531 -0.5435  0.0302 -5.3989
  327MOL0     H43122   6.337   4.152   8.557 -0.7749  0.9256  0.3740
  327MOL0     H43123   6.223   4.066   8.443  0.1175 -2.3646 -0.5344
  327MOL0     H43124   6.217   4.090   8.745 -1.6950  2.3320  0.1881
  327MOL0     H43125   6.158   3.937   8.674  1.1970  0.0387  2.1093
  327MOL0     H43126   6.044   3.982   8.881 -0.1476  3.3950 -0.3427
  327MOL0     H43127   5.839   3.921   8.992 -2.3479  0.7121  0.3728
  327MOL0     H43128   5.529   3.654   8.976 -0.3362  2.3013 -2.0848
  327MOL0     H43129   5.320   3.542   9.107  1.3020 -0.4086 -0.2447
  327MOL0     H43130   5.010   3.846   9.230  4.1142 -0.4189 -0.7034
  327MOL0     H43131   5.052   3.773   9.387  0.7484 -1.5149  0.4254
  327MOL0     H43132   4.867   3.637   9.179  0.5654 -0.5168  0.3026
  327MOL0     H43133   4.817   3.740   9.322  0.6046  0.4790 -0.4228
  327MOL0     H43134   4.913   3.571   9.473 -0.3787 -0.7010 -0.5638
  327MOL0     H43135   4.964   3.476   9.325  0.2908 -1.5072  2.2112
  327MOL0     H43136   4.677   3.544   9.412  0.2771  1.4200 -1.1061
  327MOL0     H43137   4.736   3.471   9.264 -1.1175 -0.4877  0.9947
  327MOL0     H43138   4.669   3.282   9.382  0.5274  1.4607 -1.1840
  327MOL0     H43139   4.759   3.332   9.530  0.4345 -2.0231  0.2872
  327MOL0     H43140   4.967   3.296   9.440  2.0455 -1.6926 -1.4431
  327MOL0     H43141   4.902   3.261   9.283 -0.7851  0.9278 -0.7234
  327MOL0     H43142   4.886   3.097   9.541  0.6199  1.8633 -0.8883
  327MOL0     H43143   4.765   3.065   9.426 -0.1275  1.1518  1.8980
  327MOL0     H43144   5.073   3.067   9.395  1.0186 -3.4948  0.5370
  327MOL0     H43145   4.965   3.036   9.264 -0.7443  1.9135 -0.5882
  327MOL0     H43146   5.184   3.936   9.196  0.4245  0.5918  0.5453
  327MOL0     H43147   5.393   4.036   9.113 -0.3540  0.9486  2.0204
  327MOL0     H43148   5.620   4.101   8.667  0.5249  4.6790  2.2514
  327MOL0     H43149   5.815   4.148   8.547 -2.1246 -1.2278 -0.7508
  327MOL0     H43150   7.434   4.236   8.395  1.7424 -0.8437  3.5671
  327MOL0     H43151   7.272   4.108   8.520 -0.1551 -1.3749 -0.5467
  327MOL0     H43152   6.889   3.875   8.342  2.9227 -1.9271  1.3875
  327MOL0     H43153   6.764   3.696   8.432 -0.7743  1.5557 -2.9762
  327MOL0     H43154   6.562   3.593   8.543 -0.0946  3.2244  0.8073
  327MOL0     H43155   6.544   3.530   8.711 -0.9676  1.0756  0.7785
  327MOL0     H43156   6.808   3.513   8.553  2.0651 -0.9760  0.9818
  327MOL0     H43157   6.773   3.447   8.715  0.9433 -2.2174 -1.5599
  327MOL0     H43158   6.608   3.396   8.468 -1.3458  0.8786  1.4308
  327MOL0     H43159   6.587   3.316   8.619 -1.3220  2.7896  0.8393
  327MOL0     H43160   6.826   3.211   8.578 -0.2254  0.2083 -0.0251
  327MOL0     H43161   6.700   3.154   8.464  0.3126  0.1434  0.9417
  327MOL0     H43162   6.900   3.408   8.197 -0.7819  0.1097 -0.1173
  327MOL0     H43163   6.679   3.915   8.794 -1.0165 -0.5615  0.0754
  327MOL0     H43164   6.797   4.099   8.710  0.2007 -1.3949  0.0904
  328MOL0     O43165   2.606   3.719   4.239  0.1853  0.9893  0.1597
  328MOL0     C43166   2.637   3.819   4.174 -0.2372 -0.2354  0.5343
  328MOL0     O43167   2.550   3.900   4.106  0.4516 -0.2416  0.0255
  328MOL0     C43168   2.418   3.870   4.129  0.0869 -0.2802  0.9500
  328MOL0     C43169   2.337   3.886   4.015  0.0295 -0.6275 -0.8770
  328MOL0     C43170   2.193   3.866   4.024 -0.9702  0.1942  0.3423
  328MOL0     C43171   2.136   3.830   4.149 -0.1048  0.6207  0.0356
  328MOL0     O43172   1.998   3.814   4.159 -0.0127 -0.0256 -0.0672
  328MOL0     C43173   1.955   3.674   4.124  0.1360 -0.3449  0.2238
  328MOL0     C43174   1.805   3.663   4.171 -0.5359  0.2192 -0.5668
  328MOL0     C43175   1.710   3.752   4.095  1.0160  0.3668  0.7066
  328MOL0     C43176   1.572   3.753   4.164 -0.7392  0.7289 -0.3025
  328MOL0     C43177   1.467   3.826   4.081 -0.0338  0.2472 -0.2302
  328MOL0     C43178   1.361   3.902   4.161 -0.1838 -0.1159  0.3097
  328MOL0     C43179   1.286   3.819   4.262  0.8981 -0.2582 -0.0651
  328MOL0     C43180   1.205   3.709   4.200 -0.1893  1.0470  0.2723
  328MOL0     N43181   1.080   3.759   4.142  1.1628 -0.0782 -0.0219
  328MOL0     C43182   0.982   3.815   4.216  0.4839  1.0683 -0.0445
  328MOL0     C43183   0.904   3.880   4.131  0.5689 -0.4871  0.6585
  328MOL0     C43184   0.795   3.979   4.168  0.6455 -0.7211  1.1075
  328MOL0     C43185   0.684   3.990   4.060 -0.1762 -0.3245 -0.4402
  328MOL0     C43186   0.578   4.103   4.093 -1.0270  0.6754  0.6319
  328MOL0     C43187   0.468   4.105   3.987  0.3965  0.6525 -0.1385
  328MOL0     O43188   0.378   4.228   4.004 -0.7884  0.0267 -0.4065
  328MOL0     C43189   0.296   4.213   4.114  0.3390 -0.4371 -0.6224
  328MOL0     C43190   0.199   4.303   4.130  0.5899 -1.1185 -0.3629
  328MOL0     C43191   0.111   4.304   4.243 -0.0082  0.0763 -0.2822
  328MOL0     C43192   0.105   4.206   4.342  0.6971 -0.2201 -0.1224
  328MOL0     C43193   0.010   4.216   4.454 -0.2169 -0.1348  0.3615
  328MOL0     O43194  -0.027   4.094   4.496  1.1366  0.2210 -0.1923
  328MOL0     C43195  -0.143   4.092   4.565 -0.7036 -0.0663 -0.4180
  328MOL0     C43196  -0.142   4.077   4.700  0.1208  0.4035 -0.3953
  328MOL0     C43197  -0.260   4.085   4.776  0.0215 -0.7425  0.7894
  328MOL0     C43198  -0.383   4.113   4.710 -0.3291 -0.5295 -0.0804
  328MOL0     O43199  -0.511   4.121   4.765 -0.1306  0.1954 -0.2047
  328MOL0     C43200  -0.518   4.112   4.907  0.5285  0.0711 -0.4151
  328MOL0     C43201  -0.495   4.242   4.980  0.2110  0.6048  0.4864
  328MOL0     C43202  -0.572   4.222   5.106  0.5250 -1.1259  1.2038
  328MOL0     C43203  -0.550   4.352   5.178 -0.8595 -0.6386 -0.1895
  328MOL0     C43204  -0.614   4.355   5.320  0.1100  0.2390 -0.5670
  328MOL0     C43205  -0.642   4.506   5.370  0.6118  0.3914  1.0352
  328MOL0     C43206  -0.685   4.504   5.516  0.3168  1.4546 -0.0137
  328MOL0     C43207  -0.701   4.640   5.569  0.1964  0.2103 -0.6548
  328MOL0    Cl43208  -0.549   4.736   5.598 -0.1125 -0.2653 -0.0519
  328MOL0     C43209  -0.371   4.141   4.575  0.5968  0.2487  0.2067
  328MOL0     C43210  -0.255   4.118   4.505  0.1164 -0.2349  0.0940
  328MOL0     O43211  -0.035   4.326   4.483 -0.6929  0.1804 -0.3915
  328MOL0     C43212   0.183   4.098   4.309  0.2538 -0.7051  0.1598
  328MOL0     C43213   0.282   4.105   4.211 -1.2361 -0.7912 -0.6685
  328MOL0     N43214   0.961   3.876   4.007 -0.3623  0.3779  0.5433
  328MOL0     N43215   1.052   3.791   4.009 -1.0143 -0.2104  0.0664
  328MOL0     C43216   2.222   3.820   4.259  0.2778  1.1830  0.1189
  328MOL0     C43217   2.358   3.834   4.243  0.0606  0.1391  0.3661
  328MOL0     C43218   2.784   3.852   4.180 -0.2260  0.2725  0.1439
  328MOL0     C43219   2.836   3.965   4.115  0.4051 -0.6658  0.6008
  328MOL0     C43220   2.972   3.992   4.117 -0.7718  0.2793  0.0512
  328MOL0     C43221   3.064   3.903   4.167  0.3228  0.0405  0.4141
  328MOL0     O43222   3.195   3.912   4.151 -0.6453 -0.4786  0.3819
  328MOL0     C43223   3.255   4.007   4.063 -0.4753 -1.0861 -0.5295
  328MOL0     C43224   3.303   4.130   4.149 -0.2603 -0.1632 -0.5804
  328MOL0     C43225   3.411   4.093   4.254  0.2598  0.0668  1.2861
  328MOL0     C43226   3.485   4.218   4.302 -0.1980  0.7282  0.4831
  328MOL0     C43227   3.556   4.202   4.428 -0.7189  0.3811 -0.4851
  328MOL0     C43228   3.601   4.178   4.539  0.7570 -0.3169 -0.6827
  328MOL0     C43229   3.017   3.791   4.235 -0.9365 -0.7670  0.3496
  328MOL0     C43230   2.880   3.777   4.247 -0.3730 -0.1029  0.2695
  328MOL0     H43231   2.385   3.918   3.923  4.1814  2.2588  1.9309
  328MOL0     H43232   2.131   3.873   3.935  1.2872 -1.9193 -1.5449
  328MOL0     H43233   2.021   3.605   4.178 -0.6368  1.1736  3.3161
  328MOL0     H43234   1.963   3.652   4.017  0.0810  0.1921  0.1070
  328MOL0     H43235   1.805   3.688   4.278 -0.0959 -0.6605 -0.3529
  328MOL0     H43236   1.781   3.558   4.158  0.9383 -0.2300  0.0934
  328MOL0     H43237   1.693   3.711   3.995 -2.0023  2.9295 -0.0062
  328MOL0     H43238   1.742   3.856   4.095 -2.6939  1.6827  0.1873
  328MOL0     H43239   1.540   3.649   4.177  1.8721  0.1506  2.7729
  328MOL0     H43240   1.585   3.803   4.260 -0.5857 -0.2103  0.1852
  328MOL0     H43241   1.422   3.761   4.006 -0.2624  1.2076 -0.9375
  328MOL0     H43242   1.521   3.902   4.024  2.3523  1.0385  2.7939
  328MOL0     H43243   1.279   3.946   4.102 -2.5328 -3.3995  0.8326
  328MOL0     H43244   1.411   3.977   4.223 -3.5833  2.8316 -0.1617
  328MOL0     H43245   1.351   3.772   4.336  1.2550 -0.8347 -0.7367
  328MOL0     H43246   1.217   3.881   4.322  1.5772  0.1826  0.2717
  328MOL0     H43247   1.168   3.637   4.273 -0.0718  1.4804  0.7587
  328MOL0     H43248   1.269   3.662   4.124  0.6129 -2.3235  2.7739
  328MOL0     H43249   0.961   3.805   4.322 -2.6703 -0.5300 -0.6781
  328MOL0     H43250   0.843   4.077   4.161 -0.2658 -0.3789 -1.2926
  328MOL0     H43251   0.744   3.964   4.264 -2.5939  0.3633 -0.3043
  328MOL0     H43252   0.641   3.890   4.052  0.7944 -0.6262 -2.3696
  328MOL0     H43253   0.732   4.009   3.964 -1.6827 -0.2377 -1.2088
  328MOL0     H43254   0.542   4.091   4.196  3.2666  0.0386  2.2512
  328MOL0     H43255   0.627   4.201   4.082  0.5138 -0.2763 -1.7237
  328MOL0     H43256   0.410   4.013   3.998 -2.5453  2.6087  2.2502
  328MOL0     H43257   0.516   4.115   3.888 -1.6733  0.6291 -1.1982
  328MOL0     H43258   0.194   4.378   4.051  2.1633 -1.0546 -0.4253
  328MOL0     H43259   0.052   4.395   4.253  1.6772  1.3035 -1.0029
  328MOL0     H43260  -0.045   4.058   4.745  0.5487 -0.6532 -1.6924
  328MOL0     H43261  -0.255   4.057   4.881 -0.9957  2.1463  1.7106
  328MOL0     H43262  -0.454   4.038   4.956  1.2758  0.8190 -0.2272
  328MOL0     H43263  -0.621   4.078   4.919  0.9773 -0.8647  0.9277
  328MOL0     H43264  -0.526   4.332   4.927 -0.6561  0.9455  1.5597
  328MOL0     H43265  -0.387   4.251   4.997  0.3412 -0.0872  0.0761
  328MOL0     H43266  -0.533   4.145   5.173  0.3221 -2.8354 -0.5611
  328MOL0     H43267  -0.679   4.204   5.089  0.8189 -0.7941 -1.3356
  328MOL0     H43268  -0.444   4.365   5.203 -1.7145  0.7322  3.4835
  328MOL0     H43269  -0.578   4.439   5.119 -2.0592  0.2593  1.6196
  328MOL0     H43270  -0.555   4.298   5.392  0.4536  1.9355  0.5479
  328MOL0     H43271  -0.703   4.291   5.317 -0.1491  0.6069 -3.4203
  328MOL0     H43272  -0.729   4.538   5.313  1.3766 -0.5024 -0.7414
  328MOL0     H43273  -0.552   4.567   5.354 -0.6594  1.9435 -0.4732
  328MOL0     H43274  -0.779   4.448   5.515  0.3857  1.2236 -3.5082
  328MOL0     H43275  -0.607   4.450   5.571 -0.1780 -0.1432 -0.8180
  328MOL0     H43276  -0.750   4.638   5.667 -0.3704 -1.2306 -0.9442
  328MOL0     H43277  -0.770   4.693   5.503 -0.7140 -0.0116  0.0996
  328MOL0     H43278  -0.460   4.162   4.517  1.3974  2.9931 -0.1747
  328MOL0     H43279  -0.248   4.135   4.398 -0.1479 -1.9260 -0.2239
  328MOL0     H43280   0.165   4.007   4.367 -0.4909 -0.3187  0.5405
  328MOL0     H43281   0.345   4.017   4.208  0.8727  0.6252 -0.2878
  328MOL0     H43282   2.180   3.791   4.355 -0.4805  0.1718 -0.4943
  328MOL0     H43283   2.428   3.830   4.326  1.5818  0.4800 -0.8471
  328MOL0     H43284   2.772   4.036   4.064  4.0671  1.4128 -1.5856
  328MOL0     H43285   3.001   4.086   4.071 -2.2787 -0.2457 -2.0998
  328MOL0     H43286   3.187   4.029   3.980  0.1577  1.9904 -0.3529
  328MOL0     H43287   3.340   3.950   4.023  2.3349  2.2332  0.2224
  328MOL0     H43288   3.344   4.207   4.083  0.7248 -0.4523 -0.3228
  328MOL0     H43289   3.218   4.185   4.192  0.1518  1.0903 -1.3092
  328MOL0     H43290   3.479   4.016   4.217  1.0110  0.8143  1.0547
  328MOL0     H43291   3.356   4.056   4.340  1.0308  2.3031  2.8448
  328MOL0     H43292   3.553   4.237   4.219  0.6020  1.0497  1.1955
  328MOL0     H43293   3.419   4.303   4.320 -1.7049 -0.5273  1.0777
  328MOL0     H43294   3.643   4.165   4.636  1.0955 -1.2288 -0.9411
  328MOL0     H43295   3.087   3.728   4.289 -0.1446 -0.2816 -0.0807
  328MOL0     H43296   2.858   3.696   4.316  1.1561 -0.0307  0.8804
  329MOL0     O43297   6.663   7.090   5.384 -0.3747 -0.0208  0.5527
  329MOL0     C43298   6.727   6.998   5.324 -0.7025  1.0741 -1.0222
  329MOL0     O43299   6.682   6.870   5.306  0.2798  0.6342 -0.0517
  329MOL0     C43300   6.560   6.830   5.356  0.0480 -0.4176  0.2196
  329MOL0     C43301   6.437   6.846   5.290 -0.3933 -0.2750  0.4053
  329MOL0     C43302   6.314   6.788   5.332 -0.2354  0.1783 -0.3526
  329MOL0     C43303   6.319   6.709   5.449  0.0760 -0.3169  0.9421
  329MOL0     O43304   6.220   6.643   5.513  0.8428  0.9394  0.0466
  329MOL0     C43305   6.079   6.659   5.479 -0.1979  0.8165  0.6532
  329MOL0     C43306   5.973   6.646   5.591 -0.5827 -0.2468 -0.1999
  329MOL0     C43307   5.977   6.505   5.650  0.1910 -0.8652  0.1318
  329MOL0     C43308   5.850   6.486   5.730 -0.2514  0.5485 -0.3105
  329MOL0     C43309   5.826   6.334   5.746 -0.9008 -0.3636 -0.1427
  329MOL0     C43310   5.699   6.313   5.829  0.7251  0.3641 -0.5250
  329MOL0     C43311   5.628   6.180   5.822  0.3633  0.6851  0.6104
  329MOL0     C43312   5.505   6.162   5.912  0.1957 -0.2697 -0.1414
  329MOL0     N43313   5.398   6.259   5.875 -0.0154  0.0062  0.8139
  329MOL0     C43314   5.303   6.237   5.780  0.5184  0.6125 -0.0022
  329MOL0     C43315   5.205   6.328   5.798 -0.3266 -0.4500  0.0552
  329MOL0     C43316   5.076   6.349   5.726 -0.2736 -0.2853 -0.7986
  329MOL0     C43317   4.959   6.363   5.821 -0.0384 -0.0114 -0.2198
  329MOL0     C43318   4.831   6.396   5.738 -0.6002  1.0758  0.3046
  329MOL0     C43319   4.698   6.409   5.810 -0.0957  0.4671 -0.3122
  329MOL0     O43320   4.674   6.282   5.871 -0.6174 -0.1166  0.2965
  329MOL0     C43321   4.546   6.252   5.908 -0.4816  0.2054  0.7269
  329MOL0     C43322   4.498   6.269   6.042 -0.4761  0.2619  0.5636
  329MOL0     C43323   4.370   6.224   6.085  1.1100 -0.5685  0.6149
  329MOL0     C43324   4.273   6.195   5.989 -0.1427 -0.2556 -0.6570
  329MOL0     C43325   4.128   6.173   6.025  0.0941 -0.2460  0.2994
  329MOL0     O43326   4.098   6.185   6.154 -0.0664  0.0535  0.2102
  329MOL0     C43327   3.966   6.167   6.189 -0.4031  0.0493 -1.1875
  329MOL0     C43328   3.895   6.280   6.233 -0.5187  0.2425 -0.0201
  329MOL0     C43329   3.772   6.266   6.301 -0.2850  0.1371  0.7051
  329MOL0     C43330   3.719   6.136   6.337 -0.8037  0.0668  0.1002
  329MOL0     O43331   3.612   6.129   6.426  0.2676  0.6283  0.1028
  329MOL0     C43332   3.555   6.009   6.472  0.0959 -0.2609 -0.4045
  329MOL0     C43333   3.415   6.038   6.554  0.5460 -0.4882 -0.0004
  329MOL0     C43334   3.428   6.148   6.653  0.4173  0.7197  0.4259
  329MOL0     C43335   3.284   6.169   6.711  0.2295 -0.1185 -0.2764
  329MOL0     C43336   3.248   6.327   6.700 -0.2496  0.0135 -1.0342
  329MOL0     C43337   3.114   6.366   6.763  0.0197 -0.1088  0.1486
  329MOL0     C43338   2.998   6.358   6.661  0.7249  0.2101 -0.2223
  329MOL0     C43339   2.864   6.397   6.721  0.5540 -0.4604  0.4867
  329MOL0    Cl43340   2.754   6.392   6.585 -0.4058  0.0116  0.1731
  329MOL0     C43341   3.799   6.022   6.308 -0.4147  0.1911  0.8283
  329MOL0     C43342   3.913   6.041   6.230  0.6962  0.2347  0.0443
  329MOL0     O43343   4.047   6.164   5.934  1.2572 -0.3132 -0.4872
  329MOL0     C43344   4.313   6.185   5.856 -0.2179 -0.2086  0.0318
  329MOL0     C43345   4.447   6.208   5.822 -1.0398  0.0692  0.2609
  329MOL0     N43346   5.243   6.404   5.910 -0.2957  0.4605  0.6094
  329MOL0     N43347   5.364   6.364   5.956 -0.1912 -0.0166  0.6190
  329MOL0     C43348   6.441   6.698   5.519 -0.2433  0.0501 -0.3713
  329MOL0     C43349   6.564   6.758   5.474  0.7937 -0.2596 -0.7115
  329MOL0     C43350   6.868   7.029   5.290  0.0115  0.0668  0.3551
  329MOL0     C43351   6.937   6.949   5.194 -0.1834  0.0933  1.1573
  329MOL0     C43352   7.073   6.979   5.160  0.6888  0.4196  0.1059
  329MOL0     C43353   7.123   7.100   5.208 -0.0607 -0.0606 -0.5112
  329MOL0     O43354   7.256   7.137   5.172  0.8373  0.0453  0.4572
  329MOL0     C43355   7.281   7.230   5.069 -0.4244 -0.3034 -1.1948
  329MOL0     C43356   7.436   7.242   5.042 -0.3280  0.0629  0.4939
  329MOL0     C43357   7.493   7.105   5.027  0.4825  0.9757  0.3137
  329MOL0     C43358   7.637   7.112   4.985 -0.6637  0.2715 -0.5153
  329MOL0     C43359   7.686   6.989   4.916 -0.1534  0.4010 -0.1763
  329MOL0     C43360   7.719   6.891   4.855 -0.2180 -0.9902  0.2551
  329MOL0     C43361   7.048   7.189   5.286 -0.1963  1.0752 -0.5728
  329MOL0     C43362   6.920   7.148   5.328 -0.4365  0.1399 -0.4064
  329MOL0     H43363   6.445   6.886   5.189  1.8726 -1.4177  0.0672
  329MOL0     H43364   6.217   6.787   5.284 -0.8934  2.2074  0.8116
  329MOL0     H43365   6.052   6.590   5.398 -2.9703  1.0155  1.2926
  329MOL0     H43366   6.067   6.763   5.447 -3.6371  1.0992  2.3373
  329MOL0     H43367   5.871   6.660   5.555 -0.1816  1.2029 -0.8417
  329MOL0     H43368   5.996   6.719   5.669  1.0970 -1.8619  0.9386
  329MOL0     H43369   6.065   6.478   5.709  0.9431 -1.3195 -1.1470
  329MOL0     H43370   5.981   6.431   5.569  0.2946 -2.0897  1.2213
  329MOL0     H43371   5.842   6.535   5.828 -1.9251  0.6143 -0.4476
  329MOL0     H43372   5.767   6.529   5.674 -0.5661  1.3725  0.7563
  329MOL0     H43373   5.892   6.281   5.815 -4.1865 -1.4677  2.3899
  329MOL0     H43374   5.813   6.287   5.648 -1.0406 -2.1310  0.6999
  329MOL0     H43375   5.631   6.387   5.787  1.1422  1.2975  0.3938
  329MOL0     H43376   5.720   6.331   5.935  3.0708  0.8364 -1.0087
  329MOL0     H43377   5.601   6.161   5.718  0.9871  1.3181  0.3272
  329MOL0     H43378   5.700   6.107   5.861 -2.6094 -1.1602  3.1169
  329MOL0     H43379   5.532   6.174   6.017  4.0051 -1.3880 -0.8248
  329MOL0     H43380   5.457   6.064   5.900 -1.1554  0.5458 -1.8754
  329MOL0     H43381   5.306   6.153   5.712  0.1890 -2.0591  3.0508
  329MOL0     H43382   5.066   6.261   5.662  0.2409 -1.8129  1.1178
  329MOL0     H43383   5.082   6.440   5.666  0.6077  0.8286  0.8880
  329MOL0     H43384   4.971   6.446   5.892  0.0733  0.2759 -0.5738
  329MOL0     H43385   4.949   6.273   5.883  0.0966 -0.0679 -0.2812
  329MOL0     H43386   4.854   6.487   5.680  0.2806  0.1804 -0.8017
  329MOL0     H43387   4.820   6.311   5.670  3.4809 -0.0142  0.7363
  329MOL0     H43388   4.622   6.437   5.737 -0.2311  0.4342 -0.1838
  329MOL0     H43389   4.701   6.475   5.897  1.2792 -0.2787  0.2483
  329MOL0     H43390   4.571   6.301   6.116 -0.7666  0.5923  0.7107
  329MOL0     H43391   4.356   6.228   6.192 -1.6113 -2.8636  0.4600
  329MOL0     H43392   3.936   6.378   6.208 -1.0571  0.2644 -0.8865
  329MOL0     H43393   3.723   6.361   6.320  1.2221  1.0156  0.3865
  329MOL0     H43394   3.634   5.968   6.536 -0.0478  1.1187  0.7142
  329MOL0     H43395   3.528   5.949   6.385 -2.9191  2.0443 -1.2216
  329MOL0     H43396   3.392   5.943   6.603  1.4748 -0.9519 -0.4465
  329MOL0     H43397   3.337   6.064   6.482 -0.6011  0.6322  1.5562
  329MOL0     H43398   3.469   6.238   6.605  0.8051  0.4615  0.2726
  329MOL0     H43399   3.503   6.119   6.728 -0.9846 -2.9996  0.5972
  329MOL0     H43400   3.205   6.118   6.656  0.7146 -2.6249  1.1786
  329MOL0     H43401   3.274   6.149   6.818 -2.4285 -0.3920 -0.5074
  329MOL0     H43402   3.250   6.342   6.591 -4.1544  4.7246 -0.7925
  329MOL0     H43403   3.324   6.383   6.755 -2.1863  3.3366 -1.4593
  329MOL0     H43404   3.109   6.461   6.817  1.9769  1.6027 -2.4476
  329MOL0     H43405   3.099   6.285   6.835  0.0251 -2.3934 -2.2421
  329MOL0     H43406   3.015   6.417   6.571 -0.9956 -3.5425 -3.2983
  329MOL0     H43407   2.992   6.255   6.623  0.7418  0.7277 -1.6972
  329MOL0     H43408   2.872   6.502   6.751 -0.6337  0.9151 -3.4127
  329MOL0     H43409   2.831   6.322   6.794  0.5986 -3.4226 -2.3016
  329MOL0     H43410   3.759   5.929   6.346 -0.0907  0.3120  1.4831
  329MOL0     H43411   3.977   5.955   6.209  1.3989  0.7987 -0.1921
  329MOL0     H43412   4.240   6.155   5.782 -1.3707 -0.0101  1.0559
  329MOL0     H43413   4.483   6.185   5.723  3.6850 -1.5533  2.0452
  329MOL0     H43414   6.447   6.628   5.601 -1.5198  1.0594  0.6381
  329MOL0     H43415   6.660   6.735   5.521  0.0431 -3.8536 -0.6057
  329MOL0     H43416   6.878   6.867   5.155 -2.1562  0.6768  2.7216
  329MOL0     H43417   7.122   6.906   5.097 -1.5162 -1.0550 -0.0302
  329MOL0     H43418   7.247   7.330   5.097  0.9476  0.8317 -3.2998
  329MOL0     H43419   7.232   7.195   4.978  1.0241  0.7118 -2.4187
  329MOL0     H43420   7.442   7.305   4.953  0.1776  1.8121  1.7011
  329MOL0     H43421   7.481   7.300   5.124 -0.4033 -0.8371  1.1955
  329MOL0     H43422   7.438   7.050   4.950 -1.0697  0.2241  1.8779
  329MOL0     H43423   7.487   7.047   5.120  1.4590 -0.1072 -0.2860
  329MOL0     H43424   7.630   7.186   4.905  1.6654 -0.6449 -1.6585
  329MOL0     H43425   7.700   7.152   5.065  1.0696  2.4913 -2.8312
  329MOL0     H43426   7.739   6.801   4.801 -1.3603 -1.9717  1.3769
  329MOL0     H43427   7.095   7.282   5.319  2.5770  0.3539 -2.1247
  329MOL0     H43428   6.861   7.215   5.389 -0.4729  1.9795 -2.3562
  330MOL0     O43429   3.638   6.358  10.367 -0.7156  0.0573  0.6332
  330MOL0     C43430   3.552   6.274  10.389  0.5807  0.5027 -0.0492
  330MOL0     O43431   3.577   6.155  10.454  0.8384  0.3985  0.4879
  330MOL0     C43432   3.696   6.108  10.488  0.1508 -0.1097 -0.3280
  330MOL0     C43433   3.825   6.162  10.446 -0.6778  0.4296 -0.4082
  330MOL0     C43434   3.935   6.098  10.493  0.0174  0.2248 -0.2786
  330MOL0     C43435   3.930   6.006  10.595  0.2107 -0.0635 -0.0149
  330MOL0     O43436   4.036   5.944  10.650  0.7163 -0.0245 -0.2330
  330MOL0     C43437   4.122   6.038  10.701 -0.0386 -0.3319  0.2678
  330MOL0     C43438   4.256   5.983  10.745  0.1947  0.3746  0.7752
  330MOL0     C43439   4.256   5.899  10.872  1.0544 -0.1557 -0.9317
  330MOL0     C43440   4.392   5.844  10.898 -0.3446 -1.6746 -0.1029
  330MOL0     C43441   4.409   5.767  11.032 -0.5720  0.4973 -0.8978
  330MOL0     C43442   4.553   5.758  11.048  0.4416  0.0720 -0.0130
  330MOL0     C43443   4.568   5.660  11.160  0.1218 -1.1674  0.0092
  330MOL0     C43444   4.670   5.725  11.256  0.2375 -0.1145  0.5206
  330MOL0     N43445   4.726   5.620  11.341 -0.3413 -0.9665  0.4260
  330MOL0     C43446   4.836   5.539  11.315 -0.1889  0.6537 -0.2889
  330MOL0     C43447   4.878   5.495  11.434 -0.3669  0.0174 -0.4103
  330MOL0     C43448   5.013   5.431  11.449  0.1553 -0.0160 -0.8127
  330MOL0     C43449   5.005   5.278  11.473 -0.1107 -0.4209 -0.9131
  330MOL0     C43450   5.030   5.185  11.359  0.1014 -0.4097 -0.7148
  330MOL0     C43451   4.905   5.179  11.271  0.3515 -0.9463  0.1163
  330MOL0     O43452   4.914   5.114  11.144  0.4048  0.2401 -0.2560
  330MOL0     C43453   4.800   5.076  11.079 -0.3072 -0.3274  0.0788
  330MOL0     C43454   4.806   4.980  10.981  0.8462  0.8479  0.6830
  330MOL0     C43455   4.702   4.938  10.915  0.2231  0.6297 -0.0840
  330MOL0     C43456   4.574   4.991  10.937 -0.0620  0.2684  0.7016
  330MOL0     C43457   4.459   4.960  10.854 -0.3369 -0.7575 -0.2627
  330MOL0     O43458   4.334   5.017  10.893 -0.3565 -0.4464  0.0344
  330MOL0     C43459   4.236   4.993  10.802  0.0889 -1.1474 -0.1641
  330MOL0     C43460   4.147   5.101  10.790  0.7861  0.4330  0.4990
  330MOL0     C43461   4.033   5.094  10.717  0.5543 -0.5854 -0.4328
  330MOL0     C43462   3.997   4.981  10.650 -0.7697 -0.7934  1.3625
  330MOL0     O43463   3.871   4.982  10.577  0.0701  0.0855 -0.6940
  330MOL0     C43464   3.836   4.888  10.476  0.0798  0.5394  0.4798
  330MOL0     C43465   3.752   4.785  10.547  0.5010 -0.1051 -0.5489
  330MOL0     C43466   3.701   4.671  10.448 -0.0323  0.5181 -0.0647
  330MOL0     C43467   3.642   4.541  10.512 -0.4319 -0.3521  0.2682
  330MOL0     C43468   3.648   4.436  10.401 -0.1661 -0.6717  0.4933
  330MOL0     C43469   3.575   4.301  10.438  0.8030 -0.4836 -0.4541
  330MOL0     C43470   3.598   4.182  10.355 -0.0451 -0.1307  1.2464
  330MOL0     C43471   3.482   4.144  10.266 -0.2236  0.4048 -0.3305
  330MOL0    Cl43472   3.463   4.271  10.145 -0.2770  0.3336 -0.0783
  330MOL0     C43473   4.085   4.873  10.662  0.2965 -0.2764 -0.5063
  330MOL0     C43474   4.202   4.871  10.742  0.0270 -0.4082 -0.4501
  330MOL0     O43475   4.493   4.900  10.753 -0.6362 -0.2184  1.0684
  330MOL0     C43476   4.556   5.080  11.042 -0.5414 -0.0503  0.9316
  330MOL0     C43477   4.672   5.117  11.113 -0.4908 -0.5511  0.0480
  330MOL0     N43478   4.787   5.543  11.527 -0.0876  0.1294  1.0131
  330MOL0     N43479   4.696   5.610  11.472  0.2885 -0.7558  0.1316
  330MOL0     C43480   3.810   5.961  10.652  0.2109  0.5047  0.3760
  330MOL0     C43481   3.693   6.009  10.588  0.0779  0.3882 -0.4570
  330MOL0     C43482   3.410   6.295  10.345 -0.1000  0.3114  1.1772
  330MOL0     C43483   3.377   6.400  10.254  1.0387  0.4865  0.8515
  330MOL0     C43484   3.246   6.410  10.195  1.0548 -0.4329 -0.9965
  330MOL0     C43485   3.147   6.315  10.236  0.1196  0.0827 -0.5291
  330MOL0     O43486   3.027   6.324  10.169 -0.0833  0.4466 -0.7567
  330MOL0     C43487   2.949   6.204  10.154  1.3617 -0.2613 -0.3902
  330MOL0     C43488   2.832   6.258  10.068  0.0046  0.9847  1.0651
  330MOL0     C43489   2.748   6.356  10.142 -0.2804 -0.4076 -0.5599
  330MOL0     C43490   2.625   6.422  10.083 -0.8296 -0.0152  1.0078
  330MOL0     C43491   2.530   6.329  10.017 -0.5762 -0.5075  0.2154
  330MOL0     C43492   2.445   6.258   9.956 -0.8386 -0.4724 -0.3524
  330MOL0     C43493   3.177   6.217  10.332  0.3652 -0.6651  1.1165
  330MOL0     C43494   3.308   6.204  10.385 -0.1223 -0.4013 -0.0285
  330MOL0     H43495   3.836   6.246  10.379  1.7369  0.5517  0.0541
  330MOL0     H43496   4.031   6.120  10.447  2.0192 -0.1570  3.3421
  330MOL0     H43497   4.073   6.084  10.788 -2.0172 -2.0153  0.1249
  330MOL0     H43498   4.159   6.108  10.626  2.9156 -0.6709  1.2598
  330MOL0     H43499   4.332   6.060  10.763  3.7768 -2.7162  0.2981
  330MOL0     H43500   4.293   5.920  10.663 -1.0758 -0.1155  0.5520
  330MOL0     H43501   4.180   5.821  10.860 -2.5164  3.1524 -1.9660
  330MOL0     H43502   4.225   5.955  10.960  1.7110  0.7475 -1.2590
  330MOL0     H43503   4.431   5.783  10.816 -0.2722 -0.6761 -0.8238
  330MOL0     H43504   4.463   5.927  10.897 -1.1498 -0.9515 -1.7808
  330MOL0     H43505   4.356   5.672  11.038 -1.5777  1.1127  1.1437
  330MOL0     H43506   4.375   5.831  11.114 -1.0802  0.8118 -1.3497
  330MOL0     H43507   4.595   5.859  11.047  1.3719 -0.2978 -2.0228
  330MOL0     H43508   4.602   5.711  10.962  4.3688  0.5671  1.7174
  330MOL0     H43509   4.479   5.635  11.218 -0.5164  0.2059 -0.3548
  330MOL0     H43510   4.611   5.566  11.123  2.4951 -0.7394  1.4905
  330MOL0     H43511   4.620   5.809  11.306 -2.5265 -0.0903 -1.9343
  330MOL0     H43512   4.747   5.772  11.195  0.8267  0.4462  1.6752
  330MOL0     H43513   4.904   5.540  11.230 -0.0495  0.9156 -0.1745
  330MOL0     H43514   5.059   5.480  11.535 -2.1677 -3.3870  2.7182
  330MOL0     H43515   5.075   5.436  11.360 -1.6418  0.4219 -2.0946
  330MOL0     H43516   4.909   5.265  11.523  0.2742  2.8186  0.9863
  330MOL0     H43517   5.085   5.265  11.547 -0.5078  0.3875 -0.3251
  330MOL0     H43518   5.117   5.216  11.300  1.0835 -1.3115  0.2116
  330MOL0     H43519   5.051   5.083  11.394 -0.5665  0.7413  3.4907
  330MOL0     H43520   4.875   5.282  11.250  1.8800 -0.3141  0.8494
  330MOL0     H43521   4.825   5.133  11.329 -0.5826 -0.7067 -0.9452
  330MOL0     H43522   4.902   4.930  10.969 -1.1687 -3.9834  2.1540
  330MOL0     H43523   4.722   4.863  10.840  1.1355 -0.5876  1.3393
  330MOL0     H43524   4.166   5.191  10.848 -1.9862  0.8118  0.9677
  330MOL0     H43525   3.966   5.179  10.709  1.3773  0.2441  1.0963
  330MOL0     H43526   3.919   4.843  10.421  3.0707  3.5758  2.0994
  330MOL0     H43527   3.773   4.943  10.405  0.5291 -0.6448 -0.8865
  330MOL0     H43528   3.669   4.832  10.601  0.7409 -0.8827  0.5288
  330MOL0     H43529   3.815   4.743  10.627 -0.9518  3.7660  2.9824
  330MOL0     H43530   3.789   4.628  10.398 -1.5029 -0.9260 -1.5183
  330MOL0     H43531   3.617   4.713  10.391 -0.2019  1.7035  1.0204
  330MOL0     H43532   3.697   4.523  10.604  0.4140  4.4567  0.9523
  330MOL0     H43533   3.539   4.557  10.544  0.0191  1.9340  0.7014
  330MOL0     H43534   3.752   4.413  10.377  1.5808  4.5721  1.7338
  330MOL0     H43535   3.594   4.457  10.308  3.3226  0.2781 -1.5033
  330MOL0     H43536   3.467   4.321  10.439  1.2330  2.6513  2.4586
  330MOL0     H43537   3.611   4.279  10.539  0.9999 -0.7996 -0.5944
  330MOL0     H43538   3.684   4.201  10.291 -2.5662  0.2120 -2.3092
  330MOL0     H43539   3.627   4.095  10.416 -0.0727 -0.7532  0.3832
  330MOL0     H43540   3.396   4.137  10.334  1.1276 -0.7801  1.3250
  330MOL0     H43541   3.496   4.047  10.218  0.3385 -0.7237  2.0048
  330MOL0     H43542   4.046   4.786  10.610 -3.7757 -0.1765  1.9090
  330MOL0     H43543   4.262   4.781  10.751 -0.6685 -0.7752  0.8382
  330MOL0     H43544   4.462   5.128  11.069  0.1728  0.8658  1.8549
  330MOL0     H43545   4.666   5.178  11.203 -2.2053  1.2908 -1.2430
  330MOL0     H43546   3.799   5.888  10.731 -0.0878  0.1232 -0.0206
  330MOL0     H43547   3.593   5.979  10.616 -0.7650  0.4501 -3.1643
  330MOL0     H43548   3.459   6.467  10.230  0.9331  0.3718  0.1554
  330MOL0     H43549   3.225   6.483  10.117  1.4140  0.9282  0.1346
  330MOL0     H43550   2.911   6.174  10.252  4.3096  0.5711  1.1227
  330MOL0     H43551   3.003   6.119  10.110  2.5951 -0.0915  0.7456
  330MOL0     H43552   2.873   6.305   9.978 -0.3964 -2.0870 -0.8742
  330MOL0     H43553   2.777   6.173  10.028  1.7174  2.2178 -4.7760
  330MOL0     H43554   2.809   6.442  10.172  1.2596 -0.8821 -2.1890
  330MOL0     H43555   2.727   6.291  10.228  0.8515  0.1575  0.1679
  330MOL0     H43556   2.576   6.484  10.159 -0.0732  2.2690 -0.2599
  330MOL0     H43557   2.656   6.485   9.999 -1.3658  0.0011  0.8206
  330MOL0     H43558   2.387   6.185   9.903 -1.3909 -0.5108  0.2912
  330MOL0     H43559   3.098   6.148  10.359  2.6501 -3.6839  0.6418
  330MOL0     H43560   3.322   6.140  10.472  0.9252  0.2471  0.2999
  331MOL0     O43561  10.697   6.462   2.755 -0.6700 -0.1699 -0.5920
  331MOL0     C43562  10.645   6.506   2.858 -0.5476 -0.5161 -0.2486
  331MOL0     O43563  10.706   6.564   2.967 -0.2157 -0.3643  0.6398
  331MOL0     C43564  10.847   6.552   2.982 -0.0233  0.3307  0.8389
  331MOL0     C43565  10.923   6.659   3.004  0.3593 -0.1884 -0.5379
  331MOL0     C43566  11.062   6.662   3.017 -0.2890  0.1654  0.3193
  331MOL0     C43567  11.124   6.538   3.018 -0.0970  0.1737 -0.3533
  331MOL0     O43568  11.266   6.516   3.025  0.8882  0.1366 -0.1621
  331MOL0     C43569  11.349   6.629   3.033  0.8586  0.3164 -0.1545
  331MOL0     C43570  11.480   6.587   3.101 -0.2151  0.1179 -0.9555
  331MOL0     C43571  11.574   6.698   3.142  0.2436  0.0784 -0.4750
  331MOL0     C43572  11.710   6.644   3.185 -0.1799 -0.8352  0.9806
  331MOL0     C43573  11.795   6.760   3.244 -0.6846  0.1728  0.9578
  331MOL0     C43574  11.884   6.835   3.140 -0.6644  0.5129 -0.4755
  331MOL0     C43575  11.984   6.945   3.202  0.0814  0.5352 -0.2188
  331MOL0     C43576  12.048   7.037   3.097 -0.4535  0.7302  0.1079
  331MOL0     N43577  11.950   7.138   3.052 -0.2395 -0.2466 -0.0708
  331MOL0     C43578  11.950   7.274   3.099 -0.5149  0.6841  0.4215
  331MOL0     C43579  11.880   7.339   3.001 -0.6484 -0.2164  0.1895
  331MOL0     C43580  11.863   7.488   2.980  0.0449  0.2058 -0.3642
  331MOL0     C43581  11.722   7.525   2.947  0.1962 -0.5282  0.2658
  331MOL0     C43582  11.727   7.676   2.938 -0.1162  0.0309  0.5735
  331MOL0     C43583  11.590   7.736   2.937  0.8929 -0.0122 -0.7187
  331MOL0     O43584  11.534   7.706   2.807 -0.2489 -0.4374  0.1006
  331MOL0     C43585  11.409   7.756   2.795  0.0754  0.6233 -0.0181
  331MOL0     C43586  11.332   7.688   2.702  0.3059 -0.4824 -0.2140
  331MOL0     C43587  11.204   7.726   2.673  0.0280  0.2047 -0.1919
  331MOL0     C43588  11.150   7.840   2.726  0.6374  0.2730  0.2717
  331MOL0     C43589  11.024   7.905   2.682  0.5563  0.0515 -0.4263
  331MOL0     O43590  10.930   7.832   2.625 -0.2195 -0.2604  0.4586
  331MOL0     C43591  10.803   7.874   2.573  0.2462  0.0192 -0.7471
  331MOL0     C43592  10.731   7.771   2.505 -0.5664  0.8975  0.9531
  331MOL0     C43593  10.615   7.802   2.441 -0.9597 -0.2197 -0.5901
  331MOL0     C43594  10.559   7.926   2.444  0.5229 -0.3942  0.5359
  331MOL0     O43595  10.447   7.958   2.390  0.2781  0.3371  0.2205
  331MOL0     C43596  10.346   7.856   2.383  0.0760  0.0856 -0.9113
  331MOL0     C43597  10.206   7.905   2.334 -0.8872 -0.0569  0.3027
  331MOL0     C43598  10.152   8.023   2.410 -0.1004  0.0544 -0.7115
  331MOL0     C43599  10.002   8.050   2.390 -0.0765  0.2116  0.6835
  331MOL0     C43600   9.929   7.964   2.491  0.2442 -0.5467  0.3315
  331MOL0     C43601   9.796   8.022   2.543 -0.0260  0.2659  0.4471
  331MOL0     C43602   9.743   7.968   2.671 -0.6962  0.4995 -0.2181
  331MOL0     C43603   9.590   8.000   2.669  0.1022 -0.6390 -0.6353
  331MOL0    Cl43604   9.521   7.939   2.818 -0.0257 -0.2307 -0.1960
  331MOL0     C43605  10.624   8.027   2.512 -0.3444 -0.4159  0.0203
  331MOL0     C43606  10.749   8.004   2.574  1.4430 -0.7865  0.9162
  331MOL0     O43607  11.012   8.026   2.716 -0.0204 -0.5994  0.3329
  331MOL0     C43608  11.226   7.913   2.823 -0.0534  0.7621  0.1786
  331MOL0     C43609  11.363   7.872   2.853 -0.3666 -0.4460 -0.6806
  331MOL0     N43610  11.829   7.247   2.909  0.6774  0.0826 -0.0819
  331MOL0     N43611  11.873   7.128   2.943  0.9345  0.5354  0.1105
  331MOL0     C43612  11.048   6.421   2.995  0.8528 -0.5054 -0.8768
  331MOL0     C43613  10.912   6.430   2.975 -0.5644 -0.3398 -0.0524
  331MOL0     C43614  10.488   6.507   2.859 -0.4792  0.1943  0.8092
  331MOL0     C43615  10.421   6.477   2.976  0.6394 -0.5836 -0.1992
  331MOL0     C43616  10.282   6.475   2.979  0.4613 -1.2136 -0.8352
  331MOL0     C43617  10.205   6.506   2.869  0.1877  0.0424 -0.2159
  331MOL0     O43618  10.063   6.510   2.878 -0.8765 -0.6505 -0.2578
  331MOL0     C43619   9.987   6.515   2.756  0.1724  0.4643 -0.6109
  331MOL0     C43620   9.832   6.516   2.779  0.1840 -0.8478 -0.3338
  331MOL0     C43621   9.806   6.640   2.873  0.0486  0.3562  0.2347
  331MOL0     C43622   9.717   6.747   2.810  0.2065  0.1231  0.0479
  331MOL0     C43623   9.579   6.706   2.794 -0.3141 -0.2058  0.5267
  331MOL0     C43624   9.461   6.676   2.770 -0.2847 -0.5456 -0.1469
  331MOL0     C43625  10.269   6.536   2.749 -0.2047 -0.3017  0.1362
  331MOL0     C43626  10.412   6.540   2.748 -0.0928 -0.9942 -0.6211
  331MOL0     H43627  10.859   6.746   3.009  0.8335  0.1400  3.3153
  331MOL0     H43628  11.099   6.764   3.026 -0.6762  0.2448  1.0104
  331MOL0     H43629  11.315   6.700   3.109  2.1635 -1.7397  2.5292
  331MOL0     H43630  11.365   6.674   2.934 -0.2868  3.3977  0.9298
  331MOL0     H43631  11.539   6.521   3.037  1.4769 -2.9811  3.2987
  331MOL0     H43632  11.455   6.539   3.196 -3.0601  1.1050 -1.0847
  331MOL0     H43633  11.536   6.746   3.233 -0.5512  0.0369 -0.7774
  331MOL0     H43634  11.582   6.776   3.066 -3.8184  0.1085 -1.0634
  331MOL0     H43635  11.696   6.572   3.266 -0.3180  0.9615  2.6494
  331MOL0     H43636  11.769   6.610   3.100 -0.6137  2.0353 -0.6131
  331MOL0     H43637  11.869   6.713   3.311  1.8056 -0.1382 -1.8060
  331MOL0     H43638  11.746   6.823   3.319  1.2266 -0.7337  3.0980
  331MOL0     H43639  11.828   6.903   3.075  0.9164  2.6735  0.3072
  331MOL0     H43640  11.928   6.769   3.065 -1.0113  2.0989 -2.1480
  331MOL0     H43641  11.935   7.002   3.281 -2.7624 -1.4591 -0.3979
  331MOL0     H43642  12.063   6.887   3.249  2.0390  1.1899 -2.5249
  331MOL0     H43643  12.103   6.989   3.016 -1.6323  3.5980 -2.6022
  331MOL0     H43644  12.132   7.077   3.154  2.1619 -1.2624 -2.0727
  331MOL0     H43645  11.999   7.328   3.179 -1.4036 -0.3337  1.6976
  331MOL0     H43646  11.933   7.517   2.901  0.9732  0.8497  0.6774
  331MOL0     H43647  11.896   7.540   3.070 -1.3460 -0.5792  0.6445
  331MOL0     H43648  11.661   7.499   3.034  1.4718 -3.5980  0.3901
  331MOL0     H43649  11.692   7.494   2.846  5.5655  1.9807 -2.5298
  331MOL0     H43650  11.798   7.722   3.008 -0.6263 -0.4075  1.3953
  331MOL0     H43651  11.768   7.703   2.840 -1.9270 -2.8017 -1.0967
  331MOL0     H43652  11.602   7.842   2.960 -0.1541 -0.1610  0.6394
  331MOL0     H43653  11.526   7.687   3.011 -0.9334  0.4750 -1.8891
  331MOL0     H43654  11.369   7.601   2.649  0.5280 -0.4073 -0.1846
  331MOL0     H43655  11.145   7.673   2.599  1.6500 -0.9012 -0.7469
  331MOL0     H43656  10.781   7.676   2.495 -3.7746 -0.8221 -0.3161
  331MOL0     H43657  10.575   7.719   2.385 -1.1324 -0.2518 -0.4186
  331MOL0     H43658  10.335   7.796   2.474  3.2554  1.5827  0.5849
  331MOL0     H43659  10.390   7.784   2.313 -0.3516 -0.8894 -0.1945
  331MOL0     H43660  10.140   7.819   2.351  1.0514 -1.6755  0.0883
  331MOL0     H43661  10.222   7.929   2.229  1.2994 -0.6588  0.4423
  331MOL0     H43662  10.201   8.115   2.376  3.2021 -1.3533 -0.0285
  331MOL0     H43663  10.185   7.999   2.511  2.2008  0.2829 -1.3607
  331MOL0     H43664   9.983   8.156   2.409 -2.7166 -0.2563  0.9906
  331MOL0     H43665   9.967   8.023   2.290  1.6960 -1.2072  0.3851
  331MOL0     H43666   9.980   7.948   2.586 -0.8717 -0.2290  1.0060
  331MOL0     H43667   9.917   7.860   2.460 -0.0801 -0.3628 -0.1739
  331MOL0     H43668   9.724   7.998   2.463 -1.2201 -0.0582  1.5896
  331MOL0     H43669   9.817   8.129   2.538  0.5995  0.1019 -1.7413
  331MOL0     H43670   9.739   7.860   2.689 -4.4818  0.7211  1.2608
  331MOL0     H43671   9.792   8.016   2.756 -0.0502  1.5142 -1.1492
  331MOL0     H43672   9.530   7.944   2.597  0.8487 -2.4924  0.1327
  331MOL0     H43673   9.580   8.109   2.659  1.2621 -0.6186 -1.8473
  331MOL0     H43674  10.577   8.124   2.495 -0.3343 -0.0759  1.6844
  331MOL0     H43675  10.793   8.091   2.622 -0.1534 -0.2797  1.5213
  331MOL0     H43676  11.195   8.012   2.855 -1.9750  0.9670 -2.0596
  331MOL0     H43677  11.427   7.937   2.912 -1.9392  0.6046 -0.0767
  331MOL0     H43678  11.111   6.334   2.979  1.5135 -0.1773 -0.1259
  331MOL0     H43679  10.856   6.337   2.965  1.1577 -1.5437  0.8447
  331MOL0     H43680  10.487   6.471   3.062 -1.4305  1.0761  1.6156
  331MOL0     H43681  10.240   6.462   3.078  1.6654  0.0566 -0.1314
  331MOL0     H43682  10.011   6.425   2.700  1.8574  1.3676 -1.4099
  331MOL0     H43683  10.011   6.598   2.690 -1.5772  1.4061 -0.1219
  331MOL0     H43684   9.777   6.524   2.685 -0.4216 -2.0654 -0.1104
  331MOL0     H43685   9.800   6.424   2.830 -0.2432  0.3571  1.7138
  331MOL0     H43686   9.901   6.688   2.896  0.4857  1.3748 -3.1767
  331MOL0     H43687   9.750   6.599   2.957 -1.0606 -3.1061 -1.9789
  331MOL0     H43688   9.709   6.832   2.879  1.3967 -1.6999  2.6182
  331MOL0     H43689   9.759   6.782   2.716  1.3204 -0.5079  0.2914
  331MOL0     H43690   9.357   6.655   2.755  0.1403 -2.1549 -1.1499
  331MOL0     H43691  10.228   6.573   2.655 -1.7986  1.0465  1.3222
  331MOL0     H43692  10.468   6.583   2.665 -1.3272 -0.2746 -1.0936
  332MOL0     O43693   7.850   2.271   4.860 -0.4222  0.0077  0.0543
  332MOL0     C43694   7.860   2.164   4.802  0.3191 -0.8790  0.8138
  332MOL0     O43695   7.752   2.111   4.720 -0.1936 -0.8484 -0.0346
  332MOL0     C43696   7.640   2.180   4.702 -0.1173 -0.2215  0.3973
  332MOL0     C43697   7.526   2.114   4.729  1.2154  0.3750  0.0091
  332MOL0     C43698   7.400   2.174   4.705  0.5309 -0.8159  0.0104
  332MOL0     C43699   7.388   2.304   4.655 -0.6205  0.4011 -0.3349
  332MOL0     O43700   7.279   2.375   4.619 -0.2078  0.2778 -0.6585
  332MOL0     C43701   7.158   2.307   4.625  0.4084 -0.9978  0.4982
  332MOL0     C43702   7.057   2.377   4.529 -0.2570  0.6568 -0.1275
  332MOL0     C43703   6.914   2.321   4.531  0.5084 -0.8547  0.6551
  332MOL0     C43704   6.818   2.404   4.457  0.6644 -0.8878 -0.3975
  332MOL0     C43705   6.679   2.334   4.442 -0.0671 -0.2961  0.1687
  332MOL0     C43706   6.565   2.443   4.435 -0.9693  1.0166 -0.4904
  332MOL0     C43707   6.428   2.373   4.431  0.4716 -0.3274 -0.0402
  332MOL0     C43708   6.315   2.474   4.366  0.1700  0.2864  0.6013
  332MOL0     N43709   6.177   2.432   4.371 -0.5233 -0.3258 -0.0065
  332MOL0     C43710   6.087   2.412   4.268  0.1438  1.1245 -0.0634
  332MOL0     C43711   5.971   2.381   4.324  0.6013 -0.2093 -0.3141
  332MOL0     C43712   5.834   2.367   4.263  0.0556  0.5246 -0.4883
  332MOL0     C43713   5.778   2.509   4.265  0.1319  0.3935 -0.3063
  332MOL0     C43714   5.704   2.534   4.137  0.2793 -0.5373  0.3576
  332MOL0     C43715   5.635   2.668   4.122  0.1667 -0.2445  0.0005
  332MOL0     O43716   5.538   2.682   4.233  0.7815 -0.9701 -0.0682
  332MOL0     C43717   5.406   2.666   4.211 -0.1218  0.2365  0.8364
  332MOL0     C43718   5.343   2.616   4.092 -0.2328 -0.8877  0.5737
  332MOL0     C43719   5.200   2.609   4.091  0.0179  0.0814  0.1454
  332MOL0     C43720   5.124   2.652   4.202 -0.1112 -0.4629 -0.6130
  332MOL0     C43721   4.978   2.673   4.189 -0.4060  0.3296  0.4341
  332MOL0     O43722   4.928   2.775   4.273 -0.5268  0.2029 -0.3035
  332MOL0     C43723   4.788   2.781   4.260 -1.2060  0.5894 -0.8892
  332MOL0     C43724   4.728   2.858   4.159  0.4324  0.8055  0.1446
  332MOL0     C43725   4.587   2.863   4.153 -0.2515 -0.5359 -0.0001
  332MOL0     C43726   4.512   2.824   4.260 -1.3768  0.8580  0.0498
  332MOL0     O43727   4.384   2.846   4.255 -0.1542 -0.4536 -0.3474
  332MOL0     C43728   4.337   2.969   4.296  0.5044 -0.1497 -0.1340
  332MOL0     C43729   4.257   2.958   4.425  0.0531 -0.0607 -1.0563
  332MOL0     C43730   4.197   3.094   4.470 -0.2388 -0.3294  0.0575
  332MOL0     C43731   4.100   3.071   4.590 -0.0701  0.3918  0.5787
  332MOL0     C43732   4.036   3.204   4.630 -0.1077 -0.2088  0.2076
  332MOL0     C43733   3.919   3.235   4.528  0.0639  0.1369  0.2699
  332MOL0     C43734   3.781   3.172   4.569  0.1441 -0.8925 -0.2188
  332MOL0     C43735   3.665   3.226   4.486 -0.3327  0.9031 -0.4156
  332MOL0    Cl43736   3.697   3.191   4.313 -0.3806 -0.3080  0.0056
  332MOL0     C43737   4.572   2.766   4.371 -0.8408 -0.4629  0.2486
  332MOL0     C43738   4.710   2.741   4.368 -1.2741  1.0049 -0.1742
  332MOL0     O43739   4.915   2.622   4.098 -0.7947 -0.2066  0.4590
  332MOL0     C43740   5.197   2.700   4.316  0.3822 -1.5879 -0.0147
  332MOL0     C43741   5.331   2.697   4.322 -0.5925  0.0209  0.6064
  332MOL0     N43742   5.987   2.376   4.462  0.4815  0.4212  0.1236
  332MOL0     N43743   6.114   2.394   4.483 -0.0895  0.0641  0.0495
  332MOL0     C43744   7.510   2.374   4.640 -0.8317  0.8787 -0.7757
  332MOL0     C43745   7.633   2.318   4.677  0.1767 -0.3033  0.9305
  332MOL0     C43746   7.993   2.088   4.811 -0.5683  0.7774  0.3266
  332MOL0     C43747   8.003   1.962   4.758 -0.2483 -0.0920 -0.9364
  332MOL0     C43748   8.124   1.887   4.775 -0.1340  0.5109  0.1887
  332MOL0     C43749   8.223   1.930   4.856 -0.2800  0.3191 -0.1024
  332MOL0     O43750   8.348   1.871   4.870  0.0114 -0.0025 -0.9507
  332MOL0     C43751   8.356   1.726   4.879  0.0872 -0.7130  0.8197
  332MOL0     C43752   8.475   1.697   4.972 -0.9220  0.1439  0.4318
  332MOL0     C43753   8.606   1.716   4.894  0.9811  0.7429  0.0006
  332MOL0     C43754   8.717   1.669   4.997 -0.7623  0.2827  0.3609
  332MOL0     C43755   8.848   1.664   4.928  0.5400  0.1964 -0.5638
  332MOL0     C43756   8.964   1.668   4.888 -0.4506 -0.7947  0.5100
  332MOL0     C43757   8.212   2.058   4.915  0.0393 -1.0353  0.5185
  332MOL0     C43758   8.091   2.133   4.894 -0.8824 -0.2343 -0.3834
  332MOL0     H43759   7.538   2.008   4.745 -3.8601 -0.4833 -0.3960
  332MOL0     H43760   7.302   2.128   4.710  0.3248 -0.3587  0.3752
  332MOL0     H43761   7.130   2.309   4.730  1.7683 -0.2082  0.8725
  332MOL0     H43762   7.167   2.202   4.595  0.7474 -1.1843  1.2491
  332MOL0     H43763   7.088   2.365   4.425 -2.7746 -0.1563 -0.8761
  332MOL0     H43764   7.052   2.483   4.556 -0.9234  1.2242 -2.2742
  332MOL0     H43765   6.880   2.311   4.634  2.5114  2.6315  1.8384
  332MOL0     H43766   6.906   2.224   4.482  0.2531 -1.6867  2.2674
  332MOL0     H43767   6.811   2.501   4.507  1.0193 -0.4571 -1.1649
  332MOL0     H43768   6.860   2.424   4.358 -2.5277 -1.7775 -2.0621
  332MOL0     H43769   6.667   2.275   4.533 -0.1276  0.1713  0.4656
  332MOL0     H43770   6.675   2.272   4.352  0.8937 -0.8715  0.5119
  332MOL0     H43771   6.580   2.506   4.346  1.4617  3.1597  1.2675
  332MOL0     H43772   6.571   2.514   4.519 -1.2562  2.1338 -1.3861
  332MOL0     H43773   6.430   2.277   4.378  1.5330 -0.0238 -0.5589
  332MOL0     H43774   6.411   2.352   4.537  1.9917  1.0159  0.5040
  332MOL0     H43775   6.338   2.495   4.261  2.2636  0.6277  1.0683
  332MOL0     H43776   6.337   2.569   4.415 -0.7171  0.5273  0.5414
  332MOL0     H43777   6.112   2.408   4.162 -4.0014 -1.5570 -1.2232
  332MOL0     H43778   5.768   2.298   4.317  0.3498 -0.0650 -0.8722
  332MOL0     H43779   5.851   2.339   4.158 -1.5361 -1.0849 -0.3636
  332MOL0     H43780   5.851   2.590   4.271  2.0081 -1.1981 -0.8113
  332MOL0     H43781   5.710   2.518   4.350  0.1438 -0.2810 -0.2193
  332MOL0     H43782   5.774   2.528   4.054  1.1451 -0.2580  1.0530
  332MOL0     H43783   5.627   2.456   4.134  1.7488 -2.3234  3.6157
  332MOL0     H43784   5.583   2.690   4.028 -3.8144  0.2048  2.1223
  332MOL0     H43785   5.715   2.739   4.144 -0.3236 -0.6522  3.6535
  332MOL0     H43786   5.399   2.571   4.011 -3.2963 -2.8767 -0.6121
  332MOL0     H43787   5.136   2.567   4.015 -0.1693  0.9839 -0.2115
  332MOL0     H43788   4.782   2.910   4.081 -0.1197 -0.5736 -1.2059
  332MOL0     H43789   4.537   2.899   4.064  1.5057 -1.1939 -1.2969
  332MOL0     H43790   4.291   3.024   4.213 -0.4043  0.0745  0.5114
  332MOL0     H43791   4.421   3.032   4.325  0.3011  0.5773 -1.0532
  332MOL0     H43792   4.325   2.927   4.505  0.0952  2.3424 -0.0647
  332MOL0     H43793   4.188   2.875   4.409  0.0626 -0.6672  1.6684
  332MOL0     H43794   4.141   3.147   4.392 -0.0520 -0.4320 -0.1455
  332MOL0     H43795   4.272   3.169   4.495 -1.9211  1.1995  0.7720
  332MOL0     H43796   4.030   2.994   4.558 -0.3474  0.9061 -0.0826
  332MOL0     H43797   4.167   3.034   4.668  1.0355  0.6148 -0.2304
  332MOL0     H43798   4.112   3.282   4.627  1.1179 -1.3690  0.4208
  332MOL0     H43799   3.998   3.190   4.732  1.5601 -0.8221  0.7688
  332MOL0     H43800   3.938   3.202   4.426  3.5103  0.3914  0.7020
  332MOL0     H43801   3.899   3.341   4.514 -0.2732 -0.2746 -3.2290
  332MOL0     H43802   3.781   3.064   4.555  0.1989 -0.8811 -0.3079
  332MOL0     H43803   3.752   3.206   4.669  0.5137 -0.4364 -0.2619
  332MOL0     H43804   3.643   3.333   4.490 -1.0653  0.9363 -3.1412
  332MOL0     H43805   3.576   3.170   4.517  0.8868 -1.6180 -1.1575
  332MOL0     H43806   4.520   2.722   4.455  2.2273 -1.1663  1.9324
  332MOL0     H43807   4.750   2.686   4.453  0.0586  1.8023 -0.2631
  332MOL0     H43808   5.131   2.732   4.395 -1.9992  1.8933 -3.0926
  332MOL0     H43809   5.390   2.720   4.410  1.0815 -3.4446  0.5479
  332MOL0     H43810   7.514   2.481   4.622 -2.5688  1.2385  0.7194
  332MOL0     H43811   7.722   2.379   4.660  0.6491 -1.1263  0.4085
  332MOL0     H43812   7.911   1.921   4.717 -0.1458 -0.0244 -1.2352
  332MOL0     H43813   8.141   1.788   4.734  0.6191  1.1087 -0.9986
  332MOL0     H43814   8.374   1.696   4.775  1.7863  2.8283 -0.0330
  332MOL0     H43815   8.270   1.676   4.925 -0.3808  0.2007  0.9631
  332MOL0     H43816   8.469   1.752   5.067  2.0619  1.7606 -0.1821
  332MOL0     H43817   8.475   1.592   5.002  0.9431  0.0007  0.0352
  332MOL0     H43818   8.624   1.822   4.877  0.3195  0.8407 -0.1332
  332MOL0     H43819   8.595   1.664   4.798 -1.1862  1.7929 -0.3875
  332MOL0     H43820   8.731   1.750   5.069 -1.7071  1.3275 -0.5914
  332MOL0     H43821   8.697   1.573   5.046  1.2458  1.4145  3.6908
  332MOL0     H43822   9.063   1.692   4.854 -1.9791  2.4074 -2.2942
  332MOL0     H43823   8.277   2.112   4.984 -0.2079 -0.9474  0.6815
  332MOL0     H43824   8.075   2.221   4.954  0.5598  0.2771 -0.7144
  333MOL0     O43825   4.023   2.588   7.161 -0.1881  0.3785  0.1369
  333MOL0     C43826   3.980   2.590   7.043  0.1182 -1.2750 -0.7363
  333MOL0     O43827   3.892   2.503   6.993 -0.6093  0.1582 -0.1056
  333MOL0     C43828   3.839   2.412   7.076 -0.2958  0.3521  0.5379
  333MOL0     C43829   3.718   2.436   7.144 -0.6097  0.1082 -0.6492
  333MOL0     C43830   3.678   2.345   7.243 -0.8647 -0.4558 -1.0399
  333MOL0     C43831   3.754   2.223   7.266 -0.2655  0.2184 -0.2380
  333MOL0     O43832   3.706   2.138   7.355  0.7705  0.1026  0.8169
  333MOL0     C43833   3.787   2.037   7.399  0.1060 -0.8791 -0.5829
  333MOL0     C43834   3.891   2.088   7.502 -0.9214  0.3145 -0.1498
  333MOL0     C43835   3.813   2.133   7.621 -0.0086  0.1523  0.7552
  333MOL0     C43836   3.886   2.171   7.741 -0.3438 -0.7406  0.5630
  333MOL0     C43837   3.797   2.229   7.845 -0.0512  0.0554 -0.4346
  333MOL0     C43838   3.714   2.120   7.906  0.4049  0.2807 -0.1248
  333MOL0     C43839   3.633   2.177   8.022 -0.3307  0.5096 -0.1327
  333MOL0     C43840   3.532   2.280   7.993  0.2013 -0.1634 -0.1366
  333MOL0     N43841   3.452   2.327   8.113 -0.1123 -0.1762  1.3533
  333MOL0     C43842   3.501   2.421   8.191 -0.1316  0.4716 -0.1404
  333MOL0     C43843   3.396   2.451   8.277 -0.7351  0.6822  0.8643
  333MOL0     C43844   3.424   2.534   8.398  0.4054 -1.0673 -0.6201
  333MOL0     C43845   3.307   2.622   8.426  0.1268  0.4600  0.2179
  333MOL0     C43846   3.327   2.705   8.563 -0.1555  0.3993  0.0464
  333MOL0     C43847   3.200   2.738   8.634 -0.2142  0.2372  0.6887
  333MOL0     O43848   3.109   2.796   8.547  0.1830  0.6185  0.0099
  333MOL0     C43849   2.989   2.839   8.596 -0.5173 -0.0543 -0.5856
  333MOL0     C43850   2.964   2.861   8.737 -0.5228  1.2186  0.5566
  333MOL0     C43851   2.846   2.914   8.762  0.0974 -0.2624 -0.1338
  333MOL0     C43852   2.754   2.964   8.666  0.6469  0.1946  1.0550
  333MOL0     C43853   2.635   3.040   8.703 -0.6348 -0.6693  1.0471
  333MOL0     O43854   2.527   3.049   8.618  0.2864  0.5686  0.1357
  333MOL0     C43855   2.396   3.076   8.651 -0.4934  0.2937  0.2043
  333MOL0     C43856   2.335   3.087   8.780 -0.4360  0.5452  0.2902
  333MOL0     C43857   2.202   3.120   8.810  0.0245 -0.5189  0.1958
  333MOL0     C43858   2.126   3.160   8.696 -0.1338 -0.9675  0.3548
  333MOL0     O43859   2.006   3.215   8.733 -0.0237 -0.4349  0.4086
  333MOL0     C43860   1.899   3.245   8.642 -0.3040 -0.1822  0.6709
  333MOL0     C43861   1.780   3.291   8.713  0.6878 -0.8485  1.4462
  333MOL0     C43862   1.725   3.196   8.818  0.3488  0.4703  0.1416
  333MOL0     C43863   1.608   3.245   8.892 -0.1746 -0.3540  0.3163
  333MOL0     C43864   1.553   3.137   8.983  0.3030 -0.2573  0.3762
  333MOL0     C43865   1.425   3.188   9.039 -0.3052 -0.3536 -0.7506
  333MOL0     C43866   1.340   3.099   9.139  0.1777  0.1934 -0.8279
  333MOL0     C43867   1.312   2.957   9.095 -0.1580 -0.7267  0.5519
  333MOL0    Cl43868   1.217   2.950   8.948 -0.7391 -0.1367  0.0079
  333MOL0     C43869   2.177   3.158   8.558  0.4906  0.1252  0.2264
  333MOL0     C43870   2.311   3.116   8.551 -0.2756  0.8694 -0.1186
  333MOL0     O43871   2.630   3.087   8.814 -0.0076 -0.7375  0.0745
  333MOL0     C43872   2.781   2.941   8.532  0.7680 -0.2010  0.3226
  333MOL0     C43873   2.905   2.886   8.496  0.0876  0.0229 -0.5039
  333MOL0     N43874   3.289   2.368   8.246 -0.6271  0.5010 -0.9136
  333MOL0     N43875   3.322   2.297   8.147 -0.0788 -0.6142  1.1074
  333MOL0     C43876   3.862   2.195   7.181 -0.5695 -0.1635  0.3886
  333MOL0     C43877   3.907   2.291   7.092 -0.0396  0.0463 -0.5565
  333MOL0     C43878   4.008   2.718   6.966 -0.3194  0.4805 -0.7260
  333MOL0     C43879   4.118   2.798   7.000 -0.7510 -0.2675  0.3412
  333MOL0     C43880   4.175   2.894   6.920 -0.5310  0.6917  0.2609
  333MOL0     C43881   4.102   2.938   6.811 -0.0340  0.2952 -0.5169
  333MOL0     O43882   4.162   3.035   6.735 -0.6825  0.2263 -0.6692
  333MOL0     C43883   4.088   3.088   6.631 -0.6167 -0.0913  0.7220
  333MOL0     C43884   4.174   3.200   6.593  0.2404 -1.1204  0.0892
  333MOL0     C43885   4.324   3.158   6.556 -0.7468 -0.3771 -0.0695
  333MOL0     C43886   4.317   3.141   6.404  0.2639 -0.3802 -0.0029
  333MOL0     C43887   4.256   3.011   6.360  0.3218  0.0672 -1.1443
  333MOL0     C43888   4.204   2.907   6.322  0.3514 -0.8403 -1.0138
  333MOL0     C43889   3.983   2.873   6.777 -1.2047  0.0174 -0.5337
  333MOL0     C43890   3.943   2.758   6.850  0.6778 -0.3353 -0.1307
  333MOL0     H43891   3.679   2.534   7.120 -0.2834 -0.0422 -1.8301
  333MOL0     H43892   3.586   2.359   7.299 -1.4268 -3.4436 -1.0447
  333MOL0     H43893   3.841   1.985   7.320 -1.3087  0.8005 -2.7981
  333MOL0     H43894   3.715   1.963   7.435 -0.5579 -1.0285 -2.1427
  333MOL0     H43895   3.947   2.177   7.473  0.2665 -0.6094 -0.7620
  333MOL0     H43896   3.962   2.007   7.522 -2.7291 -2.2398 -3.1522
  333MOL0     H43897   3.741   2.054   7.643 -0.6351  1.1165  2.3860
  333MOL0     H43898   3.743   2.214   7.598  0.4157 -0.1349 -1.8531
  333MOL0     H43899   3.927   2.078   7.783  1.2588 -0.7971 -0.9887
  333MOL0     H43900   3.961   2.247   7.717 -0.3638 -1.0960 -0.6906
  333MOL0     H43901   3.733   2.304   7.797  1.5925  1.0737 -1.1098
  333MOL0     H43902   3.854   2.279   7.924 -2.8827  0.2448  1.6750
  333MOL0     H43903   3.775   2.037   7.942  0.7211  1.1126  1.3420
  333MOL0     H43904   3.647   2.072   7.835  0.5445 -1.3340  0.7902
  333MOL0     H43905   3.578   2.092   8.062 -0.3689  1.9028  3.0085
  333MOL0     H43906   3.696   2.214   8.104 -3.4528 -0.5631  2.9882
  333MOL0     H43907   3.457   2.242   7.922 -0.8125  1.0313  0.2598
  333MOL0     H43908   3.577   2.367   7.945 -2.0530  0.6306 -0.9274
  333MOL0     H43909   3.602   2.463   8.191  0.4327 -0.7960  1.5347
  333MOL0     H43910   3.507   2.604   8.388  1.2475 -1.8691  0.4739
  333MOL0     H43911   3.445   2.469   8.484  3.0493  2.6032  1.8076
  333MOL0     H43912   3.217   2.561   8.442  0.7273 -0.7703 -0.9789
  333MOL0     H43913   3.293   2.689   8.341 -1.8106  0.3500  0.4077
  333MOL0     H43914   3.393   2.652   8.632 -0.0515 -1.3877 -1.3180
  333MOL0     H43915   3.369   2.804   8.547 -2.5617  1.8893  2.2746
  333MOL0     H43916   3.226   2.805   8.717  1.8408 -1.5046  1.5586
  333MOL0     H43917   3.170   2.642   8.676  3.0304 -1.9214 -1.4305
  333MOL0     H43918   3.026   2.834   8.822 -2.7004 -2.2360  1.2417
  333MOL0     H43919   2.821   2.941   8.864  0.8993  3.0198 -0.7174
  333MOL0     H43920   2.401   3.068   8.864  0.2878 -0.6538 -0.5220
  333MOL0     H43921   2.178   3.135   8.915 -0.9897  4.2124 -0.4822
  333MOL0     H43922   1.873   3.166   8.571 -0.1106 -0.1480  0.5603
  333MOL0     H43923   1.925   3.327   8.574 -1.2652  0.4128  1.0015
  333MOL0     H43924   1.717   3.328   8.631  1.1838 -1.9834  0.5318
  333MOL0     H43925   1.808   3.374   8.778 -0.2200 -1.1326  2.2244
  333MOL0     H43926   1.794   3.165   8.897 -3.6080 -0.3657  3.6364
  333MOL0     H43927   1.692   3.109   8.761  2.6888 -3.5441  4.2419
  333MOL0     H43928   1.623   3.334   8.954 -0.5423  0.9938 -1.4378
  333MOL0     H43929   1.532   3.267   8.816 -1.1039  0.4051  1.4370
  333MOL0     H43930   1.616   3.112   9.069 -1.7684 -2.3955  1.3725
  333MOL0     H43931   1.531   3.047   8.926  0.1537  0.1329 -0.1921
  333MOL0     H43932   1.360   3.226   8.960  2.3611  2.0303 -1.9912
  333MOL0     H43933   1.455   3.276   9.098 -0.5428 -2.2188  2.3594
  333MOL0     H43934   1.411   3.084   9.221 -1.6235  1.6221  1.0960
  333MOL0     H43935   1.252   3.143   9.188 -0.5623 -2.5003  0.4174
  333MOL0     H43936   1.248   2.912   9.172  1.5371  2.6964  4.3338
  333MOL0     H43937   1.401   2.892   9.088  1.3249  1.3869 -1.7254
  333MOL0     H43938   2.128   3.195   8.468  0.0747  2.4109  1.3217
  333MOL0     H43939   2.356   3.126   8.452  0.3538  2.7525  0.3182
  333MOL0     H43940   2.714   2.958   8.448  2.4884  0.0080 -1.0741
  333MOL0     H43941   2.941   2.862   8.397  0.6797 -0.4818 -0.1752
  333MOL0     H43942   3.919   2.103   7.194 -1.8787 -1.2335 -1.1248
  333MOL0     H43943   3.986   2.295   7.018 -1.0535  1.2954 -1.6250
  333MOL0     H43944   4.182   2.770   7.084  1.4658  2.6281 -0.2095
  333MOL0     H43945   4.280   2.919   6.931  0.8004 -4.4461  2.1025
  333MOL0     H43946   3.989   3.117   6.668 -0.9643 -1.5353  0.9819
  333MOL0     H43947   4.080   3.013   6.552 -0.0438 -1.0200  1.5218
  333MOL0     H43948   4.127   3.259   6.513 -0.8558 -2.4436 -0.2778
  333MOL0     H43949   4.176   3.271   6.677  3.2107 -0.4231 -0.4727
  333MOL0     H43950   4.360   3.073   6.614  0.9794 -1.7870 -3.0231
  333MOL0     H43951   4.395   3.238   6.580  2.4043 -3.4443  1.8007
  333MOL0     H43952   4.255   3.220   6.361  1.3568  0.9295  0.7551
  333MOL0     H43953   4.423   3.147   6.379  0.1251 -1.0215 -0.7827
  333MOL0     H43954   4.165   2.811   6.295  0.5958 -1.8893  2.0138
  333MOL0     H43955   3.915   2.905   6.699 -0.2391  2.0085 -0.5958
  333MOL0     H43956   3.858   2.695   6.825 -1.2211  1.1535  2.1169
  334MOL0     O43957   2.992  11.210   9.636 -0.6529 -0.0764 -0.9971
  334MOL0     C43958   2.984  11.090   9.657 -0.5709 -0.5062  0.7865
  334MOL0     O43959   3.088  11.011   9.707  0.4299  0.3564 -0.1545
  334MOL0     C43960   3.179  11.072   9.786 -0.9830  1.1711  0.8006
  334MOL0     C43961   3.203  11.037   9.923  0.4998 -0.6887 -1.0075
  334MOL0     C43962   3.312  11.095  10.001  0.4714  0.8260 -0.4863
  334MOL0     C43963   3.415  11.167   9.931  0.3771  0.9902  0.2746
  334MOL0     O43964   3.524  11.202  10.003  0.0116  0.5337 -0.0600
  334MOL0     C43965   3.601  11.318   9.967  0.1945  0.0611  0.0252
  334MOL0     C43966   3.651  11.402  10.091  0.0237  0.5991 -0.3238
  334MOL0     C43967   3.552  11.506  10.151 -0.4929  0.0880  0.0658
  334MOL0     C43968   3.413  11.458  10.195 -0.9130 -0.1499  0.6920
  334MOL0     C43969   3.323  11.571  10.249 -1.1196  0.0446  0.6622
  334MOL0     C43970   3.201  11.514  10.321 -0.2866 -0.0514 -0.3448
  334MOL0     C43971   3.116  11.419  10.233 -1.1156 -0.2750 -0.6787
  334MOL0     C43972   2.992  11.370  10.304 -0.4084  0.3179  0.8640
  334MOL0     N43973   2.915  11.270  10.222 -0.2116 -0.8490 -0.3804
  334MOL0     C43974   2.872  11.290  10.088 -0.2896  0.0276 -0.3728
  334MOL0     C43975   2.816  11.177  10.050  0.1799 -0.7145  0.3200
  334MOL0     C43976   2.745  11.152   9.915 -0.4247 -0.5783 -0.9988
  334MOL0     C43977   2.593  11.198   9.924 -0.6616 -0.1350  0.2434
  334MOL0     C43978   2.533  11.178   9.792 -0.7270  0.9627  0.5144
  334MOL0     C43979   2.380  11.177   9.806 -1.1612 -0.0222  0.3377
  334MOL0     O43980   2.348  11.170   9.668  0.2857  0.1157  0.0270
  334MOL0     C43981   2.228  11.103   9.645 -1.2230  0.5139 -0.1197
  334MOL0     C43982   2.233  11.034   9.523  1.3707 -0.1220 -0.4312
  334MOL0     C43983   2.124  10.968   9.470 -0.3158  0.4646 -0.2735
  334MOL0     C43984   2.002  10.965   9.545  0.3052 -0.0934  0.3591
  334MOL0     C43985   1.881  10.908   9.479  0.0804 -0.3549 -0.5422
  334MOL0     O43986   1.886  10.862   9.355 -0.3148  0.3980 -0.5311
  334MOL0     C43987   1.787  10.805   9.282  0.1055 -0.0007  0.3121
  334MOL0     C43988   1.692  10.706   9.330 -0.7050 -0.8481 -0.3300
  334MOL0     C43989   1.585  10.676   9.256  0.2535  0.2366 -0.0012
  334MOL0     C43990   1.580  10.707   9.118 -0.3122  0.1362  1.2446
  334MOL0     O43991   1.478  10.665   9.025 -0.2609 -0.9070 -0.4542
  334MOL0     C43992   1.439  10.536   9.065  0.3950 -0.0012 -0.8478
  334MOL0     C43993   1.382  10.462   8.938  0.2230 -0.2353 -0.0859
  334MOL0     C43994   1.227  10.464   8.933 -0.0960 -0.3120  0.9781
  334MOL0     C43995   1.187  10.417   8.796  1.1982 -0.7160 -0.3167
  334MOL0     C43996   1.031  10.437   8.785 -0.7088  0.1273 -0.3712
  334MOL0     C43997   0.986  10.375   8.653  0.1552  0.3238  0.1829
  334MOL0     C43998   1.044  10.441   8.528 -0.5930 -0.4662 -0.8764
  334MOL0     C43999   0.973  10.372   8.413  0.2369 -1.0184 -0.3462
  334MOL0    Cl44000   1.008  10.464   8.267  0.4106 -0.5210  0.1720
  334MOL0     C44001   1.675  10.792   9.068  0.0863 -0.6939 -0.0450
  334MOL0     C44002   1.783  10.839   9.147 -0.1478 -0.1579  1.2536
  334MOL0     O44003   1.780  10.899   9.553 -0.1415  0.2966 -0.5930
  334MOL0     C44004   1.994  11.042   9.664  0.0364 -0.0766  0.7747
  334MOL0     C44005   2.111  11.110   9.711  0.2373  0.1685 -0.6021
  334MOL0     N44006   2.828  11.088  10.148 -0.4154  0.3500 -0.9698
  334MOL0     N44007   2.890  11.142  10.249 -0.2972  0.0783  0.0281
  334MOL0     C44008   3.399  11.189   9.790 -0.3633  0.1674  0.3152
  334MOL0     C44009   3.283  11.142   9.721 -0.4084 -1.1905 -0.0194
  334MOL0     C44010   2.881  11.014   9.577  1.0503 -0.4358 -0.1399
  334MOL0     C44011   2.885  10.875   9.556  1.0409  0.0233  0.0866
  334MOL0     C44012   2.775  10.808   9.495 -0.7476  0.4303 -0.8948
  334MOL0     C44013   2.658  10.877   9.466  0.1408 -0.3671  0.6121
  334MOL0     O44014   2.542  10.819   9.406 -0.0303 -0.0381  0.8622
  334MOL0     C44015   2.562  10.686   9.359 -0.2261  0.4484  0.0223
  334MOL0     C44016   2.446  10.623   9.300  0.4000  0.2077 -0.1029
  334MOL0     C44017   2.368  10.716   9.217  0.6473 -0.8293 -0.0458
  334MOL0     C44018   2.225  10.656   9.169 -0.4485 -0.6776 -0.5578
  334MOL0     C44019   2.147  10.747   9.089  0.0399 -1.2101 -0.4119
  334MOL0     C44020   2.096  10.833   9.021  0.3390  0.2782  0.8126
  334MOL0     C44021   2.663  11.023   9.479  0.6001 -0.0265  0.2689
  334MOL0     C44022   2.772  11.086   9.528 -0.5835  0.3911  0.9732
  334MOL0     H44023   3.135  10.984   9.989  2.3372 -0.5913  1.0803
  334MOL0     H44024   3.320  11.069  10.106 -1.0356 -0.0627 -0.5793
  334MOL0     H44025   3.547  11.382   9.897 -0.2204  1.2803  1.3980
  334MOL0     H44026   3.694  11.277   9.927 -0.0267 -1.3179  0.8490
  334MOL0     H44027   3.735  11.459  10.049  0.1196 -0.9952 -2.4777
  334MOL0     H44028   3.686  11.340  10.173 -1.1250 -1.4110 -1.2720
  334MOL0     H44029   3.546  11.592  10.084  1.5925 -1.3724 -2.1978
  334MOL0     H44030   3.596  11.540  10.245  2.5482  1.3584 -1.6708
  334MOL0     H44031   3.366  11.413  10.107  0.3502  1.0171 -0.6174
  334MOL0     H44032   3.428  11.378  10.268 -0.6005 -1.3479 -0.6323
  334MOL0     H44033   3.290  11.641  10.172 -0.0517  0.1124  0.2506
  334MOL0     H44034   3.381  11.630  10.321  0.3087 -0.7319  0.1866
  334MOL0     H44035   3.130  11.593  10.351 -0.0895 -0.5054  1.4772
  334MOL0     H44036   3.244  11.466  10.409  1.9411  1.0777 -0.7470
  334MOL0     H44037   3.095  11.474  10.141 -0.2912 -1.0661 -1.3596
  334MOL0     H44038   3.175  11.332  10.203  0.3749  0.3204  0.3900
  334MOL0     H44039   2.922  11.450  10.332 -0.8844  0.3340 -0.3183
  334MOL0     H44040   3.038  11.316  10.387 -1.0410  0.4672  1.3178
  334MOL0     H44041   2.876  11.391  10.048 -1.0038  0.1913 -0.0311
  334MOL0     H44042   2.755  11.046   9.889 -0.7147 -1.6152  2.5029
  334MOL0     H44043   2.802  11.203   9.838 -1.4834 -3.2614 -3.7742
  334MOL0     H44044   2.587  11.304   9.952 -0.2531 -0.9128  3.7382
  334MOL0     H44045   2.550  11.132  10.000  2.7973 -4.6589 -1.2808
  334MOL0     H44046   2.571  11.249   9.718  1.0768 -1.0057 -0.5470
  334MOL0     H44047   2.560  11.078   9.759  0.2636  0.6584  2.1553
  334MOL0     H44048   2.330  11.269   9.839 -1.2347  0.7342 -1.7110
  334MOL0     H44049   2.345  11.100   9.875 -1.7274 -0.1151 -0.0443
  334MOL0     H44050   2.330  11.029   9.475  2.7477 -0.3907  2.1889
  334MOL0     H44051   2.138  10.907   9.381  0.7542 -1.1358  0.9376
  334MOL0     H44052   1.695  10.672   9.433  0.8136 -5.9446 -1.7775
  334MOL0     H44053   1.501  10.627   9.303  0.9099 -0.8420  0.0838
  334MOL0     H44054   1.362  10.543   9.142  1.0312 -3.0317  0.2496
  334MOL0     H44055   1.517  10.475   9.113 -2.9986 -3.4972  0.8097
  334MOL0     H44056   1.404  10.355   8.932 -2.5471 -0.8618 -0.2853
  334MOL0     H44057   1.423  10.517   8.853 -1.8313  3.1048  0.8900
  334MOL0     H44058   1.198  10.568   8.950  3.9516  1.4036 -1.2212
  334MOL0     H44059   1.180  10.396   9.005 -0.3395  1.2776  2.4082
  334MOL0     H44060   1.233  10.473   8.713 -0.6472 -0.7843 -1.4457
  334MOL0     H44061   1.215  10.313   8.778 -0.3122 -1.0267 -1.0741
  334MOL0     H44062   0.998  10.541   8.786  0.2176  0.4414  0.8564
  334MOL0     H44063   0.982  10.393   8.873  1.4414 -1.8021 -0.0328
  334MOL0     H44064   0.878  10.361   8.646  0.3378 -0.8404 -0.7492
  334MOL0     H44065   1.025  10.272   8.652  0.4171  0.3931  1.3331
  334MOL0     H44066   1.010  10.544   8.514 -1.0627 -0.4871  0.0326
  334MOL0     H44067   1.154  10.437   8.524 -0.5992 -1.0956 -0.4459
  334MOL0     H44068   0.866  10.355   8.431 -1.0780  1.5832 -4.4419
  334MOL0     H44069   1.010  10.269   8.401  0.0761 -1.3683  1.7735
  334MOL0     H44070   1.666  10.835   8.969 -0.6741  2.7458  1.3799
  334MOL0     H44071   1.847  10.922   9.121 -1.7170  0.2669 -1.7058
  334MOL0     H44072   1.895  11.056   9.707 -1.2055  0.2575 -1.9502
  334MOL0     H44073   2.103  11.180   9.793 -0.3598  0.2188 -0.6960
  334MOL0     H44074   3.482  11.223   9.729 -0.0472 -3.2397 -1.3801
  334MOL0     H44075   3.278  11.161   9.614  2.5286  1.0658  0.1342
  334MOL0     H44076   2.976  10.822   9.583  1.9207  0.1284 -2.3925
  334MOL0     H44077   2.795  10.704   9.472  2.1941  0.9359 -1.0099
  334MOL0     H44078   2.611  10.626   9.437  1.2974  4.0874  2.1513
  334MOL0     H44079   2.633  10.696   9.277 -1.8321 -0.6952 -1.5675
  334MOL0     H44080   2.477  10.533   9.247 -2.4194 -2.4566  2.3504
  334MOL0     H44081   2.382  10.571   9.372  0.5832 -1.6853 -1.2283
  334MOL0     H44082   2.428  10.754   9.134  0.7060 -0.0661  0.3434
  334MOL0     H44083   2.348  10.808   9.273 -0.2342  0.8373 -2.8899
  334MOL0     H44084   2.249  10.558   9.126  3.4287 -0.6112  1.0028
  334MOL0     H44085   2.164  10.625   9.254 -0.5573 -1.6327 -0.9634
  334MOL0     H44086   2.043  10.905   8.963  2.2416 -0.0855 -1.5263
  334MOL0     H44087   2.568  11.072   9.461  1.0640  0.8483  0.1157
  334MOL0     H44088   2.758  11.192   9.541 -0.9636  0.3505  0.9037
  335MOL0     O44089   4.319  10.236  10.617 -0.4270  0.5672  0.2960
  335MOL0     C44090   4.337  10.255  10.495  0.0973  0.1886 -0.5723
  335MOL0     O44091   4.243  10.260  10.406 -0.2909  0.2672  0.2557
  335MOL0     C44092   4.114  10.254  10.442 -0.9995  0.3754 -0.0042
  335MOL0     C44093   4.058  10.359  10.517  0.9081  0.7591 -0.7633
  335MOL0     C44094   3.921  10.348  10.566  0.4038  0.3208 -0.6841
  335MOL0     C44095   3.855  10.226  10.556  0.6496  0.0081 -0.1706
  335MOL0     O44096   3.723  10.211  10.589 -0.0699  0.3553 -0.0172
  335MOL0     C44097   3.673  10.320  10.669 -0.7616  0.6873  0.1294
  335MOL0     C44098   3.555  10.250  10.748 -0.7284  0.1327  0.8323
  335MOL0     C44099   3.487  10.351  10.837 -0.0090 -0.0443 -1.0487
  335MOL0     C44100   3.379  10.281  10.922  0.2949 -0.0217  0.2978
  335MOL0     C44101   3.301  10.382  11.000 -0.1950 -0.6069  0.2389
  335MOL0     C44102   3.214  10.311  11.105  0.6652 -0.3477  0.0558
  335MOL0     C44103   3.096  10.229  11.056 -0.4585 -0.2098 -0.2145
  335MOL0     C44104   2.986  10.209  11.158  0.8266 -0.6618  0.0247
  335MOL0     N44105   2.891  10.326  11.160 -0.0592  0.6724 -0.0261
  335MOL0     C44106   2.905  10.435  11.236  1.1631 -0.0009  0.2039
  335MOL0     C44107   2.781  10.497  11.210 -1.0288  0.0387 -0.0486
  335MOL0     C44108   2.725  10.631  11.255  0.6989 -0.1229  0.3941
  335MOL0     C44109   2.624  10.614  11.374  0.4739  0.4838 -0.5688
  335MOL0     C44110   2.696  10.555  11.501  0.2904  0.6522 -0.5845
  335MOL0     C44111   2.591  10.535  11.617 -0.6259 -0.0326 -0.0196
  335MOL0     O44112   2.516  10.647  11.649 -0.4030 -0.4463  0.2620
  335MOL0     C44113   2.380  10.619  11.657  0.3484 -0.3324  0.1974
  335MOL0     C44114   2.285  10.696  11.581 -0.5789  0.2085  0.2064
  335MOL0     C44115   2.150  10.693  11.598 -0.2206  0.2239 -0.1449
  335MOL0     C44116   2.093  10.592  11.684  0.2504  0.1974  0.4469
  335MOL0     C44117   1.946  10.563  11.686  0.3809 -0.1180  0.4751
  335MOL0     O44118   1.872  10.663  11.637 -0.7962 -0.0483  0.3373
  335MOL0     C44119   1.739  10.657  11.628  0.5336  0.5233 -1.3050
  335MOL0     C44120   1.649  10.540  11.631  0.6257 -0.5896 -0.2768
  335MOL0     C44121   1.510  10.568  11.619  0.8629 -1.1295  0.5795
  335MOL0     C44122   1.456  10.699  11.627 -1.0714 -0.9865 -0.3573
  335MOL0     O44123   1.335  10.737  11.603 -0.7958 -1.1227 -0.5115
  335MOL0     C44124   1.219  10.652  11.609 -0.5069  0.5164  1.1421
  335MOL0     C44125   1.092  10.721  11.580 -0.3966 -0.5185 -0.6590
  335MOL0     C44126   0.985  10.716  11.684 -0.2337 -0.6432  0.4139
  335MOL0     C44127   0.858  10.759  11.614  0.7393 -0.4934 -0.1596
  335MOL0     C44128   0.740  10.737  11.710  0.4518 -0.3236 -0.6962
  335MOL0     C44129   0.606  10.766  11.632 -0.3914  0.2135 -0.8314
  335MOL0     C44130   0.493  10.759  11.734  0.3183 -0.3503  0.5590
  335MOL0     C44131   0.364  10.796  11.667  0.4107 -0.0579 -0.6897
  335MOL0    Cl44132   0.299  10.699  11.544 -0.2645 -0.0202  0.1364
  335MOL0     C44133   1.539  10.806  11.656 -0.5575  0.5373  1.0094
  335MOL0     C44134   1.677  10.786  11.644  0.7156 -0.2523 -0.0245
  335MOL0     O44135   1.903  10.463  11.738 -0.6494  0.1357  0.0249
  335MOL0     C44136   2.176  10.524  11.775 -0.0547  0.2107  0.4299
  335MOL0     C44137   2.321  10.547  11.758  0.1897  0.2902 -0.4710
  335MOL0     N44138   2.722  10.428  11.107  0.8188 -0.4237  0.0213
  335MOL0     N44139   2.780  10.327  11.077 -0.4218  1.0397 -0.4498
  335MOL0     C44140   3.914  10.119  10.490 -0.8498 -0.6354  1.2363
  335MOL0     C44141   4.045  10.127  10.440 -0.1156  0.2656 -0.3144
  335MOL0     C44142   4.475  10.267  10.444  0.2021  0.8720 -0.2020
  335MOL0     C44143   4.579  10.285  10.537 -0.1514  1.0090 -0.8855
  335MOL0     C44144   4.712  10.293  10.504  0.6483 -0.1243  0.4124
  335MOL0     C44145   4.739  10.286  10.367  0.9477 -0.0679  0.4602
  335MOL0     O44146   4.880  10.296  10.347  0.2360 -0.2045 -0.0474
  335MOL0     C44147   4.931  10.211  10.241  0.4660  0.4618 -0.1250
  335MOL0     C44148   5.082  10.216  10.239  0.0598 -0.3332 -0.2475
  335MOL0     C44149   5.136  10.100  10.160  0.2184  0.4878  0.1445
  335MOL0     C44150   5.279  10.123  10.110  0.5990  0.1392  0.1987
  335MOL0     C44151   5.373  10.094  10.222 -0.1794 -1.1399  0.5572
  335MOL0     C44152   5.443  10.086  10.317 -0.7986 -0.5122 -0.2103
  335MOL0     C44153   4.641  10.276  10.268  0.2431  0.4602 -0.3856
  335MOL0     C44154   4.509  10.269  10.305  0.0295  0.2814 -0.3490
  335MOL0     H44155   4.109  10.452  10.536  0.6593  0.8207 -0.3923
  335MOL0     H44156   3.888  10.432  10.627  1.8226 -0.0252  0.6340
  335MOL0     H44157   3.637  10.399  10.602  0.5036  0.5396 -0.7739
  335MOL0     H44158   3.740  10.362  10.745  0.4663 -1.1095  0.1089
  335MOL0     H44159   3.596  10.164  10.801 -2.8034 -0.8701  0.8948
  335MOL0     H44160   3.476  10.210  10.684 -2.5522  2.2922  1.5899
  335MOL0     H44161   3.431  10.420  10.774 -1.5438  2.2596  2.5593
  335MOL0     H44162   3.564  10.403  10.895 -2.1932  0.1888  1.8560
  335MOL0     H44163   3.308  10.232  10.855 -2.6267  1.8567  1.7683
  335MOL0     H44164   3.424  10.205  10.986  2.7214  2.4410  1.7141
  335MOL0     H44165   3.233  10.448  10.946  0.2189  0.5822  1.1161
  335MOL0     H44166   3.368  10.453  11.050  1.0477  0.3818 -2.6016
  335MOL0     H44167   3.171  10.399  11.154 -0.5363 -0.3476 -0.9576
  335MOL0     H44168   3.266  10.246  11.177 -1.5652 -2.2874  0.0462
  335MOL0     H44169   3.043  10.273  10.971 -0.5277  0.6023  0.2400
  335MOL0     H44170   3.130  10.131  11.020 -1.1224 -1.2272  1.7633
  335MOL0     H44171   3.022  10.191  11.260  0.7313  0.6934  0.3223
  335MOL0     H44172   2.930  10.121  11.128 -0.6531 -0.4687  2.0204
  335MOL0     H44173   2.980  10.455  11.312  0.8943  2.4086 -0.0579
  335MOL0     H44174   2.670  10.678  11.173  1.6773  2.8560  1.3304
  335MOL0     H44175   2.809  10.695  11.281  1.8072 -0.8300 -1.2819
  335MOL0     H44176   2.539  10.554  11.340 -0.6122  0.6704  1.6202
  335MOL0     H44177   2.584  10.712  11.403 -0.9068 -0.0635 -0.5120
  335MOL0     H44178   2.748  10.459  11.497  1.2709  1.0802  1.0956
  335MOL0     H44179   2.781  10.618  11.528  0.0521  0.1698  1.4140
  335MOL0     H44180   2.630  10.478  11.702 -1.4733  2.6245  2.3259
  335MOL0     H44181   2.528  10.456  11.575 -0.7494  0.0530  0.0012
  335MOL0     H44182   2.324  10.764  11.507 -0.4331  0.2349  0.3081
  335MOL0     H44183   2.076  10.752  11.545 -1.4624  0.2659  1.5202
  335MOL0     H44184   1.683  10.438  11.647  1.6292 -0.0140  1.4395
  335MOL0     H44185   1.436  10.489  11.612 -0.0218 -0.4768  2.1163
  335MOL0     H44186   1.204  10.599  11.703 -1.3145 -1.2893  0.0476
  335MOL0     H44187   1.234  10.575  11.532 -0.3237  2.5961 -1.0425
  335MOL0     H44188   1.049  10.687  11.485 -0.4046 -2.6533  0.0467
  335MOL0     H44189   1.102  10.830  11.577 -4.1394 -0.0373 -3.2427
  335MOL0     H44190   1.022  10.788  11.758  0.4498 -1.8076  1.2460
  335MOL0     H44191   0.977  10.622  11.739 -0.3439 -0.7507  0.2181
  335MOL0     H44192   0.872  10.860  11.574 -1.0954  0.9391  2.5576
  335MOL0     H44193   0.835  10.703  11.522  5.0713 -1.4297 -0.9184
  335MOL0     H44194   0.749  10.800  11.799 -0.7006  1.3050 -1.6781
  335MOL0     H44195   0.735  10.636  11.753  2.7654 -0.2620 -0.1119
  335MOL0     H44196   0.592  10.692  11.553  0.7342 -3.0685  1.7801
  335MOL0     H44197   0.609  10.864  11.583 -3.1441  1.4319  1.1604
  335MOL0     H44198   0.488  10.667  11.792  1.4685 -1.5879 -1.1977
  335MOL0     H44199   0.514  10.839  11.806  0.8053 -2.1525  2.4946
  335MOL0     H44200   0.361  10.895  11.621 -2.9121  0.6570  0.7599
  335MOL0     H44201   0.288  10.811  11.745  0.2811 -1.1607 -0.5839
  335MOL0     H44202   1.483  10.899  11.664 -0.8187  0.7508 -2.0772
  335MOL0     H44203   1.748  10.865  11.662  2.1350 -2.1039  3.3874
  335MOL0     H44204   2.123  10.458  11.842 -0.4603 -0.1659 -0.2538
  335MOL0     H44205   2.392  10.495  11.821 -1.1882 -0.1481  0.7851
  335MOL0     H44206   3.854  10.032  10.464 -2.0934  1.0765 -2.3482
  335MOL0     H44207   4.082  10.033  10.402 -0.5246  0.4849 -1.2725
  335MOL0     H44208   4.559  10.297  10.644 -0.0155 -0.0010 -0.7360
  335MOL0     H44209   4.795  10.299  10.573  1.5907 -0.7414 -0.6363
  335MOL0     H44210   4.895  10.243  10.143  1.4996 -1.0784 -1.0445
  335MOL0     H44211   4.891  10.113  10.271  1.6848 -0.2079 -0.5856
  335MOL0     H44212   5.109  10.312  10.195  3.4567 -0.5307  1.1269
  335MOL0     H44213   5.111  10.224  10.344  0.2016  3.1919 -0.4295
  335MOL0     H44214   5.077  10.090  10.069 -1.1362 -1.2330  1.1596
  335MOL0     H44215   5.150  10.012  10.223  2.6630 -1.3436 -2.6117
  335MOL0     H44216   5.303  10.053  10.030 -1.3483 -2.5915  1.8329
  335MOL0     H44217   5.307  10.219  10.065 -1.1202 -0.0899 -1.5036
  335MOL0     H44218   5.514  10.070  10.395 -0.5516  0.3674 -0.2473
  335MOL0     H44219   4.670  10.285  10.163  3.4573 -0.7425  0.2761
  335MOL0     H44220   4.436  10.268  10.225  0.9724  2.6980 -1.3509
  336MOL0     O44221  11.243  11.060   5.818 -0.0957  0.2224  0.6047
  336MOL0     C44222  11.259  10.939   5.799 -0.1926 -0.0413  0.5971
  336MOL0     O44223  11.182  10.862   5.704 -0.1449 -0.1023  0.5881
  336MOL0     C44224  11.074  10.912   5.637 -0.5164 -0.1179  0.3569
  336MOL0     C44225  11.077  11.042   5.584 -0.2311 -0.1912  0.3415
  336MOL0     C44226  10.951  11.081   5.526 -0.7901 -0.3690  0.1439
  336MOL0     C44227  10.843  11.003   5.491  0.2727 -0.5109  0.1259
  336MOL0     O44228  10.730  11.037   5.422 -0.0269 -0.4649 -0.6134
  336MOL0     C44229  10.712  11.180   5.399  0.6282  0.7825  0.2732
  336MOL0     C44230  10.576  11.206   5.330 -0.4138 -0.6968 -0.1237
  336MOL0     C44231  10.546  11.111   5.215  0.1853  0.2687  1.0548
  336MOL0     C44232  10.410  11.128   5.149 -0.5802 -0.2562 -0.5567
  336MOL0     C44233  10.311  11.048   5.232  0.3300 -0.5373  0.1690
  336MOL0     C44234  10.194  11.001   5.144  0.1463  0.1263  0.0784
  336MOL0     C44235  10.105  10.904   5.227 -0.5222  0.0231 -0.3721
  336MOL0     C44236   9.991  10.826   5.157 -0.7579  0.0953  0.2775
  336MOL0     N44237   9.875  10.904   5.113  0.6081 -0.1505  0.0599
  336MOL0     C44238   9.854  11.035   5.146 -0.4780 -0.1042  0.4406
  336MOL0     C44239   9.768  11.078   5.050  1.0435  0.0016 -0.9779
  336MOL0     C44240   9.698  11.206   5.014  0.4997  0.4782 -0.2977
  336MOL0     C44241   9.597  11.255   5.109 -0.2529 -0.7602 -1.0297
  336MOL0     C44242   9.504  11.154   5.181  0.6161  0.6526  0.8666
  336MOL0     C44243   9.391  11.094   5.093 -0.7567 -0.3059  0.1396
  336MOL0     O44244   9.288  11.191   5.075  0.6213  0.1464 -0.0532
  336MOL0     C44245   9.194  11.179   4.969 -0.3984 -0.5473  0.2674
  336MOL0     C44246   9.149  11.057   4.914 -0.6763 -0.0647 -0.1020
  336MOL0     C44247   9.032  11.060   4.832  0.8254  0.6861  0.5196
  336MOL0     C44248   8.962  11.165   4.811  0.7048 -0.9688 -0.9406
  336MOL0     C44249   8.840  11.159   4.730 -0.2452  1.0583 -0.5838
  336MOL0     O44250   8.781  11.277   4.715  0.4893  0.5334  0.4646
  336MOL0     C44251   8.659  11.287   4.648  0.0387 -1.1730 -1.0635
  336MOL0     C44252   8.631  11.402   4.576 -0.0651  0.0230  0.2263
  336MOL0     C44253   8.519  11.420   4.490  0.9183 -0.2533  0.0687
  336MOL0     C44254   8.416  11.329   4.487 -0.4464 -0.0169  1.5692
  336MOL0     O44255   8.299  11.353   4.418 -0.4800  0.0983  1.0298
  336MOL0     C44256   8.267  11.259   4.321 -1.5515 -0.3077  0.2119
  336MOL0     C44257   8.130  11.281   4.244 -0.3288  0.2136  0.0731
  336MOL0     C44258   8.109  11.432   4.229 -0.5508 -0.0646 -0.3864
  336MOL0     C44259   8.002  11.455   4.124 -0.5765  0.0891 -0.1036
  336MOL0     C44260   7.960  11.596   4.092  0.6860  0.7461  0.8144
  336MOL0     C44261   7.832  11.583   4.007 -0.0253 -0.5887  0.1058
  336MOL0     C44262   7.793  11.713   3.940  0.3022  0.4214  0.1739
  336MOL0     C44263   7.655  11.754   4.010  0.7652  0.3240  0.2239
  336MOL0    Cl44264   7.668  11.829   4.173 -0.0930 -0.1225 -0.1442
  336MOL0     C44265   8.438  11.208   4.564 -0.3033 -0.6957 -0.0406
  336MOL0     C44266   8.553  11.191   4.645  0.4822 -0.5095  0.1643
  336MOL0     O44267   8.808  11.057   4.676 -0.5309  0.1792  0.4853
  336MOL0     C44268   9.000  11.287   4.870  0.1264 -0.2712 -0.3441
  336MOL0     C44269   9.112  11.293   4.950 -0.5729 -0.4819 -0.7503
  336MOL0     N44270   9.728  10.966   4.975 -0.2762 -0.7715  0.0096
  336MOL0     N44271   9.784  10.868   5.022 -0.8908 -0.1635 -0.1155
  336MOL0     C44272  10.857  10.877   5.534 -0.4472  0.9856 -0.5801
  336MOL0     C44273  10.968  10.829   5.612  0.2293 -0.7328 -0.5046
  336MOL0     C44274  11.359  10.870   5.870 -0.3354  0.1941 -0.4153
  336MOL0     C44275  11.447  10.932   5.967  0.3150 -0.2429 -0.3703
  336MOL0     C44276  11.556  10.874   6.030  0.2138  0.9478  0.9152
  336MOL0     C44277  11.582  10.737   6.009  0.4393 -0.2357  0.4367
  336MOL0     O44278  11.670  10.664   6.080  0.2146  0.1434 -0.1031
  336MOL0     C44279  11.754  10.720   6.182  0.0825  0.1408  0.7616
  336MOL0     C44280  11.865  10.794   6.113 -0.2199 -0.7588 -0.7855
  336MOL0     C44281  11.930  10.890   6.206 -0.1001 -1.0297  0.7837
  336MOL0     C44282  12.008  10.988   6.123  0.6381 -0.4439  0.0634
  336MOL0     C44283  12.126  10.929   6.059 -0.1758  0.0744 -0.9545
  336MOL0     C44284  12.223  10.869   6.011  0.2545 -0.4298  0.6210
  336MOL0     C44285  11.507  10.675   5.909 -0.3917  0.2303 -0.2228
  336MOL0     C44286  11.398  10.732   5.844 -1.5121  0.7021 -0.2870
  336MOL0     H44287  11.155  11.118   5.585 -2.0691  1.7637  0.5407
  336MOL0     H44288  10.943  11.187   5.503 -0.8827 -0.0697  1.4774
  336MOL0     H44289  10.792  11.214   5.332 -0.3535  0.8349 -0.9077
  336MOL0     H44290  10.710  11.242   5.488 -0.6922  1.7971 -0.4374
  336MOL0     H44291  10.572  11.312   5.301  0.0823  0.4124  3.3927
  336MOL0     H44292  10.492  11.209   5.399 -1.6877 -1.0898 -1.6221
  336MOL0     H44293  10.567  11.007   5.241  2.4397  0.8266  1.7117
  336MOL0     H44294  10.630  11.125   5.146 -1.6734 -3.5562 -2.3493
  336MOL0     H44295  10.377  11.232   5.146  1.0091  0.4545  2.7210
  336MOL0     H44296  10.417  11.093   5.046 -1.0854  2.1821 -1.4776
  336MOL0     H44297  10.284  11.104   5.322  0.9713 -1.3351  0.8834
  336MOL0     H44298  10.357  10.952   5.257  2.2692 -0.2395 -1.9288
  336MOL0     H44299  10.245  10.962   5.055 -0.7968 -0.3930 -0.2410
  336MOL0     H44300  10.136  11.089   5.115  0.9191  0.7292  0.3220
  336MOL0     H44301  10.183  10.834   5.260  2.5085  2.5717 -1.6723
  336MOL0     H44302  10.064  10.960   5.312  1.9351 -0.9724  1.6124
  336MOL0     H44303   9.957  10.754   5.232 -1.5160  0.5131  0.3440
  336MOL0     H44304  10.031  10.773   5.069  1.4348 -0.4625  1.5182
  336MOL0     H44305   9.899  11.096   5.224 -0.0579  0.8461 -0.5222
  336MOL0     H44306   9.645  11.200   4.918 -0.5478 -1.3450  0.3562
  336MOL0     H44307   9.786  11.272   5.006  2.1275 -1.0601  2.8792
  336MOL0     H44308   9.530  11.327   5.061 -2.2798 -1.2326  0.9293
  336MOL0     H44309   9.652  11.308   5.187 -2.0386  1.4477 -1.1849
  336MOL0     H44310   9.540  11.065   5.234 -0.2402  0.1827  0.6793
  336MOL0     H44311   9.462  11.215   5.261  0.4088  1.8008 -0.1024
  336MOL0     H44312   9.352  11.003   5.141 -0.1374 -1.3423 -1.2610
  336MOL0     H44313   9.441  11.053   5.005 -1.4106 -2.6308  0.7657
  336MOL0     H44314   9.198  10.966   4.945  0.0961  0.2560 -0.3471
  336MOL0     H44315   8.983  10.965   4.810 -3.6133  2.9296 -0.2458
  336MOL0     H44316   8.710  11.475   4.561  0.2930 -0.5933 -1.0732
  336MOL0     H44317   8.502  11.497   4.415  0.6223 -0.9265 -0.5640
  336MOL0     H44318   8.248  11.166   4.375 -2.9310  0.3795  0.9612
  336MOL0     H44319   8.352  11.242   4.253  0.9930 -0.3724  3.1944
  336MOL0     H44320   8.048  11.250   4.310 -0.1306 -1.7016 -0.5335
  336MOL0     H44321   8.119  11.226   4.150  1.4053 -0.2701  0.1205
  336MOL0     H44322   8.204  11.479   4.202  1.4902 -3.5231  0.2322
  336MOL0     H44323   8.070  11.466   4.326 -1.6774 -2.6238  0.1500
  336MOL0     H44324   8.040  11.402   4.037  1.3615  1.2651 -0.0385
  336MOL0     H44325   7.912  11.403   4.157 -0.4801 -1.5358 -2.2385
  336MOL0     H44326   8.030  11.650   4.028 -1.1467  0.6239 -1.4440
  336MOL0     H44327   7.926  11.662   4.172 -4.4481  1.0979 -1.3020
  336MOL0     H44328   7.750  11.544   4.068 -0.6206 -1.6468 -1.2919
  336MOL0     H44329   7.858  11.514   3.926  2.5605  2.5998 -2.0145
  336MOL0     H44330   7.868  11.791   3.953  0.0500  0.5149  1.1021
  336MOL0     H44331   7.767  11.700   3.834 -0.2693 -0.1304  0.3764
  336MOL0     H44332   7.583  11.672   4.014 -2.4356  2.9372  2.4319
  336MOL0     H44333   7.620  11.834   3.944  4.7418  5.9370  3.9803
  336MOL0     H44334   8.357  11.136   4.565 -0.5338 -0.4361  0.4538
  336MOL0     H44335   8.555  11.095   4.697 -0.7972 -0.8871 -0.4550
  336MOL0     H44336   8.944  11.379   4.859  0.3008 -0.3358 -1.9186
  336MOL0     H44337   9.129  11.383   5.007 -4.0288 -1.0279  1.4420
  336MOL0     H44338  10.775  10.806   5.523  0.9898 -0.9398  0.4085
  336MOL0     H44339  10.983  10.727   5.646 -2.3824 -0.9360  0.2788
  336MOL0     H44340  11.422  11.035   5.992 -1.8803 -0.7619 -0.2785
  336MOL0     H44341  11.603  10.918   6.118  1.2160 -2.8718  2.5446
  336MOL0     H44342  11.800  10.638   6.239  1.6543  0.1008 -0.4884
  336MOL0     H44343  11.700  10.788   6.248  0.4499  0.3815  0.8187
  336MOL0     H44344  11.941  10.718   6.090  1.2182 -0.5322  2.6007
  336MOL0     H44345  11.832  10.842   6.020 -0.1592 -0.7723 -0.8140
  336MOL0     H44346  11.984  10.838   6.286 -3.2853 -1.3289  2.9003
  336MOL0     H44347  11.866  10.961   6.259  3.5723  1.2698  2.6240
  336MOL0     H44348  11.941  11.035   6.050 -0.2357 -0.9252  0.5433
  336MOL0     H44349  12.040  11.070   6.188  3.2440 -2.1320  1.0702
  336MOL0     H44350  12.312  10.829   5.966 -0.2271  0.0827 -0.8439
  336MOL0     H44351  11.529  10.573   5.879  0.4903  0.8183 -1.6908
  336MOL0     H44352  11.353  10.660   5.776  0.6075 -0.6707 -0.3388
  337MOL0     O44353   6.489   4.628   7.568  0.2878 -0.0502  0.1292
  337MOL0     C44354   6.486   4.707   7.482  0.0115 -0.9167  0.3023
  337MOL0     O44355   6.405   4.822   7.483 -0.2975  0.0173  0.1103
  337MOL0     C44356   6.326   4.836   7.591  0.3793 -1.1658  0.8179
  337MOL0     C44357   6.220   4.756   7.630  0.4475  0.5625 -0.0481
  337MOL0     C44358   6.138   4.785   7.734 -0.4928 -0.1116 -0.3106
  337MOL0     C44359   6.153   4.898   7.809  0.3981  0.3642 -0.1226
  337MOL0     O44360   6.067   4.944   7.903  0.7878  0.2495  0.1103
  337MOL0     C44361   5.979   4.845   7.964  0.1216  0.2248  0.6361
  337MOL0     C44362   5.896   4.893   8.089 -0.3769  0.1288 -0.7035
  337MOL0     C44363   5.816   4.775   8.150  0.5518 -0.7620  0.8610
  337MOL0     C44364   5.752   4.809   8.289 -0.7152 -0.7656 -0.0949
  337MOL0     C44365   5.671   4.946   8.313  0.2396  0.8459 -0.2063
  337MOL0     C44366   5.546   4.990   8.245  0.4808 -0.5402  0.4385
  337MOL0     C44367   5.460   4.865   8.198  0.1571 -0.6754 -0.4848
  337MOL0     C44368   5.371   4.906   8.080  0.0165  0.8122  0.1115
  337MOL0     N44369   5.443   4.909   7.951  0.2076  0.0101 -0.1007
  337MOL0     C44370   5.504   4.805   7.884  1.5131 -0.2188  0.1317
  337MOL0     C44371   5.549   4.851   7.767 -0.5270 -0.0355 -0.3556
  337MOL0     C44372   5.579   4.763   7.652 -0.0861  0.3085  0.2350
  337MOL0     C44373   5.731   4.760   7.626 -0.5130  0.2681  0.6317
  337MOL0     C44374   5.760   4.713   7.479 -0.2608  0.2699  0.0753
  337MOL0     C44375   5.726   4.561   7.463 -0.2641  0.1939  0.6348
  337MOL0     O44376   5.836   4.470   7.500 -0.3729  0.0971  0.1760
  337MOL0     C44377   5.948   4.468   7.420 -0.9477 -0.5063 -0.2776
  337MOL0     C44378   6.063   4.431   7.482  0.1950  1.3093 -0.5314
  337MOL0     C44379   6.188   4.423   7.425 -0.4514 -0.0229  1.0350
  337MOL0     C44380   6.197   4.465   7.287 -0.3214  0.2704 -0.1876
  337MOL0     C44381   6.331   4.462   7.222  0.4228  0.5245 -0.8682
  337MOL0     O44382   6.430   4.382   7.293  0.4101 -0.9187  0.1083
  337MOL0     C44383   6.544   4.332   7.230  0.2954 -0.6358 -0.2951
  337MOL0     C44384   6.596   4.357   7.097  0.1797 -0.1292 -0.1229
  337MOL0     C44385   6.717   4.302   7.061 -0.1239  0.6585  0.2693
  337MOL0     C44386   6.802   4.222   7.147  0.1625  0.2970  0.0876
  337MOL0     O44387   6.908   4.166   7.086  0.4233  0.1529 -1.7427
  337MOL0     C44388   6.965   4.038   7.135  0.3373  0.0018  0.5861
  337MOL0     C44389   7.078   3.989   7.043 -0.9946  0.7611 -0.1044
  337MOL0     C44390   7.155   3.865   7.098 -0.0776  0.5783  0.4049
  337MOL0     C44391   7.261   3.831   6.987 -0.0019  0.1811 -0.6095
  337MOL0     C44392   7.361   3.745   7.056  0.8275  0.5335  0.0202
  337MOL0     C44393   7.476   3.686   6.971 -0.8239  0.8292  0.3394
  337MOL0     C44394   7.420   3.579   6.887 -0.4055 -0.4734  0.7809
  337MOL0     C44395   7.513   3.504   6.796  1.1466 -0.3502 -0.2451
  337MOL0    Cl44396   7.653   3.429   6.886  0.2187  0.1027  0.1505
  337MOL0     C44397   6.750   4.205   7.278  0.2889  0.2034  0.7803
  337MOL0     C44398   6.626   4.256   7.313 -0.7145  0.6478  0.6765
  337MOL0     O44399   6.346   4.520   7.120 -0.6778  0.7471 -0.0558
  337MOL0     C44400   6.082   4.503   7.219 -0.1376 -0.8280 -0.2175
  337MOL0     C44401   5.956   4.503   7.289 -0.0375  0.5779  0.3423
  337MOL0     N44402   5.534   4.989   7.766 -0.4404  0.0738  0.1859
  337MOL0     N44403   5.464   5.025   7.868  0.1649 -0.0945  0.0099
  337MOL0     C44404   6.258   4.981   7.770 -0.0581 -0.4690 -0.3785
  337MOL0     C44405   6.351   4.948   7.668 -0.4961  0.0617  1.1780
  337MOL0     C44406   6.592   4.687   7.384 -0.7272 -0.2248 -0.0768
  337MOL0     C44407   6.691   4.590   7.395 -0.5740 -0.2168 -0.2171
  337MOL0     C44408   6.809   4.595   7.315  0.1109  0.6351  0.0147
  337MOL0     C44409   6.844   4.704   7.231  0.0003  0.3107 -0.3511
  337MOL0     O44410   6.965   4.706   7.168 -0.7147  0.4663 -0.3599
  337MOL0     C44411   7.009   4.831   7.104 -0.5114 -0.1117 -0.1432
  337MOL0     C44412   7.168   4.841   7.096 -0.2440  0.3329 -0.2198
  337MOL0     C44413   7.254   4.748   7.189 -0.1816  0.2582 -0.5246
  337MOL0     C44414   7.403   4.769   7.164  0.6464 -0.0880  0.8257
  337MOL0     C44415   7.454   4.903   7.199 -0.1232 -0.0668  0.1885
  337MOL0     C44416   7.493   5.018   7.229  0.4331  0.2286 -0.7756
  337MOL0     C44417   6.733   4.800   7.207  0.3295  0.5586 -0.2479
  337MOL0     C44418   6.615   4.787   7.286  0.3142 -0.1072 -0.2827
  337MOL0     H44419   6.192   4.677   7.561  1.3129  0.6060 -0.4676
  337MOL0     H44420   6.049   4.724   7.740 -0.4482 -0.4183 -2.2551
  337MOL0     H44421   6.038   4.758   7.994  1.9721  1.5911  1.1932
  337MOL0     H44422   5.906   4.815   7.888 -2.7804  2.2814  2.4059
  337MOL0     H44423   5.821   4.963   8.052  0.1052 -0.1923 -2.4039
  337MOL0     H44424   5.962   4.942   8.161  0.4153 -1.8669  0.0143
  337MOL0     H44425   5.879   4.685   8.152  1.9575  0.1741  0.3410
  337MOL0     H44426   5.736   4.744   8.081  0.0112 -1.0348  1.5967
  337MOL0     H44427   5.682   4.727   8.309 -0.3296 -0.9735  0.4349
  337MOL0     H44428   5.836   4.799   8.359  1.5478  1.0894 -2.3778
  337MOL0     H44429   5.746   5.025   8.305  1.9617 -0.8283 -1.8204
  337MOL0     H44430   5.652   4.946   8.421 -1.3696  1.1339 -0.4631
  337MOL0     H44431   5.587   5.049   8.163  2.5105 -1.8810  0.4261
  337MOL0     H44432   5.484   5.052   8.312 -1.7802 -4.5488  2.4073
  337MOL0     H44433   5.524   4.781   8.171  1.6839  0.1968  0.2765
  337MOL0     H44434   5.395   4.825   8.277 -1.4419  0.3654 -1.2246
  337MOL0     H44435   5.329   5.005   8.097 -1.4810 -0.1440  2.4373
  337MOL0     H44436   5.291   4.831   8.082 -0.7125  1.3626  5.2068
  337MOL0     H44437   5.503   4.703   7.924  2.5184 -0.5099 -0.5493
  337MOL0     H44438   5.527   4.799   7.562 -1.4533  3.6225  2.1459
  337MOL0     H44439   5.539   4.662   7.668  0.6108  0.1912  1.2974
  337MOL0     H44440   5.774   4.680   7.687 -1.0452 -0.2957  0.2970
  337MOL0     H44441   5.779   4.856   7.642 -0.8892  0.3354  1.3893
  337MOL0     H44442   5.690   4.757   7.407 -1.5911  1.6541  2.1035
  337MOL0     H44443   5.860   4.742   7.446 -0.8029 -0.3887 -2.3675
  337MOL0     H44444   5.702   4.547   7.357 -0.3596 -1.9981  0.8947
  337MOL0     H44445   5.635   4.533   7.518 -1.5383 -2.1858 -2.4086
  337MOL0     H44446   6.067   4.410   7.589  0.4813  0.0554 -0.7784
  337MOL0     H44447   6.279   4.397   7.478  0.0099 -0.3516  0.1018
  337MOL0     H44448   6.532   4.418   7.034  0.7809  0.0532 -0.5692
  337MOL0     H44449   6.750   4.320   6.959  0.5835  1.3179  0.6077
  337MOL0     H44450   6.892   3.960   7.161  3.0008 -3.4155 -1.4130
  337MOL0     H44451   7.019   4.053   7.229 -3.7287  0.5640  3.0803
  337MOL0     H44452   7.142   4.077   7.030  1.1392 -1.1172 -3.8107
  337MOL0     H44453   7.034   3.971   6.945 -0.2750 -1.8843  0.0001
  337MOL0     H44454   7.090   3.779   7.116 -2.3140  2.3451  1.1588
  337MOL0     H44455   7.208   3.888   7.191 -1.6267  0.2962  1.3946
  337MOL0     H44456   7.213   3.776   6.906  0.0848  1.8860 -1.8788
  337MOL0     H44457   7.322   3.918   6.958 -0.5700  0.6710 -0.3546
  337MOL0     H44458   7.306   3.662   7.101  0.9354  0.2651 -0.3455
  337MOL0     H44459   7.412   3.806   7.132  0.2335  0.0961  0.7959
  337MOL0     H44460   7.554   3.637   7.029  0.7538 -0.2940 -2.5273
  337MOL0     H44461   7.531   3.767   6.922  2.2725 -0.6958  1.0932
  337MOL0     H44462   7.378   3.503   6.952  2.6424 -0.2516  3.2551
  337MOL0     H44463   7.337   3.616   6.826  0.0656 -0.1012  0.3458
  337MOL0     H44464   7.536   3.576   6.716  2.3834 -2.2385 -1.6830
  337MOL0     H44465   7.457   3.419   6.756 -2.1962  0.7612  1.7312
  337MOL0     H44466   6.806   4.161   7.360  0.4197  3.6642  2.7727
  337MOL0     H44467   6.587   4.226   7.410  1.1757 -0.6824  1.0840
  337MOL0     H44468   6.080   4.534   7.115 -2.0140  0.7532  0.2324
  337MOL0     H44469   5.876   4.520   7.218  0.8955 -2.4059 -1.6382
  337MOL0     H44470   6.257   5.079   7.817  0.2089 -0.5697 -0.1588
  337MOL0     H44471   6.419   5.027   7.638 -1.5333  0.6737  0.3718
  337MOL0     H44472   6.681   4.506   7.463  1.6803 -0.6711 -0.3562
  337MOL0     H44473   6.879   4.512   7.316  1.6108  1.7827 -2.2270
  337MOL0     H44474   6.970   4.913   7.165 -2.9462 -1.4786  0.2649
  337MOL0     H44475   6.969   4.849   7.004 -2.0403  1.5945  0.7237
  337MOL0     H44476   7.185   4.829   6.989  1.1613  4.6490 -0.6648
  337MOL0     H44477   7.204   4.940   7.123  2.9186 -0.5405 -0.8088
  337MOL0     H44478   7.228   4.647   7.158 -5.0123  1.2330 -0.4758
  337MOL0     H44479   7.236   4.752   7.297  2.5653 -0.9235  0.0594
  337MOL0     H44480   7.460   4.684   7.203 -0.2421 -0.7765  0.6692
  337MOL0     H44481   7.416   4.774   7.056 -0.7732  0.8525  0.6722
  337MOL0     H44482   7.526   5.118   7.249  0.3998  0.2233 -0.6934
  337MOL0     H44483   6.735   4.879   7.134  3.2949 -0.2679 -1.2151
  337MOL0     H44484   6.545   4.868   7.268 -0.5433 -0.7949 -0.0850
  338MOL0     O44485  10.207   4.157   9.905  0.2691 -0.7976 -0.1208
  338MOL0     C44486  10.121   4.069   9.897 -0.4066 -0.4912  0.0585
  338MOL0     O44487  10.131   3.956   9.825  0.3140 -0.8734  0.0126
  338MOL0     C44488  10.243   3.929   9.741  0.1241 -0.5142 -0.0426
  338MOL0     C44489  10.228   3.842   9.634  0.4521 -0.3153 -0.0920
  338MOL0     C44490  10.333   3.800   9.547  0.2399  0.1522 -0.5566
  338MOL0     C44491  10.467   3.838   9.566  0.2191  0.2536  0.1252
  338MOL0     O44492  10.579   3.814   9.487  0.3797  0.3912  0.2396
  338MOL0     C44493  10.550   3.724   9.378  0.3516  0.0696 -0.8420
  338MOL0     C44494  10.687   3.691   9.305 -0.8263  0.0478  0.0032
  338MOL0     C44495  10.774   3.584   9.383 -0.2325 -0.2955  0.5294
  338MOL0     C44496  10.905   3.552   9.303 -1.2664 -0.7678  0.1602
  338MOL0     C44497  11.003   3.463   9.382 -0.6076 -0.1977  0.6653
  338MOL0     C44498  11.128   3.439   9.295  0.2704 -0.1714 -0.6912
  338MOL0     C44499  11.226   3.331   9.330  0.0393 -0.2545 -0.1053
  338MOL0     C44500  11.288   3.339   9.472 -0.6216  0.2342  0.4141
  338MOL0     N44501  11.385   3.226   9.486 -0.5828  0.0192 -0.6019
  338MOL0     C44502  11.483   3.195   9.400 -1.2197  0.1284 -0.1274
  338MOL0     C44503  11.555   3.091   9.446 -0.4737  0.3447  0.1151
  338MOL0     C44504  11.678   3.028   9.396 -0.5612  0.4409 -0.0656
  338MOL0     C44505  11.803   3.097   9.453 -0.7787  0.3206  0.4640
  338MOL0     C44506  11.920   2.997   9.460  0.3183 -0.7755 -0.2372
  338MOL0     C44507  12.051   3.063   9.512 -0.3415  0.0786 -0.0211
  338MOL0     O44508  12.158   2.972   9.525  0.5465  0.1144  0.4332
  338MOL0     C44509  12.291   3.023   9.530  0.8224  1.1148 -0.3313
  338MOL0     C44510  12.384   2.927   9.489  0.4232 -0.8747  1.0406
  338MOL0     C44511  12.516   2.971   9.469 -0.0936  0.0653 -0.0029
  338MOL0     C44512  12.560   3.101   9.503  0.8506 -0.1990  0.4106
  338MOL0     C44513  12.693   3.144   9.476 -0.5127 -0.5212 -0.0738
  338MOL0     O44514  12.797   3.049   9.482 -0.0653 -0.1099  0.3041
  338MOL0     C44515  12.926   3.097   9.460  0.0157 -0.5333 -0.3259
  338MOL0     C44516  12.989   3.170   9.555 -0.1385  0.0972  0.7608
  338MOL0     C44517  13.124   3.212   9.538 -0.9181  0.2765  0.2151
  338MOL0     C44518  13.191   3.178   9.424 -0.2640 -0.5558 -0.5703
  338MOL0     O44519  13.322   3.229   9.404  0.5568  0.3861  0.6833
  338MOL0     C44520  13.373   3.232   9.274  0.4283 -0.9973  0.6703
  338MOL0     C44521  13.476   3.350   9.268 -0.0924  0.0335 -0.6847
  338MOL0     C44522  13.558   3.351   9.140 -0.9941 -0.3176 -0.1739
  338MOL0     C44523  13.670   3.458   9.128 -0.3319 -0.1308  0.4342
  338MOL0     C44524  13.751   3.447   9.005 -0.3634 -0.0242 -0.3065
  338MOL0     C44525  13.895   3.503   9.024 -0.6604  0.1020 -0.1832
  338MOL0     C44526  13.886   3.659   9.042 -0.1436 -0.3404 -0.1368
  338MOL0     C44527  13.822   3.743   8.921  0.3318  0.4032  0.5218
  338MOL0    Cl44528  13.902   3.918   8.896 -0.2881  0.3017 -0.2308
  338MOL0     C44529  13.122   3.108   9.326 -0.4208  0.1071 -0.6779
  338MOL0     C44530  12.995   3.062   9.350 -0.7098 -0.5420  0.8314
  338MOL0     O44531  12.699   3.255   9.434 -0.1539  0.1658 -0.4284
  338MOL0     C44532  12.470   3.190   9.562 -0.2475  0.0525  0.3487
  338MOL0     C44533  12.333   3.149   9.564 -0.7449 -1.0625 -0.7962
  338MOL0     N44534  11.490   3.065   9.566  0.5070  0.3274  0.9729
  338MOL0     N44535  11.384   3.136   9.582  0.1294  0.3839 -0.5717
  338MOL0     C44536  10.476   3.932   9.665 -0.3768 -0.7478 -0.8480
  338MOL0     C44537  10.374   3.979   9.746 -0.0138 -0.2558  0.2013
  338MOL0     C44538   9.986   4.097   9.952  0.6550  0.0496  1.0590
  338MOL0     C44539   9.949   4.217  10.018 -0.1829  0.3111  0.4541
  338MOL0     C44540   9.836   4.224  10.095  0.8141 -0.8604 -0.5165
  338MOL0     C44541   9.737   4.125  10.089 -0.2319  0.5700 -0.1128
  338MOL0     O44542   9.616   4.127  10.155 -0.1351  0.1875  0.1532
  338MOL0     C44543   9.577   4.256  10.214  0.5670 -0.7940 -0.5256
  338MOL0     C44544   9.427   4.239  10.253  0.2777 -0.8476 -0.7230
  338MOL0     C44545   9.360   4.374  10.281 -0.6272  0.1854  1.2710
  338MOL0     C44546   9.211   4.346  10.329 -0.6198  0.8761 -0.0101
  338MOL0     C44547   9.110   4.456  10.343  1.2148  0.6736  0.2703
  338MOL0     C44548   9.047   4.555  10.366 -0.4573 -0.3758 -1.0294
  338MOL0     C44549   9.769   4.003  10.033 -0.3416  0.3510  0.2653
  338MOL0     C44550   9.896   3.988   9.969  0.8949 -0.4249 -0.8418
  338MOL0     H44551  10.126   3.807   9.619 -0.1298  1.5765 -0.8744
  338MOL0     H44552  10.303   3.736   9.465 -2.8009 -0.2021  0.6710
  338MOL0     H44553  10.496   3.775   9.297 -0.2158  1.0866  0.1450
  338MOL0     H44554  10.515   3.626   9.411  3.5180 -1.1542 -0.7495
  338MOL0     H44555  10.740   3.785   9.287 -2.7471  1.3056  0.6193
  338MOL0     H44556  10.657   3.634   9.216 -0.1165  0.1741 -0.3267
  338MOL0     H44557  10.709   3.498   9.405 -0.5117 -1.1779 -3.1555
  338MOL0     H44558  10.806   3.608   9.485 -2.3352 -1.2974  1.4969
  338MOL0     H44559  10.887   3.502   9.208  2.1308 -0.2764 -0.8885
  338MOL0     H44560  10.963   3.639   9.270  1.8815 -3.2517 -1.3793
  338MOL0     H44561  10.960   3.368   9.416 -0.0514 -0.5887  0.2776
  338MOL0     H44562  11.031   3.508   9.478  1.6357 -3.2518  1.5864
  338MOL0     H44563  11.178   3.537   9.293 -5.2807  3.0793 -3.5750
  338MOL0     H44564  11.101   3.428   9.189  0.3949 -3.4906 -0.4801
  338MOL0     H44565  11.163   3.242   9.319 -1.2661  0.9380 -4.2803
  338MOL0     H44566  11.307   3.311   9.259  1.1424 -2.6207  1.6592
  338MOL0     H44567  11.213   3.345   9.551 -0.5462 -1.7216  0.6996
  338MOL0     H44568  11.356   3.424   9.481  0.1348  0.1239 -2.9524
  338MOL0     H44569  11.509   3.246   9.308  0.9261  0.0201  0.3639
  338MOL0     H44570  11.684   3.035   9.287 -0.8316 -1.9114 -0.2904
  338MOL0     H44571  11.673   2.921   9.419 -0.7605  0.8336  1.8175
  338MOL0     H44572  11.790   3.148   9.549  0.1006 -2.9093  2.4764
  338MOL0     H44573  11.828   3.170   9.376 -0.0675 -1.2649 -0.8534
  338MOL0     H44574  11.893   2.918   9.531  1.1642  0.5976  1.7170
  338MOL0     H44575  11.925   2.947   9.363 -0.1240  0.7366 -1.0757
  338MOL0     H44576  12.038   3.110   9.610  3.0222  1.9403 -0.3316
  338MOL0     H44577  12.066   3.142   9.438 -3.8007 -0.7390 -1.8561
  338MOL0     H44578  12.357   2.822   9.483  0.1455 -0.7672  0.3269
  338MOL0     H44579  12.596   2.901   9.448  1.9130  1.2288  2.9991
  338MOL0     H44580  12.942   3.207   9.646  0.4636  2.3536  0.2113
  338MOL0     H44581  13.181   3.270   9.610  0.1238  1.5747 -1.5515
  338MOL0     H44582  13.294   3.248   9.200 -1.3681 -4.6009  1.5788
  338MOL0     H44583  13.430   3.144   9.244  2.4725  0.7671 -0.9949
  338MOL0     H44584  13.545   3.334   9.352 -0.5027 -3.5510 -0.8611
  338MOL0     H44585  13.438   3.452   9.276 -0.5658 -0.0511 -1.6843
  338MOL0     H44586  13.486   3.377   9.062 -1.7882  3.1664  1.5577
  338MOL0     H44587  13.605   3.259   9.103  0.7664  1.6862 -3.3912
  338MOL0     H44588  13.630   3.559   9.143  0.7017  0.6066 -1.4335
  338MOL0     H44589  13.734   3.457   9.217 -1.7124  0.2634  1.4780
  338MOL0     H44590  13.702   3.513   8.932 -0.2906 -0.0871 -0.4107
  338MOL0     H44591  13.743   3.344   8.969 -2.5973  0.2443 -0.7718
  338MOL0     H44592  13.964   3.480   8.943 -0.7506 -1.8911  0.2591
  338MOL0     H44593  13.940   3.454   9.111 -0.9614 -0.4117 -0.3191
  338MOL0     H44594  13.831   3.686   9.132  0.6526 -1.2106  0.6273
  338MOL0     H44595  13.986   3.701   9.052 -0.9088  1.6634 -0.4401
  338MOL0     H44596  13.713   3.746   8.930  0.1189 -2.0090 -0.3779
  338MOL0     H44597  13.829   3.696   8.823  2.3305  2.3957 -0.3808
  338MOL0     H44598  13.158   3.053   9.239 -0.5319 -0.9014 -0.0993
  338MOL0     H44599  12.946   3.000   9.276  1.1203 -1.0347 -0.0256
  338MOL0     H44600  12.501   3.286   9.603 -0.8777  1.1523 -1.6415
  338MOL0     H44601  12.261   3.225   9.593 -2.5734 -2.9374 -0.1644
  338MOL0     H44602  10.575   3.970   9.683 -0.4723 -0.1375 -1.5801
  338MOL0     H44603  10.402   4.057   9.816  3.0584 -1.1595  0.1240
  338MOL0     H44604  10.010   4.307  10.008 -1.0537  0.7972 -0.6283
  338MOL0     H44605   9.825   4.314  10.155 -4.2976 -1.6282  0.2134
  338MOL0     H44606   9.598   4.335  10.142  1.7436  1.1234  1.7743
  338MOL0     H44607   9.639   4.289  10.298 -0.7356 -0.4993  0.3390
  338MOL0     H44608   9.372   4.185  10.176 -1.6245  1.4873 -1.1257
  338MOL0     H44609   9.422   4.177  10.343 -0.5710  0.0059 -0.1535
  338MOL0     H44610   9.368   4.438  10.193 -1.4789 -0.6098  0.5944
  338MOL0     H44611   9.410   4.407  10.372 -0.2101 -4.0223  2.8227
  338MOL0     H44612   9.172   4.276  10.255  0.2687  1.4857 -1.0760
  338MOL0     H44613   9.219   4.286  10.421 -0.0112 -0.0102 -0.6189
  338MOL0     H44614   9.010   4.652  10.393  2.6458  0.7635 -0.5417
  338MOL0     H44615   9.696   3.923  10.041 -0.8503  0.0843 -4.2501
  338MOL0     H44616   9.927   3.891   9.930  0.0973 -0.7894 -0.6074
  339MOL0     O44617   5.303   4.952   1.793 -0.1607  0.1749  0.4985
  339MOL0     C44618   5.358   4.860   1.736 -0.3337  0.4280 -0.4001
  339MOL0     O44619   5.301   4.770   1.654  0.8508  0.3120  1.2020
  339MOL0     C44620   5.168   4.804   1.613  0.0488  0.2223  0.8411
  339MOL0     C44621   5.068   4.822   1.705  0.4344  0.4275 -0.3423
  339MOL0     C44622   4.943   4.865   1.652 -0.0092 -0.4747 -1.0065
  339MOL0     C44623   4.914   4.883   1.518  0.5048 -0.7517 -0.5212
  339MOL0     O44624   4.787   4.933   1.495  0.0913 -0.3094  0.0057
  339MOL0     C44625   4.765   4.987   1.365  0.7640 -1.4250  0.5518
  339MOL0     C44626   4.647   5.074   1.370  0.4037 -1.4519 -0.2975
  339MOL0     C44627   4.525   5.003   1.439  0.5460  0.4179 -0.5025
  339MOL0     C44628   4.387   5.056   1.439 -0.3263 -0.2889  0.4765
  339MOL0     C44629   4.287   4.985   1.536 -0.3316  0.6865  0.6659
  339MOL0     C44630   4.163   5.070   1.559 -0.9958 -0.4129 -0.6118
  339MOL0     C44631   4.082   5.076   1.430 -0.8065 -0.4366 -0.0522
  339MOL0     C44632   3.942   5.123   1.474 -0.3982  0.0396  0.4971
  339MOL0     N44633   3.866   5.160   1.353  0.8189 -0.5713  0.2746
  339MOL0     C44634   3.808   5.072   1.265 -0.0398 -0.6918 -0.1130
  339MOL0     C44635   3.759   5.149   1.162 -0.1392  0.1100  0.0616
  339MOL0     C44636   3.646   5.119   1.077  0.3401  0.0589  0.4713
  339MOL0     C44637   3.690   5.023   0.966  0.5866 -0.2555  0.0004
  339MOL0     C44638   3.731   4.888   1.010 -0.9734 -0.7035 -0.2406
  339MOL0     C44639   3.680   4.777   0.920  0.0634 -0.7852 -0.0164
  339MOL0     O44640   3.721   4.798   0.790 -0.2230 -0.1065  0.1359
  339MOL0     C44641   3.840   4.759   0.753 -0.2711  0.0666 -0.3764
  339MOL0     C44642   3.848   4.758   0.618 -1.0268 -0.2199  0.0061
  339MOL0     C44643   3.961   4.728   0.557  0.1385  0.9356 -0.6763
  339MOL0     C44644   4.084   4.685   0.624  0.4302 -0.1630 -0.7564
  339MOL0     C44645   4.220   4.675   0.569 -1.2393 -1.0622  0.3970
  339MOL0     O44646   4.326   4.646   0.651 -0.1227 -0.0288  0.0985
  339MOL0     C44647   4.457   4.643   0.619 -0.7221  0.0938 -0.3056
  339MOL0     C44648   4.541   4.636   0.729  0.1809  0.7292  0.0631
  339MOL0     C44649   4.680   4.641   0.719  0.1086  1.0675 -0.7735
  339MOL0     C44650   4.742   4.643   0.592  1.0415  0.5734  0.0279
  339MOL0     O44651   4.873   4.668   0.566 -0.4555  0.1739 -0.2726
  339MOL0     C44652   4.959   4.664   0.679  0.3354 -1.2406  0.2564
  339MOL0     C44653   5.106   4.670   0.636  0.1174  1.3576  0.0615
  339MOL0     C44654   5.135   4.812   0.571  0.1742 -0.8914  0.7608
  339MOL0     C44655   5.222   4.817   0.440 -0.0470 -0.0111  0.3462
  339MOL0     C44656   5.284   4.955   0.422  0.4758 -0.9269 -0.2288
  339MOL0     C44657   5.371   4.972   0.299 -0.2451  0.4609 -0.7141
  339MOL0     C44658   5.446   4.846   0.253  1.1973  0.1167 -0.3501
  339MOL0     C44659   5.526   4.886   0.129  0.0217  0.1866 -0.1101
  339MOL0    Cl44660   5.652   4.757   0.111  0.2212 -0.1520 -0.3036
  339MOL0     C44661   4.655   4.630   0.478 -0.0987 -1.0938 -0.2116
  339MOL0     C44662   4.514   4.634   0.493  0.1159  0.3047 -0.2356
  339MOL0     O44663   4.228   4.702   0.449  0.0200 -0.5510 -0.6691
  339MOL0     C44664   4.063   4.678   0.764 -0.3014 -0.1937 -0.1952
  339MOL0     C44665   3.944   4.708   0.832  0.4378  0.0910  0.1002
  339MOL0     N44666   3.796   5.280   1.189  0.2141  0.3578  0.1572
  339MOL0     N44667   3.861   5.287   1.301  0.2209 -0.4188 -0.3389
  339MOL0     C44668   5.015   4.864   1.428  0.7689 -0.2995  0.6694
  339MOL0     C44669   5.137   4.812   1.472  0.2362  0.1243  0.0676
  339MOL0     C44670   5.490   4.834   1.787 -0.1779  0.7090 -0.3009
  339MOL0     C44671   5.548   4.886   1.906 -0.8600 -0.7727  0.6858
  339MOL0     C44672   5.667   4.843   1.961  0.1316 -0.5156  0.6957
  339MOL0     C44673   5.746   4.753   1.883 -0.3415  0.0902 -0.2238
  339MOL0     O44674   5.859   4.708   1.941  0.8251 -0.1211  0.9282
  339MOL0     C44675   5.962   4.805   1.942  0.1077  0.1220 -0.1453
  339MOL0     C44676   6.087   4.755   2.008 -0.4096 -0.3671  0.6396
  339MOL0     C44677   6.202   4.848   1.976 -0.3289 -0.5440 -0.8873
  339MOL0     C44678   6.175   4.997   2.014 -0.2113 -0.1696 -0.1678
  339MOL0     C44679   6.306   5.065   1.994  0.4104 -0.1791 -0.7094
  339MOL0     C44680   6.414   5.121   1.973 -0.4927  0.1658 -0.2575
  339MOL0     C44681   5.702   4.705   1.762  0.1632 -0.3132  0.7860
  339MOL0     C44682   5.571   4.745   1.716 -0.4748 -0.2976  0.3236
  339MOL0     H44683   5.087   4.813   1.811 -0.2717  0.0292 -0.2482
  339MOL0     H44684   4.861   4.877   1.722  0.7141 -1.2743  0.0165
  339MOL0     H44685   4.745   4.901   1.301  1.9639 -2.8782  2.0464
  339MOL0     H44686   4.857   5.042   1.340  0.3728 -0.8481  0.3537
  339MOL0     H44687   4.614   5.101   1.269  0.1430 -1.2391 -0.1563
  339MOL0     H44688   4.671   5.166   1.424 -2.2478 -0.1017 -1.2458
  339MOL0     H44689   4.562   4.987   1.541  4.9255  0.2594 -1.8858
  339MOL0     H44690   4.521   4.905   1.390  0.5032 -0.3691  1.0103
  339MOL0     H44691   4.384   5.158   1.478 -0.8263 -0.4703  0.9164
  339MOL0     H44692   4.347   5.065   1.337  2.3531  1.2209 -0.5417
  339MOL0     H44693   4.344   4.968   1.628  2.0008 -2.0430 -1.0936
  339MOL0     H44694   4.259   4.896   1.477  0.3450 -0.0354  1.4081
  339MOL0     H44695   4.196   5.164   1.605  2.8677 -2.0781  0.4727
  339MOL0     H44696   4.119   5.014   1.643  0.5447 -1.3757 -0.4055
  339MOL0     H44697   4.138   5.148   1.369 -0.8351  0.0972  0.5483
  339MOL0     H44698   4.074   4.978   1.383 -1.2268 -0.0954 -0.7109
  339MOL0     H44699   3.934   5.203   1.548  0.8459 -0.2852  1.0014
  339MOL0     H44700   3.887   5.039   1.517 -2.1087  0.7137 -0.2890
  339MOL0     H44701   3.800   4.969   1.299  0.1631  0.2682  3.2798
  339MOL0     H44702   3.610   5.215   1.040  0.0337 -0.8481 -1.7984
  339MOL0     H44703   3.569   5.065   1.134  4.4977 -3.5824  3.2708
  339MOL0     H44704   3.779   5.064   0.917 -0.2804  0.0973 -1.3316
  339MOL0     H44705   3.626   5.020   0.877  5.5020  2.0208 -4.1435
  339MOL0     H44706   3.838   4.885   1.029 -0.6739  1.3043 -1.3699
  339MOL0     H44707   3.692   4.859   1.108 -0.6284 -0.8065 -0.1319
  339MOL0     H44708   3.571   4.785   0.928  0.2042  0.2480  1.3532
  339MOL0     H44709   3.708   4.676   0.953  1.3714 -0.3594  0.2240
  339MOL0     H44710   3.766   4.795   0.558 -0.8591 -0.4827 -0.3947
  339MOL0     H44711   3.964   4.745   0.449  1.7156  1.6316 -0.5403
  339MOL0     H44712   4.493   4.658   0.823 -1.4575  1.1104 -0.8250
  339MOL0     H44713   4.736   4.626   0.811  1.7056 -1.8760 -2.0726
  339MOL0     H44714   4.929   4.573   0.732 -1.6555  0.4481  2.2389
  339MOL0     H44715   4.942   4.750   0.745 -0.5096  1.0932 -2.7822
  339MOL0     H44716   5.129   4.591   0.564  0.6967  0.8363  0.8069
  339MOL0     H44717   5.169   4.653   0.723  3.0234  0.2038 -2.1202
  339MOL0     H44718   5.197   4.864   0.645  0.9433 -2.2958  1.1548
  339MOL0     H44719   5.044   4.867   0.550  0.5455 -1.1472 -1.7589
  339MOL0     H44720   5.304   4.745   0.447 -0.7167 -0.5910  2.9696
  339MOL0     H44721   5.169   4.801   0.345  2.2123  0.5395 -1.0923
  339MOL0     H44722   5.348   4.965   0.511  0.0986 -0.8378  0.0324
  339MOL0     H44723   5.208   5.033   0.417  1.1480 -0.3333 -1.9726
  339MOL0     H44724   5.434   5.059   0.320 -1.9750  1.4039  0.8618
  339MOL0     H44725   5.317   5.001   0.209  1.9039  1.1273 -1.8507
  339MOL0     H44726   5.513   4.813   0.333 -0.2531 -2.4078 -0.0684
  339MOL0     H44727   5.370   4.770   0.236 -1.4037  2.4166  0.2146
  339MOL0     H44728   5.563   4.988   0.141  1.9817 -0.5074  0.1473
  339MOL0     H44729   5.462   4.865   0.043 -1.7929  0.8813  1.0108
  339MOL0     H44730   4.687   4.621   0.375  0.1043  0.0873 -0.2683
  339MOL0     H44731   4.453   4.629   0.403 -2.8113  1.0823  1.5643
  339MOL0     H44732   4.150   4.657   0.825  0.5522  3.2561 -0.0376
  339MOL0     H44733   3.938   4.705   0.940  0.4509  0.2386  0.1051
  339MOL0     H44734   5.012   4.886   1.321 -1.5567 -0.4763  0.6418
  339MOL0     H44735   5.213   4.784   1.400  0.3529 -0.4742  0.4114
  339MOL0     H44736   5.491   4.962   1.958  1.5446 -0.2151  2.6719
  339MOL0     H44737   5.704   4.875   2.058  1.4423 -3.6045  1.3421
  339MOL0     H44738   5.940   4.889   2.009  0.3130  0.4582 -0.4978
  339MOL0     H44739   5.981   4.834   1.838 -0.9326  1.5479  0.0144
  339MOL0     H44740   6.074   4.753   2.116 -0.2790 -1.3818  0.6415
  339MOL0     H44741   6.120   4.656   1.976 -3.2241 -1.1653 -0.0867
  339MOL0     H44742   6.242   4.838   1.875  0.1983  1.4846 -0.9120
  339MOL0     H44743   6.281   4.804   2.038 -1.2971 -1.2658 -0.1206
  339MOL0     H44744   6.109   5.038   1.938  0.5017 -2.6179 -2.2658
  339MOL0     H44745   6.128   5.010   2.112 -0.6563  1.6164 -0.5862
  339MOL0     H44746   6.507   5.166   1.948 -1.2330  0.9311 -1.7752
  339MOL0     H44747   5.758   4.641   1.695 -0.1254  0.3730 -0.1433
  339MOL0     H44748   5.542   4.702   1.621  3.7124  2.0851 -2.3834
  340MOL0     O44749   3.288   1.831   0.887  0.3798 -0.9430 -0.4946
  340MOL0     C44750   3.273   1.918   0.798  0.0529 -0.3727 -0.4873
  340MOL0     O44751   3.164   2.002   0.777 -0.1276 -0.1966 -0.1632
  340MOL0     C44752   3.052   1.988   0.851 -0.2002 -0.1805  0.5505
  340MOL0     C44753   2.956   2.091   0.874 -0.4044  0.1526 -0.0500
  340MOL0     C44754   2.842   2.064   0.949  0.2720 -0.4112 -0.1274
  340MOL0     C44755   2.810   1.934   1.006 -0.3637  0.2078  0.9455
  340MOL0     O44756   2.698   1.908   1.075 -0.0099 -0.4446 -0.5174
  340MOL0     C44757   2.710   1.857   1.214 -0.3938  0.2524  0.9704
  340MOL0     C44758   2.666   1.964   1.318 -0.3295 -0.6987  0.2234
  340MOL0     C44759   2.521   2.009   1.331  1.0873 -0.4256  0.6701
  340MOL0     C44760   2.478   2.081   1.205 -0.8390  0.6848  0.1186
  340MOL0     C44761   2.361   2.170   1.224  0.2472 -0.0205  0.4483
  340MOL0     C44762   2.222   2.109   1.255  0.3414 -1.1301 -0.0331
  340MOL0     C44763   2.142   2.216   1.317  0.1365 -0.0116 -0.1756
  340MOL0     C44764   1.992   2.169   1.308  0.1960 -0.0687 -0.2417
  340MOL0     N44765   1.913   2.269   1.373 -0.2329 -0.4145 -0.5120
  340MOL0     C44766   1.890   2.275   1.514 -0.4942  0.9617  0.5359
  340MOL0     C44767   1.793   2.369   1.524 -0.1546  0.6479 -0.0670
  340MOL0     C44768   1.725   2.430   1.642 -0.6949  0.6607 -0.1238
  340MOL0     C44769   1.735   2.576   1.653 -0.1375 -0.5599 -0.1723
  340MOL0     C44770   1.665   2.673   1.550  0.9111  0.9761 -0.6846
  340MOL0     C44771   1.512   2.660   1.533  0.0733 -0.0777 -0.2753
  340MOL0     O44772   1.450   2.678   1.660  0.0961  0.0883  0.3959
  340MOL0     C44773   1.324   2.636   1.676  0.8583  0.0859 -0.3378
  340MOL0     C44774   1.276   2.629   1.808  0.4479  0.0106  0.6585
  340MOL0     C44775   1.144   2.590   1.826  0.0755  0.1928 -0.3189
  340MOL0     C44776   1.052   2.568   1.728  0.4923 -0.5028 -0.0346
  340MOL0     C44777   0.916   2.527   1.759  0.4324  0.3862 -0.2227
  340MOL0     O44778   0.871   2.530   1.888 -0.0400 -0.2097  0.2648
  340MOL0     C44779   0.736   2.509   1.913  0.5010  0.6676 -0.0406
  340MOL0     C44780   0.678   2.585   2.013  0.8774 -0.0153  0.1217
  340MOL0     C44781   0.551   2.551   2.055 -0.5929  0.1207  0.3808
  340MOL0     C44782   0.464   2.464   1.986 -0.7530 -0.1553  0.8765
  340MOL0     O44783   0.344   2.454   2.034  0.6479 -1.0582  0.1534
  340MOL0     C44784   0.250   2.406   1.939  0.0654 -0.1977 -0.7876
  340MOL0     C44785   0.115   2.428   1.975 -0.2100 -1.0070 -0.8614
  340MOL0     C44786   0.030   2.360   1.871 -0.1496  1.0662  0.3962
  340MOL0     C44787  -0.122   2.390   1.898  0.6840 -0.4367 -0.2478
  340MOL0     C44788  -0.233   2.303   1.827 -1.3493 -0.0728 -0.9178
  340MOL0     C44789  -0.214   2.305   1.676  0.2509 -1.1753 -0.2818
  340MOL0     C44790  -0.289   2.189   1.610  0.7313 -0.2852 -0.3206
  340MOL0     C44791  -0.442   2.208   1.593 -0.0433 -0.4122 -0.5015
  340MOL0    Cl44792  -0.489   2.340   1.485  0.0890  0.1766  0.3117
  340MOL0     C44793   0.519   2.388   1.882  0.0889  0.4757 -0.0822
  340MOL0     C44794   0.655   2.408   1.852  0.1280 -0.5543  0.2737
  340MOL0     O44795   0.845   2.503   1.664  0.6568 -0.8677 -0.0183
  340MOL0     C44796   1.102   2.579   1.599 -0.9392 -0.4708  0.7183
  340MOL0     C44797   1.231   2.618   1.575  0.5012  0.3139  0.3460
  340MOL0     N44798   1.753   2.403   1.395  0.7817 -0.1432 -0.3482
  340MOL0     N44799   1.822   2.345   1.309  0.8001 -0.4249 -0.4956
  340MOL0     C44800   2.906   1.828   0.977  1.3098 -0.2094  0.5439
  340MOL0     C44801   3.016   1.859   0.897 -0.6156 -0.3657  0.4774
  340MOL0     C44802   3.389   1.942   0.713 -0.5469  0.0768 -0.3218
  340MOL0     C44803   3.506   1.870   0.723 -0.2007  0.1153  0.1807
  340MOL0     C44804   3.608   1.895   0.628  0.2586  0.0383 -0.5672
  340MOL0     C44805   3.600   1.985   0.521 -0.5965 -0.2426  0.1813
  340MOL0     O44806   3.709   1.978   0.434  0.6029 -0.4499  0.4908
  340MOL0     C44807   3.709   2.062   0.317 -0.6115  0.6471 -0.1465
  340MOL0     C44808   3.604   2.010   0.215  0.1740 -0.8080 -0.8262
  340MOL0     C44809   3.649   1.887   0.132 -0.4773 -0.4337 -0.8304
  340MOL0     C44810   3.552   1.823   0.042  0.3473 -0.0789  0.3672
  340MOL0     C44811   3.534   1.902  -0.083  0.4374  0.6157 -0.4388
  340MOL0     C44812   3.523   1.974  -0.175 -0.4984 -0.4408 -0.8241
  340MOL0     C44813   3.487   2.058   0.521  0.3457 -0.0926  0.2276
  340MOL0     C44814   3.384   2.039   0.614  0.8593  0.5093  0.4546
  340MOL0     H44815   2.975   2.194   0.844 -0.3113  0.0105 -0.4895
  340MOL0     H44816   2.766   2.138   0.971 -1.0000 -1.4253 -0.9887
  340MOL0     H44817   2.813   1.828   1.233 -0.8002 -2.9321 -0.9854
  340MOL0     H44818   2.641   1.773   1.229  2.7001 -2.2861  2.0236
  340MOL0     H44819   2.718   2.060   1.305 -1.4970  0.0917  1.1170
  340MOL0     H44820   2.700   1.918   1.411 -2.2355  0.5154  1.6031
  340MOL0     H44821   2.506   2.068   1.422  1.2054 -3.3738  2.7350
  340MOL0     H44822   2.462   1.918   1.346 -0.3894  0.5243  0.7709
  340MOL0     H44823   2.555   2.150   1.170 -0.3767 -0.9674 -2.4311
  340MOL0     H44824   2.464   2.015   1.119  1.4198  0.8237 -0.4149
  340MOL0     H44825   2.353   2.247   1.146 -1.3285 -0.4261  0.1826
  340MOL0     H44826   2.382   2.235   1.310  0.5830  0.5963 -0.0846
  340MOL0     H44827   2.221   2.027   1.327 -3.3149 -0.6811  0.6309
  340MOL0     H44828   2.169   2.067   1.169 -1.8334 -1.1676  1.2464
  340MOL0     H44829   2.173   2.228   1.421  0.7961  0.5926 -0.4361
  340MOL0     H44830   2.160   2.310   1.265 -1.0081  0.3027 -0.0248
  340MOL0     H44831   1.977   2.076   1.363 -0.3381 -0.0483 -0.3509
  340MOL0     H44832   1.957   2.164   1.204 -1.6966  1.0077  0.2934
  340MOL0     H44833   1.923   2.210   1.594  0.2639  1.4877  0.6613
  340MOL0     H44834   1.763   2.380   1.732 -1.0402  3.2851  1.5754
  340MOL0     H44835   1.624   2.389   1.630 -0.7641  0.7161  0.2676
  340MOL0     H44836   1.835   2.621   1.659 -1.4098  2.8726 -1.9755
  340MOL0     H44837   1.693   2.601   1.750 -1.8397 -1.5948 -0.6001
  340MOL0     H44838   1.679   2.773   1.591 -1.0753  0.9358  0.1677
  340MOL0     H44839   1.719   2.679   1.455 -2.3171 -0.7297 -2.8146
  340MOL0     H44840   1.493   2.563   1.485 -0.0622 -1.6931  2.7667
  340MOL0     H44841   1.477   2.740   1.467  4.4206  1.9564 -0.4288
  340MOL0     H44842   1.342   2.642   1.894 -1.1342  1.3322  1.7304
  340MOL0     H44843   1.099   2.574   1.923  0.4395 -0.9719 -0.3289
  340MOL0     H44844   0.746   2.661   2.051  1.4815  0.8023 -2.4047
  340MOL0     H44845   0.510   2.598   2.144 -0.9670  1.9749 -0.7209
  340MOL0     H44846   0.264   2.299   1.922 -1.0951 -0.2004 -1.9100
  340MOL0     H44847   0.265   2.449   1.839 -2.0065 -0.0893 -1.1043
  340MOL0     H44848   0.096   2.536   1.969 -0.8601 -1.1920 -2.8624
  340MOL0     H44849   0.099   2.384   2.074  0.8208 -0.7129 -0.5517
  340MOL0     H44850   0.052   2.253   1.861 -0.5636  1.1399 -1.6290
  340MOL0     H44851   0.058   2.397   1.772  1.6412 -0.4279  0.2889
  340MOL0     H44852  -0.139   2.377   2.005 -0.5328  0.4005 -0.3216
  340MOL0     H44853  -0.146   2.494   1.872 -2.9189 -1.5156 -1.9355
  340MOL0     H44854  -0.335   2.340   1.845 -1.7540 -1.1235 -0.9920
  340MOL0     H44855  -0.219   2.201   1.864 -0.2001  0.5186  0.3514
  340MOL0     H44856  -0.109   2.295   1.648  1.0469  2.0152  1.0882
  340MOL0     H44857  -0.248   2.400   1.634  1.6583 -1.1327 -1.3990
  340MOL0     H44858  -0.259   2.161   1.509 -0.7092  1.0839 -1.1686
  340MOL0     H44859  -0.269   2.100   1.671 -2.0172  1.7219  4.0287
  340MOL0     H44860  -0.488   2.235   1.689 -0.0041  0.2473 -0.6637
  340MOL0     H44861  -0.495   2.119   1.558  1.1598 -0.3942 -2.4895
  340MOL0     H44862   0.472   2.306   1.830 -2.4043  2.0697 -0.4771
  340MOL0     H44863   0.703   2.334   1.788  0.2866  0.5680 -0.9533
  340MOL0     H44864   1.032   2.559   1.519 -0.4517 -1.2450  0.4674
  340MOL0     H44865   1.263   2.626   1.471 -2.7822  0.7719 -0.7410
  340MOL0     H44866   2.891   1.722   0.992  2.1588 -0.5595 -0.8886
  340MOL0     H44867   3.066   1.770   0.860  0.6924  0.2931  0.6030
  340MOL0     H44868   3.524   1.788   0.792 -0.4137 -1.4065 -1.4924
  340MOL0     H44869   3.699   1.844   0.658 -2.4123 -3.9965  1.4801
  340MOL0     H44870   3.805   2.064   0.264  0.4163 -0.5149  1.5504
  340MOL0     H44871   3.690   2.161   0.361 -1.3978  0.1688  0.6234
  340MOL0     H44872   3.511   1.984   0.266 -1.6795  1.8976 -2.5372
  340MOL0     H44873   3.577   2.086   0.140  1.8624 -0.8152 -1.4826
  340MOL0     H44874   3.683   1.814   0.206  3.9633  1.0705 -1.0606
  340MOL0     H44875   3.743   1.912   0.081  1.9044 -3.7344  1.5399
  340MOL0     H44876   3.594   1.724   0.020  3.6621  1.3393 -0.4382
  340MOL0     H44877   3.454   1.819   0.088  1.3124  0.0238  2.5291
  340MOL0     H44878   3.530   2.044  -0.256 -0.5071 -0.9862 -1.3032
  340MOL0     H44879   3.467   2.134   0.446 -2.1253 -0.0587  0.8066
  340MOL0     H44880   3.302   2.109   0.599  1.1684  0.9613  0.8329
  341MOL0     O44881   0.754   9.315   7.813  0.2225 -0.2063 -0.3201
  341MOL0     C44882   0.642   9.339   7.762  0.7925 -0.3694 -0.3585
  341MOL0     O44883   0.579   9.461   7.753 -0.4376  0.3889 -0.2082
  341MOL0     C44884   0.654   9.559   7.812 -0.6412  0.0110 -0.3944
  341MOL0     C44885   0.672   9.572   7.954 -0.1663 -0.5612  0.0387
  341MOL0     C44886   0.752   9.678   8.008 -1.0511  0.6897  0.7931
  341MOL0     C44887   0.816   9.779   7.925  0.0843 -0.9515 -0.5536
  341MOL0     O44888   0.881   9.882   7.979 -0.0227 -0.1165  0.1111
  341MOL0     C44889   0.931   9.984   7.889  0.5033  0.9199 -0.1103
  341MOL0     C44890   1.002  10.086   7.966 -0.8996 -0.0874  0.7837
  341MOL0     C44891   1.013  10.217   7.877  0.5733 -0.1925  0.2589
  341MOL0     C44892   1.068  10.339   7.949  0.5422 -0.3536  0.1601
  341MOL0     C44893   1.023  10.485   7.899 -0.5982  0.0046  0.3563
  341MOL0     C44894   0.868  10.528   7.932  0.0451 -0.1332 -0.3406
  341MOL0     C44895   0.814  10.635   7.837 -0.0744 -0.5260 -0.2758
  341MOL0     C44896   0.789  10.583   7.693 -0.6523 -0.4798  0.3822
  341MOL0     N44897   0.654  10.530   7.684 -0.3377  0.1545  0.6129
  341MOL0     C44898   0.614  10.398   7.689  0.0906 -0.6627 -0.4854
  341MOL0     C44899   0.476  10.396   7.666 -0.0496  1.0881  0.9467
  341MOL0     C44900   0.404  10.263   7.631  0.1672 -1.2340  0.1515
  341MOL0     C44901   0.394  10.222   7.478  0.2271  0.6832 -0.5116
  341MOL0     C44902   0.299  10.113   7.440  0.3977  0.0396  0.4295
  341MOL0     C44903   0.320   9.996   7.527 -0.1297  0.3650 -0.9886
  341MOL0     O44904   0.218   9.894   7.517  0.0404 -0.0857 -0.1940
  341MOL0     C44905   0.208   9.832   7.388 -0.1769  0.2012 -0.2272
  341MOL0     C44906   0.309   9.748   7.324  0.7395  0.1499  0.1599
  341MOL0     C44907   0.285   9.702   7.195  0.0404 -0.4399  0.6199
  341MOL0     C44908   0.160   9.725   7.132  1.3007  0.4689 -0.3328
  341MOL0     C44909   0.149   9.676   6.996  1.2092  0.0934 -0.5523
  341MOL0     O44910   0.247   9.577   6.952  0.2830 -0.0553  0.5211
  341MOL0     C44911   0.228   9.495   6.837 -0.5724 -0.7407 -0.6589
  341MOL0     C44912   0.341   9.429   6.786  0.2279 -1.0707 -0.2695
  341MOL0     C44913   0.335   9.361   6.664 -0.6314 -0.1475 -0.4311
  341MOL0     C44914   0.222   9.346   6.594 -0.2343 -1.0032  0.0905
  341MOL0     O44915   0.206   9.271   6.476  0.1123 -1.1328 -0.7329
  341MOL0     C44916   0.307   9.177   6.432 -0.6177  0.3783  0.1280
  341MOL0     C44917   0.386   9.252   6.310  0.6932  0.4167  0.3529
  341MOL0     C44918   0.529   9.208   6.300  0.8596  0.4822  0.4661
  341MOL0     C44919   0.621   9.259   6.412  0.4910  0.2179  0.3148
  341MOL0     C44920   0.770   9.270   6.375  0.1950  0.5245 -0.3342
  341MOL0     C44921   0.831   9.135   6.321  0.7951  0.5351 -0.0959
  341MOL0     C44922   0.991   9.132   6.315 -0.3226 -0.3542 -0.1123
  341MOL0     C44923   1.049   9.124   6.464  0.1889 -0.6693  0.2562
  341MOL0    Cl44924   1.027   8.971   6.536  0.2372  0.8115  0.3374
  341MOL0     C44925   0.110   9.402   6.644  0.0411 -0.5859 -0.4012
  341MOL0     C44926   0.113   9.480   6.767 -0.4890  1.4715  0.8276
  341MOL0     O44927   0.056   9.724   6.925 -0.0876 -0.2651 -0.9044
  341MOL0     C44928   0.063   9.804   7.192  0.6619  0.2044  0.9268
  341MOL0     C44929   0.093   9.855   7.319 -0.0304 -0.5700 -0.1180
  341MOL0     N44930   0.442  10.522   7.651 -0.7155  0.2131  0.0817
  341MOL0     N44931   0.542  10.597   7.656  0.1370  0.7653 -0.1302
  341MOL0     C44932   0.789   9.762   7.783  0.6201 -0.3500 -0.0989
  341MOL0     C44933   0.721   9.650   7.728  0.7727 -0.0360 -0.5865
  341MOL0     C44934   0.560   9.226   7.698 -0.6928  0.0123  0.6979
  341MOL0     C44935   0.452   9.249   7.619 -0.3331  0.4014  0.1052
  341MOL0     C44936   0.387   9.147   7.537 -0.6685 -0.2478  0.4778
  341MOL0     C44937   0.420   9.013   7.558 -0.0649  0.6800 -0.3992
  341MOL0     O44938   0.354   8.921   7.486 -0.7987  0.4788  0.6642
  341MOL0     C44939   0.393   8.779   7.503 -0.3726 -0.1364  0.0962
  341MOL0     C44940   0.337   8.725   7.637  0.4167 -0.1015  0.2021
  341MOL0     C44941   0.188   8.697   7.616  0.2394 -0.9643 -0.1034
  341MOL0     C44942   0.135   8.625   7.745 -0.4422 -0.5226  0.0511
  341MOL0     C44943  -0.004   8.619   7.738  0.2117  0.3478  0.5745
  341MOL0     C44944  -0.125   8.615   7.722 -0.0953 -0.4012  0.0090
  341MOL0     C44945   0.519   8.992   7.656 -0.3444 -0.2508 -0.3204
  341MOL0     C44946   0.589   9.092   7.720  0.2406 -0.6781 -0.1703
  341MOL0     H44947   0.623   9.506   8.024  1.3124  1.1789  2.8913
  341MOL0     H44948   0.764   9.668   8.115 -2.4208 -1.5512  0.7838
  341MOL0     H44949   0.856  10.041   7.834 -0.7819  0.4339  1.0660
  341MOL0     H44950   0.996   9.928   7.820  0.6760 -0.1627  0.8954
  341MOL0     H44951   1.103  10.052   7.987  0.3069  0.2199 -3.5772
  341MOL0     H44952   0.944  10.106   8.057 -1.2234  0.2147  0.5155
  341MOL0     H44953   0.911  10.239   7.844  0.2122  0.7021  1.8482
  341MOL0     H44954   1.075  10.196   7.789 -0.1192  2.0982 -0.8636
  341MOL0     H44955   1.033  10.336   8.053  2.8243 -0.3225  0.9845
  341MOL0     H44956   1.177  10.345   7.958  0.5609  2.1534 -0.9214
  341MOL0     H44957   1.038  10.486   7.791 -2.5873 -0.5297  0.0281
  341MOL0     H44958   1.097  10.553   7.942  2.8837 -3.7836  1.0740
  341MOL0     H44959   0.870  10.565   8.035  3.3390 -0.8994 -0.0124
  341MOL0     H44960   0.798  10.444   7.936  1.4347 -1.4208 -1.5268
  341MOL0     H44961   0.713  10.666   7.867 -0.8235 -1.7345 -1.4859
  341MOL0     H44962   0.880  10.722   7.832  3.6774 -2.9857  1.8677
  341MOL0     H44963   0.860  10.502   7.674  1.7574  1.3561  1.0384
  341MOL0     H44964   0.802  10.661   7.617  0.0344 -0.7427  0.2205
  341MOL0     H44965   0.683  10.315   7.701 -0.0732 -0.6687  0.4703
  341MOL0     H44966   0.300  10.269   7.663 -0.4878  0.8179 -2.0828
  341MOL0     H44967   0.454  10.180   7.683  2.4353 -1.9673 -2.9094
  341MOL0     H44968   0.491  10.181   7.447 -0.1982  0.6629 -1.8540
  341MOL0     H44969   0.378  10.313   7.420 -0.9836  1.1286  0.4689
  341MOL0     H44970   0.200  10.154   7.460  0.7602  0.6635  0.9949
  341MOL0     H44971   0.312  10.085   7.336 -0.2041 -1.5019  0.7418
  341MOL0     H44972   0.322  10.031   7.630  1.8712  1.3156 -1.2947
  341MOL0     H44973   0.414   9.941   7.512  1.7907  2.6946  1.5120
  341MOL0     H44974   0.405   9.721   7.367  1.4730 -0.4632 -1.7635
  341MOL0     H44975   0.368   9.644   7.156  0.3403  0.7374 -0.5567
  341MOL0     H44976   0.432   9.435   6.844 -0.3930 -1.5409  0.7847
  341MOL0     H44977   0.432   9.319   6.637 -0.1629  0.0119  0.9159
  341MOL0     H44978   0.258   9.090   6.388  0.3969  0.4771 -1.2605
  341MOL0     H44979   0.369   9.147   6.516 -0.0020 -1.1107 -0.8220
  341MOL0     H44980   0.385   9.359   6.329 -1.9337  0.3050  1.1938
  341MOL0     H44981   0.331   9.223   6.220 -1.1838  1.6386  1.0607
  341MOL0     H44982   0.557   9.267   6.212  0.2242 -0.6570 -0.5382
  341MOL0     H44983   0.543   9.100   6.282  0.9677  0.7956 -1.6173
  341MOL0     H44984   0.588   9.357   6.447  3.2852  1.4079 -0.1116
  341MOL0     H44985   0.609   9.196   6.500 -0.7583  2.0802  1.5529
  341MOL0     H44986   0.822   9.306   6.465  0.5112  2.3541 -1.1913
  341MOL0     H44987   0.783   9.350   6.301  1.7926  1.6048  1.0169
  341MOL0     H44988   0.791   9.110   6.223 -0.9575  0.7240  0.5170
  341MOL0     H44989   0.795   9.054   6.385 -0.9574  0.7113 -0.7984
  341MOL0     H44990   1.035   9.062   6.243 -0.1498  0.3189 -0.6677
  341MOL0     H44991   1.022   9.233   6.287 -0.0269 -0.5685 -0.5594
  341MOL0     H44992   1.000   9.197   6.529  0.6443  2.1423 -2.3865
  341MOL0     H44993   1.153   9.156   6.461 -0.6577  2.2775 -1.2060
  341MOL0     H44994   0.018   9.376   6.593  0.4918  1.4533 -2.4366
  341MOL0     H44995   0.016   9.521   6.793  0.6642  3.0938  2.8122
  341MOL0     H44996  -0.040   9.819   7.161 -0.2017  0.0621  3.4634
  341MOL0     H44997   0.025   9.917   7.376  3.5798  2.9532  0.7752
  341MOL0     H44998   0.814   9.840   7.712 -1.1803  1.3608  1.0225
  341MOL0     H44999   0.707   9.640   7.620 -0.8443  3.0079 -0.7682
  341MOL0     H45000   0.449   9.354   7.592 -0.1390  0.2578 -0.4880
  341MOL0     H45001   0.315   9.190   7.468 -0.0408  4.8404  2.6072
  341MOL0     H45002   0.503   8.776   7.506 -0.2771  1.6249 -0.7003
  341MOL0     H45003   0.349   8.720   7.422 -0.0043 -0.4412  0.1118
  341MOL0     H45004   0.381   8.630   7.666 -0.2835 -1.0385 -1.6366
  341MOL0     H45005   0.346   8.801   7.716 -2.3288 -2.9321  3.5876
  341MOL0     H45006   0.169   8.637   7.526 -2.5863  0.3304 -0.5018
  341MOL0     H45007   0.131   8.789   7.599  0.1915 -0.3196  3.0524
  341MOL0     H45008   0.165   8.520   7.747 -1.7210 -0.9486 -1.3633
  341MOL0     H45009   0.160   8.683   7.835 -0.7378 -0.9245  0.3977
  341MOL0     H45010  -0.231   8.616   7.711 -0.2756 -0.4384  1.5192
  341MOL0     H45011   0.550   8.896   7.697  1.2953  1.1359  1.9279
  341MOL0     H45012   0.671   9.063   7.783  1.8749  1.0087 -1.3981
  342MOL0     O45013   0.431   2.413  10.040  0.3118 -0.8334  0.0827
  342MOL0     C45014   0.470   2.319   9.969  0.8293 -0.1300 -0.5123
  342MOL0     O45015   0.394   2.246   9.897  0.2668  0.1841  0.0123
  342MOL0     C45016   0.262   2.273   9.870 -0.4031 -0.5908  0.1821
  342MOL0     C45017   0.167   2.174   9.875 -0.1097 -0.8627 -1.1317
  342MOL0     C45018   0.032   2.189   9.850  0.0648 -0.1930  0.7788
  342MOL0     C45019  -0.018   2.321   9.807  0.2192 -0.2573 -0.4752
  342MOL0     O45020  -0.155   2.333   9.797  0.2922 -0.2743 -1.1082
  342MOL0     C45021  -0.201   2.421   9.692 -0.2227  0.5466 -0.0114
  342MOL0     C45022  -0.350   2.382   9.677  0.6500 -0.4828 -0.1760
  342MOL0     C45023  -0.409   2.467   9.558 -0.2494  0.1592 -0.8278
  342MOL0     C45024  -0.539   2.397   9.523  0.1313 -0.3264  0.3435
  342MOL0     C45025  -0.607   2.462   9.391  0.7360  0.0881  0.1203
  342MOL0     C45026  -0.746   2.417   9.361 -0.2691  0.0732  0.6217
  342MOL0     C45027  -0.761   2.264   9.385 -0.3257  0.3802 -0.8172
  342MOL0     C45028  -0.889   2.207   9.296 -0.0436 -1.0090 -0.2466
  342MOL0     N45029  -1.014   2.266   9.353 -0.1021 -0.6450  0.0354
  342MOL0     C45030  -1.141   2.255   9.305 -0.1260  0.2554 -0.4354
  342MOL0     C45031  -1.216   2.309   9.401  0.7840  0.1588  0.6939
  342MOL0     C45032  -1.360   2.325   9.385  0.0179  0.2806  0.3823
  342MOL0     C45033  -1.405   2.393   9.254  0.6159 -0.0705 -1.1662
  342MOL0     C45034  -1.551   2.410   9.234 -0.2466 -1.0783 -0.5623
  342MOL0     C45035  -1.645   2.289   9.265 -0.8743 -0.5755 -0.1969
  342MOL0     O45036  -1.789   2.333   9.263 -0.1417 -0.1845 -0.1051
  342MOL0     C45037  -1.885   2.250   9.315 -0.5913  0.3933  0.1938
  342MOL0     C45038  -2.019   2.297   9.329  0.1218 -0.0609 -0.2757
  342MOL0     C45039  -2.123   2.219   9.378  0.1283  0.0100 -0.1197
  342MOL0     C45040  -2.100   2.085   9.406 -0.4199 -0.6753  0.1686
  342MOL0     C45041  -2.211   2.003   9.455 -0.0365 -0.5167 -0.9611
  342MOL0     O45042  -2.340   2.044   9.424 -0.2667  1.0193 -0.1312
  342MOL0     C45043  -2.436   2.066   9.515  0.3531 -0.2790  0.3057
  342MOL0     C45044  -2.547   2.136   9.472 -0.0109  0.4516 -0.4784
  342MOL0     C45045  -2.652   2.159   9.565 -0.7822 -0.2556 -0.5537
  342MOL0     C45046  -2.640   2.116   9.698  0.2922  0.4594  0.6944
  342MOL0     O45047  -2.735   2.120   9.798 -0.1973  0.2278 -0.0091
  342MOL0     C45048  -2.781   1.986   9.834 -1.6542  0.8409 -0.7905
  342MOL0     C45049  -2.928   1.993   9.856  0.7002  0.2998 -0.6334
  342MOL0     C45050  -2.953   2.082   9.983  0.0064 -0.1685  0.4150
  342MOL0     C45051  -3.090   2.151   9.984 -0.4887  0.3303 -0.3303
  342MOL0     C45052  -3.101   2.258  10.100 -0.3358 -0.0404  0.0306
  342MOL0     C45053  -3.176   2.389  10.072 -0.1069 -1.0520 -0.0209
  342MOL0     C45054  -3.109   2.459   9.955 -0.5561  0.2919 -0.0655
  342MOL0     C45055  -3.127   2.620   9.948  0.5716  0.5256  0.0661
  342MOL0    Cl45056  -3.129   2.701  10.101  0.2632  0.3307 -0.3134
  342MOL0     C45057  -2.519   2.061   9.741  0.5381 -0.6390 -0.3112
  342MOL0     C45058  -2.421   2.035   9.654 -0.2201 -0.3245  0.4871
  342MOL0     O45059  -2.183   1.903   9.524  0.4462  0.5947  0.1596
  342MOL0     C45060  -1.971   2.032   9.393  0.7354  0.1525  0.4835
  342MOL0     C45061  -1.866   2.117   9.348  0.4295  0.2178 -0.3031
  342MOL0     N45062  -1.148   2.333   9.514 -0.2803 -0.5485  0.0067
  342MOL0     N45063  -1.025   2.313   9.487 -0.4934 -0.5462 -0.4160
  342MOL0     C45064   0.075   2.423   9.808  0.7865  0.0667 -0.1593
  342MOL0     C45065   0.211   2.405   9.833 -0.2146  0.0372  0.1892
  342MOL0     C45066   0.620   2.297   9.970 -0.7103  0.1984 -0.0074
  342MOL0     C45067   0.687   2.212   9.876  1.0577  0.1559 -0.3735
  342MOL0     C45068   0.827   2.189   9.883  0.6417  0.2075  0.0553
  342MOL0     C45069   0.908   2.256   9.973 -0.8642 -0.1391 -0.1909
  342MOL0     O45070   1.042   2.232   9.960 -0.1332 -0.3776  0.0902
  342MOL0     C45071   1.134   2.306  10.052  0.1280  0.3120  0.0329
  342MOL0     C45072   1.277   2.256  10.032 -0.0649 -0.0359 -0.5734
  342MOL0     C45073   1.379   2.347  10.110  0.6770 -0.2784  0.4492
  342MOL0     C45074   1.519   2.297  10.095 -0.0497 -0.4035 -0.2526
  342MOL0     C45075   1.583   2.344   9.968 -0.2589  0.2308  0.1200
  342MOL0     C45076   1.642   2.375   9.863  0.8084  0.3970 -0.2605
  342MOL0     C45077   0.848   2.346  10.064 -0.5072 -0.2245 -0.1669
  342MOL0     C45078   0.705   2.363  10.062  0.0272 -0.0841 -0.4287
  342MOL0     H45079   0.210   2.078   9.903  0.7390 -0.2397 -0.2440
  342MOL0     H45080  -0.025   2.097   9.855 -2.8899  1.4869  0.2674
  342MOL0     H45081  -0.142   2.412   9.600 -1.6711  1.8737 -1.1290
  342MOL0     H45082  -0.190   2.521   9.737 -1.1748  1.0917 -0.9392
  342MOL0     H45083  -0.411   2.411   9.763  0.4467 -0.5712 -0.2902
  342MOL0     H45084  -0.354   2.274   9.663  1.1939 -0.5019 -0.2133
  342MOL0     H45085  -0.340   2.463   9.473  0.0167 -3.3960 -0.5921
  342MOL0     H45086  -0.419   2.571   9.589 -0.8522 -0.2784  0.5134
  342MOL0     H45087  -0.537   2.290   9.501 -2.2239 -0.2936 -0.2852
  342MOL0     H45088  -0.617   2.405   9.600 -1.0367 -0.5424 -0.7959
  342MOL0     H45089  -0.540   2.434   9.310  0.8783 -3.0047  1.1839
  342MOL0     H45090  -0.600   2.571   9.400  0.5960 -0.0286  2.2852
  342MOL0     H45091  -0.765   2.447   9.258 -2.8047 -0.2570  0.9287
  342MOL0     H45092  -0.813   2.473   9.427  0.5222  0.8353  0.7971
  342MOL0     H45093  -0.673   2.212   9.348  2.5388  1.6454  3.4631
  342MOL0     H45094  -0.754   2.239   9.492  0.6980  0.4974 -0.8460
  342MOL0     H45095  -0.899   2.099   9.309 -1.7193 -0.7462  1.0321
  342MOL0     H45096  -0.878   2.230   9.190  0.1838  1.1630  0.2128
  342MOL0     H45097  -1.160   2.218   9.205 -1.7718  1.5574 -0.6521
  342MOL0     H45098  -1.379   2.383   9.476 -0.9388 -0.8351  0.9259
  342MOL0     H45099  -1.397   2.222   9.382  1.8584 -0.4127 -0.2526
  342MOL0     H45100  -1.369   2.331   9.171  0.7010 -0.9466 -0.4932
  342MOL0     H45101  -1.361   2.493   9.244 -0.2836  1.0745  3.6977
  342MOL0     H45102  -1.597   2.498   9.280 -0.1100 -0.6624 -1.2121
  342MOL0     H45103  -1.566   2.423   9.126 -2.7438 -1.7445 -0.3464
  342MOL0     H45104  -1.617   2.251   9.364 -2.7711  0.7427  0.9346
  342MOL0     H45105  -1.633   2.216   9.185  1.8144  0.6967 -1.0764
  342MOL0     H45106  -2.041   2.399   9.297 -1.1786 -0.0043  0.7153
  342MOL0     H45107  -2.225   2.257   9.368 -0.9419 -2.3082  1.1017
  342MOL0     H45108  -2.555   2.135   9.364 -0.9614 -0.0823 -0.4134
  342MOL0     H45109  -2.750   2.190   9.531 -1.6834 -3.6163 -1.3940
  342MOL0     H45110  -2.723   1.947   9.919 -0.4263 -1.4172 -2.5614
  342MOL0     H45111  -2.762   1.914   9.754  2.4984  1.3569 -0.4934
  342MOL0     H45112  -2.957   1.889   9.878  0.3932  0.8688  1.9547
  342MOL0     H45113  -2.974   2.034   9.766  0.4866  3.3209  0.7411
  342MOL0     H45114  -2.882   2.166   9.981  1.7450 -1.5922 -0.5843
  342MOL0     H45115  -2.945   2.029  10.078 -3.5055 -0.8741  0.4263
  342MOL0     H45116  -3.120   2.184   9.885 -1.6610  1.6473  0.4305
  342MOL0     H45117  -3.168   2.076  10.000 -0.0080 -0.5021 -1.7656
  342MOL0     H45118  -3.004   2.281  10.145 -0.6903  0.1068  0.7384
  342MOL0     H45119  -3.144   2.205  10.186  0.1947  1.6909  1.4236
  342MOL0     H45120  -3.175   2.458  10.156 -2.7857  0.7734 -1.3391
  342MOL0     H45121  -3.281   2.363  10.054 -0.1486  0.6928 -2.9366
  342MOL0     H45122  -3.003   2.442   9.973 -0.8851 -1.2406  0.5239
  342MOL0     H45123  -3.132   2.419   9.856  2.8213  1.1981 -1.3539
  342MOL0     H45124  -3.217   2.640   9.890 -0.8920  0.5994  2.2324
  342MOL0     H45125  -3.049   2.672   9.892  1.3207 -0.2864  0.3356
  342MOL0     H45126  -2.504   2.030   9.844 -1.1966 -0.6361 -0.0219
  342MOL0     H45127  -2.329   1.993   9.694  0.4638  0.8224  0.1873
  342MOL0     H45128  -1.954   1.926   9.409  0.6432 -0.2809 -1.9201
  342MOL0     H45129  -1.766   2.084   9.372 -0.6715 -3.3416 -0.0782
  342MOL0     H45130   0.056   2.528   9.789 -0.3655 -0.3090 -1.1950
  342MOL0     H45131   0.266   2.499   9.826  1.2081 -0.7844 -0.1992
  342MOL0     H45132   0.624   2.167   9.799 -0.2776  4.2872 -1.9623
  342MOL0     H45133   0.863   2.106   9.823 -0.3741 -2.2850  2.6610
  342MOL0     H45134   1.096   2.283  10.151 -2.0944  0.9812 -0.5909
  342MOL0     H45135   1.122   2.415  10.041 -1.7642  0.3545  1.9113
  342MOL0     H45136   1.271   2.154  10.071  1.5889  0.2507  0.5584
  342MOL0     H45137   1.312   2.255   9.929  1.9914 -3.9226 -0.0435
  342MOL0     H45138   1.354   2.345  10.217  2.3334 -0.8178  0.8636
  342MOL0     H45139   1.366   2.452  10.083 -0.7061 -1.0177 -2.0491
  342MOL0     H45140   1.586   2.344  10.167  0.3971 -1.3855 -0.0167
  342MOL0     H45141   1.524   2.189  10.105  0.6093 -0.3738 -0.2653
  342MOL0     H45142   1.679   2.407   9.768 -2.9068  1.8244 -1.4001
  342MOL0     H45143   0.903   2.390  10.146  2.2883 -4.5010  0.5791
  342MOL0     H45144   0.656   2.426  10.136 -0.1550 -1.5013  0.7102
  343MOL0     O45145   7.036   4.705  10.028  0.1945 -0.3511  0.5293
  343MOL0     C45146   7.076   4.820  10.015 -0.2624 -0.1539  0.0215
  343MOL0     O45147   6.998   4.922   9.970  0.3048  0.3018  0.2601
  343MOL0     C45148   6.864   4.911   9.960  0.7295  0.5306  1.1489
  343MOL0     C45149   6.774   4.842  10.038  0.2195 -0.6016 -0.1507
  343MOL0     C45150   6.636   4.855  10.016 -0.1696 -0.3458 -1.2754
  343MOL0     C45151   6.575   4.936   9.917 -0.4018 -0.3684  0.4216
  343MOL0     O45152   6.439   4.933   9.897 -0.1878 -0.1883  0.5594
  343MOL0     C45153   6.384   4.982   9.774  0.0304 -0.0061 -0.0217
  343MOL0     C45154   6.233   4.969   9.777  0.0789  0.7145  0.1067
  343MOL0     C45155   6.165   5.079   9.850 -0.4404 -0.1334  0.0856
  343MOL0     C45156   6.038   5.039   9.912 -0.1525 -0.8272 -1.2114
  343MOL0     C45157   5.979   5.167   9.980 -0.1759 -0.0810 -1.2640
  343MOL0     C45158   5.870   5.118  10.088  0.6603 -0.6306  0.2295
  343MOL0     C45159   5.787   5.239  10.131 -0.0736  0.4427  0.0996
  343MOL0     C45160   5.849   5.351  10.212  0.0885  0.1205  0.8693
  343MOL0     N45161   5.761   5.472  10.219 -0.0084  0.4434 -0.2936
  343MOL0     C45162   5.684   5.519  10.115 -0.4902  0.7284 -0.9127
  343MOL0     C45163   5.623   5.621  10.162  0.4155 -0.1132  0.0053
  343MOL0     C45164   5.543   5.714  10.065  0.2767  0.7082 -0.9904
  343MOL0     C45165   5.453   5.814  10.141 -0.2474  0.0356  0.5842
  343MOL0     C45166   5.427   5.944  10.067  0.0180  0.4700  0.3642
  343MOL0     C45167   5.292   5.942  10.000 -0.7412  0.6700  0.8463
  343MOL0     O45168   5.308   5.861   9.885  0.5779  0.4081 -0.2705
  343MOL0     C45169   5.190   5.804   9.837 -0.2035  0.2509 -0.2851
  343MOL0     C45170   5.077   5.881   9.814 -0.9959 -1.1668  0.0113
  343MOL0     C45171   4.955   5.827   9.773  0.5583  0.8200  0.6758
  343MOL0     C45172   4.949   5.689   9.724  0.3282 -0.6642  0.0906
  343MOL0     C45173   4.830   5.646   9.638  0.2816  0.7878  0.1996
  343MOL0     O45174   4.732   5.741   9.622 -0.4006  0.0030 -0.0257
  343MOL0     C45175   4.614   5.719   9.550  0.5189 -0.3880  0.2061
  343MOL0     C45176   4.615   5.745   9.418 -0.3661  0.3627  0.5040
  343MOL0     C45177   4.496   5.716   9.348  0.3351 -0.2816  0.8615
  343MOL0     C45178   4.379   5.683   9.410  0.5354 -0.3847  0.5139
  343MOL0     O45179   4.266   5.680   9.330  0.3009 -0.2094  0.2181
  343MOL0     C45180   4.134   5.704   9.373  0.4688  0.0143 -0.3212
  343MOL0     C45181   4.037   5.665   9.264 -0.9138 -0.3595 -0.2335
  343MOL0     C45182   3.890   5.660   9.300 -0.8907 -0.6681 -0.4490
  343MOL0     C45183   3.811   5.621   9.170 -0.1974  0.2496  0.2708
  343MOL0     C45184   3.668   5.584   9.194 -0.4636 -0.4029 -0.1119
  343MOL0     C45185   3.591   5.534   9.075  1.1094  0.2452  0.1069
  343MOL0     C45186   3.450   5.496   9.127 -0.3382 -0.8982 -0.9514
  343MOL0     C45187   3.375   5.626   9.161 -0.1317 -0.3766 -0.4003
  343MOL0    Cl45188   3.199   5.589   9.213 -0.0433 -0.2788 -0.0452
  343MOL0     C45189   4.377   5.692   9.550 -0.2028  0.2861  0.3156
  343MOL0     C45190   4.498   5.702   9.624  0.6041  0.7414  0.4144
  343MOL0     O45191   4.820   5.523   9.607 -0.1020 -0.1060  0.5134
  343MOL0     C45192   5.059   5.608   9.740 -0.6504 -0.0958  0.1413
  343MOL0     C45193   5.179   5.666   9.797  0.3799 -0.2069  0.1710
  343MOL0     N45194   5.660   5.638  10.288 -0.1384 -0.5419 -0.0290
  343MOL0     N45195   5.741   5.554  10.327 -0.6732 -0.7209 -0.1529
  343MOL0     C45196   6.667   5.010   9.837 -0.2872 -0.2992  0.8365
  343MOL0     C45197   6.805   4.996   9.862 -0.2674  0.2262 -1.1471
  343MOL0     C45198   7.223   4.846  10.041 -0.4062 -0.4618 -0.1667
  343MOL0     C45199   7.278   4.983  10.048 -0.3418  0.4856  0.3782
  343MOL0     C45200   7.419   4.988  10.076 -0.6808  0.3366  0.5405
  343MOL0     C45201   7.505   4.885  10.119  0.3119  0.1452 -0.2952
  343MOL0     O45202   7.636   4.931  10.132 -0.2003  0.3276 -0.2024
  343MOL0     C45203   7.720   4.819  10.137 -0.1001 -0.3547  1.1345
  343MOL0     C45204   7.864   4.877  10.146  0.3828 -1.0478  0.1418
  343MOL0     C45205   7.948   4.782  10.226 -0.6250 -0.7405 -0.3259
  343MOL0     C45206   8.095   4.820  10.238  0.9012 -0.5106 -0.7338
  343MOL0     C45207   8.167   4.761  10.344  0.2079 -0.3546 -0.2213
  343MOL0     C45208   8.247   4.729  10.430 -0.7778  0.0179 -0.2874
  343MOL0     C45209   7.442   4.763  10.123  0.5925 -0.0108  0.0801
  343MOL0     C45210   7.312   4.740  10.077  0.1535 -1.1953 -0.4264
  343MOL0     H45211   6.816   4.769  10.107  1.1892 -0.5057 -0.6176
  343MOL0     H45212   6.558   4.804  10.072  1.3510  0.5218  1.8409
  343MOL0     H45213   6.422   4.918   9.693  0.1455 -1.4074  1.0969
  343MOL0     H45214   6.413   5.085   9.752 -0.7350 -0.1648 -2.0276
  343MOL0     H45215   6.212   4.868   9.813 -1.0979  0.6970 -0.5756
  343MOL0     H45216   6.189   4.965   9.677 -0.7112  1.7200  0.3940
  343MOL0     H45217   6.156   5.159   9.776  1.8893  0.7564  0.6630
  343MOL0     H45218   6.226   5.111   9.935 -2.4128  0.8687  1.2122
  343MOL0     H45219   5.967   4.990   9.845 -0.8450  0.0930 -1.1733
  343MOL0     H45220   6.058   4.974   9.998 -3.0199 -0.5196 -0.2092
  343MOL0     H45221   5.927   5.210   9.894 -2.1825 -3.4716 -1.9038
  343MOL0     H45222   6.061   5.230  10.016  0.4741  0.1795 -3.0731
  343MOL0     H45223   5.911   5.062  10.172 -1.6259 -0.6233  1.4267
  343MOL0     H45224   5.795   5.048  10.049  1.5947 -0.3450 -2.3193
  343MOL0     H45225   5.753   5.278  10.034  1.0833  2.6852  0.5573
  343MOL0     H45226   5.704   5.189  10.182  1.9338 -2.5476  0.6900
  343MOL0     H45227   5.944   5.370  10.162  0.2293 -1.1435  0.6275
  343MOL0     H45228   5.862   5.315  10.314  0.1747 -1.0603  0.4603
  343MOL0     H45229   5.681   5.474  10.016  2.4383 -0.8211 -0.4184
  343MOL0     H45230   5.476   5.647  10.011 -0.4161  1.2924 -0.8647
  343MOL0     H45231   5.609   5.767   9.996  0.2888  1.4854 -0.3944
  343MOL0     H45232   5.499   5.841  10.237  1.6556  2.4918 -0.8725
  343MOL0     H45233   5.354   5.772  10.157 -1.3809  1.3808 -2.2690
  343MOL0     H45234   5.430   6.025  10.141  0.5520  1.1244 -0.3623
  343MOL0     H45235   5.496   5.959   9.984  0.4526 -0.9703  0.4432
  343MOL0     H45236   5.262   6.044   9.975 -0.3696  0.3507 -1.0280
  343MOL0     H45237   5.213   5.909  10.068 -0.6324  0.3329  0.8102
  343MOL0     H45238   5.086   5.986   9.840  2.8440 -1.1614 -0.7491
  343MOL0     H45239   4.866   5.889   9.777 -0.7243 -1.0214  3.2153
  343MOL0     H45240   4.705   5.783   9.371 -1.4245  2.0863 -0.2286
  343MOL0     H45241   4.487   5.742   9.243  2.8823  0.4817  0.7640
  343MOL0     H45242   4.123   5.811   9.395  1.9387  0.0573  0.3617
  343MOL0     H45243   4.117   5.652   9.467  0.8002  1.5528  0.6347
  343MOL0     H45244   4.071   5.578   9.207  0.5636  0.1905 -0.2397
  343MOL0     H45245   4.044   5.745   9.189 -1.2947  0.5823  0.7199
  343MOL0     H45246   3.866   5.759   9.339  1.9481 -0.0890  0.0411
  343MOL0     H45247   3.879   5.581   9.374  2.2074  0.1210  1.0272
  343MOL0     H45248   3.832   5.686   9.085  0.5695 -0.3052  0.0249
  343MOL0     H45249   3.860   5.527   9.144 -1.7394 -0.4347 -0.2425
  343MOL0     H45250   3.620   5.678   9.224  0.8319  0.8321 -1.7011
  343MOL0     H45251   3.671   5.511   9.275  3.4710 -1.1619 -0.7556
  343MOL0     H45252   3.632   5.438   9.043 -1.0371 -0.2407 -1.4194
  343MOL0     H45253   3.587   5.599   8.987 -1.2122  1.1348  0.8045
  343MOL0     H45254   3.396   5.446   9.046  0.7549  0.2568 -2.4464
  343MOL0     H45255   3.454   5.429   9.213  0.5312  0.3633  0.0294
  343MOL0     H45256   3.380   5.687   9.071 -1.2989 -0.0494 -0.2573
  343MOL0     H45257   3.421   5.687   9.239  0.0344 -0.6306 -0.2947
  343MOL0     H45258   4.283   5.681   9.604 -2.6905  1.3981 -3.3956
  343MOL0     H45259   4.516   5.719   9.730  1.7375 -2.5864  0.8700
  343MOL0     H45260   5.054   5.508   9.698  2.1435  0.1587 -1.0463
  343MOL0     H45261   5.255   5.592   9.817 -0.5853 -1.1927  0.3374
  343MOL0     H45262   6.628   5.064   9.752 -0.1063  0.0951  1.0018
  343MOL0     H45263   6.870   5.054   9.798  1.2386 -0.0534  0.0864
  343MOL0     H45264   7.222   5.070  10.016  2.2608  2.4615  0.8932
  343MOL0     H45265   7.473   5.082  10.072  2.3276 -1.2493  1.0026
  343MOL0     H45266   7.708   4.767  10.042 -1.2914  1.5172  0.2220
  343MOL0     H45267   7.705   4.751  10.222  3.0221 -1.8655  0.6273
  343MOL0     H45268   7.898   4.885  10.042  0.7585  0.6899  0.3822
  343MOL0     H45269   7.858   4.980  10.181  0.5521 -0.4170 -1.5730
  343MOL0     H45270   7.953   4.677  10.194 -1.1283 -1.9670  3.1642
  343MOL0     H45271   7.907   4.777  10.327 -0.4425 -0.5766 -0.2452
  343MOL0     H45272   8.137   4.816  10.138 -2.1475  0.4221 -2.1713
  343MOL0     H45273   8.098   4.924  10.270  1.3687 -0.2809 -1.5127
  343MOL0     H45274   8.321   4.689  10.496 -3.1033 -3.8773  0.3234
  343MOL0     H45275   7.502   4.678  10.153  0.6401  0.8404  2.6714
  343MOL0     H45276   7.270   4.639  10.081 -2.0812 -0.3063  0.5388
  344MOL0     O45277   7.888   0.060   6.806 -0.2305 -0.8178 -0.3818
  344MOL0     C45278   7.936   0.159   6.865  0.3433 -0.3142  0.2614
  344MOL0     O45279   7.880   0.286   6.857  0.5138  0.3497 -0.2376
  344MOL0     C45280   7.761   0.311   6.795 -0.7063  0.3316  1.2528
  344MOL0     C45281   7.643   0.246   6.819  0.6268 -0.6532  0.3535
  344MOL0     C45282   7.530   0.259   6.736  0.2160  0.3577 -0.1968
  344MOL0     C45283   7.537   0.343   6.627 -0.0062 -0.2930 -0.9046
  344MOL0     O45284   7.441   0.375   6.531  0.1024  0.4807  0.0651
  344MOL0     C45285   7.324   0.427   6.586  0.2573 -0.6860  0.4869
  344MOL0     C45286   7.353   0.577   6.598  1.0171  0.9241  0.0126
  344MOL0     C45287   7.229   0.666   6.640  0.3277  0.6268  0.7853
  344MOL0     C45288   7.095   0.654   6.560 -0.1817 -0.2876  0.6726
  344MOL0     C45289   6.987   0.705   6.657 -0.4478 -0.0349 -0.5063
  344MOL0     C45290   6.846   0.689   6.611 -0.0927  0.0912 -0.4144
  344MOL0     C45291   6.736   0.708   6.718  0.3293  0.3418 -0.1836
  344MOL0     C45292   6.759   0.621   6.843  0.6931  0.3431  0.6191
  344MOL0     N45293   6.629   0.558   6.889  0.3436 -0.2846 -0.2314
  344MOL0     C45294   6.553   0.581   6.999 -0.3157  0.0592 -0.4769
  344MOL0     C45295   6.434   0.517   6.986  0.0608  0.8650 -0.2919
  344MOL0     C45296   6.326   0.502   7.077 -0.6763  0.2832  0.2836
  344MOL0     C45297   6.305   0.634   7.160 -0.1532  0.3174  0.1665
  344MOL0     C45298   6.193   0.629   7.257  0.8047 -0.6849 -1.0644
  344MOL0     C45299   6.052   0.597   7.203  0.4018  0.2993  0.2575
  344MOL0     O45300   5.970   0.639   7.315  0.2476 -0.4560  0.1581
  344MOL0     C45301   5.842   0.583   7.346 -0.4479 -0.6001  0.4637
  344MOL0     C45302   5.765   0.625   7.453 -0.1392 -0.1903 -1.1957
  344MOL0     C45303   5.636   0.584   7.484 -0.1569 -0.7217 -0.7851
  344MOL0     C45304   5.570   0.502   7.391  0.1346 -0.1742 -0.3274
  344MOL0     C45305   5.428   0.448   7.410 -0.5335  0.8295  0.0424
  344MOL0     O45306   5.377   0.359   7.321 -0.3976 -0.5080  0.1240
  344MOL0     C45307   5.249   0.316   7.329 -0.5172 -0.2662  1.0808
  344MOL0     C45308   5.158   0.312   7.439  0.2890  0.5105 -0.1452
  344MOL0     C45309   5.022   0.272   7.423 -0.1307 -0.3630 -0.7950
  344MOL0     C45310   4.972   0.234   7.301  0.4042 -0.5244 -0.1718
  344MOL0     O45311   4.840   0.185   7.296 -0.3774 -1.0653 -0.1619
  344MOL0     C45312   4.746   0.292   7.302 -0.5414  0.8681 -0.0233
  344MOL0     C45313   4.621   0.217   7.250  0.0963  0.4345  0.0129
  344MOL0     C45314   4.630   0.180   7.100  0.4962 -0.4990  0.6251
  344MOL0     C45315   4.500   0.137   7.049 -0.2783 -0.2991  0.5650
  344MOL0     C45316   4.510   0.115   6.897 -0.1128 -0.4145 -0.8322
  344MOL0     C45317   4.383   0.085   6.820 -0.0203 -0.3112 -0.2134
  344MOL0     C45318   4.400   0.065   6.678  0.2500  0.0016 -0.1959
  344MOL0     C45319   4.276  -0.007   6.614 -0.1149 -0.7455  0.5590
  344MOL0    Cl45320   4.303  -0.023   6.439 -0.0208  0.2502 -0.0477
  344MOL0     C45321   5.062   0.231   7.189  0.1083 -0.2822  0.3601
  344MOL0     C45322   5.199   0.276   7.200 -0.4812 -0.3955  0.0329
  344MOL0     O45323   5.367   0.492   7.501  0.0875 -0.2547 -0.0518
  344MOL0     C45324   5.649   0.445   7.292  0.0459  0.3032  0.3118
  344MOL0     C45325   5.781   0.482   7.260  0.1237 -0.4823  0.3090
  344MOL0     N45326   6.442   0.444   6.867  0.5139 -0.8806 -0.5818
  344MOL0     N45327   6.558   0.468   6.811 -0.1064  0.1115 -0.1821
  344MOL0     C45328   7.660   0.401   6.598  0.0049  0.0815 -0.6863
  344MOL0     C45329   7.766   0.391   6.685  0.4101 -0.0898  0.4891
  344MOL0     C45330   8.065   0.136   6.921 -1.0842  0.3932 -0.1967
  344MOL0     C45331   8.095   0.177   7.057 -0.1278 -1.0043  1.3100
  344MOL0     C45332   8.217   0.148   7.110 -0.0365 -0.7835 -0.3768
  344MOL0     C45333   8.320   0.086   7.030  0.1848  0.9481  0.4781
  344MOL0     O45334   8.451   0.059   7.069  0.7150  0.0377 -0.3565
  344MOL0     C45335   8.498   0.104   7.202  0.4316  0.0537  0.6011
  344MOL0     C45336   8.477   0.014   7.310 -0.9106  1.0426 -0.0579
  344MOL0     C45337   8.563   0.044   7.429  0.4691  0.1405 -0.4369
  344MOL0     C45338   8.474   0.096   7.543  0.0834 -0.0282 -0.7201
  344MOL0     C45339   8.559   0.164   7.639 -0.3521 -0.3116 -1.1408
  344MOL0     C45340   8.644   0.210   7.718 -0.4401 -0.2373  1.2412
  344MOL0     C45341   8.295   0.050   6.903  0.4778 -0.3875 -0.2689
  344MOL0     C45342   8.169   0.075   6.844 -0.1959  0.0999  0.1879
  344MOL0     H45343   7.630   0.187   6.909  0.3255  0.0832  0.8037
  344MOL0     H45344   7.434   0.208   6.742 -1.2355  2.6100 -2.4268
  344MOL0     H45345   7.290   0.386   6.682  0.1203  0.7235  1.0805
  344MOL0     H45346   7.240   0.417   6.516  2.9466  3.0947 -3.8224
  344MOL0     H45347   7.396   0.619   6.507 -0.5878 -0.8811 -1.6789
  344MOL0     H45348   7.429   0.585   6.676  0.2505  1.8756  0.6796
  344MOL0     H45349   7.266   0.769   6.650  2.2655  0.2283 -1.3853
  344MOL0     H45350   7.212   0.632   6.743 -0.9831  1.2230  0.7829
  344MOL0     H45351   7.093   0.702   6.462 -0.8049  0.5383  1.0764
  344MOL0     H45352   7.073   0.550   6.532  0.4163 -1.1995  3.2801
  344MOL0     H45353   7.003   0.812   6.673 -2.1925  0.3108 -0.8306
  344MOL0     H45354   7.005   0.656   6.753  0.2756 -1.2564 -1.2440
  344MOL0     H45355   6.827   0.584   6.588 -2.0794  0.3899 -0.3047
  344MOL0     H45356   6.820   0.748   6.523 -3.5310  1.2471  1.1714
  344MOL0     H45357   6.721   0.811   6.751 -0.5234 -0.6919  2.9155
  344MOL0     H45358   6.640   0.692   6.668 -0.1553  2.6225 -0.1100
  344MOL0     H45359   6.812   0.673   6.924  0.5298 -1.4589  1.9610
  344MOL0     H45360   6.816   0.535   6.808  0.1246 -0.6600  2.0503
  344MOL0     H45361   6.580   0.652   7.076 -1.8152 -0.9979  1.0901
  344MOL0     H45362   6.345   0.428   7.154 -0.4341 -0.5834 -0.5901
  344MOL0     H45363   6.240   0.480   7.013 -0.6755 -2.7886  1.2029
  344MOL0     H45364   6.297   0.722   7.095  1.3586 -0.1165 -0.6532
  344MOL0     H45365   6.395   0.648   7.220  0.6676 -3.2503  0.0212
  344MOL0     H45366   6.217   0.575   7.349 -0.7692  1.9625  1.0397
  344MOL0     H45367   6.187   0.732   7.294  0.4234 -0.1422 -2.5603
  344MOL0     H45368   6.036   0.493   7.172  0.6461  0.4787 -0.4860
  344MOL0     H45369   6.024   0.658   7.117  3.2127  1.2088 -0.1013
  344MOL0     H45370   5.812   0.698   7.519 -0.2122 -1.2678  0.0848
  344MOL0     H45371   5.585   0.631   7.568  3.4042  0.5893  0.8291
  344MOL0     H45372   5.205   0.310   7.537  3.1886 -3.6792 -1.3273
  344MOL0     H45373   4.959   0.289   7.510  1.2526  0.6685  0.0450
  344MOL0     H45374   4.768   0.378   7.237 -0.4702  1.6293  0.9775
  344MOL0     H45375   4.737   0.329   7.405  0.3745  1.2246 -0.0642
  344MOL0     H45376   4.539   0.288   7.265 -0.1579 -0.2443  2.1551
  344MOL0     H45377   4.597   0.129   7.310  1.0444 -0.7641 -1.3070
  344MOL0     H45378   4.708   0.105   7.084 -0.1034 -0.8890 -0.5916
  344MOL0     H45379   4.651   0.266   7.036  1.9948 -0.8577  0.6007
  344MOL0     H45380   4.469   0.041   7.092 -3.5395  0.1421 -0.5180
  344MOL0     H45381   4.415   0.204   7.064 -0.1252  0.4091 -1.4543
  344MOL0     H45382   4.579   0.031   6.896 -0.2266 -0.5038 -1.3261
  344MOL0     H45383   4.552   0.209   6.859  0.4361  0.3285  1.4325
  344MOL0     H45384   4.313   0.169   6.832 -1.3804 -1.5549  0.7885
  344MOL0     H45385   4.340  -0.000   6.872  1.2686  0.7754  2.9079
  344MOL0     H45386   4.424   0.155   6.621  2.8103 -1.1518 -1.0940
  344MOL0     H45387   4.492   0.010   6.656  0.1242 -0.5793  0.7081
  344MOL0     H45388   4.191   0.062   6.627  1.1902  1.4349 -1.5582
  344MOL0     H45389   4.270  -0.107   6.656  0.9795 -1.6123 -1.2392
  344MOL0     H45390   5.034   0.205   7.087  0.7236  2.3198 -0.5409
  344MOL0     H45391   5.273   0.287   7.121 -1.3442  0.9982 -0.6203
  344MOL0     H45392   5.597   0.376   7.225 -0.3103  1.8735 -1.0828
  344MOL0     H45393   5.824   0.445   7.168  0.3099 -0.6559  0.4645
  344MOL0     H45394   7.661   0.453   6.503 -1.6572  0.8885 -0.2965
  344MOL0     H45395   7.854   0.449   6.658 -0.4648  0.3581 -1.6482
  344MOL0     H45396   8.025   0.238   7.112  0.6938  2.1427 -0.8466
  344MOL0     H45397   8.236   0.166   7.215  1.6673 -0.4396 -0.7063
  344MOL0     H45398   8.461   0.206   7.219 -1.8960 -0.5751 -0.2116
  344MOL0     H45399   8.605   0.115   7.184  0.7702 -1.1773  1.7243
  344MOL0     H45400   8.370   0.019   7.334 -1.7106 -4.3740 -1.3663
  344MOL0     H45401   8.490  -0.091   7.284 -0.7096  0.7008  1.3360
  344MOL0     H45402   8.639   0.114   7.394  0.5502  1.2300  1.7318
  344MOL0     H45403   8.620  -0.041   7.470 -0.4571  1.0338  3.0181
  344MOL0     H45404   8.394   0.163   7.508 -0.0993 -0.3543 -0.9340
  344MOL0     H45405   8.430   0.010   7.594  1.0328  0.5296  1.1404
  344MOL0     H45406   8.721   0.233   7.789 -0.0336  0.5942  0.5524
  344MOL0     H45407   8.366   0.002   6.836  0.3394  1.2826 -1.6781
  344MOL0     H45408   8.143   0.045   6.743 -2.3758  0.3483  0.6365
  345MOL0     O45409   1.930  10.249   4.958 -0.2136  0.2914  0.1435
  345MOL0     C45410   1.944  10.132   4.915 -0.2524 -0.6975 -0.7103
  345MOL0     O45411   1.886  10.015   4.970 -0.9279 -0.1579  0.4200
  345MOL0     C45412   1.782  10.040   5.056  0.2032  0.1975 -0.2389
  345MOL0     C45413   1.672  10.125   5.026 -0.1738 -0.6127 -0.1279
  345MOL0     C45414   1.559  10.120   5.108  0.7565  1.0897  0.4235
  345MOL0     C45415   1.563  10.052   5.232  0.4918  0.0012 -0.6349
  345MOL0     O45416   1.466  10.078   5.320  0.2935 -0.2731  0.0893
  345MOL0     C45417   1.451  10.008   5.447 -0.5694  1.1973  0.6651
  345MOL0     C45418   1.329  10.049   5.526  0.6453  0.5082 -0.3632
  345MOL0     C45419   1.189  10.030   5.456  0.1321 -0.4296 -0.5867
  345MOL0     C45420   1.080  10.077   5.542  0.1538 -0.2097  0.3465
  345MOL0     C45421   0.938  10.069   5.475 -1.3723 -0.0005  0.3678
  345MOL0     C45422   0.843  10.156   5.548 -0.3724  0.3973 -0.5888
  345MOL0     C45423   0.708  10.167   5.465  0.0105 -0.8752 -0.6962
  345MOL0     C45424   0.709  10.266   5.345  0.4649 -0.2375 -0.1262
  345MOL0     N45425   0.572  10.316   5.316 -0.0954  0.0325 -0.0514
  345MOL0     C45426   0.477  10.233   5.255  0.7113  0.0283 -0.2017
  345MOL0     C45427   0.355  10.294   5.272 -0.4849  0.8141 -0.2636
  345MOL0     C45428   0.230  10.251   5.199 -0.9660 -0.3482  0.0039
  345MOL0     C45429   0.105  10.302   5.265  0.1497 -0.4782 -0.5162
  345MOL0     C45430  -0.018  10.287   5.183  0.2112 -0.1531  0.0978
  345MOL0     C45431  -0.032  10.146   5.134  0.3748 -0.3656 -0.3168
  345MOL0     O45432  -0.146  10.150   5.045 -0.9503  0.0394  0.0708
  345MOL0     C45433  -0.273  10.123   5.091 -0.1834 -0.1104 -0.5424
  345MOL0     C45434  -0.377  10.125   5.004  0.3917  0.5307 -0.1004
  345MOL0     C45435  -0.512  10.096   5.041 -0.5277  0.1732 -0.5649
  345MOL0     C45436  -0.542  10.059   5.175  0.6410  0.3927  0.5126
  345MOL0     C45437  -0.677  10.024   5.225 -0.6901  0.0336  0.1199
  345MOL0     O45438  -0.768  10.000   5.123 -0.3565  0.0915 -0.4686
  345MOL0     C45439  -0.895   9.960   5.139 -0.0113  1.0677 -0.2604
  345MOL0     C45440  -0.991  10.054   5.155  0.8519  0.1262 -0.1777
  345MOL0     C45441  -1.131  10.021   5.171 -0.2087 -0.5956 -0.2981
  345MOL0     C45442  -1.164   9.891   5.181  0.5831 -0.4931  0.5976
  345MOL0     O45443  -1.300   9.858   5.170 -0.2068  0.3818 -0.3135
  345MOL0     C45444  -1.399   9.955   5.128 -0.1843 -0.8328 -0.6131
  345MOL0     C45445  -1.535   9.879   5.115  0.1167 -0.2968  0.2281
  345MOL0     C45446  -1.642   9.971   5.061  0.6087 -0.8589 -0.5084
  345MOL0     C45447  -1.784   9.922   5.060 -0.1138  0.1536 -0.3906
  345MOL0     C45448  -1.881  10.017   4.993 -0.3941  0.7388 -1.0959
  345MOL0     C45449  -2.014   9.952   4.962 -0.2567 -0.2069 -0.3096
  345MOL0     C45450  -2.128  10.054   4.936 -0.1003 -0.1843 -0.3599
  345MOL0     C45451  -2.107  10.180   4.860 -0.2319 -0.1677 -0.8024
  345MOL0    Cl45452  -2.088  10.131   4.692 -0.1799 -0.1364  0.0506
  345MOL0     C45453  -1.065   9.787   5.163 -0.2926  0.1384  0.1818
  345MOL0     C45454  -0.928   9.827   5.136  1.3992  1.3333  0.3513
  345MOL0     O45455  -0.704  10.028   5.344 -0.4791  0.0167 -0.0918
  345MOL0     C45456  -0.435  10.057   5.261  0.7692 -0.4193  0.3850
  345MOL0     C45457  -0.304  10.081   5.217  0.2266 -0.2303 -0.2509
  345MOL0     N45458   0.386  10.404   5.349  0.5531  0.6413 -0.0745
  345MOL0     N45459   0.508  10.412   5.384 -0.1663 -0.3268  0.5216
  345MOL0     C45460   1.680   9.978   5.263  0.3396  0.8141  0.1655
  345MOL0     C45461   1.778   9.952   5.172  0.1622 -0.2681 -0.3556
  345MOL0     C45462   2.047  10.111   4.824 -0.4191 -0.3772 -0.0153
  345MOL0     C45463   2.150  10.212   4.813 -0.1642  0.0904  0.4127
  345MOL0     C45464   2.250  10.187   4.723 -0.3152  0.2023  0.9184
  345MOL0     C45465   2.254  10.059   4.646 -0.0712  1.1334  0.6913
  345MOL0     O45466   2.358  10.026   4.558 -0.0446 -0.3097  0.1097
  345MOL0     C45467   2.465  10.116   4.540 -0.1478 -1.5940 -0.7399
  345MOL0     C45468   2.558  10.062   4.433 -0.3702  0.1787  0.7980
  345MOL0     C45469   2.707  10.111   4.452  0.7770  0.1090  0.3148
  345MOL0     C45470   2.784  10.062   4.580  0.3736 -0.4815  0.5071
  345MOL0     C45471   2.799   9.915   4.584 -1.1021 -0.2082 -0.2823
  345MOL0     C45472   2.792   9.794   4.590 -0.5763 -0.2624  0.2223
  345MOL0     C45473   2.149   9.968   4.660 -0.0429  0.1347 -0.3958
  345MOL0     C45474   2.039  10.001   4.744 -0.3279  0.1663  0.8802
  345MOL0     H45475   1.669  10.173   4.929  2.2073 -2.3019 -1.1302
  345MOL0     H45476   1.475  10.184   5.080  1.4323  1.6921 -0.2677
  345MOL0     H45477   1.544  10.007   5.504 -0.5416 -1.2101  0.6741
  345MOL0     H45478   1.417   9.907   5.419 -0.5211  1.9015 -2.2419
  345MOL0     H45479   1.339  10.153   5.559 -0.0178  0.4557  0.0188
  345MOL0     H45480   1.325   9.996   5.622 -2.4040 -0.0712 -0.7233
  345MOL0     H45481   1.175   9.925   5.431  0.7333 -0.2908 -1.5151
  345MOL0     H45482   1.181  10.084   5.361  0.2044 -2.1219 -1.5821
  345MOL0     H45483   1.070  10.024   5.637 -1.4192 -0.0306  0.3166
  345MOL0     H45484   1.103  10.180   5.572  0.8791 -0.4743  0.7120
  345MOL0     H45485   0.912   9.963   5.466  0.2711 -0.7567  3.3657
  345MOL0     H45486   0.957  10.113   5.376  1.4253 -1.1945  0.2636
  345MOL0     H45487   0.871  10.258   5.575 -2.5716  1.0735 -0.6812
  345MOL0     H45488   0.815  10.099   5.637 -1.8706  0.2516 -1.1291
  345MOL0     H45489   0.687  10.067   5.423  0.3784 -0.9943 -0.5989
  345MOL0     H45490   0.629  10.210   5.526 -0.1279  1.1271 -2.1806
  345MOL0     H45491   0.749  10.218   5.256  3.0352 -0.8881  1.2951
  345MOL0     H45492   0.776  10.350   5.365 -0.6163  0.5669  0.2047
  345MOL0     H45493   0.503  10.150   5.190 -0.5793  1.0619 -2.1495
  345MOL0     H45494   0.239  10.142   5.201 -0.8932 -0.3520 -0.4021
  345MOL0     H45495   0.241  10.289   5.097 -2.1398  0.5417  0.1856
  345MOL0     H45496   0.117  10.409   5.283  0.2603 -0.8867  2.2599
  345MOL0     H45497   0.094  10.260   5.365  1.8759 -2.2425 -0.9879
  345MOL0     H45498  -0.106  10.316   5.240 -0.1448  0.1553 -0.5893
  345MOL0     H45499   0.005  10.362   5.107  2.6638 -1.2105 -0.3051
  345MOL0     H45500  -0.042  10.073   5.215 -0.8820  0.8327  0.6396
  345MOL0     H45501   0.057  10.110   5.081  3.0253  0.1111  3.4135
  345MOL0     H45502  -0.356  10.136   4.898  2.0920 -2.2636 -0.1580
  345MOL0     H45503  -0.588  10.114   4.965 -0.2082  0.2597 -0.8673
  345MOL0     H45504  -0.962  10.158   5.143 -1.0092  1.1715  3.1741
  345MOL0     H45505  -1.198  10.104   5.188  0.4458 -0.3418  1.2424
  345MOL0     H45506  -1.375  10.013   5.039 -4.4674  0.5768 -1.0336
  345MOL0     H45507  -1.405  10.031   5.206 -3.1273 -0.1010 -1.4370
  345MOL0     H45508  -1.565   9.840   5.213 -0.5863 -0.3900 -0.0205
  345MOL0     H45509  -1.523   9.796   5.046 -0.2063 -1.2310  1.2606
  345MOL0     H45510  -1.625   9.979   4.953 -0.7115 -2.7211 -0.9026
  345MOL0     H45511  -1.650  10.074   5.096  0.0747 -0.9327 -0.3978
  345MOL0     H45512  -1.781   9.824   5.012 -2.5145 -0.5867  0.8017
  345MOL0     H45513  -1.817   9.905   5.163  0.8057  0.5243 -0.0219
  345MOL0     H45514  -1.839  10.064   4.904  3.4530 -0.0869  0.1102
  345MOL0     H45515  -1.907  10.094   5.066 -1.3679  0.2628 -0.9121
  345MOL0     H45516  -2.052   9.879   5.034  1.8036 -0.8532  0.1964
  345MOL0     H45517  -2.008   9.895   4.869 -2.4298 -0.4850 -0.3326
  345MOL0     H45518  -2.199   9.993   4.878 -0.3939  0.7321 -0.9861
  345MOL0     H45519  -2.161  10.090   5.034  1.7883 -2.2096  1.1096
  345MOL0     H45520  -2.014  10.231   4.887 -0.2084 -0.7052  0.1501
  345MOL0     H45521  -2.193  10.247   4.865 -0.9733 -1.0876 -0.9032
  345MOL0     H45522  -1.081   9.680   5.152  2.6261 -0.4895  1.0185
  345MOL0     H45523  -0.858   9.751   5.102  2.0066  1.7795  0.5722
  345MOL0     H45524  -0.445  10.020   5.362  1.0836  0.3787  0.7195
  345MOL0     H45525  -0.236  10.085   5.302 -1.7228 -2.8881  1.6033
  345MOL0     H45526   1.685   9.935   5.362 -0.2222 -2.7074 -1.1801
  345MOL0     H45527   1.863   9.887   5.190  2.0399  1.4962 -2.2963
  345MOL0     H45528   2.159  10.299   4.878 -0.2852 -0.6182  1.4075
  345MOL0     H45529   2.332  10.258   4.710 -0.8463  1.2430  2.7642
  345MOL0     H45530   2.522  10.123   4.632 -1.9729 -0.1685  0.3420
  345MOL0     H45531   2.435  10.220   4.524  0.7229 -0.3941  4.0178
  345MOL0     H45532   2.548   9.954   4.443 -1.2820  0.4069  2.6952
  345MOL0     H45533   2.503  10.095   4.344 -1.8971  0.2915  1.7551
  345MOL0     H45534   2.715  10.219   4.470  2.1735  0.1075 -0.1958
  345MOL0     H45535   2.766  10.095   4.361  0.6845 -0.3259  0.3315
  345MOL0     H45536   2.886  10.102   4.590  0.0476  0.4607  0.1962
  345MOL0     H45537   2.723  10.102   4.661 -2.6800 -0.6641 -1.5174
  345MOL0     H45538   2.789   9.689   4.607 -1.6346  0.0926  2.7220
  345MOL0     H45539   2.144   9.873   4.608 -0.2061  0.5645 -1.1818
  345MOL0     H45540   1.953   9.936   4.751 -2.2553  2.3251 -1.1970
  346MOL0     O45541   5.963   7.358   4.314 -0.9990  0.7356 -0.3481
  346MOL0     C45542   5.965   7.243   4.260 -0.4862 -0.0203 -0.6960
  346MOL0     O45543   5.850   7.176   4.211  0.1625  1.1945 -0.0339
  346MOL0     C45544   5.723   7.211   4.243  0.4395 -0.7271  0.0812
  346MOL0     C45545   5.624   7.159   4.160 -0.1516 -0.9067 -0.4403
  346MOL0     C45546   5.493   7.195   4.180 -0.3730  0.5416  0.1330
  346MOL0     C45547   5.448   7.288   4.274 -0.1397 -0.0609  0.2177
  346MOL0     O45548   5.311   7.321   4.271  0.1526 -0.1838 -0.4638
  346MOL0     C45549   5.280   7.429   4.365 -0.2327  0.3371 -0.1363
  346MOL0     C45550   5.129   7.457   4.353  0.1013 -0.5302  0.4235
  346MOL0     C45551   5.038   7.339   4.391 -0.2535 -1.0128 -0.5782
  346MOL0     C45552   4.898   7.348   4.337  0.2799  0.0407  0.7984
  346MOL0     C45553   4.813   7.456   4.406 -0.6625  0.3633  0.4482
  346MOL0     C45554   4.738   7.543   4.305  0.5491  0.0322  0.0350
  346MOL0     C45555   4.667   7.661   4.368  0.6213  0.8689  0.2783
  346MOL0     C45556   4.617   7.753   4.254  0.5983 -0.1729  0.1400
  346MOL0     N45557   4.471   7.761   4.273 -0.3327  0.6414 -0.1937
  346MOL0     C45558   4.382   7.855   4.325 -0.8173  0.1613  0.7153
  346MOL0     C45559   4.263   7.830   4.271  0.0011 -0.3509 -0.5220
  346MOL0     C45560   4.132   7.910   4.275 -0.2864  0.0795  0.4179
  346MOL0     C45561   4.119   8.016   4.170 -0.5394 -0.9440 -0.0866
  346MOL0     C45562   4.053   8.141   4.225 -0.4876  0.1924  0.8383
  346MOL0     C45563   3.914   8.140   4.282  0.2940  0.9526  0.2178
  346MOL0     O45564   3.834   8.062   4.198 -0.2709  0.0408  0.0351
  346MOL0     C45565   3.698   8.077   4.212  0.6409  1.0340  0.5899
  346MOL0     C45566   3.628   8.135   4.323 -0.5282 -0.5788  1.4058
  346MOL0     C45567   3.493   8.140   4.312 -0.7018  0.2216 -0.3130
  346MOL0     C45568   3.416   8.076   4.207 -0.4837  1.1281 -0.9823
  346MOL0     C45569   3.274   8.089   4.207  0.2724  0.4267 -0.6980
  346MOL0     O45570   3.203   8.093   4.091 -0.0477 -1.1630 -0.2778
  346MOL0     C45571   3.065   8.122   4.109 -0.7060  0.5588 -0.1745
  346MOL0     C45572   3.030   8.251   4.139  0.4250 -0.6576 -0.0682
  346MOL0     C45573   2.899   8.287   4.145 -0.0890 -0.1339  0.2199
  346MOL0     C45574   2.791   8.191   4.124  0.7380  0.4080 -0.1647
  346MOL0     O45575   2.654   8.223   4.118 -0.6444 -0.2424 -0.4585
  346MOL0     C45576   2.612   8.361   4.132  0.1222 -0.6492  0.1105
  346MOL0     C45577   2.463   8.356   4.137  1.0416 -0.5805 -0.4957
  346MOL0     C45578   2.407   8.341   4.000  0.0707  0.6902  1.1684
  346MOL0     C45579   2.255   8.353   3.991 -0.1860 -0.4560  0.3423
  346MOL0     C45580   2.173   8.241   4.041 -0.0118 -0.6046  0.1968
  346MOL0     C45581   2.026   8.274   4.004 -0.0581 -0.0158  0.3364
  346MOL0     C45582   1.937   8.169   4.071 -0.3558 -1.0562 -0.7684
  346MOL0     C45583   1.941   8.039   3.999 -0.5795  0.3381 -0.2335
  346MOL0    Cl45584   1.855   8.061   3.848 -0.0811  0.0370  0.1234
  346MOL0     C45585   2.831   8.066   4.060 -0.1947  0.5036 -0.3721
  346MOL0     C45586   2.966   8.028   4.062  0.6404 -0.1586 -0.7213
  346MOL0     O45587   3.225   8.105   4.318 -0.6253 -0.2167  0.0226
  346MOL0     C45588   3.491   8.007   4.104  0.7108 -1.4890  0.4341
  346MOL0     C45589   3.628   8.018   4.100 -0.0813 -0.3612  0.0698
  346MOL0     N45590   4.275   7.705   4.205  0.9122  0.2907  0.1878
  346MOL0     N45591   4.395   7.673   4.206 -0.5910  0.2249  0.1140
  346MOL0     C45592   5.544   7.348   4.354 -0.7218  0.9566  0.0421
  346MOL0     C45593   5.684   7.312   4.341  0.0307 -0.1062 -0.2608
  346MOL0     C45594   6.098   7.175   4.250  0.6193  0.1716 -0.3574
  346MOL0     C45595   6.202   7.206   4.333 -0.0874  0.0196  0.0922
  346MOL0     C45596   6.335   7.149   4.313 -0.1210  0.2479 -0.2788
  346MOL0     C45597   6.358   7.062   4.206  0.1051 -0.9819  0.0051
  346MOL0     O45598   6.481   7.006   4.200 -0.2059 -0.2241  0.2066
  346MOL0     C45599   6.541   7.029   4.068  0.3232  0.6511 -0.1443
  346MOL0     C45600   6.616   7.171   4.042  0.3149 -0.6065 -0.2064
  346MOL0     C45601   6.730   7.165   3.941 -0.0881  0.9842 -0.3883
  346MOL0     C45602   6.764   7.310   3.909  0.9121 -0.1287  0.0497
  346MOL0     C45603   6.875   7.325   3.815 -0.3143 -0.4915  0.9597
  346MOL0     C45604   6.971   7.340   3.748  0.5863  1.4822  0.8247
  346MOL0     C45605   6.245   7.026   4.131  0.9494  0.9436 -0.4397
  346MOL0     C45606   6.117   7.088   4.152  0.2006  0.2014  0.9691
  346MOL0     H45607   5.667   7.086   4.092  4.6266  0.6105  0.5538
  346MOL0     H45608   5.416   7.150   4.118  0.9857  0.3794 -1.5192
  346MOL0     H45609   5.338   7.520   4.343  0.1698 -0.4379 -2.6053
  346MOL0     H45610   5.303   7.391   4.465 -0.5600 -1.1326 -0.5987
  346MOL0     H45611   5.103   7.468   4.247 -0.8339 -0.6327  0.6312
  346MOL0     H45612   5.100   7.548   4.406  0.8498 -0.2906  0.4325
  346MOL0     H45613   5.045   7.328   4.500  0.3496  2.3762 -0.1648
  346MOL0     H45614   5.088   7.254   4.343  2.4047  0.2440 -0.2124
  346MOL0     H45615   4.915   7.365   4.230 -1.0025  0.9097  0.7107
  346MOL0     H45616   4.848   7.252   4.350  0.1919  0.1571  1.3411
  346MOL0     H45617   4.887   7.524   4.448  0.4640  0.6558 -1.8387
  346MOL0     H45618   4.754   7.407   4.484 -0.0567  0.4779  0.9912
  346MOL0     H45619   4.672   7.475   4.250 -1.1216  1.1190  0.6320
  346MOL0     H45620   4.814   7.572   4.232  1.9387 -2.5586  0.3054
  346MOL0     H45621   4.586   7.629   4.434 -0.7764  2.6606 -0.5003
  346MOL0     H45622   4.736   7.724   4.425  0.8345  0.7633  0.1378
  346MOL0     H45623   4.638   7.702   4.159  0.3652 -0.9514  0.5008
  346MOL0     H45624   4.659   7.852   4.274 -1.5524  0.6544  0.8319
  346MOL0     H45625   4.407   7.945   4.379 -1.1640  0.6108  0.1362
  346MOL0     H45626   4.143   7.970   4.365  0.9836  0.0077  0.3195
  346MOL0     H45627   4.042   7.850   4.294 -1.6597  2.2298  1.0152
  346MOL0     H45628   4.058   7.971   4.091 -2.2358 -0.7117  1.0420
  346MOL0     H45629   4.220   8.040   4.137  0.4457 -3.3933  0.8704
  346MOL0     H45630   4.123   8.185   4.296 -2.0078 -0.2426  2.7023
  346MOL0     H45631   4.036   8.214   4.145 -0.7359  0.1794  0.8794
  346MOL0     H45632   3.870   8.237   4.307 -0.0627  0.5342  1.2778
  346MOL0     H45633   3.914   8.083   4.376  0.1740 -1.3542 -1.0991
  346MOL0     H45634   3.682   8.167   4.411  0.9852 -0.0356  0.3273
  346MOL0     H45635   3.449   8.192   4.397  3.4026 -0.7710  2.7445
  346MOL0     H45636   3.104   8.329   4.153  1.1480 -0.7684 -2.7955
  346MOL0     H45637   2.878   8.389   4.175  0.1018  0.4165 -1.4032
  346MOL0     H45638   2.653   8.420   4.049  3.2042 -2.1212  0.4724
  346MOL0     H45639   2.652   8.417   4.217 -3.7568  0.1651  1.6237
  346MOL0     H45640   2.417   8.439   4.193 -0.7364 -2.0867  0.3865
  346MOL0     H45641   2.428   8.272   4.198 -0.9544 -1.1423 -2.3078
  346MOL0     H45642   2.428   8.249   3.944  0.9248  1.2792  0.4880
  346MOL0     H45643   2.446   8.420   3.935  0.9131 -1.2296 -0.8215
  346MOL0     H45644   2.233   8.435   4.059  0.8462 -0.1236  0.3057
  346MOL0     H45645   2.227   8.383   3.889  0.8518  0.1427  0.2070
  346MOL0     H45646   2.196   8.237   4.148 -3.0833  2.9588  1.2095
  346MOL0     H45647   2.213   8.158   3.983  1.9123  0.8956 -0.7690
  346MOL0     H45648   2.023   8.261   3.895 -1.0229  0.1762  0.3298
  346MOL0     H45649   2.006   8.379   4.030 -1.1909 -0.2535  0.4658
  346MOL0     H45650   1.973   8.152   4.173 -2.6140  1.9735  0.7001
  346MOL0     H45651   1.830   8.194   4.070 -0.2062 -0.3188 -0.1473
  346MOL0     H45652   1.890   7.965   4.062  0.4357 -1.1329 -1.0600
  346MOL0     H45653   2.043   8.010   3.975 -0.9999 -1.9530  0.5077
  346MOL0     H45654   2.765   7.991   4.018  0.3581  0.5212 -1.2960
  346MOL0     H45655   2.994   7.927   4.034 -2.2275 -1.0748 -0.6106
  346MOL0     H45656   3.440   7.959   4.022  0.1113  1.2845 -0.9217
  346MOL0     H45657   3.685   7.983   4.015  1.3149  0.0206  0.8132
  346MOL0     H45658   5.510   7.414   4.433  1.3375  0.1853  1.6511
  346MOL0     H45659   5.755   7.350   4.414  1.1105 -0.2259 -1.2031
  346MOL0     H45660   6.194   7.274   4.417  1.3452  0.3043  0.0272
  346MOL0     H45661   6.421   7.156   4.378  0.2141 -4.0005 -0.0195
  346MOL0     H45662   6.469   7.015   3.987  0.1001 -0.1646  0.1874
  346MOL0     H45663   6.603   6.943   4.041  0.6426  1.8440 -3.7827
  346MOL0     H45664   6.538   7.243   4.015 -0.0936 -1.4800 -1.4374
  346MOL0     H45665   6.661   7.204   4.137  0.5731 -0.8325 -0.2479
  346MOL0     H45666   6.692   7.105   3.858  0.7702  1.5213 -1.1936
  346MOL0     H45667   6.810   7.109   3.989 -0.0553  2.8568  1.9217
  346MOL0     H45668   6.675   7.351   3.861 -1.0782 -0.1356  3.3698
  346MOL0     H45669   6.780   7.372   3.998  1.0620  3.1513 -2.1234
  346MOL0     H45670   7.056   7.334   3.683 -0.3777 -0.7453 -0.3297
  346MOL0     H45671   6.250   6.943   4.061 -0.0248  1.1368 -0.7574
  346MOL0     H45672   6.035   7.064   4.084  1.0091 -1.9494  0.6582
  347MOL0     O45673   4.086  11.230  10.341  0.0024 -0.3921 -0.4209
  347MOL0     C45674   4.056  11.263  10.455  0.0689  0.3360 -0.1391
  347MOL0     O45675   4.121  11.347  10.534  0.0810  0.5854 -0.1974
  347MOL0     C45676   4.227  11.405  10.472  0.2859  1.1055 -0.4441
  347MOL0     C45677   4.338  11.333  10.440 -0.3381 -0.4608 -0.0642
  347MOL0     C45678   4.439  11.398  10.369  0.4413 -0.7964  0.2377
  347MOL0     C45679   4.449  11.544  10.354  0.1331  0.6051  0.1940
  347MOL0     O45680   4.537  11.619  10.284  0.2725 -0.7804 -0.2796
  347MOL0     C45681   4.631  11.545  10.214 -0.1808 -0.7139 -0.5214
  347MOL0     C45682   4.550  11.525  10.081  0.4385 -1.1528  0.3577
  347MOL0     C45683   4.639  11.534   9.956 -0.8998 -0.1029 -1.1988
  347MOL0     C45684   4.598  11.444   9.842 -0.3285 -0.2939  0.5216
  347MOL0     C45685   4.464  11.488   9.782 -0.1410 -0.2174  0.6925
  347MOL0     C45686   4.419  11.409   9.664 -0.3092  1.0779  0.3167
  347MOL0     C45687   4.384  11.268   9.703  0.6193 -0.3298 -0.0288
  347MOL0     C45688   4.373  11.186   9.566 -0.3629 -0.1347 -0.1793
  347MOL0     N45689   4.345  11.044   9.597 -0.3769 -0.5998 -1.1149
  347MOL0     C45690   4.227  10.982   9.559 -0.0323 -0.0943 -1.1766
  347MOL0     C45691   4.253  10.856   9.604 -1.0876 -0.5530 -0.0321
  347MOL0     C45692   4.173  10.732   9.610 -0.3118 -0.9228  0.2511
  347MOL0     C45693   4.132  10.701   9.752 -0.5589  0.3328  0.2443
  347MOL0     C45694   4.005  10.776   9.783  0.2578  0.1215 -0.3501
  347MOL0     C45695   3.881  10.697   9.753 -0.7963  0.4022  0.1100
  347MOL0     O45696   3.769  10.766   9.811 -0.3290 -0.4275  0.6038
  347MOL0     C45697   3.643  10.709   9.808 -0.8320  0.3704  0.6035
  347MOL0     C45698   3.606  10.582   9.768  0.7468 -0.5472  0.3681
  347MOL0     C45699   3.477  10.531   9.770  0.0545 -0.0041  0.7198
  347MOL0     C45700   3.372  10.613   9.813  0.5571 -0.5580  0.4798
  347MOL0     C45701   3.233  10.576   9.798 -0.1421 -0.6836 -0.2590
  347MOL0     O45702   3.142  10.679   9.809 -0.9385 -0.2847 -0.1265
  347MOL0     C45703   3.007  10.669   9.794 -0.2296 -0.4049  0.8332
  347MOL0     C45704   2.935  10.580   9.710  0.3651  0.4122 -0.1193
  347MOL0     C45705   2.798  10.586   9.709  0.3833  0.0936  0.8511
  347MOL0     C45706   2.728  10.677   9.786  0.1750 -0.1112  1.2055
  347MOL0     O45707   2.591  10.666   9.783  0.2146  0.3702 -0.5962
  347MOL0     C45708   2.506  10.783   9.792  0.0872  0.4054  0.4437
  347MOL0     C45709   2.391  10.749   9.705  0.5898 -0.1623 -0.1505
  347MOL0     C45710   2.302  10.647   9.766  0.4838 -0.3401 -0.6227
  347MOL0     C45711   2.176  10.624   9.679 -0.1114  0.1070 -0.7319
  347MOL0     C45712   2.083  10.528   9.734  0.8265  1.0783  1.1210
  347MOL0     C45713   1.961  10.537   9.624  0.9534  0.6267 -0.4033
  347MOL0     C45714   1.869  10.414   9.656 -0.5746 -0.3899  0.8157
  347MOL0     C45715   1.768  10.466   9.757 -0.7800  0.4753  0.0374
  347MOL0    Cl45716   1.684  10.317   9.818 -0.2070 -0.1249 -0.0034
  347MOL0     C45717   2.798  10.763   9.877  0.0734  0.3777  0.7306
  347MOL0     C45718   2.936  10.760   9.881 -0.5306  0.8918  1.0283
  347MOL0     O45719   3.199  10.462   9.758 -0.3733  0.2473 -0.5615
  347MOL0     C45720   3.408  10.744   9.859  0.0047 -0.2880 -0.3097
  347MOL0     C45721   3.535  10.791   9.853 -0.1609  0.6600  0.4896
  347MOL0     N45722   4.393  10.846   9.624 -0.2507  0.3954 -0.3158
  347MOL0     N45723   4.440  10.962   9.641 -0.7879  0.4155 -0.2270
  347MOL0     C45724   4.342  11.611  10.403  0.0921 -0.9400  0.5583
  347MOL0     C45725   4.227  11.543  10.455 -0.1741 -0.3958  0.2983
  347MOL0     C45726   3.925  11.224  10.504 -0.9395 -0.1870 -0.1739
  347MOL0     C45727   3.868  11.290  10.613  0.4831 -0.4121  0.6621
  347MOL0     C45728   3.727  11.264  10.636 -0.4760  0.0223 -0.5828
  347MOL0     C45729   3.658  11.164  10.563  0.3250 -0.7815  0.0032
  347MOL0     O45730   3.526  11.148  10.592  0.3636  0.6680 -1.0931
  347MOL0     C45731   3.435  11.081  10.502  0.1102 -0.3573  0.2120
  347MOL0     C45732   3.321  11.058  10.599 -0.1095 -1.1876 -0.3067
  347MOL0     C45733   3.256  11.201  10.631  0.8586  0.2316  0.0517
  347MOL0     C45734   3.121  11.180  10.704 -0.0738 -0.0050 -0.4812
  347MOL0     C45735   3.127  11.134  10.842 -0.1010  0.3206  0.0137
  347MOL0     C45736   3.113  11.077  10.953 -0.5985 -0.8741 -0.1400
  347MOL0     C45737   3.725  11.090  10.467 -0.1871 -0.8123  0.2878
  347MOL0     C45738   3.857  11.124  10.435 -0.1396 -0.0020 -0.1034
  347MOL0     H45739   4.333  11.225  10.449  1.0953 -0.5055  0.3273
  347MOL0     H45740   4.516  11.340  10.321 -0.3185 -1.2040 -0.5276
  347MOL0     H45741   4.668  11.453  10.260  1.0628 -1.7260 -3.3101
  347MOL0     H45742   4.722  11.604  10.202 -0.0363 -0.7713  0.2474
  347MOL0     H45743   4.471  11.599  10.081  2.5230  1.2351  2.0592
  347MOL0     H45744   4.502  11.427  10.082  1.7803 -1.8457  2.1596
  347MOL0     H45745   4.735  11.497   9.993 -1.2266 -0.0705 -0.3208
  347MOL0     H45746   4.642  11.639   9.926 -1.8846 -0.6438 -3.3988
  347MOL0     H45747   4.673  11.438   9.763 -2.5139 -0.6124 -1.6498
  347MOL0     H45748   4.594  11.339   9.871 -1.2695 -0.1949  0.8143
  347MOL0     H45749   4.468  11.593   9.754 -1.3168  0.3628  2.5374
  347MOL0     H45750   4.389  11.486   9.862 -0.8664  0.6523  0.0512
  347MOL0     H45751   4.505  11.401   9.596 -0.1683  0.0655  0.6021
  347MOL0     H45752   4.332  11.458   9.620 -1.7403 -0.8718  0.8494
  347MOL0     H45753   4.472  11.221   9.747  2.4736 -0.1519 -3.2592
  347MOL0     H45754   4.295  11.259   9.767  1.5580  0.3473  1.4124
  347MOL0     H45755   4.467  11.187   9.510 -1.5713 -1.9570 -2.4266
  347MOL0     H45756   4.292  11.223   9.502 -0.7156 -1.7756 -0.7183
  347MOL0     H45757   4.132  11.027   9.532 -0.0093  0.4227 -0.4515
  347MOL0     H45758   4.243  10.656   9.572 -0.7770 -0.8060 -0.8552
  347MOL0     H45759   4.096  10.741   9.533  0.8494 -2.0582 -1.0909
  347MOL0     H45760   4.216  10.733   9.814  2.0418 -0.2903 -2.6678
  347MOL0     H45761   4.125  10.592   9.761 -1.5496  0.2133 -1.4484
  347MOL0     H45762   3.994  10.791   9.891 -1.3021 -0.4997 -0.4028
  347MOL0     H45763   3.995  10.878   9.742  0.0545  0.3016  0.1401
  347MOL0     H45764   3.895  10.599   9.798  0.7774  0.4017 -0.3198
  347MOL0     H45765   3.866  10.693   9.644  1.3828  0.6204 -0.2394
  347MOL0     H45766   3.689  10.520   9.736  2.8765  1.6588  1.2188
  347MOL0     H45767   3.461  10.430   9.733  1.8578 -0.4859  1.1701
  347MOL0     H45768   2.996  10.517   9.645 -0.4445 -1.9012  1.2246
  347MOL0     H45769   2.730  10.546   9.635 -0.6073  1.0919  1.1895
  347MOL0     H45770   2.565  10.859   9.741 -0.6156  3.0118  3.2614
  347MOL0     H45771   2.485  10.820   9.892  1.3391 -1.2277  1.3544
  347MOL0     H45772   2.420  10.730   9.601 -0.5613 -2.7425 -0.0788
  347MOL0     H45773   2.326  10.837   9.694 -1.3362 -1.5528 -0.3687
  347MOL0     H45774   2.273  10.672   9.868 -0.1213 -0.2284 -0.8189
  347MOL0     H45775   2.364  10.557   9.776  2.0175  0.7324 -0.0330
  347MOL0     H45776   2.132  10.724   9.669  1.6925  0.9495 -0.6412
  347MOL0     H45777   2.195  10.595   9.575 -1.6771  2.2378 -1.6742
  347MOL0     H45778   2.043  10.560   9.830  1.6291  1.8672  1.2000
  347MOL0     H45779   2.128  10.428   9.738 -1.1019 -0.0105 -1.1922
  347MOL0     H45780   2.009  10.516   9.528  1.7649 -0.3526  0.2064
  347MOL0     H45781   1.911  10.635   9.621 -1.7359 -0.6850 -2.0014
  347MOL0     H45782   1.832  10.385   9.557  2.3671  1.2095 -0.8689
  347MOL0     H45783   1.919  10.329   9.704 -1.7599 -1.5053  0.1681
  347MOL0     H45784   1.690  10.527   9.710 -0.6131  0.1728 -0.6502
  347MOL0     H45785   1.808  10.524   9.840  1.5050  0.8560 -1.2400
  347MOL0     H45786   2.742  10.824   9.946 -1.4154 -0.3978  0.2365
  347MOL0     H45787   2.982  10.841   9.937 -2.2415  2.1265  0.7290
  347MOL0     H45788   3.331  10.817   9.884  1.9714  2.5682 -2.0185
  347MOL0     H45789   3.549  10.883   9.908 -0.4991  1.4223 -0.6473
  347MOL0     H45790   4.342  11.719  10.395 -1.0580 -0.9625 -0.0348
  347MOL0     H45791   4.144  11.607  10.484  0.0209  1.9908 -3.6626
  347MOL0     H45792   3.927  11.357  10.675  1.9016  1.7032 -2.6703
  347MOL0     H45793   3.670  11.308  10.717 -0.3516  2.6025 -1.7997
  347MOL0     H45794   3.471  10.982  10.472 -1.0218 -1.0414  1.0335
  347MOL0     H45795   3.405  11.142  10.416  2.8367  1.9619  0.7467
  347MOL0     H45796   3.242  11.002  10.547  0.1394 -2.3252  0.5201
  347MOL0     H45797   3.356  11.012  10.691  2.9999 -1.0185 -1.3026
  347MOL0     H45798   3.239  11.249  10.534  3.9737 -2.4095 -2.0170
  347MOL0     H45799   3.325  11.257  10.693  0.9317  2.2058 -1.6882
  347MOL0     H45800   3.062  11.272  10.702  1.4234  1.0175  0.7037
  347MOL0     H45801   3.061  11.105  10.650 -0.3691 -0.3949  0.3647
  347MOL0     H45802   3.098  11.032  11.049  1.8478 -1.5403  0.0031
  347MOL0     H45803   3.671  11.011  10.414  1.3554 -0.7515 -1.4700
  347MOL0     H45804   3.908  11.069  10.358  1.7502  2.0307 -0.4027
  348MOL0     O45805   8.613   9.459   0.985 -0.7797 -0.1428  0.3053
  348MOL0     C45806   8.667   9.375   1.054 -0.7443 -0.3712  0.1186
  348MOL0     O45807   8.599   9.271   1.119 -0.3841  0.2515  0.7316
  348MOL0     C45808   8.460   9.276   1.132  0.3035  0.3498  0.2967
  348MOL0     C45809   8.399   9.154   1.126 -0.2864 -0.1601  0.9434
  348MOL0     C45810   8.257   9.136   1.128 -0.5495 -0.2490 -0.6116
  348MOL0     C45811   8.172   9.246   1.133 -1.0166  0.9243 -0.7703
  348MOL0     O45812   8.038   9.231   1.116 -0.0431 -0.9266 -0.3786
  348MOL0     C45813   7.937   9.341   1.127 -0.9020 -0.4820  0.6397
  348MOL0     C45814   7.814   9.301   1.042  0.0347  0.2744 -0.2277
  348MOL0     C45815   7.716   9.212   1.123 -0.2772  0.0582 -0.3865
  348MOL0     C45816   7.595   9.182   1.042 -0.7185  0.4585 -0.7306
  348MOL0     C45817   7.501   9.074   1.106  0.2842 -1.4612 -0.3291
  348MOL0     C45818   7.419   9.143   1.216 -1.1508 -0.5323 -0.7197
  348MOL0     C45819   7.338   9.040   1.289 -0.1346 -0.2193  0.7667
  348MOL0     C45820   7.241   9.105   1.389  0.4920  0.0933 -0.1519
  348MOL0     N45821   7.132   9.188   1.330  0.4674 -0.0755  0.9615
  348MOL0     C45822   7.018   9.147   1.261 -0.1214 -0.2911  0.2373
  348MOL0     C45823   6.944   9.257   1.245  0.2232  0.3893 -0.4230
  348MOL0     C45824   6.803   9.258   1.186 -0.1419  1.2139  0.5566
  348MOL0     C45825   6.716   9.138   1.217 -0.0561 -0.0188  0.3235
  348MOL0     C45826   6.584   9.151   1.134 -0.0966  0.2182  0.1655
  348MOL0     C45827   6.503   9.281   1.159 -0.2666  0.9038 -0.0003
  348MOL0     O45828   6.378   9.271   1.086  0.2778  0.5276 -0.1699
  348MOL0     C45829   6.272   9.207   1.139 -0.2898 -0.2672  0.0975
  348MOL0     C45830   6.164   9.185   1.049 -0.6068  0.7245  0.6518
  348MOL0     C45831   6.039   9.140   1.101 -0.0435  0.7945  0.0211
  348MOL0     C45832   6.024   9.106   1.236  0.1560  0.1985 -0.8046
  348MOL0     C45833   5.893   9.066   1.285  0.7622 -1.0209  0.0798
  348MOL0     O45834   5.882   8.969   1.381  0.1840  0.2554 -0.3912
  348MOL0     C45835   5.751   8.930   1.423 -0.3164  1.0061 -0.2547
  348MOL0     C45836   5.716   8.955   1.561 -0.6867  0.1972  1.2338
  348MOL0     C45837   5.593   8.901   1.606 -0.4902  0.5284 -0.5423
  348MOL0     C45838   5.502   8.829   1.523 -0.1987  0.4115 -0.7576
  348MOL0     O45839   5.378   8.791   1.575  0.7813 -0.6976  0.1884
  348MOL0     C45840   5.279   8.850   1.487  0.4691  0.2470  0.0493
  348MOL0     C45841   5.164   8.885   1.576  0.0127 -0.0690  0.8878
  348MOL0     C45842   5.024   8.885   1.505  0.6792 -0.9383 -0.2752
  348MOL0     C45843   4.919   8.902   1.611  0.4218 -0.2704  0.5370
  348MOL0     C45844   4.781   8.881   1.559  0.3932 -0.2480 -0.2619
  348MOL0     C45845   4.745   8.730   1.547 -0.5963  0.1655 -0.9532
  348MOL0     C45846   4.601   8.711   1.529 -0.1156  0.3073 -0.1868
  348MOL0     C45847   4.578   8.561   1.516  0.0383 -0.1006  0.7701
  348MOL0    Cl45848   4.399   8.518   1.520  0.6684 -0.0813  0.0929
  348MOL0     C45849   5.539   8.806   1.393 -0.2798 -0.7409 -0.1031
  348MOL0     C45850   5.661   8.855   1.343 -1.3974  0.4183 -0.8028
  348MOL0     O45851   5.798   9.120   1.225 -0.3866 -0.0984 -0.0383
  348MOL0     C45852   6.134   9.118   1.319  1.1924 -0.5554 -0.7111
  348MOL0     C45853   6.253   9.170   1.271  0.3772 -0.4747  0.7746
  348MOL0     N45854   7.027   9.369   1.276 -0.4135  0.2358 -1.0228
  348MOL0     N45855   7.140   9.323   1.332  0.0286 -0.7263  0.6978
  348MOL0     C45856   8.234   9.372   1.158  0.2833  0.5912 -0.0920
  348MOL0     C45857   8.368   9.386   1.153 -0.1827  0.5922 -0.2073
  348MOL0     C45858   8.817   9.380   1.071 -0.6595 -0.3433  0.2547
  348MOL0     C45859   8.905   9.270   1.101 -0.6419 -0.5719 -0.5104
  348MOL0     C45860   9.046   9.288   1.092 -0.2177 -0.4287  0.0257
  348MOL0     C45861   9.084   9.423   1.066 -0.6381 -0.1183 -0.1758
  348MOL0     O45862   9.214   9.457   1.063 -0.4480 -0.5960  0.0899
  348MOL0     C45863   9.293   9.405   0.962  0.3962 -0.1900  0.7738
  348MOL0     C45864   9.287   9.485   0.823 -0.4681  0.0989 -0.6609
  348MOL0     C45865   9.384   9.424   0.720 -0.1667 -0.2001 -0.7113
  348MOL0     C45866   9.534   9.409   0.772  0.4661 -0.2175  0.2198
  348MOL0     C45867   9.634   9.392   0.658  0.3061 -0.2215 -0.9621
  348MOL0     C45868   9.710   9.368   0.560 -0.1178  0.3239 -0.5122
  348MOL0     C45869   8.998   9.531   1.053  0.0790  0.4627  0.1537
  348MOL0     C45870   8.867   9.504   1.062 -0.1127  0.3029 -0.4444
  348MOL0     H45871   8.459   9.064   1.121 -0.4958 -0.2885  0.7147
  348MOL0     H45872   8.217   9.035   1.130 -0.2403 -0.3676 -0.5137
  348MOL0     H45873   7.972   9.434   1.082 -0.5570 -0.2184  1.4298
  348MOL0     H45874   7.914   9.358   1.233  2.7472  1.8946  1.2638
  348MOL0     H45875   7.842   9.262   0.944 -0.1816 -0.7970  0.1119
  348MOL0     H45876   7.773   9.398   1.014 -0.2808 -0.3705 -2.1224
  348MOL0     H45877   7.681   9.257   1.217  1.0384 -0.2537  0.2858
  348MOL0     H45878   7.763   9.116   1.148 -0.9820  0.1881  1.6201
  348MOL0     H45879   7.532   9.271   1.035 -1.1274  0.1420 -1.0941
  348MOL0     H45880   7.634   9.149   0.946  0.0157  0.1626 -0.3402
  348MOL0     H45881   7.565   8.995   1.146  1.7949 -1.0092 -1.6942
  348MOL0     H45882   7.431   9.038   1.030 -3.3035 -0.2968  2.2073
  348MOL0     H45883   7.358   9.218   1.163  1.2956  0.7005 -1.9575
  348MOL0     H45884   7.480   9.200   1.287 -1.4826 -1.9997  0.7869
  348MOL0     H45885   7.284   8.987   1.210 -2.3245  0.1970  1.9042
  348MOL0     H45886   7.400   8.963   1.337 -0.4169 -1.9801 -1.5146
  348MOL0     H45887   7.292   9.172   1.459 -1.4600  3.9421 -2.0506
  348MOL0     H45888   7.194   9.015   1.431 -0.4801  1.4832  1.9478
  348MOL0     H45889   6.999   9.043   1.234  3.5408 -0.8204 -0.9320
  348MOL0     H45890   6.811   9.283   1.080  2.4667 -1.5549 -0.0617
  348MOL0     H45891   6.750   9.344   1.227  2.6179  3.3060  0.0307
  348MOL0     H45892   6.699   9.128   1.325  1.2897 -0.5267  0.5122
  348MOL0     H45893   6.754   9.042   1.180 -0.6546 -0.8761  1.8425
  348MOL0     H45894   6.617   9.155   1.029  2.5418  0.6125  0.9258
  348MOL0     H45895   6.536   9.054   1.147  1.1964 -0.4315  0.3120
  348MOL0     H45896   6.557   9.366   1.116  0.9355  0.0579 -0.2053
  348MOL0     H45897   6.488   9.303   1.265 -0.4465  0.1960  0.1284
  348MOL0     H45898   6.170   9.199   0.942  1.1658 -0.0998  0.6116
  348MOL0     H45899   5.951   9.116   1.043 -1.1195 -1.4028  2.3677
  348MOL0     H45900   5.784   9.001   1.631 -0.6021 -2.7586  3.2793
  348MOL0     H45901   5.579   8.916   1.712 -0.9653 -1.3267 -0.3198
  348MOL0     H45902   5.254   8.785   1.402 -4.7542  2.9595 -0.9522
  348MOL0     H45903   5.312   8.946   1.445 -2.5576  0.9457 -1.0129
  348MOL0     H45904   5.186   8.983   1.619  0.2262 -0.4267  1.5966
  348MOL0     H45905   5.155   8.821   1.664  0.3623  1.7534  2.3165
  348MOL0     H45906   5.015   8.799   1.439  0.1004 -1.5551  0.5763
  348MOL0     H45907   5.015   8.966   1.432  0.8556 -0.4523  0.2299
  348MOL0     H45908   4.925   8.833   1.696 -1.2605 -0.7264  0.3202
  348MOL0     H45909   4.926   9.005   1.647 -0.5086 -0.2725  0.7680
  348MOL0     H45910   4.767   8.926   1.460  2.1688 -0.4577 -0.6427
  348MOL0     H45911   4.720   8.924   1.638  0.9030  2.2566 -1.1271
  348MOL0     H45912   4.779   8.679   1.638  1.5179 -1.3856 -2.5019
  348MOL0     H45913   4.813   8.693   1.471  1.7001 -0.8881  1.4571
  348MOL0     H45914   4.542   8.758   1.609  0.1944 -1.7885  1.3744
  348MOL0     H45915   4.568   8.752   1.433  1.1441 -2.7355 -2.0407
  348MOL0     H45916   4.629   8.508   1.597 -3.5725 -1.5495  2.3409
  348MOL0     H45917   4.617   8.525   1.421 -1.2303 -1.0536  0.5763
  348MOL0     H45918   5.475   8.751   1.325  1.8650 -0.8392 -2.1941
  348MOL0     H45919   5.705   8.832   1.246  4.8469  0.8209  1.4655
  348MOL0     H45920   6.137   9.108   1.427 -0.3023 -3.4235 -0.8280
  348MOL0     H45921   6.335   9.187   1.341  2.7457 -1.5477 -1.5878
  348MOL0     H45922   8.172   9.461   1.158 -0.6260 -0.0180  1.2047
  348MOL0     H45923   8.392   9.491   1.168 -0.8879  0.4418  2.3748
  348MOL0     H45924   8.867   9.170   1.118  0.6134 -0.9552  0.1831
  348MOL0     H45925   9.114   9.205   1.102  2.0267  1.5662  2.9021
  348MOL0     H45926   9.267   9.301   0.937  1.5749 -0.1136 -0.8746
  348MOL0     H45927   9.394   9.389   0.999  0.3576 -3.6771 -0.2416
  348MOL0     H45928   9.189   9.476   0.776  0.4971 -0.3228 -2.7104
  348MOL0     H45929   9.307   9.591   0.835  2.7042 -0.5094  0.4449
  348MOL0     H45930   9.381   9.475   0.624 -1.2399  3.4300  1.0975
  348MOL0     H45931   9.352   9.320   0.706  1.5532 -0.9618  0.5936
  348MOL0     H45932   9.550   9.500   0.831 -0.9220 -1.3705  2.5246
  348MOL0     H45933   9.536   9.325   0.841 -0.2507  1.2247  2.0833
  348MOL0     H45934   9.766   9.360   0.470  1.6736  2.6256  0.3030
  348MOL0     H45935   9.030   9.635   1.053 -0.6946  0.7090  0.6755
  348MOL0     H45936   8.794   9.582   1.043 -0.2188 -0.3461 -3.0205
  349MOL0     O45937   1.949   6.599   8.434  0.1692 -0.6723  0.0015
  349MOL0     C45938   2.051   6.537   8.467 -0.1231 -0.8015 -0.2192
  349MOL0     O45939   2.108   6.432   8.392  0.5442 -0.1346  0.0393
  349MOL0     C45940   2.032   6.395   8.279 -0.4079 -0.6575  0.4298
  349MOL0     C45941   2.042   6.471   8.157 -0.0735  0.2328  0.1061
  349MOL0     C45942   1.947   6.449   8.055 -0.8457 -0.4550 -0.7421
  349MOL0     C45943   1.851   6.345   8.061  0.7089 -0.3416  0.2449
  349MOL0     O45944   1.754   6.331   7.967  0.3253 -0.2039 -0.4129
  349MOL0     C45945   1.691   6.450   7.925  0.4808 -0.8165 -0.2499
  349MOL0     C45946   1.545   6.419   7.901 -0.4854 -0.3004  0.5575
  349MOL0     C45947   1.496   6.280   7.829 -0.7694 -0.2106  0.2239
  349MOL0     C45948   1.344   6.311   7.795 -0.6723  0.6329  0.0382
  349MOL0     C45949   1.276   6.224   7.684 -0.7361 -0.6765 -1.5671
  349MOL0     C45950   1.147   6.286   7.625  0.3625  0.5498 -0.1912
  349MOL0     C45951   1.074   6.192   7.524  0.3533  0.0370  0.3523
  349MOL0     C45952   0.943   6.250   7.485 -0.0583 -0.3815 -0.6445
  349MOL0     N45953   0.832   6.205   7.573  0.3796  0.0287  0.1401
  349MOL0     C45954   0.760   6.084   7.574 -1.0314  0.1253 -0.8955
  349MOL0     C45955   0.649   6.101   7.649  0.0217  0.0129 -0.0124
  349MOL0     C45956   0.550   6.007   7.696  0.3734  0.4031 -0.2721
  349MOL0     C45957   0.413   6.012   7.625  0.3889  0.1018 -0.5924
  349MOL0     C45958   0.363   6.159   7.638  0.2690  0.0237  0.3108
  349MOL0     C45959   0.205   6.182   7.637  0.1621 -0.3307  0.1897
  349MOL0     O45960   0.166   6.176   7.493 -0.0079 -0.4708 -0.7608
  349MOL0     C45961   0.026   6.172   7.480 -0.4969  0.3206 -0.6790
  349MOL0     C45962  -0.034   6.268   7.404  0.3083 -0.4547  0.2686
  349MOL0     C45963  -0.174   6.254   7.372  0.5196 -1.0354  0.1336
  349MOL0     C45964  -0.245   6.138   7.408 -0.1950 -0.1539 -0.6628
  349MOL0     C45965  -0.377   6.111   7.352 -0.4845  0.3799 -0.4488
  349MOL0     O45966  -0.440   6.001   7.387 -0.1662 -0.0865  0.5860
  349MOL0     C45967  -0.580   5.998   7.366 -0.7343  0.9117 -0.0352
  349MOL0     C45968  -0.638   5.905   7.282 -0.0716 -0.4469 -0.4130
  349MOL0     C45969  -0.772   5.912   7.271  0.3917  0.4965 -0.7176
  349MOL0     C45970  -0.851   6.004   7.346  0.0060  0.5137  1.2204
  349MOL0     O45971  -0.979   5.992   7.331  0.3240  0.5130  0.0062
  349MOL0     C45972  -1.068   6.075   7.406  0.2962  0.2486 -0.4362
  349MOL0     C45973  -1.208   6.014   7.409 -0.4933 -0.3274 -0.4135
  349MOL0     C45974  -1.273   6.005   7.271 -0.0299 -0.0872 -0.1603
  349MOL0     C45975  -1.421   5.972   7.285 -0.0541 -0.4268  1.4164
  349MOL0     C45976  -1.490   5.943   7.152 -0.2297 -0.1427  0.1742
  349MOL0     C45977  -1.645   5.922   7.170  0.0296 -0.5615  1.0132
  349MOL0     C45978  -1.715   6.053   7.212 -0.4551  0.7182  0.2599
  349MOL0     C45979  -1.877   6.036   7.233 -0.5484  0.5384  0.3303
  349MOL0    Cl45980  -1.942   6.201   7.260 -0.2000 -0.4408 -0.0881
  349MOL0     C45981  -0.783   6.110   7.413  0.4765 -0.7085  0.2367
  349MOL0     C45982  -0.650   6.099   7.440 -0.6506 -0.1436  0.1122
  349MOL0     O45983  -0.419   6.200   7.276  0.4472  0.6560  0.4249
  349MOL0     C45984  -0.179   6.040   7.480  0.1580 -0.0990 -0.2606
  349MOL0     C45985  -0.043   6.058   7.515  1.0795  0.4816  0.0532
  349MOL0     N45986   0.657   6.234   7.690  0.0070 -0.1496  0.0206
  349MOL0     N45987   0.761   6.289   7.646  0.0412 -0.2715 -0.5828
  349MOL0     C45988   1.854   6.266   8.173 -0.2357  0.0743 -0.8418
  349MOL0     C45989   1.942   6.285   8.288 -0.2603 -0.7714  0.7082
  349MOL0     C45990   2.136   6.595   8.579 -0.4601  0.6713 -0.2088
  349MOL0     C45991   2.074   6.654   8.688 -0.7494 -0.3721  0.2825
  349MOL0     C45992   2.153   6.716   8.790  0.9280 -0.0485  0.0088
  349MOL0     C45993   2.295   6.725   8.783 -0.1625  0.1714  0.2975
  349MOL0     O45994   2.361   6.770   8.892  0.0613 -0.7888  0.1603
  349MOL0     C45995   2.495   6.727   8.918  0.3250 -0.4293 -0.2389
  349MOL0     C45996   2.605   6.815   8.849  0.1080  0.4061  0.3891
  349MOL0     C45997   2.582   6.971   8.858 -0.8894 -0.8346 -1.3003
  349MOL0     C45998   2.588   7.019   9.006 -0.2169 -0.5382  0.0908
  349MOL0     C45999   2.567   7.163   9.014  0.8061  0.2051 -0.7007
  349MOL0     C46000   2.546   7.280   9.002  0.0382 -0.1432 -0.2373
  349MOL0     C46001   2.349   6.661   8.666  0.1838 -0.1229  0.3411
  349MOL0     C46002   2.277   6.590   8.574  0.5368  0.6254  1.3058
  349MOL0     H46003   2.106   6.558   8.146 -1.5796  1.0939 -3.4882
  349MOL0     H46004   1.956   6.525   7.978  0.1315 -0.1851 -0.3804
  349MOL0     H46005   1.734   6.485   7.831  0.6173  2.4164  0.8921
  349MOL0     H46006   1.696   6.534   7.994  0.4508  0.5974 -1.8886
  349MOL0     H46007   1.501   6.505   7.849 -2.9273 -1.5408  0.4256
  349MOL0     H46008   1.498   6.418   8.000 -1.5244 -0.5023  0.0808
  349MOL0     H46009   1.515   6.200   7.902  1.6020 -1.2169 -1.3629
  349MOL0     H46010   1.546   6.249   7.737 -1.2178  0.5406 -0.2813
  349MOL0     H46011   1.279   6.300   7.882 -0.4439 -0.5622  0.0826
  349MOL0     H46012   1.337   6.413   7.757 -1.2412  0.8190  0.6305
  349MOL0     H46013   1.255   6.124   7.722 -0.5469 -0.0437  0.3145
  349MOL0     H46014   1.343   6.211   7.598  1.6165 -1.5140  0.2656
  349MOL0     H46015   1.160   6.384   7.580 -1.8313  0.5306 -0.9879
  349MOL0     H46016   1.075   6.282   7.708  1.6755  2.6486  1.1180
  349MOL0     H46017   1.135   6.184   7.433  0.6229  0.1143  0.5243
  349MOL0     H46018   1.062   6.094   7.571  0.4416  0.8679  2.1867
  349MOL0     H46019   0.924   6.225   7.380 -1.7488 -1.4958 -0.1116
  349MOL0     H46020   0.946   6.360   7.490  0.4076 -0.3077 -1.9881
  349MOL0     H46021   0.790   5.990   7.527  1.3520 -0.2981  1.2245
  349MOL0     H46022   0.539   6.030   7.803  1.7521  1.1622 -0.2733
  349MOL0     H46023   0.574   5.900   7.699 -1.4884 -0.1178 -1.7330
  349MOL0     H46024   0.352   5.942   7.682 -1.3257 -0.3790 -2.8979
  349MOL0     H46025   0.406   5.971   7.524  0.2097 -1.6405  0.1026
  349MOL0     H46026   0.389   6.207   7.733 -1.8369 -1.8476  1.9319
  349MOL0     H46027   0.407   6.216   7.555  3.2038  1.2081  2.4880
  349MOL0     H46028   0.190   6.282   7.677  1.3197  0.3048 -0.8798
  349MOL0     H46029   0.156   6.101   7.691 -1.6000 -0.8070 -1.9549
  349MOL0     H46030   0.027   6.354   7.378  0.6551 -1.3843 -2.2756
  349MOL0     H46031  -0.228   6.331   7.318  0.6961 -1.1367 -0.1945
  349MOL0     H46032  -0.577   5.826   7.239  0.7557 -0.2823  0.4546
  349MOL0     H46033  -0.817   5.841   7.203  1.1107  0.2164 -0.9092
  349MOL0     H46034  -1.085   6.174   7.363 -1.4397  0.1643  0.0063
  349MOL0     H46035  -1.033   6.094   7.508 -0.9010  0.9796 -0.1433
  349MOL0     H46036  -1.264   6.088   7.467  2.3556  3.4047 -2.0050
  349MOL0     H46037  -1.204   5.919   7.462 -2.3882  0.6385  1.6270
  349MOL0     H46038  -1.211   5.934   7.215 -0.4949 -3.9221  3.7034
  349MOL0     H46039  -1.258   6.101   7.219  2.2681  0.1968  0.8681
  349MOL0     H46040  -1.439   5.891   7.356 -0.4077 -1.1709  0.4984
  349MOL0     H46041  -1.467   6.059   7.334 -1.4465  0.0023 -0.5250
  349MOL0     H46042  -1.438   5.858   7.106  1.1138  0.4387  0.5736
  349MOL0     H46043  -1.464   6.023   7.082 -0.8314  1.3668  1.6386
  349MOL0     H46044  -1.664   5.842   7.241  0.2743 -0.9986  0.5952
  349MOL0     H46045  -1.680   5.893   7.071 -3.3162 -0.6348  2.1230
  349MOL0     H46046  -1.671   6.092   7.304 -2.4488 -1.9125  2.5089
  349MOL0     H46047  -1.703   6.131   7.137 -1.8529  1.2086  0.5106
  349MOL0     H46048  -1.898   5.965   7.313  1.9186 -0.4757  0.1891
  349MOL0     H46049  -1.917   6.012   7.134  0.8659  2.0622 -0.6665
  349MOL0     H46050  -0.844   6.194   7.445 -2.2938 -2.5183  0.1428
  349MOL0     H46051  -0.601   6.174   7.501 -1.1401  0.8288 -0.6617
  349MOL0     H46052  -0.232   5.949   7.505  1.3526  0.1850  4.0781
  349MOL0     H46053   0.006   5.976   7.567  0.2149 -0.6773 -0.9142
  349MOL0     H46054   1.773   6.196   8.190  0.4913 -1.2226 -2.3833
  349MOL0     H46055   1.930   6.222   8.375  0.1100 -1.4727  0.2634
  349MOL0     H46056   1.969   6.663   8.713 -0.8833 -0.1294 -0.3438
  349MOL0     H46057   2.100   6.750   8.878  0.6317 -0.7615  0.1163
  349MOL0     H46058   2.508   6.621   8.895 -2.4353 -0.9784  0.3846
  349MOL0     H46059   2.505   6.734   9.027 -1.4347  0.7996 -0.1055
  349MOL0     H46060   2.704   6.797   8.892 -0.0914 -0.2639  0.5809
  349MOL0     H46061   2.613   6.788   8.744  2.7091  3.8258 -0.4883
  349MOL0     H46062   2.489   7.003   8.809 -1.2903 -2.0629 -1.3607
  349MOL0     H46063   2.661   7.023   8.802 -1.0139  1.0112  0.1261
  349MOL0     H46064   2.513   6.956   9.054 -2.1871  0.0700 -2.0195
  349MOL0     H46065   2.679   7.000   9.063 -0.3658 -2.5823 -0.2855
  349MOL0     H46066   2.526   7.385   8.996 -0.0286 -0.1955 -0.9068
  349MOL0     H46067   2.455   6.665   8.645 -0.2370  0.3439 -1.9550
  349MOL0     H46068   2.324   6.542   8.488 -2.3802 -1.4536  0.7150
  350MOL0     O46069  11.192   4.110   0.462  0.3065  0.1544  0.1124
  350MOL0     C46070  11.299   4.166   0.442  0.2183  0.7262 -0.3002
  350MOL0     O46071  11.320   4.288   0.387 -0.4708 -0.1453  0.1978
  350MOL0     C46072  11.202   4.355   0.382 -0.3374 -0.6214 -0.3250
  350MOL0     C46073  11.110   4.316   0.283  0.8793  0.5363  0.2314
  350MOL0     C46074  10.984   4.372   0.277  0.6515  0.1245  0.7818
  350MOL0     C46075  10.939   4.461   0.376 -0.6042  0.3758 -0.2799
  350MOL0     O46076  10.814   4.510   0.391 -1.0249 -0.1713 -0.4115
  350MOL0     C46077  10.736   4.520   0.277 -0.3587 -0.1073  0.3930
  350MOL0     C46078  10.626   4.631   0.292  0.2814  0.7945 -0.0265
  350MOL0     C46079  10.494   4.575   0.344 -0.2714 -0.4125 -0.3673
  350MOL0     C46080  10.414   4.480   0.256 -0.3681 -0.1224  0.1474
  350MOL0     C46081  10.297   4.544   0.187  0.6152  0.0151  0.2131
  350MOL0     C46082  10.192   4.605   0.281 -0.1838 -0.6381 -0.2784
  350MOL0     C46083  10.057   4.642   0.216  0.0913 -0.5570 -0.1027
  350MOL0     C46084  10.070   4.770   0.128 -0.2121 -0.3441 -0.7958
  350MOL0     N46085   9.940   4.830   0.086  0.3256  0.6525 -0.3586
  350MOL0     C46086   9.868   4.922   0.157  1.2246  0.4468 -0.2007
  350MOL0     C46087   9.753   4.920   0.087 -0.3890  0.2728 -0.3375
  350MOL0     C46088   9.625   4.999   0.116 -0.7938  0.4524  0.2757
  350MOL0     C46089   9.512   4.898   0.167 -0.0103 -0.2269  0.3453
  350MOL0     C46090   9.370   4.955   0.186 -0.4072 -0.3655  0.4994
  350MOL0     C46091   9.263   4.844   0.190 -0.5921 -0.7788 -0.0349
  350MOL0     O46092   9.181   4.882   0.303  0.4706  0.5840  0.1326
  350MOL0     C46093   9.077   4.798   0.332 -0.8980 -0.7743  0.2436
  350MOL0     C46094   9.019   4.716   0.238  0.1743  0.2931  0.0627
  350MOL0     C46095   8.919   4.625   0.277  0.7949  0.0435 -0.0263
  350MOL0     C46096   8.854   4.634   0.400 -0.6676  0.0806 -0.2407
  350MOL0     C46097   8.757   4.527   0.449 -0.0082  0.0869 -0.4805
  350MOL0     O46098   8.755   4.405   0.372  1.2051 -0.3908 -0.7245
  350MOL0     C46099   8.661   4.320   0.406  0.5458 -0.2330 -0.1897
  350MOL0     C46100   8.667   4.269   0.536 -0.6738 -0.5412  0.1471
  350MOL0     C46101   8.562   4.191   0.581 -0.2516 -0.6091  0.3320
  350MOL0     C46102   8.449   4.157   0.497  0.2028 -0.6917  0.8658
  350MOL0     O46103   8.353   4.063   0.539 -0.5504  0.1884 -0.8386
  350MOL0     C46104   8.277   3.981   0.445  0.5609 -0.5124 -0.2819
  350MOL0     C46105   8.173   3.910   0.532  0.8949 -0.2710  0.6956
  350MOL0     C46106   8.108   3.805   0.438  0.1415  0.7624 -0.3304
  350MOL0     C46107   8.031   3.870   0.326 -0.5007 -0.2957 -0.1716
  350MOL0     C46108   7.939   3.785   0.242  0.6638 -0.1244  0.5460
  350MOL0     C46109   7.836   3.725   0.337  0.0595 -0.1762  0.0293
  350MOL0     C46110   7.720   3.661   0.260 -0.0911 -0.0772 -0.3054
  350MOL0     C46111   7.617   3.598   0.353  0.0604 -0.6590  0.3304
  350MOL0    Cl46112   7.477   3.516   0.287 -0.1623  0.0681  0.4411
  350MOL0     C46113   8.443   4.209   0.367  0.7565 -0.7929  0.3033
  350MOL0     C46114   8.544   4.300   0.323  0.9767 -0.6364  0.2060
  350MOL0     O46115   8.689   4.548   0.547  0.0685 -0.4282 -0.0211
  350MOL0     C46116   8.905   4.733   0.491  0.0706  0.4339  0.1254
  350MOL0     C46117   9.021   4.808   0.459  0.3064 -0.4545  0.6670
  350MOL0     N46118   9.751   4.838  -0.025 -1.0183 -0.3156  0.4644
  350MOL0     N46119   9.871   4.782  -0.018 -0.7199 -0.2203 -0.1148
  350MOL0     C46120  11.032   4.500   0.471  0.7262 -0.6414  0.3600
  350MOL0     C46121  11.160   4.455   0.476  0.1747  0.4115  0.8942
  350MOL0     C46122  11.423   4.097   0.495 -0.4989  0.7630  0.0819
  350MOL0     C46123  11.534   4.167   0.519  0.2622 -0.3429  0.0515
  350MOL0     C46124  11.649   4.105   0.553 -0.7465  0.1964 -0.6959
  350MOL0     C46125  11.655   3.967   0.568 -1.0102  0.3986  0.3516
  350MOL0     O46126  11.769   3.897   0.591  0.3490 -0.4899  0.7355
  350MOL0     C46127  11.753   3.793   0.693 -0.2377 -0.3394 -0.0516
  350MOL0     C46128  11.882   3.786   0.769 -0.2681 -0.8675  0.8044
  350MOL0     C46129  11.994   3.703   0.704  0.7010 -0.4682  0.0036
  350MOL0     C46130  12.095   3.665   0.805 -0.6477  0.6307 -0.3910
  350MOL0     C46131  12.176   3.538   0.759 -0.5106 -0.7838  0.0990
  350MOL0     C46132  12.244   3.457   0.701  0.2046  0.0841 -0.1162
  350MOL0     C46133  11.536   3.895   0.559 -0.2538  0.5561  1.2033
  350MOL0     C46134  11.423   3.956   0.515  0.6061  0.1691  0.3224
  350MOL0     H46135  11.128   4.245   0.203 -1.1641  1.0584 -0.7779
  350MOL0     H46136  10.924   4.321   0.202 -0.3421  0.8010  1.1015
  350MOL0     H46137  10.685   4.431   0.238 -1.1183  1.6058 -2.8988
  350MOL0     H46138  10.797   4.566   0.199 -0.9684  1.7731  0.9702
  350MOL0     H46139  10.620   4.671   0.190  1.5258  2.2191  0.4382
  350MOL0     H46140  10.664   4.706   0.362  2.9906  1.0619 -1.6787
  350MOL0     H46141  10.432   4.657   0.382 -1.0556 -0.8469 -0.6746
  350MOL0     H46142  10.513   4.520   0.436 -1.9836  0.9237  0.8593
  350MOL0     H46143  10.473   4.442   0.172 -1.6341 -1.0602 -0.3451
  350MOL0     H46144  10.389   4.394   0.319 -1.7796  1.1500  1.4263
  350MOL0     H46145  10.241   4.469   0.131 -1.5162  3.2882 -2.3832
  350MOL0     H46146  10.326   4.613   0.108 -0.6057 -1.5232 -1.6523
  350MOL0     H46147  10.229   4.700   0.322 -2.8443  0.7366 -0.7977
  350MOL0     H46148  10.165   4.525   0.350  0.0852 -1.8418 -1.5304
  350MOL0     H46149  10.017   4.564   0.151 -1.2722 -0.8011  0.9728
  350MOL0     H46150   9.982   4.663   0.293 -0.1901  0.4601 -0.6309
  350MOL0     H46151  10.129   4.752   0.038  1.2023  0.7538 -0.1312
  350MOL0     H46152  10.135   4.838   0.184 -0.8490 -1.5478  1.5190
  350MOL0     H46153   9.886   4.979   0.248  1.5683 -1.5439  1.0339
  350MOL0     H46154   9.591   5.056   0.030 -0.7858  0.8143  0.5115
  350MOL0     H46155   9.647   5.069   0.198  1.4405 -1.2103  1.2306
  350MOL0     H46156   9.537   4.864   0.268  0.6452 -1.2896 -0.1594
  350MOL0     H46157   9.501   4.819   0.093 -1.5827  0.9074 -0.6896
  350MOL0     H46158   9.372   5.007   0.281 -3.1954  0.6176  0.0961
  350MOL0     H46159   9.356   5.022   0.100 -4.5007  0.0095  1.3008
  350MOL0     H46160   9.321   4.751   0.188  3.5361  1.5363 -0.5499
  350MOL0     H46161   9.219   4.855   0.091  1.3415  1.7895 -0.7134
  350MOL0     H46162   9.049   4.717   0.133 -2.3271  0.6517 -0.7334
  350MOL0     H46163   8.896   4.550   0.202  0.0110 -0.1215  0.3639
  350MOL0     H46164   8.751   4.289   0.602  1.5119 -3.5893 -1.4568
  350MOL0     H46165   8.563   4.162   0.686  2.6847 -1.3469  0.1821
  350MOL0     H46166   8.341   3.906   0.398  2.3546  1.1399 -0.6234
  350MOL0     H46167   8.226   4.054   0.382  0.7078  0.8795  1.1474
  350MOL0     H46168   8.099   3.982   0.566  2.6162  0.6477  2.7036
  350MOL0     H46169   8.219   3.866   0.621 -1.0420 -3.2005  0.4059
  350MOL0     H46170   8.037   3.749   0.501  1.8413 -2.0880 -0.7863
  350MOL0     H46171   8.183   3.736   0.398 -0.5689 -1.2188  1.5387
  350MOL0     H46172   7.972   3.952   0.367  0.9227  0.1658  1.0499
  350MOL0     H46173   8.108   3.902   0.255  1.0980 -2.8569  0.2833
  350MOL0     H46174   7.995   3.707   0.188 -0.5773 -1.5779  1.2586
  350MOL0     H46175   7.892   3.850   0.167  4.1697  1.4783 -0.4729
  350MOL0     H46176   7.804   3.804   0.405  0.4691 -1.3976  1.7069
  350MOL0     H46177   7.872   3.640   0.395 -1.6104 -1.6716 -1.0209
  350MOL0     H46178   7.677   3.738   0.194 -0.0642  0.1535 -0.0550
  350MOL0     H46179   7.763   3.591   0.188  0.6493  1.6515 -1.6186
  350MOL0     H46180   7.582   3.677   0.420 -0.0777 -0.3889 -0.0570
  350MOL0     H46181   7.668   3.526   0.417 -1.7127 -1.3587  1.0241
  350MOL0     H46182   8.362   4.204   0.295  1.3244  0.1003 -0.4255
  350MOL0     H46183   8.532   4.338   0.222  2.0727  1.4014  0.7895
  350MOL0     H46184   8.865   4.742   0.592 -1.6993  2.2199 -0.6594
  350MOL0     H46185   9.056   4.880   0.532 -2.3418  0.1409  1.4542
  350MOL0     H46186  10.995   4.566   0.549 -1.6188  1.3872 -2.2720
  350MOL0     H46187  11.228   4.497   0.549  0.4453  3.2659 -0.8447
  350MOL0     H46188  11.544   4.274   0.500  1.5735 -0.5983 -0.8989
  350MOL0     H46189  11.740   4.162   0.563 -0.6982 -0.1979  1.7430
  350MOL0     H46190  11.724   3.696   0.651 -2.9969 -0.3820  1.7206
  350MOL0     H46191  11.678   3.821   0.767 -1.1485 -0.8535 -0.7522
  350MOL0     H46192  11.921   3.883   0.802  1.4794 -1.0301 -0.6358
  350MOL0     H46193  11.853   3.730   0.859  1.4793 -1.2070  1.1987
  350MOL0     H46194  12.047   3.758   0.625 -2.2800  1.0590 -1.0891
  350MOL0     H46195  11.953   3.609   0.667  1.5098  0.0404 -2.3653
  350MOL0     H46196  12.165   3.745   0.833  1.7854 -2.1237  2.1233
  350MOL0     H46197  12.048   3.641   0.901  0.8042  0.3573  0.2713
  350MOL0     H46198  12.313   3.395   0.648 -0.3761  0.1886 -1.0225
  350MOL0     H46199  11.537   3.787   0.560  3.9288  0.2702 -2.8834
  350MOL0     H46200  11.328   3.907   0.496  1.6283 -1.4935 -0.7159
  351MOL0     O46201   9.986  11.257   6.454 -0.3639 -1.1945 -0.6847
  351MOL0     C46202  10.015  11.222   6.564  0.7316 -0.5643  0.3211
  351MOL0     O46203   9.936  11.139   6.636 -0.7834  0.5051 -0.7358
  351MOL0     C46204   9.807  11.113   6.576 -0.7890  0.4762  0.0333
  351MOL0     C46205   9.725  11.213   6.524 -0.2832 -0.1679 -0.4115
  351MOL0     C46206   9.597  11.183   6.476  0.1430  0.1532 -1.2144
  351MOL0     C46207   9.554  11.048   6.479 -0.4790  0.4625  0.1071
  351MOL0     O46208   9.423  11.020   6.428 -0.5532 -0.7237 -0.0535
  351MOL0     C46209   9.323  11.020   6.526  0.4299  0.3704 -0.5769
  351MOL0     C46210   9.179  11.042   6.473 -0.1651 -0.7732 -0.5882
  351MOL0     C46211   9.164  11.177   6.405  0.1702  0.0184 -0.1586
  351MOL0     C46212   9.023  11.212   6.368  0.4244 -0.1847  0.0865
  351MOL0     C46213   8.959  11.119   6.262 -0.2407  0.2146 -0.4340
  351MOL0     C46214   8.808  11.153   6.236 -0.5343  0.2864  0.8714
  351MOL0     C46215   8.794  11.295   6.199  0.0398 -0.5882  0.7517
  351MOL0     C46216   8.653  11.319   6.143 -0.0539 -0.8314  0.4001
  351MOL0     N46217   8.649  11.457   6.090 -0.1163 -0.1972 -0.2216
  351MOL0     C46218   8.536  11.516   6.035  0.9460 -0.0231 -0.0896
  351MOL0     C46219   8.568  11.632   5.987 -1.0056 -0.3213  0.3433
  351MOL0     C46220   8.478  11.731   5.930  0.0965  1.2057  0.1082
  351MOL0     C46221   8.347  11.742   6.013 -0.6151  0.5671  0.7460
  351MOL0     C46222   8.288  11.876   5.962 -0.4112  0.1192 -0.4574
  351MOL0     C46223   8.145  11.910   6.013  1.2486  0.4402 -0.5001
  351MOL0     O46224   8.043  11.843   5.931  0.2229  0.2133  0.0449
  351MOL0     C46225   7.918  11.828   5.984 -0.0431  0.0853  0.0872
  351MOL0     C46226   7.812  11.830   5.895 -1.1704 -0.3574  0.2472
  351MOL0     C46227   7.676  11.811   5.937 -0.9242  0.2092 -0.8302
  351MOL0     C46228   7.649  11.794   6.072  0.7623  0.2679 -0.3168
  351MOL0     C46229   7.509  11.782   6.114  0.8749 -0.2703 -0.4442
  351MOL0     O46230   7.407  11.850   6.054 -0.2574  0.5527  0.4488
  351MOL0     C46231   7.282  11.844   6.110  0.5906 -0.0401 -0.4942
  351MOL0     C46232   7.221  11.721   6.131  0.0823  0.2123 -0.3849
  351MOL0     C46233   7.093  11.702   6.174  0.3595  0.2518  0.8740
  351MOL0     C46234   7.014  11.810   6.214 -0.6137  0.7901 -0.2937
  351MOL0     O46235   6.878  11.801   6.241  0.1404  1.2102 -0.0960
  351MOL0     C46236   6.792  11.739   6.140  0.0650 -0.3886 -0.0082
  351MOL0     C46237   6.762  11.850   6.034 -0.7830 -0.1591 -0.2515
  351MOL0     C46238   6.746  11.993   6.080  0.6667  0.4110 -1.0249
  351MOL0     C46239   6.715  12.086   5.955 -0.8746 -0.8330 -0.0422
  351MOL0     C46240   6.750  12.234   5.979  0.0761 -0.4495 -0.3762
  351MOL0     C46241   6.715  12.321   5.856 -0.0254  0.7913  0.3686
  351MOL0     C46242   6.567  12.330   5.819  0.5266 -0.1810 -0.3703
  351MOL0     C46243   6.478  12.369   5.942  0.4135  0.5975 -0.6768
  351MOL0    Cl46244   6.300  12.389   5.904 -0.5359 -0.1269 -0.3401
  351MOL0     C46245   7.071  11.938   6.199  0.6853 -0.3211  1.3187
  351MOL0     C46246   7.210  11.954   6.148 -0.3065 -1.2027  0.1135
  351MOL0     O46247   7.501  11.699   6.208 -0.0278  0.4794  0.0025
  351MOL0     C46248   7.756  11.794   6.167  0.3315 -0.4206  0.0469
  351MOL0     C46249   7.891  11.797   6.119 -0.1174 -0.0884 -0.3023
  351MOL0     N46250   8.705  11.642   6.004 -0.6434  0.6653  0.2907
  351MOL0     N46251   8.748  11.538   6.063  0.2158 -0.5212 -0.0190
  351MOL0     C46252   9.631  10.948   6.541 -0.0867 -1.3309  0.2941
  351MOL0     C46253   9.760  10.982   6.587  1.1508  0.4241 -0.0190
  351MOL0     C46254  10.132  11.289   6.617  0.0114 -0.3825  0.1505
  351MOL0     C46255  10.200  11.386   6.539  0.2652 -0.1172  0.2771
  351MOL0     C46256  10.294  11.473   6.601 -0.2122  0.7284 -0.6423
  351MOL0     C46257  10.333  11.450   6.734 -0.3503 -0.1161 -0.0878
  351MOL0     O46258  10.409  11.542   6.797 -0.1259  0.6739 -0.2725
  351MOL0     C46259  10.542  11.494   6.811 -0.2749  0.2272 -0.2456
  351MOL0     C46260  10.615  11.596   6.895 -0.4576 -0.4524  0.6691
  351MOL0     C46261  10.756  11.548   6.918 -0.3037 -0.1035  0.6163
  351MOL0     C46262  10.845  11.524   6.797 -0.3442  0.2519  0.6186
  351MOL0     C46263  10.880  11.657   6.738  0.3194 -0.5336  0.0687
  351MOL0     C46264  10.900  11.769   6.706 -0.5726 -0.9961  0.2711
  351MOL0     C46265  10.274  11.355   6.813  0.2968  0.7726  0.6536
  351MOL0     C46266  10.168  11.275   6.753 -0.3385  0.4192  0.2994
  351MOL0     H46267   9.769  11.312   6.518 -1.2537  0.2343 -1.1072
  351MOL0     H46268   9.534  11.263   6.439 -0.5179  0.7731  1.1194
  351MOL0     H46269   9.336  11.102   6.598  2.0975  1.7755 -2.3892
  351MOL0     H46270   9.324  10.929   6.586  2.7458  1.7284  1.7019
  351MOL0     H46271   9.109  11.035   6.556 -0.2244  0.1343 -0.5612
  351MOL0     H46272   9.156  10.963   6.400 -1.1799  2.1612 -3.6848
  351MOL0     H46273   9.221  11.159   6.314  0.8248  0.1973  0.2136
  351MOL0     H46274   9.202  11.257   6.470 -0.9322 -1.4387  2.4237
  351MOL0     H46275   8.965  11.200   6.460 -0.4738 -0.6092 -0.5182
  351MOL0     H46276   9.018  11.315   6.332  1.0740  0.1714  0.9667
  351MOL0     H46277   8.966  11.012   6.284 -3.2156  0.5344  3.0519
  351MOL0     H46278   9.001  11.144   6.165 -3.5432  2.0396 -1.5735
  351MOL0     H46279   8.757  11.131   6.329 -1.5657  0.4786  0.3655
  351MOL0     H46280   8.765  11.086   6.161  0.8701  1.6760 -1.3358
  351MOL0     H46281   8.808  11.357   6.287 -1.0983 -1.6804  1.7397
  351MOL0     H46282   8.864  11.326   6.121 -1.1219 -0.3052 -0.2035
  351MOL0     H46283   8.575  11.301   6.218 -0.4554  0.3442  0.2842
  351MOL0     H46284   8.626  11.249   6.064 -0.5875 -1.0028  0.7306
  351MOL0     H46285   8.435  11.477   6.043  1.4903 -1.5583 -0.3566
  351MOL0     H46286   8.468  11.701   5.825  2.3129 -2.9936  0.8863
  351MOL0     H46287   8.538  11.822   5.934  0.2509  1.0626  1.2001
  351MOL0     H46288   8.377  11.751   6.118 -1.3454 -2.6545  1.3319
  351MOL0     H46289   8.283  11.656   5.994  1.2754 -0.4661 -1.4223
  351MOL0     H46290   8.358  11.952   5.998  0.7729 -1.9830  1.9770
  351MOL0     H46291   8.285  11.896   5.855  0.6039  1.7157 -0.2144
  351MOL0     H46292   8.139  12.019   6.022  0.3234  0.2255  3.6839
  351MOL0     H46293   8.125  11.881   6.117 -0.8002  2.0194 -0.3871
  351MOL0     H46294   7.832  11.841   5.788 -0.7239 -1.6654  0.1753
  351MOL0     H46295   7.591  11.827   5.871 -1.3196  3.9584  0.3551
  351MOL0     H46296   7.287  11.639   6.104  2.0949  0.3549  3.4744
  351MOL0     H46297   7.053  11.601   6.174 -1.2420  0.8490  0.3149
  351MOL0     H46298   6.709  11.694   6.196  1.0362 -1.9388  0.2316
  351MOL0     H46299   6.842  11.653   6.094  2.5641 -0.4409  2.5253
  351MOL0     H46300   6.674  11.829   5.974 -0.8697  5.0127 -2.4908
  351MOL0     H46301   6.847  11.854   5.965  1.4704  0.9856  2.3616
  351MOL0     H46302   6.842  12.027   6.122 -0.1674  0.1230  1.2849
  351MOL0     H46303   6.662  12.018   6.145  0.1561 -0.4022 -1.3653
  351MOL0     H46304   6.764  12.047   5.865 -1.8621  0.7004 -1.2870
  351MOL0     H46305   6.607  12.079   5.939 -1.0171 -1.0202  0.9726
  351MOL0     H46306   6.857  12.252   5.989  0.3553 -1.5428 -1.1958
  351MOL0     H46307   6.696  12.276   6.064  0.8914 -0.2934  0.0751
  351MOL0     H46308   6.749  12.274   5.763 -0.7671 -2.8429  1.7506
  351MOL0     H46309   6.754  12.423   5.862  0.4219  0.6189  0.4795
  351MOL0     H46310   6.554  12.410   5.745 -2.9590 -1.7889 -1.7011
  351MOL0     H46311   6.530  12.240   5.770 -0.0332 -0.6800  0.9394
  351MOL0     H46312   6.510  12.461   5.990  1.0951  0.7092 -1.3167
  351MOL0     H46313   6.480  12.286   6.013  1.5004  1.1536 -0.0437
  351MOL0     H46314   7.017  12.030   6.221 -0.0344 -0.1689 -0.8157
  351MOL0     H46315   7.243  12.057   6.145 -0.8716 -1.0359 -2.5832
  351MOL0     H46316   7.745  11.783   6.274  0.3729 -0.3943  0.0541
  351MOL0     H46317   7.970  11.784   6.193 -0.5405 -0.8122  0.0327
  351MOL0     H46318   9.600  10.844   6.547 -3.4345 -0.4793 -0.2851
  351MOL0     H46319   9.831  10.907   6.620  0.5466 -0.3273 -0.3944
  351MOL0     H46320  10.171  11.409   6.437 -0.7213  3.4537  1.1963
  351MOL0     H46321  10.346  11.550   6.545  2.6269 -0.5438  0.0732
  351MOL0     H46322  10.599  11.467   6.721  2.4560 -0.2897  1.5064
  351MOL0     H46323  10.546  11.397   6.861  2.6057  1.9455  3.3681
  351MOL0     H46324  10.610  11.696   6.850  0.0851  0.5854  2.7892
  351MOL0     H46325  10.575  11.606   6.996  2.4506 -0.2784  1.8947
  351MOL0     H46326  10.748  11.448   6.960  1.2483 -0.5783 -0.1240
  351MOL0     H46327  10.805  11.617   6.987 -2.1143  1.3803  0.4909
  351MOL0     H46328  10.936  11.475   6.833 -0.3186  2.2090  3.5717
  351MOL0     H46329  10.800  11.473   6.711  0.6503 -0.5758  0.5789
  351MOL0     H46330  10.949  11.864   6.692  2.3815 -2.2822  1.1811
  351MOL0     H46331  10.313  11.338   6.913 -0.6585 -0.1280  0.8970
  351MOL0     H46332  10.127  11.199   6.819 -0.2038  0.7935  0.8197
  352MOL0     O46333   5.603   7.394   4.723  0.3016 -0.3320  0.2884
  352MOL0     C46334   5.678   7.372   4.817  0.5355 -0.5563  0.3867
  352MOL0     O46335   5.645   7.324   4.932  0.2987 -0.4369 -0.0022
  352MOL0     C46336   5.509   7.339   4.972  0.0318  0.2374  0.0083
  352MOL0     C46337   5.459   7.469   4.994  0.4860 -0.1369 -0.2479
  352MOL0     C46338   5.339   7.495   5.062 -1.1537  0.0008 -0.1787
  352MOL0     C46339   5.262   7.386   5.112 -0.1387  0.5796 -0.4154
  352MOL0     O46340   5.145   7.424   5.183 -0.0952 -0.4021  0.2946
  352MOL0     C46341   5.079   7.338   5.278  0.3180  0.4150  0.7461
  352MOL0     C46342   5.013   7.409   5.394 -0.2150 -0.1444  0.1040
  352MOL0     C46343   4.911   7.509   5.344  0.1092  0.6108  0.2437
  352MOL0     C46344   4.851   7.588   5.451 -0.3048 -0.1588  0.2003
  352MOL0     C46345   4.781   7.717   5.404  0.9498  0.1163  0.2186
  352MOL0     C46346   4.641   7.693   5.329  0.0614  0.4643  0.1196
  352MOL0     C46347   4.537   7.628   5.417  0.3184  0.4649  0.3880
  352MOL0     C46348   4.454   7.720   5.511 -0.3540  0.4328 -0.2505
  352MOL0     N46349   4.335   7.662   5.581 -0.2893 -0.9305 -0.0524
  352MOL0     C46350   4.239   7.735   5.644 -0.3327 -0.7220 -0.1774
  352MOL0     C46351   4.179   7.640   5.718 -0.1173  0.3295 -0.2832
  352MOL0     C46352   4.058   7.668   5.797  0.0829 -0.2156 -0.1238
  352MOL0     C46353   3.928   7.634   5.728  0.2455 -0.2512 -0.4400
  352MOL0     C46354   3.912   7.708   5.588  0.1440 -0.6318  0.4216
  352MOL0     C46355   3.784   7.694   5.517 -0.1604  0.0939 -0.2412
  352MOL0     O46356   3.691   7.776   5.598 -0.7132 -0.4524  0.4801
  352MOL0     C46357   3.561   7.793   5.561  0.6823 -0.0083 -0.4050
  352MOL0     C46358   3.493   7.707   5.479  0.6060  0.0174  0.5121
  352MOL0     C46359   3.353   7.722   5.464 -0.1277 -0.7504 -0.3318
  352MOL0     C46360   3.274   7.817   5.546 -0.0200  0.5553  0.8961
  352MOL0     C46361   3.126   7.816   5.534  0.0250  0.2614 -0.2628
  352MOL0     O46362   3.068   7.747   5.438 -0.5852  0.5470 -0.3763
  352MOL0     C46363   2.937   7.696   5.440 -0.4512 -0.5773 -0.2838
  352MOL0     C46364   2.902   7.640   5.320 -0.0173 -0.8985  0.3642
  352MOL0     C46365   2.776   7.580   5.304  0.6488 -0.3427 -0.8015
  352MOL0     C46366   2.674   7.579   5.405  0.3898 -0.0577 -0.1222
  352MOL0     O46367   2.547   7.529   5.375  0.3079 -0.0356  0.2102
  352MOL0     C46368   2.504   7.435   5.475 -0.1294 -0.6533 -0.0310
  352MOL0     C46369   2.358   7.397   5.442 -0.1367 -0.6175  0.4086
  352MOL0     C46370   2.363   7.308   5.323 -0.5202 -0.1581  0.0961
  352MOL0     C46371   2.220   7.254   5.308 -0.5696 -0.6123 -0.0485
  352MOL0     C46372   2.207   7.141   5.209 -0.3781 -0.8349  0.6623
  352MOL0     C46373   2.253   7.192   5.069  0.0802  0.0705 -0.1674
  352MOL0     C46374   2.228   7.082   4.964  0.2112 -0.0785  0.6948
  352MOL0     C46375   2.160   7.130   4.829 -0.3717  0.0049 -0.1851
  352MOL0    Cl46376   1.986   7.124   4.864  0.1423 -0.0540  0.2462
  352MOL0     C46377   2.711   7.648   5.519  0.2950  0.5878  0.7534
  352MOL0     C46378   2.836   7.704   5.540  0.7285 -0.3259  0.3110
  352MOL0     O46379   3.070   7.867   5.632 -1.1380 -0.1120  0.4803
  352MOL0     C46380   3.342   7.899   5.632 -1.3500 -0.6523  0.4561
  352MOL0     C46381   3.480   7.887   5.633  0.6924 -0.9264  0.7315
  352MOL0     N46382   4.252   7.519   5.723  1.1694 -1.3066  0.2332
  352MOL0     N46383   4.349   7.544   5.644  0.2210 -0.0829  0.0183
  352MOL0     C46384   5.303   7.253   5.077 -0.0692 -0.1486 -0.2504
  352MOL0     C46385   5.428   7.228   5.010 -0.9148 -0.7064  0.3054
  352MOL0     C46386   5.819   7.412   4.806 -0.2465  1.1419 -0.0304
  352MOL0     C46387   5.919   7.361   4.886  0.3572  0.1596 -0.5184
  352MOL0     C46388   6.056   7.381   4.847 -0.3361 -0.4571 -0.4455
  352MOL0     C46389   6.097   7.457   4.739 -0.1653 -0.1106  0.3090
  352MOL0     O46390   6.228   7.463   4.703 -0.0624 -0.1085 -0.0098
  352MOL0     C46391   6.291   7.595   4.739  0.0271 -0.0009  0.2510
  352MOL0     C46392   6.324   7.583   4.881  0.3733 -0.0700 -0.7524
  352MOL0     C46393   6.406   7.705   4.942 -0.7890 -0.1624  0.4566
  352MOL0     C46394   6.530   7.730   4.854  0.5921 -0.2857 -0.2739
  352MOL0     C46395   6.635   7.790   4.927  0.2938 -0.6756  0.4789
  352MOL0     C46396   6.699   7.850   5.010 -0.3860  0.2968  0.6179
  352MOL0     C46397   5.999   7.508   4.658  0.8491 -0.6585  0.9264
  352MOL0     C46398   5.868   7.470   4.685  0.7257 -0.1224  0.1834
  352MOL0     H46399   5.519   7.553   4.961  0.3599  0.5389  1.1791
  352MOL0     H46400   5.311   7.598   5.081  3.0909  1.2615  0.2003
  352MOL0     H46401   5.152   7.261   5.305 -0.1076 -1.5447 -3.0484
  352MOL0     H46402   5.001   7.300   5.211  1.2205  0.1872 -0.2092
  352MOL0     H46403   5.083   7.458   5.462  0.1775 -1.5341  0.7392
  352MOL0     H46404   4.962   7.335   5.456 -3.2771  1.3864 -0.4211
  352MOL0     H46405   4.828   7.456   5.296  0.8621 -1.2209  0.8773
  352MOL0     H46406   4.957   7.570   5.266 -2.7235  0.5961 -1.6040
  352MOL0     H46407   4.777   7.520   5.496 -1.7227  1.1121 -0.1233
  352MOL0     H46408   4.922   7.615   5.530 -0.7789 -2.7042  1.6112
  352MOL0     H46409   4.858   7.774   5.352  1.2107  0.9787  1.4940
  352MOL0     H46410   4.759   7.777   5.493  3.4981 -1.0106  1.7188
  352MOL0     H46411   4.651   7.609   5.260 -1.6396 -1.0505  1.6297
  352MOL0     H46412   4.615   7.782   5.270  3.1856  1.5589  0.1965
  352MOL0     H46413   4.466   7.572   5.356 -0.0955  2.3077 -0.8930
  352MOL0     H46414   4.585   7.549   5.476  1.2701  1.1307  0.5354
  352MOL0     H46415   4.427   7.811   5.456  0.0267  0.8840  0.3069
  352MOL0     H46416   4.515   7.759   5.593 -1.7959 -0.6808  1.4249
  352MOL0     H46417   4.202   7.836   5.629  0.0333 -0.4374  0.7559
  352MOL0     H46418   4.053   7.775   5.821  1.4799 -0.4045  1.1614
  352MOL0     H46419   4.064   7.620   5.895  1.8498 -1.3236 -0.7289
  352MOL0     H46420   3.848   7.650   5.799 -0.3968 -0.0689 -1.1896
  352MOL0     H46421   3.936   7.531   5.693  6.1849  0.9666 -4.3188
  352MOL0     H46422   3.933   7.815   5.591 -0.8895 -0.4321  1.0837
  352MOL0     H46423   3.991   7.668   5.524 -0.1358  2.4773 -2.0771
  352MOL0     H46424   3.756   7.589   5.508  0.7799 -0.0903 -1.2349
  352MOL0     H46425   3.799   7.744   5.421  0.8694  1.6629  0.6783
  352MOL0     H46426   3.547   7.636   5.417 -2.0023  0.3727 -2.3620
  352MOL0     H46427   3.297   7.658   5.396 -1.0062  0.0842 -0.4229
  352MOL0     H46428   2.966   7.627   5.233 -2.0223  0.8216 -1.4896
  352MOL0     H46429   2.762   7.541   5.204  2.1900  0.6134 -1.4332
  352MOL0     H46430   2.502   7.485   5.572  2.5318 -0.0384 -0.2039
  352MOL0     H46431   2.571   7.349   5.484  0.1132 -0.6881 -1.7393
  352MOL0     H46432   2.291   7.483   5.428 -2.5799 -2.4933 -0.1067
  352MOL0     H46433   2.314   7.339   5.523 -0.3522  0.9791  1.4973
  352MOL0     H46434   2.439   7.233   5.348 -0.6982 -0.7354 -1.0515
  352MOL0     H46435   2.394   7.362   5.233  0.7471  0.6581  0.9742
  352MOL0     H46436   2.187   7.218   5.406 -2.8596 -1.1362 -0.9527
  352MOL0     H46437   2.149   7.331   5.276 -0.0171  0.3508  0.9718
  352MOL0     H46438   2.102   7.112   5.202 -0.7260  0.5677 -0.2490
  352MOL0     H46439   2.263   7.050   5.234 -1.6568 -2.2897 -1.4647
  352MOL0     H46440   2.359   7.214   5.079  0.7611 -2.9811  0.2139
  352MOL0     H46441   2.208   7.290   5.048  0.6962  0.3309 -0.2870
  352MOL0     H46442   2.329   7.043   4.946 -0.6862 -3.4114  2.1501
  352MOL0     H46443   2.174   6.999   5.009 -1.7575  0.5698 -0.3585
  352MOL0     H46444   2.187   7.056   4.753  2.2221 -1.5800  2.0779
  352MOL0     H46445   2.202   7.226   4.800 -3.0638  1.0865 -0.7698
  352MOL0     H46446   2.654   7.648   5.611  2.9022 -0.1878  2.4830
  352MOL0     H46447   2.860   7.759   5.631 -1.8013 -0.1972  1.0073
  352MOL0     H46448   3.301   7.979   5.692 -0.2954 -0.4208  0.8922
  352MOL0     H46449   3.537   7.955   5.696 -0.3968  0.2924  0.4371
  352MOL0     H46450   5.250   7.168   5.119  2.2542 -1.2367  0.6221
  352MOL0     H46451   5.472   7.132   4.987  1.1389  0.2689 -0.1129
  352MOL0     H46452   5.899   7.305   4.977 -2.5013  2.3553  0.3602
  352MOL0     H46453   6.130   7.332   4.910 -0.6370 -2.2173 -1.4235
  352MOL0     H46454   6.219   7.677   4.726  0.6687  0.1143 -5.2792
  352MOL0     H46455   6.376   7.618   4.675 -0.6630 -0.0076 -0.7013
  352MOL0     H46456   6.231   7.564   4.935  2.5869 -1.6495  2.8691
  352MOL0     H46457   6.387   7.495   4.888  1.1143  0.5628  0.8913
  352MOL0     H46458   6.441   7.671   5.040  1.1881  0.1900 -0.1022
  352MOL0     H46459   6.355   7.802   4.949  1.3062  1.1045 -0.8957
  352MOL0     H46460   6.559   7.628   4.825  0.3869 -0.1897 -0.8352
  352MOL0     H46461   6.500   7.789   4.767 -2.6186 -1.7663 -0.3287
  352MOL0     H46462   6.748   7.912   5.083 -1.2666 -0.7121  2.1371
  352MOL0     H46463   6.016   7.549   4.559 -2.1843 -1.9214 -0.2248
  352MOL0     H46464   5.790   7.517   4.626 -1.3338  1.6419  3.9705
  353MOL0     O46465   4.339   9.699   8.558 -0.1705 -0.4981 -0.5343
  353MOL0     C46466   4.347   9.598   8.489 -0.1732 -0.2137  0.6416
  353MOL0     O46467   4.237   9.512   8.454 -0.7407  0.2667 -0.0470
  353MOL0     C46468   4.105   9.551   8.484 -0.6603 -0.6046 -0.0195
  353MOL0     C46469   4.046   9.658   8.556 -0.0155 -0.2546  0.0508
  353MOL0     C46470   3.905   9.663   8.592  0.4884 -0.0157 -0.2833
  353MOL0     C46471   3.822   9.558   8.536 -1.0245 -0.8959  0.2573
  353MOL0     O46472   3.684   9.554   8.558 -0.1324  0.9806 -0.5180
  353MOL0     C46473   3.643   9.504   8.687  0.0296  0.6771 -0.3285
  353MOL0     C46474   3.581   9.618   8.766  0.5941 -0.6344 -0.3638
  353MOL0     C46475   3.595   9.601   8.916 -0.3600  0.3322  0.5841
  353MOL0     C46476   3.556   9.461   8.973  1.0047 -0.6702 -0.0286
  353MOL0     C46477   3.408   9.452   8.987 -0.2529  0.2899 -0.1861
  353MOL0     C46478   3.372   9.325   9.059 -0.2737  0.2078 -0.0032
  353MOL0     C46479   3.216   9.304   9.057  0.4080 -0.1904 -0.5558
  353MOL0     C46480   3.180   9.202   9.156  0.3400 -0.2579 -1.3182
  353MOL0     N46481   3.033   9.181   9.164  0.6559  0.8230 -0.2837
  353MOL0     C46482   2.950   9.244   9.248  0.3133 -0.4014 -0.3625
  353MOL0     C46483   2.818   9.220   9.208 -0.1818 -0.1579  0.8120
  353MOL0     C46484   2.678   9.266   9.251 -0.9198 -0.3818 -0.2930
  353MOL0     C46485   2.686   9.264   9.405  0.2428  0.3018  0.2646
  353MOL0     C46486   2.564   9.303   9.479  1.0912 -0.0285  0.4165
  353MOL0     C46487   2.549   9.456   9.486 -0.4294  0.0535 -0.2435
  353MOL0     O46488   2.473   9.484   9.602 -0.3205 -0.0934 -0.1429
  353MOL0     C46489   2.334   9.510   9.597  0.3422  0.1335  0.1654
  353MOL0     C46490   2.258   9.536   9.482  0.0164 -0.0116 -0.3451
  353MOL0     C46491   2.118   9.557   9.494 -1.0085  0.3319  0.0016
  353MOL0     C46492   2.052   9.557   9.617  0.3267  1.2113  0.2378
  353MOL0     C46493   1.904   9.573   9.624  0.6215 -0.1484  0.6422
  353MOL0     O46494   1.852   9.577   9.499 -0.0839 -0.5551 -0.5210
  353MOL0     C46495   1.717   9.583   9.470  0.2154  0.6306 -0.2752
  353MOL0     C46496   1.618   9.532   9.543  0.0581 -0.1627 -0.6499
  353MOL0     C46497   1.493   9.522   9.498  0.4621  0.0663 -0.8243
  353MOL0     C46498   1.456   9.560   9.362  0.1353 -0.6496  0.1652
  353MOL0     O46499   1.326   9.579   9.319 -0.2452 -0.0221 -0.1285
  353MOL0     C46500   1.227   9.535   9.411  0.8395  0.3346 -0.8914
  353MOL0     C46501   1.084   9.569   9.349  0.2083 -0.0873 -0.5051
  353MOL0     C46502   0.970   9.506   9.436 -0.0186 -0.9756  0.6344
  353MOL0     C46503   0.839   9.532   9.364  0.1646  0.7352 -0.1782
  353MOL0     C46504   0.731   9.465   9.443 -0.2043  0.2350 -0.2105
  353MOL0     C46505   0.711   9.518   9.582 -0.0414  0.6139 -0.8458
  353MOL0     C46506   0.566   9.476   9.635  0.0582  0.3877  0.2016
  353MOL0     C46507   0.522   9.582   9.737 -0.1215 -0.0768 -0.0598
  353MOL0    Cl46508   0.395   9.685   9.674  0.3430 -0.2734 -0.2636
  353MOL0     C46509   1.561   9.610   9.286  0.7711 -0.2009  1.2409
  353MOL0     C46510   1.691   9.621   9.339 -0.5045  0.6380  0.5393
  353MOL0     O46511   1.848   9.585   9.733 -0.2553  0.1620  0.6460
  353MOL0     C46512   2.128   9.528   9.732  0.4766  0.3185  0.1225
  353MOL0     C46513   2.267   9.505   9.719 -0.5886 -0.2471 -0.4354
  353MOL0     N46514   2.833   9.116   9.110  0.1825 -0.0737  0.2008
  353MOL0     N46515   2.963   9.100   9.081  0.1419  0.0674  0.9723
  353MOL0     C46516   3.884   9.455   8.469 -0.0807  0.1755  0.6890
  353MOL0     C46517   4.021   9.448   8.443 -0.2124  0.2632  0.7505
  353MOL0     C46518   4.489   9.553   8.458  0.6636 -0.1684  0.2769
  353MOL0     C46519   4.605   9.633   8.480  0.7408  0.6821 -0.0102
  353MOL0     C46520   4.727   9.591   8.433 -0.0361  0.0935 -0.6049
  353MOL0     C46521   4.757   9.476   8.362 -0.6600  0.5939 -0.6981
  353MOL0     O46522   4.885   9.447   8.318 -0.0391 -0.3394 -0.3319
  353MOL0     C46523   4.917   9.314   8.288 -1.0610 -0.0085  0.7715
  353MOL0     C46524   5.070   9.306   8.233 -0.2053 -0.5478 -0.1027
  353MOL0     C46525   5.102   9.173   8.160  0.1110 -1.0525 -0.9618
  353MOL0     C46526   5.259   9.165   8.160 -0.6937 -0.2126 -0.5124
  353MOL0     C46527   5.323   9.275   8.084  1.1444  0.4010  0.1693
  353MOL0     C46528   5.378   9.354   8.012 -0.0635 -0.5035  0.1079
  353MOL0     C46529   4.643   9.396   8.344 -0.0641 -0.8305 -0.8396
  353MOL0     C46530   4.506   9.434   8.381 -0.0820  0.2866  0.1306
  353MOL0     H46531   4.115   9.738   8.585  0.5070 -0.3703 -0.8281
  353MOL0     H46532   3.867   9.740   8.658 -1.6199  0.8025 -2.3101
  353MOL0     H46533   3.732   9.470   8.741 -0.1577  0.1072 -0.3815
  353MOL0     H46534   3.578   9.417   8.682  0.4185  0.4001 -0.5712
  353MOL0     H46535   3.478   9.611   8.731 -0.1601  0.0150  1.5969
  353MOL0     H46536   3.620   9.713   8.730  1.3194 -0.5507  0.5863
  353MOL0     H46537   3.531   9.669   8.974 -1.2520 -0.0755  0.0912
  353MOL0     H46538   3.698   9.626   8.946  0.3700  0.5281 -1.8474
  353MOL0     H46539   3.601   9.372   8.928  0.6478 -0.7991 -0.1373
  353MOL0     H46540   3.599   9.460   9.073  0.8520  0.8258  0.0635
  353MOL0     H46541   3.344   9.460   8.899 -2.7939 -2.0433  1.2898
  353MOL0     H46542   3.381   9.541   9.045 -0.4810  0.4127 -0.4800
  353MOL0     H46543   3.413   9.326   9.161  4.3516  3.5698 -1.5718
  353MOL0     H46544   3.428   9.248   9.006  1.1307 -0.2385  2.0087
  353MOL0     H46545   3.162   9.393   9.091  2.8515  0.6710  1.2931
  353MOL0     H46546   3.173   9.278   8.959  2.0392 -4.5784 -0.3318
  353MOL0     H46547   3.212   9.248   9.250 -1.6862  0.7746 -1.1016
  353MOL0     H46548   3.229   9.105   9.140 -0.0049 -0.2873 -2.2410
  353MOL0     H46549   2.977   9.309   9.331 -1.5177  0.5577 -0.4807
  353MOL0     H46550   2.605   9.195   9.211 -0.0942 -0.4342 -1.8024
  353MOL0     H46551   2.653   9.366   9.218  2.1733  0.3183 -0.8591
  353MOL0     H46552   2.765   9.336   9.428  0.8990 -0.7242  1.4071
  353MOL0     H46553   2.716   9.166   9.445  0.3699 -0.6547 -1.9975
  353MOL0     H46554   2.476   9.262   9.428  2.5375 -3.3833  0.3719
  353MOL0     H46555   2.561   9.266   9.582 -1.9175 -1.5691 -0.0937
  353MOL0     H46556   2.499   9.488   9.394  1.5620  2.0561 -0.7092
  353MOL0     H46557   2.646   9.504   9.498 -1.0868  0.6687  4.2317
  353MOL0     H46558   2.313   9.562   9.393 -1.1835  2.4086 -0.4445
  353MOL0     H46559   2.078   9.586   9.398  2.0371 -3.4091 -2.6954
  353MOL0     H46560   1.640   9.491   9.641 -1.3945  2.2505  0.8116
  353MOL0     H46561   1.429   9.496   9.582  0.5065  3.6500  0.5009
  353MOL0     H46562   1.235   9.590   9.505 -0.0023  1.9393 -1.7235
  353MOL0     H46563   1.233   9.429   9.438  1.6405  0.8116  0.9844
  353MOL0     H46564   1.076   9.522   9.250  1.3000  0.8961 -1.0825
  353MOL0     H46565   1.078   9.677   9.332  1.8950 -0.3773 -3.6613
  353MOL0     H46566   0.979   9.542   9.539  3.0726  0.6819 -0.0834
  353MOL0     H46567   0.978   9.397   9.443 -0.5620 -1.1301 -0.8472
  353MOL0     H46568   0.818   9.638   9.346 -1.4147  0.3530 -0.7584
  353MOL0     H46569   0.837   9.483   9.266 -1.6080  0.6348 -0.1217
  353MOL0     H46570   0.748   9.358   9.429  0.2658  0.5479 -2.3525
  353MOL0     H46571   0.632   9.482   9.399 -0.7556  1.2096  1.3274
  353MOL0     H46572   0.726   9.625   9.597 -1.0090  0.4609  1.7590
  353MOL0     H46573   0.788   9.471   9.644 -2.1867 -2.9726 -0.6225
  353MOL0     H46574   0.483   9.468   9.564 -1.8980  0.6800  2.3599
  353MOL0     H46575   0.569   9.380   9.686 -2.6749  1.4777  2.6795
  353MOL0     H46576   0.605   9.647   9.766 -0.9018  0.4359  1.1057
  353MOL0     H46577   0.496   9.534   9.832  3.5719  3.9585  3.4464
  353MOL0     H46578   1.552   9.642   9.182  1.3264 -0.2025  1.1896
  353MOL0     H46579   1.774   9.655   9.278 -0.3926 -0.4553  0.0472
  353MOL0     H46580   2.076   9.534   9.827 -0.9563 -2.4908 -0.3674
  353MOL0     H46581   2.318   9.493   9.814  0.4538  1.9530 -0.6793
  353MOL0     H46582   3.841   9.359   8.442  1.2928 -0.5195  0.9223
  353MOL0     H46583   4.058   9.364   8.386 -3.5765 -1.4679  0.8741
  353MOL0     H46584   4.602   9.730   8.530 -0.5932  0.6500  0.0167
  353MOL0     H46585   4.810   9.660   8.444  0.0222 -0.1605  0.7385
  353MOL0     H46586   4.840   9.268   8.227 -0.2503  0.3046 -0.5360
  353MOL0     H46587   4.928   9.249   8.376  0.7754  1.2454  1.5461
  353MOL0     H46588   5.072   9.389   8.162  1.7166  1.4280  2.0869
  353MOL0     H46589   5.139   9.323   8.316 -1.2795  0.2822  0.6590
  353MOL0     H46590   5.055   9.168   8.061 -0.8034 -4.4704 -0.4630
  353MOL0     H46591   5.049   9.090   8.206  0.2078 -0.7722 -0.3351
  353MOL0     H46592   5.305   9.157   8.259  1.6077  1.1563 -1.3947
  353MOL0     H46593   5.279   9.069   8.112  2.4435  0.9008 -1.6740
  353MOL0     H46594   5.419   9.431   7.949  0.4199 -1.8072 -1.2325
  353MOL0     H46595   4.634   9.307   8.282 -4.3599 -1.0893 -0.1548
  353MOL0     H46596   4.416   9.386   8.342  0.7891  0.4206 -2.2365
  354MOL0     O46597   3.989   9.218   5.769  0.1758 -0.4164 -0.5625
  354MOL0     C46598   4.046   9.284   5.685 -0.3935  0.0177 -0.3457
  354MOL0     O46599   3.988   9.361   5.590  0.8263 -0.1059 -0.3122
  354MOL0     C46600   3.855   9.362   5.599 -0.0959  0.0979  0.4845
  354MOL0     C46601   3.791   9.453   5.679  0.7405  0.4254 -0.3278
  354MOL0     C46602   3.654   9.459   5.679 -0.4841  0.0895  0.6692
  354MOL0     C46603   3.576   9.363   5.613  0.0245 -0.2300 -0.1110
  354MOL0     O46604   3.437   9.379   5.622  0.2361 -0.2605  0.1840
  354MOL0     C46605   3.358   9.319   5.518  1.2045 -0.7164  0.1451
  354MOL0     C46606   3.221   9.376   5.513 -0.2681  0.6523 -0.4999
  354MOL0     C46607   3.146   9.317   5.394  0.5783 -0.1179  0.0434
  354MOL0     C46608   2.988   9.349   5.380 -0.3170  0.6185 -0.8734
  354MOL0     C46609   2.929   9.295   5.251  0.5967 -0.4262  0.1912
  354MOL0     C46610   2.778   9.294   5.264  0.0323  0.1278  0.0424
  354MOL0     C46611   2.703   9.429   5.271  0.0777  0.4456 -0.4860
  354MOL0     C46612   2.712   9.497   5.407  0.2484  0.1987  0.1601
  354MOL0     N46613   2.579   9.545   5.439 -0.5961  0.7123 -0.0829
  354MOL0     C46614   2.537   9.676   5.418  0.1026  0.3745 -0.0586
  354MOL0     C46615   2.401   9.668   5.447 -0.5036 -0.4944 -0.1159
  354MOL0     C46616   2.310   9.780   5.436  0.5306  0.0845  0.4792
  354MOL0     C46617   2.357   9.899   5.528  0.0896  0.2449 -0.0147
  354MOL0     C46618   2.275   9.915   5.657 -0.2440 -0.6069  0.4824
  354MOL0     C46619   2.315   9.812   5.764 -0.5126 -0.0300 -0.2675
  354MOL0     O46620   2.242   9.806   5.891 -0.0490 -0.1188  0.2655
  354MOL0     C46621   2.126   9.737   5.897  0.5342  0.6413 -0.1462
  354MOL0     C46622   2.056   9.742   6.013  0.9409  0.2005  0.2023
  354MOL0     C46623   1.921   9.700   6.026 -0.5931 -0.4275  1.1020
  354MOL0     C46624   1.851   9.642   5.919  1.0314  0.6904  0.3889
  354MOL0     C46625   1.706   9.618   5.922  0.0716 -0.5994  0.4903
  354MOL0     O46626   1.649   9.601   5.799  0.3959 -0.4546  0.4129
  354MOL0     C46627   1.512   9.602   5.792  0.6154  0.2546 -0.1754
  354MOL0     C46628   1.438   9.483   5.810 -0.7522 -0.4875  0.1341
  354MOL0     C46629   1.296   9.487   5.792 -0.5943 -0.1101 -0.1443
  354MOL0     C46630   1.225   9.606   5.758  0.5028  0.0081 -0.7487
  354MOL0     O46631   1.090   9.622   5.738  0.2390 -0.1316  0.0292
  354MOL0     C46632   1.001   9.528   5.808  0.0719  0.5290  0.0977
  354MOL0     C46633   0.876   9.596   5.862 -0.3291 -0.8133  0.1267
  354MOL0     C46634   0.772   9.499   5.923 -0.7821 -1.0661  0.4292
  354MOL0     C46635   0.634   9.574   5.930  0.3648 -0.1720  0.5087
  354MOL0     C46636   0.525   9.477   5.975  0.1580  1.4954  0.9757
  354MOL0     C46637   0.387   9.534   5.931 -0.5294 -1.0806  0.1455
  354MOL0     C46638   0.282   9.436   5.963  0.1528 -0.0577 -0.6959
  354MOL0     C46639   0.136   9.490   5.940  0.4132 -0.3980  0.3683
  354MOL0    Cl46640   0.083   9.574   6.093  0.1676 -0.2950  0.0620
  354MOL0     C46641   1.300   9.727   5.750 -0.1191  0.0506 -0.1840
  354MOL0     C46642   1.452   9.716   5.752  0.0787  0.1352  0.6431
  354MOL0     O46643   1.645   9.604   6.027  0.3681 -0.2620  0.2258
  354MOL0     C46644   1.926   9.635   5.801 -0.8252  0.2174 -0.0277
  354MOL0     C46645   2.059   9.672   5.793  0.7104 -0.6407  0.1170
  354MOL0     N46646   2.372   9.542   5.478  0.3485 -0.6861  0.6602
  354MOL0     N46647   2.472   9.468   5.465  0.0618  0.0989 -0.7164
  354MOL0     C46648   3.645   9.265   5.540  0.8806  0.1997  0.9605
  354MOL0     C46649   3.788   9.257   5.542 -0.2847 -0.1614  0.4663
  354MOL0     C46650   4.196   9.281   5.682  0.2577 -0.3259  0.4186
  354MOL0     C46651   4.269   9.362   5.591 -0.3321  0.3704  0.4000
  354MOL0     C46652   4.398   9.375   5.602  0.0255  0.9085 -0.1850
  354MOL0     C46653   4.469   9.301   5.701 -0.6199 -0.1752  0.4845
  354MOL0     O46654   4.607   9.304   5.715 -0.2137 -0.4330 -0.7278
  354MOL0     C46655   4.693   9.388   5.626 -0.2374  0.4339  0.0685
  354MOL0     C46656   4.843   9.371   5.658 -0.4521  0.0111  0.0371
  354MOL0     C46657   4.894   9.224   5.653  0.8443  0.3317  0.4303
  354MOL0     C46658   5.044   9.210   5.675 -0.2779 -0.0813 -0.9796
  354MOL0     C46659   5.093   9.279   5.793 -0.0045 -0.1647  0.7146
  354MOL0     C46660   5.143   9.335   5.890  0.2163 -0.0202  0.1198
  354MOL0     C46661   4.401   9.214   5.784 -0.8119 -0.0794  0.0719
  354MOL0     C46662   4.267   9.202   5.776  0.6009 -0.4527 -0.6134
  354MOL0     H46663   3.859   9.520   5.731  1.0227 -1.7784  2.3390
  354MOL0     H46664   3.604   9.539   5.732 -1.7059  1.0998 -1.8433
  354MOL0     H46665   3.341   9.213   5.539  0.5202 -0.3261  1.6570
  354MOL0     H46666   3.403   9.338   5.420 -0.3230 -0.6718 -0.5775
  354MOL0     H46667   3.229   9.485   5.512 -1.1091  0.7149 -1.7282
  354MOL0     H46668   3.173   9.364   5.611 -3.0927  2.2991 -1.5728
  354MOL0     H46669   3.157   9.208   5.390 -2.7120 -0.5461  0.1878
  354MOL0     H46670   3.204   9.357   5.310  1.7429  1.7241  1.6257
  354MOL0     H46671   2.937   9.293   5.459 -0.0900  1.6635  0.0227
  354MOL0     H46672   2.968   9.456   5.373 -0.2957  0.5136 -4.5283
  354MOL0     H46673   2.965   9.192   5.237  1.5108 -0.6398  3.3987
  354MOL0     H46674   2.959   9.357   5.166 -1.0027 -2.3729 -1.9294
  354MOL0     H46675   2.751   9.228   5.347  1.1095  2.1070  2.0969
  354MOL0     H46676   2.742   9.245   5.173  0.4986 -0.1959  0.0257
  354MOL0     H46677   2.736   9.504   5.198  0.1901  3.1095  2.0972
  354MOL0     H46678   2.603   9.400   5.237 -0.5708  1.0103  0.8786
  354MOL0     H46679   2.791   9.571   5.419  0.8554 -0.5252  0.7031
  354MOL0     H46680   2.721   9.409   5.471 -4.7827  0.2235  1.2955
  354MOL0     H46681   2.601   9.760   5.393 -0.3950  0.5422 -0.8034
  354MOL0     H46682   2.206   9.754   5.455  0.6841 -1.4927 -0.7011
  354MOL0     H46683   2.316   9.821   5.335 -0.0699  1.2588  0.8963
  354MOL0     H46684   2.335   9.988   5.469 -0.1551 -0.6076 -1.2554
  354MOL0     H46685   2.463   9.887   5.550  0.9611 -0.3013 -3.7854
  354MOL0     H46686   2.286  10.014   5.703  0.4690 -0.5224  0.1357
  354MOL0     H46687   2.170   9.891   5.640 -0.3492 -1.9221  2.6195
  354MOL0     H46688   2.421   9.835   5.778 -0.2112 -1.4103 -0.1867
  354MOL0     H46689   2.309   9.711   5.724  0.2983 -0.9291  1.7417
  354MOL0     H46690   2.100   9.790   6.099  1.3250  1.3272 -0.6068
  354MOL0     H46691   1.879   9.715   6.124  1.8989 -1.3623  2.4028
  354MOL0     H46692   1.501   9.397   5.826  1.0696  1.0785  1.8719
  354MOL0     H46693   1.245   9.391   5.799  0.2864 -0.6079 -0.3917
  354MOL0     H46694   1.046   9.481   5.896 -2.0340  0.2067  1.0457
  354MOL0     H46695   0.971   9.457   5.731  0.7768  0.8089 -0.4530
  354MOL0     H46696   0.819   9.649   5.784  0.1706 -1.5805 -0.7774
  354MOL0     H46697   0.917   9.668   5.933 -1.6667  1.0460 -0.8890
  354MOL0     H46698   0.803   9.470   6.024  1.7810  2.8854  1.0043
  354MOL0     H46699   0.759   9.409   5.862 -0.7783 -1.1685  0.5771
  354MOL0     H46700   0.638   9.647   6.011  2.8388 -0.2344  0.5327
  354MOL0     H46701   0.615   9.626   5.835 -0.0697  2.6811  2.0506
  354MOL0     H46702   0.536   9.469   6.083 -0.8354  1.5063  1.0786
  354MOL0     H46703   0.540   9.381   5.924 -2.1714  0.5554  1.9423
  354MOL0     H46704   0.391   9.557   5.824 -2.6460 -1.1948 -0.0025
  354MOL0     H46705   0.357   9.619   5.992 -1.6270 -2.8368  2.1849
  354MOL0     H46706   0.286   9.358   5.886  0.1023  1.8606 -2.7325
  354MOL0     H46707   0.291   9.396   6.065  2.6092  0.3145 -0.7051
  354MOL0     H46708   0.070   9.405   5.926  0.4773 -0.5250  0.8231
  354MOL0     H46709   0.141   9.565   5.861 -1.3076 -1.1417 -0.4845
  354MOL0     H46710   1.248   9.821   5.757  1.4239  1.3580 -3.9389
  354MOL0     H46711   1.495   9.810   5.718 -0.6173 -0.5396 -2.4244
  354MOL0     H46712   1.882   9.588   5.713 -1.2838  3.2926 -1.5651
  354MOL0     H46713   2.114   9.647   5.703  3.0477 -2.9320  2.0482
  354MOL0     H46714   3.590   9.187   5.488  3.2784 -1.0386  0.1123
  354MOL0     H46715   3.834   9.177   5.486  0.1166  1.6713 -1.9978
  354MOL0     H46716   4.220   9.419   5.512  1.0448 -1.4837 -1.9137
  354MOL0     H46717   4.458   9.446   5.546  0.9463  1.2824  1.2049
  354MOL0     H46718   4.680   9.496   5.616  0.7804  0.5088 -0.6789
  354MOL0     H46719   4.681   9.351   5.523 -1.2233  0.6995  0.0802
  354MOL0     H46720   4.899   9.433   5.587 -2.2704  1.4934 -0.1946
  354MOL0     H46721   4.875   9.412   5.755  0.5445  0.7615 -0.5905
  354MOL0     H46722   4.884   9.181   5.552 -1.4856 -0.5865  0.9698
  354MOL0     H46723   4.834   9.156   5.714  1.2091  0.1850  0.6296
  354MOL0     H46724   5.079   9.107   5.670  0.1283 -0.1638  1.7915
  354MOL0     H46725   5.084   9.268   5.591  1.0104  1.7378  0.7883
  354MOL0     H46726   5.191   9.386   5.970  2.2787  0.5308 -1.3894
  354MOL0     H46727   4.454   9.150   5.854 -0.1634 -0.5996 -0.8737
  354MOL0     H46728   4.218   9.137   5.848 -1.3081  2.5973  1.0822
  355MOL0     O46729   5.407   5.733  11.137 -0.7534 -0.4223  0.6086
  355MOL0     C46730   5.360   5.643  11.204 -0.2488  0.3936  0.4952
  355MOL0     O46731   5.232   5.629  11.255 -0.1308 -0.1726 -0.3965
  355MOL0     C46732   5.145   5.731  11.233  0.4711 -0.3226  0.9054
  355MOL0     C46733   5.106   5.812  11.339  0.5104 -0.9651  0.0495
  355MOL0     C46734   5.006   5.906  11.317 -0.8170  0.1555 -0.6108
  355MOL0     C46735   4.951   5.931  11.187  0.5309  0.3826 -0.1256
  355MOL0     O46736   4.855   6.022  11.144 -0.2979 -0.1552  0.0447
  355MOL0     C46737   4.843   6.125  11.236 -0.0237  0.8670  0.7371
  355MOL0     C46738   4.751   6.232  11.186  0.4098  0.3562 -0.9735
  355MOL0     C46739   4.606   6.176  11.178  0.2484  0.4995  0.9602
  355MOL0     C46740   4.511   6.279  11.141  0.2683  0.6382 -0.0959
  355MOL0     C46741   4.369   6.232  11.134 -0.4950 -0.5298  0.3686
  355MOL0     C46742   4.269   6.345  11.117  0.6558 -0.4553  0.2966
  355MOL0     C46743   4.124   6.295  11.068 -0.3895 -0.4009 -0.1363
  355MOL0     C46744   4.051   6.204  11.179  0.2253 -0.4872  0.7882
  355MOL0     N46745   3.953   6.125  11.123  0.0381 -0.0753  0.5970
  355MOL0     C46746   3.895   6.016  11.189  0.4615 -0.8024 -1.6613
  355MOL0     C46747   3.793   5.977  11.120  0.2526  0.0729  0.0534
  355MOL0     C46748   3.701   5.869  11.165 -0.5502  0.4108 -0.1621
  355MOL0     C46749   3.561   5.922  11.192  0.8235 -1.1671  1.0226
  355MOL0     C46750   3.467   5.801  11.234 -0.5478 -0.2486 -0.1551
  355MOL0     C46751   3.328   5.849  11.261  1.0367 -0.5789 -0.1605
  355MOL0     O46752   3.267   5.890  11.136  0.1244 -0.3592 -0.3756
  355MOL0     C46753   3.131   5.886  11.117 -0.2126  0.8628 -0.0989
  355MOL0     C46754   3.031   5.884  11.223 -0.6983 -0.3617 -0.3378
  355MOL0     C46755   2.898   5.893  11.195 -0.8029 -0.0956 -0.3814
  355MOL0     C46756   2.860   5.888  11.067 -0.1146 -0.5324  0.6437
  355MOL0     C46757   2.724   5.893  11.020 -0.1729 -0.2049 -0.0652
  355MOL0     O46758   2.635   5.850  11.108 -0.4555  0.0003 -0.2301
  355MOL0     C46759   2.508   5.824  11.063 -1.8881 -0.6542 -0.0844
  355MOL0     C46760   2.416   5.827  11.166  0.9273  0.2053 -0.1849
  355MOL0     C46761   2.282   5.787  11.145  0.7397 -0.1745 -0.1011
  355MOL0     C46762   2.228   5.750  11.020 -1.1760 -0.3199 -0.0612
  355MOL0     O46763   2.094   5.719  10.996 -0.4293 -0.1852 -0.0453
  355MOL0     C46764   2.072   5.611  10.906 -0.5479  0.3253  0.2882
  355MOL0     C46765   1.928   5.564  10.915 -0.3882  0.0576  0.0547
  355MOL0     C46766   1.893   5.499  10.785 -0.1459  0.2852  0.6499
  355MOL0     C46767   1.752   5.439  10.781 -0.2898 -0.4433 -0.5567
  355MOL0     C46768   1.714   5.381  10.645  0.0923  0.0329 -0.1795
  355MOL0     C46769   1.568   5.335  10.632 -0.3487 -1.0006 -0.6864
  355MOL0     C46770   1.528   5.273  10.504  0.0795  0.1814 -0.2385
  355MOL0     C46771   1.383   5.226  10.508  0.0429 -0.0407 -0.1150
  355MOL0    Cl46772   1.269   5.356  10.548  0.3249  0.1618  0.1366
  355MOL0     C46773   2.325   5.745  10.915  0.4456  0.4116 -0.3628
  355MOL0     C46774   2.460   5.779  10.936  0.2722 -0.4414 -0.3549
  355MOL0     O46775   2.697   5.945  10.908 -0.1559 -0.2668 -0.1191
  355MOL0     C46776   2.956   5.881  10.961 -0.3818  0.3000  0.4104
  355MOL0     C46777   3.090   5.877  10.984  0.4767 -0.7624 -0.3699
  355MOL0     N46778   3.798   6.050  10.999 -0.0816 -0.7921 -0.1296
  355MOL0     N46779   3.891   6.142  11.002  0.5226 -0.2874  0.1040
  355MOL0     C46780   4.994   5.849  11.077  0.8313  0.3522 -0.6246
  355MOL0     C46781   5.089   5.749  11.105 -0.3155  1.4549  0.3218
  355MOL0     C46782   5.460   5.534  11.238  0.5869  0.1180  0.0932
  355MOL0     C46783   5.596   5.563  11.254 -1.2798  0.2157  0.1701
  355MOL0     C46784   5.690   5.461  11.286  1.1476  0.0078  0.1622
  355MOL0     C46785   5.660   5.320  11.286 -0.0587 -0.1665 -0.6526
  355MOL0     O46786   5.740   5.208  11.314  0.4365 -1.0454 -0.2110
  355MOL0     C46787   5.883   5.225  11.290  0.6607  0.4125  0.1853
  355MOL0     C46788   5.944   5.090  11.240 -0.2711  0.1134 -0.5515
  355MOL0     C46789   6.092   5.110  11.198  0.4102 -0.0196 -0.3499
  355MOL0     C46790   6.186   5.045  11.297 -0.7195 -0.7080 -0.6078
  355MOL0     C46791   6.317   5.065  11.234 -0.0683 -0.2840  0.4147
  355MOL0     C46792   6.418   5.081  11.176  0.1004 -0.0555  0.9661
  355MOL0     C46793   5.528   5.290  11.254 -0.2923 -0.0253  0.3062
  355MOL0     C46794   5.427   5.394  11.251  0.3641  0.0083  0.0321
  355MOL0     H46795   5.153   5.807  11.437 -1.2706 -3.1003  0.8704
  355MOL0     H46796   4.966   5.963  11.401  1.5973  0.7174  0.2416
  355MOL0     H46797   4.942   6.171  11.250 -0.0840  2.0495 -2.0065
  355MOL0     H46798   4.796   6.083  11.325 -1.7432  1.3015  0.0592
  355MOL0     H46799   4.785   6.265  11.087  0.7913  0.9587 -0.6515
  355MOL0     H46800   4.742   6.318  11.253 -4.9841  0.5437 -1.5218
  355MOL0     H46801   4.580   6.131  11.274  1.7627 -1.1167  0.6725
  355MOL0     H46802   4.607   6.095  11.104  1.8576  0.5963  0.8357
  355MOL0     H46803   4.510   6.366  11.208 -3.4098 -0.3134  1.3026
  355MOL0     H46804   4.539   6.305  11.039  0.2502  0.1679 -0.2235
  355MOL0     H46805   4.340   6.162  11.213  0.6677 -1.6933 -0.1806
  355MOL0     H46806   4.367   6.181  11.037 -1.1147  0.3335 -0.0842
  355MOL0     H46807   4.309   6.413  11.040 -1.8587 -1.9293 -2.5426
  355MOL0     H46808   4.253   6.398  11.211  0.3670 -0.3068  0.1658
  355MOL0     H46809   4.073   6.392  11.060  0.6917  0.3763  1.7273
  355MOL0     H46810   4.153   6.246  10.974  2.8503 -1.7096  1.3884
  355MOL0     H46811   4.002   6.276  11.244  1.4396  0.3786  0.7945
  355MOL0     H46812   4.111   6.136  11.241 -1.2122 -0.3720  2.3659
  355MOL0     H46813   3.919   5.975  11.286 -1.1582  2.9422  0.5471
  355MOL0     H46814   3.740   5.810  11.249 -1.0792  3.8229  2.7144
  355MOL0     H46815   3.698   5.803  11.078 -0.1870 -2.4080  1.8111
  355MOL0     H46816   3.526   5.970  11.100  1.5737 -0.7914  0.9236
  355MOL0     H46817   3.547   5.996  11.271 -0.9227 -1.1799  0.7632
  355MOL0     H46818   3.465   5.730  11.150 -0.3785  1.0364 -1.2776
  355MOL0     H46819   3.511   5.759  11.325 -3.4086 -0.3579  1.2925
  355MOL0     H46820   3.321   5.923  11.342 -1.2644 -0.0506 -0.7704
  355MOL0     H46821   3.276   5.761  11.302  0.5122  0.6957  2.1034
  355MOL0     H46822   3.078   5.888  11.321 -2.6779 -1.2735  0.6918
  355MOL0     H46823   2.829   5.912  11.276  1.0982 -0.3435  1.4030
  355MOL0     H46824   2.440   5.866  11.264 -3.6331  1.5102  0.6452
  355MOL0     H46825   2.221   5.784  11.234  0.5172  2.2433 -0.1108
  355MOL0     H46826   2.143   5.530  10.924  1.1845  0.6874 -3.8573
  355MOL0     H46827   2.085   5.639  10.801  1.6579  1.3761  0.7814
  355MOL0     H46828   1.870   5.656  10.925 -0.0051  0.1678  1.5056
  355MOL0     H46829   1.910   5.508  11.007 -1.3288  2.1303  1.1947
  355MOL0     H46830   1.970   5.433  10.743  2.4323  1.7230  2.8058
  355MOL0     H46831   1.886   5.584  10.717 -1.0099 -0.7283 -0.5803
  355MOL0     H46832   1.746   5.370  10.865  3.8483  1.3795  1.5051
  355MOL0     H46833   1.684   5.521  10.805 -1.1681 -1.0014 -1.0755
  355MOL0     H46834   1.784   5.300  10.623  2.2848  1.5159  0.9780
  355MOL0     H46835   1.724   5.459  10.569 -0.2162 -0.3976 -0.6703
  355MOL0     H46836   1.509   5.426  10.647 -0.9468 -1.3987 -0.5848
  355MOL0     H46837   1.549   5.257  10.706  2.2201 -1.0513  0.0199
  355MOL0     H46838   1.539   5.343  10.420  0.3149  1.7575  1.0631
  355MOL0     H46839   1.588   5.186  10.477  4.8311  3.5106 -1.8707
  355MOL0     H46840   1.384   5.139  10.574  1.6686 -0.4939 -0.6767
  355MOL0     H46841   1.360   5.192  10.407  3.0407  3.6331 -2.3098
  355MOL0     H46842   2.303   5.723  10.811  1.8185  1.8884 -1.0145
  355MOL0     H46843   2.520   5.769  10.846 -1.3274  1.2796 -1.7202
  355MOL0     H46844   2.927   5.867  10.857  2.2171 -1.6059 -0.1375
  355MOL0     H46845   3.162   5.870  10.903  4.1131  0.2891  2.5022
  355MOL0     H46846   4.948   5.870  10.981  0.2526  2.4109  0.0468
  355MOL0     H46847   5.108   5.668  11.035 -1.7914  0.8015  0.6231
  355MOL0     H46848   5.624   5.667  11.244 -4.2190  0.9012 -2.2843
  355MOL0     H46849   5.794   5.492  11.295  0.7996  0.9409  1.0794
  355MOL0     H46850   5.920   5.255  11.388 -0.3818  1.1820  0.3640
  355MOL0     H46851   5.901   5.319  11.237  0.5021  0.6552  0.5604
  355MOL0     H46852   5.926   5.013  11.316 -1.8570  0.4061 -0.5961
  355MOL0     H46853   5.888   5.054  11.154  1.3755  1.1368 -2.1293
  355MOL0     H46854   6.108   5.218  11.193 -1.1064  0.2401 -0.0835
  355MOL0     H46855   6.101   5.070  11.096 -0.3593  1.3973 -1.0008
  355MOL0     H46856   6.195   5.089  11.396  2.6079  0.1966 -1.1932
  355MOL0     H46857   6.163   4.940  11.317  3.3772 -2.1403 -2.3407
  355MOL0     H46858   6.516   5.083  11.131  0.5610 -2.0913  1.7891
  355MOL0     H46859   5.503   5.185  11.264 -1.3432 -0.0745 -2.2303
  355MOL0     H46860   5.322   5.367  11.239  0.7322 -0.6023 -2.1330
  356MOL0     O46861   4.432   9.770  10.293  0.3081  0.4086  0.2048
  356MOL0     C46862   4.506   9.694  10.355  1.5643  0.2205  0.4486
  356MOL0     O46863   4.476   9.569  10.382 -0.2128  0.8965  0.4485
  356MOL0     C46864   4.382   9.494  10.322 -0.5893 -0.5489  0.7925
  356MOL0     C46865   4.256   9.547  10.292 -0.0440  0.5424  0.0554
  356MOL0     C46866   4.153   9.453  10.254 -0.2741 -0.0840  0.0855
  356MOL0     C46867   4.183   9.320  10.228 -0.0536 -0.2757  0.6827
  356MOL0     O46868   4.099   9.234  10.166 -0.4463  0.0494 -0.1372
  356MOL0     C46869   3.967   9.279  10.138  0.2922 -0.5746  0.2865
  356MOL0     C46870   3.893   9.151  10.088  0.0190  0.2369  0.0625
  356MOL0     C46871   3.747   9.187  10.053  0.0781  0.0338 -0.1294
  356MOL0     C46872   3.656   9.109  10.161  0.0298 -0.4088 -0.4908
  356MOL0     C46873   3.505   9.133  10.136  0.0360  0.1224 -0.4117
  356MOL0     C46874   3.446   9.033  10.037 -0.2738  0.2097  0.3049
  356MOL0     C46875   3.288   9.025  10.044  0.6027 -0.0037  0.2966
  356MOL0     C46876   3.214   8.931   9.942 -0.0159  0.1990  1.0252
  356MOL0     N46877   3.073   8.963   9.911 -0.0899 -0.3451  0.4959
  356MOL0     C46878   3.049   9.079   9.847  0.5028  0.2652  0.6257
  356MOL0     C46879   2.912   9.087   9.835 -0.9279  0.6691  0.1728
  356MOL0     C46880   2.821   9.201   9.789 -0.1731  0.3251 -0.4393
  356MOL0     C46881   2.917   9.315   9.746 -0.1814 -0.4205  0.4399
  356MOL0     C46882   2.844   9.441   9.727 -0.3727  0.2884 -0.4315
  356MOL0     C46883   2.944   9.550   9.689 -0.4625  0.3245 -0.6492
  356MOL0     O46884   2.984   9.624   9.810  0.3344  0.0514 -0.0399
  356MOL0     C46885   3.102   9.691   9.807 -0.3542 -1.0430 -0.1966
  356MOL0     C46886   3.159   9.757   9.692 -0.3471  0.0186  0.7765
  356MOL0     C46887   3.293   9.816   9.699  0.1736  0.4190  1.2260
  356MOL0     C46888   3.363   9.823   9.817 -0.0744 -0.2893 -0.9753
  356MOL0     C46889   3.498   9.874   9.819 -1.1592 -0.1353  0.1724
  356MOL0     O46890   3.552   9.934   9.707  0.3577 -1.1241 -0.3142
  356MOL0     C46891   3.685   9.976   9.713 -0.4411  0.1471  0.1771
  356MOL0     C46892   3.740  10.070   9.804 -0.0448  0.1292  0.2485
  356MOL0     C46893   3.863  10.130   9.773  0.0820 -0.3628  0.5400
  356MOL0     C46894   3.938  10.092   9.650  0.1872 -0.3369 -0.1248
  356MOL0     O46895   4.063  10.150   9.612 -0.0772  0.9937  0.6571
  356MOL0     C46896   4.138  10.254   9.675  0.0990 -0.1851 -0.3388
  356MOL0     C46897   4.239  10.314   9.582 -0.7949 -0.5998  0.1045
  356MOL0     C46898   4.369  10.351   9.638 -0.2321 -0.3564 -0.3886
  356MOL0     C46899   4.463  10.407   9.533 -0.2427  0.0781 -0.0943
  356MOL0     C46900   4.601  10.463   9.586 -0.6042 -0.2977  0.5125
  356MOL0     C46901   4.714  10.493   9.479  0.4485  0.3399 -0.8977
  356MOL0     C46902   4.667  10.607   9.380 -0.0261  0.3291  0.3720
  356MOL0     C46903   4.653  10.742   9.440  0.6383  0.5440  0.0759
  356MOL0    Cl46904   4.820  10.813   9.445 -0.2842 -0.5567 -0.0184
  356MOL0     C46905   3.884   9.994   9.567 -0.3536  0.2095 -0.4310
  356MOL0     C46906   3.763   9.936   9.596  0.5209 -1.2285 -0.1493
  356MOL0     O46907   3.571   9.850   9.916 -0.2609  0.4160 -0.5943
  356MOL0     C46908   3.301   9.762   9.933  0.7547  0.0746 -0.0345
  356MOL0     C46909   3.173   9.703   9.930 -1.1611 -0.8294 -0.5111
  356MOL0     N46910   2.861   8.971   9.892 -0.2160  0.1369 -0.3940
  356MOL0     N46911   2.956   8.903   9.933 -0.0977 -0.2218 -0.0324
  356MOL0     C46912   4.311   9.270  10.255 -1.2993  0.5788  0.9497
  356MOL0     C46913   4.409   9.358  10.306  0.3123  0.6634  0.2399
  356MOL0     C46914   4.639   9.750  10.401 -0.7883 -0.3176  0.3731
  356MOL0     C46915   4.662   9.885  10.425 -0.2416 -0.0204 -0.3631
  356MOL0     C46916   4.784   9.933  10.477  0.3268 -0.4415  0.6168
  356MOL0     C46917   4.873   9.843  10.530 -0.7262 -0.2579  0.2972
  356MOL0     O46918   4.993   9.891  10.584 -0.6585  0.0535 -0.0366
  356MOL0     C46919   5.040  10.013  10.535  0.7848  0.1551  0.4453
  356MOL0     C46920   5.195  10.008  10.583  0.4391 -0.6081  1.2279
  356MOL0     C46921   5.222  10.071  10.712  0.0686  0.2577 -0.6091
  356MOL0     C46922   5.221  10.217  10.716  0.4363  0.1716 -0.7630
  356MOL0     C46923   5.348  10.264  10.652 -0.2870 -0.1303  0.2303
  356MOL0     C46924   5.440  10.316  10.600 -0.5173  0.0869  0.6707
  356MOL0     C46925   4.856   9.706  10.513  0.1091 -0.5510  0.0764
  356MOL0     C46926   4.741   9.656  10.448  0.2904 -0.1048 -0.0600
  356MOL0     H46927   4.218   9.648  10.306 -0.2695  0.3176  1.2365
  356MOL0     H46928   4.051   9.484  10.240 -0.5480  0.8527  3.3200
  356MOL0     H46929   3.980   9.356  10.061 -0.5406 -2.5368 -1.9601
  356MOL0     H46930   3.910   9.325  10.219  0.0252  0.6846 -0.5940
  356MOL0     H46931   3.908   9.068  10.156  2.7583 -1.6326 -2.5841
  356MOL0     H46932   3.935   9.128   9.990  0.8080  2.3664 -0.1459
  356MOL0     H46933   3.727   9.142   9.955  0.2857 -0.4605  0.0514
  356MOL0     H46934   3.729   9.294  10.065 -0.6410 -0.2007  1.0482
  356MOL0     H46935   3.670   9.000  10.158 -1.0465 -0.6798  1.9806
  356MOL0     H46936   3.688   9.141  10.261 -0.1436  3.1676 -1.4699
  356MOL0     H46937   3.491   9.235  10.098 -0.7812  0.3732  0.5278
  356MOL0     H46938   3.452   9.127  10.231 -0.0630 -1.9319 -0.5552
  356MOL0     H46939   3.480   8.932  10.063  0.3592 -1.0920 -4.5092
  356MOL0     H46940   3.484   9.052   9.936 -1.6485 -0.1676 -0.3108
  356MOL0     H46941   3.262   8.990  10.144  3.2316  2.3641  1.9434
  356MOL0     H46942   3.240   9.123  10.043  1.2753  0.3312 -0.4971
  356MOL0     H46943   3.228   8.825   9.965  0.7957 -0.0500 -0.4509
  356MOL0     H46944   3.255   8.950   9.842 -0.1276  0.9244  1.1103
  356MOL0     H46945   3.122   9.141   9.796  1.9669 -2.7027 -1.1147
  356MOL0     H46946   2.757   9.237   9.870  0.7005  1.7898 -0.3634
  356MOL0     H46947   2.767   9.173   9.698 -0.3356  3.3485 -1.3947
  356MOL0     H46948   2.964   9.282   9.653 -0.9848 -0.4775  0.0431
  356MOL0     H46949   3.001   9.325   9.816  0.5335  0.6437 -0.5441
  356MOL0     H46950   2.784   9.434   9.636 -0.4539 -1.5587 -0.2885
  356MOL0     H46951   2.780   9.462   9.813  1.1837  0.4094  0.7381
  356MOL0     H46952   2.903   9.624   9.619 -0.8604  1.4054  0.7013
  356MOL0     H46953   3.031   9.510   9.636 -0.2882  2.8392 -2.4363
  356MOL0     H46954   3.100   9.764   9.601  0.2506  0.6692  0.4303
  356MOL0     H46955   3.323   9.862   9.606  0.5688  0.7654  1.5212
  356MOL0     H46956   3.684  10.082   9.896 -1.8861  0.0532 -0.8046
  356MOL0     H46957   3.901  10.211   9.834  0.3432 -0.9932  1.2301
  356MOL0     H46958   4.190  10.222   9.766  0.9584  1.0125 -0.3857
  356MOL0     H46959   4.078  10.343   9.700  1.5707  1.3515 -2.0268
  356MOL0     H46960   4.189  10.410   9.562  0.0404  1.2620  5.4280
  356MOL0     H46961   4.258  10.246   9.499 -1.1440 -0.7422  0.1388
  356MOL0     H46962   4.417  10.257   9.667 -1.2954 -1.3902 -1.8206
  356MOL0     H46963   4.363  10.424   9.719  0.8798  1.0714 -1.5352
  356MOL0     H46964   4.486  10.331   9.458  0.5158  0.0464  0.1613
  356MOL0     H46965   4.414  10.492   9.484  0.6002  0.5280 -0.1818
  356MOL0     H46966   4.640  10.392   9.658 -1.3325 -1.5509 -0.2799
  356MOL0     H46967   4.586  10.554   9.645 -4.2150 -0.1154 -0.4083
  356MOL0     H46968   4.749  10.404   9.425  3.4067  1.5380 -1.1363
  356MOL0     H46969   4.801  10.530   9.534  0.4558  3.8018 -2.9492
  356MOL0     H46970   4.730  10.614   9.291  1.9956  0.1841  1.7120
  356MOL0     H46971   4.563  10.586   9.354  0.3514 -2.6431  0.9278
  356MOL0     H46972   4.606  10.738   9.538  2.2883  1.0137  0.9161
  356MOL0     H46973   4.591  10.805   9.376 -0.5359 -1.2128 -0.5927
  356MOL0     H46974   3.942   9.943   9.491  1.5012  0.2240  0.9000
  356MOL0     H46975   3.713   9.864   9.531 -2.7641 -0.1140  0.9325
  356MOL0     H46976   3.360   9.757  10.024  2.5826  0.5425 -1.1452
  356MOL0     H46977   3.137   9.676  10.029 -1.0773  1.8189  0.3332
  356MOL0     H46978   4.346   9.170  10.232  0.4233  1.1852  0.7707
  356MOL0     H46979   4.508   9.325  10.337  0.3822  0.6291 -0.0132
  356MOL0     H46980   4.583   9.952  10.392 -1.1510 -1.5027 -1.2782
  356MOL0     H46981   4.789  10.041  10.487 -0.6822 -0.5050  2.2387
  356MOL0     H46982   4.977  10.097  10.568 -2.2786 -1.6025 -0.5051
  356MOL0     H46983   5.035  10.010  10.426  0.0278 -2.2006  0.4904
  356MOL0     H46984   5.245   9.911  10.573  0.0841 -0.7014  0.2203
  356MOL0     H46985   5.244  10.066  10.505  0.3479 -2.2285 -0.0921
  356MOL0     H46986   5.314  10.030  10.755  1.8726  2.9496 -1.6260
  356MOL0     H46987   5.148  10.033  10.783  0.3733 -0.3329 -0.6068
  356MOL0     H46988   5.137  10.255  10.657 -0.5579 -0.1122  0.4511
  356MOL0     H46989   5.215  10.248  10.820 -1.1526  2.3101 -1.4311
  356MOL0     H46990   5.528  10.346  10.548 -2.8924  1.0311 -3.1927
  356MOL0     H46991   4.939   9.644  10.545  0.1900 -0.2005  0.5513
  356MOL0     H46992   4.712   9.552  10.444 -1.0058  0.2477 -0.3134
  357MOL0     O46993   7.627   4.110  10.410 -0.2393 -0.1327  0.1687
  357MOL0     C46994   7.520   4.111  10.473  0.7106  0.5467 -0.1865
  357MOL0     O46995   7.402   4.034  10.442 -0.2647  0.4583 -0.1766
  357MOL0     C46996   7.403   3.928  10.351 -0.4321 -0.1096  0.2112
  357MOL0     C46997   7.508   3.840  10.311  0.5116 -0.4898 -0.1129
  357MOL0     C46998   7.493   3.751  10.204  0.2828 -0.1528 -0.3426
  357MOL0     C46999   7.377   3.749  10.129 -0.3412  0.2705 -0.2559
  357MOL0     O47000   7.353   3.665  10.030 -0.2147  0.4310  0.0800
  357MOL0     C47001   7.277   3.548  10.062 -0.1467  1.7419  0.2499
  357MOL0     C47002   7.319   3.435   9.960 -0.5438  0.8869 -0.0680
  357MOL0     C47003   7.436   3.344  10.021  0.1589  0.7569  0.7747
  357MOL0     C47004   7.377   3.216  10.104 -0.6510 -0.4098 -0.5551
  357MOL0     C47005   7.496   3.140  10.160  0.2720 -0.3102  0.1605
  357MOL0     C47006   7.462   3.005  10.228 -0.5696 -0.3055  0.7924
  357MOL0     C47007   7.399   3.018  10.367 -0.1032 -0.4077  0.4330
  357MOL0     C47008   7.369   2.880  10.432  0.1615 -0.7663  0.4346
  357MOL0     N47009   7.284   2.897  10.547  0.5477 -0.2786 -0.3848
  357MOL0     C47010   7.285   2.839  10.671 -0.6272 -0.2036  0.2341
  357MOL0     C47011   7.171   2.856  10.728  0.6617 -0.3874 -0.7963
  357MOL0     C47012   7.134   2.788  10.859  0.1364  0.2880  0.0744
  357MOL0     C47013   6.984   2.791  10.883  0.2510 -0.4013 -0.2866
  357MOL0     C47014   6.916   2.703  10.791 -0.0050 -0.5445  0.1609
  357MOL0     C47015   6.770   2.735  10.769  0.7705  0.2007 -0.1656
  357MOL0     O47016   6.692   2.745  10.889  0.4349  0.7249 -0.0231
  357MOL0     C47017   6.558   2.775  10.881 -0.2106  0.2196 -0.2371
  357MOL0     C47018   6.500   2.858  10.982 -0.2801  0.3363 -0.0705
  357MOL0     C47019   6.365   2.905  10.973 -0.9741  0.1952  0.2361
  357MOL0     C47020   6.283   2.874  10.864  0.3674  0.3443  0.7324
  357MOL0     C47021   6.133   2.913  10.854  0.1774  0.0821  0.2879
  357MOL0     O47022   6.048   2.814  10.806  0.7085  0.0898 -0.7975
  357MOL0     C47023   5.915   2.835  10.831  0.8399  0.0856  0.1482
  357MOL0     C47024   5.844   2.763  10.930  0.2970  1.0365  1.2967
  357MOL0     C47025   5.704   2.763  10.936 -0.1684 -0.7601 -0.6784
  357MOL0     C47026   5.628   2.856  10.865 -0.7741  1.0748 -0.8027
  357MOL0     O47027   5.497   2.860  10.903  0.3002  0.1905 -0.0032
  357MOL0     C47028   5.400   2.931  10.827  0.0315  0.6287  0.1611
  357MOL0     C47029   5.357   3.046  10.921  0.3257  0.1732  0.5814
  357MOL0     C47030   5.320   3.008  11.065 -0.3881  0.6642  0.6542
  357MOL0     C47031   5.204   2.902  11.061  0.4308 -0.2764  0.0531
  357MOL0     C47032   5.153   2.870  11.200  0.5919 -0.1456 -0.9994
  357MOL0     C47033   5.077   2.992  11.259  0.0205  0.2001  1.1111
  357MOL0     C47034   5.007   2.944  11.382 -0.4231  0.8928  0.1579
  357MOL0     C47035   5.068   2.984  11.513  0.3180  0.7339  0.3090
  357MOL0    Cl47036   4.985   2.933  11.664 -0.0795  0.2670  0.2725
  357MOL0     C47037   5.695   2.950  10.784  0.8672 -0.4091  0.1742
  357MOL0     C47038   5.840   2.941  10.770 -0.5350  0.1981  0.5168
  357MOL0     O47039   6.101   3.025  10.892  1.0524  0.9681  0.5708
  357MOL0     C47040   6.345   2.792  10.769  0.5411 -0.1834  0.3153
  357MOL0     C47041   6.475   2.739  10.779  0.1702 -0.0517  0.3195
  357MOL0     N47042   7.093   2.936  10.642  0.4225  0.6026 -0.0221
  357MOL0     N47043   7.170   2.971  10.545  0.3637  0.2348 -0.1756
  357MOL0     C47044   7.272   3.823  10.177 -1.1206 -0.1284 -1.1702
  357MOL0     C47045   7.281   3.908  10.289  0.6360 -0.9318  0.2367
  357MOL0     C47046   7.519   4.206  10.592 -0.2777 -0.8604  0.5734
  357MOL0     C47047   7.610   4.296  10.614  0.4562 -0.6876 -0.2592
  357MOL0     C47048   7.598   4.380  10.724 -0.0058 -0.4755 -0.8465
  357MOL0     C47049   7.487   4.379  10.809  0.7843  0.3264 -0.3797
  357MOL0     O47050   7.464   4.479  10.897 -0.6466  0.3367 -0.6812
  357MOL0     C47051   7.576   4.548  10.961 -1.1403 -0.3768  0.1086
  357MOL0     C47052   7.544   4.617  11.099  0.3402 -0.1479  0.9998
  357MOL0     C47053   7.672   4.638  11.184 -0.0085 -0.2575 -0.3781
  357MOL0     C47054   7.765   4.744  11.113  0.2877  0.1201  0.9668
  357MOL0     C47055   7.889   4.747  11.182 -1.2726 -0.1302  0.2351
  357MOL0     C47056   7.990   4.762  11.248  0.6587  0.2965 -0.1858
  357MOL0     C47057   7.383   4.289  10.780 -0.3326  0.2143  0.2416
  357MOL0     C47058   7.401   4.206  10.667 -0.5750 -0.0473 -0.5209
  357MOL0     H47059   7.608   3.841  10.352  1.2041 -0.1262 -1.7046
  357MOL0     H47060   7.568   3.680  10.171  0.4744 -1.2322  2.1904
  357MOL0     H47061   7.171   3.564  10.041 -0.0639  1.7539 -0.1697
  357MOL0     H47062   7.302   3.513  10.162 -0.2827 -1.2981 -0.6852
  357MOL0     H47063   7.334   3.492   9.868 -2.2289  4.3579  1.5819
  357MOL0     H47064   7.235   3.369   9.937 -0.4008  1.2305 -1.6981
  357MOL0     H47065   7.497   3.404  10.089 -0.5964  1.6185  0.7144
  357MOL0     H47066   7.491   3.305   9.935 -2.5641 -3.1935  0.5451
  357MOL0     H47067   7.321   3.260  10.187 -2.7607 -1.2458 -1.4551
  357MOL0     H47068   7.313   3.151  10.043 -1.2900 -0.7801  0.4818
  357MOL0     H47069   7.547   3.185  10.246 -0.5204 -0.7647  0.8830
  357MOL0     H47070   7.568   3.117  10.081  1.7417 -1.2635  1.6996
  357MOL0     H47071   7.560   2.956  10.224 -0.2281  0.2609  1.8488
  357MOL0     H47072   7.395   2.949  10.162  0.3485 -0.1665 -0.2954
  357MOL0     H47073   7.456   3.088  10.429 -1.2558 -0.1428  1.2135
  357MOL0     H47074   7.306   3.070  10.344  0.3735 -0.1724 -1.0602
  357MOL0     H47075   7.467   2.846  10.468  1.0682  2.9183  1.8877
  357MOL0     H47076   7.328   2.816  10.354  1.3452  1.6677 -2.3907
  357MOL0     H47077   7.372   2.785  10.706  0.5210 -0.0923 -2.2397
  357MOL0     H47078   7.181   2.825  10.951 -2.5845 -3.4101  3.3275
  357MOL0     H47079   7.167   2.684  10.857 -1.9875 -0.4306  0.0680
  357MOL0     H47080   6.943   2.891  10.865  0.9503  0.0679  0.6617
  357MOL0     H47081   6.965   2.754  10.985  4.0545 -1.1492  0.2911
  357MOL0     H47082   6.965   2.697  10.694  0.1481 -1.5513  0.2866
  357MOL0     H47083   6.924   2.599  10.825  1.9253 -1.1142 -1.7691
  357MOL0     H47084   6.723   2.664  10.700 -0.2007 -0.9277  1.5567
  357MOL0     H47085   6.765   2.832  10.719 -1.6742 -1.0588 -2.6708
  357MOL0     H47086   6.570   2.883  11.061 -0.7123 -1.3132  0.8898
  357MOL0     H47087   6.321   2.969  11.049 -1.5736  1.4877 -1.1295
  357MOL0     H47088   5.889   2.683  10.988 -0.6784 -1.2360 -0.8641
  357MOL0     H47089   5.655   2.702  11.011  1.2420  0.9342  1.7441
  357MOL0     H47090   5.314   2.866  10.804  1.1499 -0.9267  0.2044
  357MOL0     H47091   5.425   2.986  10.736 -1.1497  2.1538  0.7094
  357MOL0     H47092   5.272   3.092  10.868  1.2715  1.6217  0.2708
  357MOL0     H47093   5.444   3.112  10.926  0.0726  0.4536  1.2561
  357MOL0     H47094   5.282   3.099  11.113 -0.3915  0.4690  1.0200
  357MOL0     H47095   5.401   2.964  11.123 -0.3637 -0.3186 -0.1012
  357MOL0     H47096   5.122   2.934  10.997 -1.2460 -0.3438  2.0585
  357MOL0     H47097   5.229   2.807  11.014 -1.6073 -1.4855  1.2407
  357MOL0     H47098   5.239   2.852  11.266 -1.5461 -0.8937  1.8028
  357MOL0     H47099   5.101   2.773  11.204  2.5121 -1.1997  1.6584
  357MOL0     H47100   5.000   3.026  11.188  0.0321  0.0658  1.0340
  357MOL0     H47101   5.132   3.086  11.267 -0.8393  0.7841  0.3508
  357MOL0     H47102   4.905   2.984  11.385 -1.2059 -0.9365 -0.3823
  357MOL0     H47103   4.989   2.836  11.387  2.5111  0.3850  2.8439
  357MOL0     H47104   5.075   3.093  11.509  0.0459  0.7509  0.2620
  357MOL0     H47105   5.171   2.948  11.511 -0.1457 -0.7296  1.3080
  357MOL0     H47106   5.640   3.036  10.748 -2.9999 -2.3395  0.9311
  357MOL0     H47107   5.893   3.023  10.721  0.4004 -0.3475  0.5948
  357MOL0     H47108   6.290   2.772  10.678  1.7786 -1.1304 -0.2449
  357MOL0     H47109   6.508   2.672  10.701  0.1892 -0.6087  0.7942
  357MOL0     H47110   7.176   3.793  10.138 -1.7554 -1.3570  1.1585
  357MOL0     H47111   7.199   3.968  10.329  1.7417  1.4999 -0.9408
  357MOL0     H47112   7.697   4.296  10.548  0.0744  2.0481 -0.8593
  357MOL0     H47113   7.674   4.455  10.744  0.2977 -0.4172 -2.1450
  357MOL0     H47114   7.609   4.627  10.894 -5.0891  3.5282  2.2873
  357MOL0     H47115   7.658   4.476  10.976 -0.0970  1.2346  2.9191
  357MOL0     H47116   7.500   4.714  11.073 -1.7725 -1.5732 -1.1077
  357MOL0     H47117   7.469   4.556  11.150 -0.3428 -1.5795 -1.5443
  357MOL0     H47118   7.733   4.547  11.186 -0.5072 -0.5861  0.9631
  357MOL0     H47119   7.643   4.664  11.286 -1.6026 -1.4169 -0.5022
  357MOL0     H47120   7.784   4.715  11.010 -2.0871  2.6451 -0.3112
  357MOL0     H47121   7.717   4.843  11.112  0.2112  0.0904 -0.7366
  357MOL0     H47122   8.062   4.782  11.324 -1.0447  1.2629  1.2362
  357MOL0     H47123   7.297   4.291  10.846  3.4269 -0.7420  5.9134
  357MOL0     H47124   7.329   4.124  10.659 -1.1290  0.3103  0.5832
  358MOL0     O47125   8.795   2.307   3.520 -0.2976 -0.2408 -0.2171
  358MOL0     C47126   8.881   2.219   3.554 -0.0539 -0.7437 -0.2450
  358MOL0     O47127   8.858   2.118   3.637 -0.4553 -0.4320  0.4179
  358MOL0     C47128   8.732   2.075   3.662 -0.1911 -0.0468  0.5396
  358MOL0     C47129   8.620   2.084   3.573  0.4116 -1.0524  0.4489
  358MOL0     C47130   8.495   2.031   3.603  0.2534  0.5471  0.1782
  358MOL0     C47131   8.482   1.945   3.713  0.3801  0.5156 -0.0961
  358MOL0     O47132   8.364   1.874   3.743 -0.4269 -0.2134  0.1885
  358MOL0     C47133   8.373   1.743   3.790 -0.4939 -0.3169  0.1335
  358MOL0     C47134   8.300   1.736   3.926 -0.8933  0.1966  0.5020
  358MOL0     C47135   8.145   1.765   3.915 -0.9342  1.1927  0.3589
  358MOL0     C47136   8.085   1.657   3.821  0.5484  0.2527 -0.0610
  358MOL0     C47137   7.954   1.607   3.855  0.1125  0.4032  0.2117
  358MOL0     C47138   7.854   1.724   3.837 -0.1277  0.0333 -0.2396
  358MOL0     C47139   7.709   1.690   3.857  0.3502 -0.4593  0.0513
  358MOL0     C47140   7.675   1.618   3.986 -0.5903 -0.0103 -0.3197
  358MOL0     N47141   7.527   1.615   3.995 -0.1969 -0.5918  0.0360
  358MOL0     C47142   7.454   1.525   3.917  0.2318 -0.0214 -0.2227
  358MOL0     C47143   7.334   1.542   3.975 -0.3750  0.0304 -0.3597
  358MOL0     C47144   7.200   1.483   3.937 -0.0473  0.3218  0.2910
  358MOL0     C47145   7.124   1.568   3.835  0.0533 -0.1670 -0.7300
  358MOL0     C47146   6.994   1.500   3.787 -0.7477 -1.0249  0.7166
  358MOL0     C47147   6.867   1.585   3.768  0.2570 -0.8222  0.5901
  358MOL0     O47148   6.761   1.511   3.724  0.5904  0.7843  0.1604
  358MOL0     C47149   6.667   1.581   3.650  0.3523  1.7603  0.6284
  358MOL0     C47150   6.653   1.542   3.513  0.3433 -0.4515  0.0160
  358MOL0     C47151   6.576   1.627   3.429  0.2355  0.6384 -0.5594
  358MOL0     C47152   6.505   1.740   3.487 -0.8054 -0.7055 -0.3738
  358MOL0     C47153   6.422   1.828   3.405 -0.1922  0.6876 -0.2384
  358MOL0     O47154   6.454   1.839   3.272  0.1399  0.0715 -0.5173
  358MOL0     C47155   6.382   1.935   3.195  0.2353  0.3448  1.5129
  358MOL0     C47156   6.416   2.075   3.226  0.1832  0.2456 -1.9452
  358MOL0     C47157   6.333   2.166   3.160  0.1400 -0.2177  0.2832
  358MOL0     C47158   6.243   2.137   3.061  0.3547 -0.4873  0.1440
  358MOL0     O47159   6.161   2.246   3.014 -0.8515  0.0357  0.5964
  358MOL0     C47160   6.087   2.231   2.894  0.2637  0.4008  0.5734
  358MOL0     C47161   6.112   2.353   2.797 -0.2921 -0.1054 -0.3013
  358MOL0     C47162   6.017   2.366   2.682 -0.2321  0.1079 -1.0300
  358MOL0     C47163   6.028   2.252   2.584 -0.4523  0.3220  0.6543
  358MOL0     C47164   6.034   2.304   2.444 -0.0955  0.2600  0.6079
  358MOL0     C47165   6.056   2.198   2.337 -0.8262  0.0271  0.2795
  358MOL0     C47166   6.081   2.283   2.200  0.0081  0.0433 -0.4123
  358MOL0     C47167   6.104   2.205   2.064 -0.5202  0.4530 -0.4432
  358MOL0    Cl47168   5.987   2.073   2.031 -0.0497  0.2176 -0.2582
  358MOL0     C47169   6.219   2.004   3.038  0.3951  0.0273 -0.3085
  358MOL0     C47170   6.288   1.904   3.101  0.3118  0.2991  0.5674
  358MOL0     O47171   6.311   1.865   3.459 -0.4523  0.1934  0.4859
  358MOL0     C47172   6.503   1.751   3.626 -0.0726 -0.1487  0.2617
  358MOL0     C47173   6.592   1.684   3.704 -0.2144 -0.1937 -0.6796
  358MOL0     N47174   7.331   1.650   4.071  0.2612 -0.0960 -0.0837
  358MOL0     N47175   7.454   1.681   4.085  0.3674 -1.0753  0.2812
  358MOL0     C47176   8.599   1.926   3.795  0.6644  0.2660  0.3449
  358MOL0     C47177   8.712   1.993   3.773 -0.4975  0.1637 -0.0068
  358MOL0     C47178   9.020   2.247   3.511 -0.3942  0.2972  0.0797
  358MOL0     C47179   9.115   2.143   3.532 -0.0383 -0.5591 -0.5807
  358MOL0     C47180   9.251   2.177   3.500  0.3567  1.2877 -0.0301
  358MOL0     C47181   9.292   2.305   3.474 -0.8068 -0.4952  0.7735
  358MOL0     O47182   9.426   2.315   3.468 -0.6045  0.3502  0.2585
  358MOL0     C47183   9.475   2.446   3.455 -0.1979  0.6279  0.2631
  358MOL0     C47184   9.636   2.434   3.437  0.3690 -0.3841 -0.2014
  358MOL0     C47185   9.693   2.572   3.440 -0.2743  0.2092 -0.2138
  358MOL0     C47186   9.839   2.556   3.495  0.1055  0.0118 -0.2676
  358MOL0     C47187   9.895   2.685   3.533  0.5327  0.4608  0.9064
  358MOL0     C47188   9.948   2.795   3.555  0.3991 -0.5971  0.6269
  358MOL0     C47189   9.194   2.401   3.457  0.0225  0.2200  0.9019
  358MOL0     C47190   9.053   2.378   3.469 -0.2558 -0.3866  0.2849
  358MOL0     H47191   8.633   2.125   3.473 -1.2673 -1.7026 -0.0676
  358MOL0     H47192   8.405   2.041   3.544  0.9689  0.4065 -0.9618
  358MOL0     H47193   8.476   1.705   3.800  0.9662  3.6854  2.7586
  358MOL0     H47194   8.326   1.674   3.719  2.0077 -0.9190 -1.0484
  358MOL0     H47195   8.346   1.803   3.999  1.4655  1.8739 -2.3157
  358MOL0     H47196   8.318   1.633   3.958  1.9724  0.8409  1.1765
  358MOL0     H47197   8.128   1.866   3.876 -1.9582  0.8853 -0.0345
  358MOL0     H47198   8.095   1.759   4.013  2.5715 -0.3407  2.2245
  358MOL0     H47199   8.073   1.696   3.720 -1.0072  0.1029  0.0391
  358MOL0     H47200   8.146   1.566   3.822  0.7401  0.3093 -2.0611
  358MOL0     H47201   7.933   1.569   3.955 -4.3635  2.5190  0.3574
  358MOL0     H47202   7.925   1.534   3.779  2.1144  0.8349 -1.0316
  358MOL0     H47203   7.867   1.770   3.739  2.2727 -0.5406 -0.2465
  358MOL0     H47204   7.883   1.794   3.917  0.3884 -2.2530  1.6871
  358MOL0     H47205   7.667   1.790   3.867  0.6861 -0.3079 -0.0213
  358MOL0     H47206   7.673   1.634   3.770 -0.6111  2.0079 -1.2314
  358MOL0     H47207   7.716   1.678   4.069  1.8529 -0.3183 -1.2212
  358MOL0     H47208   7.719   1.518   3.977 -1.0977 -0.3618  0.8427
  358MOL0     H47209   7.461   1.455   3.835  0.3920  0.4357 -0.6021
  358MOL0     H47210   7.151   1.493   4.035 -1.0630 -1.7967  0.0428
  358MOL0     H47211   7.195   1.378   3.907 -4.1449 -0.0330  1.5109
  358MOL0     H47212   7.187   1.606   3.754 -0.3629  3.6867  0.5226
  358MOL0     H47213   7.105   1.662   3.887  3.4083  2.9879 -4.5236
  358MOL0     H47214   7.021   1.476   3.684  0.0050  1.2773  0.3246
  358MOL0     H47215   6.973   1.408   3.842 -2.1262 -1.6455 -0.7808
  358MOL0     H47216   6.902   1.657   3.692 -1.1074  0.0054  0.7210
  358MOL0     H47217   6.836   1.629   3.863  2.1129 -2.1586  1.8818
  358MOL0     H47218   6.707   1.458   3.470  0.3513  0.0913 -1.0780
  358MOL0     H47219   6.575   1.607   3.322  0.9639 -1.2910 -0.2527
  358MOL0     H47220   6.491   2.100   3.300  1.1624 -0.8290 -2.5392
  358MOL0     H47221   6.348   2.271   3.184 -0.0545 -0.4675  1.5464
  358MOL0     H47222   5.983   2.234   2.930 -0.0950 -3.2774  0.1989
  358MOL0     H47223   6.100   2.141   2.833 -1.6344 -0.1394  0.8824
  358MOL0     H47224   6.216   2.347   2.763 -0.7271  0.3596 -1.8268
  358MOL0     H47225   6.108   2.447   2.854  2.9929 -0.7117  1.1296
  358MOL0     H47226   6.033   2.465   2.639  1.4489  0.3423  0.0497
  358MOL0     H47227   5.915   2.355   2.721 -0.1395  2.2399 -0.0409
  358MOL0     H47228   6.113   2.184   2.598 -0.6192 -0.5149 -1.9181
  358MOL0     H47229   5.941   2.187   2.595 -1.1183  0.6271 -2.1919
  358MOL0     H47230   6.109   2.384   2.439 -1.8310  2.0238  1.4776
  358MOL0     H47231   5.937   2.348   2.418  0.3236 -0.0988 -1.8282
  358MOL0     H47232   5.977   2.123   2.332  0.5735 -1.4482 -3.5341
  358MOL0     H47233   6.149   2.143   2.353 -0.5942  0.1048 -0.7506
  358MOL0     H47234   6.002   2.355   2.176  0.4376 -0.1150 -2.4924
  358MOL0     H47235   6.168   2.343   2.230 -1.1208  0.6234  2.0174
  358MOL0     H47236   6.200   2.153   2.067 -1.1825 -0.8259 -0.8384
  358MOL0     H47237   6.108   2.270   1.976 -1.9367 -0.5197 -1.2808
  358MOL0     H47238   6.136   1.978   2.972 -1.3626  1.3671  1.2450
  358MOL0     H47239   6.276   1.798   3.076  3.1472  0.4798 -2.1479
  358MOL0     H47240   6.440   1.818   3.684  0.3869 -1.9701  3.0667
  358MOL0     H47241   6.598   1.698   3.812  1.2305 -1.0254 -0.6344
  358MOL0     H47242   8.596   1.873   3.890  1.1828  2.4483  1.6335
  358MOL0     H47243   8.797   2.006   3.840  0.0633  0.6474 -0.7940
  358MOL0     H47244   9.086   2.042   3.560  0.6377  0.0186  2.5772
  358MOL0     H47245   9.318   2.095   3.525 -1.7216  0.3683  3.1638
  358MOL0     H47246   9.437   2.505   3.538 -2.9018  0.7878 -0.9702
  358MOL0     H47247   9.441   2.487   3.359  2.1960 -1.6963 -1.7506
  358MOL0     H47248   9.664   2.382   3.530 -1.2539  2.2228  1.9029
  358MOL0     H47249   9.666   2.380   3.347 -1.4769 -4.6094  1.4739
  358MOL0     H47250   9.638   2.618   3.523  0.0069 -2.4326  1.5866
  358MOL0     H47251   9.684   2.628   3.346 -0.2165 -0.6180 -0.7217
  358MOL0     H47252   9.844   2.505   3.591  1.7427  0.8261  0.1183
  358MOL0     H47253   9.896   2.500   3.421  2.6843  2.7477 -0.5771
  358MOL0     H47254   9.987   2.891   3.581 -3.4606  0.8780  1.6181
  358MOL0     H47255   9.229   2.503   3.441  0.1932  0.1635  0.9098
  358MOL0     H47256   8.974   2.449   3.447  1.9808  1.3634 -2.7399
  359MOL0     O47257   8.634   5.086   8.277 -0.3540  0.3387  0.1052
  359MOL0     C47258   8.611   5.149   8.384 -0.2525 -0.0253 -0.0847
  359MOL0     O47259   8.707   5.214   8.461 -0.2361  0.2631  0.0835
  359MOL0     C47260   8.845   5.188   8.449  0.0901  0.6320  0.6465
  359MOL0     C47261   8.937   5.293   8.467  0.1990 -0.2449 -0.1585
  359MOL0     C47262   9.071   5.278   8.446  0.3275 -0.1612 -0.3169
  359MOL0     C47263   9.129   5.158   8.414 -0.4782  0.7069  0.1990
  359MOL0     O47264   9.270   5.155   8.395 -0.0938  0.3050 -0.0504
  359MOL0     C47265   9.330   5.028   8.374  1.5873  0.5188 -0.0678
  359MOL0     C47266   9.477   5.032   8.357 -0.8593  0.0490 -0.3715
  359MOL0     C47267   9.545   5.031   8.494 -0.0935 -0.1808 -0.2588
  359MOL0     C47268   9.699   5.036   8.482  0.0822 -0.4875 -0.2860
  359MOL0     C47269   9.767   4.914   8.450  0.6001  0.5762 -0.7966
  359MOL0     C47270   9.919   4.936   8.435 -0.6803  0.7472 -0.3853
  359MOL0     C47271  10.000   4.829   8.520  0.1551  0.0680  0.9565
  359MOL0     C47272  10.148   4.870   8.526  0.6348  0.1984  0.1692
  359MOL0     N47273  10.226   4.754   8.565 -0.2529  0.2225 -0.1972
  359MOL0     C47274  10.289   4.667   8.480  0.5245 -0.1670 -0.2293
  359MOL0     C47275  10.344   4.579   8.559 -0.2886 -0.6194 -0.2394
  359MOL0     C47276  10.422   4.459   8.520 -0.0192  0.7571 -0.3995
  359MOL0     C47277  10.576   4.473   8.508 -0.1470 -0.1158 -0.3056
  359MOL0     C47278  10.652   4.481   8.641  0.2046  0.0212  0.0795
  359MOL0     C47279  10.796   4.431   8.614 -0.5578 -0.2171  0.3328
  359MOL0     O47280  10.870   4.512   8.521  0.0017 -0.6341  0.5395
  359MOL0     C47281  10.987   4.567   8.564 -0.2916 -0.9132  0.8956
  359MOL0     C47282  10.993   4.702   8.608  0.1265  0.9250 -0.4010
  359MOL0     C47283  11.120   4.747   8.663  0.6963 -0.2384 -0.0406
  359MOL0     C47284  11.235   4.660   8.660 -0.0474  0.0714  0.7978
  359MOL0     C47285  11.360   4.706   8.727  0.2906 -0.3037 -0.0366
  359MOL0     O47286  11.357   4.805   8.814 -0.1498  0.4812 -0.2880
  359MOL0     C47287  11.480   4.860   8.855  0.1690  0.0043 -0.8642
  359MOL0     C47288  11.555   4.809   8.962  0.4001  0.1175 -0.3460
  359MOL0     C47289  11.685   4.851   8.986 -0.0284  1.2956  0.1502
  359MOL0     C47290  11.747   4.947   8.913 -1.5538  0.5351 -0.2815
  359MOL0     O47291  11.873   5.002   8.941 -0.9017 -0.3073  0.0352
  359MOL0     C47292  11.980   4.943   9.022 -0.1374  0.1059  0.7494
  359MOL0     C47293  12.102   5.036   9.003 -0.7069  1.0149 -0.4300
  359MOL0     C47294  12.099   5.165   9.085  0.5545 -0.4816 -0.1083
  359MOL0     C47295  12.241   5.207   9.105 -0.3935  0.7971  0.2341
  359MOL0     C47296  12.245   5.272   9.239 -0.0330  0.3610  0.4679
  359MOL0     C47297  12.384   5.313   9.259 -0.3175  0.2506 -0.2127
  359MOL0     C47298  12.383   5.371   9.390  0.2320 -0.4519  0.0741
  359MOL0     C47299  12.523   5.401   9.437  0.0627  0.3596 -0.6371
  359MOL0    Cl47300  12.531   5.454   9.606 -0.3133 -0.0469 -0.1243
  359MOL0     C47301  11.674   5.003   8.809 -0.1471  0.0452 -0.1758
  359MOL0     C47302  11.549   4.952   8.776 -0.1576 -1.0221  0.7362
  359MOL0     O47303  11.460   4.647   8.690  0.6398 -0.1619 -0.0405
  359MOL0     C47304  11.221   4.531   8.606  0.0636 -0.5259  0.5093
  359MOL0     C47305  11.092   4.488   8.558 -0.4460  0.6169  0.2069
  359MOL0     N47306  10.322   4.616   8.689  0.0155 -0.3798  0.2256
  359MOL0     N47307  10.248   4.725   8.695 -0.0119  0.3187 -0.2640
  359MOL0     C47308   9.042   5.045   8.402  0.4166 -0.4788  0.1893
  359MOL0     C47309   8.901   5.049   8.420  0.1852  0.1158  0.7713
  359MOL0     C47310   8.470   5.154   8.428 -0.3204  0.8903 -1.1698
  359MOL0     C47311   8.377   5.089   8.356 -0.6411  0.6807  0.9644
  359MOL0     C47312   8.239   5.074   8.396 -0.6381  0.4956 -0.4303
  359MOL0     C47313   8.195   5.130   8.513  0.1155 -0.2078  0.3613
  359MOL0     O47314   8.055   5.122   8.539 -0.6327  0.1154  0.6494
  359MOL0     C47315   8.007   5.178   8.660 -0.0758  0.9969  0.2484
  359MOL0     C47316   7.863   5.240   8.626 -0.3196  0.6673  0.6626
  359MOL0     C47317   7.795   5.259   8.756 -0.2218 -0.4398 -0.3375
  359MOL0     C47318   7.649   5.293   8.761 -0.4996  0.0866  0.9246
  359MOL0     C47319   7.584   5.209   8.658 -0.0800  0.1141  0.4568
  359MOL0     C47320   7.528   5.125   8.601  0.0594 -0.1214  0.2852
  359MOL0     C47321   8.290   5.204   8.588 -0.5898  0.1195  0.0030
  359MOL0     C47322   8.420   5.209   8.545  0.8227 -0.3127  0.1226
  359MOL0     H47323   8.895   5.387   8.501  1.7100  0.8291 -1.1200
  359MOL0     H47324   9.138   5.363   8.440  0.0432  0.0820 -0.0670
  359MOL0     H47325   9.292   4.989   8.279 -1.3376 -0.3057  1.3290
  359MOL0     H47326   9.301   4.956   8.451  0.1998  1.7237  0.5652
  359MOL0     H47327   9.501   5.123   8.300 -2.3231 -0.1210 -1.3093
  359MOL0     H47328   9.516   4.946   8.302 -0.5725 -1.0665  1.4886
  359MOL0     H47329   9.521   4.937   8.543 -0.5696 -0.9332 -1.8755
  359MOL0     H47330   9.517   5.126   8.540  3.6546  2.0692 -2.0674
  359MOL0     H47331   9.724   5.113   8.408  1.1845  1.0801  1.6522
  359MOL0     H47332   9.736   5.072   8.578  0.2839 -1.1410 -0.1124
  359MOL0     H47333   9.719   4.877   8.359 -2.4989 -0.5260  1.1128
  359MOL0     H47334   9.754   4.835   8.524  1.6600  1.3153  0.2070
  359MOL0     H47335   9.946   5.034   8.474  2.1559  0.1655 -0.6588
  359MOL0     H47336   9.943   4.939   8.329 -1.6224  5.2636 -0.6475
  359MOL0     H47337   9.950   4.826   8.617 -0.5883 -1.1041  0.5600
  359MOL0     H47338   9.988   4.730   8.475 -0.4133  0.3317  0.5089
  359MOL0     H47339  10.151   4.951   8.599 -1.2182  0.2175  0.2806
  359MOL0     H47340  10.183   4.909   8.430  0.5724  1.9805  0.8485
  359MOL0     H47341  10.284   4.666   8.371 -1.4674 -4.1400 -0.3084
  359MOL0     H47342  10.384   4.424   8.424  2.6042 -0.2386 -1.1613
  359MOL0     H47343  10.414   4.384   8.599 -1.1798  1.2569 -0.0235
  359MOL0     H47344  10.596   4.561   8.447 -0.8547 -0.0547 -0.4646
  359MOL0     H47345  10.618   4.379   8.471 -0.9561 -0.3545 -0.6450
  359MOL0     H47346  10.651   4.585   8.676 -1.5622  0.5042 -1.2710
  359MOL0     H47347  10.610   4.418   8.719 -1.2638  1.0386  0.1549
  359MOL0     H47348  10.781   4.325   8.592 -3.8697  0.1861  0.0432
  359MOL0     H47349  10.855   4.433   8.706 -0.8676  2.0973  0.5445
  359MOL0     H47350  10.910   4.771   8.603  1.6682  2.8081 -1.1215
  359MOL0     H47351  11.124   4.843   8.713 -0.5784 -0.4532  0.5222
  359MOL0     H47352  11.513   4.732   9.025  1.7864  1.1331  1.9406
  359MOL0     H47353  11.726   4.795   9.069 -4.3679 -0.7137  1.2094
  359MOL0     H47354  12.006   4.848   8.975 -1.1925  0.7089 -1.1345
  359MOL0     H47355  11.935   4.940   9.122 -1.4611 -0.6988  0.1532
  359MOL0     H47356  12.122   5.054   8.897 -2.0005 -1.8829 -1.2648
  359MOL0     H47357  12.187   4.970   9.027 -1.4750  0.6532  1.4413
  359MOL0     H47358  12.051   5.149   9.181  0.6084  1.1172  0.2141
  359MOL0     H47359  12.044   5.244   9.033  2.3430  0.3943 -0.7972
  359MOL0     H47360  12.307   5.120   9.117 -1.1810  0.3510  1.4341
  359MOL0     H47361  12.260   5.281   9.027 -3.9272  1.5798 -0.0039
  359MOL0     H47362  12.208   5.200   9.312 -0.1376  1.2260  1.2930
  359MOL0     H47363  12.188   5.365   9.233  2.7881  2.2190  0.4258
  359MOL0     H47364  12.419   5.377   9.177  1.5891 -0.9872 -0.4217
  359MOL0     H47365  12.435   5.217   9.266 -1.1034 -0.0562  3.6732
  359MOL0     H47366  12.334   5.468   9.380  0.9442 -0.0200  0.6525
  359MOL0     H47367  12.327   5.313   9.463 -0.6499  0.4155  0.1108
  359MOL0     H47368  12.568   5.470   9.365 -2.0456  1.9192 -0.5744
  359MOL0     H47369  12.575   5.305   9.430 -1.6179 -0.6394  0.0939
  359MOL0     H47370  11.720   5.078   8.746 -2.6702  0.4120 -1.6762
  359MOL0     H47371  11.500   4.992   8.688  2.3801  1.8698  0.5006
  359MOL0     H47372  11.307   4.466   8.613  0.2222 -0.1491  3.1924
  359MOL0     H47373  11.073   4.393   8.510 -0.1490 -1.7846  4.3381
  359MOL0     H47374   9.082   4.947   8.381  0.9173 -0.2599  0.1156
  359MOL0     H47375   8.835   4.963   8.425 -0.3612  0.4815  0.1318
  359MOL0     H47376   8.403   5.042   8.261  0.4348  0.2375  1.4587
  359MOL0     H47377   8.175   5.029   8.321  2.2440 -3.8228 -0.6412
  359MOL0     H47378   8.062   5.270   8.681  2.4898 -0.6389  1.2787
  359MOL0     H47379   7.998   5.112   8.747  1.9307  3.5257  2.5385
  359MOL0     H47380   7.871   5.334   8.572  0.1124 -1.4068 -3.2431
  359MOL0     H47381   7.806   5.164   8.571 -1.7190  0.7000  2.0005
  359MOL0     H47382   7.844   5.340   8.811 -0.9164 -0.1332 -0.1692
  359MOL0     H47383   7.808   5.164   8.807  3.8040 -0.4615 -1.0813
  359MOL0     H47384   7.619   5.259   8.861  1.0092 -1.1983  0.9799
  359MOL0     H47385   7.625   5.398   8.740 -1.4747 -0.6769 -2.4004
  359MOL0     H47386   7.481   5.049   8.541 -0.7413 -0.5350  1.3915
  359MOL0     H47387   8.269   5.260   8.679  1.0081  3.5059 -1.5167
  359MOL0     H47388   8.498   5.256   8.604  0.8071  0.9266 -0.7866
  360MOL0     O47389   7.486   6.706   3.436  0.1868 -0.2132 -0.1589
  360MOL0     C47390   7.576   6.781   3.427 -0.4727  0.2833  0.1341
  360MOL0     O47391   7.566   6.918   3.425  0.3563  0.6300 -0.2284
  360MOL0     C47392   7.444   6.981   3.432 -0.1394 -0.4748 -0.0639
  360MOL0     C47393   7.355   6.990   3.545 -0.2469  0.1970 -0.4748
  360MOL0     C47394   7.239   7.070   3.532 -0.2039  0.0034  0.1427
  360MOL0     C47395   7.228   7.160   3.424  0.1041  0.4060  0.0562
  360MOL0     O47396   7.115   7.236   3.410 -0.0636 -0.1111 -0.1537
  360MOL0     C47397   7.072   7.282   3.276 -0.1861 -0.1418  0.8281
  360MOL0     C47398   6.931   7.354   3.276  0.7387 -0.5572 -0.5193
  360MOL0     C47399   6.912   7.472   3.376  0.3726  0.1934 -0.0082
  360MOL0     C47400   6.765   7.504   3.434 -0.0361 -0.1934  0.3739
  360MOL0     C47401   6.763   7.634   3.508  0.1378  0.3726 -0.2472
  360MOL0     C47402   6.647   7.634   3.606  0.7372  0.6407  0.6908
  360MOL0     C47403   6.649   7.770   3.681 -0.2998 -0.7432  0.8106
  360MOL0     C47404   6.523   7.783   3.763 -0.3005  0.4228 -0.0485
  360MOL0     N47405   6.530   7.708   3.890 -0.2288 -0.1700  0.7115
  360MOL0     C47406   6.421   7.644   3.951  0.0221  0.0781  0.4487
  360MOL0     C47407   6.467   7.569   4.050  0.1126 -0.1323  0.8208
  360MOL0     C47408   6.394   7.490   4.152  0.2209  0.1210 -0.2240
  360MOL0     C47409   6.363   7.561   4.288 -0.5071  0.2394  0.9235
  360MOL0     C47410   6.289   7.698   4.283  1.1958  0.0185 -0.4274
  360MOL0     C47411   6.162   7.687   4.184  1.1941  0.1223 -0.3278
  360MOL0     O47412   6.082   7.803   4.209 -0.3840 -0.9578 -0.3097
  360MOL0     C47413   5.966   7.807   4.283 -0.2085  0.6118 -1.2935
  360MOL0     C47414   5.947   7.900   4.383  1.2112 -0.1562  0.2718
  360MOL0     C47415   5.835   7.886   4.470  0.9076 -0.8434 -0.1329
  360MOL0     C47416   5.733   7.791   4.442 -0.6521 -0.9573  0.2000
  360MOL0     C47417   5.618   7.782   4.536  0.4681  0.5548  0.7732
  360MOL0     O47418   5.514   7.707   4.489 -0.0796 -0.2609  0.3012
  360MOL0     C47419   5.398   7.715   4.558 -0.1043  0.3014  0.6291
  360MOL0     C47420   5.305   7.817   4.524  0.8328 -0.3110  0.4602
  360MOL0     C47421   5.178   7.827   4.587 -1.0913 -0.4377 -0.2634
  360MOL0     C47422   5.137   7.722   4.675 -1.4908  0.2282 -0.4206
  360MOL0     O47423   5.018   7.738   4.734 -0.3879  0.0099 -0.3633
  360MOL0     C47424   5.002   7.678   4.861 -0.4081 -0.0487 -0.3844
  360MOL0     C47425   5.078   7.749   4.970 -0.6629 -0.8260  0.1005
  360MOL0     C47426   5.015   7.893   4.994 -0.3085 -0.0676 -0.5783
  360MOL0     C47427   4.875   7.901   5.060 -0.2435 -0.5194 -0.4381
  360MOL0     C47428   4.826   8.046   5.066 -0.3126 -0.2526 -0.7742
  360MOL0     C47429   4.678   8.035   5.115 -0.2100  0.0936 -0.1002
  360MOL0     C47430   4.579   8.154   5.094 -0.1351  0.8217  0.3151
  360MOL0     C47431   4.480   8.150   5.207 -0.1623 -0.3576  0.3087
  360MOL0    Cl47432   4.374   8.006   5.209 -0.0687 -0.2888 -0.0328
  360MOL0     C47433   5.233   7.622   4.711 -0.8593  0.0766  0.4255
  360MOL0     C47434   5.363   7.626   4.660 -0.4477  0.3598 -0.3617
  360MOL0     O47435   5.620   7.839   4.646 -0.2031  0.0769  0.5414
  360MOL0     C47436   5.743   7.717   4.334 -1.1488  0.7450 -0.0569
  360MOL0     C47437   5.863   7.719   4.256 -0.0672 -0.4092  0.2385
  360MOL0     N47438   6.606   7.591   4.051  0.0321 -0.5439 -0.0841
  360MOL0     N47439   6.638   7.670   3.962 -0.4786 -0.8415  0.1955
  360MOL0     C47440   7.326   7.163   3.327 -0.4065  0.4690  0.1583
  360MOL0     C47441   7.428   7.068   3.318 -0.3634 -0.5829 -0.4709
  360MOL0     C47442   7.716   6.728   3.413 -0.0984 -0.7012 -0.5854
  360MOL0     C47443   7.827   6.812   3.389  0.4092  0.2479  0.6627
  360MOL0     C47444   7.951   6.759   3.364 -0.1771 -0.2547  0.0778
  360MOL0     C47445   7.974   6.623   3.383 -0.7262  0.3390  0.6912
  360MOL0     O47446   8.099   6.562   3.379 -0.2068 -0.2828 -0.7800
  360MOL0     C47447   8.206   6.650   3.355 -0.8005  0.4210 -0.8212
  360MOL0     C47448   8.343   6.578   3.356  0.3591 -0.0540 -0.2747
  360MOL0     C47449   8.355   6.482   3.246  0.5355  0.2802 -0.8611
  360MOL0     C47450   8.499   6.426   3.267  0.5310  0.0253  0.4864
  360MOL0     C47451   8.583   6.523   3.194  0.0421  0.5056 -0.5962
  360MOL0     C47452   8.641   6.619   3.139 -0.1383  0.5011  0.4513
  360MOL0     C47453   7.864   6.540   3.413 -0.5121 -0.5326  0.4034
  360MOL0     C47454   7.740   6.596   3.415  0.3523  0.4084  0.4780
  360MOL0     H47455   7.375   6.921   3.626  1.2649 -3.4091 -3.6257
  360MOL0     H47456   7.159   7.080   3.605  1.5199  4.6787  1.7802
  360MOL0     H47457   7.074   7.188   3.220  0.4896  0.4389 -0.1531
  360MOL0     H47458   7.141   7.351   3.226 -1.5440  0.7356  0.1180
  360MOL0     H47459   6.853   7.285   3.311  0.7989  0.9344  2.9235
  360MOL0     H47460   6.907   7.381   3.172  0.4161 -1.7473 -0.7666
  360MOL0     H47461   6.956   7.567   3.344  0.5504  1.2425  3.0139
  360MOL0     H47462   6.982   7.450   3.457  1.2696 -1.3816 -1.1667
  360MOL0     H47463   6.691   7.505   3.354  0.1598  0.6116  0.1945
  360MOL0     H47464   6.737   7.424   3.503 -0.7718 -1.4530 -1.2910
  360MOL0     H47465   6.755   7.704   3.425  0.8516 -0.0926 -0.7183
  360MOL0     H47466   6.863   7.645   3.552  0.4726  1.3533 -1.2094
  360MOL0     H47467   6.660   7.553   3.678 -0.8252  0.4612  0.8031
  360MOL0     H47468   6.550   7.611   3.560  0.2511  2.3054  0.8207
  360MOL0     H47469   6.737   7.793   3.743  0.2264  1.2098 -0.5693
  360MOL0     H47470   6.653   7.849   3.605 -0.3575 -1.7588 -0.2665
  360MOL0     H47471   6.433   7.753   3.710 -2.8825  4.2982  1.6920
  360MOL0     H47472   6.496   7.886   3.789 -4.4177 -0.4970 -0.0429
  360MOL0     H47473   6.324   7.646   3.902  1.0793  0.3871 -1.7552
  360MOL0     H47474   6.456   7.403   4.176 -0.7997 -0.6129 -0.1683
  360MOL0     H47475   6.301   7.449   4.111  0.3525  1.5960 -2.1194
  360MOL0     H47476   6.459   7.578   4.338  1.7829 -1.6627 -2.5032
  360MOL0     H47477   6.304   7.498   4.356 -4.3324  0.7920 -1.6027
  360MOL0     H47478   6.263   7.726   4.385  1.8666 -0.9307  0.0228
  360MOL0     H47479   6.364   7.767   4.243  0.0620  3.7259  3.1995
  360MOL0     H47480   6.104   7.597   4.206  1.8696 -0.0172  0.9834
  360MOL0     H47481   6.182   7.686   4.077 -4.1984 -0.6850 -1.6193
  360MOL0     H47482   6.031   7.969   4.394  0.6649  0.8823 -1.5213
  360MOL0     H47483   5.824   7.947   4.559  1.7762 -0.9052  0.0305
  360MOL0     H47484   5.316   7.882   4.437  1.8912 -0.2946  0.5918
  360MOL0     H47485   5.123   7.913   4.552 -0.7919  0.2787  0.9528
  360MOL0     H47486   5.022   7.570   4.862  2.1617  0.2959  3.2881
  360MOL0     H47487   4.898   7.683   4.895  0.5976  0.6803  2.8472
  360MOL0     H47488   5.182   7.768   4.941  0.0410 -1.3075  2.1298
  360MOL0     H47489   5.065   7.683   5.056  1.5493 -0.5100  0.7342
  360MOL0     H47490   5.004   7.929   4.891  0.8801 -0.3302 -0.8064
  360MOL0     H47491   5.077   7.954   5.060 -1.0036  1.2198 -1.0595
  360MOL0     H47492   4.813   7.834   4.999  1.4851 -3.3279  0.6806
  360MOL0     H47493   4.875   7.861   5.162 -1.9626  0.2305 -0.1111
  360MOL0     H47494   4.840   8.102   4.973  0.5596  1.8767  0.5617
  360MOL0     H47495   4.879   8.107   5.139  0.3397  0.8072 -2.0724
  360MOL0     H47496   4.690   8.022   5.223  2.9955  0.9007 -0.2586
  360MOL0     H47497   4.638   7.945   5.067 -1.2161  2.6231 -4.4994
  360MOL0     H47498   4.641   8.243   5.087  2.3848 -0.9571 -2.2251
  360MOL0     H47499   4.530   8.143   4.997  1.7589  4.0182 -1.1500
  360MOL0     H47500   4.417   8.239   5.197  2.9628  1.9418 -0.5230
  360MOL0     H47501   4.523   8.165   5.307 -0.8202  1.2979  0.3861
  360MOL0     H47502   5.206   7.546   4.783 -0.9114  0.3126  0.6575
  360MOL0     H47503   5.426   7.543   4.689 -0.1205  0.0079 -1.9645
  360MOL0     H47504   5.672   7.639   4.306  0.3935 -0.1703 -1.6241
  360MOL0     H47505   5.868   7.651   4.171 -1.1656  3.3691 -3.1372
  360MOL0     H47506   7.316   7.237   3.248 -0.0848 -0.4728 -0.7869
  360MOL0     H47507   7.494   7.078   3.232 -2.1568  0.2194 -1.8272
  360MOL0     H47508   7.811   6.919   3.395 -0.2375  0.2005 -0.0737
  360MOL0     H47509   8.033   6.830   3.363 -2.6375  2.8136 -0.9945
  360MOL0     H47510   8.221   6.719   3.438 -0.5456  1.9012 -2.0479
  360MOL0     H47511   8.199   6.721   3.272 -1.1797  1.5091  0.1179
  360MOL0     H47512   8.417   6.656   3.339  1.0914 -0.9427 -1.2912
  360MOL0     H47513   8.353   6.530   3.454 -0.8073  0.2357  0.0072
  360MOL0     H47514   8.340   6.515   3.143 -0.0883  0.0899 -0.8391
  360MOL0     H47515   8.291   6.395   3.265  3.1391 -0.9609  3.6671
  360MOL0     H47516   8.544   6.402   3.364  0.8484  0.3103  0.4121
  360MOL0     H47517   8.494   6.340   3.201  1.9303  1.8122 -2.1092
  360MOL0     H47518   8.689   6.706   3.099 -1.3792  0.9300 -0.1496
  360MOL0     H47519   7.869   6.433   3.429  2.0510 -1.2624 -3.8584
  360MOL0     H47520   7.667   6.517   3.428 -0.0059  1.0707  2.9843
  361MOL0     O47521   2.355   9.058   2.879 -1.1588 -0.3635 -0.2720
  361MOL0     C47522   2.279   8.963   2.898  0.5774 -0.1581 -0.4765
  361MOL0     O47523   2.313   8.834   2.893 -0.2280  0.1747 -0.1765
  361MOL0     C47524   2.440   8.786   2.862 -0.3097 -1.0257 -0.4596
  361MOL0     C47525   2.460   8.663   2.799 -1.0343  1.0296 -0.7496
  361MOL0     C47526   2.594   8.612   2.783  0.3586  0.0416 -0.1049
  361MOL0     C47527   2.700   8.684   2.840 -0.6908  0.3102 -0.0537
  361MOL0     O47528   2.823   8.623   2.848 -0.1654 -0.1575  0.1212
  361MOL0     C47529   2.942   8.699   2.862  0.9109  0.3755  0.4627
  361MOL0     C47530   3.053   8.621   2.793  0.6193 -0.3447 -0.1621
  361MOL0     C47531   3.174   8.703   2.750  0.0036 -0.0891 -0.6176
  361MOL0     C47532   3.293   8.612   2.741 -0.3039 -1.1115  0.2655
  361MOL0     C47533   3.411   8.702   2.704  0.6745 -0.3602  0.6621
  361MOL0     C47534   3.537   8.611   2.695 -0.2102  0.8209  0.4193
  361MOL0     C47535   3.592   8.585   2.832 -0.6333  0.8474  0.0611
  361MOL0     C47536   3.702   8.692   2.868 -0.0433  0.2355  0.0470
  361MOL0     N47537   3.824   8.678   2.794  0.1151 -0.4671 -0.1699
  361MOL0     C47538   3.935   8.640   2.858 -1.4199 -0.3019  0.1761
  361MOL0     C47539   4.038   8.678   2.781  0.0243  0.2193 -0.0527
  361MOL0     C47540   4.181   8.673   2.818 -0.1350  0.5623 -0.4858
  361MOL0     C47541   4.201   8.760   2.940  0.6482 -0.3464 -0.0047
  361MOL0     C47542   4.144   8.899   2.926  0.7519  0.3343 -0.4044
  361MOL0     C47543   4.149   8.972   3.065 -0.3787 -0.3523 -0.4648
  361MOL0     O47544   4.086   8.899   3.167 -0.5034 -0.2263  0.2521
  361MOL0     C47545   3.952   8.886   3.163 -0.0049  0.3244 -1.2460
  361MOL0     C47546   3.866   8.974   3.097 -0.0513  0.4427  0.7886
  361MOL0     C47547   3.723   8.963   3.100  0.9130  0.2977 -0.7095
  361MOL0     C47548   3.672   8.865   3.188  0.2852 -0.0928  0.0759
  361MOL0     C47549   3.524   8.857   3.218 -0.3775 -1.0310  0.0298
  361MOL0     O47550   3.453   8.969   3.180  0.0102 -0.4613 -0.4296
  361MOL0     C47551   3.318   8.966   3.197  0.2806  0.8264  0.4032
  361MOL0     C47552   3.252   8.972   3.326 -0.2611  0.0792  0.1648
  361MOL0     C47553   3.110   8.963   3.324 -0.0957  0.5786 -0.3968
  361MOL0     C47554   3.036   8.953   3.197  0.6780  0.2963 -0.8274
  361MOL0     O47555   2.894   8.934   3.182 -0.7551 -0.2119 -0.3339
  361MOL0     C47556   2.807   8.993   3.282  0.3073 -0.0846  0.4761
  361MOL0     C47557   2.684   9.016   3.206 -0.2677 -0.1618  0.3255
  361MOL0     C47558   2.585   9.085   3.296 -1.0377  0.3415 -0.5768
  361MOL0     C47559   2.441   9.080   3.245  0.0592 -0.4807 -0.5219
  361MOL0     C47560   2.340   9.149   3.339  0.8565 -0.5361  0.9334
  361MOL0     C47561   2.192   9.114   3.305  0.3365 -0.7274 -0.5719
  361MOL0     C47562   2.120   9.140   3.436 -0.1700  0.3834 -0.1542
  361MOL0     C47563   1.972   9.089   3.433 -0.0096  0.7881  0.4160
  361MOL0    Cl47564   1.878   9.169   3.559 -0.1715 -0.1814 -0.3958
  361MOL0     C47565   3.113   8.957   3.081  0.6023 -0.2973  0.0447
  361MOL0     C47566   3.244   8.960   3.084 -0.3072  0.4730 -0.2947
  361MOL0     O47567   3.479   8.764   3.287 -0.1345  0.0978  0.2406
  361MOL0     C47568   3.754   8.774   3.254  0.1242 -0.8776 -0.6221
  361MOL0     C47569   3.889   8.789   3.238  0.2006  0.2632  0.4343
  361MOL0     N47570   3.990   8.755   2.673 -0.0301 -1.4465 -0.0940
  361MOL0     N47571   3.860   8.749   2.685 -0.1081 -0.2606  0.2116
  361MOL0     C47572   2.678   8.797   2.907 -0.2821  0.3256 -0.2922
  361MOL0     C47573   2.550   8.850   2.923  0.3737 -0.2082 -0.6228
  361MOL0     C47574   2.145   9.001   2.940 -0.6963 -0.2906  0.0733
  361MOL0     C47575   2.086   9.124   2.926 -0.3642 -0.2204 -0.0899
  361MOL0     C47576   1.955   9.145   2.951  0.4153 -0.3366  0.7731
  361MOL0     C47577   1.877   9.035   2.995  0.1935 -0.7159  0.5458
  361MOL0     O47578   1.740   9.041   3.017 -0.5543  0.2326  0.9218
  361MOL0     C47579   1.680   9.157   3.064  0.1738 -0.3443  0.1530
  361MOL0     C47580   1.531   9.142   3.075  0.6809  0.5104 -0.6233
  361MOL0     C47581   1.460   9.240   3.166  1.0680  0.2124  0.4533
  361MOL0     C47582   1.305   9.219   3.171  0.0818 -0.0510  0.7801
  361MOL0     C47583   1.247   9.340   3.228  0.0565 -0.2188 -0.2755
  361MOL0     C47584   1.214   9.444   3.286 -0.4761 -0.3077  0.4630
  361MOL0     C47585   1.935   8.915   3.032 -0.2431  0.5244 -0.8414
  361MOL0     C47586   2.072   8.897   2.999  0.5792  0.1960 -0.5873
  361MOL0     H47587   2.370   8.614   2.765  0.3880 -0.8624 -2.0480
  361MOL0     H47588   2.604   8.509   2.752 -4.7258 -0.5425 -0.7639
  361MOL0     H47589   2.964   8.721   2.967 -3.1265 -1.5033  1.9008
  361MOL0     H47590   2.935   8.786   2.797 -0.8194 -1.4049 -1.9454
  361MOL0     H47591   3.004   8.578   2.706 -1.5696 -0.5090  1.0726
  361MOL0     H47592   3.086   8.538   2.857 -2.8267 -1.2753  0.6101
  361MOL0     H47593   3.211   8.767   2.831  1.8103 -0.7129 -0.8915
  361MOL0     H47594   3.160   8.771   2.665  0.6208  1.5653  0.5622
  361MOL0     H47595   3.320   8.558   2.832  1.7835 -2.7634 -1.2333
  361MOL0     H47596   3.265   8.542   2.662 -1.8116 -1.4782  1.0711
  361MOL0     H47597   3.428   8.776   2.783  0.0373 -1.3305  1.7356
  361MOL0     H47598   3.388   8.756   2.612  0.0346  1.1206  1.6428
  361MOL0     H47599   3.611   8.674   2.646  0.4086  0.7302  1.2269
  361MOL0     H47600   3.520   8.516   2.644  2.1565  0.0021  1.0384
  361MOL0     H47601   3.519   8.580   2.913 -0.4519 -4.5893  0.2424
  361MOL0     H47602   3.639   8.486   2.828  0.7540  1.5109 -1.7337
  361MOL0     H47603   3.725   8.683   2.974 -0.6103 -0.6932  0.1015
  361MOL0     H47604   3.661   8.792   2.851  1.0060  0.7484  0.4837
  361MOL0     H47605   3.941   8.597   2.958 -1.4074  1.5204  0.9964
  361MOL0     H47606   4.225   8.716   2.728  3.6730 -2.1134 -0.1484
  361MOL0     H47607   4.230   8.576   2.833 -3.7871 -1.5574 -0.9025
  361MOL0     H47608   4.308   8.781   2.945  0.9893 -1.7054 -1.1509
  361MOL0     H47609   4.158   8.704   3.024 -2.9092  0.2156 -1.2856
  361MOL0     H47610   4.203   8.963   2.860  0.3817  1.4557  0.3118
  361MOL0     H47611   4.041   8.899   2.890  0.2600  0.2087  0.9408
  361MOL0     H47612   4.104   9.071   3.058 -1.3185 -0.7922 -0.7779
  361MOL0     H47613   4.255   8.984   3.091  0.0256 -2.0060 -1.1784
  361MOL0     H47614   3.913   9.050   3.035  1.0785 -0.7277  0.1539
  361MOL0     H47615   3.677   9.043   3.044 -1.9243 -0.3410  0.5238
  361MOL0     H47616   3.315   8.970   3.414  0.9317 -0.6036 -0.6665
  361MOL0     H47617   3.058   8.967   3.419 -0.9974 -0.7251 -0.8083
  361MOL0     H47618   2.848   9.092   3.305 -0.6447  0.7080 -1.0465
  361MOL0     H47619   2.785   8.938   3.374  1.5817  0.4406  1.1311
  361MOL0     H47620   2.665   8.920   3.156 -0.9099  1.7946 -3.6477
  361MOL0     H47621   2.697   9.086   3.122  1.3968  0.5848  1.1516
  361MOL0     H47622   2.624   9.187   3.298 -0.7624  0.2378 -0.6663
  361MOL0     H47623   2.586   9.046   3.398  0.4811  0.0840 -0.6750
  361MOL0     H47624   2.439   9.139   3.153 -0.0390 -1.0218 -0.8713
  361MOL0     H47625   2.409   8.976   3.232 -0.6931 -0.2055 -0.9286
  361MOL0     H47626   2.363   9.256   3.343  0.1870 -0.3955  1.1464
  361MOL0     H47627   2.362   9.127   3.444  1.0632  0.8378  1.1957
  361MOL0     H47628   2.182   9.009   3.274  2.0007 -0.7060 -1.2767
  361MOL0     H47629   2.147   9.171   3.224  1.5259 -0.1134 -0.8218
  361MOL0     H47630   2.165   9.112   3.531 -0.9895  0.4951  0.2795
  361MOL0     H47631   2.108   9.246   3.461  0.9331  0.1552  1.4431
  361MOL0     H47632   1.975   8.980   3.441  1.3314  0.5755 -2.0866
  361MOL0     H47633   1.912   9.101   3.342 -2.3518  1.2204  1.9346
  361MOL0     H47634   3.057   8.964   2.988 -0.6520 -0.1069  0.8076
  361MOL0     H47635   3.293   8.954   2.987 -2.7076 -1.6583 -1.4936
  361MOL0     H47636   3.725   8.691   3.318  0.4487  0.8035  1.8553
  361MOL0     H47637   3.957   8.712   3.273  0.1135 -0.2748 -0.5429
  361MOL0     H47638   2.761   8.833   2.966  0.7286 -1.8167 -0.3380
  361MOL0     H47639   2.534   8.939   2.982  0.1530  0.0572 -1.0755
  361MOL0     H47640   2.139   9.211   2.888  1.6974 -0.5429  1.7920
  361MOL0     H47641   1.920   9.245   2.928 -0.4553 -0.4637  1.5086
  361MOL0     H47642   1.692   9.242   2.996  2.4172 -0.2297  0.6031
  361MOL0     H47643   1.735   9.188   3.153 -2.2484  1.5208  1.1220
  361MOL0     H47644   1.484   9.153   2.976  0.9158 -0.7028 -0.8930
  361MOL0     H47645   1.519   9.041   3.115  2.0121  0.8809  0.7929
  361MOL0     H47646   1.480   9.343   3.134  1.1464  0.1272  0.2245
  361MOL0     H47647   1.488   9.232   3.272 -1.8116 -1.5512  1.2066
  361MOL0     H47648   1.259   9.211   3.071  1.7497  0.7309 -0.0785
  361MOL0     H47649   1.267   9.126   3.216 -2.3377  0.0472 -0.8606
  361MOL0     H47650   1.175   9.529   3.340  2.0852 -0.1255  2.1965
  361MOL0     H47651   1.875   8.838   3.080  1.8390 -0.4069  0.3906
  361MOL0     H47652   2.111   8.800   3.029 -3.2294 -2.0442 -2.1822
  362MOL0     O47653   2.341   4.251   8.159 -0.1885  0.3397 -0.1359
  362MOL0     C47654   2.451   4.300   8.164 -0.1650 -0.8239 -0.6111
  362MOL0     O47655   2.552   4.273   8.074  0.1092  0.0514  0.1059
  362MOL0     C47656   2.512   4.198   7.962 -0.2741  0.4964 -0.5815
  362MOL0     C47657   2.513   4.055   7.972  0.4456 -0.9489  1.0092
  362MOL0     C47658   2.474   3.989   7.855 -0.1262 -0.5449 -0.0839
  362MOL0     C47659   2.453   4.063   7.733  0.5967  0.7338  0.4202
  362MOL0     O47660   2.438   4.022   7.603  0.6902  0.0075  0.2647
  362MOL0     C47661   2.355   3.905   7.595 -0.0911  0.1464 -0.7603
  362MOL0     C47662   2.347   3.864   7.452  0.2606  0.8297 -0.0954
  362MOL0     C47663   2.283   3.966   7.358 -0.1826  0.6190 -0.6746
  362MOL0     C47664   2.279   3.908   7.220  0.2407 -0.5293 -0.6906
  362MOL0     C47665   2.177   3.974   7.131 -0.7981  0.1831 -0.5569
  362MOL0     C47666   2.199   4.124   7.108 -0.0476  0.1302 -0.0075
  362MOL0     C47667   2.081   4.188   7.027 -0.1866  0.5958 -0.3856
  362MOL0     C47668   2.092   4.336   7.005  0.1586 -0.1360 -0.1371
  362MOL0     N47669   2.207   4.382   6.919  0.5567 -0.2847 -0.1061
  362MOL0     C47670   2.241   4.317   6.801 -0.6105 -0.3465 -0.4005
  362MOL0     C47671   2.321   4.402   6.734 -0.4398  0.5717 -0.2306
  362MOL0     C47672   2.354   4.367   6.593 -0.3555 -0.1341  0.2834
  362MOL0     C47673   2.489   4.412   6.552  0.2044 -0.0225  0.3229
  362MOL0     C47674   2.558   4.294   6.478 -0.6409 -0.7796  0.6238
  362MOL0     C47675   2.705   4.328   6.433 -0.1099 -0.8046  1.0770
  362MOL0     O47676   2.789   4.385   6.539  0.5729  0.7620 -0.0092
  362MOL0     C47677   2.923   4.398   6.520  0.0807  0.0202 -0.4283
  362MOL0     C47678   3.006   4.392   6.635  0.0491 -0.0235 -0.1240
  362MOL0     C47679   3.140   4.407   6.626 -0.0662  0.1472  0.8194
  362MOL0     C47680   3.208   4.422   6.501  0.4574  0.3349  0.8596
  362MOL0     C47681   3.350   4.441   6.480 -0.3186  1.4206 -0.7549
  362MOL0     O47682   3.386   4.472   6.357 -0.5820  0.2741  0.7845
  362MOL0     C47683   3.519   4.463   6.314 -2.0319  0.4229  0.3687
  362MOL0     C47684   3.637   4.451   6.391  0.0018  0.3774  0.2215
  362MOL0     C47685   3.769   4.447   6.328 -0.0210 -0.0469  0.1603
  362MOL0     C47686   3.777   4.437   6.185 -0.4861 -0.2410 -0.6855
  362MOL0     O47687   3.901   4.444   6.121 -0.6920  0.6291 -0.1321
  362MOL0     C47688   4.022   4.470   6.198  0.8204  0.4334  0.1180
  362MOL0     C47689   4.137   4.465   6.107 -0.4712 -0.3538  0.1254
  362MOL0     C47690   4.193   4.323   6.086  0.4550 -0.3957 -0.0596
  362MOL0     C47691   4.324   4.312   6.014  0.4722  0.3941  0.6125
  362MOL0     C47692   4.379   4.173   6.002 -0.5173 -1.0279  0.4051
  362MOL0     C47693   4.528   4.165   5.940  0.7960 -0.1983  0.6823
  362MOL0     C47694   4.547   4.238   5.806  0.4734 -0.4812  0.9108
  362MOL0     C47695   4.465   4.211   5.681  0.0355  0.0080  0.3809
  362MOL0    Cl47696   4.449   4.039   5.651 -0.5148  0.0984  0.3325
  362MOL0     C47697   3.659   4.441   6.113 -0.9310 -0.7551  0.0006
  362MOL0     C47698   3.533   4.460   6.173 -0.9027  0.1492 -0.1307
  362MOL0     O47699   3.425   4.413   6.574  0.7423 -0.3336  0.2231
  362MOL0     C47700   3.120   4.421   6.383  0.2114  0.2025 -0.9314
  362MOL0     C47701   2.984   4.408   6.396 -0.3165 -0.8575  0.7947
  362MOL0     N47702   2.348   4.511   6.816  0.1848 -0.0144 -0.3200
  362MOL0     N47703   2.274   4.499   6.924 -0.1317  0.2494  0.2123
  362MOL0     C47704   2.454   4.194   7.735 -0.3537 -0.4739  0.1360
  362MOL0     C47705   2.477   4.269   7.849  0.3888 -0.2681 -0.5871
  362MOL0     C47706   2.477   4.402   8.273 -0.7046  0.3662  0.7075
  362MOL0     C47707   2.382   4.428   8.373 -0.0137  0.4521 -0.5896
  362MOL0     C47708   2.408   4.524   8.468 -0.1239  0.8327  0.3896
  362MOL0     C47709   2.530   4.594   8.473  0.1432 -0.4085  0.6131
  362MOL0     O47710   2.535   4.686   8.573  0.4500 -0.4679 -0.0356
  362MOL0     C47711   2.656   4.699   8.638  0.5830  0.2467 -0.8041
  362MOL0     C47712   2.633   4.724   8.787 -0.2780  0.4502  0.0824
  362MOL0     C47713   2.760   4.782   8.868  0.7993  0.4225  0.7410
  362MOL0     C47714   2.814   4.909   8.821 -0.5052 -0.0939 -0.3115
  362MOL0     C47715   2.714   5.010   8.786 -0.1967 -0.4301 -0.0174
  362MOL0     C47716   2.634   5.094   8.743  0.9590 -0.1414  1.0578
  362MOL0     C47717   2.630   4.556   8.384  0.1044  0.2690 -0.4939
  362MOL0     C47718   2.600   4.469   8.276 -0.7249 -0.0744 -0.0475
  362MOL0     H47719   2.551   4.000   8.057  1.0973  1.8054  2.6163
  362MOL0     H47720   2.481   3.881   7.848 -2.3896 -0.7451  0.1197
  362MOL0     H47721   2.257   3.939   7.629 -0.6593  0.0888 -2.2272
  362MOL0     H47722   2.382   3.820   7.658 -1.2077 -0.4919 -1.1273
  362MOL0     H47723   2.287   3.773   7.453  0.9686  0.3512  1.1833
  362MOL0     H47724   2.452   3.840   7.432  0.6599  2.1729  0.2529
  362MOL0     H47725   2.340   4.059   7.362 -0.4061  0.7354 -0.0960
  362MOL0     H47726   2.179   3.983   7.386 -0.1140  2.9352 -1.6345
  362MOL0     H47727   2.376   3.911   7.168  0.8212 -0.0281  0.3946
  362MOL0     H47728   2.239   3.806   7.229  1.0983 -0.9277 -1.2287
  362MOL0     H47729   2.073   3.953   7.157 -0.6765  2.9821  2.8093
  362MOL0     H47730   2.200   3.926   7.035  1.7410  1.2812 -0.5830
  362MOL0     H47731   2.289   4.141   7.049 -1.0751 -0.4122 -1.8254
  362MOL0     H47732   2.204   4.176   7.204  0.4033 -0.6056  0.3766
  362MOL0     H47733   2.049   4.142   6.933  0.8396 -0.3738 -0.2777
  362MOL0     H47734   1.991   4.176   7.089  2.1527 -0.2977  3.1538
  362MOL0     H47735   2.115   4.370   7.106  0.7303  0.2158 -0.3796
  362MOL0     H47736   2.000   4.376   6.961 -0.4293 -2.6474 -1.4115
  362MOL0     H47737   2.194   4.227   6.764  1.1999 -0.7392 -1.8679
  362MOL0     H47738   2.276   4.402   6.525 -2.2410  0.4934  2.6562
  362MOL0     H47739   2.345   4.259   6.584 -2.3755  0.0541 -0.3238
  362MOL0     H47740   2.541   4.448   6.641 -2.1955 -0.2450  1.8989
  362MOL0     H47741   2.476   4.493   6.479  0.7775 -1.1972 -1.1171
  362MOL0     H47742   2.575   4.207   6.543  0.2242 -1.2141 -0.1554
  362MOL0     H47743   2.500   4.254   6.395  0.0199  0.4933 -0.4967
  362MOL0     H47744   2.700   4.399   6.349  1.4538 -0.0803  1.5520
  362MOL0     H47745   2.751   4.244   6.381  0.1225 -0.5400  0.8498
  362MOL0     H47746   2.952   4.373   6.727  0.4732  0.5704  0.2633
  362MOL0     H47747   3.203   4.404   6.715 -1.1743  0.9024  1.6442
  362MOL0     H47748   3.646   4.458   6.499 -0.6129  0.8262  0.2454
  362MOL0     H47749   3.853   4.453   6.397 -1.3143 -1.0325  1.9256
  362MOL0     H47750   4.031   4.402   6.283  0.8957  0.3815  0.0679
  362MOL0     H47751   4.008   4.573   6.234 -0.7985 -0.0103  0.8339
  362MOL0     H47752   4.214   4.533   6.146 -1.8152  1.2431  0.0956
  362MOL0     H47753   4.105   4.502   6.009 -2.4171 -0.9456  0.5022
  362MOL0     H47754   4.119   4.275   6.022 -0.0228 -0.2578  0.3865
  362MOL0     H47755   4.195   4.277   6.185  1.3455 -1.8615 -0.7142
  362MOL0     H47756   4.312   4.356   5.914 -0.4196 -1.0777  0.0275
  362MOL0     H47757   4.394   4.384   6.058  0.4054  0.3886  0.7284
  362MOL0     H47758   4.298   4.126   5.945 -2.5234  0.3984  1.9045
  362MOL0     H47759   4.385   4.119   6.097 -0.6106 -1.5486  0.1140
  362MOL0     H47760   4.556   4.060   5.930 -3.6806 -1.4535 -0.6834
  362MOL0     H47761   4.586   4.218   6.016  1.8170 -1.0296  0.5011
  362MOL0     H47762   4.532   4.344   5.824  2.2348 -0.0340 -0.0171
  362MOL0     H47763   4.649   4.222   5.769  1.1026  0.3558  2.2322
  362MOL0     H47764   4.519   4.257   5.597  0.8186 -2.4874 -0.5862
  362MOL0     H47765   4.365   4.255   5.684  0.4581  1.0812 -0.2430
  362MOL0     H47766   3.673   4.431   6.006 -1.9867 -3.1848  0.0102
  362MOL0     H47767   3.438   4.464   6.122 -1.7031 -1.6093  1.1190
  362MOL0     H47768   3.166   4.420   6.284 -0.1684 -2.3282 -1.1494
  362MOL0     H47769   2.929   4.409   6.303  0.2209  0.9463  0.4671
  362MOL0     H47770   2.423   4.259   7.654  0.1573 -1.7197 -1.0918
  362MOL0     H47771   2.465   4.377   7.850 -0.4553 -0.3118 -2.3255
  362MOL0     H47772   2.285   4.380   8.378  0.3570 -0.1586  1.7179
  362MOL0     H47773   2.324   4.552   8.531  1.0161 -0.7525  2.7517
  362MOL0     H47774   2.713   4.778   8.588  3.2392 -0.7049  0.5264
  362MOL0     H47775   2.703   4.600   8.631 -1.7972 -0.9310 -1.4645
  362MOL0     H47776   2.543   4.785   8.800 -1.1681 -0.8316  0.1613
  362MOL0     H47777   2.613   4.629   8.839  0.2128  0.4452  0.2698
  362MOL0     H47778   2.836   4.704   8.872 -0.0546 -0.5775 -1.2258
  362MOL0     H47779   2.725   4.801   8.970 -1.6403  0.0598  0.0474
  362MOL0     H47780   2.879   4.934   8.905  0.9811 -0.4771 -1.3022
  362MOL0     H47781   2.873   4.885   8.732  2.0608 -2.0228  1.7598
  362MOL0     H47782   2.561   5.163   8.705 -0.4628 -0.9096  2.3084
  362MOL0     H47783   2.728   4.603   8.377  1.7294 -2.9701 -1.8803
  362MOL0     H47784   2.672   4.450   8.197  1.3993 -0.7951  1.9842
  363MOL0     O47785   1.320   7.407   1.384 -0.1250  0.1298 -0.2776
  363MOL0     C47786   1.275   7.296   1.401 -0.0391  0.1830  0.3925
  363MOL0     O47787   1.160   7.268   1.465 -0.4903  0.0624 -0.4786
  363MOL0     C47788   1.070   7.378   1.469 -0.5858  0.2214 -0.1562
  363MOL0     C47789   0.998   7.396   1.580  0.1691  1.3518 -1.9134
  363MOL0     C47790   0.893   7.484   1.597  0.0697 -0.8832  1.0535
  363MOL0     C47791   0.861   7.574   1.491 -0.3340  0.2917  0.3722
  363MOL0     O47792   0.754   7.665   1.495 -0.1900  0.8629  0.4543
  363MOL0     C47793   0.670   7.666   1.615 -0.3245  0.3652 -0.1253
  363MOL0     C47794   0.562   7.775   1.608 -0.1893  0.0381  0.2867
  363MOL0     C47795   0.485   7.771   1.479 -0.1675 -0.1874  0.3212
  363MOL0     C47796   0.436   7.625   1.444 -1.3203  0.3911  0.5940
  363MOL0     C47797   0.318   7.622   1.351  0.7927 -0.1615  0.9895
  363MOL0     C47798   0.257   7.486   1.321 -0.6972 -0.3046 -0.4648
  363MOL0     C47799   0.191   7.418   1.441 -0.8122 -0.0153  0.2506
  363MOL0     C47800   0.049   7.451   1.481  0.1982 -1.3302  0.2763
  363MOL0     N47801   0.051   7.571   1.569  0.5118 -0.0620 -0.3768
  363MOL0     C47802   0.095   7.568   1.700 -0.5810  0.4276 -0.3713
  363MOL0     C47803   0.078   7.694   1.741  0.1906 -0.0810 -0.3384
  363MOL0     C47804   0.099   7.724   1.886  0.8609 -0.6979 -0.5997
  363MOL0     C47805   0.246   7.746   1.918  0.5791  0.0394  0.5986
  363MOL0     C47806   0.279   7.820   2.045 -0.1346 -0.3044 -0.5071
  363MOL0     C47807   0.424   7.803   2.096  0.3938 -0.0379 -1.3263
  363MOL0     O47808   0.530   7.812   1.999 -0.5028  0.1537  0.2848
  363MOL0     C47809   0.658   7.804   2.046 -0.1634 -0.5891  0.1625
  363MOL0     C47810   0.700   7.745   2.171  0.2619 -0.2221 -0.1059
  363MOL0     C47811   0.831   7.746   2.212  0.8207 -0.6108  0.6598
  363MOL0     C47812   0.926   7.809   2.129  0.6115 -0.3414  0.5760
  363MOL0     C47813   1.067   7.820   2.172 -0.0286 -0.2247 -0.6897
  363MOL0     O47814   1.159   7.822   2.067 -0.0905 -0.3260  0.2162
  363MOL0     C47815   1.295   7.793   2.080 -0.1413 -0.2220  0.7440
  363MOL0     C47816   1.382   7.842   1.983 -0.5968 -0.2978 -1.3607
  363MOL0     C47817   1.511   7.794   1.982  0.2186 -0.6287  0.0834
  363MOL0     C47818   1.558   7.697   2.074  0.5125  0.2045  0.1988
  363MOL0     O47819   1.680   7.646   2.060  0.0304 -0.1666  0.8470
  363MOL0     C47820   1.746   7.559   2.139  0.2090 -0.0052  0.5978
  363MOL0     C47821   1.872   7.499   2.077  0.0691  0.0357  0.7860
  363MOL0     C47822   1.983   7.604   2.060  0.0563  0.9513 -0.1391
  363MOL0     C47823   2.096   7.570   1.966  0.1125 -0.8290 -0.3502
  363MOL0     C47824   2.208   7.671   1.949 -0.4841  0.6882 -0.2904
  363MOL0     C47825   2.170   7.818   1.904 -1.5254 -0.1530  1.0227
  363MOL0     C47826   2.294   7.918   1.926  0.0535  0.0833  0.1871
  363MOL0     C47827   2.268   8.034   1.836 -0.6061 -0.3548 -0.0288
  363MOL0    Cl47828   2.127   8.128   1.907  0.4248  0.1469  0.6587
  363MOL0     C47829   1.476   7.649   2.166 -0.1534 -0.8160  0.1478
  363MOL0     C47830   1.340   7.693   2.165  0.0322  0.5802  0.4504
  363MOL0     O47831   1.101   7.826   2.293  0.1786 -0.3141 -0.3660
  363MOL0     C47832   0.877   7.848   2.003 -0.1867 -0.2712  0.2837
  363MOL0     C47833   0.750   7.844   1.955  0.3293 -0.2852 -0.0397
  363MOL0     N47834   0.032   7.773   1.630  0.3120  0.2149 -0.2151
  363MOL0     N47835   0.020   7.695   1.533  0.7012 -0.3226  0.4202
  363MOL0     C47836   0.935   7.572   1.374 -0.7583  0.8227 -0.8194
  363MOL0     C47837   1.036   7.469   1.365  0.5026 -0.1847  0.5332
  363MOL0     C47838   1.365   7.194   1.343  0.1817 -0.0661 -0.9050
  363MOL0     C47839   1.500   7.223   1.313  0.4332 -0.3435  0.8377
  363MOL0     C47840   1.591   7.127   1.252  0.1099  0.1382 -0.7093
  363MOL0     C47841   1.540   7.003   1.219 -0.4722  1.1047  0.0439
  363MOL0     O47842   1.604   6.905   1.153 -0.0784  0.1732 -0.4025
  363MOL0     C47843   1.737   6.937   1.093 -0.4056  1.1901  0.2218
  363MOL0     C47844   1.772   6.801   1.023 -0.4275  0.3188 -0.4876
  363MOL0     C47845   1.913   6.780   0.957 -0.0179  0.2041 -0.2113
  363MOL0     C47846   1.923   6.658   0.880  0.3933 -0.8382 -0.1867
  363MOL0     C47847   2.056   6.652   0.827 -0.4400  0.0203 -0.8520
  363MOL0     C47848   2.170   6.648   0.794 -1.0251 -0.2469 -0.5295
  363MOL0     C47849   1.412   6.966   1.262 -0.2379 -0.0731  0.3813
  363MOL0     C47850   1.323   7.056   1.325 -0.3496  0.7947  0.5584
  363MOL0     H47851   1.007   7.329   1.665 -0.8804  1.6046 -1.5873
  363MOL0     H47852   0.853   7.496   1.697  0.3070 -0.3019  1.0789
  363MOL0     H47853   0.721   7.679   1.711  1.3754 -0.3461 -0.9088
  363MOL0     H47854   0.621   7.569   1.615  0.3540  0.0068  0.7722
  363MOL0     H47855   0.613   7.872   1.613  0.8438 -0.5483  2.7333
  363MOL0     H47856   0.490   7.773   1.691 -0.8043  0.5757 -0.2185
  363MOL0     H47857   0.550   7.801   1.396  1.3990  0.2259  1.6493
  363MOL0     H47858   0.406   7.847   1.491  0.4472  0.1402  2.9061
  363MOL0     H47859   0.526   7.582   1.400 -0.9864  1.7651 -0.1364
  363MOL0     H47860   0.406   7.576   1.537  0.2555  0.4377  1.1569
  363MOL0     H47861   0.349   7.673   1.259 -0.9487 -0.4028  0.2335
  363MOL0     H47862   0.238   7.682   1.395 -0.5715 -0.6938 -0.6392
  363MOL0     H47863   0.334   7.416   1.286  2.5124  1.0979  3.1006
  363MOL0     H47864   0.175   7.514   1.254 -2.3529  1.1258  2.0195
  363MOL0     H47865   0.183   7.312   1.415 -0.0720 -0.0988  0.3523
  363MOL0     H47866   0.257   7.421   1.528 -1.1675 -0.1713  0.5328
  363MOL0     H47867  -0.010   7.376   1.535 -0.8834  1.0611  2.6326
  363MOL0     H47868  -0.012   7.472   1.392  0.8302  4.7786  0.8586
  363MOL0     H47869   0.126   7.479   1.753  1.6526  1.3911  0.0612
  363MOL0     H47870   0.058   7.638   1.941  0.3844 -0.7838 -1.0862
  363MOL0     H47871   0.045   7.814   1.914  1.5014 -0.4451 -0.1579
  363MOL0     H47872   0.290   7.810   1.841  1.2124  0.5333  1.3508
  363MOL0     H47873   0.288   7.645   1.913  2.9515  0.9096  1.4420
  363MOL0     H47874   0.260   7.927   2.031 -1.4153 -0.1224  2.0200
  363MOL0     H47875   0.212   7.788   2.126 -4.2217  0.0416 -3.4514
  363MOL0     H47876   0.429   7.702   2.138  2.5834  0.0212 -1.3064
  363MOL0     H47877   0.447   7.870   2.180  1.0683 -1.0548 -0.6687
  363MOL0     H47878   0.628   7.719   2.248 -2.1783 -1.1180 -2.5486
  363MOL0     H47879   0.859   7.701   2.307  0.8855  1.7530  1.8220
  363MOL0     H47880   1.346   7.916   1.911 -3.0435 -0.4955 -0.4445
  363MOL0     H47881   1.582   7.838   1.912  1.7625 -0.7057  1.5550
  363MOL0     H47882   1.684   7.476   2.175 -1.8035  1.3259  0.3485
  363MOL0     H47883   1.778   7.609   2.231  2.1217  0.7400 -0.4036
  363MOL0     H47884   1.845   7.459   1.978 -1.4456  2.3970  0.1680
  363MOL0     H47885   1.916   7.424   2.143  0.3854 -1.6384 -1.1981
  363MOL0     H47886   2.022   7.642   2.155 -0.2242 -2.6799  1.5799
  363MOL0     H47887   1.941   7.694   2.014 -1.8539  0.7501  1.0837
  363MOL0     H47888   2.151   7.484   2.005  1.1859  0.0221  0.0727
  363MOL0     H47889   2.056   7.555   1.865 -0.1516 -1.5862 -0.1420
  363MOL0     H47890   2.282   7.622   1.885  2.2561  0.8468  2.4871
  363MOL0     H47891   2.260   7.694   2.043  0.5826 -0.8328 -0.4857
  363MOL0     H47892   2.087   7.859   1.961 -2.1270 -0.1790  0.1868
  363MOL0     H47893   2.132   7.811   1.801  1.2819 -0.7740 -0.0697
  363MOL0     H47894   2.304   7.957   2.027  1.2273 -1.2407  0.6297
  363MOL0     H47895   2.394   7.881   1.898 -0.5323 -0.3674 -1.4181
  363MOL0     H47896   2.254   8.004   1.732  3.5934 -0.0574 -0.8406
  363MOL0     H47897   2.357   8.097   1.838 -1.3087  0.8505 -2.9083
  363MOL0     H47898   1.500   7.583   2.248 -1.8989 -2.6914 -0.7547
  363MOL0     H47899   1.262   7.653   2.231 -0.3759  1.6259  0.6238
  363MOL0     H47900   0.962   7.871   1.940 -0.5218 -1.2647 -0.5634
  363MOL0     H47901   0.714   7.876   1.858  0.2254  1.0073  0.4061
  363MOL0     H47902   0.910   7.628   1.284 -2.2554  1.7228  0.1195
  363MOL0     H47903   1.088   7.448   1.272  2.0589 -0.9836  1.5345
  363MOL0     H47904   1.549   7.316   1.339 -0.0462  0.8019 -1.9514
  363MOL0     H47905   1.687   7.160   1.213 -0.6166 -0.6397 -3.3470
  363MOL0     H47906   1.799   6.960   1.180  1.4628 -1.5170 -0.2546
  363MOL0     H47907   1.743   7.014   1.016  0.6641  2.5769  1.6315
  363MOL0     H47908   1.759   6.716   1.090  0.9683  0.2414 -0.2736
  363MOL0     H47909   1.713   6.784   0.933  1.1984 -1.1091 -1.3447
  363MOL0     H47910   1.984   6.764   1.038 -0.4551 -0.7661 -0.0015
  363MOL0     H47911   1.944   6.866   0.897  1.3080  1.3672  2.0387
  363MOL0     H47912   1.908   6.576   0.950 -1.8043  1.7666  2.6545
  363MOL0     H47913   1.844   6.654   0.804  0.9138 -2.9484 -0.6697
  363MOL0     H47914   2.275   6.638   0.774 -1.1867 -0.4829 -1.2625
  363MOL0     H47915   1.373   6.867   1.240 -2.3948  0.5548  1.0523
  363MOL0     H47916   1.228   7.014   1.356 -1.0761  1.9286 -0.0373
  364MOL0     O47917   8.625   1.006   8.482  0.4319 -0.0120 -1.0148
  364MOL0     C47918   8.664   1.043   8.596  0.2600  0.1921 -0.6490
  364MOL0     O47919   8.587   1.107   8.684  0.3837  0.3621 -0.0356
  364MOL0     C47920   8.485   1.192   8.640  0.0102  0.0216  0.6405
  364MOL0     C47921   8.481   1.275   8.513  1.1905 -0.1835  0.1621
  364MOL0     C47922   8.378   1.370   8.499  0.2903  0.6447 -0.3144
  364MOL0     C47923   8.286   1.392   8.601  0.4415  0.1216  0.6766
  364MOL0     O47924   8.208   1.506   8.584  0.3507  0.4563  0.2280
  364MOL0     C47925   8.116   1.543   8.697 -0.1164  0.1635  0.0975
  364MOL0     C47926   8.045   1.676   8.658 -0.6007 -0.9107  0.0903
  364MOL0     C47927   7.904   1.659   8.594 -0.4128 -0.1844  0.0956
  364MOL0     C47928   7.830   1.785   8.569  0.0093 -0.5252  0.4064
  364MOL0     C47929   7.681   1.739   8.542 -0.6444  0.3648  0.5916
  364MOL0     C47930   7.595   1.863   8.510 -0.2734  0.3693  0.8361
  364MOL0     C47931   7.444   1.831   8.475 -0.5272 -0.6968  0.0506
  364MOL0     C47932   7.420   1.806   8.336  0.3520  0.0099  0.2595
  364MOL0     N47933   7.279   1.804   8.300 -0.7675 -0.6130  0.7209
  364MOL0     C47934   7.202   1.925   8.296 -1.0872  0.1447 -0.0591
  364MOL0     C47935   7.085   1.887   8.275 -0.5956  0.0190  0.6301
  364MOL0     C47936   6.959   1.971   8.250  0.2065  1.1178 -0.0227
  364MOL0     C47937   6.894   2.013   8.378  0.3570 -0.2153  0.7603
  364MOL0     C47938   6.833   1.895   8.463  0.0414  0.3510  0.5960
  364MOL0     C47939   6.721   1.814   8.391  0.0095  0.1820  0.2805
  364MOL0     O47940   6.640   1.757   8.495 -0.4595 -0.1430  0.0022
  364MOL0     C47941   6.515   1.705   8.467 -0.7257 -0.2194 -0.6352
  364MOL0     C47942   6.457   1.699   8.342 -0.5001 -0.8764 -0.7145
  364MOL0     C47943   6.326   1.643   8.331  0.1502 -1.1749  0.4826
  364MOL0     C47944   6.261   1.606   8.448 -1.2105  0.7009  0.5732
  364MOL0     C47945   6.119   1.557   8.438 -0.2843 -0.3972  0.2289
  364MOL0     O47946   6.073   1.504   8.321 -0.0748  0.5353 -0.3446
  364MOL0     C47947   5.940   1.463   8.304 -0.3631 -0.1137 -0.2790
  364MOL0     C47948   5.832   1.518   8.372 -0.0981 -0.2430  0.3724
  364MOL0     C47949   5.706   1.481   8.343 -0.1888  0.3532  0.3497
  364MOL0     C47950   5.679   1.384   8.245  0.0308 -0.5718  0.3439
  364MOL0     O47951   5.549   1.352   8.227  0.6069 -0.3033  0.3913
  364MOL0     C47952   5.505   1.288   8.102 -0.5810  0.0211 -1.1004
  364MOL0     C47953   5.365   1.336   8.072 -0.2431  0.2555  0.4281
  364MOL0     C47954   5.301   1.274   7.949 -1.5218 -0.2813 -0.6047
  364MOL0     C47955   5.153   1.282   7.951 -0.4690 -0.6501  0.2291
  364MOL0     C47956   5.092   1.204   7.833  0.2637  0.1610 -0.7023
  364MOL0     C47957   4.944   1.164   7.868 -0.9208  0.2233 -0.1232
  364MOL0     C47958   4.879   1.107   7.744  0.3461 -0.1092 -0.0053
  364MOL0     C47959   4.738   1.052   7.786  0.0302  0.5457  0.2491
  364MOL0    Cl47960   4.746   0.891   7.866  0.1945 -0.2187  0.1036
  364MOL0     C47961   5.788   1.333   8.170 -0.2808  0.5952  0.1695
  364MOL0     C47962   5.919   1.374   8.205 -0.3026 -0.6677 -0.9183
  364MOL0     O47963   6.062   1.560   8.551 -0.6398  0.0187 -0.4109
  364MOL0     C47964   6.318   1.613   8.574  0.1102  0.6220 -0.4973
  364MOL0     C47965   6.449   1.655   8.581  0.4621  0.4775  0.3684
  364MOL0     N47966   7.076   1.752   8.285 -0.3536  0.4306 -0.7601
  364MOL0     N47967   7.191   1.701   8.299 -0.9345  0.4024  0.5027
  364MOL0     C47968   8.284   1.310   8.713 -0.5469  0.2440  0.3406
  364MOL0     C47969   8.380   1.210   8.736  0.1864 -0.1511 -0.0262
  364MOL0     C47970   8.787   1.001   8.656 -0.7060 -0.2105  0.4687
  364MOL0     C47971   8.824   1.035   8.784 -0.4886  0.2522 -0.7655
  364MOL0     C47972   8.948   0.990   8.833  0.0117  1.1573 -0.8917
  364MOL0     C47973   9.045   0.910   8.761 -0.3863 -0.2040 -0.4717
  364MOL0     O47974   9.167   0.877   8.810 -0.0910  0.0693  0.5226
  364MOL0     C47975   9.254   0.790   8.744 -0.7674 -1.1420 -0.1082
  364MOL0     C47976   9.368   0.762   8.844  0.0590 -0.5937  0.9838
  364MOL0     C47977   9.457   0.885   8.847  0.1910 -0.0866  0.2474
  364MOL0     C47978   9.551   0.901   8.977 -0.0043 -0.6003  0.4910
  364MOL0     C47979   9.641   0.789   9.008 -0.6133  0.1340  0.8401
  364MOL0     C47980   9.732   0.710   9.024 -0.5880 -0.4914 -0.4552
  364MOL0     C47981   9.000   0.886   8.628 -0.7503  0.3779 -0.0668
  364MOL0     C47982   8.884   0.932   8.575  0.2716 -0.5474  0.9708
  364MOL0     H47983   8.570   1.270   8.451  1.2867  2.4634  0.0022
  364MOL0     H47984   8.380   1.430   8.409  2.5301 -0.1286 -0.8303
  364MOL0     H47985   8.159   1.558   8.796 -0.8073  1.2659  0.2536
  364MOL0     H47986   8.033   1.472   8.699  0.2594 -0.4088 -1.9253
  364MOL0     H47987   8.112   1.722   8.585  1.6478  0.4854  2.8429
  364MOL0     H47988   8.038   1.757   8.732 -2.2818 -0.8886 -0.0546
  364MOL0     H47989   7.845   1.601   8.666 -1.7648  1.3576  0.2892
  364MOL0     H47990   7.915   1.602   8.501  3.4854 -0.2150  0.4240
  364MOL0     H47991   7.833   1.853   8.654  1.1493  1.2883 -1.0014
  364MOL0     H47992   7.869   1.841   8.483 -1.9937 -1.4622 -1.2163
  364MOL0     H47993   7.642   1.692   8.632  0.6474 -0.7447  0.6112
  364MOL0     H47994   7.673   1.670   8.458  1.5548 -2.2871  2.3536
  364MOL0     H47995   7.639   1.912   8.422  2.9049 -0.8073  1.6603
  364MOL0     H47996   7.596   1.924   8.601  1.2256 -0.9577  1.7618
  364MOL0     H47997   7.395   1.755   8.537 -2.6496  0.3371 -0.2688
  364MOL0     H47998   7.406   1.926   8.514  1.0277 -1.2946  3.4623
  364MOL0     H47999   7.446   1.700   8.322  0.4011  0.0107  0.3444
  364MOL0     H48000   7.481   1.867   8.270 -0.0105  0.6960  0.5537
  364MOL0     H48001   7.233   2.028   8.302 -1.1603  0.0871  2.2262
  364MOL0     H48002   6.893   1.921   8.179  0.2286 -0.3996  0.9840
  364MOL0     H48003   7.000   2.062   8.205  2.5393 -0.8729 -2.2310
  364MOL0     H48004   6.815   2.087   8.368  0.6889  0.0482  0.0316
  364MOL0     H48005   6.976   2.062   8.431  2.2675 -0.8122 -1.4579
  364MOL0     H48006   6.913   1.829   8.496  0.0703 -0.2531 -0.6189
  364MOL0     H48007   6.786   1.937   8.552 -0.3996  2.8613 -0.7372
  364MOL0     H48008   6.749   1.728   8.331 -0.5740 -1.2718  1.9985
  364MOL0     H48009   6.660   1.883   8.332  1.5315  0.7848 -0.6501
  364MOL0     H48010   6.513   1.726   8.254  1.5466 -3.0488 -0.1670
  364MOL0     H48011   6.282   1.625   8.233  3.9800 -0.6967 -1.4890
  364MOL0     H48012   5.842   1.598   8.444  1.8027 -0.1580  0.0619
  364MOL0     H48013   5.623   1.524   8.399 -0.7752  1.2575 -1.1391
  364MOL0     H48014   5.503   1.179   8.111 -3.9403  0.0657  0.1262
  364MOL0     H48015   5.564   1.317   8.015 -0.9183  0.9893 -1.0209
  364MOL0     H48016   5.369   1.445   8.058  1.9753 -0.0524 -2.0107
  364MOL0     H48017   5.300   1.312   8.157 -0.1220 -0.7740  0.2326
  364MOL0     H48018   5.335   1.170   7.956  0.1890  0.1726 -1.6177
  364MOL0     H48019   5.349   1.313   7.859 -1.1999 -0.7373 -0.6346
  364MOL0     H48020   5.119   1.244   8.047 -0.5836 -3.3581 -0.8034
  364MOL0     H48021   5.130   1.389   7.951 -0.9248 -0.7433  0.0611
  364MOL0     H48022   5.144   1.108   7.821  1.1434  0.2352  1.9234
  364MOL0     H48023   5.086   1.260   7.739 -0.0207 -0.8979 -1.3374
  364MOL0     H48024   4.892   1.249   7.913 -1.1801 -0.8638  1.7664
  364MOL0     H48025   4.949   1.085   7.944  2.7109  1.2077  0.8691
  364MOL0     H48026   4.862   1.190   7.676 -2.1855  1.4568  2.3177
  364MOL0     H48027   4.954   1.037   7.706  4.6146  2.0279  3.4835
  364MOL0     H48028   4.674   1.041   7.698  0.0182 -1.1461  0.4465
  364MOL0     H48029   4.683   1.128   7.843 -2.3243 -0.3039 -0.8032
  364MOL0     H48030   5.778   1.252   8.098  2.7467  1.9161 -1.9861
  364MOL0     H48031   6.008   1.343   8.151 -0.2849 -2.0647 -0.1307
  364MOL0     H48032   6.270   1.587   8.668  0.8557 -0.1057 -0.3084
  364MOL0     H48033   6.509   1.646   8.671  3.2607  0.4287 -1.3852
  364MOL0     H48034   8.212   1.318   8.794  0.9107  0.3573  1.6882
  364MOL0     H48035   8.386   1.158   8.831  0.2004  3.0339  1.8485
  364MOL0     H48036   8.762   1.099   8.846  0.4616  2.9276 -2.4116
  364MOL0     H48037   8.970   1.017   8.936  1.0984  1.1329 -1.1091
  364MOL0     H48038   9.291   0.822   8.646 -0.0457 -1.1275  0.1646
  364MOL0     H48039   9.196   0.697   8.735 -1.2417 -1.0908  2.0529
  364MOL0     H48040   9.331   0.741   8.945 -2.6707 -1.5153 -0.1123
  364MOL0     H48041   9.433   0.684   8.803  0.3425  0.8381 -1.4727
  364MOL0     H48042   9.389   0.971   8.852  0.5002  0.2475 -0.8882
  364MOL0     H48043   9.505   0.891   8.749 -0.5879 -2.2574 -0.3229
  364MOL0     H48044   9.615   0.990   8.974  0.5045 -0.9777 -0.6293
  364MOL0     H48045   9.489   0.899   9.067  1.0334 -0.5510  1.2318
  364MOL0     H48046   9.826   0.659   9.016 -0.3956  0.0162 -1.7255
  364MOL0     H48047   9.063   0.846   8.549  0.8505  1.1971  0.7617
  364MOL0     H48048   8.845   0.910   8.477 -2.6707 -0.3709  1.9964
  365MOL0     O48049   3.553   7.092   9.278 -0.8996 -0.0600  0.1951
  365MOL0     C48050   3.537   7.002   9.358 -0.0376 -0.1998  0.6920
  365MOL0     O48051   3.635   6.929   9.423  0.6023 -0.2468  0.0903
  365MOL0     C48052   3.764   6.949   9.392  0.3475 -0.2222  0.3415
  365MOL0     C48053   3.849   6.844   9.373  0.0428 -0.3085 -0.2138
  365MOL0     C48054   3.983   6.866   9.364  0.1910  0.6206 -0.8852
  365MOL0     C48055   4.045   6.994   9.392  0.2702  0.7949  0.6764
  365MOL0     O48056   4.176   6.986   9.399 -0.3388 -0.3212 -0.2046
  365MOL0     C48057   4.234   7.109   9.372 -0.8039 -0.7842 -0.5548
  365MOL0     C48058   4.380   7.072   9.337 -0.7474  0.2960 -0.5429
  365MOL0     C48059   4.462   7.053   9.465 -0.0630 -0.3747 -0.1463
  365MOL0     C48060   4.598   6.990   9.409 -0.0761 -0.0084 -0.1156
  365MOL0     C48061   4.710   6.965   9.506 -0.5817  1.2538 -0.2417
  365MOL0     C48062   4.667   6.909   9.640  0.0021 -0.3745  0.1361
  365MOL0     C48063   4.746   6.780   9.687 -0.6896 -0.0400  0.1650
  365MOL0     C48064   4.717   6.733   9.829  0.1697 -0.1213 -0.1071
  365MOL0     N48065   4.572   6.723   9.868 -0.6927  0.2493 -0.2944
  365MOL0     C48066   4.502   6.616   9.838  0.9540 -0.7059 -0.1213
  365MOL0     C48067   4.375   6.657   9.879  0.9120 -0.6504  0.2928
  365MOL0     C48068   4.248   6.587   9.847  0.1028 -0.1090  0.3935
  365MOL0     C48069   4.139   6.620   9.952  0.2680 -0.5456  0.0975
  365MOL0     C48070   4.022   6.526   9.955 -0.2018 -0.4733  0.7702
  365MOL0     C48071   3.908   6.583   9.865 -0.4030 -0.7401 -0.2527
  365MOL0     O48072   3.798   6.496   9.881  0.1164 -0.2377  0.5998
  365MOL0     C48073   3.669   6.547   9.847 -0.2877 -0.2292 -0.4536
  365MOL0     C48074   3.639   6.676   9.804 -0.4631 -0.1279  0.4783
  365MOL0     C48075   3.509   6.716   9.775  0.2571  0.0029  0.6092
  365MOL0     C48076   3.396   6.627   9.802 -0.1688  0.3330 -0.6763
  365MOL0     C48077   3.258   6.670   9.776  0.5130 -0.3287 -0.0881
  365MOL0     O48078   3.161   6.581   9.794  0.3018  0.8286 -0.1414
  365MOL0     C48079   3.026   6.598   9.777 -0.0964 -0.3936  0.3259
  365MOL0     C48080   2.945   6.482   9.777 -1.0011 -0.5628 -0.0592
  365MOL0     C48081   2.809   6.482   9.760  0.4036 -0.1741 -0.9980
  365MOL0     C48082   2.734   6.599   9.749 -0.4225 -0.6999 -0.5977
  365MOL0     O48083   2.596   6.612   9.728  0.0198  0.8761  0.1579
  365MOL0     C48084   2.524   6.491   9.683 -0.7201 -0.0203 -0.4524
  365MOL0     C48085   2.378   6.512   9.688  0.3624 -0.6140 -0.7876
  365MOL0     C48086   2.290   6.395   9.642 -0.4219 -0.7478 -0.4482
  365MOL0     C48087   2.148   6.381   9.699  0.5249 -0.3326  0.0643
  365MOL0     C48088   2.061   6.488   9.634  0.0705 -0.9008 -0.6296
  365MOL0     C48089   1.914   6.440   9.674  0.4464 -0.1253  0.1174
  365MOL0     C48090   1.815   6.528   9.603  0.1437 -0.0011  0.4688
  365MOL0     C48091   1.693   6.558   9.693 -0.2855  0.6553 -0.6876
  365MOL0    Cl48092   1.575   6.670   9.618  0.4546 -0.1673 -0.0698
  365MOL0     C48093   2.810   6.721   9.755  0.1066 -0.8299 -0.4658
  365MOL0     C48094   2.955   6.724   9.771  0.8408  0.0766 -0.4360
  365MOL0     O48095   3.240   6.790   9.754  0.5650  0.0493 -0.0732
  365MOL0     C48096   3.431   6.503   9.857  0.1776 -0.4630  0.2796
  365MOL0     C48097   3.566   6.457   9.876  0.3774 -0.5733  0.8104
  365MOL0     N48098   4.385   6.786   9.928 -0.0416  0.2597  0.2482
  365MOL0     N48099   4.501   6.827   9.913 -0.2904 -0.0299 -0.0572
  365MOL0     C48100   3.954   7.096   9.405 -0.0378  0.6915  0.1392
  365MOL0     C48101   3.815   7.079   9.402  0.9916  1.6334  0.1475
  365MOL0     C48102   3.398   6.957   9.379  0.6930 -0.6733 -0.5449
  365MOL0     C48103   3.292   7.038   9.359  0.3948 -0.3463 -0.3664
  365MOL0     C48104   3.158   6.985   9.345  0.3364  0.1568 -1.0217
  365MOL0     C48105   3.138   6.844   9.355  0.0108 -0.7358  0.8345
  365MOL0     O48106   3.010   6.805   9.324  0.1943 -0.3086  0.1435
  365MOL0     C48107   2.983   6.666   9.287  0.3817  0.4541 -0.2466
  365MOL0     C48108   2.912   6.600   9.403  0.2665  0.5546 -0.2828
  365MOL0     C48109   2.766   6.563   9.385  0.7373 -0.3704 -0.0075
  365MOL0     C48110   2.689   6.695   9.383 -0.1605  0.2835  0.1836
  365MOL0     C48111   2.546   6.685   9.391 -0.3158  0.9643  0.0502
  365MOL0     C48112   2.431   6.694   9.390  0.2786  0.7685 -0.2723
  365MOL0     C48113   3.244   6.764   9.393 -0.0981 -0.2845  0.0821
  365MOL0     C48114   3.368   6.822   9.417  0.0197 -0.3729 -0.0570
  365MOL0     H48115   3.806   6.745   9.358  0.7240 -0.6535  0.0838
  365MOL0     H48116   4.051   6.783   9.349 -0.5713  0.1611 -1.8691
  365MOL0     H48117   4.221   7.183   9.451  0.4112  0.0268 -1.0951
  365MOL0     H48118   4.190   7.146   9.278 -1.8278  5.9132  2.0199
  365MOL0     H48119   4.431   7.156   9.289  3.3740 -3.1847 -3.0659
  365MOL0     H48120   4.372   6.986   9.269 -0.3862  0.3309 -0.6337
  365MOL0     H48121   4.405   6.978   9.521  1.6634 -2.0167 -0.4783
  365MOL0     H48122   4.471   7.144   9.525  1.3381 -0.9447  0.5624
  365MOL0     H48123   4.575   6.900   9.351 -1.3128  0.5952 -0.5884
  365MOL0     H48124   4.637   7.063   9.337 -2.0540 -0.9264 -2.2156
  365MOL0     H48125   4.765   7.059   9.520  0.5598  0.6306 -0.4632
  365MOL0     H48126   4.779   6.890   9.466 -2.4884 -0.1634 -1.0443
  365MOL0     H48127   4.568   6.862   9.639  0.7048 -1.9646  1.5240
  365MOL0     H48128   4.665   6.983   9.720 -0.1594  0.0410 -0.2442
  365MOL0     H48129   4.718   6.705   9.612  0.7979  0.6787 -1.1569
  365MOL0     H48130   4.853   6.800   9.682 -0.5275  1.3727  4.9275
  365MOL0     H48131   4.788   6.790   9.889  1.7484 -2.1710  0.0799
  365MOL0     H48132   4.752   6.630   9.828  0.7293  0.0638 -1.3267
  365MOL0     H48133   4.539   6.526   9.790  0.2323 -1.5228  0.8099
  365MOL0     H48134   4.269   6.480   9.851  1.3758  0.0171 -1.2906
  365MOL0     H48135   4.220   6.608   9.743  0.6050  1.2468  0.5068
  365MOL0     H48136   4.110   6.725   9.947  1.1384  0.1221  4.5917
  365MOL0     H48137   4.191   6.601  10.047  1.4149 -0.6662 -0.5267
  365MOL0     H48138   4.040   6.424   9.919 -0.7341  0.0622 -1.1358
  365MOL0     H48139   3.988   6.527  10.058 -3.6241 -0.3550 -0.2367
  365MOL0     H48140   3.927   6.584   9.758 -4.0026  0.3271 -0.9926
  365MOL0     H48141   3.886   6.686   9.897 -1.4192 -1.3414  1.1029
  365MOL0     H48142   3.714   6.753   9.791 -0.5377 -0.4619 -3.2177
  365MOL0     H48143   3.497   6.817   9.736  0.7166  0.1068  0.7340
  365MOL0     H48144   2.999   6.392   9.802 -1.1683 -0.7962 -0.5252
  365MOL0     H48145   2.770   6.382   9.741  3.0280 -2.0689  2.5632
  365MOL0     H48146   2.549   6.409   9.750  0.4911  1.8671  1.5529
  365MOL0     H48147   2.555   6.468   9.580 -0.2584  2.0006 -0.8179
  365MOL0     H48148   2.353   6.601   9.630 -0.9309 -0.5056 -0.1067
  365MOL0     H48149   2.360   6.524   9.796 -3.1081  1.7581 -1.4464
  365MOL0     H48150   2.352   6.313   9.679 -1.2291 -0.9826  0.4268
  365MOL0     H48151   2.302   6.388   9.533  1.6150  2.1072 -0.5081
  365MOL0     H48152   2.112   6.279   9.682 -1.0628 -0.6371  4.1189
  365MOL0     H48153   2.147   6.403   9.806 -2.4063  3.0425 -0.4584
  365MOL0     H48154   2.080   6.493   9.526  0.6801 -2.6436 -0.6202
  365MOL0     H48155   2.084   6.583   9.683  3.1953 -1.7004 -0.3391
  365MOL0     H48156   1.912   6.455   9.782  1.8349  2.7206 -0.1431
  365MOL0     H48157   1.890   6.335   9.656 -2.7881  0.5322 -0.0664
  365MOL0     H48158   1.863   6.621   9.571 -0.7290 -0.0233 -1.0051
  365MOL0     H48159   1.773   6.476   9.516  0.1169  3.3668 -1.7022
  365MOL0     H48160   1.741   6.614   9.774 -0.2372 -0.6295  0.2031
  365MOL0     H48161   1.644   6.469   9.735  2.2735  0.6498  2.7460
  365MOL0     H48162   2.760   6.813   9.725  0.1825 -0.0387  1.6089
  365MOL0     H48163   3.004   6.820   9.751 -1.2562  0.7829 -2.6310
  365MOL0     H48164   3.347   6.441   9.886 -0.9025  0.1944 -1.3364
  365MOL0     H48165   3.587   6.364   9.928  2.3702 -0.6831 -0.1010
  365MOL0     H48166   3.993   7.194   9.432  0.5373  0.9491 -1.5156
  365MOL0     H48167   3.746   7.163   9.404 -1.0155  0.0552  0.5270
  365MOL0     H48168   3.300   7.145   9.342 -2.9226 -0.0583 -0.6601
  365MOL0     H48169   3.083   7.059   9.320 -0.1123  0.1356  0.2074
  365MOL0     H48170   3.072   6.612   9.255 -0.5054 -0.7902 -0.7113
  365MOL0     H48171   2.918   6.654   9.200  0.6953  0.6186 -0.5047
  365MOL0     H48172   2.973   6.509   9.413 -1.0596 -0.2315  1.0835
  365MOL0     H48173   2.932   6.659   9.493 -0.0938  0.5225 -0.1810
  365MOL0     H48174   2.727   6.487   9.454 -0.9781 -1.4321 -2.0364
  365MOL0     H48175   2.760   6.512   9.289 -0.8829 -2.7753  1.2729
  365MOL0     H48176   2.724   6.755   9.467  0.5894 -2.1544  1.7092
  365MOL0     H48177   2.694   6.739   9.283 -1.5596  0.5667  0.2157
  365MOL0     H48178   2.325   6.687   9.398  0.4708 -1.9643  1.0060
  365MOL0     H48179   3.238   6.656   9.404 -0.7451 -0.2631  0.0112
  365MOL0     H48180   3.448   6.755   9.445 -0.2892  0.0813  2.0620
  366MOL0     O48181   7.349   6.389   6.391  0.0855 -0.5337 -0.1635
  366MOL0     C48182   7.352   6.388   6.268  0.8714 -0.4834 -0.9979
  366MOL0     O48183   7.238   6.382   6.189  0.0654 -0.1011 -0.3744
  366MOL0     C48184   7.115   6.400   6.240 -0.0954  0.4609 -0.0333
  366MOL0     C48185   7.045   6.304   6.319 -0.2988 -0.5051  0.5086
  366MOL0     C48186   6.915   6.332   6.374  1.2303 -0.2144  0.4761
  366MOL0     C48187   6.847   6.456   6.334  0.9711  0.5305  0.2497
  366MOL0     O48188   6.711   6.481   6.352  0.8355 -0.0776  0.1409
  366MOL0     C48189   6.623   6.371   6.335 -0.0479 -0.2372 -0.1807
  366MOL0     C48190   6.478   6.435   6.345 -1.0863  0.1171  0.4349
  366MOL0     C48191   6.442   6.478   6.487  0.5739  0.5252 -0.4077
  366MOL0     C48192   6.291   6.509   6.490 -0.2580 -0.5984 -0.7042
  366MOL0     C48193   6.245   6.546   6.632 -0.1069  0.2841  0.3962
  366MOL0     C48194   6.104   6.588   6.635 -0.0665 -0.1412 -0.0426
  366MOL0     C48195   6.070   6.705   6.545  0.2888 -0.1367 -0.1133
  366MOL0     C48196   5.968   6.803   6.612  0.2557 -0.3138 -0.4659
  366MOL0     N48197   5.835   6.751   6.649  0.8360 -0.3673 -0.2778
  366MOL0     C48198   5.754   6.695   6.558 -0.4288  0.4224 -0.3885
  366MOL0     C48199   5.660   6.629   6.615  0.5889  0.0072 -0.3335
  366MOL0     C48200   5.549   6.550   6.550  0.8189  0.8143 -1.0500
  366MOL0     C48201   5.586   6.409   6.562 -0.1487  1.4602  0.0047
  366MOL0     C48202   5.487   6.308   6.491 -0.2419  0.2379 -0.0414
  366MOL0     C48203   5.348   6.314   6.529  1.6723  0.0204  0.1976
  366MOL0     O48204   5.269   6.215   6.455 -0.6400 -0.0001 -0.1360
  366MOL0     C48205   5.135   6.224   6.458  0.3240 -0.4275  0.9591
  366MOL0     C48206   5.062   6.211   6.576 -0.2073  0.3897  0.0746
  366MOL0     C48207   4.929   6.208   6.571 -0.0640 -0.2007 -0.0552
  366MOL0     C48208   4.858   6.220   6.448  0.5393 -0.6610 -0.4699
  366MOL0     C48209   4.713   6.237   6.462  0.8214  0.2951  0.5042
  366MOL0     O48210   4.652   6.203   6.576  0.6703 -0.4164 -0.4491
  366MOL0     C48211   4.515   6.186   6.593  0.3968  0.7829  0.9804
  366MOL0     C48212   4.429   6.150   6.487  1.1319 -0.5660  0.3246
  366MOL0     C48213   4.295   6.122   6.511  1.1825  0.0115 -0.7491
  366MOL0     C48214   4.241   6.150   6.639 -0.5628 -0.2853 -0.0746
  366MOL0     O48215   4.107   6.130   6.660  0.1719 -0.3507  0.4221
  366MOL0     C48216   4.032   6.228   6.584  1.0851 -0.3593 -0.1088
  366MOL0     C48217   3.890   6.254   6.645  0.2236 -0.5100  0.7724
  366MOL0     C48218   3.897   6.279   6.794  0.0621  0.4363 -0.5079
  366MOL0     C48219   3.765   6.343   6.843 -0.4386  0.0714 -0.8236
  366MOL0     C48220   3.768   6.393   6.992  0.1475 -0.5809  0.6030
  366MOL0     C48221   3.639   6.472   7.033  0.2775 -0.0656 -0.4565
  366MOL0     C48222   3.631   6.618   6.988  0.6033 -0.0336  1.0151
  366MOL0     C48223   3.508   6.698   7.038 -0.2310  0.1825  0.5901
  366MOL0    Cl48224   3.369   6.669   6.937 -0.1027 -0.0031  0.1033
  366MOL0     C48225   4.324   6.165   6.744  0.4362  0.1373  0.2741
  366MOL0     C48226   4.465   6.189   6.721 -0.0308 -0.7167 -1.0264
  366MOL0     O48227   4.661   6.284   6.367  0.1773 -0.6262  0.0656
  366MOL0     C48228   4.937   6.242   6.334  0.0442 -0.0618 -1.2218
  366MOL0     C48229   5.073   6.240   6.335 -0.1130  0.1503  0.0500
  366MOL0     N48230   5.690   6.637   6.751 -0.5229 -0.0509 -0.1009
  366MOL0     N48231   5.798   6.706   6.769  0.5082 -0.1847 -0.2217
  366MOL0     C48232   6.916   6.545   6.253 -0.3179 -0.0106  0.2395
  366MOL0     C48233   7.049   6.520   6.212 -0.4175 -0.0015  0.2111
  366MOL0     C48234   7.476   6.380   6.191 -0.7263  0.5428 -0.3186
  366MOL0     C48235   7.486   6.300   6.076 -0.5952  0.8588  0.1990
  366MOL0     C48236   7.604   6.288   6.000 -0.2833 -0.3309  0.3411
  366MOL0     C48237   7.722   6.344   6.045  0.2469 -0.1420 -0.2483
  366MOL0     O48238   7.841   6.332   5.975 -0.0629 -0.3012 -0.6994
  366MOL0     C48239   7.859   6.218   5.889  1.2638  0.4128 -0.0974
  366MOL0     C48240   8.004   6.178   5.884  1.0649  0.2878 -0.3197
  366MOL0     C48241   8.024   6.036   5.823 -0.3875 -0.6143  0.5649
  366MOL0     C48242   8.146   5.957   5.873  0.3361 -0.5873  0.6464
  366MOL0     C48243   8.139   5.921   6.017  1.1382  0.5459 -0.1435
  366MOL0     C48244   8.145   5.884   6.131 -0.5871 -0.2198 -0.9807
  366MOL0     C48245   7.721   6.415   6.161 -0.4231  0.4188 -0.3306
  366MOL0     C48246   7.598   6.436   6.226 -0.2995 -1.0813 -0.4096
  366MOL0     H48247   7.094   6.210   6.343  1.8171  0.9201  2.1666
  366MOL0     H48248   6.867   6.260   6.439 -1.9736  2.2114  1.1024
  366MOL0     H48249   6.618   6.294   6.412  0.7763 -0.0482  0.0666
  366MOL0     H48250   6.633   6.331   6.233 -0.5249 -1.7892  0.3650
  366MOL0     H48251   6.413   6.359   6.300  1.8729 -1.8851 -0.7496
  366MOL0     H48252   6.462   6.518   6.276 -2.7749  1.8578  2.7721
  366MOL0     H48253   6.501   6.563   6.521  1.1518 -0.0694  0.1106
  366MOL0     H48254   6.464   6.399   6.559  2.6262  0.1459 -1.3749
  366MOL0     H48255   6.262   6.582   6.414  1.5760  0.4461 -0.4740
  366MOL0     H48256   6.238   6.416   6.469  2.1048 -1.7323 -2.0031
  366MOL0     H48257   6.301   6.629   6.675  1.1881 -1.1721  1.6292
  366MOL0     H48258   6.253   6.467   6.707  1.6808 -0.2393 -0.2783
  366MOL0     H48259   6.076   6.618   6.736 -0.1317 -0.7888  0.1355
  366MOL0     H48260   6.046   6.499   6.607 -1.5211  0.7974 -0.0945
  366MOL0     H48261   6.157   6.766   6.518  0.0997  2.2279  3.8098
  366MOL0     H48262   6.023   6.663   6.456 -0.0048  1.9611 -1.0033
  366MOL0     H48263   5.968   6.890   6.546 -0.3523 -0.3498 -0.5170
  366MOL0     H48264   6.015   6.840   6.704  3.0279  1.1666 -2.3475
  366MOL0     H48265   5.765   6.704   6.450  0.9516 -0.3521 -0.3337
  366MOL0     H48266   5.538   6.573   6.444 -1.0729 -0.1381 -1.0925
  366MOL0     H48267   5.459   6.582   6.603  1.7747  0.8274  0.6620
  366MOL0     H48268   5.602   6.382   6.666 -0.4401  0.6291 -0.1575
  366MOL0     H48269   5.683   6.394   6.513  0.5987 -0.3782  1.8831
  366MOL0     H48270   5.490   6.334   6.385 -0.4345 -0.2129 -0.1615
  366MOL0     H48271   5.518   6.205   6.513 -3.0463 -0.3143  1.9723
  366MOL0     H48272   5.307   6.413   6.510  0.0642 -1.0123 -2.2686
  366MOL0     H48273   5.342   6.291   6.636  3.4194 -2.6440 -0.1890
  366MOL0     H48274   5.119   6.191   6.666  2.3155 -1.8850 -1.8018
  366MOL0     H48275   4.876   6.202   6.666  0.1658  0.8862  0.1634
  366MOL0     H48276   4.470   6.116   6.392 -2.5465  0.6737 -1.9021
  366MOL0     H48277   4.233   6.080   6.433 -1.2310  1.8687  0.0431
  366MOL0     H48278   4.014   6.204   6.478 -0.0385 -0.5462  0.1090
  366MOL0     H48279   4.085   6.323   6.583  1.7266 -0.7090 -0.3691
  366MOL0     H48280   3.819   6.175   6.617 -1.9084  1.9228 -1.2655
  366MOL0     H48281   3.860   6.345   6.591  2.0750  0.2918  1.0284
  366MOL0     H48282   3.979   6.348   6.819 -0.2530 -0.8666  5.7204
  366MOL0     H48283   3.919   6.194   6.860  3.3404  2.1277  0.7889
  366MOL0     H48284   3.735   6.425   6.778 -2.1659 -1.5399 -2.1697
  366MOL0     H48285   3.691   6.264   6.828 -1.8932  1.4552 -1.2793
  366MOL0     H48286   3.856   6.457   7.002  0.1499 -0.7656  1.9220
  366MOL0     H48287   3.778   6.313   7.065  1.2301  0.3684  1.5395
  366MOL0     H48288   3.617   6.459   7.139  2.5207 -0.8756 -0.0398
  366MOL0     H48289   3.561   6.416   6.979  1.1164  1.0561 -3.0080
  366MOL0     H48290   3.724   6.662   7.025  2.5264 -2.8923 -0.0246
  366MOL0     H48291   3.635   6.623   6.878 -1.2556 -3.0386  0.6934
  366MOL0     H48292   3.528   6.805   7.046 -0.7382  0.2883  0.4651
  366MOL0     H48293   3.491   6.655   7.137 -3.3975 -1.1984 -0.4060
  366MOL0     H48294   4.283   6.179   6.843 -0.7847 -1.5045  0.0247
  366MOL0     H48295   4.533   6.211   6.802 -3.1528  1.4965  1.2624
  366MOL0     H48296   4.887   6.238   6.238 -2.1373 -2.2402 -0.1117
  366MOL0     H48297   5.123   6.234   6.238 -0.7743 -0.9557 -0.2407
  366MOL0     H48298   6.865   6.634   6.218  0.0210 -0.6987 -2.1579
  366MOL0     H48299   7.109   6.584   6.148 -4.3270 -0.2346 -4.2692
  366MOL0     H48300   7.404   6.240   6.037 -0.2050  0.5454 -0.1407
  366MOL0     H48301   7.609   6.241   5.902  3.6922  2.2903 -0.9498
  366MOL0     H48302   7.821   6.244   5.789  2.5683 -1.4956 -1.1385
  366MOL0     H48303   7.808   6.132   5.933 -0.0585  1.2861  0.1556
  366MOL0     H48304   8.052   6.247   5.814  0.9385  1.2859  0.5608
  366MOL0     H48305   8.061   6.186   5.977  1.5878  0.7288 -0.6681
  366MOL0     H48306   8.046   6.063   5.719  3.4564  1.1434  1.6572
  366MOL0     H48307   7.931   5.982   5.845 -0.3873  0.1016  2.4959
  366MOL0     H48308   8.143   5.872   5.804 -3.2835  0.2974 -0.5297
  366MOL0     H48309   8.236   6.016   5.855  0.9111 -1.4941  0.4385
  366MOL0     H48310   8.156   5.842   6.229  2.8180  0.4312 -0.9677
  366MOL0     H48311   7.810   6.464   6.198 -1.2880  3.7213 -2.2549
  366MOL0     H48312   7.594   6.503   6.312  2.5087  0.5646 -1.4237
  367MOL0     O48313   3.223   4.179   2.409  0.2930  0.7085 -0.0042
  367MOL0     C48314   3.179   4.282   2.460 -0.5456  0.4424  0.0145
  367MOL0     O48315   3.050   4.318   2.457  0.0937 -0.3864 -0.1426
  367MOL0     C48316   2.956   4.240   2.390 -0.0801 -0.6158  0.7073
  367MOL0     C48317   2.908   4.298   2.272  0.5965  0.5530 -0.1033
  367MOL0     C48318   2.814   4.228   2.194  0.4535 -0.3362  0.2211
  367MOL0     C48319   2.768   4.097   2.236 -0.0743 -0.4052  0.4276
  367MOL0     O48320   2.670   4.024   2.177  0.4421 -0.8388  0.7321
  367MOL0     C48321   2.600   4.096   2.061 -0.7160 -0.6698 -0.2341
  367MOL0     C48322   2.492   4.189   2.118  0.7242 -1.2399 -1.1479
  367MOL0     C48323   2.382   4.211   2.012  0.8433  0.3001 -0.1677
  367MOL0     C48324   2.290   4.089   1.994  0.3929  0.7409  0.3534
  367MOL0     C48325   2.180   4.122   1.891 -0.0100 -0.2764 -0.2386
  367MOL0     C48326   2.086   3.996   1.898 -0.1063  0.5556  0.6419
  367MOL0     C48327   1.946   4.041   1.848 -0.3090 -0.5172  0.8175
  367MOL0     C48328   1.901   4.008   1.713 -0.3586 -0.1625  0.0342
  367MOL0     N48329   1.787   4.075   1.660 -0.2150 -0.5207  0.0238
  367MOL0     C48330   1.755   4.209   1.661 -0.0550  0.2990 -1.0729
  367MOL0     C48331   1.640   4.209   1.602  0.1323 -0.7591 -0.2791
  367MOL0     C48332   1.559   4.332   1.569 -0.3560 -0.0808  0.1370
  367MOL0     C48333   1.415   4.309   1.618  0.2137  0.5111 -0.5783
  367MOL0     C48334   1.402   4.318   1.773  0.2511  0.4792 -0.0338
  367MOL0     C48335   1.280   4.232   1.826 -0.3408 -0.7269 -0.8299
  367MOL0     O48336   1.164   4.272   1.754 -0.1092 -0.2077 -0.1627
  367MOL0     C48337   1.064   4.173   1.756  0.5305 -0.7735  0.1124
  367MOL0     C48338   1.007   4.125   1.871 -0.4646  0.6164 -0.3270
  367MOL0     C48339   0.896   4.044   1.875  0.4689 -0.4918 -0.4578
  367MOL0     C48340   0.819   4.037   1.754  0.6715  0.4769  0.7294
  367MOL0     C48341   0.682   3.978   1.750  0.0312  0.8667  0.5132
  367MOL0     O48342   0.627   3.939   1.867 -0.3202 -0.1659  0.0866
  367MOL0     C48343   0.501   3.885   1.867  0.0329  0.4444 -0.3500
  367MOL0     C48344   0.499   3.747   1.837  0.4979 -1.0716  0.1696
  367MOL0     C48345   0.366   3.690   1.834 -0.0660  0.4549  0.5030
  367MOL0     C48346   0.250   3.757   1.852 -0.3996 -0.0553 -0.8895
  367MOL0     O48347   0.130   3.684   1.850  0.2975 -0.3377  0.4433
  367MOL0     C48348   0.020   3.762   1.904 -0.7432  0.0310  0.7487
  367MOL0     C48349  -0.106   3.679   1.931 -0.2993  0.1766 -0.5285
  367MOL0     C48350  -0.204   3.778   1.979  0.2787 -0.1607  0.0695
  367MOL0     C48351  -0.342   3.714   1.981 -0.1874 -0.4588  0.1340
  367MOL0     C48352  -0.439   3.800   2.053  0.2347 -0.3981 -0.7110
  367MOL0     C48353  -0.585   3.761   2.007  0.0543 -0.3979  0.4066
  367MOL0     C48354  -0.683   3.830   2.108 -0.1109 -0.7444  0.4799
  367MOL0     C48355  -0.820   3.759   2.114 -1.0469  0.7699  0.0365
  367MOL0    Cl48356  -0.909   3.859   2.227 -0.1854  0.4661 -0.4164
  367MOL0     C48357   0.263   3.891   1.881  0.3586 -0.6980 -1.0113
  367MOL0     C48358   0.388   3.958   1.885  0.6621 -0.5138 -1.2228
  367MOL0     O48359   0.635   3.963   1.635  0.2688  0.3898  0.0549
  367MOL0     C48360   0.874   4.088   1.634  0.0587 -0.2138 -0.5284
  367MOL0     C48361   1.000   4.150   1.632  0.0965 -0.3241  1.0205
  367MOL0     N48362   1.607   4.082   1.564  0.2277  0.0972  0.9991
  367MOL0     N48363   1.686   4.002   1.608 -0.4720 -0.0303 -0.1020
  367MOL0     C48364   2.824   4.046   2.352 -1.0041  0.0833  0.0763
  367MOL0     C48365   2.920   4.113   2.429 -0.1811 -0.3987 -0.3632
  367MOL0     C48366   3.264   4.344   2.556  0.3858 -0.5437 -0.4562
  367MOL0     C48367   3.364   4.277   2.620  0.5355  0.3674 -0.1093
  367MOL0     C48368   3.458   4.350   2.702  0.2086 -0.5335  1.4060
  367MOL0     C48369   3.422   4.478   2.741 -0.6777 -0.0767  0.1551
  367MOL0     O48370   3.502   4.554   2.834 -0.4226 -0.3729  0.6083
  367MOL0     C48371   3.588   4.469   2.921  0.4725 -0.6778  0.4249
  367MOL0     C48372   3.621   4.541   3.055 -0.3132 -0.0253 -0.0188
  367MOL0     C48373   3.693   4.674   3.019  0.1459  0.2898 -0.0971
  367MOL0     C48374   3.751   4.736   3.145  0.0090  0.1910  0.5041
  367MOL0     C48375   3.848   4.839   3.109 -0.2502  0.2498 -0.1651
  367MOL0     C48376   3.931   4.926   3.086 -0.4153 -0.5545 -0.3344
  367MOL0     C48377   3.316   4.544   2.689 -0.1880 -0.4390 -0.0394
  367MOL0     C48378   3.238   4.480   2.594  0.3158  0.1043 -0.3804
  367MOL0     H48379   2.942   4.399   2.248  1.9053  0.2838  0.5761
  367MOL0     H48380   2.769   4.278   2.109 -0.6958 -0.2386  0.8686
  367MOL0     H48381   2.548   4.012   2.014 -0.1354 -1.7718  1.0175
  367MOL0     H48382   2.674   4.135   1.992  1.0372  2.3091  3.0079
  367MOL0     H48383   2.524   4.290   2.144 -0.4232 -1.0322 -0.4823
  367MOL0     H48384   2.438   4.147   2.203 -0.9878  0.5983 -1.2411
  367MOL0     H48385   2.421   4.228   1.911 -1.4049  1.0118 -0.9869
  367MOL0     H48386   2.329   4.306   2.023  0.5351  0.0645  0.3974
  367MOL0     H48387   2.352   4.010   1.952  2.1193  0.6801  2.8290
  367MOL0     H48388   2.242   4.056   2.087 -0.2642 -2.7071 -1.0513
  367MOL0     H48389   2.217   4.126   1.788 -2.2999 -4.0173 -1.4006
  367MOL0     H48390   2.124   4.211   1.920  0.8745  1.1216 -2.5227
  367MOL0     H48391   2.071   3.966   2.002 -0.6748  1.7070  0.9127
  367MOL0     H48392   2.124   3.911   1.840 -3.0891  1.9819 -3.9422
  367MOL0     H48393   1.880   3.994   1.923  0.5676 -0.0043  1.9498
  367MOL0     H48394   1.932   4.149   1.855  0.3312 -0.1710 -2.0571
  367MOL0     H48395   1.889   3.899   1.707 -0.0427 -0.1915 -0.0862
  367MOL0     H48396   1.989   4.024   1.650  0.9903 -2.0705  1.3229
  367MOL0     H48397   1.813   4.297   1.686 -0.4932  0.1603  0.5310
  367MOL0     H48398   1.559   4.356   1.462 -1.0493  1.2958  0.4100
  367MOL0     H48399   1.598   4.413   1.631  0.5520 -1.2509  1.1501
  367MOL0     H48400   1.381   4.211   1.585 -1.4041  0.3508  1.3436
  367MOL0     H48401   1.355   4.386   1.568  1.3998  1.3889 -0.7047
  367MOL0     H48402   1.489   4.272   1.821 -2.0543 -6.5900 -1.4999
  367MOL0     H48403   1.390   4.420   1.812 -0.7458  0.2841  0.2019
  367MOL0     H48404   1.263   4.246   1.933 -4.0321 -4.5435 -0.6680
  367MOL0     H48405   1.301   4.128   1.800 -1.4365 -0.9023 -1.0671
  367MOL0     H48406   1.054   4.145   1.967 -1.6759  1.4043  0.1240
  367MOL0     H48407   0.865   3.996   1.967 -0.0540 -1.9789 -1.3752
  367MOL0     H48408   0.596   3.701   1.822  0.6400 -0.2590 -1.8530
  367MOL0     H48409   0.352   3.582   1.827  0.6269  0.3976 -0.0981
  367MOL0     H48410  -0.006   3.837   1.829  0.1446 -0.7401 -0.3487
  367MOL0     H48411   0.041   3.816   1.997 -1.1696 -0.3737  1.0894
  367MOL0     H48412  -0.074   3.622   2.018 -0.1518  0.9957 -0.0434
  367MOL0     H48413  -0.145   3.613   1.852 -1.9355  1.4055 -0.8042
  367MOL0     H48414  -0.211   3.861   1.908 -1.2695  0.5432  1.0027
  367MOL0     H48415  -0.188   3.826   2.076  0.4692  0.4591 -0.2622
  367MOL0     H48416  -0.371   3.726   1.876  1.9042  3.5674 -0.1953
  367MOL0     H48417  -0.355   3.615   2.024 -0.2735  0.1684  1.6331
  367MOL0     H48418  -0.411   3.904   2.036  3.2128 -0.7118  1.4558
  367MOL0     H48419  -0.418   3.781   2.159  0.1933 -0.6060 -0.7402
  367MOL0     H48420  -0.605   3.653   2.004  0.6254 -0.5219  0.7880
  367MOL0     H48421  -0.602   3.812   1.912  1.3558  1.1833  0.9710
  367MOL0     H48422  -0.649   3.839   2.212 -0.6465 -0.1418  0.6144
  367MOL0     H48423  -0.683   3.935   2.076  3.5593 -0.7580  0.0203
  367MOL0     H48424  -0.808   3.659   2.157  1.3984  0.5327 -1.0170
  367MOL0     H48425  -0.877   3.750   2.021 -1.1606 -0.8740  0.2311
  367MOL0     H48426   0.177   3.955   1.894  0.0456 -0.8730 -2.1238
  367MOL0     H48427   0.388   4.065   1.903 -4.0174 -0.1581 -1.9965
  367MOL0     H48428   0.818   4.075   1.542 -2.0643 -0.2955  0.7044
  367MOL0     H48429   1.032   4.202   1.543 -0.2079 -3.4834 -1.1172
  367MOL0     H48430   2.786   3.949   2.384  1.5199 -0.5059  1.5637
  367MOL0     H48431   2.961   4.075   2.522  0.5764 -2.9495 -1.6701
  367MOL0     H48432   3.388   4.173   2.601 -0.9577  0.0060 -0.1310
  367MOL0     H48433   3.550   4.301   2.733 -0.1829 -1.4824  1.0995
  367MOL0     H48434   3.669   4.454   2.849 -1.4019 -0.8853 -1.7642
  367MOL0     H48435   3.539   4.375   2.946 -5.0342  1.7517  0.3868
  367MOL0     H48436   3.525   4.560   3.104 -0.5494 -0.5983 -0.2602
  367MOL0     H48437   3.695   4.480   3.108  0.5836 -0.0544 -1.2491
  367MOL0     H48438   3.626   4.744   2.968  2.5094  1.8808 -1.1703
  367MOL0     H48439   3.777   4.650   2.954  1.2898 -0.1386  1.4821
  367MOL0     H48440   3.672   4.777   3.208  1.4541  0.4906  2.2187
  367MOL0     H48441   3.805   4.658   3.200  0.0794 -1.9238 -2.3045
  367MOL0     H48442   4.003   5.002   3.062 -0.9784  1.5121  3.5517
  367MOL0     H48443   3.291   4.646   2.717  0.5971 -0.6755  1.5974
  367MOL0     H48444   3.156   4.537   2.552  1.0847  1.5396  0.0228
  368MOL0     O48445   8.429  10.160   0.302 -0.8417 -0.5724 -0.8968
  368MOL0     C48446   8.486  10.150   0.419 -0.1837  0.8823 -0.4375
  368MOL0     O48447   8.429  10.109   0.537 -0.5586  0.4085  0.2436
  368MOL0     C48448   8.313  10.041   0.531  0.1357 -1.0489 -0.4211
  368MOL0     C48449   8.221  10.074   0.638 -0.1970  0.1900 -0.7612
  368MOL0     C48450   8.094  10.017   0.660 -0.0657 -0.7953 -0.6044
  368MOL0     C48451   8.068   9.913   0.582  0.7931  0.0634 -0.5748
  368MOL0     O48452   7.939   9.860   0.600 -0.7454  0.3344 -0.0935
  368MOL0     C48453   7.882   9.791   0.491  0.6019 -0.1051  0.5103
  368MOL0     C48454   7.747   9.756   0.551 -0.5618  0.4002 -0.4405
  368MOL0     C48455   7.667   9.652   0.473  0.1948  0.2267 -0.1690
  368MOL0     C48456   7.529   9.619   0.536 -0.3717  0.4532 -0.3083
  368MOL0     C48457   7.450   9.528   0.442  0.2934 -0.5356  0.1639
  368MOL0     C48458   7.300   9.517   0.493 -0.4318  0.0692 -0.3699
  368MOL0     C48459   7.209   9.432   0.399 -0.6129  0.4215  0.0858
  368MOL0     C48460   7.096   9.525   0.340 -0.6580  0.8910  0.2095
  368MOL0     N48461   6.981   9.441   0.288  0.0032  0.2068 -0.4243
  368MOL0     C48462   6.932   9.321   0.330  0.1568  0.5826 -0.1837
  368MOL0     C48463   6.825   9.299   0.248  0.0770 -0.7502  0.3190
  368MOL0     C48464   6.735   9.175   0.270 -0.4449  0.1876 -0.6551
  368MOL0     C48465   6.595   9.200   0.214 -0.6856  0.0000 -0.2203
  368MOL0     C48466   6.509   9.070   0.229  0.4059  0.1899 -0.4584
  368MOL0     C48467   6.372   9.099   0.194 -0.6497 -0.6818 -0.7433
  368MOL0     O48468   6.315   8.978   0.148  0.1047  0.4865  0.0399
  368MOL0     C48469   6.186   8.942   0.189  0.5781  1.1921  0.4468
  368MOL0     C48470   6.149   8.803   0.174 -0.8413 -0.4269 -0.5770
  368MOL0     C48471   6.033   8.747   0.242 -0.0801 -0.8591 -0.2712
  368MOL0     C48472   5.959   8.833   0.325 -0.2614 -0.5636 -0.3021
  368MOL0     C48473   5.871   8.769   0.427  0.1308  0.0705 -0.8243
  368MOL0     O48474   5.888   8.637   0.445  0.3791  0.4885 -0.3829
  368MOL0     C48475   5.839   8.555   0.544  0.0152  0.1811  0.3157
  368MOL0     C48476   5.836   8.418   0.521 -0.5300 -0.3125 -0.0155
  368MOL0     C48477   5.794   8.319   0.621  0.6753 -0.5788 -0.0052
  368MOL0     C48478   5.729   8.371   0.733  0.4016  0.9108 -0.1414
  368MOL0     O48479   5.678   8.297   0.837 -0.0103 -0.4658 -0.4296
  368MOL0     C48480   5.745   8.180   0.874  0.5270 -0.5161  0.8449
  368MOL0     C48481   5.717   8.160   1.021  0.0960 -1.1815  0.3961
  368MOL0     C48482   5.568   8.131   1.040 -0.9574 -0.1592 -0.2082
  368MOL0     C48483   5.525   8.147   1.184  0.8647 -0.3598  0.3889
  368MOL0     C48484   5.373   8.100   1.222 -0.8167 -0.2926 -0.3023
  368MOL0     C48485   5.380   7.969   1.287  0.5881 -0.5933  0.0032
  368MOL0     C48486   5.242   7.940   1.364 -0.2313  0.2490 -0.2543
  368MOL0     C48487   5.124   7.955   1.270  0.3234  0.1306  0.2500
  368MOL0    Cl48488   4.976   7.895   1.341 -0.0852  0.5127 -0.0759
  368MOL0     C48489   5.720   8.508   0.751 -0.2698  1.0135  0.2769
  368MOL0     C48490   5.770   8.597   0.654 -0.1683 -0.7536  0.3490
  368MOL0     O48491   5.784   8.835   0.486 -0.2366 -0.2217 -0.0379
  368MOL0     C48492   5.973   8.973   0.317 -0.4108  0.7733 -0.0964
  368MOL0     C48493   6.091   9.025   0.253  0.5832  0.0772  0.7026
  368MOL0     N48494   6.813   9.403   0.155 -0.0018 -0.2633 -0.3997
  368MOL0     N48495   6.914   9.480   0.174  0.0855  0.1880  0.6015
  368MOL0     C48496   8.155   9.875   0.474  0.0470 -0.1886 -0.6525
  368MOL0     C48497   8.276   9.947   0.450 -0.0827  0.7813  0.1960
  368MOL0     C48498   8.632  10.191   0.434  0.1807  0.2978 -0.0858
  368MOL0     C48499   8.704  10.233   0.317  0.8655 -0.0888 -0.1447
  368MOL0     C48500   8.837  10.281   0.328  0.3648  0.0581 -0.4966
  368MOL0     C48501   8.898  10.313   0.448 -0.2394  0.4017 -0.5324
  368MOL0     O48502   9.020  10.375   0.462  0.9533 -0.0137  0.7798
  368MOL0     C48503   9.075  10.464   0.362  0.0142  0.1721  0.5038
  368MOL0     C48504   9.207  10.518   0.409  0.5866 -0.4367  0.4538
  368MOL0     C48505   9.303  10.419   0.482  0.4646 -0.1537  0.3199
  368MOL0     C48506   9.423  10.489   0.541  0.3360 -0.1704  0.1799
  368MOL0     C48507   9.534  10.519   0.444  0.8498 -0.2609 -0.2741
  368MOL0     C48508   9.628  10.516   0.362  0.9623  0.3755 -1.7593
  368MOL0     C48509   8.826  10.276   0.566 -0.6907 -0.0658 -0.4104
  368MOL0     C48510   8.699  10.206   0.558  0.3346  0.1864 -0.0258
  368MOL0     H48511   8.233  10.169   0.688 -0.1310  1.4769 -3.0742
  368MOL0     H48512   8.022  10.061   0.728 -0.9586 -2.5436 -0.3781
  368MOL0     H48513   7.921   9.692   0.463 -2.1002 -1.8589  2.4051
  368MOL0     H48514   7.877   9.855   0.402 -0.8306 -0.4202  0.3387
  368MOL0     H48515   7.690   9.849   0.559 -2.7583 -0.6626 -2.3830
  368MOL0     H48516   7.772   9.715   0.649  0.5051  2.3886  0.1816
  368MOL0     H48517   7.727   9.561   0.466  0.0123 -0.1079  1.9235
  368MOL0     H48518   7.662   9.698   0.374  1.8262  2.5559  0.7471
  368MOL0     H48519   7.546   9.578   0.636 -3.1399  0.5366  0.2809
  368MOL0     H48520   7.480   9.715   0.552  0.7631  0.8225  1.3007
  368MOL0     H48521   7.504   9.433   0.451 -0.6100 -0.8475  3.9097
  368MOL0     H48522   7.466   9.567   0.340  1.7498  1.6622  1.1456
  368MOL0     H48523   7.253   9.613   0.513  1.1185  0.2649  3.1102
  368MOL0     H48524   7.299   9.470   0.592 -0.7732  2.3962  0.8050
  368MOL0     H48525   7.268   9.371   0.331  1.5019 -1.1173  3.0721
  368MOL0     H48526   7.144   9.363   0.454 -1.6880  1.8099  0.6171
  368MOL0     H48527   7.154   9.590   0.274  1.6155 -0.0998  1.1431
  368MOL0     H48528   7.056   9.579   0.426 -1.2996 -1.3577  1.3827
  368MOL0     H48529   6.952   9.263   0.420  0.4673 -0.8293 -1.1339
  368MOL0     H48530   6.736   9.149   0.376 -4.1392  0.5703 -0.3760
  368MOL0     H48531   6.790   9.101   0.212 -0.3041 -0.7684  0.6628
  368MOL0     H48532   6.606   9.222   0.107  1.2281 -0.5588 -0.1701
  368MOL0     H48533   6.556   9.281   0.276 -0.2366  0.4636 -0.5346
  368MOL0     H48534   6.549   9.001   0.154  2.8927  0.1789  0.7904
  368MOL0     H48535   6.533   9.037   0.330 -1.1401 -1.1566 -0.5001
  368MOL0     H48536   6.368   9.173   0.113 -0.0484 -0.8245 -0.9075
  368MOL0     H48537   6.326   9.141   0.284 -1.6577  1.3318 -2.1139
  368MOL0     H48538   6.223   8.740   0.125  0.8853  0.3308  0.8912
  368MOL0     H48539   6.011   8.641   0.231  3.5042 -1.8056  0.3349
  368MOL0     H48540   5.882   8.395   0.425  1.0323  1.0924  0.3679
  368MOL0     H48541   5.791   8.212   0.602  0.9388 -0.0292 -3.8228
  368MOL0     H48542   5.850   8.199   0.849 -0.6857  1.6529 -3.6451
  368MOL0     H48543   5.717   8.096   0.810 -1.8211  2.2957 -2.1615
  368MOL0     H48544   5.745   8.249   1.077 -0.4346  0.7017 -2.1305
  368MOL0     H48545   5.777   8.078   1.061  1.0538  0.2182  1.9249
  368MOL0     H48546   5.548   8.035   0.993  2.5059 -1.1124  0.0397
  368MOL0     H48547   5.510   8.204   0.983 -0.6628 -0.3007 -0.6853
  368MOL0     H48548   5.594   8.090   1.247  1.5710 -0.0302 -0.0736
  368MOL0     H48549   5.540   8.252   1.211  0.6365 -0.4606  0.9176
  368MOL0     H48550   5.324   8.099   1.125  2.2757 -1.0786 -1.9721
  368MOL0     H48551   5.319   8.165   1.292 -2.4216 -0.4926 -1.3122
  368MOL0     H48552   5.450   7.962   1.370 -0.7788  0.5054  1.2970
  368MOL0     H48553   5.395   7.887   1.215  0.2580  1.1048 -2.0985
  368MOL0     H48554   5.260   7.839   1.401  0.8081  0.8767  1.0431
  368MOL0     H48555   5.232   8.008   1.449  5.1179 -0.7683  1.5963
  368MOL0     H48556   5.143   7.905   1.175 -1.5487  1.8393 -1.1042
  368MOL0     H48557   5.110   8.060   1.244  0.6401  1.2798  4.0393
  368MOL0     H48558   5.661   8.544   0.835 -0.0506 -1.6721  1.7254
  368MOL0     H48559   5.744   8.701   0.671 -3.9508 -1.6439  0.9005
  368MOL0     H48560   5.907   9.037   0.375 -1.8815 -1.8513  1.3118
  368MOL0     H48561   6.102   9.133   0.251 -2.5072  0.4432 -1.0697
  368MOL0     H48562   8.145   9.811   0.387 -1.1230 -1.5915  0.4642
  368MOL0     H48563   8.325   9.917   0.357  2.2197 -2.0119  2.1186
  368MOL0     H48564   8.650  10.234   0.224  2.5007  3.5589 -1.2312
  368MOL0     H48565   8.880  10.301   0.230 -1.5754  0.8593 -1.2417
  368MOL0     H48566   8.999  10.541   0.345  0.2826  1.2200  3.4720
  368MOL0     H48567   9.092  10.405   0.272  1.3457 -0.8462  1.3796
  368MOL0     H48568   9.262  10.571   0.331  0.7366 -0.4657  0.5382
  368MOL0     H48569   9.175  10.598   0.477 -3.6298 -2.5835  1.3425
  368MOL0     H48570   9.334  10.348   0.405  0.4909  0.2691 -0.0693
  368MOL0     H48571   9.250  10.367   0.561 -1.5440  2.3962  0.7975
  368MOL0     H48572   9.380  10.573   0.597 -1.2905 -0.4314 -0.6067
  368MOL0     H48573   9.464  10.421   0.616  0.8082 -3.0305 -2.4514
  368MOL0     H48574   9.717  10.513   0.302  1.8321  3.9891 -0.8879
  368MOL0     H48575   8.867  10.309   0.661 -1.4075  1.6756 -0.6706
  368MOL0     H48576   8.656  10.165   0.649 -3.7963  0.3654 -1.7160
  369MOL0     O48577   2.687   7.067   6.025  0.1562  0.4956 -0.7028
  369MOL0     C48578   2.765   7.073   5.931  0.2631 -0.4183 -0.5557
  369MOL0     O48579   2.724   7.098   5.802 -0.7213 -0.1955 -0.4005
  369MOL0     C48580   2.591   7.097   5.770  0.3683 -0.1178 -0.3483
  369MOL0     C48581   2.547   7.019   5.654 -0.1954  0.1800  0.1467
  369MOL0     C48582   2.418   7.014   5.618  1.1256 -0.8400  0.3740
  369MOL0     C48583   2.317   7.080   5.680 -0.3132  0.0234 -0.6708
  369MOL0     O48584   2.187   7.075   5.649  0.1628  0.1284 -0.1160
  369MOL0     C48585   2.135   6.954   5.598  0.4598 -0.4161 -0.6365
  369MOL0     C48586   1.984   6.940   5.632 -0.4413 -0.0268 -0.0788
  369MOL0     C48587   1.949   6.917   5.782  0.6771  0.5781 -0.5389
  369MOL0     C48588   1.798   6.888   5.792 -0.0404 -0.0448  0.4814
  369MOL0     C48589   1.744   6.894   5.938 -0.6023  0.5144  0.1691
  369MOL0     C48590   1.590   6.867   5.944  0.6183 -0.1277  0.4895
  369MOL0     C48591   1.498   6.987   5.896 -0.2883  0.1636  0.7739
  369MOL0     C48592   1.354   6.947   5.872  0.3530 -0.8363 -0.1683
  369MOL0     N48593   1.294   6.874   5.990 -0.1577 -0.2994 -0.1024
  369MOL0     C48594   1.198   6.780   5.967 -0.3933  0.5554 -0.0900
  369MOL0     C48595   1.173   6.734   6.087  0.1911 -1.0388  0.3833
  369MOL0     C48596   1.086   6.620   6.114  0.4954  0.0283  0.4244
  369MOL0     C48597   0.931   6.657   6.136  0.0375 -0.0359  0.0947
  369MOL0     C48598   0.890   6.640   6.281 -0.1336  0.7333 -0.4481
  369MOL0     C48599   0.746   6.678   6.308  0.1334 -0.3459  0.1686
  369MOL0     O48600   0.657   6.575   6.251  0.6508 -0.1620  0.0483
  369MOL0     C48601   0.522   6.597   6.249  0.1271 -0.4263  0.3088
  369MOL0     C48602   0.471   6.726   6.269  0.5540  0.0818 -0.7679
  369MOL0     C48603   0.336   6.749   6.247 -0.0383 -0.3125  0.3589
  369MOL0     C48604   0.254   6.648   6.204  0.3437 -0.3156  0.0631
  369MOL0     C48605   0.104   6.673   6.191 -1.0970 -0.5675 -0.9526
  369MOL0     O48606   0.022   6.564   6.209  1.0502  0.3359 -0.7201
  369MOL0     C48607  -0.114   6.572   6.174 -0.0009  0.3217  0.0717
  369MOL0     C48608  -0.179   6.663   6.088 -0.4987  0.4960  0.4074
  369MOL0     C48609  -0.313   6.648   6.060  1.0626 -0.3882 -0.2473
  369MOL0     C48610  -0.389   6.545   6.109 -0.1551  0.1411 -1.3070
  369MOL0     O48611  -0.523   6.533   6.098  0.1038  0.9154 -0.7487
  369MOL0     C48612  -0.606   6.652   6.074 -0.0517 -0.1498 -0.0764
  369MOL0     C48613  -0.756   6.618   6.095 -0.0502  0.9396  0.4082
  369MOL0     C48614  -0.848   6.742   6.087 -0.2626 -0.3058  0.4500
  369MOL0     C48615  -0.994   6.715   6.127 -0.0295 -0.0319  0.5973
  369MOL0     C48616  -1.089   6.822   6.054 -0.1439  0.0362  0.6128
  369MOL0     C48617  -1.237   6.775   6.071  0.3294 -0.1228  1.0675
  369MOL0     C48618  -1.312   6.893   6.013 -0.0631 -0.0523  0.2554
  369MOL0     C48619  -1.453   6.835   5.989  0.4745  0.5839  0.1756
  369MOL0    Cl48620  -1.563   6.947   5.926 -0.2323 -0.1767 -0.5307
  369MOL0     C48621  -0.328   6.452   6.192  0.4590  0.2351 -0.1333
  369MOL0     C48622  -0.187   6.460   6.217  0.8447  0.3416 -0.2035
  369MOL0     O48623   0.065   6.787   6.168 -0.4508  0.0378  0.4787
  369MOL0     C48624   0.307   6.516   6.184 -0.3212  0.0017 -0.4121
  369MOL0     C48625   0.443   6.496   6.201 -0.4299 -0.5476 -0.2178
  369MOL0     N48626   1.242   6.816   6.183  0.7470  0.0214  0.9010
  369MOL0     N48627   1.311   6.906   6.122 -0.1967 -0.7629 -0.2806
  369MOL0     C48628   2.345   7.154   5.794 -0.8041  0.0646 -0.6914
  369MOL0     C48629   2.483   7.167   5.831  0.2550  0.4930 -0.2225
  369MOL0     C48630   2.919   7.055   5.941  0.1799 -0.1845 -0.4398
  369MOL0     C48631   2.977   7.039   6.074 -0.5321  0.1171 -0.1623
  369MOL0     C48632   3.118   7.020   6.094  0.0226  0.2449  0.5172
  369MOL0     C48633   3.202   7.008   5.981  0.0176  1.4272  0.4490
  369MOL0     O48634   3.339   6.994   5.998 -0.0849 -0.1316  0.2470
  369MOL0     C48635   3.422   7.029   5.887  0.1148 -0.5454 -0.2004
  369MOL0     C48636   3.555   7.052   5.952  0.9498  0.0164  1.1228
  369MOL0     C48637   3.662   7.119   5.870  0.2728 -0.2497 -0.0312
  369MOL0     C48638   3.782   7.156   5.961  0.3350  0.4620 -0.3872
  369MOL0     C48639   3.880   7.227   5.886 -0.3560  0.1422  0.6415
  369MOL0     C48640   3.959   7.273   5.804  0.2420  0.3613 -0.0990
  369MOL0     C48641   3.143   7.037   5.858  0.2011 -0.4295 -0.2461
  369MOL0     C48642   3.009   7.073   5.841  0.3932 -0.1746  0.6884
  369MOL0     H48643   2.621   6.962   5.598 -1.5222 -1.5998  0.1215
  369MOL0     H48644   2.408   6.956   5.526  3.9956  0.4810 -0.9118
  369MOL0     H48645   2.183   6.870   5.649 -0.7583  1.3342  3.9117
  369MOL0     H48646   2.143   6.955   5.489 -3.8840  1.7771 -1.1459
  369MOL0     H48647   1.947   6.848   5.587 -0.0258 -1.4199  2.2800
  369MOL0     H48648   1.926   7.022   5.590 -0.1546 -0.3133 -1.0730
  369MOL0     H48649   1.977   6.993   5.855 -0.7641 -0.6781  1.4110
  369MOL0     H48650   2.021   6.836   5.797 -0.0560 -0.8159 -3.6328
  369MOL0     H48651   1.747   6.966   5.735  1.3454 -1.1242 -2.4333
  369MOL0     H48652   1.777   6.794   5.739 -1.0092  1.3627 -1.7772
  369MOL0     H48653   1.766   6.997   5.968  0.6752  0.7711 -1.4902
  369MOL0     H48654   1.797   6.827   6.006 -2.0243 -0.5639  0.2610
  369MOL0     H48655   1.552   6.849   6.045 -3.0950  1.2029 -0.5175
  369MOL0     H48656   1.564   6.777   5.889  1.7871 -0.7523  0.9359
  369MOL0     H48657   1.500   7.058   5.980  2.1607 -1.1261  1.9310
  369MOL0     H48658   1.539   7.043   5.812 -0.4068 -0.6894  0.1374
  369MOL0     H48659   1.350   6.885   5.782  3.0781 -1.9983  0.4013
  369MOL0     H48660   1.291   7.032   5.846  0.9420 -0.9273 -1.9761
  369MOL0     H48661   1.152   6.739   5.878 -2.2111 -0.0110  1.0568
  369MOL0     H48662   1.123   6.560   6.197  1.1194  1.0658  0.9116
  369MOL0     H48663   1.086   6.549   6.032 -1.1098 -1.7332  1.8422
  369MOL0     H48664   0.874   6.584   6.079 -0.3245  0.0100  0.3954
  369MOL0     H48665   0.908   6.757   6.101 -1.4340  0.1141  1.3702
  369MOL0     H48666   0.910   6.535   6.306  0.8040  1.1413  0.6151
  369MOL0     H48667   0.956   6.674   6.361 -2.0079 -0.4288  1.7242
  369MOL0     H48668   0.734   6.774   6.258  2.9253  1.2108  2.2080
  369MOL0     H48669   0.735   6.685   6.417  0.9244 -1.1304  0.3140
  369MOL0     H48670   0.521   6.820   6.291 -1.4840  0.8033  1.1917
  369MOL0     H48671   0.305   6.852   6.256 -0.3961 -0.0042 -2.9217
  369MOL0     H48672  -0.124   6.745   6.045  2.9136  0.0633  3.4603
  369MOL0     H48673  -0.354   6.729   6.000 -0.3869  0.5739  1.9094
  369MOL0     H48674  -0.590   6.693   5.973  0.4529 -3.4260 -1.4522
  369MOL0     H48675  -0.565   6.719   6.150  1.9684 -1.1926 -0.1834
  369MOL0     H48676  -0.766   6.581   6.198 -1.6376  1.5673  0.5000
  369MOL0     H48677  -0.783   6.536   6.028  0.0297  1.1577  0.1100
  369MOL0     H48678  -0.839   6.772   5.982  3.4137  1.2003  1.0642
  369MOL0     H48679  -0.800   6.829   6.133  0.7817 -0.7210  0.1577
  369MOL0     H48680  -1.024   6.618   6.087 -0.9094  0.3136  0.3976
  369MOL0     H48681  -1.004   6.723   6.235 -0.6489 -2.7224  0.8053
  369MOL0     H48682  -1.064   6.828   5.948  1.7594 -1.0003  0.9592
  369MOL0     H48683  -1.100   6.928   6.080 -0.9467 -0.1161  0.9429
  369MOL0     H48684  -1.257   6.755   6.176 -2.7027 -4.3714 -0.0381
  369MOL0     H48685  -1.258   6.685   6.011  1.2347  0.6832 -0.5282
  369MOL0     H48686  -1.322   6.980   6.077 -2.4656 -0.2479  0.2456
  369MOL0     H48687  -1.273   6.931   5.918 -1.5571  0.0001 -0.3691
  369MOL0     H48688  -1.491   6.788   6.080  0.3423  1.3331  0.5209
  369MOL0     H48689  -1.444   6.753   5.917  0.6977  1.1642 -0.4690
  369MOL0     H48690  -0.379   6.364   6.231 -0.7263  0.7790 -0.4107
  369MOL0     H48691  -0.134   6.382   6.271 -0.1070 -0.3853 -0.2875
  369MOL0     H48692   0.245   6.435   6.146  2.4365 -2.2670 -0.4059
  369MOL0     H48693   0.481   6.400   6.167 -6.4566 -3.3322 -0.2586
  369MOL0     H48694   2.273   7.210   5.851  2.8939  0.2445  4.4886
  369MOL0     H48695   2.510   7.219   5.922  0.2771 -1.9030  1.2356
  369MOL0     H48696   2.914   7.037   6.161 -0.6854 -1.3692 -0.2910
  369MOL0     H48697   3.158   7.004   6.194 -2.9039 -1.6354  1.5078
  369MOL0     H48698   3.383   7.120   5.840 -0.9369 -1.0700 -0.3686
  369MOL0     H48699   3.430   6.950   5.811  2.4568  0.4090 -1.0590
  369MOL0     H48700   3.541   7.107   6.045 -0.5961  0.0121  0.9108
  369MOL0     H48701   3.598   6.954   5.975 -1.2593 -1.9591 -2.3227
  369MOL0     H48702   3.623   7.210   5.823  3.2380  0.2285 -1.8475
  369MOL0     H48703   3.686   7.051   5.787  0.5465  0.9092 -0.9245
  369MOL0     H48704   3.757   7.211   6.053 -1.2659 -0.7842 -0.0206
  369MOL0     H48705   3.820   7.064   6.005 -1.9107 -0.5347 -0.3639
  369MOL0     H48706   4.032   7.316   5.739 -1.3947  1.3960 -1.3393
  369MOL0     H48707   3.199   7.041   5.765  0.5617  2.2645  0.0036
  369MOL0     H48708   2.980   7.098   5.739  0.3501 -0.6865  0.5742
  370MOL0     O48709   3.724   3.720   4.554 -0.0548 -0.2588 -0.7417
  370MOL0     C48710   3.747   3.785   4.457  0.1386 -0.0334 -0.1513
  370MOL0     O48711   3.687   3.773   4.336 -0.1947  0.6448 -0.0735
  370MOL0     C48712   3.578   3.682   4.313  0.0984 -0.5199  0.2601
  370MOL0     C48713   3.490   3.609   4.402  0.0936  0.0163 -0.5205
  370MOL0     C48714   3.385   3.541   4.351  0.6815  0.3405 -0.2445
  370MOL0     C48715   3.356   3.542   4.217  0.7078 -0.0627  0.8555
  370MOL0     O48716   3.239   3.481   4.174  0.3485  0.3580  0.2349
  370MOL0     C48717   3.223   3.461   4.027  0.5118  0.0283  0.1034
  370MOL0     C48718   3.086   3.387   4.001  0.1597 -0.0854  0.4425
  370MOL0     C48719   2.973   3.475   4.035  0.2125 -0.0546 -0.1584
  370MOL0     C48720   2.849   3.408   3.993 -0.5895  1.1607 -0.7093
  370MOL0     C48721   2.714   3.475   4.045  0.1354  0.5522 -0.5140
  370MOL0     C48722   2.589   3.447   3.957 -0.4339  0.0982 -0.6498
  370MOL0     C48723   2.554   3.298   3.972  0.5325 -0.2404 -0.5457
  370MOL0     C48724   2.424   3.262   3.890 -0.1386  0.1676 -0.4438
  370MOL0     N48725   2.305   3.292   3.966 -0.0585 -0.4572 -0.1825
  370MOL0     C48726   2.245   3.209   4.058  0.0749  0.1028  1.3491
  370MOL0     C48727   2.153   3.281   4.119 -0.5882  0.2509  0.8704
  370MOL0     C48728   2.048   3.229   4.209 -0.0638 -0.4153 -0.4582
  370MOL0     C48729   1.909   3.289   4.197 -0.7854  0.3964  0.1827
  370MOL0     C48730   1.812   3.192   4.254 -0.4091 -0.7339  0.1847
  370MOL0     C48731   1.672   3.260   4.273 -0.8329  0.8429  0.0862
  370MOL0     O48732   1.680   3.354   4.386 -0.4976 -0.4381  0.4039
  370MOL0     C48733   1.565   3.404   4.434  0.5227 -0.2018 -0.9768
  370MOL0     C48734   1.574   3.494   4.545 -0.2056 -0.3986  0.1552
  370MOL0     C48735   1.463   3.557   4.601  0.6135 -1.0220 -1.0922
  370MOL0     C48736   1.340   3.535   4.539 -0.1826 -0.5197 -1.0359
  370MOL0     C48737   1.219   3.600   4.602  1.1073 -0.5094  0.3910
  370MOL0     O48738   1.233   3.654   4.734  0.3393 -0.1848 -0.5247
  370MOL0     C48739   1.124   3.696   4.804  0.1562 -0.2396  0.4479
  370MOL0     C48740   1.056   3.812   4.763  0.7866  1.5096 -0.3149
  370MOL0     C48741   0.949   3.853   4.837  0.3315  0.1643 -0.8609
  370MOL0     C48742   0.894   3.774   4.940  0.1598  0.2724 -0.6455
  370MOL0     O48743   0.783   3.801   5.011  0.3399 -0.4201 -0.4893
  370MOL0     C48744   0.689   3.877   4.936 -0.5091 -0.6297  0.5845
  370MOL0     C48745   0.559   3.885   5.015 -0.1529 -0.4413 -0.1632
  370MOL0     C48746   0.582   4.000   5.125 -0.0424 -1.5142  0.4859
  370MOL0     C48747   0.504   3.966   5.248  1.0294  1.0091 -0.4793
  370MOL0     C48748   0.492   4.075   5.352 -0.3363 -1.2088 -0.8715
  370MOL0     C48749   0.380   4.048   5.446 -0.2904 -0.6343 -0.4073
  370MOL0     C48750   0.389   4.147   5.562 -0.0431 -1.2962  0.5657
  370MOL0     C48751   0.293   4.114   5.667  0.0154 -0.4623  0.0606
  370MOL0    Cl48752   0.310   4.229   5.792  0.0868 -0.4010  0.6440
  370MOL0     C48753   0.962   3.660   4.976  0.4760  0.0054  0.1664
  370MOL0     C48754   1.077   3.616   4.909 -0.2839  0.9131 -0.3208
  370MOL0     O48755   1.112   3.600   4.544 -0.0426 -0.6447 -0.1713
  370MOL0     C48756   1.329   3.454   4.422 -0.4369  0.1581 -0.2444
  370MOL0     C48757   1.439   3.383   4.377  0.3129 -0.3723  0.2531
  370MOL0     N48758   2.149   3.406   4.065 -0.2375 -0.0409  0.9388
  370MOL0     N48759   2.241   3.411   3.969  0.1902  0.2917 -0.3236
  370MOL0     C48760   3.438   3.611   4.133  0.6534 -0.1348 -0.3204
  370MOL0     C48761   3.552   3.685   4.174  0.3980  0.0492 -0.0423
  370MOL0     C48762   3.863   3.869   4.458 -0.7261  0.1320 -0.4001
  370MOL0     C48763   3.977   3.835   4.545  0.0879  0.2379  0.0427
  370MOL0     C48764   4.101   3.901   4.532 -0.1232 -0.4818 -0.9718
  370MOL0     C48765   4.116   4.002   4.441  0.3128 -0.0973  0.3699
  370MOL0     O48766   4.227   4.076   4.411 -0.0467  0.1202  0.3177
  370MOL0     C48767   4.356   4.034   4.465 -0.9168 -0.8539 -0.7651
  370MOL0     C48768   4.418   3.930   4.382 -0.2388 -0.2756 -0.0381
  370MOL0     C48769   4.521   3.983   4.279 -0.1275  0.2922  0.2166
  370MOL0     C48770   4.553   3.875   4.173  0.1471  0.0958 -0.0012
  370MOL0     C48771   4.630   3.936   4.061 -1.2961 -0.1883  0.2367
  370MOL0     C48772   4.709   3.980   3.980  0.0079  0.3445  0.7330
  370MOL0     C48773   4.000   4.040   4.374  0.0272 -0.1681  0.5881
  370MOL0     C48774   3.877   3.974   4.369 -0.0644  0.8677 -1.3915
  370MOL0     H48775   3.509   3.617   4.509 -1.9496 -0.9455 -0.0341
  370MOL0     H48776   3.316   3.484   4.412 -1.9344  0.8247 -2.5534
  370MOL0     H48777   3.309   3.402   3.995  0.1012  0.9079 -2.9096
  370MOL0     H48778   3.216   3.564   3.992  0.2390  0.6547  1.9204
  370MOL0     H48779   3.083   3.290   4.051 -4.3706 -0.7062 -0.5439
  370MOL0     H48780   3.079   3.377   3.892 -2.2222 -0.9548  0.6134
  370MOL0     H48781   2.984   3.564   3.973 -3.7939  0.6946 -0.0990
  370MOL0     H48782   2.982   3.496   4.142  0.3760  1.9752 -0.5322
  370MOL0     H48783   2.837   3.404   3.885  0.3476 -0.5649 -0.7951
  370MOL0     H48784   2.850   3.307   4.035  2.8125  1.5681  0.4534
  370MOL0     H48785   2.734   3.582   4.037  0.3248  0.5496 -0.1236
  370MOL0     H48786   2.692   3.443   4.147 -4.5738 -1.0063 -1.7954
  370MOL0     H48787   2.616   3.480   3.856  0.9716  0.0380 -0.3227
  370MOL0     H48788   2.511   3.518   3.986  1.3931  2.4108 -1.0517
  370MOL0     H48789   2.635   3.234   3.933  0.9816  1.6082 -2.8380
  370MOL0     H48790   2.545   3.268   4.077 -0.7389  2.6268  0.2372
  370MOL0     H48791   2.421   3.158   3.856  1.1682 -0.0124 -0.0450
  370MOL0     H48792   2.419   3.317   3.795  0.0620  0.7616 -0.1104
  370MOL0     H48793   2.254   3.101   4.062 -1.1749 -0.0079  1.4792
  370MOL0     H48794   2.079   3.233   4.314 -2.3296  0.4718  0.2235
  370MOL0     H48795   2.041   3.120   4.197 -1.7635 -0.1382 -2.5501
  370MOL0     H48796   1.875   3.306   4.094 -0.8667 -0.9152 -0.0264
  370MOL0     H48797   1.907   3.384   4.252 -1.1820  0.1749  0.5558
  370MOL0     H48798   1.810   3.107   4.186 -1.6758 -1.7203  1.3953
  370MOL0     H48799   1.844   3.159   4.353 -3.3887 -2.3307  0.7501
  370MOL0     H48800   1.603   3.175   4.280  0.4579 -0.4380 -1.8059
  370MOL0     H48801   1.653   3.311   4.178 -1.5363 -1.6445 -1.2059
  370MOL0     H48802   1.674   3.510   4.584 -0.8700  0.1458  1.6930
  370MOL0     H48803   1.480   3.630   4.680  0.3889 -1.0708 -0.9964
  370MOL0     H48804   1.099   3.874   4.685  1.0585 -2.0715 -3.2444
  370MOL0     H48805   0.918   3.957   4.827  0.3880  0.2775  0.0455
  370MOL0     H48806   0.683   3.833   4.837  2.2627 -0.9292  0.4674
  370MOL0     H48807   0.736   3.976   4.930 -0.7896 -0.3259  2.6498
  370MOL0     H48808   0.544   3.790   5.066 -0.9211 -0.9956 -1.3842
  370MOL0     H48809   0.473   3.893   4.947  1.0353 -1.0632 -1.7878
  370MOL0     H48810   0.553   4.099   5.089 -0.5294 -1.0525  2.0663
  370MOL0     H48811   0.689   3.999   5.148 -0.3257  0.0592  2.0579
  370MOL0     H48812   0.402   3.938   5.219 -0.2051  1.3787  3.0185
  370MOL0     H48813   0.552   3.878   5.292 -2.3456  0.9667  3.8540
  370MOL0     H48814   0.476   4.168   5.296  0.2008  0.4671  1.6010
  370MOL0     H48815   0.586   4.081   5.407 -1.3304 -1.2952  0.9195
  370MOL0     H48816   0.397   3.948   5.487 -0.6154 -0.0221  1.2924
  370MOL0     H48817   0.280   4.058   5.403 -0.3931  1.6741  0.2984
  370MOL0     H48818   0.490   4.154   5.602 -0.1682 -0.1745  0.7285
  370MOL0     H48819   0.378   4.254   5.539  0.8511 -0.2353  4.3733
  370MOL0     H48820   0.319   4.013   5.701 -1.2029 -1.2662 -1.2525
  370MOL0     H48821   0.189   4.100   5.634  0.2305 -1.4406 -0.2361
  370MOL0     H48822   0.909   3.603   5.052  2.5050 -0.2948  1.4317
  370MOL0     H48823   1.108   3.517   4.941 -1.4146  1.2118  1.9068
  370MOL0     H48824   1.233   3.447   4.373 -1.5816 -2.8406  2.0800
  370MOL0     H48825   1.428   3.336   4.280  3.5156 -0.2607 -0.2867
  370MOL0     H48826   3.408   3.630   4.030  0.8878 -1.2354 -0.6035
  370MOL0     H48827   3.600   3.758   4.110 -0.5464 -0.1726 -1.0404
  370MOL0     H48828   3.993   3.752   4.614  2.0739  0.6873  0.1724
  370MOL0     H48829   4.179   3.860   4.595 -0.2591 -0.9831 -1.1276
  370MOL0     H48830   4.359   4.009   4.571 -0.0564 -1.1701 -0.8609
  370MOL0     H48831   4.424   4.119   4.451 -0.6319 -1.2686 -2.0354
  370MOL0     H48832   4.469   3.863   4.452 -0.2124  2.1905  2.4887
  370MOL0     H48833   4.346   3.865   4.331  1.4536 -1.6090 -0.8100
  370MOL0     H48834   4.607   4.020   4.336 -0.7481  1.8583  0.1852
  370MOL0     H48835   4.482   4.069   4.223  1.7197  0.8289 -0.3156
  370MOL0     H48836   4.614   3.794   4.213  0.5453  2.0365  3.7334
  370MOL0     H48837   4.460   3.831   4.136 -0.1451  1.3772 -0.8489
  370MOL0     H48838   4.777   4.018   3.907  0.9693 -1.2495  0.7401
  370MOL0     H48839   4.002   4.120   4.301  1.3647 -1.7589 -1.2014
  370MOL0     H48840   3.792   4.015   4.316  0.2241  0.4088 -2.2345
  371MOL0     O48841   0.862   8.049   9.617  0.8591 -0.1823 -0.8985
  371MOL0     C48842   0.941   7.955   9.636  0.2801 -0.5183 -0.2688
  371MOL0     O48843   0.908   7.830   9.678  0.3248  0.1540 -0.0676
  371MOL0     C48844   0.775   7.791   9.675  0.2082  0.4036  0.4330
  371MOL0     C48845   0.736   7.706   9.776  0.6032  0.8716  0.1894
  371MOL0     C48846   0.603   7.658   9.778 -0.7734 -0.6650 -0.5041
  371MOL0     C48847   0.519   7.690   9.675  0.0307  0.5998  0.2105
  371MOL0     O48848   0.387   7.639   9.694 -0.4327  0.2366  0.5665
  371MOL0     C48849   0.285   7.704   9.631 -0.2352  0.2937  0.0594
  371MOL0     C48850   0.142   7.664   9.682 -0.2507  1.0198 -0.6455
  371MOL0     C48851   0.126   7.514   9.674  0.1922 -0.5640 -0.4966
  371MOL0     C48852  -0.007   7.482   9.749 -0.2239 -0.6257  0.8773
  371MOL0     C48853  -0.030   7.328   9.777 -0.2030  0.1389  0.6424
  371MOL0     C48854  -0.054   7.226   9.663 -0.5524 -0.2400  0.0014
  371MOL0     C48855  -0.119   7.091   9.719  0.0694  0.3561  0.0437
  371MOL0     C48856  -0.163   6.988   9.615 -0.6411  0.2163 -0.7807
  371MOL0     N48857  -0.302   6.984   9.605  0.2854 -0.0118  0.4478
  371MOL0     C48858  -0.381   7.089   9.572  0.2391  0.3097  0.7381
  371MOL0     C48859  -0.507   7.042   9.587 -0.0846  0.1428  0.1581
  371MOL0     C48860  -0.637   7.112   9.546  0.0621  0.2545 -0.0938
  371MOL0     C48861  -0.696   7.052   9.412  0.3129 -0.3881 -0.8093
  371MOL0     C48862  -0.760   6.914   9.429 -0.2769  0.2209 -0.5931
  371MOL0     C48863  -0.897   6.916   9.492 -0.1565 -0.4588  0.3274
  371MOL0     O48864  -0.991   6.977   9.398 -0.0527 -0.3184 -0.6990
  371MOL0     C48865  -1.123   6.987   9.450 -0.1537  0.3878 -0.5709
  371MOL0     C48866  -1.197   7.094   9.388 -0.4734  0.0887 -0.1727
  371MOL0     C48867  -1.335   7.104   9.417 -0.1586 -0.1301  0.5382
  371MOL0     C48868  -1.395   7.028   9.525 -0.4541  0.0518  0.3928
  371MOL0     C48869  -1.537   7.048   9.556 -0.3072  0.5984  0.3555
  371MOL0     O48870  -1.609   7.158   9.495 -0.8562  0.4452  0.0359
  371MOL0     C48871  -1.743   7.174   9.513 -0.0518  0.5996  0.6463
  371MOL0     C48872  -1.803   7.142   9.635 -0.0191  0.5049 -0.1528
  371MOL0     C48873  -1.936   7.175   9.647  0.0935 -0.5594 -0.1559
  371MOL0     C48874  -2.013   7.213   9.543  0.2960  0.1917 -0.1093
  371MOL0     O48875  -2.145   7.232   9.561  0.4353 -0.0971 -0.3012
  371MOL0     C48876  -2.227   7.317   9.473  0.3510 -0.8034  0.2795
  371MOL0     C48877  -2.356   7.344   9.546 -0.3422 -0.6777  0.1239
  371MOL0     C48878  -2.440   7.439   9.468  0.0047 -0.6167  0.0533
  371MOL0     C48879  -2.590   7.442   9.489  0.4626  0.0923 -0.0080
  371MOL0     C48880  -2.668   7.539   9.411  0.5212  0.3308  0.2520
  371MOL0     C48881  -2.810   7.552   9.471  0.3117  0.0572 -0.8402
  371MOL0     C48882  -2.883   7.664   9.394  0.0313  0.3036  0.0925
  371MOL0     C48883  -3.035   7.637   9.406  1.1838 -0.3541 -0.3990
  371MOL0    Cl48884  -3.085   7.629   9.582 -0.0089 -0.3141  0.1337
  371MOL0     C48885  -1.960   7.218   9.416 -0.3950 -0.4838  0.1778
  371MOL0     C48886  -1.816   7.211   9.407  0.2432  0.0638  0.2279
  371MOL0     O48887  -1.590   6.960   9.632  0.0989 -0.1613  0.5939
  371MOL0     C48888  -1.319   6.926   9.578 -0.3079  0.2630 -0.3940
  371MOL0     C48889  -1.186   6.901   9.548  0.1385 -0.2824  0.9067
  371MOL0     N48890  -0.495   6.924   9.660 -0.2137  0.3585  0.9744
  371MOL0     N48891  -0.377   6.880   9.658  0.6765  0.2809  0.5543
  371MOL0     C48892   0.567   7.763   9.562  0.3600  0.2046 -0.0438
  371MOL0     C48893   0.695   7.821   9.569 -0.1126  0.3436  0.5104
  371MOL0     C48894   1.081   7.993   9.650 -0.2606 -0.6670  0.0886
  371MOL0     C48895   1.181   7.902   9.693 -0.2106 -0.6414 -0.2333
  371MOL0     C48896   1.317   7.939   9.706  0.6809 -0.4620  0.0917
  371MOL0     C48897   1.356   8.062   9.666  0.9114 -0.1917 -0.7306
  371MOL0     O48898   1.491   8.082   9.669 -0.1927  0.4096  0.0875
  371MOL0     C48899   1.547   8.206   9.658 -0.7646  0.1533  0.0412
  371MOL0     C48900   1.596   8.258   9.791 -0.2353 -0.1038  0.7467
  371MOL0     C48901   1.737   8.220   9.827  0.1398 -0.0287  0.0500
  371MOL0     C48902   1.752   8.226   9.982 -0.1774 -0.0661  0.0917
  371MOL0     C48903   1.885   8.181  10.009 -1.0254  0.7454  0.1506
  371MOL0     C48904   2.007   8.159  10.012  0.3029  0.0250 -0.5628
  371MOL0     C48905   1.257   8.152   9.631 -1.0043 -0.3871  0.3636
  371MOL0     C48906   1.120   8.124   9.627 -0.1449 -0.5579 -0.4637
  371MOL0     H48907   0.803   7.676   9.856 -0.3907  0.6521  0.9634
  371MOL0     H48908   0.565   7.591   9.854  1.6264  0.1178  1.5056
  371MOL0     H48909   0.287   7.673   9.526 -3.2450  1.2638 -0.3740
  371MOL0     H48910   0.304   7.811   9.631  5.2689 -0.3883 -0.3790
  371MOL0     H48911   0.063   7.730   9.646 -1.0560 -0.3332 -1.4332
  371MOL0     H48912   0.150   7.686   9.789  0.1292 -2.5196  0.1883
  371MOL0     H48913   0.211   7.463   9.719 -1.4551 -1.5753  1.6514
  371MOL0     H48914   0.118   7.481   9.570  2.2749 -0.0598 -0.8562
  371MOL0     H48915   0.000   7.540   9.841 -2.0979  3.8741 -1.5338
  371MOL0     H48916  -0.092   7.519   9.693  1.0707 -1.4383 -1.8203
  371MOL0     H48917  -0.107   7.309   9.853 -1.0893 -1.9975 -0.7283
  371MOL0     H48918   0.063   7.299   9.827  1.0006  1.9491 -0.4422
  371MOL0     H48919   0.042   7.215   9.612 -0.7184  2.5707 -1.1372
  371MOL0     H48920  -0.132   7.266   9.597 -2.6180 -0.4047  2.1627
  371MOL0     H48921  -0.035   7.053   9.777  0.5856  1.7876  0.2803
  371MOL0     H48922  -0.209   7.121   9.772 -1.0907  3.1260 -3.1444
  371MOL0     H48923  -0.139   6.886   9.647  4.1936  0.5101 -2.6571
  371MOL0     H48924  -0.108   7.005   9.522  0.9381 -0.8197 -0.0920
  371MOL0     H48925  -0.340   7.176   9.520  2.1081 -2.1265 -2.2312
  371MOL0     H48926  -0.623   7.220   9.531 -1.5628  0.6616  0.9192
  371MOL0     H48927  -0.707   7.091   9.628  0.0537  0.1340 -0.1314
  371MOL0     H48928  -0.608   7.040   9.349  2.4023 -1.7638  2.1278
  371MOL0     H48929  -0.768   7.122   9.368  0.1757  0.1626  0.2443
  371MOL0     H48930  -0.758   6.863   9.332  1.9740  3.0419 -2.1528
  371MOL0     H48931  -0.697   6.867   9.506 -1.0255  0.1746  0.0012
  371MOL0     H48932  -0.884   6.977   9.582 -1.1702 -1.3389  1.1015
  371MOL0     H48933  -0.935   6.816   9.517 -1.2307  0.0704  0.8766
  371MOL0     H48934  -1.146   7.142   9.306  1.9981 -0.1171  1.1396
  371MOL0     H48935  -1.396   7.181   9.370  1.5335  0.7893 -0.2487
  371MOL0     H48936  -1.748   7.105   9.721  1.4216 -0.3203 -1.3819
  371MOL0     H48937  -1.979   7.173   9.747  0.5828  0.8310  0.1140
  371MOL0     H48938  -2.248   7.275   9.375 -2.6547 -0.4591  0.6851
  371MOL0     H48939  -2.169   7.408   9.455 -1.6341  0.2825 -1.0526
  371MOL0     H48940  -2.328   7.390   9.641 -0.0342 -1.3139  0.3495
  371MOL0     H48941  -2.413   7.256   9.577 -0.8198 -0.4889 -0.2071
  371MOL0     H48942  -2.431   7.416   9.362  0.1016  2.3486 -0.6769
  371MOL0     H48943  -2.411   7.543   9.486  1.9906 -1.2184  0.6223
  371MOL0     H48944  -2.637   7.348   9.459  0.0194  1.2923 -3.5341
  371MOL0     H48945  -2.617   7.467   9.592 -1.4025 -1.4060 -0.0747
  371MOL0     H48946  -2.675   7.501   9.309 -0.4738  1.2165 -0.0327
  371MOL0     H48947  -2.616   7.635   9.419 -1.5157  1.6954 -1.5427
  371MOL0     H48948  -2.802   7.578   9.577  1.9090  0.8312 -1.1106
  371MOL0     H48949  -2.863   7.457   9.466  2.1028 -1.1294  0.9370
  371MOL0     H48950  -2.860   7.767   9.423 -0.8163  0.5962 -0.2371
  371MOL0     H48951  -2.870   7.660   9.285 -3.9487  0.0214 -0.5148
  371MOL0     H48952  -3.057   7.547   9.349  1.6181 -1.6150  1.3370
  371MOL0     H48953  -3.103   7.714   9.370  2.3213  0.4581 -0.8858
  371MOL0     H48954  -2.026   7.244   9.334  2.5943 -0.1431 -2.3045
  371MOL0     H48955  -1.769   7.216   9.309  2.2028 -3.2273  0.8102
  371MOL0     H48956  -1.355   6.864   9.659  0.2228  1.7088  0.9958
  371MOL0     H48957  -1.137   6.830   9.614 -0.2592 -0.1126  1.3956
  371MOL0     H48958   0.515   7.777   9.467 -1.4580  1.6891  1.1127
  371MOL0     H48959   0.734   7.869   9.480  0.9114 -0.0669  0.7178
  371MOL0     H48960   1.131   7.807   9.705 -1.6428  0.2142  0.8010
  371MOL0     H48961   1.395   7.865   9.723  2.2829  1.2242  0.3537
  371MOL0     H48962   1.476   8.284   9.628 -1.6242 -1.1224 -1.3824
  371MOL0     H48963   1.630   8.209   9.588 -0.4030  1.6863  0.4971
  371MOL0     H48964   1.602   8.367   9.783 -2.2165  0.1055  1.6198
  371MOL0     H48965   1.522   8.230   9.866 -0.1053  1.7999  1.6175
  371MOL0     H48966   1.795   8.289   9.766 -1.5278  0.8569 -0.5995
  371MOL0     H48967   1.770   8.122   9.792 -2.0004 -1.1658  0.9703
  371MOL0     H48968   1.738   8.325  10.025  0.9964  1.0950 -2.0469
  371MOL0     H48969   1.676   8.165  10.031 -1.4740 -1.7388 -3.6385
  371MOL0     H48970   2.109   8.126  10.012  0.2390 -0.1859  0.1771
  371MOL0     H48971   1.277   8.257   9.613 -1.5749 -0.5427 -1.3822
  371MOL0     H48972   1.056   8.201   9.586  0.5101 -0.3060 -1.0376
  372MOL0     O48973   5.550   7.533  10.735  0.3024  0.1041  0.5138
  372MOL0     C48974   5.608   7.423  10.755  0.3507  1.3139 -0.2956
  372MOL0     O48975   5.562   7.305  10.713 -1.1495 -0.5252 -0.5520
  372MOL0     C48976   5.436   7.292  10.674 -0.7947  0.1893 -0.0202
  372MOL0     C48977   5.326   7.260  10.753  0.3122 -0.9103  0.8763
  372MOL0     C48978   5.199   7.260  10.701  0.3842  0.6383  0.9435
  372MOL0     C48979   5.172   7.293  10.569 -0.3239  0.5122  0.2769
  372MOL0     O48980   5.049   7.268  10.522  0.0629 -0.3319  0.1330
  372MOL0     C48981   5.053   7.237  10.388 -0.2150  0.6475 -0.1670
  372MOL0     C48982   4.959   7.127  10.344 -0.1691 -0.1628  0.4987
  372MOL0     C48983   4.810   7.144  10.388  0.9763 -0.7212  0.3509
  372MOL0     C48984   4.718   7.060  10.305  0.8996 -0.4569  0.5060
  372MOL0     C48985   4.579   7.038  10.361  0.0286 -0.2916 -0.9072
  372MOL0     C48986   4.484   6.980  10.252 -0.2695 -0.3082 -1.1908
  372MOL0     C48987   4.362   6.914  10.328  0.2760  0.2616 -0.5031
  372MOL0     C48988   4.260   6.854  10.226  0.5657 -0.3568 -0.2607
  372MOL0     N48989   4.141   6.796  10.290 -0.1474 -0.3140 -0.6797
  372MOL0     C48990   4.048   6.870  10.359 -0.6636 -0.3226  0.6748
  372MOL0     C48991   3.974   6.772  10.415 -0.3113  0.4111  0.0749
  372MOL0     C48992   3.867   6.803  10.518  0.0417 -0.0404 -0.4979
  372MOL0     C48993   3.737   6.724  10.485 -0.1771 -0.8189  0.5362
  372MOL0     C48994   3.631   6.751  10.594  0.4044 -0.4499  1.2019
  372MOL0     C48995   3.494   6.693  10.546  0.3935  0.2041  0.2303
  372MOL0     O48996   3.406   6.664  10.651  0.3371 -0.4523  0.8591
  372MOL0     C48997   3.268   6.628  10.633 -1.1596 -0.1210  1.1872
  372MOL0     C48998   3.164   6.644  10.729 -0.7525  0.0648 -0.7771
  372MOL0     C48999   3.029   6.612  10.710  0.0494 -0.2438 -0.8376
  372MOL0     C49000   2.986   6.583  10.585 -0.7976 -0.1009  0.3928
  372MOL0     C49001   2.847   6.569  10.563 -0.0618 -0.1340  0.0104
  372MOL0     O49002   2.758   6.642  10.642 -0.3704  0.1209 -0.2665
  372MOL0     C49003   2.628   6.680  10.619 -0.3795  0.0960  0.8819
  372MOL0     C49004   2.566   6.754  10.712  0.1937 -0.0404  0.8525
  372MOL0     C49005   2.443   6.822  10.690 -0.1697  0.2169 -0.1743
  372MOL0     C49006   2.366   6.792  10.570  0.0349  0.9398 -0.2725
  372MOL0     O49007   2.243   6.832  10.541  0.6273  0.0039  0.6379
  372MOL0     C49008   2.192   6.954  10.599  0.2964  1.0417  0.8139
  372MOL0     C49009   2.262   7.081  10.543  1.1672  0.3050 -0.1415
  372MOL0     C49010   2.212   7.130  10.406  0.2237  1.8327 -0.9378
  372MOL0     C49011   2.227   7.284  10.388 -0.0596  0.6434  0.8105
  372MOL0     C49012   2.174   7.329  10.246 -0.2669  0.5105  0.2784
  372MOL0     C49013   2.029   7.282  10.214  0.0299  0.0374 -0.1261
  372MOL0     C49014   1.976   7.320  10.079 -0.1402  0.3811 -0.1415
  372MOL0     C49015   2.034   7.232   9.969 -0.8622 -0.8086  0.6926
  372MOL0    Cl49016   2.001   7.324   9.824  0.0209 -0.2157 -0.1780
  372MOL0     C49017   2.427   6.704  10.481 -0.6636  0.6844  0.3971
  372MOL0     C49018   2.556   6.657  10.500 -0.9385 -0.6860 -1.2659
  372MOL0     O49019   2.809   6.503  10.468  0.1293  0.2248 -1.0970
  372MOL0     C49020   3.080   6.574  10.480 -0.8239  0.2394 -0.6942
  372MOL0     C49021   3.214   6.595  10.501  0.3395 -0.9940  0.6500
  372MOL0     N49022   4.018   6.644  10.381  0.3789  0.4573 -0.0933
  372MOL0     N49023   4.122   6.666  10.297 -0.3037 -0.2126  0.2956
  372MOL0     C49024   5.277   7.347  10.493 -0.2643 -0.1987 -0.0510
  372MOL0     C49025   5.407   7.342  10.547  1.4904 -0.6999  0.0107
  372MOL0     C49026   5.736   7.435  10.826  0.3228  0.3421  0.0706
  372MOL0     C49027   5.818   7.326  10.862 -0.3545  0.7112  0.2388
  372MOL0     C49028   5.942   7.351  10.913 -0.8222 -0.4488  0.6087
  372MOL0     C49029   5.996   7.479  10.928 -0.2406 -0.6287 -0.5824
  372MOL0     O49030   6.110   7.507  10.992 -0.1041  0.3413 -0.0470
  372MOL0     C49031   6.207   7.402  11.006 -0.6353  0.2521 -0.8523
  372MOL0     C49032   6.212   7.368  11.160  0.0788  0.2143  0.9859
  372MOL0     C49033   6.324   7.272  11.194  0.1619 -0.2105 -0.6004
  372MOL0     C49034   6.463   7.331  11.204  0.7280  0.3510  0.4166
  372MOL0     C49035   6.554   7.224  11.239  0.1648 -0.1771 -0.8150
  372MOL0     C49036   6.637   7.140  11.262 -0.1798  0.5747  0.3257
  372MOL0     C49037   5.915   7.587  10.899  0.1191 -0.6155  1.1047
  372MOL0     C49038   5.787   7.569  10.841 -0.3790  0.1498  0.1672
  372MOL0     H49039   5.337   7.241  10.860 -1.8400 -0.6833  1.1889
  372MOL0     H49040   5.117   7.210  10.752 -1.3478  0.2497 -1.9466
  372MOL0     H49041   5.150   7.208  10.347  0.5658  0.1103  1.9530
  372MOL0     H49042   5.032   7.326  10.328  1.1989  0.6703 -0.6532
  372MOL0     H49043   4.999   7.034  10.386 -1.3106 -0.7357  0.3543
  372MOL0     H49044   4.969   7.123  10.235  0.3478 -2.3197  0.5705
  372MOL0     H49045   4.776   7.248  10.384 -1.5530 -1.4703  0.3503
  372MOL0     H49046   4.806   7.120  10.494  1.0753  1.7766  0.9735
  372MOL0     H49047   4.703   7.109  10.208 -1.2929  1.0952  1.5215
  372MOL0     H49048   4.770   6.967  10.281  0.0303 -0.9413  0.4183
  372MOL0     H49049   4.538   7.134  10.392 -0.5080 -0.0284 -2.3704
  372MOL0     H49050   4.583   6.974  10.450  0.3172  0.8486 -0.0881
  372MOL0     H49051   4.527   6.904  10.186  0.4232 -0.5793 -0.4263
  372MOL0     H49052   4.461   7.070  10.194  0.8329  0.3053 -0.6945
  372MOL0     H49053   4.393   6.840  10.403  0.3046  0.8750  0.1025
  372MOL0     H49054   4.308   6.994  10.381  1.1391  0.1372  0.5998
  372MOL0     H49055   4.305   6.771  10.169  0.7150 -1.1864  1.0219
  372MOL0     H49056   4.235   6.937  10.159 -1.9323 -3.1660 -3.1463
  372MOL0     H49057   4.035   6.977  10.344 -0.4547 -0.4695 -0.7504
  372MOL0     H49058   3.849   6.911  10.522  2.9570  0.5075  0.4752
  372MOL0     H49059   3.901   6.785  10.621 -1.0113 -0.2926 -0.1859
  372MOL0     H49060   3.761   6.618  10.467  2.5393  0.3008 -4.1104
  372MOL0     H49061   3.697   6.750  10.387 -2.6314 -0.5211  1.5605
  372MOL0     H49062   3.643   6.691  10.685 -2.2919  1.3064  2.8146
  372MOL0     H49063   3.626   6.857  10.619  2.4878  0.1036 -0.3640
  372MOL0     H49064   3.504   6.604  10.483 -0.6023 -0.1527  0.5715
  372MOL0     H49065   3.448   6.764  10.477 -0.1463  0.8284  1.2194
  372MOL0     H49066   3.190   6.663  10.832  0.3013 -1.0816 -0.8015
  372MOL0     H49067   2.957   6.633  10.789  1.2203 -2.0680  0.7944
  372MOL0     H49068   2.626   6.780  10.799 -0.0052 -0.6893  1.1880
  372MOL0     H49069   2.409   6.893  10.765  0.5980  2.9860 -2.2778
  372MOL0     H49070   2.194   6.947  10.709 -2.9321 -1.5473  0.8683
  372MOL0     H49071   2.085   6.971  10.589 -0.6707 -1.9852  3.9326
  372MOL0     H49072   2.368   7.060  10.527  0.9456  1.1290 -3.3238
  372MOL0     H49073   2.235   7.164  10.609 -4.3396 -2.3064  1.5379
  372MOL0     H49074   2.106   7.111  10.388  0.6093  1.7676 -3.4438
  372MOL0     H49075   2.260   7.079  10.322 -0.2251  1.9750 -1.2784
  372MOL0     H49076   2.157   7.328  10.460 -5.7396 -0.4833 -3.2534
  372MOL0     H49077   2.333   7.301  10.403  0.5969 -0.2854 -2.0899
  372MOL0     H49078   2.241   7.297  10.166 -0.1850  1.1863  0.0680
  372MOL0     H49079   2.161   7.438  10.240 -0.0104  0.5208 -0.0936
  372MOL0     H49080   1.959   7.308  10.294 -1.3495  0.5355 -1.4319
  372MOL0     H49081   2.018   7.173  10.218 -1.0584 -0.0663 -3.1519
  372MOL0     H49082   1.867   7.325  10.073 -0.2888 -1.5682  0.3993
  372MOL0     H49083   2.009   7.423  10.060 -0.7883  0.7615  0.6961
  372MOL0     H49084   1.989   7.132   9.977  0.1793 -1.3467  0.0057
  372MOL0     H49085   2.140   7.229   9.993 -0.2721 -2.1623 -1.7453
  372MOL0     H49086   2.379   6.671  10.390  0.6125 -2.6850  0.7972
  372MOL0     H49087   2.592   6.592  10.421  0.4846 -3.4443  1.4469
  372MOL0     H49088   3.054   6.557  10.376  1.6753  1.4215 -1.5784
  372MOL0     H49089   3.274   6.597  10.410 -0.4462  0.6558  0.1254
  372MOL0     H49090   5.256   7.382  10.392 -3.0674 -1.2003  0.1011
  372MOL0     H49091   5.494   7.378  10.493  0.8022 -0.9670 -1.3061
  372MOL0     H49092   5.788   7.222  10.861  0.0621  0.5801 -1.5554
  372MOL0     H49093   5.993   7.260  10.944  0.6195  0.4422  0.9521
  372MOL0     H49094   6.307   7.441  10.989  0.5276 -0.9917  2.4287
  372MOL0     H49095   6.187   7.310  10.950  1.0324 -0.0671 -0.9559
  372MOL0     H49096   6.225   7.466  11.207  1.6867 -0.4234  1.9287
  372MOL0     H49097   6.118   7.331  11.203 -1.4626  3.8609  1.2128
  372MOL0     H49098   6.323   7.201  11.111 -1.9721  0.4409 -1.1899
  372MOL0     H49099   6.293   7.216  11.282  2.0324 -0.4673 -0.0420
  372MOL0     H49100   6.500   7.372  11.109  0.3597 -0.3492 -0.0350
  372MOL0     H49101   6.464   7.405  11.285  5.3113  0.4764  0.4772
  372MOL0     H49102   6.707   7.061  11.282 -0.5854  0.5822  1.9204
  372MOL0     H49103   5.956   7.683  10.929  3.2186 -0.8535 -1.7370
  372MOL0     H49104   5.738   7.655  10.796 -0.0912  0.2296 -0.0009
  373MOL0     O49105   1.637   7.012   9.739 -0.5294  0.0877  1.0109
  373MOL0     C49106   1.710   7.091   9.685  0.0002 -0.6637  0.4238
  373MOL0     O49107   1.685   7.218   9.659  0.0439 -0.6298 -0.5310
  373MOL0     C49108   1.571   7.281   9.705 -0.4637 -0.1834 -0.5283
  373MOL0     C49109   1.591   7.422   9.729  0.0574 -0.0384  0.5775
  373MOL0     C49110   1.476   7.495   9.751  0.0793 -0.1148 -0.2199
  373MOL0     C49111   1.347   7.448   9.762 -0.8756  0.4452 -0.1815
  373MOL0     O49112   1.242   7.534   9.796  0.4595  0.7564 -0.1693
  373MOL0     C49113   1.113   7.476   9.835 -0.1980  0.4745 -0.1886
  373MOL0     C49114   1.018   7.470   9.717  0.0914  0.0614  0.4266
  373MOL0     C49115   0.898   7.389   9.766  0.4839  0.0945 -0.3627
  373MOL0     C49116   0.798   7.350   9.653 -0.3850  0.2512 -0.3541
  373MOL0     C49117   0.690   7.266   9.722 -0.1360 -0.1175 -0.1086
  373MOL0     C49118   0.601   7.204   9.611 -0.1582 -0.3073  0.0353
  373MOL0     C49119   0.495   7.120   9.679 -0.6445  0.4978 -0.0750
  373MOL0     C49120   0.427   7.037   9.575 -0.2181  0.0012 -0.1627
  373MOL0     N49121   0.318   6.948   9.615  0.5465  0.4247 -0.3559
  373MOL0     C49122   0.315   6.868   9.730  0.2681  0.4645 -0.9353
  373MOL0     C49123   0.198   6.796   9.718  0.8939 -0.2369  1.0597
  373MOL0     C49124   0.166   6.701   9.829  0.1572 -0.3133  0.4403
  373MOL0     C49125   0.049   6.614   9.789 -1.9662  0.2796 -0.4343
  373MOL0     C49126  -0.015   6.542   9.919 -0.3058  0.2588  0.1831
  373MOL0     C49127  -0.159   6.485   9.893  0.4266 -0.2195 -0.2398
  373MOL0     O49128  -0.250   6.591   9.901  0.7517 -0.4707  0.5618
  373MOL0     C49129  -0.379   6.572   9.931  0.2698 -0.2032  0.2124
  373MOL0     C49130  -0.442   6.449   9.974 -0.3281  0.2304  0.0831
  373MOL0     C49131  -0.569   6.434  10.022  0.3531  0.3693  0.4669
  373MOL0     C49132  -0.656   6.539  10.028 -0.7551  0.2618 -0.1807
  373MOL0     C49133  -0.791   6.525  10.088  0.8657  1.3601 -0.1594
  373MOL0     O49134  -0.825   6.409  10.158 -0.1893 -0.4290  0.5016
  373MOL0     C49135  -0.955   6.403  10.197  0.5392  0.0258  0.0375
  373MOL0     C49136  -0.972   6.417  10.333 -0.5167 -0.7892 -0.2779
  373MOL0     C49137  -1.090   6.444  10.391  0.1046 -0.1640 -0.0788
  373MOL0     C49138  -1.208   6.446  10.318 -0.0603  0.7498 -0.2333
  373MOL0     O49139  -1.325   6.464  10.387  0.0463  0.4519  0.9639
  373MOL0     C49140  -1.446   6.488  10.316 -0.1308 -0.3484  0.0952
  373MOL0     C49141  -1.468   6.640  10.283  0.1816 -0.4671 -0.4278
  373MOL0     C49142  -1.611   6.670  10.228 -0.1179  0.0757 -0.3695
  373MOL0     C49143  -1.721   6.662  10.342  0.5520  0.7250  0.2602
  373MOL0     C49144  -1.863   6.710  10.289  0.2371  0.7157 -0.5521
  373MOL0     C49145  -1.972   6.697  10.401 -0.3674  0.0727  0.8611
  373MOL0     C49146  -2.090   6.788  10.375  0.0053  0.1150 -0.1430
  373MOL0     C49147  -2.138   6.778  10.233  0.5398 -0.1264  0.3502
  373MOL0    Cl49148  -2.274   6.884  10.185  0.4089 -0.1036 -0.2637
  373MOL0     C49149  -1.200   6.406  10.178 -0.2002 -0.1557  0.0707
  373MOL0     C49150  -1.071   6.398  10.115 -0.4140  0.9225 -0.1848
  373MOL0     O49151  -0.859   6.629  10.075 -0.6953 -0.1951 -0.0397
  373MOL0     C49152  -0.605   6.665   9.974  0.2375  0.9379  0.4471
  373MOL0     C49153  -0.472   6.679   9.938 -0.1527  0.2672  0.0063
  373MOL0     N49154   0.129   6.840   9.609 -0.1603 -0.0851  0.6600
  373MOL0     N49155   0.210   6.910   9.535 -0.8260  0.2193 -0.3067
  373MOL0     C49156   1.334   7.312   9.748 -0.2053  0.5446  0.1932
  373MOL0     C49157   1.440   7.226   9.710  0.1604 -0.1247 -0.6238
  373MOL0     C49158   1.844   7.044   9.652  0.3851 -0.3334  0.1274
  373MOL0     C49159   1.913   7.090   9.541  0.5648 -0.6732  1.1226
  373MOL0     C49160   2.031   7.037   9.496  0.4486  0.0091 -0.2279
  373MOL0     C49161   2.093   6.936   9.577  0.4183  0.2643  0.2004
  373MOL0     O49162   2.216   6.886   9.530 -0.2208  0.1579 -0.8218
  373MOL0     C49163   2.330   6.933   9.593 -0.2099 -0.2103 -0.5940
  373MOL0     C49164   2.396   7.030   9.507  0.5660 -0.2576  0.3116
  373MOL0     C49165   2.488   7.120   9.603  0.7051  0.1265  0.4536
  373MOL0     C49166   2.557   7.223   9.519 -0.4088  0.4050 -0.1252
  373MOL0     C49167   2.658   7.165   9.425 -0.6149  0.4694  0.0643
  373MOL0     C49168   2.740   7.109   9.350  0.6317  0.4080 -0.3318
  373MOL0     C49169   2.034   6.901   9.694  0.6229 -0.0377  0.5715
  373MOL0     C49170   1.907   6.953   9.732 -0.2533 -0.1718  0.4738
  373MOL0     H49171   1.683   7.477   9.711 -0.1916 -0.5756 -3.4572
  373MOL0     H49172   1.492   7.600   9.774 -1.7149  0.5174 -1.5933
  373MOL0     H49173   1.071   7.548   9.906 -0.2302  0.6594 -0.3947
  373MOL0     H49174   1.109   7.379   9.886  0.4749  1.6577  2.2828
  373MOL0     H49175   1.071   7.416   9.637  1.2788  2.9035 -0.8485
  373MOL0     H49176   0.992   7.567   9.673 -1.4298 -1.2478 -1.8043
  373MOL0     H49177   0.845   7.452   9.839  2.1300  1.2360 -0.1014
  373MOL0     H49178   0.933   7.296   9.811  0.8162 -0.6039 -1.9861
  373MOL0     H49179   0.765   7.443   9.606 -0.6135  1.2727  1.6854
  373MOL0     H49180   0.851   7.295   9.575 -0.6930 -0.1406 -0.2884
  373MOL0     H49181   0.631   7.315   9.801  1.4858 -1.4221  2.0057
  373MOL0     H49182   0.742   7.184   9.770  4.5289  1.9826 -1.0503
  373MOL0     H49183   0.662   7.144   9.543 -1.3698 -1.3292 -0.1861
  373MOL0     H49184   0.564   7.290   9.555 -1.6414 -2.1476 -1.9920
  373MOL0     H49185   0.531   7.061   9.765  0.7796  2.2203  0.5719
  373MOL0     H49186   0.419   7.188   9.718  0.4005 -0.0652  3.2766
  373MOL0     H49187   0.497   6.979   9.515  1.4690  2.8613 -1.1512
  373MOL0     H49188   0.378   7.099   9.500 -2.6822  1.0594  2.1754
  373MOL0     H49189   0.391   6.862   9.806  0.2633 -0.1659 -0.9724
  373MOL0     H49190   0.138   6.756   9.919  0.1131  1.6269 -0.7020
  373MOL0     H49191   0.251   6.636   9.850 -0.3408 -0.1686  3.2600
  373MOL0     H49192   0.088   6.567   9.698 -1.6727  2.3684 -1.4428
  373MOL0     H49193  -0.036   6.663   9.741 -1.3914  0.4103 -1.3397
  373MOL0     H49194   0.047   6.458   9.951 -2.6810 -1.2233  1.2026
  373MOL0     H49195  -0.024   6.609  10.005 -1.6430 -3.2202  3.0541
  373MOL0     H49196  -0.179   6.407   9.967 -3.9686 -1.7994 -2.6962
  373MOL0     H49197  -0.161   6.445   9.791  0.7841 -1.2005  0.1253
  373MOL0     H49198  -0.386   6.357   9.986 -2.2988 -1.2904 -1.6054
  373MOL0     H49199  -0.578   6.335  10.066  1.8732 -1.0499 -2.1666
  373MOL0     H49200  -0.880   6.424  10.389 -2.7426  1.9785  3.4523
  373MOL0     H49201  -1.099   6.460  10.498  0.5617 -2.1985  0.3106
  373MOL0     H49202  -1.522   6.439  10.378  0.1484 -1.0275 -0.0869
  373MOL0     H49203  -1.459   6.426  10.227 -3.4934  0.8035 -0.3869
  373MOL0     H49204  -1.389   6.672  10.215  0.5132  1.5057  0.8041
  373MOL0     H49205  -1.457   6.710  10.367  0.7913  0.5355 -1.3227
  373MOL0     H49206  -1.627   6.594  10.152 -4.0569 -2.3435  2.4768
  373MOL0     H49207  -1.610   6.773  10.192  0.8814 -0.2372 -1.2708
  373MOL0     H49208  -1.730   6.560  10.381 -4.9662 -0.4158 -2.8773
  373MOL0     H49209  -1.687   6.731  10.420 -3.0792  0.7638  2.0175
  373MOL0     H49210  -1.900   6.660  10.199  1.3327 -1.1468 -0.0140
  373MOL0     H49211  -1.852   6.819  10.285 -0.0482  0.8353  1.0420
  373MOL0     H49212  -1.926   6.729  10.495  2.9873 -2.9788  0.4825
  373MOL0     H49213  -2.002   6.592  10.398  2.5780 -0.8247 -1.1468
  373MOL0     H49214  -2.167   6.762  10.449 -0.1084 -0.3916 -0.4413
  373MOL0     H49215  -2.068   6.893  10.397 -3.7470  1.6113 -2.5230
  373MOL0     H49216  -2.159   6.673  10.212  2.5210 -0.6147  0.5560
  373MOL0     H49217  -2.062   6.819  10.165 -0.7429 -2.0096 -2.3861
  373MOL0     H49218  -1.288   6.392  10.116 -0.9881  2.5432  0.4659
  373MOL0     H49219  -1.072   6.377  10.008  2.6102  3.8708 -0.9659
  373MOL0     H49220  -0.666   6.755   9.966 -1.5912 -0.3467 -0.8629
  373MOL0     H49221  -0.442   6.775   9.897 -0.2894  0.3579  0.1221
  373MOL0     H49222   1.235   7.266   9.745  1.5507 -3.6027 -1.2458
  373MOL0     H49223   1.419   7.122   9.685  0.2321  0.5836 -4.2593
  373MOL0     H49224   1.870   7.170   9.483  0.0708 -0.2241  2.0837
  373MOL0     H49225   2.065   7.072   9.399  1.3630 -1.4815 -0.4763
  373MOL0     H49226   2.408   6.858   9.609  0.9677  1.1331  0.3002
  373MOL0     H49227   2.316   6.972   9.694  2.0135  2.9906 -1.3408
  373MOL0     H49228   2.459   6.981   9.432  0.6588 -1.6077  1.2404
  373MOL0     H49229   2.315   7.079   9.452  1.8509  0.3157 -1.1371
  373MOL0     H49230   2.551   7.052   9.660  1.0900 -0.2770 -0.4336
  373MOL0     H49231   2.420   7.181   9.664 -0.9790 -2.4955  1.3761
  373MOL0     H49232   2.471   7.268   9.467 -0.9055  0.2408  0.5453
  373MOL0     H49233   2.588   7.302   9.588  1.5597 -1.0164  0.6811
  373MOL0     H49234   2.794   7.041   9.288  0.0689 -0.0312 -0.3505
  373MOL0     H49235   2.082   6.825   9.755 -2.0706 -0.8316  1.8849
  373MOL0     H49236   1.855   6.920   9.821  1.0931 -1.4361  0.8258
  374MOL0     O49237   7.598   4.440   3.643 -0.0676  0.0964  0.0170
  374MOL0     C49238   7.574   4.377   3.541 -0.6886 -0.1134  0.8612
  374MOL0     O49239   7.470   4.291   3.528  0.3712 -0.6980 -0.2933
  374MOL0     C49240   7.347   4.314   3.590 -0.5518  0.3699  0.1954
  374MOL0     C49241   7.234   4.339   3.513 -0.5265 -0.1530  0.3089
  374MOL0     C49242   7.111   4.347   3.581  0.0733  0.4470  0.3331
  374MOL0     C49243   7.098   4.328   3.722 -0.0525  0.3517  0.0768
  374MOL0     O49244   6.983   4.323   3.790  0.2856 -0.0378  0.2043
  374MOL0     C49245   6.869   4.384   3.746 -0.5345 -0.3007 -0.0242
  374MOL0     C49246   6.751   4.385   3.838  0.7511 -0.0836 -0.3283
  374MOL0     C49247   6.638   4.473   3.770  0.6798  0.3763  0.3025
  374MOL0     C49248   6.522   4.475   3.863 -0.1072 -0.2315  0.5423
  374MOL0     C49249   6.418   4.589   3.832 -0.8943 -0.4623 -0.4740
  374MOL0     C49250   6.396   4.608   3.684 -0.1413 -0.0883  0.3612
  374MOL0     C49251   6.274   4.710   3.661  0.7780 -0.5159  0.2191
  374MOL0     C49252   6.260   4.722   3.509 -0.0460  0.6242 -0.1300
  374MOL0     N49253   6.378   4.776   3.428 -0.4465  1.2044 -0.2345
  374MOL0     C49254   6.430   4.901   3.464  0.3133 -0.3795  0.2440
  374MOL0     C49255   6.498   4.945   3.355  0.3854  0.1757  0.3894
  374MOL0     C49256   6.552   5.083   3.337  0.0211  0.2458 -0.7426
  374MOL0     C49257   6.470   5.163   3.235 -0.9731 -1.3030 -0.4713
  374MOL0     C49258   6.332   5.210   3.273 -0.1442  0.3043  0.0381
  374MOL0     C49259   6.228   5.104   3.233  0.1770  0.5308 -1.6129
  374MOL0     O49260   6.108   5.161   3.285  0.4743  0.6186 -0.2924
  374MOL0     C49261   5.999   5.076   3.300  0.0140  0.7346 -0.2362
  374MOL0     C49262   5.883   5.128   3.362 -0.4091 -0.4210  0.1974
  374MOL0     C49263   5.766   5.049   3.379 -1.0164  0.4571  0.0454
  374MOL0     C49264   5.768   4.912   3.331  0.1716  0.7216  0.1019
  374MOL0     C49265   5.642   4.833   3.348 -0.1295 -0.1857  0.4026
  374MOL0     O49266   5.559   4.874   3.447  0.1078  0.4678  0.3736
  374MOL0     C49267   5.425   4.838   3.452 -1.0139  0.2202  1.2406
  374MOL0     C49268   5.353   4.832   3.572  0.2973  0.0205 -0.5096
  374MOL0     C49269   5.210   4.815   3.582  0.1411 -0.7872  0.1847
  374MOL0     C49270   5.137   4.787   3.471  0.1909  0.8039  0.2502
  374MOL0     O49271   5.007   4.760   3.493  0.4478 -0.1083  0.1576
  374MOL0     C49272   4.945   4.679   3.399 -0.1315 -0.3939 -0.3122
  374MOL0     C49273   4.797   4.660   3.449  0.8770 -0.5479 -0.4870
  374MOL0     C49274   4.790   4.609   3.602 -0.4418 -0.5270  0.3866
  374MOL0     C49275   4.649   4.586   3.649 -0.3279  0.0022  0.1277
  374MOL0     C49276   4.640   4.499   3.770  0.0584  0.3211  1.1506
  374MOL0     C49277   4.501   4.492   3.828 -0.8783 -1.1892 -0.2356
  374MOL0     C49278   4.485   4.367   3.918 -0.0398 -0.6215 -0.1374
  374MOL0     C49279   4.343   4.358   3.982  0.1483  0.4147  0.6338
  374MOL0    Cl49280   4.222   4.283   3.869 -0.1808 -0.3132  0.0595
  374MOL0     C49281   5.205   4.783   3.344 -0.3758 -0.2510 -0.8210
  374MOL0     C49282   5.344   4.807   3.334  0.2021 -0.4720  0.0021
  374MOL0     O49283   5.628   4.735   3.269  0.1808 -0.5636 -0.7279
  374MOL0     C49284   5.884   4.859   3.270 -0.2452  0.5163 -1.4116
  374MOL0     C49285   6.006   4.930   3.270  0.5105  0.3903  0.8420
  374MOL0     N49286   6.505   4.843   3.273 -0.2973  1.0259 -0.0481
  374MOL0     N49287   6.431   4.740   3.306 -0.1352 -0.0017 -0.0692
  374MOL0     C49288   7.216   4.304   3.789  0.4709 -0.8078 -1.1539
  374MOL0     C49289   7.341   4.293   3.724 -1.1788  0.6980  0.3146
  374MOL0     C49290   7.679   4.386   3.434  0.0698  0.2619  0.0468
  374MOL0     C49291   7.777   4.482   3.443 -0.2821 -0.0907  0.4941
  374MOL0     C49292   7.881   4.478   3.338  0.3669  1.2215 -0.4711
  374MOL0     C49293   7.882   4.390   3.225 -0.2028  0.8548 -0.7481
  374MOL0     O49294   7.979   4.399   3.131 -0.3486 -0.2173 -0.0104
  374MOL0     C49295   8.105   4.473   3.154 -0.2887  0.6120  1.3092
  374MOL0     C49296   8.212   4.452   3.048 -0.1513 -0.4878 -0.1735
  374MOL0     C49297   8.160   4.469   2.905 -0.0114 -0.1904  0.4906
  374MOL0     C49298   8.274   4.447   2.800  0.0411  0.6006  0.0616
  374MOL0     C49299   8.359   4.562   2.803 -0.4466 -0.2534  0.1253
  374MOL0     C49300   8.409   4.670   2.785 -0.4656 -0.2748 -0.4097
  374MOL0     C49301   7.779   4.296   3.220  0.3181 -0.0463  0.4731
  374MOL0     C49302   7.680   4.295   3.320  0.0765 -0.4544  0.0752
  374MOL0     H49303   7.237   4.356   3.406  0.6202 -1.1305  0.1630
  374MOL0     H49304   7.015   4.358   3.532 -0.8408 -0.8254  1.7540
  374MOL0     H49305   6.834   4.337   3.654 -2.4889  1.0779 -0.0636
  374MOL0     H49306   6.912   4.482   3.726 -0.6937 -0.7257 -2.9096
  374MOL0     H49307   6.778   4.416   3.940  1.9564 -1.7866 -0.0977
  374MOL0     H49308   6.721   4.280   3.847  2.6577 -0.7074 -0.8225
  374MOL0     H49309   6.605   4.425   3.677 -2.0234 -0.0891  1.4079
  374MOL0     H49310   6.677   4.567   3.731  3.3025 -1.7189 -2.6269
  374MOL0     H49311   6.459   4.387   3.852 -0.0672 -0.0535 -1.5539
  374MOL0     H49312   6.554   4.488   3.967 -0.9305 -0.0870  0.7855
  374MOL0     H49313   6.450   4.690   3.861  0.6733 -0.6247 -1.5342
  374MOL0     H49314   6.328   4.564   3.889 -0.5380 -2.4123 -0.6940
  374MOL0     H49315   6.368   4.513   3.637  0.4564 -0.0451 -0.0978
  374MOL0     H49316   6.487   4.653   3.642 -1.4811  1.7334 -0.7279
  374MOL0     H49317   6.187   4.653   3.695  1.7921 -1.2473  1.6855
  374MOL0     H49318   6.292   4.800   3.720  2.6155 -0.8231  0.1869
  374MOL0     H49319   6.176   4.791   3.497  0.7717  1.5616 -0.5266
  374MOL0     H49320   6.231   4.628   3.459  1.1472 -0.8477  1.8063
  374MOL0     H49321   6.403   4.973   3.541 -3.0470  1.8019 -2.6274
  374MOL0     H49322   6.658   5.084   3.310 -0.0087 -0.8836 -0.9599
  374MOL0     H49323   6.552   5.130   3.435  3.2690 -0.6404 -0.2211
  374MOL0     H49324   6.482   5.123   3.134  2.3314 -1.7090 -0.0426
  374MOL0     H49325   6.517   5.261   3.223 -2.5289 -0.8582 -4.4101
  374MOL0     H49326   6.324   5.232   3.379 -1.5557 -0.8182  0.1837
  374MOL0     H49327   6.308   5.304   3.222  0.3482  0.1334 -0.5256
  374MOL0     H49328   6.243   5.006   3.280 -4.7374 -0.5552 -1.7531
  374MOL0     H49329   6.229   5.092   3.125 -0.6060  0.5556 -1.6291
  374MOL0     H49330   5.872   5.232   3.388 -2.4007  0.4005 -3.1896
  374MOL0     H49331   5.676   5.091   3.424 -0.5945  0.3167  1.0653
  374MOL0     H49332   5.403   4.850   3.666  0.0712 -0.9540 -0.1924
  374MOL0     H49333   5.170   4.813   3.683  1.4365 -2.3191  0.7047
  374MOL0     H49334   4.993   4.582   3.385 -1.8440 -1.0356 -2.2871
  374MOL0     H49335   4.930   4.735   3.306 -1.3827  0.8792  0.5979
  374MOL0     H49336   4.742   4.591   3.385  0.5591 -1.4420  0.7191
  374MOL0     H49337   4.738   4.752   3.449 -1.3180 -1.8848  0.9449
  374MOL0     H49338   4.837   4.680   3.670  0.8858  0.1568 -1.2063
  374MOL0     H49339   4.848   4.516   3.613  0.8906  0.4339  1.8693
  374MOL0     H49340   4.598   4.682   3.665  0.8742  0.5434  0.8378
  374MOL0     H49341   4.585   4.533   3.578 -1.5739 -0.8500  1.8070
  374MOL0     H49342   4.717   4.534   3.840  2.0221  2.3581 -1.7717
  374MOL0     H49343   4.671   4.399   3.735  2.2274  1.0678  0.7901
  374MOL0     H49344   4.429   4.499   3.746  2.6660 -0.1847 -3.5086
  374MOL0     H49345   4.488   4.582   3.889 -0.3132 -1.3591  0.1413
  374MOL0     H49346   4.487   4.272   3.863 -3.0949 -1.1212  0.4642
  374MOL0     H49347   4.563   4.368   3.995 -1.6672 -0.8870  1.5591
  374MOL0     H49348   4.308   4.458   4.008 -0.5573  0.8714 -1.7911
  374MOL0     H49349   4.342   4.294   4.071 -1.5408 -1.0134 -0.3533
  374MOL0     H49350   5.152   4.780   3.249  1.9294  1.2915 -2.2589
  374MOL0     H49351   5.395   4.802   3.239  0.3009  1.3857 -0.0815
  374MOL0     H49352   5.871   4.760   3.227  0.6466 -1.2181  1.9350
  374MOL0     H49353   6.094   4.877   3.233  0.9774  1.1305  0.8695
  374MOL0     H49354   7.217   4.303   3.897 -2.0472 -0.5810 -1.0755
  374MOL0     H49355   7.429   4.263   3.781 -0.5893  2.3715  0.3385
  374MOL0     H49356   7.794   4.554   3.522 -0.5269  1.0490 -0.4663
  374MOL0     H49357   7.952   4.560   3.339 -1.7199  3.1615 -1.6079
  374MOL0     H49358   8.154   4.426   3.240  3.5001  0.0057 -0.9438
  374MOL0     H49359   8.088   4.580   3.170 -1.6041  0.5386  0.4914
  374MOL0     H49360   8.293   4.521   3.070  0.0879 -0.7288 -0.2934
  374MOL0     H49361   8.261   4.360   3.082 -1.2194 -0.7176  0.7957
  374MOL0     H49362   8.123   4.572   2.894  0.8398  0.3400  2.2655
  374MOL0     H49363   8.081   4.401   2.871  0.3173 -0.1702 -0.3322
  374MOL0     H49364   8.331   4.356   2.819 -1.2678 -0.1573  0.5206
  374MOL0     H49365   8.229   4.433   2.702 -0.2258 -1.6134  0.4446
  374MOL0     H49366   8.443   4.771   2.781 -1.7107  0.1441 -0.6713
  374MOL0     H49367   7.779   4.223   3.139 -2.1189  1.3329 -0.9074
  374MOL0     H49368   7.602   4.220   3.314 -1.9110  1.5124 -0.2290
  375MOL0     O49369  10.370   7.107   2.089  0.0812 -0.4914 -0.5364
  375MOL0     C49370  10.298   7.082   1.990  0.0204  0.0610  0.4850
  375MOL0     O49371  10.331   7.090   1.860  0.0694 -0.0889  0.3813
  375MOL0     C49372  10.460   7.125   1.833  0.7725 -0.3474  0.6574
  375MOL0     C49373  10.507   7.253   1.807 -0.0496 -0.3790  0.5870
  375MOL0     C49374  10.642   7.271   1.780  0.4781  1.1180 -0.3653
  375MOL0     C49375  10.723   7.162   1.753 -0.0877  0.0323 -0.3453
  375MOL0     O49376  10.853   7.173   1.703  0.9884 -0.4225 -0.2003
  375MOL0     C49377  10.927   7.052   1.666 -0.3073 -0.9304  1.0648
  375MOL0     C49378  11.063   7.089   1.608  0.1497 -0.3928  0.2111
  375MOL0     C49379  11.158   6.968   1.582 -0.2547 -0.8530 -0.4400
  375MOL0     C49380  11.301   6.997   1.551 -0.2205 -0.5369  0.7391
  375MOL0     C49381  11.341   7.053   1.414  0.3345 -0.2595 -0.3639
  375MOL0     C49382  11.309   6.961   1.301  0.4901  0.5124 -0.8494
  375MOL0     C49383  11.400   6.984   1.193 -0.1033 -0.2864  0.9285
  375MOL0     C49384  11.388   7.120   1.113  0.0334  0.5503 -0.3176
  375MOL0     N49385  11.257   7.134   1.045 -0.3465 -0.1038 -0.4742
  375MOL0     C49386  11.195   7.064   0.947 -0.5459 -0.4426  0.2925
  375MOL0     C49387  11.073   7.116   0.943  0.5733  0.3833  0.5783
  375MOL0     C49388  10.953   7.062   0.871 -0.6721 -0.7382 -0.1058
  375MOL0     C49389  10.854   6.980   0.948  0.4131  0.4356 -0.0563
  375MOL0     C49390  10.771   7.062   1.033  0.8698 -0.1219  0.0162
  375MOL0     C49391  10.649   6.992   1.089  0.3736 -0.1299 -0.0338
  375MOL0     O49392  10.589   6.885   1.006 -0.3565 -0.2199 -0.4551
  375MOL0     C49393  10.468   6.837   1.034  0.2889  0.5651 -0.4178
  375MOL0     C49394  10.411   6.759   0.936 -0.6851  0.1551  0.5756
  375MOL0     C49395  10.274   6.725   0.947 -0.4023 -0.5826  0.4003
  375MOL0     C49396  10.203   6.745   1.067 -0.3431  0.3632  0.3926
  375MOL0     C49397  10.068   6.697   1.086 -0.6109 -0.5622 -0.8159
  375MOL0     O49398  10.003   6.724   1.204  0.0428  0.5295  0.1262
  375MOL0     C49399   9.881   6.670   1.234 -0.2364 -0.2241 -0.3029
  375MOL0     C49400   9.792   6.754   1.310  0.0108  0.6806 -0.0543
  375MOL0     C49401   9.668   6.693   1.348 -0.5475 -0.2009 -0.0935
  375MOL0     C49402   9.632   6.565   1.314 -0.3491 -0.1822 -0.0230
  375MOL0     O49403   9.504   6.521   1.329 -0.1538 -0.2751 -0.2169
  375MOL0     C49404   9.458   6.451   1.206  0.8439  0.2401  0.3670
  375MOL0     C49405   9.307   6.453   1.200 -0.3360  0.2432 -0.2597
  375MOL0     C49406   9.243   6.373   1.087 -0.0272 -0.1656 -0.4209
  375MOL0     C49407   9.092   6.415   1.095  0.1853 -0.1998  0.0596
  375MOL0     C49408   9.009   6.336   0.995 -0.0184 -0.8033  0.2906
  375MOL0     C49409   8.855   6.356   1.008 -0.0239  0.2468  0.4285
  375MOL0     C49410   8.778   6.253   0.914 -0.1146  0.1949 -0.4477
  375MOL0     C49411   8.631   6.290   0.926  0.8935 -0.0148 -1.1394
  375MOL0    Cl49412   8.590   6.460   0.865 -0.2455 -0.3952 -0.3800
  375MOL0     C49413   9.722   6.485   1.245 -0.1347  0.5929  0.1907
  375MOL0     C49414   9.842   6.540   1.211  0.2448  0.9828  0.2121
  375MOL0     O49415  10.023   6.630   0.993  0.1008  0.6567 -1.0957
  375MOL0     C49416  10.269   6.798   1.169 -0.3551 -0.3576  0.0553
  375MOL0     C49417  10.404   6.846   1.158 -0.5516  0.6737 -0.5289
  375MOL0     N49418  11.056   7.207   1.044  0.4661  0.4917  0.4723
  375MOL0     N49419  11.168   7.224   1.097  0.1043  0.7697 -0.2815
  375MOL0     C49420  10.670   7.037   1.778 -0.0945  1.2339  0.8078
  375MOL0     C49421  10.545   7.021   1.821 -0.2348  0.2173  0.9736
  375MOL0     C49422  10.159   7.050   2.030 -1.0260 -0.6393  1.4198
  375MOL0     C49423  10.120   7.004   2.154  0.3358 -0.3004  0.5233
  375MOL0     C49424   9.983   6.975   2.180 -0.3683 -0.7341 -0.2168
  375MOL0     C49425   9.880   6.989   2.090 -0.2093  0.2124 -0.6202
  375MOL0     O49426   9.756   6.952   2.128 -0.0114 -0.4457  0.1191
  375MOL0     C49427   9.641   6.999   2.052  0.6573  0.5148  0.0839
  375MOL0     C49428   9.523   6.971   2.146 -0.1016 -1.2840 -0.8596
  375MOL0     C49429   9.382   7.014   2.108  0.2600 -0.2584  0.9544
  375MOL0     C49430   9.375   7.161   2.154 -0.0154 -0.5090 -0.1730
  375MOL0     C49431   9.244   7.227   2.109 -0.7433 -1.2749 -0.1612
  375MOL0     C49432   9.143   7.271   2.063 -0.1282 -0.2792  0.2491
  375MOL0     C49433   9.923   7.043   1.972 -0.1961  0.5858 -0.9285
  375MOL0     C49434  10.058   7.067   1.944  0.8956 -0.1850  0.7374
  375MOL0     H49435  10.442   7.340   1.814  0.0144 -0.4020  1.6624
  375MOL0     H49436  10.674   7.374   1.770  1.6579  0.8247  0.1589
  375MOL0     H49437  10.867   6.997   1.593 -0.0208 -0.6199  0.5884
  375MOL0     H49438  10.952   6.994   1.755 -1.2229 -0.0229  1.9394
  375MOL0     H49439  11.116   7.170   1.658  2.0865 -0.6966 -1.2524
  375MOL0     H49440  11.040   7.127   1.508 -1.0028 -0.5701  0.3850
  375MOL0     H49441  11.109   6.898   1.514 -0.7525 -1.4961  0.5620
  375MOL0     H49442  11.157   6.909   1.675 -1.9961  3.2462  2.4128
  375MOL0     H49443  11.335   7.070   1.626  4.0316 -0.8256 -0.6520
  375MOL0     H49444  11.359   6.905   1.560  0.5895 -0.3378 -1.8050
  375MOL0     H49445  11.445   7.088   1.414  0.9267 -1.8552 -1.4905
  375MOL0     H49446  11.279   7.141   1.396 -0.4310 -1.3316 -3.8349
  375MOL0     H49447  11.202   6.952   1.279  0.5608  1.2860 -1.5439
  375MOL0     H49448  11.320   6.860   1.342 -0.3419  1.1345  1.0033
  375MOL0     H49449  11.501   6.968   1.231  0.5972  0.4512 -0.5574
  375MOL0     H49450  11.385   6.900   1.124  1.2385 -1.4546  2.0165
  375MOL0     H49451  11.460   7.121   1.031 -1.3257 -0.7126 -1.6126
  375MOL0     H49452  11.405   7.205   1.179 -1.4490  0.0551  0.7806
  375MOL0     H49453  11.233   6.978   0.893  2.5049  0.5023  0.7455
  375MOL0     H49454  11.001   7.020   0.782 -1.6587  1.0350 -1.5461
  375MOL0     H49455  10.889   7.139   0.827  0.0650 -0.6081 -0.9890
  375MOL0     H49456  10.904   6.903   1.008 -0.2574  0.2825  0.3120
  375MOL0     H49457  10.782   6.932   0.881 -0.6180  1.7145  0.1034
  375MOL0     H49458  10.824   7.082   1.126  2.2568 -0.1426 -0.7485
  375MOL0     H49459  10.736   7.152   0.982 -0.2610  0.1723  1.2576
  375MOL0     H49460  10.576   7.066   1.122  1.5633  0.5352  1.1767
  375MOL0     H49461  10.669   6.933   1.179 -3.3097 -1.4205  0.1089
  375MOL0     H49462  10.461   6.734   0.843 -0.4668 -1.6691  1.1505
  375MOL0     H49463  10.219   6.687   0.861  1.8003  1.8958 -2.3294
  375MOL0     H49464   9.811   6.857   1.338 -0.5739  1.1697 -1.3969
  375MOL0     H49465   9.592   6.757   1.392  1.3634  1.8822  0.3929
  375MOL0     H49466   9.506   6.352   1.202  0.7468  0.2168 -0.3450
  375MOL0     H49467   9.487   6.511   1.120  1.9094 -0.7651  0.0001
  375MOL0     H49468   9.284   6.559   1.187  1.8631  0.6098 -1.5393
  375MOL0     H49469   9.270   6.418   1.297  1.4520  0.6054  0.5875
  375MOL0     H49470   9.257   6.268   1.112 -1.2669  0.4450  3.6127
  375MOL0     H49471   9.273   6.402   0.986 -1.4082  1.3108 -0.4691
  375MOL0     H49472   9.047   6.403   1.194 -0.3372 -4.8878 -0.5338
  375MOL0     H49473   9.093   6.521   1.067  0.7333  0.0901  1.1169
  375MOL0     H49474   9.045   6.233   0.995 -0.7721 -1.1261 -1.8523
  375MOL0     H49475   9.035   6.375   0.896  1.2378  0.5377  1.0916
  375MOL0     H49476   8.828   6.460   0.987 -1.2564  0.4264  2.5818
  375MOL0     H49477   8.823   6.337   1.111 -0.6231 -1.7919 -0.0853
  375MOL0     H49478   8.811   6.270   0.811  0.1659  1.0982 -0.2188
  375MOL0     H49479   8.796   6.149   0.941  1.0707  0.3570 -0.5799
  375MOL0     H49480   8.594   6.285   1.029 -0.8976  0.6092 -1.7284
  375MOL0     H49481   8.566   6.220   0.874 -2.9745  3.0494 -0.8701
  375MOL0     H49482   9.696   6.382   1.225 -0.1041  0.6313 -0.0474
  375MOL0     H49483   9.918   6.472   1.173 -1.3835  1.3895 -4.3732
  375MOL0     H49484  10.221   6.797   1.267 -3.4495  0.2487 -1.3162
  375MOL0     H49485  10.457   6.883   1.245 -2.2431 -0.1284  0.9008
  375MOL0     H49486  10.728   6.946   1.768 -0.6764  1.0160 -1.0032
  375MOL0     H49487  10.509   6.922   1.850  2.6415 -0.8772  1.2230
  375MOL0     H49488  10.199   7.007   2.229  1.4529  1.2665 -0.6247
  375MOL0     H49489   9.964   6.948   2.283  3.1120 -2.5443  0.1054
  375MOL0     H49490   9.635   6.936   1.962  0.1409  2.9279 -1.6764
  375MOL0     H49491   9.658   7.104   2.029  3.5007  0.2222  0.4971
  375MOL0     H49492   9.508   6.862   2.146 -0.0721 -1.2876 -0.7036
  375MOL0     H49493   9.546   7.015   2.243  0.2763 -0.4247 -1.3326
  375MOL0     H49494   9.308   6.959   2.167 -2.7346 -0.0948 -2.3461
  375MOL0     H49495   9.364   6.999   2.001  1.8636  1.1423  0.4317
  375MOL0     H49496   9.386   7.166   2.263  3.0673 -1.6627 -0.3323
  375MOL0     H49497   9.457   7.220   2.112 -0.9467  0.3402 -0.8570
  375MOL0     H49498   9.051   7.319   2.036  0.2048  1.1779  1.5874
  375MOL0     H49499   9.856   7.045   1.886 -0.6766  1.9830 -0.5431
  375MOL0     H49500  10.098   7.098   1.848  0.4605 -0.4200  0.4815
  376MOL0     O49501   3.323   8.541   0.583  0.3303  0.6197  0.5091
  376MOL0     C49502   3.323   8.530   0.459  0.0647 -0.3184 -1.0020
  376MOL0     O49503   3.432   8.552   0.380 -0.4200 -0.1255  0.9589
  376MOL0     C49504   3.559   8.539   0.421 -0.8771  0.0592 -0.5534
  376MOL0     C49505   3.654   8.598   0.343  0.1626  0.5035 -0.4964
  376MOL0     C49506   3.797   8.594   0.362  0.9838 -0.1868 -0.3066
  376MOL0     C49507   3.837   8.522   0.473  0.6987 -0.0771  0.2634
  376MOL0     O49508   3.969   8.488   0.507 -0.2891  0.3542  0.4986
  376MOL0     C49509   4.073   8.588   0.482  0.4522  0.4065  0.8939
  376MOL0     C49510   4.196   8.549   0.563  0.0975  0.1084  0.0135
  376MOL0     C49511   4.164   8.569   0.709 -0.3185 -0.6444 -0.2481
  376MOL0     C49512   4.286   8.533   0.791  0.5220 -0.1721  0.4737
  376MOL0     C49513   4.288   8.537   0.946 -0.0266 -0.2638 -0.0989
  376MOL0     C49514   4.190   8.435   1.002  0.6584 -0.7266 -0.3832
  376MOL0     C49515   4.205   8.398   1.149 -0.1125 -0.5237 -0.0136
  376MOL0     C49516   4.342   8.383   1.207 -0.0683 -0.6041 -0.4960
  376MOL0     N49517   4.403   8.257   1.170 -0.2335  0.3485 -0.2234
  376MOL0     C49518   4.506   8.194   1.243  0.6840  0.2288  0.0337
  376MOL0     C49519   4.549   8.097   1.166  1.1940  0.2753 -0.0479
  376MOL0     C49520   4.657   7.993   1.195  0.5646 -1.1208  0.7230
  376MOL0     C49521   4.608   7.879   1.283 -1.0642  0.5234 -0.1766
  376MOL0     C49522   4.530   7.774   1.211  0.7194 -0.0948 -0.3868
  376MOL0     C49523   4.377   7.805   1.222 -0.6058 -0.0145  0.0930
  376MOL0     O49524   4.320   7.689   1.160  0.0668 -0.4581  0.1361
  376MOL0     C49525   4.188   7.681   1.145 -0.3447  0.2403  0.6670
  376MOL0     C49526   4.094   7.779   1.171 -0.1763  0.7781  0.7067
  376MOL0     C49527   3.959   7.750   1.152  0.5027 -0.4877  0.7371
  376MOL0     C49528   3.910   7.636   1.090 -0.5144 -0.3436  0.3773
  376MOL0     C49529   3.775   7.621   1.057  0.4471  0.7863  0.1954
  376MOL0     O49530   3.697   7.729   1.038  0.5406  0.0552 -0.8138
  376MOL0     C49531   3.561   7.718   1.027 -0.0976 -0.0565 -0.7138
  376MOL0     C49532   3.497   7.629   0.938  0.2567 -0.0245 -0.6277
  376MOL0     C49533   3.358   7.628   0.924  0.6168  0.1991  0.0918
  376MOL0     C49534   3.274   7.691   1.019  1.1164 -0.5502 -0.3031
  376MOL0     O49535   3.136   7.669   1.023  0.0558 -0.9855 -0.0716
  376MOL0     C49536   3.083   7.545   0.984 -0.6016 -0.3141 -0.2778
  376MOL0     C49537   2.945   7.509   1.037 -0.9583  0.2633 -0.3620
  376MOL0     C49538   2.844   7.616   0.993 -0.0547 -0.5515 -0.9870
  376MOL0     C49539   2.789   7.596   0.858  0.0035  0.3338 -0.1419
  376MOL0     C49540   2.647   7.665   0.838  0.1947 -0.0165 -0.1168
  376MOL0     C49541   2.672   7.817   0.834  0.0515  0.2851  0.4901
  376MOL0     C49542   2.538   7.904   0.797  0.2503  0.0997  0.5552
  376MOL0     C49543   2.557   8.048   0.859 -0.1196  0.2246  1.1144
  376MOL0    Cl49544   2.411   8.125   0.781  0.5331 -0.2535  0.0504
  376MOL0     C49545   3.333   7.782   1.114  0.5895 -0.4951  0.3549
  376MOL0     C49546   3.481   7.798   1.112  0.7544  0.6110 -1.1799
  376MOL0     O49547   3.738   7.508   1.052  0.1113  0.8872  0.1188
  376MOL0     C49548   4.009   7.540   1.052 -0.3682  0.5308  0.2400
  376MOL0     C49549   4.136   7.568   1.084  0.7461  0.5058 -0.2789
  376MOL0     N49550   4.479   8.093   1.044  0.2768 -0.0810 -0.7984
  376MOL0     N49551   4.385   8.181   1.054 -0.1186 -0.2627  0.1437
  376MOL0     C49552   3.753   8.457   0.556 -0.4105  0.0268 -0.2203
  376MOL0     C49553   3.612   8.463   0.530  0.0733 -0.3400  0.3841
  376MOL0     C49554   3.186   8.520   0.402 -0.2629  0.1257  0.6188
  376MOL0     C49555   3.168   8.483   0.265 -0.1751 -0.5056 -0.1555
  376MOL0     C49556   3.044   8.457   0.215  0.7258  0.1497 -1.0104
  376MOL0     C49557   2.930   8.499   0.282 -0.2026 -0.2066 -0.8550
  376MOL0     O49558   2.808   8.498   0.215  0.3007 -0.2030  0.6277
  376MOL0     C49559   2.694   8.501   0.298  0.2426 -0.1025 -0.3684
  376MOL0     C49560   2.588   8.415   0.222  0.3401  0.0612 -0.4361
  376MOL0     C49561   2.451   8.435   0.286 -0.8818 -0.4524 -0.4273
  376MOL0     C49562   2.336   8.367   0.203  0.5421 -0.2589  0.6592
  376MOL0     C49563   2.319   8.435   0.074 -0.3086 -0.1108 -0.3325
  376MOL0     C49564   2.316   8.503  -0.030 -0.1878 -0.0649 -0.5899
  376MOL0     C49565   2.945   8.541   0.411 -0.5499 -0.3146 -0.5337
  376MOL0     C49566   3.072   8.549   0.474  1.2235  0.5112 -0.6835
  376MOL0     H49567   3.633   8.655   0.254 -0.4620  0.0546 -0.6418
  376MOL0     H49568   3.860   8.658   0.301  0.1091  0.3748 -0.6332
  376MOL0     H49569   4.036   8.689   0.503 -0.2574  1.0218 -2.6449
  376MOL0     H49570   4.090   8.587   0.374 -2.2359 -2.1087  0.3547
  376MOL0     H49571   4.285   8.606   0.538 -0.0023  0.1958 -0.1491
  376MOL0     H49572   4.216   8.446   0.529  1.4524  1.4909 -3.9899
  376MOL0     H49573   4.073   8.515   0.738 -0.5216 -0.2425 -0.1203
  376MOL0     H49574   4.137   8.675   0.715 -1.5632 -0.9877  0.5565
  376MOL0     H49575   4.313   8.433   0.757  0.3927  0.1400 -0.5918
  376MOL0     H49576   4.356   8.613   0.765 -2.5814  2.3855 -0.8228
  376MOL0     H49577   4.253   8.637   0.971 -2.1768 -1.3336  1.5206
  376MOL0     H49578   4.392   8.520   0.975  0.4726  2.4021 -0.1462
  376MOL0     H49579   4.199   8.335   0.960 -3.8389 -2.0411  1.2000
  376MOL0     H49580   4.089   8.478   0.995  1.4342  1.0859 -1.2347
  376MOL0     H49581   4.140   8.457   1.215 -0.6379 -1.7988  0.6342
  376MOL0     H49582   4.159   8.300   1.161 -0.7614 -0.2622 -0.3098
  376MOL0     H49583   4.340   8.391   1.316 -0.0299 -2.2301 -0.3527
  376MOL0     H49584   4.409   8.461   1.168 -2.0498  1.5641  0.2096
  376MOL0     H49585   4.555   8.217   1.338  2.6559 -2.0037 -0.3597
  376MOL0     H49586   4.747   8.033   1.243 -0.1185  1.9413 -0.2717
  376MOL0     H49587   4.691   7.957   1.097 -0.6035 -1.0937  0.2896
  376MOL0     H49588   4.554   7.915   1.371  0.9285  0.3989  1.1793
  376MOL0     H49589   4.691   7.823   1.327 -0.2409 -0.1540 -2.4571
  376MOL0     H49590   4.556   7.771   1.105 -2.4096  1.7080 -1.3462
  376MOL0     H49591   4.546   7.673   1.251  2.3015 -0.0488 -0.8426
  376MOL0     H49592   4.356   7.893   1.161  0.7788  0.9868  1.0017
  376MOL0     H49593   4.354   7.832   1.326  0.8246  2.8130 -0.2300
  376MOL0     H49594   4.131   7.872   1.213  0.3126  1.4896 -1.1867
  376MOL0     H49595   3.893   7.829   1.187  2.0425  0.7584  0.9316
  376MOL0     H49596   3.545   7.564   0.865  0.4761  0.5102 -0.9674
  376MOL0     H49597   3.309   7.573   0.844 -0.5303  2.6116 -0.9732
  376MOL0     H49598   3.152   7.467   1.018  0.9700  1.8876  1.8462
  376MOL0     H49599   3.070   7.557   0.876 -2.6658 -0.3313 -0.0790
  376MOL0     H49600   2.962   7.499   1.144  0.3367  0.0640 -0.5765
  376MOL0     H49601   2.926   7.407   1.003  0.9994  0.6687 -3.0532
  376MOL0     H49602   2.880   7.718   1.004 -0.6868 -0.1009 -2.7773
  376MOL0     H49603   2.767   7.599   1.069  1.1694  1.9391  0.9487
  376MOL0     H49604   2.859   7.642   0.788  0.3684  3.6821  2.2177
  376MOL0     H49605   2.778   7.489   0.836 -1.4581  0.7700 -1.8427
  376MOL0     H49606   2.574   7.636   0.913  0.8499 -1.9849 -0.1697
  376MOL0     H49607   2.603   7.638   0.741 -2.2904  0.3541  0.8371
  376MOL0     H49608   2.763   7.835   0.775  0.8484 -2.3879  0.7725
  376MOL0     H49609   2.705   7.849   0.933  2.3194  1.3115 -0.5081
  376MOL0     H49610   2.520   7.919   0.690  1.3094  0.7154  0.4469
  376MOL0     H49611   2.447   7.861   0.841  0.9365 -1.7893  0.2041
  376MOL0     H49612   2.647   8.093   0.816 -0.9147 -0.5115 -1.5589
  376MOL0     H49613   2.553   8.046   0.968 -3.0633 -0.9131  1.0903
  376MOL0     H49614   3.278   7.837   1.190  0.8636 -2.4050  2.0147
  376MOL0     H49615   3.540   7.866   1.172  0.7771 -1.8222  1.7933
  376MOL0     H49616   3.990   7.446   1.001  2.2522  0.2377 -0.3474
  376MOL0     H49617   4.206   7.493   1.048 -0.8847  0.2429 -3.2797
  376MOL0     H49618   3.806   8.410   0.638 -1.0128  0.6206  0.5378
  376MOL0     H49619   3.532   8.427   0.594 -2.6588  1.7940 -1.6144
  376MOL0     H49620   3.257   8.445   0.215  0.2222 -1.7303  1.3897
  376MOL0     H49621   3.021   8.426   0.113 -0.5866  2.2930 -1.4202
  376MOL0     H49622   2.655   8.601   0.318 -0.4144 -0.8593  2.6429
  376MOL0     H49623   2.712   8.447   0.391  1.6607  1.5308  0.3459
  376MOL0     H49624   2.578   8.452   0.120  0.8808 -2.0597 -1.3132
  376MOL0     H49625   2.608   8.308   0.213  0.5026 -0.0205  0.6745
  376MOL0     H49626   2.432   8.542   0.300  0.2217 -0.1797 -0.9296
  376MOL0     H49627   2.445   8.394   0.388 -2.7314 -0.2232 -0.4010
  376MOL0     H49628   2.367   8.264   0.183 -2.3717 -0.9441 -0.8089
  376MOL0     H49629   2.238   8.373   0.251 -1.6886 -3.9351 -2.8066
  376MOL0     H49630   2.336   8.562  -0.118  1.5949 -2.0543 -1.6037
  376MOL0     H49631   2.859   8.583   0.463 -1.6954  1.4315 -3.5819
  376MOL0     H49632   3.070   8.569   0.580 -3.0421  1.5335 -0.7407
  377MOL0     O49633   5.433   5.304   5.225  0.0002  0.4324 -0.0531
  377MOL0     C49634   5.396   5.418   5.230  0.9532  0.2844  0.0464
  377MOL0     O49635   5.460   5.534   5.205 -0.3897 -0.1261 -0.3272
  377MOL0     C49636   5.596   5.541   5.179  0.4008 -0.1860  0.6028
  377MOL0     C49637   5.684   5.437   5.146  0.0856  0.6449  1.0291
  377MOL0     C49638   5.821   5.461   5.118  0.0543 -0.6071 -0.7859
  377MOL0     C49639   5.869   5.599   5.115  0.4135 -0.5027  0.4629
  377MOL0     O49640   5.993   5.651   5.088 -0.3286 -0.1243  0.3525
  377MOL0     C49641   6.115   5.579   5.137  0.6270 -0.8048 -0.3719
  377MOL0     C49642   6.126   5.570   5.285 -0.0292 -0.9161 -0.3470
  377MOL0     C49643   6.262   5.510   5.333 -0.0812 -0.9511  0.7205
  377MOL0     C49644   6.383   5.611   5.321  0.2523 -0.4859 -0.1268
  377MOL0     C49645   6.511   5.533   5.316  0.9457  0.3810 -0.6372
  377MOL0     C49646   6.628   5.634   5.299 -0.4528 -0.1912 -0.4057
  377MOL0     C49647   6.775   5.568   5.303 -0.2100 -0.6465  0.0055
  377MOL0     C49648   6.809   5.503   5.168  0.0506 -1.3239 -0.7683
  377MOL0     N49649   6.871   5.592   5.074  0.3654  0.0952 -0.2765
  377MOL0     C49650   6.800   5.657   4.972 -0.4399  0.4820  0.1061
  377MOL0     C49651   6.902   5.709   4.892 -0.0767  0.8620 -1.5709
  377MOL0     C49652   6.874   5.772   4.758 -0.4341  0.6921 -0.2880
  377MOL0     C49653   6.986   5.759   4.650 -0.5421  0.4151 -0.1182
  377MOL0     C49654   6.969   5.832   4.517 -0.0264  0.1335 -0.0249
  377MOL0     C49655   7.073   5.786   4.408 -0.6810 -0.1611  1.0588
  377MOL0     O49656   7.053   5.642   4.374  0.9191  0.3569 -0.0674
  377MOL0     C49657   6.922   5.613   4.336 -0.1167  0.2406  0.5099
  377MOL0     C49658   6.869   5.493   4.386 -0.8989  0.3679  0.3892
  377MOL0     C49659   6.736   5.456   4.367  1.1598  0.3410  0.1526
  377MOL0     C49660   6.652   5.542   4.291  0.4489 -0.1801 -0.6662
  377MOL0     C49661   6.510   5.513   4.278  0.1618  0.1304 -0.5267
  377MOL0     O49662   6.439   5.588   4.195 -0.3831 -0.0965 -0.6184
  377MOL0     C49663   6.311   5.541   4.175 -0.3607  0.9378 -1.6042
  377MOL0     C49664   6.199   5.607   4.226  0.3708  0.4950 -0.2590
  377MOL0     C49665   6.064   5.573   4.186 -0.0287 -0.3092  0.3648
  377MOL0     C49666   6.038   5.465   4.104  0.2783  0.0925 -0.8849
  377MOL0     O49667   5.924   5.422   4.051  0.3346 -0.2307 -0.6710
  377MOL0     C49668   5.796   5.462   4.111 -0.7853  0.4893  0.1564
  377MOL0     C49669   5.675   5.384   4.049 -0.4634  0.1118  0.3744
  377MOL0     C49670   5.677   5.240   4.101  0.6830 -0.1062 -0.1942
  377MOL0     C49671   5.577   5.153   4.032 -0.2673 -0.7505  0.5561
  377MOL0     C49672   5.610   5.008   4.037 -1.3583 -0.4556  0.3525
  377MOL0     C49673   5.546   4.926   3.928 -0.1163  0.4248 -0.0056
  377MOL0     C49674   5.571   4.772   3.945 -0.3332  0.3048  0.5682
  377MOL0     C49675   5.635   4.720   3.817  0.0944  0.5915 -0.4592
  377MOL0    Cl49676   5.800   4.801   3.785  0.6111 -0.1034 -0.3281
  377MOL0     C49677   6.153   5.394   4.060  0.8116  0.2428  0.6424
  377MOL0     C49678   6.287   5.426   4.094  0.0739  0.2929 -0.1461
  377MOL0     O49679   6.462   5.427   4.354 -0.9446 -0.0738  0.3481
  377MOL0     C49680   6.702   5.668   4.239 -0.8504 -0.2530 -0.0004
  377MOL0     C49681   6.839   5.697   4.253 -0.4868  0.1510  0.1416
  377MOL0     N49682   7.011   5.712   4.964  0.3766 -0.0860  0.6987
  377MOL0     N49683   6.997   5.639   5.068  0.2639  0.6406  0.1647
  377MOL0     C49684   5.786   5.698   5.153  0.0254  0.3162  0.7205
  377MOL0     C49685   5.649   5.670   5.172  0.5167 -1.0545  0.3441
  377MOL0     C49686   5.250   5.422   5.254  0.2312  0.0688 -0.3802
  377MOL0     C49687   5.197   5.524   5.333  0.7807  0.2649 -0.4016
  377MOL0     C49688   5.066   5.528   5.384  0.3688  0.4160  0.6559
  377MOL0     C49689   4.974   5.427   5.341 -0.0835  0.5027  0.2666
  377MOL0     O49690   4.844   5.414   5.387  0.4520  0.1505 -0.0573
  377MOL0     C49691   4.777   5.537   5.392  0.5260 -0.4786 -0.2170
  377MOL0     C49692   4.622   5.521   5.381 -0.0659  0.3903  0.2820
  377MOL0     C49693   4.575   5.413   5.482 -0.1231 -0.3468 -0.1276
  377MOL0     C49694   4.441   5.342   5.445 -0.0445 -0.7048 -0.0450
  377MOL0     C49695   4.347   5.442   5.416 -0.7539 -0.3790 -0.7426
  377MOL0     C49696   4.256   5.526   5.389 -0.3170  0.3853 -1.5997
  377MOL0     C49697   5.022   5.324   5.261  0.0526  0.2478  0.2559
  377MOL0     C49698   5.158   5.323   5.215  0.3046  0.4164  0.0043
  377MOL0     H49699   5.657   5.333   5.130 -1.6068  1.2842 -0.5022
  377MOL0     H49700   5.894   5.381   5.107 -0.0732 -0.4434 -3.5431
  377MOL0     H49701   6.207   5.633   5.110  0.7354  0.3360  2.0080
  377MOL0     H49702   6.116   5.476   5.100 -0.8497 -0.7835 -0.5040
  377MOL0     H49703   6.050   5.505   5.328 -1.2233  1.8129  1.9544
  377MOL0     H49704   6.121   5.667   5.335 -1.7878 -2.8486  3.6995
  377MOL0     H49705   6.285   5.418   5.279  0.8491 -0.4937  0.3070
  377MOL0     H49706   6.257   5.479   5.438  1.5655  1.4735  1.6058
  377MOL0     H49707   6.375   5.671   5.229  1.1093 -1.7742 -1.0723
  377MOL0     H49708   6.385   5.673   5.411 -0.5847 -3.3051  1.9501
  377MOL0     H49709   6.510   5.454   5.241 -0.4086 -2.8521  2.5205
  377MOL0     H49710   6.512   5.490   5.417 -1.6095  2.0164  0.1790
  377MOL0     H49711   6.644   5.702   5.384  2.5462 -0.2351 -0.8123
  377MOL0     H49712   6.612   5.695   5.210  0.6108  1.0772  0.2312
  377MOL0     H49713   6.842   5.653   5.318 -2.0991  1.9152 -4.1881
  377MOL0     H49714   6.786   5.492   5.381  1.7375 -1.4420 -0.9705
  377MOL0     H49715   6.720   5.458   5.123  0.9694 -0.7067 -3.3458
  377MOL0     H49716   6.890   5.434   5.194 -0.9189 -1.1330  3.6042
  377MOL0     H49717   6.696   5.645   4.942 -0.5882 -1.9299  1.3312
  377MOL0     H49718   6.842   5.876   4.774 -0.6555  0.8072 -1.3761
  377MOL0     H49719   6.788   5.729   4.706  0.7687  1.5971 -3.2820
  377MOL0     H49720   7.003   5.653   4.633 -1.8256 -0.1094  1.6008
  377MOL0     H49721   7.074   5.786   4.709  0.0395 -0.6447 -0.4852
  377MOL0     H49722   6.873   5.809   4.471 -0.2636 -0.6885  0.8712
  377MOL0     H49723   6.989   5.936   4.543 -0.2013  0.4024 -0.9401
  377MOL0     H49724   7.173   5.781   4.452  0.4618 -2.5505 -1.5196
  377MOL0     H49725   7.072   5.841   4.314 -0.4965 -1.8981 -0.0156
  377MOL0     H49726   6.923   5.434   4.459  0.3807  1.4779  0.3867
  377MOL0     H49727   6.704   5.361   4.410  4.4653 -0.6935  0.5832
  377MOL0     H49728   6.204   5.701   4.279  0.4299  0.6363 -0.5132
  377MOL0     H49729   5.982   5.633   4.223 -2.4936 -2.0281 -1.9034
  377MOL0     H49730   5.770   5.567   4.098 -2.5617  0.5184  3.0566
  377MOL0     H49731   5.804   5.434   4.217  2.5181  2.5534  0.5934
  377MOL0     H49732   5.693   5.389   3.942 -1.2278  1.9952  0.2892
  377MOL0     H49733   5.578   5.434   4.063 -0.1668  0.0292  3.3963
  377MOL0     H49734   5.649   5.237   4.206  2.0982 -1.3575  0.1858
  377MOL0     H49735   5.777   5.200   4.080 -0.6124 -3.0127 -1.4357
  377MOL0     H49736   5.474   5.176   4.063 -0.3005 -1.3629  0.9113
  377MOL0     H49737   5.589   5.177   3.926 -1.8005 -1.5560  0.1654
  377MOL0     H49738   5.580   4.965   4.133 -1.7957 -1.4977 -0.2335
  377MOL0     H49739   5.718   4.989   4.037 -1.4783 -1.2289  1.1526
  377MOL0     H49740   5.580   4.963   3.831 -2.9115 -0.6161 -1.4966
  377MOL0     H49741   5.438   4.942   3.929 -0.1070  0.5507 -0.7096
  377MOL0     H49742   5.637   4.746   4.028  0.0223 -3.2385 -0.6489
  377MOL0     H49743   5.479   4.713   3.950  1.2120 -2.4836 -1.0188
  377MOL0     H49744   5.563   4.725   3.735  1.0653 -2.6006 -1.6384
  377MOL0     H49745   5.647   4.611   3.814 -1.0240  0.4748 -1.5171
  377MOL0     H49746   6.143   5.314   3.987  2.5124 -0.8048  1.5057
  377MOL0     H49747   6.369   5.369   4.054 -0.1784  0.6928 -1.2577
  377MOL0     H49748   6.648   5.743   4.184 -0.4008  0.0360 -0.0540
  377MOL0     H49749   6.872   5.786   4.201  0.4958 -0.1026  0.3175
  377MOL0     H49750   5.824   5.798   5.163  1.8145  0.1508 -2.9024
  377MOL0     H49751   5.588   5.758   5.190  0.5809 -0.4316 -2.0993
  377MOL0     H49752   5.268   5.602   5.361 -2.0039  3.2187 -1.0258
  377MOL0     H49753   5.028   5.603   5.453 -1.6315 -0.5200  0.6533
  377MOL0     H49754   4.799   5.605   5.309 -1.5175  1.5076  0.7380
  377MOL0     H49755   4.801   5.588   5.486  3.4401 -0.7323 -0.7325
  377MOL0     H49756   4.569   5.614   5.405  2.5818  2.2800 -0.6648
  377MOL0     H49757   4.608   5.493   5.277 -1.7795  3.8548 -0.5693
  377MOL0     H49758   4.571   5.454   5.583  0.9453 -2.1592  0.7006
  377MOL0     H49759   4.653   5.338   5.497 -1.3231 -1.8247 -0.9818
  377MOL0     H49760   4.452   5.273   5.361 -1.8104 -2.4866  1.0772
  377MOL0     H49761   4.406   5.283   5.531 -1.1912  0.0893  0.0627
  377MOL0     H49762   4.183   5.598   5.357 -1.2495  0.5984  0.8165
  377MOL0     H49763   4.937   5.263   5.233 -2.7389  2.5503  2.9447
  377MOL0     H49764   5.189   5.246   5.146 -3.9395 -1.7732  0.2211
  378MOL0     O49765   9.405   1.321   4.126  0.2412  0.6617  0.6878
  378MOL0     C49766   9.517   1.291   4.164  0.7644 -0.2296  0.7293
  378MOL0     O49767   9.548   1.262   4.289 -0.5305 -0.2259  0.0058
  378MOL0     C49768   9.471   1.282   4.399  0.8008 -0.7755  0.3710
  378MOL0     C49769   9.502   1.205   4.509  0.0850 -0.0862  0.0648
  378MOL0     C49770   9.418   1.218   4.622 -0.1247  0.5453 -0.1682
  378MOL0     C49771   9.331   1.321   4.643 -0.7143 -0.7659 -0.3714
  378MOL0     O49772   9.269   1.342   4.765 -0.4059 -0.0298 -0.1934
  378MOL0     C49773   9.253   1.227   4.851  0.2745  0.2079  0.2311
  378MOL0     C49774   9.134   1.246   4.948 -0.3838  0.0453  0.1188
  378MOL0     C49775   9.001   1.244   4.878  0.3646  0.6749  0.1584
  378MOL0     C49776   8.882   1.260   4.973 -0.2950  0.0906  1.1208
  378MOL0     C49777   8.752   1.227   4.891 -0.1310  1.1438 -0.5337
  378MOL0     C49778   8.620   1.222   4.973 -0.1513 -0.6386  0.5975
  378MOL0     C49779   8.493   1.250   4.884 -0.3242 -0.0950  0.7422
  378MOL0     C49780   8.360   1.233   4.958 -0.4952 -0.2839 -0.8006
  378MOL0     N49781   8.242   1.287   4.898  0.4433 -0.0223  0.3170
  378MOL0     C49782   8.168   1.393   4.947  0.3483  0.4184 -0.0480
  378MOL0     C49783   8.058   1.387   4.874  0.6346 -0.0711  0.0906
  378MOL0     C49784   7.948   1.494   4.886  0.0590 -0.2474 -0.1639
  378MOL0     C49785   7.866   1.522   4.757 -0.1055  0.1054 -0.9949
  378MOL0     C49786   7.753   1.621   4.788  0.3347 -0.4891  0.6880
  378MOL0     C49787   7.659   1.651   4.666 -0.1049  0.2881 -0.0333
  378MOL0     O49788   7.564   1.749   4.703 -0.1546 -0.6591 -0.5347
  378MOL0     C49789   7.447   1.743   4.634  0.0132  0.3668 -0.2785
  378MOL0     C49790   7.337   1.802   4.689 -0.6402 -1.2531  0.0459
  378MOL0     C49791   7.214   1.817   4.627 -1.0533  0.2661  0.1333
  378MOL0     C49792   7.198   1.768   4.496  0.1908  1.6596  1.0531
  378MOL0     C49793   7.071   1.770   4.422  0.3562  0.4071  0.6673
  378MOL0     O49794   7.053   1.708   4.296  0.2931 -0.0705  0.2775
  378MOL0     C49795   6.931   1.732   4.231  0.8352  0.4161 -0.2574
  378MOL0     C49796   6.811   1.687   4.291 -0.5799 -0.2291  0.9071
  378MOL0     C49797   6.686   1.713   4.244  0.4733  0.2205  0.6809
  378MOL0     C49798   6.676   1.764   4.111 -0.5164  1.1266 -0.0016
  378MOL0     O49799   6.560   1.791   4.053 -0.4268  0.6246 -0.4597
  378MOL0     C49800   6.426   1.779   4.119  0.5552 -0.1996 -1.1039
  378MOL0     C49801   6.327   1.816   4.015  0.8039 -0.4837  0.7297
  378MOL0     C49802   6.270   1.699   3.928 -0.2689  0.7260 -0.2534
  378MOL0     C49803   6.149   1.730   3.829 -0.8044  0.1564 -0.4884
  378MOL0     C49804   6.074   1.609   3.772  0.1346  0.1592  0.0401
  378MOL0     C49805   6.094   1.588   3.620 -0.4275  0.5401  0.6904
  378MOL0     C49806   6.173   1.461   3.580 -0.0301  0.3077  0.2907
  378MOL0     C49807   6.200   1.469   3.434  0.2806 -0.1669 -0.8161
  378MOL0    Cl49808   6.061   1.387   3.349  0.5906 -0.0174 -0.0434
  378MOL0     C49809   6.795   1.801   4.046 -1.1689  0.1899 -0.5571
  378MOL0     C49810   6.921   1.796   4.112  0.2853 -0.7773  0.0175
  378MOL0     O49811   6.993   1.844   4.474 -0.8100 -0.2167 -0.3192
  378MOL0     C49812   7.317   1.703   4.434  0.1854 -0.0573 -0.1104
  378MOL0     C49813   7.439   1.706   4.504 -0.4053  1.4331  0.6116
  378MOL0     N49814   8.067   1.270   4.793 -0.4508 -0.0977  0.9078
  378MOL0     N49815   8.182   1.215   4.801 -0.0006 -0.2581 -0.6147
  378MOL0     C49816   9.301   1.402   4.533 -1.3412 -0.4310  0.5526
  378MOL0     C49817   9.371   1.382   4.414  0.1539 -0.2292  1.0127
  378MOL0     C49818   9.618   1.266   4.059  0.1449  0.8989 -0.3245
  378MOL0     C49819   9.585   1.253   3.927  0.1624 -1.0353  0.2364
  378MOL0     C49820   9.689   1.236   3.826 -0.0851  1.5859  0.0220
  378MOL0     C49821   9.820   1.216   3.863 -0.0795  0.4908  0.0627
  378MOL0     O49822   9.921   1.165   3.789  0.6914  0.0945  0.0054
  378MOL0     C49823   9.881   1.086   3.672  0.0648  0.4791  0.2901
  378MOL0     C49824   9.979   0.976   3.663  0.7799  0.3310 -0.4135
  378MOL0     C49825  10.126   1.025   3.649 -0.2110 -0.1690  0.8380
  378MOL0     C49826  10.226   0.912   3.599  0.0594  0.0401 -0.7477
  378MOL0     C49827  10.245   0.795   3.690  0.9848 -0.9906 -0.5182
  378MOL0     C49828  10.265   0.694   3.749  0.1078 -0.0150 -0.4017
  378MOL0     C49829   9.852   1.236   3.994 -0.1954  0.1502 -0.4857
  378MOL0     C49830   9.750   1.256   4.091 -0.0902 -0.2978 -0.0778
  378MOL0     H49831   9.577   1.130   4.488  2.1836  1.3210  2.0716
  378MOL0     H49832   9.458   1.162   4.706 -0.0527  0.6852 -0.1081
  378MOL0     H49833   9.338   1.214   4.919 -1.0856  0.1663  1.9861
  378MOL0     H49834   9.243   1.129   4.803  1.5381  0.0931  0.1564
  378MOL0     H49835   9.152   1.335   5.011 -1.4424  0.1974  0.2299
  378MOL0     H49836   9.141   1.163   5.018  3.1402 -0.9860 -1.2505
  378MOL0     H49837   8.995   1.140   4.844  2.1682 -0.1720  2.2049
  378MOL0     H49838   8.998   1.314   4.794 -0.1884 -1.2001 -1.4634
  378MOL0     H49839   8.880   1.216   5.073  1.8012  0.8137  1.5392
  378MOL0     H49840   8.867   1.367   4.991 -1.5135  0.4618 -1.5271
  378MOL0     H49841   8.755   1.127   4.845 -4.3956  0.2715  0.6374
  378MOL0     H49842   8.741   1.298   4.808  0.1983 -2.0295 -3.5528
  378MOL0     H49843   8.623   1.302   5.047 -0.4897 -0.4430  0.4015
  378MOL0     H49844   8.622   1.124   5.023  0.3181 -1.0295 -0.1701
  378MOL0     H49845   8.497   1.354   4.848 -2.0560 -0.4624 -0.6444
  378MOL0     H49846   8.492   1.190   4.793  3.6141  2.7098 -1.4820
  378MOL0     H49847   8.367   1.274   5.060 -0.7089 -2.0182 -0.0521
  378MOL0     H49848   8.346   1.124   4.959  0.8457 -0.5380  2.0165
  378MOL0     H49849   8.196   1.463   5.025 -1.8358 -0.3953  1.5518
  378MOL0     H49850   7.991   1.589   4.919 -0.1386  0.6073 -2.2427
  378MOL0     H49851   7.871   1.464   4.959 -0.5145 -1.5684 -1.2661
  378MOL0     H49852   7.819   1.431   4.720 -1.7939  0.7605 -0.5659
  378MOL0     H49853   7.940   1.560   4.686  0.6968  0.5753  0.0623
  378MOL0     H49854   7.691   1.578   4.867  1.2961 -0.0610  1.6824
  378MOL0     H49855   7.805   1.712   4.819  2.2336 -1.2156 -0.1740
  378MOL0     H49856   7.625   1.549   4.649  3.7372 -1.6461  2.4653
  378MOL0     H49857   7.710   1.687   4.576  0.4919  1.4433  0.7330
  378MOL0     H49858   7.349   1.845   4.788 -1.3017 -2.0431  0.4804
  378MOL0     H49859   7.133   1.842   4.696  0.6041  0.1774  2.2433
  378MOL0     H49860   6.810   1.636   4.387 -1.1460 -1.9105  0.0653
  378MOL0     H49861   6.588   1.697   4.286 -0.3817 -1.1007 -1.6151
  378MOL0     H49862   6.421   1.849   4.202  2.3307 -1.8090  0.4614
  378MOL0     H49863   6.400   1.682   4.163 -1.9119  0.1384 -1.6801
  378MOL0     H49864   6.365   1.898   3.954 -0.4090 -0.7162 -0.3667
  378MOL0     H49865   6.233   1.845   4.064  0.5518 -0.9927  0.5505
  378MOL0     H49866   6.239   1.622   3.999  1.1391  2.1191  2.0076
  378MOL0     H49867   6.352   1.659   3.868  1.1096  1.3643  1.1395
  378MOL0     H49868   6.087   1.789   3.897  2.5003  3.1413  0.2830
  378MOL0     H49869   6.180   1.806   3.757 -0.6725  2.6575  2.0217
  378MOL0     H49870   5.970   1.628   3.800 -0.0695 -2.9731  1.8873
  378MOL0     H49871   6.112   1.519   3.823  0.4367 -0.6899 -1.6255
  378MOL0     H49872   6.142   1.671   3.568  0.7094 -0.2773  0.4113
  378MOL0     H49873   5.992   1.582   3.580  0.2020 -0.3161 -0.8529
  378MOL0     H49874   6.265   1.457   3.639  1.0793  0.7809 -1.3368
  378MOL0     H49875   6.115   1.371   3.604  1.3806 -0.1827  2.1551
  378MOL0     H49876   6.292   1.417   3.406  2.8690  4.1008 -1.0722
  378MOL0     H49877   6.218   1.573   3.404  1.3547 -0.4884 -1.3335
  378MOL0     H49878   6.787   1.847   3.948  0.6384  0.4771 -0.6028
  378MOL0     H49879   7.015   1.829   4.068  0.0422 -3.0166 -2.4270
  378MOL0     H49880   7.313   1.647   4.341 -0.7406  0.2268 -0.2579
  378MOL0     H49881   7.524   1.667   4.448  0.5421  3.8664  0.2274
  378MOL0     H49882   9.217   1.470   4.543  0.4799  2.2542 -0.9244
  378MOL0     H49883   9.343   1.442   4.327 -0.7650 -0.8537  0.8668
  378MOL0     H49884   9.477   1.252   3.915 -0.0514  0.5582  1.7677
  378MOL0     H49885   9.652   1.226   3.725 -3.0518  0.3199  1.1236
  378MOL0     H49886   9.883   1.137   3.575  1.4519  0.5603  0.3416
  378MOL0     H49887   9.783   1.039   3.680 -0.0995  0.4728 -1.3771
  378MOL0     H49888   9.971   0.916   3.754 -0.7071  0.0636 -0.7083
  378MOL0     H49889   9.954   0.910   3.580  1.3221  0.5181 -0.7320
  378MOL0     H49890  10.166   1.071   3.740  3.0637  0.6200 -0.8317
  378MOL0     H49891  10.124   1.111   3.581  2.1480  0.6075  1.6481
  378MOL0     H49892  10.193   0.871   3.503  2.8831  0.0243 -1.8056
  378MOL0     H49893  10.321   0.964   3.585  0.1250  0.0979 -0.1164
  378MOL0     H49894  10.292   0.599   3.792 -3.3836 -1.2881 -0.7563
  378MOL0     H49895   9.957   1.236   4.022  0.1274  0.6422 -1.6122
  378MOL0     H49896   9.783   1.270   4.194  0.1254 -2.3186  0.1766
  379MOL0     O49897   8.832   8.989   2.190  0.0573  0.5699  0.1771
  379MOL0     C49898   8.850   9.061   2.091  0.6539  0.9230  0.1485
  379MOL0     O49899   8.760   9.078   1.984 -0.7307  0.8490  0.3843
  379MOL0     C49900   8.631   9.018   1.968  0.8822 -0.2101 -1.4169
  379MOL0     C49901   8.543   8.987   2.076  0.4769 -0.1865 -0.3948
  379MOL0     C49902   8.416   8.944   2.045 -0.0613  0.5909 -0.0095
  379MOL0     C49903   8.360   8.942   1.915  0.9408 -0.2590  0.1028
  379MOL0     O49904   8.233   8.900   1.894 -0.5697 -0.2039  0.3126
  379MOL0     C49905   8.149   8.846   1.998  1.2969 -0.0573 -0.3431
  379MOL0     C49906   8.016   8.801   1.951  0.2804 -0.3290  0.0098
  379MOL0     C49907   7.911   8.772   2.049  0.4965  0.6481 -1.0333
  379MOL0     C49908   7.781   8.736   1.982 -0.2787 -0.1958 -0.4536
  379MOL0     C49909   7.666   8.709   2.085 -0.2756 -1.4603  0.3465
  379MOL0     C49910   7.525   8.731   2.023 -0.5082  0.6174  0.3025
  379MOL0     C49911   7.406   8.714   2.126  0.5791 -0.1193 -0.6454
  379MOL0     C49912   7.283   8.793   2.076  0.3049 -0.4848 -0.2195
  379MOL0     N49913   7.186   8.789   2.191  0.1906  0.7063 -0.1396
  379MOL0     C49914   7.119   8.680   2.238  0.4240  0.1326 -0.0432
  379MOL0     C49915   7.081   8.725   2.359  0.3353 -0.2560 -0.2320
  379MOL0     C49916   6.988   8.655   2.462  0.1762 -0.4250 -0.3085
  379MOL0     C49917   6.853   8.620   2.396  0.0606  0.4727 -0.0139
  379MOL0     C49918   6.780   8.745   2.346  1.2013 -0.1226 -0.4238
  379MOL0     C49919   6.629   8.720   2.353  1.5038  0.5040  0.2681
  379MOL0     O49920   6.593   8.729   2.489 -0.0393  1.2899  0.7078
  379MOL0     C49921   6.478   8.655   2.529  0.9254  0.2307 -0.5382
  379MOL0     C49922   6.467   8.617   2.660 -0.3529 -0.4033 -0.3642
  379MOL0     C49923   6.347   8.563   2.711  0.5017  0.2483  0.4747
  379MOL0     C49924   6.243   8.542   2.621  0.0569  0.7340 -0.8431
  379MOL0     C49925   6.108   8.479   2.662 -0.6423  0.0553 -1.0168
  379MOL0     O49926   6.027   8.458   2.561 -0.5108 -0.7103  0.4272
  379MOL0     C49927   5.904   8.403   2.579  0.3150 -0.1847  0.0229
  379MOL0     C49928   5.875   8.303   2.672  0.2435 -0.4492 -0.9044
  379MOL0     C49929   5.754   8.243   2.674 -1.3509 -0.1555  0.2338
  379MOL0     C49930   5.658   8.287   2.586 -1.2044  0.0391  0.3088
  379MOL0     O49931   5.529   8.240   2.601  0.3052 -0.5543 -0.8699
  379MOL0     C49932   5.447   8.238   2.487  0.6993  0.3295 -0.0051
  379MOL0     C49933   5.310   8.185   2.533 -0.4211 -0.6194  1.1672
  379MOL0     C49934   5.220   8.229   2.420  0.5551  0.7179 -0.6651
  379MOL0     C49935   5.080   8.164   2.450  0.5468 -0.2980  0.0916
  379MOL0     C49936   4.967   8.230   2.356 -1.3052 -0.1052  0.0575
  379MOL0     C49937   4.933   8.373   2.400  0.2479  0.2258  0.0866
  379MOL0     C49938   4.809   8.427   2.321  0.1294 -0.3622 -0.2568
  379MOL0     C49939   4.757   8.566   2.348  0.6558 -0.1829  1.0711
  379MOL0    Cl49940   4.892   8.684   2.324 -0.1255  0.2377 -0.2703
  379MOL0     C49941   5.689   8.394   2.498  0.9675  0.6532 -0.7699
  379MOL0     C49942   5.814   8.446   2.490 -0.5417 -0.6129  1.3260
  379MOL0     O49943   6.080   8.476   2.785  0.0973  0.5155  0.3334
  379MOL0     C49944   6.267   8.563   2.484  0.4033  0.2028  0.3250
  379MOL0     C49945   6.380   8.621   2.440 -0.3511 -0.2968 -0.5239
  379MOL0     N49946   7.103   8.861   2.373  0.2906 -0.6105  0.0554
  379MOL0     N49947   7.169   8.892   2.272  0.5136 -0.6243  0.4122
  379MOL0     C49948   8.440   8.989   1.808 -0.4677 -1.3040 -0.0277
  379MOL0     C49949   8.576   9.030   1.839 -0.0868 -0.1220 -1.0207
  379MOL0     C49950   8.988   9.134   2.086  0.5552  0.3022  0.2365
  379MOL0     C49951   9.067   9.153   2.203 -0.0829 -0.0642 -0.7134
  379MOL0     C49952   9.189   9.230   2.206 -0.8531  0.0860 -0.1090
  379MOL0     C49953   9.225   9.281   2.083 -0.7985  0.0786  0.6059
  379MOL0     O49954   9.338   9.365   2.085  0.4000 -0.4278 -0.7311
  379MOL0     C49955   9.397   9.401   1.959  0.2223  0.1452 -0.3280
  379MOL0     C49956   9.519   9.476   1.981  0.5704  0.1427 -0.4223
  379MOL0     C49957   9.629   9.404   2.057  0.2081  0.3720  0.6259
  379MOL0     C49958   9.740   9.504   2.064 -0.1027 -0.1695 -0.2315
  379MOL0     C49959   9.823   9.456   2.179  0.4296 -0.2885 -0.7279
  379MOL0     C49960   9.888   9.410   2.269 -0.1710 -0.9195  0.3580
  379MOL0     C49961   9.154   9.260   1.963 -0.1666  0.3732  0.6986
  379MOL0     C49962   9.034   9.191   1.967 -0.2559  0.5689 -1.1112
  379MOL0     H49963   8.573   8.995   2.180  1.2988  0.5052 -0.6746
  379MOL0     H49964   8.352   8.918   2.129  2.2862 -1.5248  1.2686
  379MOL0     H49965   8.127   8.918   2.078 -0.3364  1.1844 -1.8299
  379MOL0     H49966   8.206   8.769   2.050  1.7114  0.9212  0.6866
  379MOL0     H49967   8.035   8.711   1.892  0.1085 -1.4749  1.6617
  379MOL0     H49968   7.965   8.874   1.888 -1.8633 -0.0327  1.9634
  379MOL0     H49969   7.900   8.859   2.115 -1.7284  0.3257 -0.8899
  379MOL0     H49970   7.943   8.692   2.116 -1.3880  1.4568  0.9665
  379MOL0     H49971   7.755   8.818   1.915 -0.5329 -0.6545 -0.9272
  379MOL0     H49972   7.793   8.649   1.916 -0.7355 -0.0526 -0.7308
  379MOL0     H49973   7.666   8.782   2.167  1.4494 -0.0809 -0.8035
  379MOL0     H49974   7.682   8.608   2.124  0.8374 -1.9371 -1.2838
  379MOL0     H49975   7.510   8.684   1.926  2.4590  2.2862 -1.1118
  379MOL0     H49976   7.534   8.837   1.996  1.3255  0.6645  0.9555
  379MOL0     H49977   7.381   8.608   2.128  0.7014 -0.1398 -0.0521
  379MOL0     H49978   7.441   8.740   2.227  1.9442 -0.6356 -0.9642
  379MOL0     H49979   7.236   8.747   1.988  1.5571 -2.5121  0.0990
  379MOL0     H49980   7.316   8.895   2.057 -0.4139  0.5001  3.2814
  379MOL0     H49981   7.098   8.583   2.193 -1.3791 -0.0595  1.0901
  379MOL0     H49982   6.972   8.732   2.539 -0.5421 -0.6353 -0.2358
  379MOL0     H49983   7.040   8.573   2.513 -0.0406  0.5620  1.5835
  379MOL0     H49984   6.791   8.572   2.472 -2.7175 -2.7580 -3.9388
  379MOL0     H49985   6.869   8.551   2.313  5.0592  0.8545  0.2968
  379MOL0     H49986   6.795   8.835   2.405  1.9348 -1.5836  1.7473
  379MOL0     H49987   6.809   8.772   2.244 -1.6433  1.1492 -1.0036
  379MOL0     H49988   6.611   8.627   2.298  1.4141  0.1649  0.8683
  379MOL0     H49989   6.574   8.801   2.303  0.3192 -1.5056 -1.9111
  379MOL0     H49990   6.553   8.638   2.723  1.3170 -1.7368 -2.1025
  379MOL0     H49991   6.332   8.548   2.817  1.9346 -1.7177  0.4529
  379MOL0     H49992   5.948   8.275   2.748  0.2465 -2.3308 -1.5550
  379MOL0     H49993   5.735   8.166   2.749  0.2865 -1.5208 -0.6575
  379MOL0     H49994   5.494   8.162   2.424 -1.1064 -1.0358  0.2136
  379MOL0     H49995   5.455   8.331   2.430 -1.2903  1.5331  1.5729
  379MOL0     H49996   5.275   8.217   2.632  0.6579 -2.3352  2.1574
  379MOL0     H49997   5.316   8.076   2.541 -1.9896 -0.7787  0.5261
  379MOL0     H49998   5.255   8.194   2.322  2.0904 -1.5231  0.5789
  379MOL0     H49999   5.225   8.338   2.424  2.8699  0.6829 -1.2621
  379MOL0     H50000   5.088   8.055   2.439  0.4758 -0.3164  0.2307
  379MOL0     H50001   5.061   8.194   2.553 -1.6565 -2.9515  0.5619
  379MOL0     H50002   4.886   8.156   2.353 -1.6450  0.2924 -2.6111
  379MOL0     H50003   5.004   8.219   2.254 -1.2944  1.8190 -0.1740
  379MOL0     H50004   5.018   8.440   2.385  0.5034  0.0699  0.8280
  379MOL0     H50005   4.916   8.374   2.508 -0.5175  0.5789 -0.0321
  379MOL0     H50006   4.838   8.419   2.216  1.2923 -1.3443  0.1029
  379MOL0     H50007   4.726   8.358   2.335  0.9554 -1.6105 -1.3077
  379MOL0     H50008   4.727   8.572   2.453 -0.2305  1.2325  0.7675
  379MOL0     H50009   4.671   8.586   2.284 -1.3095 -1.2996  3.2121
  379MOL0     H50010   5.617   8.439   2.429 -0.3698  3.4958  2.2034
  379MOL0     H50011   5.829   8.523   2.415  0.6936 -2.0619  0.0319
  379MOL0     H50012   6.192   8.522   2.416  1.8022 -4.2572  1.1000
  379MOL0     H50013   6.385   8.637   2.333  0.0594 -0.5073 -0.5369
  379MOL0     H50014   8.385   8.996   1.715 -2.3398  2.5694  1.1362
  379MOL0     H50015   8.632   9.066   1.754 -2.4019  3.3835 -1.2775
  379MOL0     H50016   9.029   9.104   2.292  0.5473  0.0237 -0.3876
  379MOL0     H50017   9.227   9.257   2.304  1.1930 -3.5951  0.2880
  379MOL0     H50018   9.322   9.456   1.902 -3.1355 -0.7078  2.8822
  379MOL0     H50019   9.424   9.308   1.908  0.0492 -0.3893  0.5307
  379MOL0     H50020   9.547   9.517   1.884  2.0111 -1.0650 -0.5528
  379MOL0     H50021   9.496   9.564   2.042 -2.6659 -0.6297 -0.3268
  379MOL0     H50022   9.660   9.309   2.013  1.1147  0.3961  1.1853
  379MOL0     H50023   9.586   9.383   2.155 -2.2614  1.9316 -0.0334
  379MOL0     H50024   9.810   9.498   1.980  1.9922 -2.2171  1.5144
  379MOL0     H50025   9.718   9.611   2.072  2.4486  0.3115  1.2439
  379MOL0     H50026   9.944   9.374   2.353 -0.9694  1.9347  2.2656
  379MOL0     H50027   9.185   9.296   1.866  2.9751 -4.3947 -0.3982
  379MOL0     H50028   8.974   9.177   1.877 -3.0569 -0.6049  0.7816
  380MOL0     O50029   1.315   6.973   7.311 -0.1914  0.4692 -0.1181
  380MOL0     C50030   1.415   6.947   7.238  0.8692  0.5091  0.2624
  380MOL0     O50031   1.411   6.864   7.131  0.2626 -0.0589  0.2599
  380MOL0     C50032   1.284   6.833   7.073  0.0878  0.2371 -0.8176
  380MOL0     C50033   1.182   6.931   7.073 -0.1565  0.3248 -0.1199
  380MOL0     C50034   1.055   6.909   7.006  0.0299  0.3696  0.2499
  380MOL0     C50035   1.034   6.781   6.949  0.4834  0.1117 -0.6015
  380MOL0     O50036   0.909   6.755   6.902  0.0223  0.4811 -0.0260
  380MOL0     C50037   0.893   6.641   6.812  0.5559  1.0225  0.1447
  380MOL0     C50038   0.763   6.628   6.732  0.3707  0.5034  0.8441
  380MOL0     C50039   0.764   6.496   6.646 -0.7413 -0.8446 -0.6274
  380MOL0     C50040   0.625   6.445   6.615  0.1228  0.0432 -0.3694
  380MOL0     C50041   0.641   6.295   6.555 -1.0733 -0.5173 -0.5460
  380MOL0     C50042   0.519   6.222   6.509  0.3736  0.3389 -0.0904
  380MOL0     C50043   0.559   6.080   6.465  0.2486 -0.3746  0.2223
  380MOL0     C50044   0.438   6.005   6.405 -0.2534 -0.7584  0.7874
  380MOL0     N50045   0.383   6.083   6.293  0.5625  0.2843 -0.0190
  380MOL0     C50046   0.434   6.091   6.164 -0.5439  0.4423  0.2874
  380MOL0     C50047   0.341   6.146   6.086 -0.1596 -1.5886 -0.6252
  380MOL0     C50048   0.352   6.183   5.937 -0.1607  0.1309 -0.7861
  380MOL0     C50049   0.246   6.110   5.853 -0.0510  0.6973 -0.2813
  380MOL0     C50050   0.176   6.202   5.757  0.2866  0.4562  0.5998
  380MOL0     C50051   0.060   6.140   5.677 -0.0191  0.5874  0.2485
  380MOL0     O50052   0.031   6.218   5.562  1.0179 -0.1896 -0.1184
  380MOL0     C50053  -0.034   6.342   5.569  0.5413  1.0422 -0.4778
  380MOL0     C50054  -0.062   6.407   5.443 -0.2776 -0.5701  0.8496
  380MOL0     C50055  -0.124   6.522   5.428 -0.0366  0.9692 -0.4442
  380MOL0     C50056  -0.164   6.593   5.543 -0.2279  0.6205 -0.2371
  380MOL0     C50057  -0.246   6.715   5.537 -0.6312 -0.7470 -0.9612
  380MOL0     O50058  -0.265   6.768   5.421 -0.2578 -0.1805  0.0161
  380MOL0     C50059  -0.349   6.878   5.416 -0.3036  0.0530  0.9220
  380MOL0     C50060  -0.309   7.012   5.464 -0.6253  1.2613 -0.0897
  380MOL0     C50061  -0.394   7.113   5.452  0.1135 -0.2720 -0.5953
  380MOL0     C50062  -0.532   7.100   5.403  0.1097 -0.5976 -0.3522
  380MOL0     O50063  -0.617   7.208   5.392 -0.0300  0.4029  0.2912
  380MOL0     C50064  -0.648   7.282   5.508  0.2897 -1.0417  0.6121
  380MOL0     C50065  -0.720   7.406   5.471 -0.4899  0.0046  0.1956
  380MOL0     C50066  -0.866   7.389   5.422  0.0846 -0.5028 -0.5286
  380MOL0     C50067  -0.900   7.502   5.324 -0.1434 -0.4575 -0.2353
  380MOL0     C50068  -1.040   7.499   5.271  0.2142 -0.5812 -1.1574
  380MOL0     C50069  -1.133   7.612   5.335  1.1545 -0.2263 -0.1178
  380MOL0     C50070  -1.138   7.592   5.483  0.1792 -0.4517  0.1301
  380MOL0     C50071  -1.263   7.656   5.539  0.5409 -0.2925 -0.4269
  380MOL0    Cl50072  -1.290   7.822   5.449  0.1012 -0.0128  0.2845
  380MOL0     C50073  -0.561   6.974   5.353 -0.4082 -0.4869 -0.4203
  380MOL0     C50074  -0.478   6.861   5.357 -0.5940 -0.8820  0.9620
  380MOL0     O50075  -0.272   6.766   5.649  0.7203  0.3364  0.5220
  380MOL0     C50076  -0.134   6.534   5.665  0.1704 -0.5163  0.3399
  380MOL0     C50077  -0.083   6.404   5.679  0.2235  0.6683  0.0348
  380MOL0     N50078   0.231   6.147   6.162  0.7233 -0.0666  0.4701
  380MOL0     N50079   0.252   6.117   6.281 -0.0239  0.4073 -0.0295
  380MOL0     C50080   1.133   6.679   6.968  0.4542 -0.1696 -0.0988
  380MOL0     C50081   1.255   6.706   7.027 -0.0186 -0.4022  0.0339
  380MOL0     C50082   1.543   6.973   7.305  0.4677  0.0042  0.3535
  380MOL0     C50083   1.555   7.068   7.413  0.5665  1.0881  0.1419
  380MOL0     C50084   1.680   7.085   7.472 -0.2095 -0.4125  0.0714
  380MOL0     C50085   1.793   7.011   7.434 -0.1407  0.0512  0.3766
  380MOL0     O50086   1.913   7.038   7.498  0.6885 -0.0695 -0.0955
  380MOL0     C50087   2.042   7.019   7.430  0.2444  0.4292 -0.3215
  380MOL0     C50088   2.102   7.157   7.439  0.1464 -0.1596 -0.3499
  380MOL0     C50089   2.244   7.144   7.379  0.2335 -0.8257  0.1078
  380MOL0     C50090   2.308   7.278   7.340  0.5161 -0.5187  0.2167
  380MOL0     C50091   2.457   7.258   7.347  0.2092  0.0083  0.6626
  380MOL0     C50092   2.580   7.250   7.360  0.7468  0.4100 -0.2984
  380MOL0     C50093   1.772   6.913   7.339 -0.2199  0.5733 -0.3841
  380MOL0     C50094   1.648   6.894   7.277 -0.0744  0.9041  0.3071
  380MOL0     H50095   1.208   7.028   7.115  2.2472 -0.2918 -0.0796
  380MOL0     H50096   0.971   6.976   6.991  0.2926  0.3652 -1.3892
  380MOL0     H50097   0.919   6.556   6.876  1.2019  1.2737  0.2249
  380MOL0     H50098   0.971   6.651   6.736  1.0589 -1.0442  0.3341
  380MOL0     H50099   0.744   6.708   6.660 -0.2618 -0.1081  0.3170
  380MOL0     H50100   0.675   6.630   6.798 -0.7113  0.8084 -0.5723
  380MOL0     H50101   0.807   6.417   6.708  0.1370  0.2461  0.1915
  380MOL0     H50102   0.820   6.502   6.553  1.7224 -1.5940  0.7338
  380MOL0     H50103   0.563   6.444   6.705  2.1827  0.0613  1.1382
  380MOL0     H50104   0.569   6.508   6.545 -2.7332 -1.2214  0.6464
  380MOL0     H50105   0.687   6.232   6.632 -0.6588  1.8068  1.2586
  380MOL0     H50106   0.699   6.317   6.465 -2.6410  0.9635 -1.2536
  380MOL0     H50107   0.467   6.282   6.434  0.4148  0.6057  0.0931
  380MOL0     H50108   0.453   6.215   6.596  0.0685  0.6808 -0.2950
  380MOL0     H50109   0.624   6.101   6.380  0.8533  2.3146  1.2394
  380MOL0     H50110   0.616   6.017   6.535  0.3202  0.5731  1.0467
  380MOL0     H50111   0.358   5.985   6.477 -2.3213 -1.2455 -1.5317
  380MOL0     H50112   0.472   5.906   6.372  1.8432  0.9030 -2.5452
  380MOL0     H50113   0.533   6.059   6.131  0.2651  1.0595  2.0088
  380MOL0     H50114   0.454   6.157   5.909 -0.2880 -0.2451 -0.9061
  380MOL0     H50115   0.341   6.292   5.942  2.4455  0.4027  2.1424
  380MOL0     H50116   0.168   6.065   5.916  2.5818 -0.7400  2.2210
  380MOL0     H50117   0.282   6.028   5.791  1.2699  1.5832 -0.7261
  380MOL0     H50118   0.124   6.283   5.810 -1.8135 -0.2389 -0.2560
  380MOL0     H50119   0.244   6.233   5.677 -1.2549  0.6109 -0.7033
  380MOL0     H50120  -0.031   6.126   5.735  0.4309  0.0632  0.8502
  380MOL0     H50121   0.092   6.043   5.638 -1.0669  0.4662 -0.3213
  380MOL0     H50122  -0.040   6.359   5.348  2.0567  0.1072  0.9895
  380MOL0     H50123  -0.154   6.554   5.328 -3.4020  0.2911  0.2076
  380MOL0     H50124  -0.207   7.016   5.499  0.2464  1.7897 -2.5423
  380MOL0     H50125  -0.357   7.207   5.492  1.2693 -0.8773 -0.2050
  380MOL0     H50126  -0.550   7.318   5.542  2.3886 -1.6182 -4.0221
  380MOL0     H50127  -0.702   7.226   5.585 -1.9170  0.9055  0.5847
  380MOL0     H50128  -0.662   7.443   5.386  4.0207  0.3754  3.1163
  380MOL0     H50129  -0.705   7.483   5.548  0.7391 -1.4411  1.4740
  380MOL0     H50130  -0.931   7.376   5.509 -0.5012 -1.1713 -1.0551
  380MOL0     H50131  -0.885   7.295   5.369 -0.3386 -0.1053 -1.0903
  380MOL0     H50132  -0.886   7.598   5.374  0.0968 -1.7355  2.3075
  380MOL0     H50133  -0.827   7.500   5.243 -1.1408  0.8616 -1.2138
  380MOL0     H50134  -1.091   7.406   5.298  0.6734 -0.8543 -1.2200
  380MOL0     H50135  -1.029   7.510   5.163 -1.5598  3.0885 -1.1159
  380MOL0     H50136  -1.230   7.596   5.285  2.0773  0.1219 -2.1321
  380MOL0     H50137  -1.088   7.709   5.314 -1.0381  1.2436  1.5088
  380MOL0     H50138  -1.144   7.484   5.497 -2.0891 -0.1471  2.1064
  380MOL0     H50139  -1.050   7.616   5.543 -1.5078 -1.8032  3.4114
  380MOL0     H50140  -1.257   7.684   5.645  0.6822  3.3435 -1.2621
  380MOL0     H50141  -1.352   7.595   5.521  0.5855 -0.1472 -1.1661
  380MOL0     H50142  -0.658   6.956   5.308 -0.0937  0.4948 -1.5223
  380MOL0     H50143  -0.496   6.768   5.304  2.6273 -1.2768  0.3432
  380MOL0     H50144  -0.185   6.590   5.744 -0.7039  3.3715 -2.6256
  380MOL0     H50145  -0.088   6.361   5.778 -2.8733 -2.9232 -1.4301
  380MOL0     H50146   1.123   6.579   6.927 -1.4537  0.0485 -0.2757
  380MOL0     H50147   1.337   6.636   7.040 -0.2035 -0.4557  0.9517
  380MOL0     H50148   1.469   7.129   7.441 -1.9495 -1.2549 -1.9277
  380MOL0     H50149   1.692   7.163   7.547  3.2838 -1.9711  1.3577
  380MOL0     H50150   2.033   6.994   7.324  0.8741 -1.1948 -0.0336
  380MOL0     H50151   2.109   6.943   7.472  1.7685  0.4474 -2.5825
  380MOL0     H50152   2.049   7.234   7.381 -0.8250  2.0121  3.0835
  380MOL0     H50153   2.105   7.187   7.545 -0.5492 -0.3034 -0.2810
  380MOL0     H50154   2.238   7.072   7.297  1.6870 -2.4314  1.3267
  380MOL0     H50155   2.305   7.097   7.457  2.9510  1.2917 -0.5921
  380MOL0     H50156   2.277   7.282   7.235  0.0747 -0.4208  0.3526
  380MOL0     H50157   2.257   7.357   7.395 -0.4349  0.6317 -2.1532
  380MOL0     H50158   2.686   7.241   7.369  0.4673 -1.2222  2.4688
  380MOL0     H50159   1.860   6.859   7.306 -1.1815 -0.6033 -1.1329
  380MOL0     H50160   1.645   6.818   7.200  0.8769  1.1299  0.0289
  381MOL0     O50161   4.982   9.517   6.801  0.2659  0.5983 -0.7452
  381MOL0     C50162   5.068   9.517   6.885  0.1393 -0.1203  0.3580
  381MOL0     O50163   5.053   9.564   7.011 -0.3899 -0.0868 -1.0075
  381MOL0     C50164   4.933   9.596   7.068 -0.1335  0.4175 -1.0135
  381MOL0     C50165   4.931   9.699   7.170 -0.4258  0.4792 -0.8855
  381MOL0     C50166   4.812   9.745   7.230 -0.3173  0.3810 -0.0035
  381MOL0     C50167   4.690   9.694   7.173  0.7781  0.5927  0.2456
  381MOL0     O50168   4.567   9.734   7.223 -0.5282 -0.6449  0.1586
  381MOL0     C50169   4.569   9.803   7.349 -0.1348  0.1877 -0.0498
  381MOL0     C50170   4.431   9.839   7.403  0.6097  0.0406  0.3433
  381MOL0     C50171   4.350   9.923   7.293  0.0655  0.0286 -0.2625
  381MOL0     C50172   4.249  10.009   7.373  0.2838  0.2145  0.4592
  381MOL0     C50173   4.158  10.096   7.274 -0.3629 -0.4767  0.7066
  381MOL0     C50174   4.025  10.140   7.341 -0.5058  0.2142  0.0538
  381MOL0     C50175   4.041  10.191   7.478  0.0631 -0.0335 -0.8061
  381MOL0     C50176   4.081  10.337   7.483  0.4986 -0.0655  0.2536
  381MOL0     N50177   4.125  10.392   7.611  0.0738 -0.5258 -0.0375
  381MOL0     C50178   4.244  10.352   7.673 -0.1956  0.4545 -0.4318
  381MOL0     C50179   4.234  10.408   7.789  0.8402  0.0153 -1.4744
  381MOL0     C50180   4.355  10.397   7.885  0.5371  0.4198 -0.3181
  381MOL0     C50181   4.467  10.494   7.880 -0.2600 -0.0772 -0.1783
  381MOL0     C50182   4.576  10.439   7.973 -0.0857  0.0791  0.1115
  381MOL0     C50183   4.687  10.544   7.988  0.2828  0.4588 -0.5501
  381MOL0     O50184   4.797  10.505   8.081  0.4252  0.0415 -1.0316
  381MOL0     C50185   4.904  10.420   8.052  0.5556  0.5707  1.1525
  381MOL0     C50186   5.006  10.386   8.142  1.1144  0.6840 -0.2103
  381MOL0     C50187   5.115  10.305   8.103 -0.5122 -0.2219 -0.0730
  381MOL0     C50188   5.137  10.261   7.973 -0.3047 -0.2305  0.8613
  381MOL0     C50189   5.261  10.183   7.937  0.1794  0.1514  1.0461
  381MOL0     O50190   5.360  10.156   8.036  0.1347 -0.0933 -0.6774
  381MOL0     C50191   5.479  10.120   7.980 -0.9840  0.3290  0.0239
  381MOL0     C50192   5.552  10.011   8.035 -0.3331  0.0010 -0.0857
  381MOL0     C50193   5.679   9.971   7.984 -0.5133  0.2876 -1.1962
  381MOL0     C50194   5.740  10.041   7.885  0.4062  0.1684  0.2572
  381MOL0     O50195   5.864  10.019   7.825 -0.0594 -0.5372 -0.2956
  381MOL0     C50196   5.894   9.884   7.800  0.0277 -0.1669 -0.0130
  381MOL0     C50197   5.977   9.823   7.897  0.3079  0.1390 -0.1002
  381MOL0     C50198   6.120   9.888   7.910  0.0912  0.4269 -0.0278
  381MOL0     C50199   6.213   9.784   7.978 -0.4382 -0.4744 -0.1668
  381MOL0     C50200   6.348   9.843   8.004 -0.3553  0.9155  0.7236
  381MOL0     C50201   6.436   9.845   7.876  0.8428  0.3991 -0.0257
  381MOL0     C50202   6.583   9.842   7.918 -0.1081 -0.3931 -1.5612
  381MOL0     C50203   6.682   9.833   7.808  0.0124 -0.5025 -0.1953
  381MOL0    Cl50204   6.841   9.766   7.844 -0.2925 -0.1695  0.8099
  381MOL0     C50205   5.666  10.144   7.832 -0.8334 -0.0459  0.0485
  381MOL0     C50206   5.543  10.185   7.874  0.6312  0.1884  0.5312
  381MOL0     O50207   5.274  10.152   7.817 -0.1222 -1.0073 -0.0459
  381MOL0     C50208   5.042  10.309   7.877  0.6979  0.3196  0.4077
  381MOL0     C50209   4.923  10.378   7.922 -0.8855  0.0731  0.1260
  381MOL0     N50210   4.112  10.490   7.795 -0.6685 -1.0835  0.0356
  381MOL0     N50211   4.052  10.474   7.684 -0.4172  0.4694 -0.1945
  381MOL0     C50212   4.697   9.582   7.084  0.3611 -0.8513 -0.8294
  381MOL0     C50213   4.813   9.531   7.028 -0.2870 -0.0061 -0.5365
  381MOL0     C50214   5.202   9.484   6.835 -0.6162  0.5272 -0.4261
  381MOL0     C50215   5.303   9.517   6.918 -1.0368  0.5494  0.4575
  381MOL0     C50216   5.428   9.471   6.882 -1.3002  0.1527  1.4197
  381MOL0     C50217   5.464   9.415   6.760  0.8161  0.3797 -0.5712
  381MOL0     O50218   5.593   9.379   6.724 -0.3581 -0.1898  0.0106
  381MOL0     C50219   5.631   9.277   6.627  0.3478  0.4983  0.3292
  381MOL0     C50220   5.779   9.254   6.658 -0.4758  0.5022  0.2369
  381MOL0     C50221   5.854   9.152   6.568 -0.3757 -0.6201 -0.6817
  381MOL0     C50222   5.971   9.105   6.651 -0.5402 -0.4104  1.2532
  381MOL0     C50223   6.039   9.001   6.569  0.5729  0.0835 -0.2853
  381MOL0     C50224   6.090   8.908   6.505  0.2082 -0.2886 -0.7287
  381MOL0     C50225   5.352   9.395   6.671 -0.2001  0.0865  0.1266
  381MOL0     C50226   5.224   9.424   6.710  0.0293  0.6923 -0.1945
  381MOL0     H50227   5.027   9.733   7.210 -1.4263  1.2530  1.0146
  381MOL0     H50228   4.815   9.827   7.301  1.8732  1.1713 -0.8929
  381MOL0     H50229   4.631   9.893   7.345  0.9920 -0.5849 -0.3306
  381MOL0     H50230   4.616   9.744   7.428 -1.2983  0.5364  0.9319
  381MOL0     H50231   4.426   9.895   7.497 -1.9238 -1.2100  1.0409
  381MOL0     H50232   4.376   9.749   7.430  2.9810 -2.0127 -1.2561
  381MOL0     H50233   4.306   9.843   7.233  5.5322 -3.2075 -0.5933
  381MOL0     H50234   4.414   9.984   7.230  0.1718  0.3720  0.1743
  381MOL0     H50235   4.193   9.935   7.430 -0.1993 -0.5108 -0.9156
  381MOL0     H50236   4.298  10.069   7.450  1.7323 -0.2149 -0.0749
  381MOL0     H50237   4.135  10.025   7.193 -0.4565 -2.7715  2.6311
  381MOL0     H50238   4.212  10.186   7.244 -0.2423 -0.1484  1.8892
  381MOL0     H50239   3.952  10.059   7.351 -0.2618 -0.0316 -0.1720
  381MOL0     H50240   3.971  10.222   7.293 -0.0949 -0.0948 -0.9474
  381MOL0     H50241   3.946  10.185   7.531 -0.2822  3.8675 -0.7073
  381MOL0     H50242   4.108  10.126   7.535 -0.5032 -0.0285 -0.1275
  381MOL0     H50243   3.991  10.388   7.446 -0.3153 -1.2493  0.5370
  381MOL0     H50244   4.161  10.334   7.409 -1.7079 -1.7624 -2.2643
  381MOL0     H50245   4.329  10.299   7.633  1.4091  0.9462  2.1499
  381MOL0     H50246   4.399  10.297   7.881  2.2262  1.0993  0.2035
  381MOL0     H50247   4.308  10.401   7.983 -1.2417 -0.5428 -1.0832
  381MOL0     H50248   4.448  10.598   7.909  0.1294  0.3729 -1.4645
  381MOL0     H50249   4.511  10.501   7.781 -1.5330 -0.2406 -0.7736
  381MOL0     H50250   4.533  10.415   8.071 -1.5101 -0.0872 -0.5351
  381MOL0     H50251   4.620  10.347   7.933 -0.1594 -0.8582  2.0775
  381MOL0     H50252   4.672  10.643   8.033 -1.8019 -0.3549  0.6483
  381MOL0     H50253   4.725  10.559   7.886 -1.8506 -0.2844 -1.5129
  381MOL0     H50254   4.994  10.413   8.247 -0.4053  0.9257 -0.4255
  381MOL0     H50255   5.199  10.283   8.169  1.1002 -1.3739 -2.3541
  381MOL0     H50256   5.518   9.955   8.121 -3.1195 -0.0298 -1.0921
  381MOL0     H50257   5.726   9.889   8.038 -0.2067  1.8127  0.9446
  381MOL0     H50258   5.950   9.888   7.706 -1.6879  0.5607 -1.0520
  381MOL0     H50259   5.797   9.839   7.779  0.3664 -1.5937  1.2753
  381MOL0     H50260   5.987   9.718   7.868 -0.5062 -0.2997  1.1209
  381MOL0     H50261   5.942   9.819   8.001  0.8004  1.3170  0.1256
  381MOL0     H50262   6.124   9.978   7.972  1.8042  1.6917 -1.8386
  381MOL0     H50263   6.154   9.913   7.809 -2.6747 -1.8964 -1.6901
  381MOL0     H50264   6.175   9.744   8.073 -1.2501  0.5051 -0.0653
  381MOL0     H50265   6.223   9.702   7.907  0.4875  0.3065 -0.9667
  381MOL0     H50266   6.390   9.783   8.085  1.8997 -0.2986 -1.1979
  381MOL0     H50267   6.353   9.946   8.042  1.9011  0.2813  2.3685
  381MOL0     H50268   6.418   9.936   7.818 -0.9250  0.3385  0.3745
  381MOL0     H50269   6.419   9.760   7.809  2.4373  1.6732 -2.1874
  381MOL0     H50270   6.606   9.933   7.974  4.4581  0.3406 -4.1985
  381MOL0     H50271   6.606   9.757   7.983  1.8425  1.9900  1.0803
  381MOL0     H50272   6.691   9.934   7.767 -1.7252  0.1926  1.0248
  381MOL0     H50273   6.641   9.776   7.724 -0.2648 -1.0644  0.3176
  381MOL0     H50274   5.709  10.204   7.752 -2.1320  3.1494  1.5846
  381MOL0     H50275   5.514  10.273   7.818 -1.2744 -2.9742 -4.0345
  381MOL0     H50276   5.027  10.262   7.781  3.4790 -1.8362  0.8836
  381MOL0     H50277   4.855  10.391   7.839  2.1403  0.4005 -2.4675
  381MOL0     H50278   4.602   9.531   7.069 -0.8858  1.6473 -2.0948
  381MOL0     H50279   4.800   9.444   6.965 -1.0680  1.4343 -2.4557
  381MOL0     H50280   5.281   9.565   7.013 -1.6057 -0.7284  1.0136
  381MOL0     H50281   5.512   9.489   6.948  2.7916 -3.9542 -1.9742
  381MOL0     H50282   5.621   9.304   6.521 -0.2546 -2.2647 -0.3977
  381MOL0     H50283   5.566   9.194   6.657  0.6824  1.2064  3.2558
  381MOL0     H50284   5.826   9.353   6.649  1.0742 -0.3927 -2.4326
  381MOL0     H50285   5.774   9.221   6.762  0.8718 -0.5486 -0.0104
  381MOL0     H50286   5.883   9.203   6.476 -1.0397  1.6529  0.3171
  381MOL0     H50287   5.780   9.073   6.548 -1.1164 -0.3411  0.7771
  381MOL0     H50288   6.043   9.183   6.679  2.2767 -2.5814  0.5649
  381MOL0     H50289   5.930   9.068   6.745 -2.9771  0.6669  0.6850
  381MOL0     H50290   6.132   8.834   6.440 -1.0754 -1.2010 -0.5653
  381MOL0     H50291   5.366   9.355   6.571 -1.9947  0.4405 -0.3045
  381MOL0     H50292   5.142   9.385   6.652 -0.8633 -0.5590  1.7986
  382MOL0     O50293  10.368  10.623   1.200  0.0592  0.3472 -0.3624
  382MOL0     C50294  10.250  10.608   1.154 -0.5413 -0.1789 -0.8107
  382MOL0     O50295  10.208  10.615   1.018 -0.0128 -0.2957 -0.7882
  382MOL0     C50296  10.298  10.636   0.921 -0.1962  0.0858  0.0997
  382MOL0     C50297  10.440  10.619   0.926  0.2609  0.1355 -1.2807
  382MOL0     C50298  10.519  10.649   0.813  0.7129  0.3737 -0.3101
  382MOL0     C50299  10.466  10.685   0.686  0.6746  0.1628 -0.9230
  382MOL0     O50300  10.524  10.724   0.570 -0.4162  0.4788  0.1037
  382MOL0     C50301  10.666  10.732   0.568 -0.7019 -0.4631 -0.2382
  382MOL0     C50302  10.723  10.743   0.431 -0.0536  0.8896  0.8313
  382MOL0     C50303  10.665  10.862   0.359 -0.1182 -0.5368 -0.2742
  382MOL0     C50304  10.733  10.888   0.227  0.0141  0.0706  0.0519
  382MOL0     C50305  10.663  10.996   0.148 -0.0489  0.2490  0.0302
  382MOL0     C50306  10.695  11.136   0.201  0.3696 -1.1827 -0.1975
  382MOL0     C50307  10.623  11.242   0.118 -0.4474 -0.5254  0.2757
  382MOL0     C50308  10.674  11.265  -0.019 -0.2375  0.4337 -0.0393
  382MOL0     N50309  10.620  11.380  -0.086 -0.9732  0.3740  0.1240
  382MOL0     C50310  10.619  11.518  -0.046  0.3401  0.7397  0.1680
  382MOL0     C50311  10.550  11.575  -0.148  1.1409 -0.2563  0.8272
  382MOL0     C50312  10.503  11.716  -0.145 -0.1152 -0.0281 -0.5778
  382MOL0     C50313  10.359  11.741  -0.187  0.2224  0.6249  0.1738
  382MOL0     C50314  10.256  11.678  -0.092 -0.5714  0.0331  0.6211
  382MOL0     C50315  10.108  11.717  -0.131 -0.3404  0.3109 -0.6725
  382MOL0     O50316  10.014  11.623  -0.072  0.2008 -0.2999 -0.8290
  382MOL0     C50317   9.882  11.657  -0.063 -0.2192  0.6444 -0.7655
  382MOL0     C50318   9.802  11.553  -0.006 -0.1338 -0.3028  0.2681
  382MOL0     C50319   9.672  11.581   0.030 -0.0787  0.8160  0.0977
  382MOL0     C50320   9.615  11.712   0.004 -0.1613  0.8560  0.4532
  382MOL0     C50321   9.473  11.738   0.031  0.1625 -0.0966  0.8745
  382MOL0     O50322   9.433  11.864   0.055  0.7050 -0.6984 -0.4180
  382MOL0     C50323   9.297  11.886   0.071  0.4927 -0.0238 -0.3987
  382MOL0     C50324   9.229  11.953  -0.032  0.1427 -1.2239 -0.5850
  382MOL0     C50325   9.089  11.966  -0.029 -1.0219 -0.3517 -0.7541
  382MOL0     C50326   9.023  11.918   0.086 -0.4721 -0.5709 -0.2262
  382MOL0     O50327   8.889  11.922   0.082  0.0307 -0.0994  0.3758
  382MOL0     C50328   8.819  11.933   0.207  0.6711  0.7575  0.4502
  382MOL0     C50329   8.691  12.009   0.177 -0.5511  0.4605 -0.2678
  382MOL0     C50330   8.599  11.998   0.292 -0.2132 -0.2574  0.1188
  382MOL0     C50331   8.471  12.072   0.264  0.0938 -0.6200 -0.4151
  382MOL0     C50332   8.364  12.042   0.366 -0.6361  0.5965 -0.4829
  382MOL0     C50333   8.227  12.076   0.314 -0.5203 -0.0072  0.2955
  382MOL0     C50334   8.120  12.074   0.431 -0.3980  0.6968 -0.0612
  382MOL0     C50335   7.971  12.090   0.385 -0.8386  0.1423 -0.0132
  382MOL0    Cl50336   7.915  11.956   0.273 -0.2273 -0.3651 -0.2970
  382MOL0     C50337   9.094  11.862   0.191  0.1599  0.4491 -1.1890
  382MOL0     C50338   9.237  11.848   0.190 -0.5253  0.4720 -0.1615
  382MOL0     O50339   9.400  11.644   0.032 -0.5021  0.8145 -0.2681
  382MOL0     C50340   9.693  11.809  -0.049  0.6895  0.6015 -0.2841
  382MOL0     C50341   9.827  11.787  -0.084 -0.4860  0.3755 -1.0780
  382MOL0     N50342  10.512  11.483  -0.251  0.3161 -0.3401  0.9289
  382MOL0     N50343  10.556  11.369  -0.204  0.0790 -0.2483  0.9798
  382MOL0     C50344  10.327  10.680   0.681  0.3733  0.1420  0.1483
  382MOL0     C50345  10.242  10.658   0.797 -0.0528  0.0360 -0.2693
  382MOL0     C50346  10.147  10.583   1.260  0.1638 -0.6150  0.2821
  382MOL0     C50347  10.170  10.557   1.401  0.5513 -0.2799 -0.2554
  382MOL0     C50348  10.066  10.541   1.492 -0.8220  0.9553  0.0817
  382MOL0     C50349   9.935  10.546   1.443  0.8312  0.8120  0.1641
  382MOL0     O50350   9.828  10.530   1.534 -0.1718  0.3111  0.2165
  382MOL0     C50351   9.714  10.468   1.491  1.3998  0.5565 -0.0411
  382MOL0     C50352   9.606  10.460   1.598  0.6602 -0.3296 -0.1547
  382MOL0     C50353   9.547  10.607   1.602  0.9516  0.0826 -0.5212
  382MOL0     C50354   9.451  10.635   1.711 -0.3284 -0.0336  0.2954
  382MOL0     C50355   9.322  10.564   1.682 -0.1878 -0.6267 -0.9926
  382MOL0     C50356   9.223  10.499   1.666 -0.1131  0.0517  0.0656
  382MOL0     C50357   9.909  10.565   1.308  0.1875  0.0685  0.5647
  382MOL0     C50358  10.015  10.592   1.216  0.3858 -0.8920 -0.8514
  382MOL0     H50359  10.492  10.583   1.014 -1.6662 -0.6275 -0.4059
  382MOL0     H50360  10.624  10.631   0.834  0.6259 -0.4798 -0.5387
  382MOL0     H50361  10.716  10.652   0.624 -2.2751 -0.1743  1.7045
  382MOL0     H50362  10.685  10.819   0.632 -3.0547 -1.6310  2.2475
  382MOL0     H50363  10.699  10.662   0.362 -1.0043  1.9260 -0.1084
  382MOL0     H50364  10.832  10.747   0.433  0.0302 -0.2246 -0.1495
  382MOL0     H50365  10.654  10.954   0.416  1.6063 -0.6617  0.3239
  382MOL0     H50366  10.560  10.839   0.339  0.4854 -0.6264 -4.1016
  382MOL0     H50367  10.841  10.904   0.228 -0.1732  2.2349 -2.4810
  382MOL0     H50368  10.713  10.790   0.183 -1.2865 -0.7660  2.3388
  382MOL0     H50369  10.554  10.986   0.140  0.0744 -1.3972  0.1001
  382MOL0     H50370  10.701  10.989   0.045  3.2821  0.9696  1.1082
  382MOL0     H50371  10.801  11.160   0.210 -0.4571  2.1495  3.2242
  382MOL0     H50372  10.659  11.145   0.304 -0.2878 -0.2196 -0.4998
  382MOL0     H50373  10.516  11.221   0.111  0.0544 -3.2504 -0.1166
  382MOL0     H50374  10.633  11.336   0.174 -1.7419 -0.8092  1.0270
  382MOL0     H50375  10.666  11.175  -0.081  2.6504 -1.2783  1.8880
  382MOL0     H50376  10.782  11.281  -0.015  0.1367 -1.9035  0.7633
  382MOL0     H50377  10.652  11.570   0.043 -3.9472  1.5655  1.5409
  382MOL0     H50378  10.556  11.780  -0.216  1.5119 -0.1871  0.4512
  382MOL0     H50379  10.504  11.762  -0.046  2.6176 -0.1230 -0.4878
  382MOL0     H50380  10.350  11.704  -0.290 -0.5103 -1.0218  0.7933
  382MOL0     H50381  10.339  11.848  -0.177 -1.9710  0.0764  3.2210
  382MOL0     H50382  10.250  11.569  -0.100  0.5602  0.0089 -0.0617
  382MOL0     H50383  10.279  11.703   0.012 -1.3374 -3.6847  1.8418
  382MOL0     H50384  10.085  11.720  -0.238 -0.5147 -3.3130 -0.8816
  382MOL0     H50385  10.092  11.814  -0.082  1.8231  0.1004  0.5697
  382MOL0     H50386   9.848  11.455   0.000  0.6653 -0.1439 -2.1113
  382MOL0     H50387   9.607  11.503   0.069  0.3327  1.4620  2.2202
  382MOL0     H50388   9.283  11.995  -0.115  0.7167 -0.4911  0.1393
  382MOL0     H50389   9.048  12.016  -0.115 -1.2622  0.8189  0.0252
  382MOL0     H50390   8.867  12.005   0.274 -2.1433  5.4365 -2.0520
  382MOL0     H50391   8.801  11.832   0.246 -0.4604  0.1494 -1.5330
  382MOL0     H50392   8.646  11.965   0.087  0.2030 -2.0290  0.5028
  382MOL0     H50393   8.721  12.112   0.155  3.6190 -0.0926  1.8561
  382MOL0     H50394   8.643  12.033   0.386 -1.1036  2.1049 -0.2745
  382MOL0     H50395   8.569  11.894   0.300  0.3949 -0.4491 -0.0272
  382MOL0     H50396   8.484  12.181   0.267 -0.0821 -0.6076  2.1643
  382MOL0     H50397   8.436  12.039   0.165  2.7960  0.1244 -1.7000
  382MOL0     H50398   8.388  12.099   0.456  0.9661  0.7803 -1.0016
  382MOL0     H50399   8.370  11.934   0.386  0.0912  0.1957 -2.5820
  382MOL0     H50400   8.201  12.000   0.240  0.6457  1.9662 -2.3210
  382MOL0     H50401   8.228  12.177   0.273 -2.6737  0.5937  1.5692
  382MOL0     H50402   8.135  11.985   0.493  1.7772  1.2235  0.2319
  382MOL0     H50403   8.144  12.161   0.494 -2.0302 -0.1671  1.8866
  382MOL0     H50404   7.953  12.189   0.341 -2.2793  0.0722  0.3767
  382MOL0     H50405   7.912  12.082   0.476  3.3336 -1.9794  2.8220
  382MOL0     H50406   9.054  11.832   0.288  2.4139 -0.5320 -0.4782
  382MOL0     H50407   9.291  11.805   0.275  1.7124  2.1135 -0.6835
  382MOL0     H50408   9.655  11.907  -0.079  1.5068  0.4442 -1.9641
  382MOL0     H50409   9.875  11.864  -0.143  3.2526 -3.4432 -3.6469
  382MOL0     H50410  10.279  10.703   0.586  1.1355  0.3728 -0.1900
  382MOL0     H50411  10.135  10.655   0.780 -0.9804 -3.8317  4.1196
  382MOL0     H50412  10.265  10.540   1.452 -0.5703  1.0686  2.4943
  382MOL0     H50413  10.082  10.500   1.591 -3.9879 -3.2025 -0.8236
  382MOL0     H50414   9.743  10.364   1.478  1.7015  0.7982 -1.4014
  382MOL0     H50415   9.667  10.499   1.397 -0.8441 -0.4224  0.6709
  382MOL0     H50416   9.525  10.396   1.561 -0.0278 -0.6125  1.6853
  382MOL0     H50417   9.633  10.427   1.699 -1.8928  0.6051  0.9304
  382MOL0     H50418   9.497  10.630   1.507  2.5231  1.2789 -1.1099
  382MOL0     H50419   9.633  10.672   1.615  0.9451  0.2276 -1.1411
  382MOL0     H50420   9.501  10.603   1.803  1.0329  2.5582  0.5422
  382MOL0     H50421   9.440  10.744   1.712 -2.0603 -0.1346 -1.3945
  382MOL0     H50422   9.128  10.451   1.657 -0.4097  0.8934 -1.5612
  382MOL0     H50423   9.808  10.558   1.268  0.5948  0.4571 -0.5868
  382MOL0     H50424   9.993  10.611   1.111  1.0250 -1.1020 -1.0364
  383MOL0     O50425   9.068   4.103   9.251 -0.3438  0.0006  0.4362
  383MOL0     C50426   9.184   4.113   9.217 -1.0109  0.5242  1.4189
  383MOL0     O50427   9.262   4.223   9.233 -0.2335 -0.2023 -0.3572
  383MOL0     C50428   9.206   4.344   9.262 -0.0403  0.2456 -1.2236
  383MOL0     C50429   9.185   4.386   9.394  0.2936 -0.5950 -0.0886
  383MOL0     C50430   9.139   4.514   9.419  0.2582  0.7917  1.0198
  383MOL0     C50431   9.091   4.594   9.319 -0.0054  0.2747  0.0842
  383MOL0     O50432   9.026   4.709   9.338  0.1060 -0.5912 -0.4579
  383MOL0     C50433   8.894   4.689   9.389  0.7855  1.0570 -1.0192
  383MOL0     C50434   8.799   4.724   9.274 -0.0849  0.7890 -0.6669
  383MOL0     C50435   8.662   4.684   9.313 -0.2531 -0.0128  0.2002
  383MOL0     C50436   8.562   4.703   9.196 -0.8491  0.9997  1.1681
  383MOL0     C50437   8.435   4.634   9.221  0.2555  0.2229 -0.6108
  383MOL0     C50438   8.368   4.672   9.352  0.5743  0.3219  0.4855
  383MOL0     C50439   8.218   4.632   9.357 -0.1408  0.6673 -0.9547
  383MOL0     C50440   8.199   4.482   9.387 -0.1337  0.1554 -0.2755
  383MOL0     N50441   8.058   4.440   9.401  0.4825 -1.0615  0.4724
  383MOL0     C50442   7.953   4.412   9.311  0.9756 -0.4117 -0.1921
  383MOL0     C50443   7.847   4.357   9.373 -0.7978 -0.2138 -0.2164
  383MOL0     C50444   7.715   4.318   9.305  0.1290 -0.9482 -0.3440
  383MOL0     C50445   7.658   4.180   9.362  0.1800 -0.5815  0.5488
  383MOL0     C50446   7.543   4.127   9.267 -0.0594  0.4292 -0.0697
  383MOL0     C50447   7.500   3.977   9.304 -0.4669 -0.2866  0.7440
  383MOL0     O50448   7.382   3.940   9.231 -0.4320 -0.0056  0.5709
  383MOL0     C50449   7.253   3.970   9.282 -0.2589  0.3959 -0.0605
  383MOL0     C50450   7.150   3.931   9.196 -1.2052 -0.0942 -0.6829
  383MOL0     C50451   7.022   3.959   9.222  0.1820 -0.1742 -0.1957
  383MOL0     C50452   6.980   4.018   9.339 -0.2995  0.0877 -0.9744
  383MOL0     C50453   6.834   4.031   9.363  0.1307 -0.2935 -0.7185
  383MOL0     O50454   6.784   4.091   9.489 -0.5560  0.2086 -0.5334
  383MOL0     C50455   6.650   4.103   9.507 -0.6483 -0.7757 -0.2612
  383MOL0     C50456   6.550   4.008   9.476 -0.1229 -0.6252  0.3246
  383MOL0     C50457   6.414   4.044   9.501 -0.0746 -0.2530 -0.1925
  383MOL0     C50458   6.377   4.139   9.589 -0.0385 -0.5029 -0.7968
  383MOL0     O50459   6.245   4.155   9.606 -0.2229  0.3905 -0.8575
  383MOL0     C50460   6.215   4.256   9.700  0.5374 -0.3235  0.4887
  383MOL0     C50461   6.064   4.280   9.696  0.6024  0.6939 -0.0540
  383MOL0     C50462   6.037   4.385   9.785 -0.7853 -0.8084  0.2234
  383MOL0     C50463   5.885   4.413   9.791 -0.3307  0.9569 -0.2420
  383MOL0     C50464   5.779   4.297   9.811 -0.2002 -0.5078  0.5495
  383MOL0     C50465   5.634   4.338   9.774  0.3112 -0.9570  0.8831
  383MOL0     C50466   5.545   4.225   9.748  0.2063 -0.1943  0.3058
  383MOL0     C50467   5.398   4.257   9.696 -0.5387  0.7568  0.1188
  383MOL0    Cl50468   5.331   4.360   9.828  0.1513 -0.0542  0.7654
  383MOL0     C50469   6.485   4.227   9.636  0.0734 -0.0683  0.1754
  383MOL0     C50470   6.617   4.211   9.584  0.8931 -0.2366  0.1829
  383MOL0     O50471   6.756   3.994   9.275 -0.3236  0.1572  0.6342
  383MOL0     C50472   7.086   4.057   9.432 -0.1826 -0.0714 -0.4448
  383MOL0     C50473   7.216   4.034   9.395 -0.5909  0.4759  0.0516
  383MOL0     N50474   7.888   4.353   9.508  0.5536  0.5877 -0.2054
  383MOL0     N50475   8.013   4.391   9.517  0.0181  0.2860  0.1488
  383MOL0     C50476   9.123   4.559   9.190  0.1387 -0.5130  0.9357
  383MOL0     C50477   9.177   4.434   9.158 -0.0311  0.0774 -0.3192
  383MOL0     C50478   9.258   3.986   9.173  0.5626 -0.4167  0.0480
  383MOL0     C50479   9.399   3.976   9.160  0.8766 -0.1366 -0.1886
  383MOL0     C50480   9.453   3.848   9.117  0.0561  0.5355  0.3821
  383MOL0     C50481   9.366   3.737   9.109 -1.0600 -0.4004 -0.2589
  383MOL0     O50482   9.429   3.629   9.065 -0.5602 -0.0973  0.0612
  383MOL0     C50483   9.409   3.615   8.920  0.0400 -0.0409 -0.8374
  383MOL0     C50484   9.407   3.465   8.887 -1.1220  0.3382  0.8058
  383MOL0     C50485   9.273   3.401   8.921 -0.6324  1.5663  0.2737
  383MOL0     C50486   9.277   3.244   8.933  0.5956 -0.6694  0.4226
  383MOL0     C50487   9.355   3.217   9.052 -0.0657  0.6757 -0.1479
  383MOL0     C50488   9.438   3.174   9.134 -0.7446  0.1195  0.7847
  383MOL0     C50489   9.238   3.745   9.121 -0.4222  0.0479  0.3866
  383MOL0     C50490   9.186   3.870   9.149  0.2591  0.3760 -0.2189
  383MOL0     H50491   9.201   4.323   9.482  1.1873  0.6470  0.6634
  383MOL0     H50492   9.130   4.535   9.525  3.8806  2.7104  1.1285
  383MOL0     H50493   8.884   4.768   9.463  3.6460  0.7682 -0.1983
  383MOL0     H50494   8.879   4.590   9.434  0.2485  2.1893  1.4398
  383MOL0     H50495   8.821   4.675   9.178  0.1964  0.0512 -0.2361
  383MOL0     H50496   8.795   4.833   9.261 -1.3288  0.4880 -3.7474
  383MOL0     H50497   8.633   4.734   9.405  1.6951 -0.6710  1.2325
  383MOL0     H50498   8.665   4.577   9.335  1.4404  0.0530  0.4055
  383MOL0     H50499   8.561   4.810   9.173  0.4271  0.3492 -2.6806
  383MOL0     H50500   8.611   4.656   9.110  3.2070  1.9786  2.6680
  383MOL0     H50501   8.440   4.525   9.221  0.0840  0.2057  0.2762
  383MOL0     H50502   8.371   4.654   9.135  0.0426  3.7846  0.2090
  383MOL0     H50503   8.359   4.781   9.362 -1.5618  0.1573  0.9334
  383MOL0     H50504   8.436   4.659   9.436  0.8203  0.8260  0.3716
  383MOL0     H50505   8.162   4.694   9.428  1.4918  2.3241 -1.0241
  383MOL0     H50506   8.161   4.657   9.267 -2.8220  2.1698  0.9951
  383MOL0     H50507   8.248   4.455   9.481  0.4120 -0.6553 -0.7859
  383MOL0     H50508   8.244   4.430   9.303  1.9481  2.9213 -1.0206
  383MOL0     H50509   7.945   4.436   9.205 -0.0369  0.4377  0.0624
  383MOL0     H50510   7.736   4.313   9.198 -1.3628 -0.1205 -0.7071
  383MOL0     H50511   7.639   4.396   9.314  2.0879  1.0445 -0.3208
  383MOL0     H50512   7.612   4.193   9.461 -1.4269 -0.3899 -0.1922
  383MOL0     H50513   7.727   4.096   9.360 -0.3373 -1.0103  0.5295
  383MOL0     H50514   7.456   4.193   9.268  1.1700  2.1180 -0.1151
  383MOL0     H50515   7.582   4.136   9.165  3.6630  3.3211  1.3396
  383MOL0     H50516   7.494   3.964   9.413 -0.8691  1.6067  0.9845
  383MOL0     H50517   7.589   3.918   9.279  0.9397  1.4638  1.3793
  383MOL0     H50518   7.175   3.884   9.101 -1.1388 -0.5928 -0.4254
  383MOL0     H50519   6.953   3.951   9.139  0.8984 -1.3677 -0.6986
  383MOL0     H50520   6.581   3.923   9.416  1.0818 -0.3609  0.5470
  383MOL0     H50521   6.323   3.994   9.469 -1.4958  0.4913  2.4502
  383MOL0     H50522   6.263   4.346   9.662  0.4456 -0.8725 -0.9857
  383MOL0     H50523   6.260   4.234   9.797 -1.6645  0.3782  1.7454
  383MOL0     H50524   6.030   4.182   9.733  0.3076  0.7082 -0.2760
  383MOL0     H50525   6.016   4.296   9.599  0.0569  2.1908  0.4369
  383MOL0     H50526   6.101   4.472   9.765 -1.4709 -0.5618 -0.9920
  383MOL0     H50527   6.069   4.347   9.883  0.7229 -1.2714 -0.4179
  383MOL0     H50528   5.861   4.481   9.873 -1.9183 -0.0652  0.1863
  383MOL0     H50529   5.858   4.455   9.694  1.3895 -0.6439 -1.4832
  383MOL0     H50530   5.786   4.258   9.913  0.0028  0.6966  1.0149
  383MOL0     H50531   5.805   4.212   9.747  0.9439  0.7055 -0.6427
  383MOL0     H50532   5.637   4.406   9.688 -1.7885  0.8021  2.1028
  383MOL0     H50533   5.593   4.404   9.851 -1.1382  0.5718 -1.1158
  383MOL0     H50534   5.579   4.159   9.667  2.1666  2.1618 -0.9673
  383MOL0     H50535   5.551   4.156   9.832  0.3496 -3.4348 -2.1408
  383MOL0     H50536   5.339   4.165   9.703 -2.4204  1.8865 -0.1232
  383MOL0     H50537   5.394   4.310   9.600 -0.9666  0.6132  0.0567
  383MOL0     H50538   6.471   4.307   9.707  2.4019  2.8495 -2.3579
  383MOL0     H50539   6.695   4.279   9.616  2.5918 -0.9384 -2.1431
  383MOL0     H50540   7.060   4.108   9.525 -0.6819 -0.9581 -0.0874
  383MOL0     H50541   7.297   4.069   9.458 -0.1384  1.4566 -1.0277
  383MOL0     H50542   9.094   4.627   9.111 -0.5878 -1.9072 -0.0271
  383MOL0     H50543   9.212   4.403   9.060 -3.5778 -4.5009 -0.4307
  383MOL0     H50544   9.468   4.058   9.176 -0.9718  2.0323 -2.5041
  383MOL0     H50545   9.559   3.822   9.111  0.5892  2.8525 -3.3138
  383MOL0     H50546   9.494   3.663   8.870 -2.0109  3.2723 -1.4857
  383MOL0     H50547   9.311   3.654   8.890 -0.3592  0.5115  1.0134
  383MOL0     H50548   9.421   3.460   8.778 -2.4341 -1.9829  0.6777
  383MOL0     H50549   9.491   3.415   8.937 -1.6702 -0.2117  1.1911
  383MOL0     H50550   9.207   3.424   8.837 -0.1750  0.1200 -0.5277
  383MOL0     H50551   9.228   3.439   9.014 -2.6537 -3.4850  1.7632
  383MOL0     H50552   9.174   3.211   8.946  0.7575 -0.9855  0.9346
  383MOL0     H50553   9.323   3.195   8.846 -1.2564  2.2025 -2.3790
  383MOL0     H50554   9.517   3.134   9.194  0.2501  0.4830 -0.2352
  383MOL0     H50555   9.171   3.663   9.098  2.8340 -2.6193 -0.3943
  383MOL0     H50556   9.078   3.863   9.139  0.1224  0.7321  0.8484
  384MOL0     O50557   1.516   5.442   9.240 -1.0638 -0.3044  0.2087
  384MOL0     C50558   1.613   5.369   9.213 -0.0780 -0.2722  0.1203
  384MOL0     O50559   1.733   5.385   9.269  0.1043  0.3602  0.1731
  384MOL0     C50560   1.749   5.459   9.390 -0.1018  1.3417 -0.0799
  384MOL0     C50561   1.876   5.517   9.415 -0.0081 -0.5578 -0.9210
  384MOL0     C50562   1.908   5.562   9.541  0.1036 -0.0836 -0.6299
  384MOL0     C50563   1.818   5.571   9.644  0.5586  0.0606  0.3035
  384MOL0     O50564   1.844   5.611   9.766 -0.0408 -0.9274  0.3404
  384MOL0     C50565   1.923   5.736   9.774 -0.3596  0.2512 -0.1386
  384MOL0     C50566   1.899   5.812   9.906  0.8435  0.3130  0.0814
  384MOL0     C50567   1.952   5.956   9.907 -0.6035 -0.0693 -0.3608
  384MOL0     C50568   1.954   6.038  10.045  0.6746  0.8419  0.0546
  384MOL0     C50569   1.999   6.185  10.028 -0.4310 -0.1576  0.0128
  384MOL0     C50570   1.992   6.252  10.167 -0.5141 -0.0154 -0.1133
  384MOL0     C50571   2.079   6.375  10.154  0.0909  0.8532 -0.4993
  384MOL0     C50572   2.034   6.487  10.235  0.5156  0.3907 -0.1191
  384MOL0     N50573   2.015   6.456  10.373 -0.3506 -0.2171 -1.0772
  384MOL0     C50574   2.083   6.521  10.473  0.3671 -0.9440  0.9061
  384MOL0     C50575   2.009   6.500  10.581  0.0934  1.1896  0.3492
  384MOL0     C50576   2.028   6.554  10.724 -0.2011  0.0429 -0.0856
  384MOL0     C50577   1.914   6.660  10.773  0.6350  0.6771  0.4747
  384MOL0     C50578   1.925   6.685  10.923  0.2021  0.7261  0.4856
  384MOL0     C50579   1.829   6.804  10.951  0.4855 -0.4727 -0.6401
  384MOL0     O50580   1.826   6.907  10.853  0.6220  0.2610 -0.4060
  384MOL0     C50581   1.920   7.008  10.866 -0.6840  0.4646 -1.1094
  384MOL0     C50582   1.889   7.121  10.801 -0.2346  0.0311 -0.4083
  384MOL0     C50583   1.974   7.225  10.797  0.0867 -0.2431  0.2665
  384MOL0     C50584   2.095   7.231  10.869 -0.3376  0.2271 -0.8022
  384MOL0     C50585   2.182   7.349  10.857 -0.7988  0.6468 -0.2905
  384MOL0     O50586   2.181   7.422  10.733  0.1029 -0.4831 -0.0338
  384MOL0     C50587   2.261   7.533  10.734 -0.6193 -0.3796  0.2657
  384MOL0     C50588   2.402   7.535  10.711 -0.0674  0.8227 -0.2178
  384MOL0     C50589   2.478   7.649  10.686  0.0925 -0.2411  0.2323
  384MOL0     C50590   2.416   7.779  10.697  0.4058  0.1245  0.2085
  384MOL0     O50591   2.477   7.904  10.695 -0.2839  0.7472 -0.0662
  384MOL0     C50592   2.585   7.910  10.603  0.7654 -0.0792 -0.4708
  384MOL0     C50593   2.659   8.051  10.619  0.6903  0.6895 -0.0061
  384MOL0     C50594   2.771   8.049  10.522 -0.8053 -0.0191  0.8581
  384MOL0     C50595   2.888   7.947  10.526 -0.5469 -0.0204  0.3482
  384MOL0     C50596   2.994   8.009  10.443  0.5580  0.2380  0.1176
  384MOL0     C50597   3.102   7.902  10.417 -0.5845  0.5257  0.1588
  384MOL0     C50598   3.209   7.898  10.528 -0.1887  0.0018 -0.0957
  384MOL0     C50599   3.279   7.759  10.538  0.6221  0.0699  0.8516
  384MOL0    Cl50600   3.384   7.756  10.397  0.7981  0.0954  0.2484
  384MOL0     C50601   2.278   7.783  10.715  1.0699  0.0613  0.0412
  384MOL0     C50602   2.197   7.664  10.735 -0.2830 -0.4121 -0.3048
  384MOL0     O50603   2.258   7.361  10.959 -0.2885 -0.5090  0.2144
  384MOL0     C50604   2.123   7.120  10.951  0.3662 -0.1979  0.3941
  384MOL0     C50605   2.037   7.004  10.945 -0.2396 -0.5051  0.2638
  384MOL0     N50606   1.890   6.429  10.546 -0.5393 -0.2536  0.8525
  384MOL0     N50607   1.899   6.408  10.421 -0.4737 -0.2013  0.3388
  384MOL0     C50608   1.696   5.512   9.618  0.5736  0.0047 -1.6458
  384MOL0     C50609   1.659   5.456   9.497  0.0277 -0.3695  0.0018
  384MOL0     C50610   1.593   5.250   9.135 -0.5600 -0.1061  0.6363
  384MOL0     C50611   1.465   5.209   9.102  0.3526 -0.2491  0.4303
  384MOL0     C50612   1.449   5.098   9.018 -0.3713 -0.1758  0.6077
  384MOL0     C50613   1.559   5.019   8.981 -0.5897 -0.1799  0.4536
  384MOL0     O50614   1.552   4.907   8.897  1.3586 -0.3981 -0.0843
  384MOL0     C50615   1.429   4.862   8.842  0.7187  0.1893  0.3011
  384MOL0     C50616   1.340   4.777   8.942 -0.0096 -0.1724 -0.4347
  384MOL0     C50617   1.418   4.682   9.035  0.0975 -0.2137  0.9030
  384MOL0     C50618   1.484   4.557   8.976  0.5354  0.0759  0.5305
  384MOL0     C50619   1.393   4.492   8.875 -0.1468 -0.8575 -0.5651
  384MOL0     C50620   1.339   4.411   8.800 -1.4326 -0.2449 -0.8205
  384MOL0     C50621   1.682   5.057   9.020  0.3045  0.7691 -0.0068
  384MOL0     C50622   1.702   5.172   9.096 -0.7712  0.0198 -0.6731
  384MOL0     H50623   1.957   5.513   9.343  1.2863 -0.7930  0.5047
  384MOL0     H50624   2.006   5.598   9.570 -0.2049  0.3743 -0.1117
  384MOL0     H50625   1.904   5.793   9.682 -1.1812 -3.4815 -2.4830
  384MOL0     H50626   2.029   5.709   9.780 -0.3059  0.5779  0.4389
  384MOL0     H50627   1.964   5.755   9.974  0.9476 -1.7463 -1.6364
  384MOL0     H50628   1.793   5.812   9.931  0.7184  2.9566 -0.1677
  384MOL0     H50629   1.895   6.004   9.826 -1.1910 -3.7771 -2.3461
  384MOL0     H50630   2.055   5.945   9.873 -0.4818  0.5517 -0.1997
  384MOL0     H50631   1.860   6.030  10.099 -0.0183  1.5971 -0.9974
  384MOL0     H50632   2.023   5.984  10.111 -0.4732 -1.5077 -0.5469
  384MOL0     H50633   1.942   6.238   9.951 -2.7073  0.5503  2.0503
  384MOL0     H50634   2.101   6.178   9.991 -0.7945 -0.9151 -0.8740
  384MOL0     H50635   2.041   6.182  10.236  2.1627  0.1784 -1.6798
  384MOL0     H50636   1.891   6.276  10.201  0.3525  2.4811  0.9393
  384MOL0     H50637   2.185   6.355  10.176 -0.4632  0.1172  1.7598
  384MOL0     H50638   2.084   6.403  10.049  0.1341  1.0107 -0.4560
  384MOL0     H50639   1.948   6.537  10.188  1.9026  1.6732 -1.3807
  384MOL0     H50640   2.112   6.562  10.218  1.2841 -0.5251 -0.7113
  384MOL0     H50641   2.176   6.576  10.465 -0.3401 -0.0658 -2.8018
  384MOL0     H50642   2.122   6.607  10.743  0.3581  0.1944 -2.8551
  384MOL0     H50643   2.027   6.464  10.785 -1.1153 -0.8159 -1.3214
  384MOL0     H50644   1.814   6.619  10.756  1.1766 -1.0101  1.2045
  384MOL0     H50645   1.925   6.747  10.706  1.1510  1.0059  0.9771
  384MOL0     H50646   1.900   6.597  10.983  1.5054  0.5263  0.7574
  384MOL0     H50647   2.028   6.713  10.948  0.0737 -0.8312  3.2143
  384MOL0     H50648   1.871   6.843  11.044 -1.0873  4.4475 -1.7055
  384MOL0     H50649   1.727   6.767  10.960 -0.1888  0.3889 -3.6236
  384MOL0     H50650   1.796   7.119  10.745  0.1224 -1.9673 -0.9876
  384MOL0     H50651   1.942   7.306  10.732  0.2669 -2.8572 -3.3813
  384MOL0     H50652   2.457   7.442  10.700 -1.4616  0.0423 -0.8753
  384MOL0     H50653   2.585   7.639  10.674  0.8736  1.6066  4.0839
  384MOL0     H50654   2.556   7.905  10.497 -0.2269  2.6780 -0.3999
  384MOL0     H50655   2.654   7.827  10.620  0.6517  0.2760  1.9505
  384MOL0     H50656   2.688   8.071  10.722  1.9413 -2.4974  0.3773
  384MOL0     H50657   2.585   8.122  10.581 -2.7236 -0.0484  4.4344
  384MOL0     H50658   2.811   8.151  10.529  2.5513 -1.2595  1.7939
  384MOL0     H50659   2.741   8.055  10.417  2.8306  3.9880 -0.2765
  384MOL0     H50660   2.922   7.924  10.628  1.4791 -0.4266 -0.3645
  384MOL0     H50661   2.845   7.857  10.480  0.1446 -0.3390  0.3046
  384MOL0     H50662   3.041   8.094  10.493 -0.4722  1.5502 -1.0821
  384MOL0     H50663   2.959   8.044  10.345  2.5099 -0.6713 -0.9708
  384MOL0     H50664   3.157   7.933  10.328 -0.4438 -2.6917 -1.0046
  384MOL0     H50665   3.054   7.810  10.382  1.8220 -1.2347  1.2189
  384MOL0     H50666   3.268   7.989  10.515 -0.7505  0.3364 -0.3643
  384MOL0     H50667   3.158   7.907  10.624  2.2032 -1.5705  1.4319
  384MOL0     H50668   3.210   7.675  10.529 -0.8523  1.2800  0.5434
  384MOL0     H50669   3.334   7.764  10.633  0.7600  1.0393  0.7274
  384MOL0     H50670   2.233   7.882  10.715  3.9929  1.5546 -2.2469
  384MOL0     H50671   2.092   7.693  10.743  0.1633  1.1351  0.2700
  384MOL0     H50672   2.215   7.121  11.010  2.1747  0.6290 -2.2372
  384MOL0     H50673   2.053   6.915  11.006 -4.0219 -0.7726  1.0870
  384MOL0     H50674   1.630   5.510   9.705 -0.2719  0.6026 -2.2574
  384MOL0     H50675   1.563   5.410   9.473 -0.1201  0.5525 -1.3141
  384MOL0     H50676   1.380   5.269   9.133  2.0712  1.2127  2.6213
  384MOL0     H50677   1.347   5.082   8.982 -0.1335 -2.6443  0.8715
  384MOL0     H50678   1.461   4.787   8.769  1.0039 -0.8055  1.4147
  384MOL0     H50679   1.369   4.941   8.796 -0.8712 -0.7235  0.7208
  384MOL0     H50680   1.282   4.851   8.999  3.0322  1.3663  0.9011
  384MOL0     H50681   1.274   4.722   8.874  1.0084 -0.1197 -1.4908
  384MOL0     H50682   1.347   4.638   9.105 -0.4477  3.2348  2.7178
  384MOL0     H50683   1.486   4.741   9.096  1.6638 -0.2176 -0.7444
  384MOL0     H50684   1.574   4.594   8.927  0.4178 -0.4298 -0.0808
  384MOL0     H50685   1.513   4.483   9.052  0.1655  1.1175  1.7247
  384MOL0     H50686   1.302   4.339   8.730 -1.3096 -1.7358  0.5686
  384MOL0     H50687   1.765   4.994   8.990 -0.6453 -0.0421 -1.0144
  384MOL0     H50688   1.798   5.190   9.142 -0.9214  0.7504 -0.6434
  385MOL0     O50689   9.657   7.764   9.543 -0.0889 -0.7023 -0.2436
  385MOL0     C50690   9.623   7.658   9.485 -0.1370 -0.0318  0.5968
  385MOL0     O50691   9.512   7.584   9.520  0.1603 -0.1952 -0.2938
  385MOL0     C50692   9.417   7.644   9.599 -0.4127 -0.1058  1.1759
  385MOL0     C50693   9.377   7.779   9.593 -0.2424  0.4091  0.0131
  385MOL0     C50694   9.266   7.819   9.667  0.5943 -0.3372 -0.2430
  385MOL0     C50695   9.192   7.723   9.728 -0.0030 -0.9249 -0.6416
  385MOL0     O50696   9.090   7.771   9.800  0.0918 -0.1875 -0.4511
  385MOL0     C50697   8.957   7.712   9.769  0.0496 -0.3315  0.1349
  385MOL0     C50698   8.855   7.784   9.842  0.0019 -0.0948 -0.5081
  385MOL0     C50699   8.709   7.725   9.810  0.0430  0.3661 -0.0842
  385MOL0     C50700   8.595   7.795   9.884 -0.5711 -0.2572  0.4858
  385MOL0     C50701   8.463   7.720   9.884 -0.4817 -0.3246 -0.4134
  385MOL0     C50702   8.346   7.784   9.949 -0.5271 -0.0912 -0.4774
  385MOL0     C50703   8.330   7.929   9.898  0.0274 -0.0090  0.3935
  385MOL0     C50704   8.183   7.992   9.918 -0.0409  0.5183  0.1382
  385MOL0     N50705   8.085   7.931   9.826  0.0579  0.4246  0.0320
  385MOL0     C50706   8.093   7.902   9.688  0.1643  0.1816 -0.2157
  385MOL0     C50707   7.963   7.907   9.641  0.7034  0.0010 -1.1233
  385MOL0     C50708   7.924   7.874   9.498  0.5516 -0.4214 -0.2588
  385MOL0     C50709   7.793   7.949   9.474 -0.3419  0.2094 -0.2392
  385MOL0     C50710   7.719   7.912   9.342  0.1808  0.4583  0.1044
  385MOL0     C50711   7.808   7.897   9.215 -0.1391 -0.3851 -0.2061
  385MOL0     O50712   7.740   7.919   9.090 -0.5186  0.8523 -0.7033
  385MOL0     C50713   7.688   8.047   9.071  0.0766 -0.3034  0.7793
  385MOL0     C50714   7.548   8.058   9.065 -0.4198 -0.0407  0.5942
  385MOL0     C50715   7.487   8.185   9.048  0.1578 -0.3666  0.3956
  385MOL0     C50716   7.567   8.301   9.046 -0.0879 -0.4363  0.2153
  385MOL0     C50717   7.507   8.440   9.033  0.4692 -0.3214 -0.9951
  385MOL0     O50718   7.385   8.441   9.081 -0.0796 -0.1721 -0.2529
  385MOL0     C50719   7.323   8.561   9.118  0.2373 -0.6750  0.4815
  385MOL0     C50720   7.193   8.581   9.083 -0.7272 -0.2107  0.1945
  385MOL0     C50721   7.113   8.692   9.114 -0.3555  0.8487  0.1936
  385MOL0     C50722   7.177   8.797   9.181 -0.1193  0.0285 -0.0547
  385MOL0     O50723   7.095   8.902   9.211  0.2690 -0.4461  0.0301
  385MOL0     C50724   7.154   9.014   9.280  0.4348  0.2807 -0.8561
  385MOL0     C50725   7.056   9.127   9.293  0.0154  0.0382 -0.6684
  385MOL0     C50726   7.116   9.263   9.339  0.3814 -0.3338  0.9774
  385MOL0     C50727   7.017   9.380   9.322 -0.4703  0.0319 -0.9992
  385MOL0     C50728   6.910   9.375   9.434 -0.5994 -0.1930  0.8073
  385MOL0     C50729   6.800   9.478   9.432  0.7355  0.1816  0.2659
  385MOL0     C50730   6.701   9.466   9.551 -0.2131  0.0566  0.0938
  385MOL0     C50731   6.696   9.573   9.660  1.2647 -0.6876  0.2268
  385MOL0    Cl50732   6.858   9.598   9.716 -0.5039 -0.3946  0.3297
  385MOL0     C50733   7.317   8.792   9.201  0.3935 -0.2759  0.1123
  385MOL0     C50734   7.382   8.673   9.177  0.0724  0.5172  0.2416
  385MOL0     O50735   7.570   8.543   9.006 -0.0813 -0.7902 -0.0984
  385MOL0     C50736   7.709   8.286   9.044 -0.2506 -0.4980  0.4226
  385MOL0     C50737   7.772   8.164   9.050  0.5905 -0.1931 -0.3975
  385MOL0     N50738   7.881   7.940   9.749  0.9788  0.7691  0.0959
  385MOL0     N50739   7.953   7.945   9.858  0.1804  0.0636  0.1866
  385MOL0     C50740   9.225   7.590   9.731  1.4314  0.5668 -0.5149
  385MOL0     C50741   9.343   7.556   9.669 -0.0122  0.3659  0.4858
  385MOL0     C50742   9.721   7.601   9.388 -0.4047 -0.7216  0.9788
  385MOL0     C50743   9.825   7.687   9.340 -0.3295 -0.1492  0.3958
  385MOL0     C50744   9.904   7.655   9.230  0.0925  0.7822  0.2829
  385MOL0     C50745   9.891   7.530   9.165  0.9065  0.0389 -0.3943
  385MOL0     O50746   9.982   7.499   9.071  0.0943  0.4743  0.3945
  385MOL0     C50747   9.951   7.385   8.984  0.6804 -1.1781 -0.2184
  385MOL0     C50748  10.071   7.344   8.907  0.2635  0.1063 -0.0749
  385MOL0     C50749  10.179   7.301   8.995 -0.6928  0.8649  0.8155
  385MOL0     C50750  10.313   7.287   8.924 -0.1076  0.0073 -0.3930
  385MOL0     C50751  10.302   7.182   8.822 -0.0654  0.2611 -0.1626
  385MOL0     C50752  10.294   7.104   8.733 -1.4092  0.6122 -0.0062
  385MOL0     C50753   9.784   7.442   9.219 -0.8779 -0.4734 -0.5031
  385MOL0     C50754   9.703   7.480   9.333 -0.2064  0.1219  0.0298
  385MOL0     H50755   9.434   7.850   9.533  1.3397 -2.4965 -2.1671
  385MOL0     H50756   9.234   7.921   9.683 -3.9114 -1.5750  0.0050
  385MOL0     H50757   8.965   7.611   9.811  1.5566  0.6144  2.3622
  385MOL0     H50758   8.927   7.714   9.664 -0.9264  0.9450  0.4173
  385MOL0     H50759   8.856   7.887   9.803  3.7096 -1.4315 -4.8187
  385MOL0     H50760   8.882   7.785   9.948 -0.2945  0.8271 -0.4263
  385MOL0     H50761   8.702   7.617   9.824 -0.5075  0.6703  2.6050
  385MOL0     H50762   8.700   7.739   9.702 -0.6170 -0.6205 -0.1699
  385MOL0     H50763   8.623   7.802   9.990 -0.8640 -1.4902  0.6635
  385MOL0     H50764   8.581   7.895   9.843 -1.7156 -1.4774 -2.3433
  385MOL0     H50765   8.496   7.627   9.931 -0.2862 -0.4522 -0.7988
  385MOL0     H50766   8.444   7.691   9.780  4.9631  1.3732 -2.2278
  385MOL0     H50767   8.353   7.787  10.058  0.8447  1.3070 -0.5710
  385MOL0     H50768   8.253   7.730   9.925 -1.5276  1.2384  0.2430
  385MOL0     H50769   8.405   7.985   9.955  0.6908  1.5466 -1.8992
  385MOL0     H50770   8.365   7.937   9.795  0.3338 -0.2930  0.4746
  385MOL0     H50771   8.194   8.097   9.889 -2.4140  1.1564  1.3455
  385MOL0     H50772   8.143   7.997  10.020 -0.8735  3.7995 -0.2449
  385MOL0     H50773   8.177   7.883   9.621 -0.6053 -1.2990 -0.7971
  385MOL0     H50774   7.919   7.766   9.480  1.3948 -0.4392 -0.4341
  385MOL0     H50775   8.002   7.922   9.439  1.1468 -0.2304  0.6595
  385MOL0     H50776   7.818   8.056   9.480 -0.7322  0.2322  2.4420
  385MOL0     H50777   7.710   7.935   9.544 -3.1670 -0.1048 -3.3630
  385MOL0     H50778   7.676   7.814   9.364  3.9077 -1.4497 -0.2706
  385MOL0     H50779   7.648   7.993   9.322 -1.3767 -1.5001 -3.0204
  385MOL0     H50780   7.854   7.798   9.220 -0.2816 -0.8502 -4.2520
  385MOL0     H50781   7.886   7.973   9.212 -0.0032 -0.5518 -1.3635
  385MOL0     H50782   7.483   7.975   9.088 -0.3819  0.0679  1.1030
  385MOL0     H50783   7.379   8.196   9.045  0.0252 -1.4040  0.9557
  385MOL0     H50784   7.148   8.491   9.043 -1.1126 -0.8788  2.0509
  385MOL0     H50785   7.010   8.686   9.083 -0.7399 -1.3272  1.6352
  385MOL0     H50786   7.247   9.048   9.232  2.0868 -0.4682  1.6280
  385MOL0     H50787   7.177   8.982   9.382 -2.1541 -1.3482 -0.7149
  385MOL0     H50788   6.994   9.096   9.377  1.4729  0.7686  0.7470
  385MOL0     H50789   6.991   9.144   9.206 -4.1832  2.2967  2.5081
  385MOL0     H50790   7.195   9.288   9.267  0.0370  3.4748  1.7090
  385MOL0     H50791   7.162   9.249   9.438  3.1532 -1.6210 -0.3657
  385MOL0     H50792   7.082   9.467   9.337  1.2064 -1.0900 -1.5272
  385MOL0     H50793   6.971   9.384   9.223 -2.0092  1.5475 -0.2909
  385MOL0     H50794   6.969   9.378   9.526  1.9006 -0.3129 -0.6966
  385MOL0     H50795   6.858   9.278   9.431 -1.8807  0.4523  1.2983
  385MOL0     H50796   6.749   9.472   9.335  1.4272  0.5544 -0.1283
  385MOL0     H50797   6.845   9.577   9.435 -1.7068  1.3630  0.3808
  385MOL0     H50798   6.609   9.464   9.493  1.6881  0.4272 -3.2243
  385MOL0     H50799   6.726   9.370   9.596  2.3072  1.4254  1.9069
  385MOL0     H50800   6.618   9.539   9.728 -2.6691  2.0023 -2.4903
  385MOL0     H50801   6.650   9.663   9.618  0.7776 -1.0821 -0.1045
  385MOL0     H50802   7.377   8.874   9.240 -0.5191  0.4613  0.0152
  385MOL0     H50803   7.487   8.658   9.201 -0.3945 -0.4765  1.8117
  385MOL0     H50804   7.769   8.375   9.024  0.6715 -0.9685  1.0191
  385MOL0     H50805   7.880   8.160   9.048  0.6705 -1.7343  2.4685
  385MOL0     H50806   9.163   7.510   9.769  2.4735 -0.5375 -1.0566
  385MOL0     H50807   9.378   7.453   9.668 -1.2979 -0.2320 -3.8397
  385MOL0     H50808   9.838   7.785   9.385 -4.9514  0.8995 -0.0477
  385MOL0     H50809   9.979   7.727   9.199  0.7714 -0.2264 -0.4896
  385MOL0     H50810   9.868   7.414   8.919 -0.3897 -0.6462  1.3383
  385MOL0     H50811   9.911   7.300   9.039  0.4085 -0.3046  0.9739
  385MOL0     H50812  10.048   7.247   8.861 -0.5460 -1.2802  3.0395
  385MOL0     H50813  10.109   7.415   8.833  0.3439  1.8117  1.5322
  385MOL0     H50814  10.149   7.203   9.032  1.4085  0.7794  2.4592
  385MOL0     H50815  10.189   7.367   9.082 -1.9522 -0.0923  1.7190
  385MOL0     H50816  10.344   7.379   8.873 -0.9001 -0.2331 -1.3314
  385MOL0     H50817  10.389   7.258   8.997  0.3047 -1.7952 -1.4831
  385MOL0     H50818  10.279   7.025   8.661  1.6683 -0.5536  0.4665
  385MOL0     H50819   9.770   7.344   9.176 -1.3673 -1.5629  1.9293
  385MOL0     H50820   9.619   7.415   9.354 -0.3178 -0.3415 -1.6777
  386MOL0     O50821   5.995   5.997   5.909 -0.1282 -0.2683  0.3106
  386MOL0     C50822   6.062   5.958   6.008  0.6425  0.6374  0.0696
  386MOL0     O50823   6.005   5.906   6.123  0.2363  0.2117 -0.2729
  386MOL0     C50824   5.866   5.909   6.138 -0.4293  1.3509  0.3429
  386MOL0     C50825   5.797   5.801   6.074  0.2707 -0.4300  0.1889
  386MOL0     C50826   5.662   5.797   6.083  0.6812 -0.0065  0.2895
  386MOL0     C50827   5.595   5.901   6.148 -0.2302 -0.1540  0.2221
  386MOL0     O50828   5.458   5.886   6.150  0.1070  0.1937 -0.4738
  386MOL0     C50829   5.391   5.969   6.246  0.8621  0.7437 -0.6048
  386MOL0     C50830   5.240   5.953   6.230 -0.1157 -0.6452  0.3127
  386MOL0     C50831   5.201   5.958   6.076  0.0178 -0.1716 -1.3851
  386MOL0     C50832   5.057   6.001   6.056 -0.1412  0.0409 -0.0378
  386MOL0     C50833   5.011   5.975   5.908 -0.2116  0.2955 -0.0662
  386MOL0     C50834   4.864   5.989   5.898 -0.6940 -0.2773  0.2849
  386MOL0     C50835   4.814   5.995   5.752  1.2580 -0.2293  0.1467
  386MOL0     C50836   4.819   5.855   5.694 -0.3574 -0.9982  0.4739
  386MOL0     N50837   4.814   5.872   5.546 -0.0587  0.3941  0.5233
  386MOL0     C50838   4.933   5.868   5.468  0.0451 -0.3994  0.6754
  386MOL0     C50839   4.883   5.923   5.356 -0.5622 -0.6258  0.8744
  386MOL0     C50840   4.970   5.971   5.241 -0.0460 -0.3930 -0.0978
  386MOL0     C50841   5.024   5.851   5.153 -0.0180 -0.1195 -0.0987
  386MOL0     C50842   5.097   5.897   5.027  0.4155  0.1352 -0.1723
  386MOL0     C50843   5.160   5.779   4.955  0.2100  0.0343  0.3211
  386MOL0     O50844   5.215   5.826   4.835  0.3123  0.3017 -0.5508
  386MOL0     C50845   5.352   5.859   4.826 -0.1579 -1.1243  0.0860
  386MOL0     C50846   5.410   5.888   4.704 -0.3091  0.2598  0.5889
  386MOL0     C50847   5.552   5.903   4.697 -1.1634  1.0925 -0.2071
  386MOL0     C50848   5.631   5.915   4.816  0.5671 -0.5276 -0.3483
  386MOL0     C50849   5.773   5.940   4.807 -0.0730 -0.3179  0.0875
  386MOL0     O50850   5.839   5.982   4.914  0.0312 -0.2824  0.1139
  386MOL0     C50851   5.977   5.992   4.917 -0.0524 -0.3164 -0.9413
  386MOL0     C50852   6.033   5.965   5.045 -0.7655 -0.7907  0.2557
  386MOL0     C50853   6.173   5.986   5.057  0.8629  0.2151  0.2858
  386MOL0     C50854   6.258   6.022   4.954  0.5885 -0.1801  0.5702
  386MOL0     O50855   6.393   6.046   4.971 -0.4786 -0.5628 -0.6810
  386MOL0     C50856   6.452   5.966   5.070  0.7535 -0.0152  0.7226
  386MOL0     C50857   6.610   5.981   5.058 -0.1463  0.0824 -0.0847
  386MOL0     C50858   6.656   6.128   5.066 -0.4372 -0.1038 -0.5554
  386MOL0     C50859   6.791   6.145   5.131  0.2334  0.0053  0.1812
  386MOL0     C50860   6.899   6.093   5.039 -0.1364  0.2162 -0.3502
  386MOL0     C50861   7.051   6.141   5.058 -0.6420 -0.3537 -0.1820
  386MOL0     C50862   7.055   6.264   5.165  0.2276 -0.2884 -0.1328
  386MOL0     C50863   7.201   6.320   5.177 -0.8106  0.0836 -0.5396
  386MOL0    Cl50864   7.265   6.401   5.023  0.4164  0.1732 -0.4323
  386MOL0     C50865   6.192   6.065   4.835  0.2355  0.3670  0.5933
  386MOL0     C50866   6.055   6.044   4.819 -0.6311 -0.1731 -0.5142
  386MOL0     O50867   5.824   5.915   4.701 -0.1939  0.0724 -0.8944
  386MOL0     C50868   5.558   5.909   4.935 -0.7882 -0.2287 -0.0368
  386MOL0     C50869   5.427   5.881   4.943 -0.0205  0.3951 -0.8404
  386MOL0     N50870   4.740   5.938   5.362  0.0704  0.3357  0.8296
  386MOL0     N50871   4.703   5.902   5.478 -0.5810 -0.8506 -0.1777
  386MOL0     C50872   5.662   6.020   6.190  0.0832  1.5078 -0.3566
  386MOL0     C50873   5.802   6.021   6.186 -0.8469  0.1405  0.6816
  386MOL0     C50874   6.203   5.988   6.015  0.4632  0.0781 -0.8204
  386MOL0     C50875   6.283   5.900   6.087 -0.1783 -0.5902  0.3898
  386MOL0     C50876   6.424   5.925   6.099 -0.4448 -1.0611  1.0627
  386MOL0     C50877   6.487   6.029   6.039  0.0274  0.6960 -0.2570
  386MOL0     O50878   6.626   6.038   6.053  0.0548  0.1158  0.2322
  386MOL0     C50879   6.696   6.149   5.999 -0.2388  0.5141  0.1381
  386MOL0     C50880   6.838   6.171   6.035 -0.6392  0.3094 -0.3853
  386MOL0     C50881   6.944   6.065   5.992  0.1790 -0.4764  0.0618
  386MOL0     C50882   7.087   6.122   6.012 -0.3510 -0.0088 -0.0563
  386MOL0     C50883   7.174   6.050   5.920 -0.5285 -0.5049  0.0700
  386MOL0     C50884   7.240   5.998   5.839 -0.7784  0.6357  0.4230
  386MOL0     C50885   6.403   6.123   5.970 -0.0937 -0.1922 -0.4959
  386MOL0     C50886   6.260   6.106   5.959  0.1051 -0.4042  0.8226
  386MOL0     H50887   5.852   5.723   6.023 -2.8488 -1.7797 -1.3767
  386MOL0     H50888   5.602   5.712   6.050 -1.8616  2.2073 -1.1565
  386MOL0     H50889   5.405   6.073   6.218 -0.1824  0.9868 -0.2654
  386MOL0     H50890   5.423   5.950   6.349 -0.7442  0.1372 -0.1913
  386MOL0     H50891   5.185   6.027   6.288  1.4536 -0.3857  1.5517
  386MOL0     H50892   5.217   5.852   6.266 -1.9649  0.1410  1.4802
  386MOL0     H50893   5.220   5.859   6.035 -1.1307  0.1177 -2.7050
  386MOL0     H50894   5.266   6.030   6.025 -0.0440  0.3425 -0.7605
  386MOL0     H50895   4.995   5.943   6.126  1.7898 -1.4443  0.5494
  386MOL0     H50896   5.029   6.104   6.078 -2.1242 -0.6379  0.9026
  386MOL0     H50897   5.023   5.868   5.890 -2.4553 -0.1051  0.4970
  386MOL0     H50898   5.071   6.033   5.837  1.5436  1.5132  2.2357
  386MOL0     H50899   4.833   6.080   5.952 -1.2915 -0.7142  0.6931
  386MOL0     H50900   4.816   5.908   5.953 -0.6263  0.3242  1.2628
  386MOL0     H50901   4.712   6.032   5.740  1.1148 -1.2051 -2.1619
  386MOL0     H50902   4.880   6.060   5.693  1.8285 -1.1765 -0.2725
  386MOL0     H50903   4.735   5.802   5.740 -1.7683 -0.2027 -1.0676
  386MOL0     H50904   4.914   5.809   5.722 -0.6247 -1.8302  0.0562
  386MOL0     H50905   5.033   5.850   5.508 -1.2495 -2.6211  3.3293
  386MOL0     H50906   5.056   6.028   5.278  1.5965 -3.0107  0.3883
  386MOL0     H50907   4.908   6.034   5.177  0.9773 -0.2420 -0.9802
  386MOL0     H50908   4.942   5.787   5.119 -1.6165  2.6622 -1.8881
  386MOL0     H50909   5.089   5.786   5.212  0.8984 -1.1114 -2.0968
  386MOL0     H50910   5.029   5.948   4.958  0.6591  0.8928  0.1416
  386MOL0     H50911   5.165   5.977   5.057  0.4078  0.5448 -1.1814
  386MOL0     H50912   5.094   5.695   4.933  0.6419 -0.2842  0.2196
  386MOL0     H50913   5.239   5.733   5.015  2.2822  1.1460 -1.4057
  386MOL0     H50914   5.356   5.880   4.610 -0.3011  0.5958  0.5552
  386MOL0     H50915   5.604   5.895   4.602  0.2752 -0.3411  0.6600
  386MOL0     H50916   5.966   5.923   5.120 -3.9077 -0.4178 -2.1571
  386MOL0     H50917   6.218   5.968   5.154  5.3653  2.3616 -1.1543
  386MOL0     H50918   6.441   5.859   5.050  0.1314 -0.6399  3.9188
  386MOL0     H50919   6.423   6.003   5.168 -0.6194  2.5494 -0.5500
  386MOL0     H50920   6.634   5.950   4.956 -2.6309  4.8859 -2.4729
  386MOL0     H50921   6.657   5.919   5.135 -0.7854 -1.1452 -0.6564
  386MOL0     H50922   6.594   6.177   5.141  0.9085 -2.7404  2.5045
  386MOL0     H50923   6.648   6.168   4.964 -3.0939 -1.7105 -1.0834
  386MOL0     H50924   6.797   6.253   5.151  0.4422  0.6149 -2.7544
  386MOL0     H50925   6.795   6.089   5.225 -0.1129  1.3295  1.0253
  386MOL0     H50926   6.873   6.117   4.936  0.1079 -2.4525 -1.1107
  386MOL0     H50927   6.889   5.984   5.050  0.0989  0.3369  1.3292
  386MOL0     H50928   7.102   6.165   4.964 -3.3170 -0.3334 -1.7145
  386MOL0     H50929   7.118   6.066   5.100  0.2799  0.9722  0.8193
  386MOL0     H50930   6.998   6.356   5.147  1.3646 -0.0210 -3.0238
  386MOL0     H50931   7.026   6.217   5.259 -1.3197  0.2828 -0.3068
  386MOL0     H50932   7.271   6.244   5.212 -0.2931  1.1195  0.7476
  386MOL0     H50933   7.203   6.396   5.255 -1.3276 -1.9846  1.6013
  386MOL0     H50934   6.250   6.116   4.759 -1.2109  0.3792 -0.5455
  386MOL0     H50935   6.019   6.068   4.719 -1.4919 -0.3215 -0.2498
  386MOL0     H50936   5.617   5.938   5.021 -0.4710  1.0066 -0.6428
  386MOL0     H50937   5.395   5.864   5.045  1.3046 -0.9528 -0.6162
  386MOL0     H50938   5.607   6.102   6.234  0.2307  2.6060 -2.1515
  386MOL0     H50939   5.846   6.112   6.228 -1.4357  0.6361  0.2319
  386MOL0     H50940   6.249   5.804   6.124  2.2475 -2.0179 -0.8207
  386MOL0     H50941   6.483   5.846   6.145 -0.3810 -1.9599 -0.4771
  386MOL0     H50942   6.638   6.233   6.037  0.8302  0.6596  1.5331
  386MOL0     H50943   6.681   6.153   5.890 -0.1892  0.8357  0.1435
  386MOL0     H50944   6.862   6.267   5.988  2.5720 -0.3684 -0.3659
  386MOL0     H50945   6.848   6.170   6.143 -1.4354 -1.3606 -0.2941
  386MOL0     H50946   6.927   6.045   5.885  0.0850 -1.2756  0.2214
  386MOL0     H50947   6.931   5.976   6.054  0.2034 -0.1397  0.5497
  386MOL0     H50948   7.090   6.226   5.978  0.8342  0.1812  0.5901
  386MOL0     H50949   7.124   6.115   6.114  2.9337  0.3892 -1.1137
  386MOL0     H50950   7.306   5.956   5.766  1.7805 -2.7529  4.2585
  386MOL0     H50951   6.438   6.216   5.926  1.3898 -1.2425 -1.6517
  386MOL0     H50952   6.200   6.174   5.900  1.3756 -1.0527 -1.3161
  387MOL0     O50953   5.079   4.081   2.333 -0.3558  0.0788 -0.3061
  387MOL0     C50954   5.028   3.997   2.402  0.0647 -0.1737 -0.0564
  387MOL0     O50955   4.895   3.993   2.445 -0.0559  0.3117 -0.3248
  387MOL0     C50956   4.801   4.090   2.443 -0.5145 -0.6627  0.7265
  387MOL0     C50957   4.835   4.229   2.440 -0.3178  0.9181  0.1638
  387MOL0     C50958   4.726   4.325   2.433 -0.0463 -0.0497 -0.6256
  387MOL0     C50959   4.589   4.284   2.421 -1.5709 -0.6439 -0.5161
  387MOL0     O50960   4.479   4.366   2.396  0.8509 -0.2339  0.5717
  387MOL0     C50961   4.518   4.475   2.308  0.2981 -1.0423 -0.8944
  387MOL0     C50962   4.394   4.540   2.259  0.5219  0.3258 -1.1503
  387MOL0     C50963   4.296   4.436   2.201  0.3742 -0.8494 -0.5725
  387MOL0     C50964   4.171   4.512   2.168 -0.1876 -0.0978  0.4187
  387MOL0     C50965   4.179   4.627   2.067 -0.1779 -0.2162 -0.2612
  387MOL0     C50966   4.031   4.675   2.048 -0.1902 -0.1075  0.5911
  387MOL0     C50967   4.012   4.787   1.932 -0.6635 -0.2711 -0.0397
  387MOL0     C50968   3.869   4.836   1.966  0.1245 -0.2149  0.2251
  387MOL0     N50969   3.797   4.873   1.845  0.5557  0.1724 -0.0810
  387MOL0     C50970   3.697   4.962   1.844 -0.7184  0.9192 -0.2417
  387MOL0     C50971   3.651   4.976   1.719 -1.1423 -0.5342  0.4006
  387MOL0     C50972   3.536   5.057   1.679 -0.0216 -0.8113 -0.3434
  387MOL0     C50973   3.568   5.153   1.563  0.2434 -0.1049 -0.2786
  387MOL0     C50974   3.511   5.102   1.432  0.4421  0.1388 -0.5692
  387MOL0     C50975   3.362   5.103   1.425  0.3314  0.0755  0.4833
  387MOL0     O50976   3.307   5.085   1.289 -0.6012  0.6293  0.5051
  387MOL0     C50977   3.194   5.014   1.273 -0.7093  0.3979  0.0463
  387MOL0     C50978   3.083   5.020   1.354 -0.1218  0.0623 -0.7001
  387MOL0     C50979   2.963   4.970   1.321 -0.6140 -0.1645 -0.3897
  387MOL0     C50980   2.940   4.909   1.198  0.3818 -1.2492 -0.4066
  387MOL0     C50981   2.809   4.870   1.155  0.5796 -0.0415  0.6935
  387MOL0     O50982   2.794   4.851   1.017 -0.0175  0.2027 -0.6127
  387MOL0     C50983   2.671   4.802   0.966 -0.2140  0.5858 -1.3654
  387MOL0     C50984   2.679   4.679   0.890  0.0881 -0.6754 -0.1599
  387MOL0     C50985   2.559   4.636   0.839 -0.1658 -0.6979  0.4261
  387MOL0     C50986   2.440   4.710   0.838 -0.6310  0.4374  0.9457
  387MOL0     O50987   2.333   4.658   0.774 -0.4885  0.3323  0.4393
  387MOL0     C50988   2.204   4.708   0.813 -0.9878  0.3744 -0.0050
  387MOL0     C50989   2.091   4.610   0.777  0.6012  0.3545 -1.0752
  387MOL0     C50990   1.955   4.650   0.842 -0.4994  0.1590  0.2993
  387MOL0     C50991   1.837   4.576   0.778 -0.5003  0.5100  0.3947
  387MOL0     C50992   1.703   4.631   0.795  0.0592 -0.1092  0.4845
  387MOL0     C50993   1.610   4.537   0.729  1.0164  0.2938 -0.4478
  387MOL0     C50994   1.455   4.577   0.763  0.0580 -0.0574 -0.9760
  387MOL0     C50995   1.348   4.477   0.713  0.8434  0.6196  0.0600
  387MOL0    Cl50996   1.195   4.564   0.724 -0.1780 -0.0822  0.1147
  387MOL0     C50997   2.436   4.833   0.904  0.8286 -0.5264 -0.2443
  387MOL0     C50998   2.551   4.875   0.968 -0.5714 -0.4490  0.1191
  387MOL0     O50999   2.719   4.861   1.233 -0.5400 -0.4188  0.7755
  387MOL0     C51000   3.052   4.885   1.117 -0.2753 -0.4055  0.4267
  387MOL0     C51001   3.176   4.943   1.160  0.1640  1.2449  0.3348
  387MOL0     N51002   3.723   4.887   1.641 -0.6658  0.1481 -0.0644
  387MOL0     N51003   3.808   4.829   1.722  0.0788  0.2132 -0.8164
  387MOL0     C51004   4.564   4.146   2.421 -0.3450 -0.6430 -0.5319
  387MOL0     C51005   4.667   4.052   2.435 -0.1370  0.4236 -0.0595
  387MOL0     C51006   5.109   3.879   2.441  1.0524 -0.0941  0.2011
  387MOL0     C51007   5.039   3.761   2.489  0.3800 -0.8108  1.0698
  387MOL0     C51008   5.115   3.649   2.522  0.2432  0.5268  0.2865
  387MOL0     C51009   5.257   3.650   2.517 -0.4244 -0.0379  0.5568
  387MOL0     O51010   5.311   3.528   2.566 -0.0707 -0.5758 -0.0881
  387MOL0     C51011   5.447   3.483   2.557 -0.2775  0.6353 -0.7880
  387MOL0     C51012   5.532   3.542   2.666 -0.8588 -0.0435  0.8619
  387MOL0     C51013   5.666   3.466   2.680  0.1102 -0.8657 -0.4353
  387MOL0     C51014   5.746   3.437   2.553 -0.1619 -0.2620  0.2647
  387MOL0     C51015   5.804   3.556   2.502 -0.5635 -0.4641 -0.2794
  387MOL0     C51016   5.839   3.658   2.445  0.9709 -0.3158  0.2742
  387MOL0     C51017   5.325   3.767   2.466  0.2427  0.5503 -0.2235
  387MOL0     C51018   5.256   3.880   2.425  0.5107 -0.0634  0.0642
  387MOL0     H51019   4.939   4.261   2.450 -0.3996  1.5667 -0.9516
  387MOL0     H51020   4.757   4.429   2.427  2.5796 -0.7863 -1.0245
  387MOL0     H51021   4.581   4.444   2.225  1.5103  0.5499 -0.6112
  387MOL0     H51022   4.575   4.550   2.364 -2.0004  0.3293 -0.2479
  387MOL0     H51023   4.427   4.605   2.178 -1.6756  3.3455  0.1791
  387MOL0     H51024   4.347   4.598   2.340  1.2282  0.4103 -0.7935
  387MOL0     H51025   4.260   4.354   2.265 -2.7382  1.2451  0.5548
  387MOL0     H51026   4.343   4.393   2.112 -0.4428  0.0438 -1.4427
  387MOL0     H51027   4.108   4.433   2.125  1.2211 -2.4006  2.3194
  387MOL0     H51028   4.125   4.545   2.261  0.3950 -2.1582  1.4980
  387MOL0     H51029   4.235   4.600   1.978 -1.9701 -0.5872 -1.3368
  387MOL0     H51030   4.223   4.712   2.120 -0.8162  0.2495 -0.4567
  387MOL0     H51031   3.994   4.712   2.143 -0.5126  1.0361  0.0365
  387MOL0     H51032   3.967   4.587   2.030  0.5980 -0.2053 -2.3784
  387MOL0     H51033   4.082   4.871   1.932  0.0530 -0.8475 -1.0304
  387MOL0     H51034   4.027   4.743   1.832  0.4699  1.8708 -0.8847
  387MOL0     H51035   3.884   4.924   2.029  0.7451  0.1572 -0.4288
  387MOL0     H51036   3.815   4.765   2.029 -0.1170  1.2155  1.7027
  387MOL0     H51037   3.653   5.017   1.927  0.5030  2.6809 -0.7015
  387MOL0     H51038   3.507   5.114   1.768  2.5112 -3.0580  2.0964
  387MOL0     H51039   3.456   4.988   1.650  1.0022 -0.5431 -4.4059
  387MOL0     H51040   3.675   5.172   1.553  0.2327  1.1059  1.5127
  387MOL0     H51041   3.539   5.256   1.588  3.1017  1.7645 -3.6655
  387MOL0     H51042   3.543   5.165   1.348 -1.3278 -0.5599 -1.8156
  387MOL0     H51043   3.548   5.001   1.413  3.0962  0.2090  3.0636
  387MOL0     H51044   3.319   5.199   1.457  0.3383  0.2444 -0.0118
  387MOL0     H51045   3.320   5.025   1.490 -1.1990 -0.2873 -0.8792
  387MOL0     H51046   3.093   5.066   1.451 -1.2115 -3.1235  1.0702
  387MOL0     H51047   2.879   4.976   1.389  0.8555  0.9548  1.4051
  387MOL0     H51048   2.775   4.628   0.881  0.2871 -0.5231  0.9443
  387MOL0     H51049   2.557   4.542   0.785 -1.0285 -0.1645 -0.5296
  387MOL0     H51050   2.189   4.802   0.760  0.1362  0.9441  0.6364
  387MOL0     H51051   2.218   4.723   0.920  5.3561  2.6978 -0.7266
  387MOL0     H51052   2.111   4.504   0.799 -1.7411  0.0315 -0.3117
  387MOL0     H51053   2.073   4.611   0.669  3.4583 -0.3333 -1.6640
  387MOL0     H51054   1.945   4.759   0.833 -2.3776  0.0151  0.1667
  387MOL0     H51055   1.945   4.631   0.949 -1.1207 -2.2838 -0.1259
  387MOL0     H51056   1.855   4.564   0.671 -0.8065 -0.3090  0.4289
  387MOL0     H51057   1.849   4.471   0.805  0.3183  0.0618 -1.5663
  387MOL0     H51058   1.717   4.729   0.748  1.4817 -0.2119  0.6424
  387MOL0     H51059   1.674   4.647   0.899 -2.0945  3.1547 -0.4676
  387MOL0     H51060   1.634   4.437   0.766  0.3920  1.5861  4.1547
  387MOL0     H51061   1.625   4.544   0.621 -1.1503 -0.5467 -0.8573
  387MOL0     H51062   1.431   4.577   0.870 -2.4467  0.7768 -1.4595
  387MOL0     H51063   1.445   4.679   0.724 -0.3995 -0.0450 -0.8316
  387MOL0     H51064   1.348   4.386   0.774  0.5188 -0.5154 -1.5652
  387MOL0     H51065   1.371   4.441   0.613  0.7743  2.7398 -0.7788
  387MOL0     H51066   2.357   4.906   0.890  0.9767 -0.6231 -1.7221
  387MOL0     H51067   2.556   4.975   1.010  0.2213 -1.1028  1.6433
  387MOL0     H51068   3.045   4.824   1.028 -0.1116  2.2455 -1.5412
  387MOL0     H51069   3.263   4.917   1.100 -0.9050  0.4698 -0.9485
  387MOL0     H51070   4.460   4.122   2.401 -0.7067  1.5093 -1.6003
  387MOL0     H51071   4.657   3.943   2.437  0.6255  0.3535  0.5454
  387MOL0     H51072   4.932   3.749   2.503 -0.2003  3.1327  1.2930
  387MOL0     H51073   5.065   3.557   2.550 -2.2686  0.7518 -2.8663
  387MOL0     H51074   5.488   3.516   2.461  0.1912  1.2974 -0.3668
  387MOL0     H51075   5.441   3.376   2.581 -0.5656  1.0172  0.9769
  387MOL0     H51076   5.548   3.648   2.644 -4.4502  0.4270 -0.0626
  387MOL0     H51077   5.485   3.541   2.764  0.2446 -5.0323  1.6079
  387MOL0     H51078   5.642   3.376   2.737 -1.1921  1.5248  3.1717
  387MOL0     H51079   5.732   3.527   2.743 -0.6384  1.3844 -1.7158
  387MOL0     H51080   5.834   3.375   2.574  1.9118  1.6001 -2.1863
  387MOL0     H51081   5.682   3.393   2.476  0.5172  1.0076 -1.0952
  387MOL0     H51082   5.861   3.748   2.392  0.6668 -1.8822 -2.7013
  387MOL0     H51083   5.433   3.771   2.465  0.2442  2.8474  1.6386
  387MOL0     H51084   5.309   3.968   2.390 -0.6490 -0.3294 -2.5765
  388MOL0     O51085   8.106   0.012   3.140 -0.3199  0.1358 -0.0313
  388MOL0     C51086   8.050   0.059   3.241  0.3703 -0.4100 -0.4273
  388MOL0     O51087   7.917   0.041   3.267  0.0226  0.0217  0.5495
  388MOL0     C51088   7.853  -0.047   3.191  1.0261  0.6430  0.0015
  388MOL0     C51089   7.788  -0.005   3.078 -0.0580  0.3450 -0.6402
  388MOL0     C51090   7.721  -0.098   2.994  0.1857  0.4802  0.2722
  388MOL0     C51091   7.699  -0.228   3.029 -0.2162 -0.0677 -0.2174
  388MOL0     O51092   7.606  -0.301   2.954 -0.2040 -0.3938  0.7294
  388MOL0     C51093   7.532  -0.415   3.014 -1.0417 -1.6686 -0.7907
  388MOL0     C51094   7.403  -0.424   2.928  0.0143  0.4142 -0.6702
  388MOL0     C51095   7.315  -0.551   2.973  0.9141 -0.9716 -0.1713
  388MOL0     C51096   7.165  -0.526   2.940  0.5409  0.0955  0.0721
  388MOL0     C51097   7.082  -0.661   2.974 -0.6370  0.1468 -0.5460
  388MOL0     C51098   6.934  -0.635   2.970 -0.4560 -0.0171 -0.6713
  388MOL0     C51099   6.846  -0.761   2.986  0.1115 -0.4027  0.1131
  388MOL0     C51100   6.704  -0.719   2.947 -0.1756 -0.1828  0.9098
  388MOL0     N51101   6.603  -0.828   2.945  0.3746 -0.2598 -0.4896
  388MOL0     C51102   6.499  -0.826   2.862 -0.2041  1.1080  0.7092
  388MOL0     C51103   6.402  -0.890   2.941 -0.6730 -0.1155 -0.4580
  388MOL0     C51104   6.254  -0.916   2.907 -0.6749  0.0751  0.3317
  388MOL0     C51105   6.159  -0.815   2.982 -0.2415  0.4780  0.2858
  388MOL0     C51106   6.174  -0.666   2.948 -0.3325  0.4398  0.2790
  388MOL0     C51107   6.037  -0.602   2.983  0.1268 -0.0735 -0.2456
  388MOL0     O51108   6.013  -0.623   3.121 -1.0167  0.2023  0.0713
  388MOL0     C51109   5.884  -0.644   3.144  0.5895  0.4359  0.0621
  388MOL0     C51110   5.857  -0.729   3.257 -0.3493 -0.0880  0.2620
  388MOL0     C51111   5.725  -0.764   3.305 -0.5336  0.4624 -0.8942
  388MOL0     C51112   5.614  -0.708   3.235 -0.0008 -0.6073  0.1291
  388MOL0     C51113   5.479  -0.746   3.276 -0.3802  0.2074 -0.6533
  388MOL0     O51114   5.374  -0.670   3.235 -0.2076  0.6546 -0.1614
  388MOL0     C51115   5.253  -0.692   3.298 -0.3263  0.7789  0.1057
  388MOL0     C51116   5.211  -0.612   3.396  0.4819  0.4096  0.5316
  388MOL0     C51117   5.085  -0.637   3.458 -0.5998  0.0822  0.3637
  388MOL0     C51118   5.008  -0.752   3.423 -1.2089 -0.0984 -0.3469
  388MOL0     O51119   4.885  -0.781   3.478 -0.4770  0.2023  0.0807
  388MOL0     C51120   4.868  -0.744   3.616 -0.3666 -0.0106  0.3439
  388MOL0     C51121   4.736  -0.807   3.665 -0.0048 -0.9997 -0.1234
  388MOL0     C51122   4.743  -0.962   3.664 -0.2029  0.3600 -0.0625
  388MOL0     C51123   4.637  -1.016   3.754 -0.4857 -0.2626  0.5004
  388MOL0     C51124   4.492  -0.975   3.736  0.0293 -0.8485 -0.2975
  388MOL0     C51125   4.398  -1.097   3.776 -0.3732  0.4388 -0.4772
  388MOL0     C51126   4.256  -1.059   3.827  0.1168 -0.8048 -0.1251
  388MOL0     C51127   4.174  -1.189   3.855  0.2820 -0.8591  0.1405
  388MOL0    Cl51128   4.003  -1.131   3.863 -0.1164 -0.0503 -0.1032
  388MOL0     C51129   5.051  -0.841   3.325  0.3633  0.0555  0.4968
  388MOL0     C51130   5.171  -0.803   3.262  0.4569 -0.3995  0.0169
  388MOL0     O51131   5.469  -0.856   3.333 -0.4805  0.2676 -0.0030
  388MOL0     C51132   5.637  -0.616   3.133  1.0699  0.4244  0.3153
  388MOL0     C51133   5.769  -0.586   3.086 -0.2088 -0.5559  0.0580
  388MOL0     N51134   6.447  -0.932   3.067 -0.1270 -0.1879  0.0508
  388MOL0     N51135   6.567  -0.880   3.064 -0.7160  1.1250  0.7138
  388MOL0     C51136   7.770  -0.266   3.141 -0.3101 -0.0676 -0.0234
  388MOL0     C51137   7.849  -0.186   3.224  0.0834 -1.0405  0.4499
  388MOL0     C51138   8.126   0.135   3.336  0.0580 -1.1343 -0.8597
  388MOL0     C51139   8.073   0.150   3.472  0.3478 -0.1269 -0.1513
  388MOL0     C51140   8.152   0.222   3.567  0.2696  0.6231 -0.2165
  388MOL0     C51141   8.272   0.283   3.539  0.5861  0.6268  0.4883
  388MOL0     O51142   8.343   0.357   3.628  0.2675  0.2959  0.3822
  388MOL0     C51143   8.323   0.324   3.766 -0.1256 -0.3088 -0.3680
  388MOL0     C51144   8.462   0.345   3.826  0.0454  0.6512 -0.0694
  388MOL0     C51145   8.556   0.224   3.812  0.1299  0.8663  0.3396
  388MOL0     C51146   8.680   0.230   3.899  0.0668 -0.3210  0.4062
  388MOL0     C51147   8.649   0.186   4.027 -0.2296  0.5838  0.2848
  388MOL0     C51148   8.632   0.143   4.140  0.3716  1.4901 -0.2176
  388MOL0     C51149   8.318   0.266   3.407 -0.2745 -0.1049 -0.3115
  388MOL0     C51150   8.254   0.194   3.308 -0.0458  0.9894  0.1287
  388MOL0     H51151   7.791   0.102   3.059 -0.4960  0.5397  0.3482
  388MOL0     H51152   7.693  -0.055   2.899  0.7774 -0.0348 -0.1453
  388MOL0     H51153   7.502  -0.389   3.116  2.1520  1.5296 -0.4332
  388MOL0     H51154   7.591  -0.506   3.009 -0.2945 -1.1550 -1.6730
  388MOL0     H51155   7.434  -0.435   2.824  0.5894 -2.8530 -0.2675
  388MOL0     H51156   7.349  -0.329   2.936 -0.7172  0.3409 -3.4581
  388MOL0     H51157   7.318  -0.569   3.081 -0.4451  1.5192  0.3630
  388MOL0     H51158   7.356  -0.640   2.924  0.7175 -0.5333 -1.1475
  388MOL0     H51159   7.136  -0.437   2.996  2.4421  1.8901 -1.6115
  388MOL0     H51160   7.145  -0.503   2.835  1.7467  0.3168 -0.1296
  388MOL0     H51161   7.113  -0.714   3.066  0.1780 -0.7356 -1.3052
  388MOL0     H51162   7.114  -0.740   2.906 -2.6582 -2.4700  1.2933
  388MOL0     H51163   6.913  -0.575   2.881 -0.3919 -0.2914 -0.8749
  388MOL0     H51164   6.905  -0.583   3.061 -2.8013 -4.1572  1.2452
  388MOL0     H51165   6.886  -0.839   2.921  0.3740 -0.0296 -0.1770
  388MOL0     H51166   6.856  -0.799   3.088  1.5838  1.7678  0.8551
  388MOL0     H51167   6.692  -0.664   2.853 -0.9102  0.4468  1.3611
  388MOL0     H51168   6.663  -0.653   3.024 -2.4023  0.0823 -0.4121
  388MOL0     H51169   6.489  -0.786   2.761 -0.0077 -3.0566 -1.1682
  388MOL0     H51170   6.236  -1.017   2.944  0.9496 -0.3970 -0.0971
  388MOL0     H51171   6.225  -0.910   2.801 -0.8601 -0.6796  0.3333
  388MOL0     H51172   6.161  -0.841   3.088  0.8211 -1.0536 -0.0816
  388MOL0     H51173   6.060  -0.843   2.943 -0.6439  1.6165  0.4448
  388MOL0     H51174   6.259  -0.618   2.998 -0.0615 -0.4632  0.6999
  388MOL0     H51175   6.186  -0.651   2.840  0.8730 -1.5018  0.0935
  388MOL0     H51176   5.966  -0.656   2.920 -0.0613  0.6399 -0.6520
  388MOL0     H51177   6.021  -0.493   2.982  0.8817  0.0834  1.3360
  388MOL0     H51178   5.948  -0.766   3.305  0.5595  4.2194  2.3402
  388MOL0     H51179   5.706  -0.824   3.394  0.5539  2.6862  0.9510
  388MOL0     H51180   5.270  -0.523   3.416 -0.0656  0.2845  3.0205
  388MOL0     H51181   5.050  -0.558   3.524  0.5247  1.2151 -0.3580
  388MOL0     H51182   4.870  -0.636   3.636 -0.3174 -0.2837  1.9432
  388MOL0     H51183   4.951  -0.789   3.671  0.4319  1.5707  0.5088
  388MOL0     H51184   4.653  -0.783   3.598  0.1140 -1.0639 -0.2960
  388MOL0     H51185   4.711  -0.765   3.763  0.5327  1.1087 -0.8472
  388MOL0     H51186   4.834  -0.998   3.713 -0.9336  0.6387  1.5741
  388MOL0     H51187   4.726  -0.996   3.562 -5.0312  0.4028  0.5050
  388MOL0     H51188   4.639  -1.123   3.732 -2.5360 -0.1550 -0.5140
  388MOL0     H51189   4.655  -1.000   3.861  2.7434 -0.4995  0.0718
  388MOL0     H51190   4.475  -0.941   3.633 -1.1332  1.2021  0.5149
  388MOL0     H51191   4.464  -0.895   3.806  0.6890 -0.2722 -0.6666
  388MOL0     H51192   4.453  -1.148   3.856  2.4848  2.9962 -0.5954
  388MOL0     H51193   4.388  -1.174   3.699  1.0982  0.2989 -0.5581
  388MOL0     H51194   4.271  -1.004   3.920  1.0223 -0.0449 -0.7009
  388MOL0     H51195   4.203  -0.994   3.758 -2.3620 -2.1041  0.4465
  388MOL0     H51196   4.196  -1.234   3.953 -3.6066 -2.2039  0.5956
  388MOL0     H51197   4.189  -1.265   3.778  4.3589  0.5046 -0.6542
  388MOL0     H51198   4.994  -0.931   3.306 -0.6914  0.7725  0.1352
  388MOL0     H51199   5.200  -0.868   3.180  0.9266 -0.6983  0.4108
  388MOL0     H51200   5.555  -0.580   3.070  1.8204  0.4778 -0.6524
  388MOL0     H51201   5.768  -0.525   2.996  3.3329 -3.0619 -1.9352
  388MOL0     H51202   7.762  -0.372   3.165 -0.4803  0.5545  3.1544
  388MOL0     H51203   7.903  -0.236   3.304 -2.8306  0.0259  3.3576
  388MOL0     H51204   7.975   0.113   3.503  0.0661 -0.1855 -1.0935
  388MOL0     H51205   8.103   0.240   3.662 -1.0382  2.9157 -1.2399
  388MOL0     H51206   8.288   0.224   3.795 -1.4717  0.1088 -0.4989
  388MOL0     H51207   8.251   0.393   3.810 -0.8486 -1.4205  0.2580
  388MOL0     H51208   8.509   0.432   3.778  1.9616 -1.4775 -2.4017
  388MOL0     H51209   8.462   0.356   3.935  1.6793  0.1548  0.0151
  388MOL0     H51210   8.593   0.232   3.709  0.5462 -0.1985  0.4005
  388MOL0     H51211   8.508   0.126   3.810 -0.0860  0.9700  0.3607
  388MOL0     H51212   8.759   0.166   3.859  0.8425 -0.1513  1.6261
  388MOL0     H51213   8.728   0.328   3.900 -0.7695  0.1603 -1.6771
  388MOL0     H51214   8.614   0.099   4.236  4.0914 -0.0137 -0.0426
  388MOL0     H51215   8.412   0.312   3.378  0.9693 -2.4143 -0.1180
  388MOL0     H51216   8.305   0.182   3.213 -1.3375  1.4945 -0.6379
  389MOL0     O51217   6.068   5.434   7.285  0.7816  0.6040  0.7716
  389MOL0     C51218   6.149   5.429   7.190 -0.0436 -0.5383  0.0518
  389MOL0     O51219   6.118   5.409   7.059 -0.8096 -0.1818  0.2385
  389MOL0     C51220   5.991   5.382   7.021 -0.4788  0.3054  0.9651
  389MOL0     C51221   5.896   5.481   7.027  0.1399 -0.0020 -0.3107
  389MOL0     C51222   5.763   5.448   6.992 -0.2697 -0.5270  0.6808
  389MOL0     C51223   5.731   5.317   6.949  0.1653  0.2145  0.3138
  389MOL0     O51224   5.597   5.305   6.912 -0.1395  0.0149  0.6190
  389MOL0     C51225   5.562   5.170   6.872  1.1510  0.2192  0.2262
  389MOL0     C51226   5.414   5.178   6.876 -0.8020 -0.0122  0.0657
  389MOL0     C51227   5.347   5.037   6.855 -0.2742 -0.9514  0.3883
  389MOL0     C51228   5.363   4.999   6.702  1.0426  0.2328  0.6343
  389MOL0     C51229   5.311   4.857   6.675 -1.0403 -0.0321 -0.6337
  389MOL0     C51230   5.172   4.805   6.720 -0.3707 -0.6189  0.1416
  389MOL0     C51231   5.064   4.887   6.654 -0.1906 -0.6483 -0.1303
  389MOL0     C51232   4.929   4.871   6.717 -0.1765  0.0200 -0.0151
  389MOL0     N51233   4.822   4.941   6.634  0.0107 -0.9972 -0.1867
  389MOL0     C51234   4.816   5.080   6.644 -0.0986 -0.0886  1.0399
  389MOL0     C51235   4.714   5.117   6.560 -0.1076 -0.2714 -0.4199
  389MOL0     C51236   4.673   5.268   6.553 -1.1757  0.7054 -0.9115
  389MOL0     C51237   4.703   5.333   6.420 -0.1930  1.1428  0.1204
  389MOL0     C51238   4.628   5.469   6.381 -0.9161 -0.4576  0.9427
  389MOL0     C51239   4.478   5.466   6.421  0.1110  0.4973  0.5697
  389MOL0     O51240   4.409   5.358   6.344 -0.0136  0.0969 -0.2856
  389MOL0     C51241   4.276   5.330   6.355 -0.8551  0.6233 -0.5302
  389MOL0     C51242   4.190   5.414   6.415 -0.0358 -0.6306 -0.7312
  389MOL0     C51243   4.052   5.401   6.399 -0.1152  0.4028 -0.3119
  389MOL0     C51244   3.990   5.295   6.329 -0.1526 -1.6754 -0.0031
  389MOL0     C51245   3.840   5.299   6.311 -0.2624  0.2003 -0.7666
  389MOL0     O51246   3.765   5.400   6.363  0.4403 -0.1661  0.0045
  389MOL0     C51247   3.634   5.412   6.360  0.4058  0.2121  0.6423
  389MOL0     C51248   3.550   5.304   6.352  0.0034 -0.0663  0.5372
  389MOL0     C51249   3.407   5.327   6.357  0.3184 -0.2459  0.2319
  389MOL0     C51250   3.362   5.456   6.397  0.4691  0.0260  0.3823
  389MOL0     O51251   3.230   5.479   6.429 -0.0005 -0.6332  0.2188
  389MOL0     C51252   3.128   5.387   6.376 -0.2184 -0.6366 -1.5602
  389MOL0     C51253   3.010   5.445   6.437  1.3545 -0.2481 -0.4510
  389MOL0     C51254   2.882   5.391   6.368 -0.1584 -0.1038 -0.0875
  389MOL0     C51255   2.754   5.457   6.418 -0.2063  0.3999  0.3384
  389MOL0     C51256   2.705   5.408   6.554 -0.3700  0.4658  0.1516
  389MOL0     C51257   2.563   5.455   6.577  0.2781  0.4500 -0.0761
  389MOL0     C51258   2.495   5.372   6.685  0.0448 -0.0150 -0.5764
  389MOL0     C51259   2.343   5.410   6.694  0.0422 -0.6856 -0.5008
  389MOL0    Cl51260   2.262   5.352   6.545  0.0602 -0.0715  0.3614
  389MOL0     C51261   3.448   5.560   6.414 -0.3012 -0.0686  0.5513
  389MOL0     C51262   3.582   5.539   6.388  0.0811 -0.5660  0.1882
  389MOL0     O51263   3.798   5.204   6.247 -0.5006 -0.1095  0.0407
  389MOL0     C51264   4.083   5.208   6.273  0.4436  0.2120 -0.6619
  389MOL0     C51265   4.221   5.228   6.280 -0.5592  0.4704 -0.4008
  389MOL0     N51266   4.658   5.004   6.509  0.4662 -0.3426  0.5002
  389MOL0     N51267   4.732   4.898   6.545 -0.3386 -0.3209  0.5677
  389MOL0     C51268   5.833   5.215   6.939  0.0817  0.2288 -0.6795
  389MOL0     C51269   5.963   5.254   6.974  0.0930 -0.4040  0.9445
  389MOL0     C51270   6.290   5.464   7.219  0.2023 -0.8829  0.0838
  389MOL0     C51271   6.331   5.502   7.356  0.6788 -0.7103  0.4202
  389MOL0     C51272   6.462   5.539   7.382 -1.1437 -0.0867  0.9033
  389MOL0     C51273   6.561   5.534   7.280  0.1721  1.0103  0.1777
  389MOL0     O51274   6.691   5.577   7.307 -0.5080  0.1047  0.5796
  389MOL0     C51275   6.795   5.542   7.222  0.2858 -0.4982 -0.3523
  389MOL0     C51276   6.922   5.619   7.257 -0.8477 -0.4600  0.0371
  389MOL0     C51277   6.916   5.760   7.197 -1.0020  0.2065 -0.8557
  389MOL0     C51278   7.018   5.847   7.271  0.2735 -0.5720 -0.2453
  389MOL0     C51279   7.158   5.800   7.255 -0.7717  0.7309  0.2913
  389MOL0     C51280   7.279   5.783   7.248 -0.2698  0.9609  0.9245
  389MOL0     C51281   6.518   5.499   7.152  0.0040 -0.9775 -0.2256
  389MOL0     C51282   6.386   5.471   7.121 -0.3009 -0.4832 -0.7773
  389MOL0     H51283   5.926   5.581   7.055  1.9627 -0.3457 -0.8886
  389MOL0     H51284   5.682   5.521   6.991  1.4740  1.5333 -0.8534
  389MOL0     H51285   5.605   5.099   6.944 -0.5507 -0.4832  0.6037
  389MOL0     H51286   5.593   5.143   6.771 -0.9517  3.8118 -1.5747
  389MOL0     H51287   5.369   5.249   6.807 -1.4281 -0.6886 -0.2332
  389MOL0     H51288   5.388   5.211   6.977 -1.0900 -0.3567  0.1095
  389MOL0     H51289   5.241   5.044   6.878 -0.2885  1.4459 -0.1541
  389MOL0     H51290   5.399   4.970   6.924  1.3014 -0.8775 -0.6697
  389MOL0     H51291   5.300   5.072   6.650  0.5160 -1.1447 -0.7281
  389MOL0     H51292   5.464   5.010   6.662  0.5029 -1.6165 -1.4009
  389MOL0     H51293   5.387   4.790   6.716 -1.4510 -0.4414 -0.5280
  389MOL0     H51294   5.314   4.841   6.567  0.8550  0.4624 -0.6834
  389MOL0     H51295   5.174   4.813   6.829  2.3047  0.5121  0.0713
  389MOL0     H51296   5.169   4.700   6.688  0.0441 -0.3364 -0.8581
  389MOL0     H51297   5.081   4.995   6.650 -0.4538 -0.5489  1.0553
  389MOL0     H51298   5.051   4.851   6.552 -2.1922 -1.0292  0.2228
  389MOL0     H51299   4.937   4.921   6.814  0.3153  1.1628 -0.6198
  389MOL0     H51300   4.904   4.764   6.719  0.1691 -0.1032 -1.2147
  389MOL0     H51301   4.876   5.148   6.703 -1.7097  0.3434  2.2515
  389MOL0     H51302   4.716   5.321   6.638  0.5402 -1.9745  0.0163
  389MOL0     H51303   4.566   5.257   6.577 -0.6902  0.6097  1.4816
  389MOL0     H51304   4.672   5.250   6.356 -0.8073 -2.2288  4.3253
  389MOL0     H51305   4.811   5.340   6.413 -0.1297  1.4885  1.1780
  389MOL0     H51306   4.686   5.555   6.417 -0.5722  1.1442 -2.9610
  389MOL0     H51307   4.637   5.484   6.273  0.4641  2.6650  1.3934
  389MOL0     H51308   4.420   5.553   6.386 -3.1475 -0.5445  2.8782
  389MOL0     H51309   4.455   5.438   6.524 -0.3795 -2.5761 -0.2753
  389MOL0     H51310   4.229   5.496   6.474  1.7551 -1.1479 -1.1415
  389MOL0     H51311   3.996   5.490   6.425 -0.6806  0.9287 -3.0962
  389MOL0     H51312   3.581   5.200   6.346 -1.0189 -0.4572  1.6852
  389MOL0     H51313   3.339   5.244   6.350 -0.9951  0.7228  1.1098
  389MOL0     H51314   3.136   5.290   6.426 -3.2618  0.5221  1.6165
  389MOL0     H51315   3.125   5.389   6.267  2.6902 -1.6437 -1.7559
  389MOL0     H51316   3.004   5.554   6.424 -1.9115 -0.5852 -3.0358
  389MOL0     H51317   2.994   5.415   6.541 -5.9623 -2.5098 -1.6243
  389MOL0     H51318   2.885   5.283   6.381  3.3236 -0.1960 -0.8658
  389MOL0     H51319   2.894   5.407   6.260 -1.4584  1.1035 -0.0898
  389MOL0     H51320   2.776   5.564   6.414  0.0832  0.3403  0.2766
  389MOL0     H51321   2.681   5.433   6.340  0.5450 -0.8030 -0.0327
  389MOL0     H51322   2.771   5.438   6.636 -0.1189  0.6840 -0.1335
  389MOL0     H51323   2.710   5.298   6.562 -0.8982  0.5366  2.2765
  389MOL0     H51324   2.501   5.445   6.488 -1.2635 -1.2691  1.1167
  389MOL0     H51325   2.564   5.559   6.612 -0.6959  0.4590 -0.0707
  389MOL0     H51326   2.497   5.263   6.679 -2.7106 -0.3090  1.7098
  389MOL0     H51327   2.541   5.393   6.782 -1.1723 -0.5528  0.1414
  389MOL0     H51328   2.324   5.517   6.706  1.2614 -0.3990 -0.9196
  389MOL0     H51329   2.301   5.369   6.786 -3.9780  6.1992  1.4307
  389MOL0     H51330   3.412   5.662   6.426 -0.9133 -0.1058 -0.7996
  389MOL0     H51331   3.647   5.625   6.380 -0.1598 -0.4493 -0.6625
  389MOL0     H51332   4.047   5.120   6.221 -0.4789 -1.3752  2.4174
  389MOL0     H51333   4.292   5.159   6.235 -0.8971 -0.4742  0.4907
  389MOL0     H51334   5.814   5.115   6.901 -0.1345  0.2268 -0.5669
  389MOL0     H51335   6.048   5.188   6.962 -0.7740 -1.3478 -0.2309
  389MOL0     H51336   6.255   5.512   7.433  1.0925  2.8774  0.4985
  389MOL0     H51337   6.479   5.563   7.486 -0.7451  1.3371  0.5341
  389MOL0     H51338   6.776   5.575   7.119  1.0764  3.8534  0.7030
  389MOL0     H51339   6.815   5.434   7.229 -3.2862 -1.2857 -0.3833
  389MOL0     H51340   6.925   5.607   7.366  1.6184 -0.1713  0.0622
  389MOL0     H51341   7.002   5.566   7.203 -1.9238 -2.0136 -0.0909
  389MOL0     H51342   6.825   5.815   7.223  0.8298  1.7732  2.9794
  389MOL0     H51343   6.952   5.743   7.095  1.9554 -0.6485  0.2068
  389MOL0     H51344   6.997   5.953   7.258 -0.4080 -0.6806 -0.0689
  389MOL0     H51345   6.997   5.832   7.378  0.7642 -0.5680 -0.1444
  389MOL0     H51346   7.384   5.786   7.229 -0.5217  1.0256 -0.5992
  389MOL0     H51347   6.587   5.499   7.068  0.2054  1.5100 -0.1303
  389MOL0     H51348   6.376   5.432   7.020 -0.9247 -2.2877 -0.0505
  390MOL0     O51349   3.919  10.302   3.253  0.1978 -0.5497 -0.4799
  390MOL0     C51350   4.005  10.224   3.281 -1.2325  0.9967  0.1193
  390MOL0     O51351   3.998  10.114   3.372 -0.4526  0.1299  0.2656
  390MOL0     C51352   3.871  10.095   3.427 -0.9612 -0.1451 -0.6113
  390MOL0     C51353   3.859  10.117   3.564 -0.1538  0.4453  0.4772
  390MOL0     C51354   3.748  10.067   3.626 -0.4775  0.5441  0.3325
  390MOL0     C51355   3.634  10.025   3.555 -0.1360  0.9092 -0.1771
  390MOL0     O51356   3.521   9.992   3.625 -0.7715 -0.0173 -0.8987
  390MOL0     C51357   3.400   9.962   3.557  0.3445  0.1081  0.0542
  390MOL0     C51358   3.292   9.960   3.665  0.0196  0.2770  0.0107
  390MOL0     C51359   3.149   9.918   3.623 -0.2214  0.8709 -0.1231
  390MOL0     C51360   3.055   9.934   3.746 -0.3005 -0.8424 -0.2558
  390MOL0     C51361   2.921   9.850   3.731  0.4763 -0.2714 -1.3348
  390MOL0     C51362   2.835   9.888   3.618 -0.7198  0.3618  0.4295
  390MOL0     C51363   2.746  10.018   3.641  0.8567  0.3524  0.1429
  390MOL0     C51364   2.607   9.970   3.697  0.2401  0.1792  0.2893
  390MOL0     N51365   2.516  10.080   3.724  1.3486  0.0165 -0.1671
  390MOL0     C51366   2.385  10.102   3.670 -0.2802  0.6242 -1.0206
  390MOL0     C51367   2.350  10.221   3.729 -0.0853 -0.6811 -0.7349
  390MOL0     C51368   2.223  10.299   3.702  0.0208  0.2744  0.0422
  390MOL0     C51369   2.105  10.206   3.726  0.4636  0.0422  0.2260
  390MOL0     C51370   1.977  10.271   3.666 -0.3532  0.0392  0.3862
  390MOL0     C51371   1.872  10.163   3.645 -0.5603  0.4336  0.3642
  390MOL0     O51372   1.810  10.139   3.770 -0.3941 -0.6627 -0.6120
  390MOL0     C51373   1.679  10.103   3.775  0.0985 -0.6635 -0.6257
  390MOL0     C51374   1.596  10.154   3.878  0.1476 -0.0557 -0.9401
  390MOL0     C51375   1.460  10.100   3.893 -0.5568 -0.2667 -0.5539
  390MOL0     C51376   1.406  10.009   3.808  0.7552 -0.1321  0.1880
  390MOL0     C51377   1.263   9.968   3.824 -0.0048  0.3336  0.1112
  390MOL0     O51378   1.205  10.005   3.948 -0.2894 -0.0295 -0.2898
  390MOL0     C51379   1.076   9.992   3.964 -0.5778 -0.1960 -0.6257
  390MOL0     C51380   0.988  10.074   3.888  0.2021  0.3298  0.2331
  390MOL0     C51381   0.849  10.069   3.921  0.5071 -0.7889  0.0963
  390MOL0     C51382   0.790   9.994   4.020 -0.0719  0.7146  0.0493
  390MOL0     O51383   0.653   9.998   4.043 -0.1420  0.1321 -0.3949
  390MOL0     C51384   0.581   9.886   4.007  0.2651  0.2334 -1.1070
  390MOL0     C51385   0.438   9.927   3.964 -0.4417 -0.1081 -0.4852
  390MOL0     C51386   0.444  10.036   3.857 -0.1622  1.0337 -0.5345
  390MOL0     C51387   0.309  10.091   3.814 -0.5875 -0.3758 -0.4099
  390MOL0     C51388   0.228  10.171   3.912 -0.5940 -0.0687 -0.1211
  390MOL0     C51389   0.108  10.230   3.846 -0.8343 -0.4346  1.0490
  390MOL0     C51390   0.154  10.370   3.796  0.4267  0.1771  0.8300
  390MOL0     C51391   0.041  10.442   3.713 -0.0161 -0.1019 -0.5605
  390MOL0    Cl51392  -0.127  10.450   3.785  0.1909  0.2001 -0.0608
  390MOL0     C51393   0.883   9.919   4.091  0.3634  0.5238 -0.3116
  390MOL0     C51394   1.021   9.918   4.069  1.2243 -0.7784 -0.0023
  390MOL0     O51395   1.212   9.890   3.742 -0.2911 -0.2269 -0.9009
  390MOL0     C51396   1.483   9.954   3.707  0.3440 -0.6804  0.0949
  390MOL0     C51397   1.621  10.002   3.691 -0.9780  0.0834  0.2316
  390MOL0     N51398   2.442  10.252   3.828 -0.6373  0.0597 -0.9469
  390MOL0     N51399   2.551  10.169   3.820  0.4424 -0.1411 -0.4687
  390MOL0     C51400   3.650  10.023   3.417  1.5176  0.2908 -0.2988
  390MOL0     C51401   3.768  10.039   3.351  0.0497  0.7009  0.4405
  390MOL0     C51402   4.132  10.266   3.225 -0.1442 -0.2162 -0.6812
  390MOL0     C51403   4.146  10.372   3.129  0.3866 -0.0829 -0.2016
  390MOL0     C51404   4.277  10.413   3.084  0.9624 -0.2243 -1.2956
  390MOL0     C51405   4.394  10.356   3.129 -0.0317  0.1116 -0.0616
  390MOL0     O51406   4.517  10.418   3.098  0.3021 -0.0879  0.7298
  390MOL0     C51407   4.636  10.336   3.138 -0.3858 -0.9861 -0.5098
  390MOL0     C51408   4.763  10.385   3.077  0.8662 -0.6852 -0.8185
  390MOL0     C51409   4.775  10.352   2.927 -0.7859  0.2970  0.3291
  390MOL0     C51410   4.929  10.359   2.883 -0.2799 -0.3108  0.0964
  390MOL0     C51411   4.997  10.488   2.922  0.0897  0.2591  0.4553
  390MOL0     C51412   5.061  10.589   2.949 -0.4421 -0.5232 -0.7253
  390MOL0     C51413   4.376  10.260   3.232  0.2812  0.3819  0.1126
  390MOL0     C51414   4.251  10.217   3.272 -0.5611 -0.2147 -0.5768
  390MOL0     H51415   3.954  10.142   3.611 -1.3980 -0.1304  3.5331
  390MOL0     H51416   3.744  10.054   3.734 -0.6842 -0.2446  0.2339
  390MOL0     H51417   3.402   9.864   3.509  1.4988  1.3899 -2.8509
  390MOL0     H51418   3.375  10.030   3.475  0.8743 -0.3943 -0.5383
  390MOL0     H51419   3.286  10.060   3.709  2.3933  0.2643  0.4726
  390MOL0     H51420   3.327   9.882   3.732  0.4969 -0.3929 -0.9838
  390MOL0     H51421   3.149   9.811   3.600 -3.5211  0.4484  1.2249
  390MOL0     H51422   3.117   9.982   3.540 -1.8830 -1.2512 -1.1979
  390MOL0     H51423   3.110   9.900   3.835  2.8176  0.7431 -1.4268
  390MOL0     H51424   3.031  10.039   3.760  2.8817  0.3645 -2.7000
  390MOL0     H51425   2.873   9.859   3.830 -0.6080  1.9015 -1.9742
  390MOL0     H51426   2.952   9.747   3.713  1.4917 -0.1149 -0.5573
  390MOL0     H51427   2.764   9.806   3.605  0.7618 -1.1318  1.4372
  390MOL0     H51428   2.897   9.910   3.531  1.2780 -2.8483  0.9045
  390MOL0     H51429   2.791  10.083   3.717 -0.5403  0.9513  0.4868
  390MOL0     H51430   2.725  10.069   3.547 -1.2062  1.8030  1.3012
  390MOL0     H51431   2.637   9.914   3.785  0.0578 -3.7565 -1.9171
  390MOL0     H51432   2.552   9.900   3.633 -1.3386  0.0283  1.7378
  390MOL0     H51433   2.328  10.051   3.593 -0.7556  0.5672 -0.6432
  390MOL0     H51434   2.223  10.345   3.603 -2.6749  0.7395  0.1634
  390MOL0     H51435   2.205  10.386   3.767  2.3339  0.8486 -0.0307
  390MOL0     H51436   2.086  10.198   3.834  1.3180  2.8560  0.6667
  390MOL0     H51437   2.114  10.107   3.681  0.0636  0.0382  0.1460
  390MOL0     H51438   1.939  10.345   3.736 -0.6998 -0.9761  1.2819
  390MOL0     H51439   2.006  10.328   3.577 -2.2364  0.4423  0.0017
  390MOL0     H51440   1.900  10.069   3.597 -0.5339  0.7315 -0.2123
  390MOL0     H51441   1.798  10.212   3.581 -2.5593  0.1009  2.2959
  390MOL0     H51442   1.640  10.218   3.954  0.1758 -1.1293 -0.0247
  390MOL0     H51443   1.400  10.150   3.968 -1.0905 -0.6477 -0.7285
  390MOL0     H51444   1.002  10.137   3.801 -1.1216 -1.0278 -1.0252
  390MOL0     H51445   0.775  10.126   3.865 -2.2814 -1.4104  2.8513
  390MOL0     H51446   0.580   9.809   4.085 -0.4825 -0.9391 -2.2490
  390MOL0     H51447   0.633   9.847   3.920 -1.6659  0.0831 -2.2496
  390MOL0     H51448   0.380   9.966   4.047 -1.3407 -1.8075 -0.2659
  390MOL0     H51449   0.380   9.847   3.917  0.4036 -1.1006  0.1208
  390MOL0     H51450   0.499  10.001   3.770 -0.5042 -2.4652  0.5306
  390MOL0     H51451   0.493  10.124   3.902  1.6339 -0.6981  1.1271
  390MOL0     H51452   0.328  10.155   3.728  0.5932  0.5305  0.4780
  390MOL0     H51453   0.248  10.006   3.784 -1.4560  0.3191 -0.6500
  390MOL0     H51454   0.288  10.245   3.966 -0.1226 -0.4849 -0.0663
  390MOL0     H51455   0.198  10.102   3.992 -0.6189 -1.1560 -1.0487
  390MOL0     H51456   0.016  10.241   3.905 -2.4304 -1.3110 -1.1387
  390MOL0     H51457   0.069  10.168   3.765 -1.5348  2.5392 -1.0398
  390MOL0     H51458   0.189  10.434   3.877 -0.3853  0.4283  0.9887
  390MOL0     H51459   0.230  10.339   3.724  0.6424 -0.6490  1.3983
  390MOL0     H51460   0.028  10.382   3.622 -1.8377 -0.6929  0.0514
  390MOL0     H51461   0.074  10.543   3.689  2.4200  0.4352  3.9191
  390MOL0     H51462   0.840   9.851   4.164  0.9809  0.2811 -0.1687
  390MOL0     H51463   1.075   9.854   4.138 -0.5423  0.0473  2.2889
  390MOL0     H51464   1.447   9.870   3.649  3.8044  0.1651 -3.7472
  390MOL0     H51465   1.685   9.965   3.611 -0.6985 -0.3091  0.6288
  390MOL0     H51466   3.567  10.009   3.350  0.5786  2.1068  0.3903
  390MOL0     H51467   3.780  10.028   3.243 -2.0516  1.1277  0.1155
  390MOL0     H51468   4.063  10.424   3.082 -0.8913 -0.4857  1.5218
  390MOL0     H51469   4.294  10.501   3.022 -0.1235  1.2172  0.3408
  390MOL0     H51470   4.614  10.232   3.115  1.8599 -2.3257  2.6676
  390MOL0     H51471   4.646  10.351   3.246  0.2905 -0.2022 -0.6730
  390MOL0     H51472   4.775  10.493   3.096  1.0708 -0.9454  0.6956
  390MOL0     H51473   4.838  10.338   3.141 -2.7413 -2.0154  2.9478
  390MOL0     H51474   4.720  10.422   2.863  1.7568  0.4455 -1.8993
  390MOL0     H51475   4.732  10.256   2.897 -2.3888  2.1287 -4.1366
  390MOL0     H51476   4.981  10.286   2.947  2.3036 -0.5792 -2.1447
  390MOL0     H51477   4.954  10.328   2.781  3.3172 -2.2505  1.3918
  390MOL0     H51478   5.125  10.675   2.955  0.1008 -0.8988 -0.9696
  390MOL0     H51479   4.456  10.218   3.291  0.0058  1.9531  1.7049
  390MOL0     H51480   4.250  10.149   3.357 -2.4135 -1.2955 -1.4077
  391MOL0     O51481   4.934   1.460   0.477 -0.6690  0.0514 -0.0864
  391MOL0     C51482   4.915   1.579   0.468  0.9814 -0.5125  0.8245
  391MOL0     O51483   4.815   1.651   0.531  0.6113  0.1455 -0.6917
  391MOL0     C51484   4.752   1.592   0.638  0.5478  0.0059  0.1496
  391MOL0     C51485   4.618   1.581   0.638 -0.8068 -0.9234  0.2362
  391MOL0     C51486   4.531   1.551   0.746  0.1283  0.7459  0.1946
  391MOL0     C51487   4.605   1.525   0.871 -0.1019  0.3836  0.5205
  391MOL0     O51488   4.557   1.515   0.998 -0.1496 -0.6015 -0.1369
  391MOL0     C51489   4.479   1.397   1.020 -0.1241  0.0041 -0.3872
  391MOL0     C51490   4.489   1.356   1.161  0.3046 -0.5653  0.7116
  391MOL0     C51491   4.400   1.458   1.248 -0.6494  0.0402 -0.5400
  391MOL0     C51492   4.410   1.416   1.398 -1.3605 -0.1621 -0.0326
  391MOL0     C51493   4.325   1.291   1.425 -0.1655  0.0020  0.3151
  391MOL0     C51494   4.168   1.321   1.413 -0.3504  0.2054 -0.6310
  391MOL0     C51495   4.127   1.443   1.499  0.1295 -0.7251  0.0368
  391MOL0     C51496   3.966   1.466   1.505 -0.7648 -0.7479 -0.6266
  391MOL0     N51497   3.920   1.591   1.571 -0.7523  0.3056  1.1254
  391MOL0     C51498   3.963   1.630   1.692  0.8157 -0.1680  0.2315
  391MOL0     C51499   3.894   1.745   1.712  1.1136 -0.1282  0.0700
  391MOL0     C51500   3.894   1.838   1.829 -0.1297  0.3163  0.2661
  391MOL0     C51501   3.764   1.819   1.901  0.1340  0.2475  0.3663
  391MOL0     C51502   3.739   1.934   1.995 -0.4014  0.2311  0.1767
  391MOL0     C51503   3.606   1.899   2.066 -0.5816 -0.6134  0.4340
  391MOL0     O51504   3.495   1.895   1.976  0.0336  0.0340 -0.4208
  391MOL0     C51505   3.370   1.857   2.019 -0.3361 -1.3108  1.5876
  391MOL0     C51506   3.294   1.925   2.111  1.0728 -1.1826  0.9329
  391MOL0     C51507   3.172   1.887   2.164 -0.8076 -0.3260 -0.2173
  391MOL0     C51508   3.123   1.763   2.121 -0.2616 -0.2958  0.5543
  391MOL0     C51509   2.992   1.704   2.163  0.3232 -0.2881 -1.1750
  391MOL0     O51510   2.945   1.747   2.289 -0.4346  0.3243 -0.1519
  391MOL0     C51511   2.811   1.726   2.300 -0.0219  0.2562  0.3668
  391MOL0     C51512   2.730   1.839   2.298 -1.0118  1.2270  0.1883
  391MOL0     C51513   2.588   1.825   2.323 -0.7349 -0.5806 -1.0164
  391MOL0     C51514   2.532   1.703   2.362 -1.1229 -0.3743  0.2856
  391MOL0     O51515   2.407   1.701   2.417 -0.1408  0.2881 -0.1116
  391MOL0     C51516   2.386   1.588   2.511 -0.1658  0.8835  0.6409
  391MOL0     C51517   2.284   1.627   2.616 -0.6138  0.3027 -0.1158
  391MOL0     C51518   2.331   1.745   2.703  1.3093 -1.0294 -0.8854
  391MOL0     C51519   2.231   1.789   2.811 -0.7413 -0.7778 -0.0185
  391MOL0     C51520   2.300   1.901   2.902 -0.1472 -0.8860 -0.1360
  391MOL0     C51521   2.225   1.939   3.031  0.9191  0.2679  0.6592
  391MOL0     C51522   2.278   2.055   3.116  0.1258  0.0040 -0.9051
  391MOL0     C51523   2.247   2.030   3.264 -0.1413  0.3193  0.5345
  391MOL0    Cl51524   2.281   2.171   3.349  0.3000  0.2800  0.0288
  391MOL0     C51525   2.607   1.594   2.340  0.2105  0.0533 -0.4090
  391MOL0     C51526   2.743   1.601   2.312  0.6961 -0.4872 -0.5853
  391MOL0     O51527   2.926   1.653   2.077 -0.0435  0.3163 -0.0274
  391MOL0     C51528   3.194   1.695   2.021  0.7674 -0.3044 -0.0389
  391MOL0     C51529   3.311   1.748   1.966 -0.2703  0.6105 -0.4439
  391MOL0     N51530   3.826   1.778   1.593  0.2938  1.2097 -0.2073
  391MOL0     N51531   3.853   1.685   1.503 -0.1067  0.7040  0.1249
  391MOL0     C51532   4.740   1.520   0.863 -0.6157  0.3615  0.0972
  391MOL0     C51533   4.818   1.551   0.754 -0.6568  0.2959  0.7276
  391MOL0     C51534   5.007   1.657   0.374  0.2097 -0.9456 -0.3482
  391MOL0     C51535   5.121   1.614   0.309 -0.5325  0.1312 -0.2150
  391MOL0     C51536   5.201   1.695   0.240 -0.5213  0.8116 -0.4838
  391MOL0     C51537   5.175   1.827   0.222 -0.0430  0.7509  0.4042
  391MOL0     O51538   5.253   1.903   0.138 -0.3131  0.0346 -0.2924
  391MOL0     C51539   5.220   2.038   0.113  0.3562  0.2202 -0.8663
  391MOL0     C51540   5.316   2.088   0.014  0.4353 -0.5152  0.3398
  391MOL0     C51541   5.456   2.073   0.070  0.7017  0.4352  0.0210
  391MOL0     C51542   5.573   2.100  -0.035 -0.1509  0.1365  0.7684
  391MOL0     C51543   5.544   2.221  -0.108 -0.5798  0.2567  0.6620
  391MOL0     C51544   5.528   2.321  -0.166 -0.3623  1.1177 -0.1002
  391MOL0     C51545   5.060   1.875   0.276  0.1000 -0.1718  0.6670
  391MOL0     C51546   4.980   1.798   0.358 -0.5936  0.2249 -0.5659
  391MOL0     H51547   4.565   1.599   0.545 -1.0668 -4.5845 -0.5018
  391MOL0     H51548   4.423   1.561   0.735  0.1054 -0.5488 -1.2130
  391MOL0     H51549   4.520   1.314   0.961 -0.2873  1.0719 -2.0533
  391MOL0     H51550   4.375   1.415   0.994  0.3122  0.6720 -1.7540
  391MOL0     H51551   4.589   1.358   1.205  1.5468  0.0035 -1.9279
  391MOL0     H51552   4.452   1.253   1.163 -3.2052  0.5247 -0.3907
  391MOL0     H51553   4.298   1.456   1.210 -0.4952  2.0016 -1.1985
  391MOL0     H51554   4.448   1.556   1.238  0.8570 -0.6345 -0.3000
  391MOL0     H51555   4.514   1.393   1.419 -0.1886 -0.0703 -4.6014
  391MOL0     H51556   4.382   1.502   1.459  0.0187 -0.1009  0.5458
  391MOL0     H51557   4.349   1.253   1.524 -0.1976 -1.7223 -0.2981
  391MOL0     H51558   4.349   1.208   1.358  1.3446  0.8598 -0.2696
  391MOL0     H51559   4.109   1.231   1.427 -0.9627  0.4474 -1.5825
  391MOL0     H51560   4.150   1.348   1.308  0.5146 -1.9241 -1.3844
  391MOL0     H51561   4.172   1.404   1.591 -2.0072 -5.1674 -0.5477
  391MOL0     H51562   4.179   1.538   1.485  0.8954 -0.9726  1.1115
  391MOL0     H51563   3.917   1.377   1.546  0.0402 -1.0795 -0.3517
  391MOL0     H51564   3.934   1.476   1.401 -1.3166  0.8714 -0.3294
  391MOL0     H51565   4.000   1.566   1.771 -2.2137  0.3273  2.2035
  391MOL0     H51566   3.892   1.940   1.791  0.1415  0.7493  1.3726
  391MOL0     H51567   3.987   1.820   1.885 -0.0251  3.8663  1.4867
  391MOL0     H51568   3.768   1.728   1.962  2.2551 -0.8161 -1.2215
  391MOL0     H51569   3.683   1.800   1.830  1.6496  0.6652 -1.5431
  391MOL0     H51570   3.809   1.968   2.072 -0.0942 -1.8831  0.8797
  391MOL0     H51571   3.717   2.013   1.922  0.5397  0.3242 -0.0223
  391MOL0     H51572   3.593   1.969   2.149  2.3689  0.4298  0.1695
  391MOL0     H51573   3.637   1.807   2.116  2.1186  0.8093  1.6119
  391MOL0     H51574   3.327   2.024   2.142 -2.4799  0.4681 -0.0469
  391MOL0     H51575   3.126   1.951   2.239  0.2611  0.1253  0.0721
  391MOL0     H51576   2.757   1.943   2.281  0.6635  1.4968  3.5751
  391MOL0     H51577   2.523   1.911   2.323  0.7991  0.7062  1.5602
  391MOL0     H51578   2.477   1.567   2.567 -1.0879  1.9460  2.6014
  391MOL0     H51579   2.347   1.494   2.469  2.0400  0.1541  0.0797
  391MOL0     H51580   2.265   1.546   2.687 -0.7739 -1.3753 -1.9871
  391MOL0     H51581   2.197   1.654   2.556 -0.5528 -1.7180 -1.2112
  391MOL0     H51582   2.344   1.829   2.634 -1.4708  0.7315  0.5307
  391MOL0     H51583   2.430   1.740   2.750  0.7733  0.3823  0.4624
  391MOL0     H51584   2.132   1.823   2.779 -0.9693 -0.0356  1.3714
  391MOL0     H51585   2.207   1.698   2.865  0.3765 -0.4963  1.0074
  391MOL0     H51586   2.312   1.996   2.851  1.4601  0.2085  2.1109
  391MOL0     H51587   2.395   1.860   2.939  0.6246  0.6976 -0.3147
  391MOL0     H51588   2.227   1.845   3.087 -0.4958  0.3257  0.8228
  391MOL0     H51589   2.122   1.967   3.006  0.9385  0.3292  0.6463
  391MOL0     H51590   2.387   2.068   3.108 -0.1545  2.4512 -1.5832
  391MOL0     H51591   2.235   2.149   3.081 -2.5014 -0.9634 -0.4578
  391MOL0     H51592   2.300   1.940   3.295 -3.6604 -2.3789 -0.5954
  391MOL0     H51593   2.142   2.012   3.291 -0.1653 -0.4466 -0.0390
  391MOL0     H51594   2.573   1.492   2.354 -0.8199  0.5468  0.8547
  391MOL0     H51595   2.785   1.501   2.307 -1.6691 -1.6191  0.8517
  391MOL0     H51596   3.158   1.599   1.987  3.5338 -1.0000 -1.3701
  391MOL0     H51597   3.359   1.696   1.884  0.8369 -1.2835  1.3084
  391MOL0     H51598   4.806   1.488   0.942 -1.0127 -0.4532  0.1145
  391MOL0     H51599   4.925   1.565   0.762 -0.2467 -0.4736 -2.3262
  391MOL0     H51600   5.157   1.511   0.313  4.7343  1.4385 -3.7528
  391MOL0     H51601   5.300   1.663   0.208  0.2566 -0.4380  2.7939
  391MOL0     H51602   5.227   2.096   0.205 -4.0600 -1.8626  1.0538
  391MOL0     H51603   5.117   2.045   0.076 -0.0413  0.2267  0.2005
  391MOL0     H51604   5.314   2.040  -0.084 -0.1458  1.6004 -0.7432
  391MOL0     H51605   5.314   2.197   0.001  2.0491 -0.1340  2.6322
  391MOL0     H51606   5.475   1.975   0.115 -1.3239  0.8281  1.8972
  391MOL0     H51607   5.464   2.142   0.155  2.6470 -0.0720  0.2879
  391MOL0     H51608   5.667   2.114   0.020  1.2160  2.4764 -1.8755
  391MOL0     H51609   5.590   2.017  -0.104  2.0322  2.9099 -2.3789
  391MOL0     H51610   5.536   2.407  -0.230  3.3361  0.5005 -0.7108
  391MOL0     H51611   5.028   1.979   0.274 -1.1962 -0.4950  2.1662
  391MOL0     H51612   4.902   1.854   0.409  0.8905 -0.1663  2.3672
  392MOL0     O51613   6.095   3.808   2.382 -0.0052 -0.6941  0.2490
  392MOL0     C51614   6.166   3.861   2.304  0.4877  0.0231 -0.0461
  392MOL0     O51615   6.133   3.941   2.207  0.1271 -0.4852  0.0860
  392MOL0     C51616   6.000   3.961   2.172  0.4604  0.0415  0.1352
  392MOL0     C51617   5.958   3.880   2.069  0.2079  0.4001  0.5741
  392MOL0     C51618   5.818   3.875   2.041 -0.3651  0.1359  1.0901
  392MOL0     C51619   5.725   3.968   2.108 -0.2443  0.0779  0.0640
  392MOL0     O51620   5.593   3.963   2.076  0.3755  0.2510  0.5055
  392MOL0     C51621   5.494   4.051   2.147 -0.7848  0.0844  0.1435
  392MOL0     C51622   5.351   4.066   2.090 -0.5303 -0.7186 -0.0207
  392MOL0     C51623   5.351   4.097   1.940  0.4044  0.1105  0.3865
  392MOL0     C51624   5.204   4.087   1.887 -0.2422 -0.1699  0.1273
  392MOL0     C51625   5.165   4.112   1.742 -0.2402  0.4982  0.6848
  392MOL0     C51626   5.177   4.264   1.696 -0.1610  0.6578 -0.3535
  392MOL0     C51627   5.259   4.279   1.561  0.2351 -0.0157 -0.5522
  392MOL0     C51628   5.256   4.414   1.497  0.6392 -0.0994 -0.2053
  392MOL0     N51629   5.133   4.457   1.420 -1.2666  0.4327  0.8706
  392MOL0     C51630   5.018   4.506   1.475 -0.8647 -1.1270 -0.4123
  392MOL0     C51631   4.934   4.506   1.369 -0.3460  0.0109 -0.0540
  392MOL0     C51632   4.793   4.552   1.381 -1.0897  0.6305  1.1282
  392MOL0     C51633   4.724   4.502   1.507 -0.4943 -0.1984 -0.0372
  392MOL0     C51634   4.570   4.497   1.483  0.3508 -0.7736 -0.4371
  392MOL0     C51635   4.508   4.629   1.463 -0.5860 -0.7304 -0.5082
  392MOL0     O51636   4.381   4.654   1.529 -0.4534  0.0049 -0.6854
  392MOL0     C51637   4.263   4.627   1.458 -0.0862  0.2272  0.1583
  392MOL0     C51638   4.255   4.593   1.315 -0.6726 -0.4386  0.0074
  392MOL0     C51639   4.126   4.579   1.254 -0.1956  0.2956  0.2915
  392MOL0     C51640   4.009   4.611   1.327 -0.4899 -0.2823  0.5151
  392MOL0     C51641   3.887   4.611   1.264 -0.1985  0.3381 -0.4381
  392MOL0     O51642   3.771   4.592   1.339  0.1410  0.1542 -0.6390
  392MOL0     C51643   3.651   4.583   1.274 -0.4164 -0.4100 -0.6392
  392MOL0     C51644   3.557   4.681   1.310  0.6372 -0.3639  0.2726
  392MOL0     C51645   3.428   4.670   1.266 -0.6459 -0.6030 -0.7122
  392MOL0     C51646   3.391   4.570   1.177 -0.3141  0.4481  0.8852
  392MOL0     O51647   3.255   4.550   1.153 -0.1566 -0.1514  0.0626
  392MOL0     C51648   3.210   4.555   1.020 -0.6383  0.3489  0.5831
  392MOL0     C51649   3.111   4.442   1.023  0.3160  0.3854  0.0819
  392MOL0     C51650   3.040   4.436   0.885 -0.2127 -0.2698  0.1491
  392MOL0     C51651   2.937   4.325   0.881  0.1884 -0.2112  0.8033
  392MOL0     C51652   2.853   4.277   0.750 -0.0881 -0.9197  1.2568
  392MOL0     C51653   2.771   4.152   0.780 -0.8436  0.9216  0.4013
  392MOL0     C51654   2.857   4.022   0.786 -0.1373  0.1555 -0.5371
  392MOL0     C51655   2.778   3.906   0.850 -0.7824  0.0799  0.0018
  392MOL0    Cl51656   2.627   3.881   0.750 -0.1539 -0.3420 -0.4290
  392MOL0     C51657   3.486   4.469   1.136 -0.2332 -0.9721  0.0137
  392MOL0     C51658   3.615   4.480   1.187 -0.8673 -0.7400  0.3259
  392MOL0     O51659   3.882   4.610   1.142 -0.8218  0.1610  0.0106
  392MOL0     C51660   4.018   4.652   1.464  0.6401  0.4059 -0.1273
  392MOL0     C51661   4.144   4.658   1.524 -0.9302  0.4693  0.3944
  392MOL0     N51662   4.996   4.449   1.261 -0.3484 -0.0646 -0.4753
  392MOL0     N51663   5.121   4.423   1.282  0.1398 -0.4805 -0.1629
  392MOL0     C51664   5.776   4.051   2.211 -0.1367  0.0515 -0.9145
  392MOL0     C51665   5.914   4.042   2.250 -1.0509  1.1353  0.1341
  392MOL0     C51666   6.311   3.847   2.329  0.7421 -0.2054  0.4878
  392MOL0     C51667   6.399   3.908   2.235  0.4566  0.6012 -0.2826
  392MOL0     C51668   6.535   3.905   2.262 -0.4902  0.6128 -0.1337
  392MOL0     C51669   6.586   3.830   2.374 -0.3776  0.3596 -0.0148
  392MOL0     O51670   6.720   3.818   2.393 -0.0647  0.5378 -0.2146
  392MOL0     C51671   6.782   3.688   2.419  1.0187  0.6939  0.9080
  392MOL0     C51672   6.800   3.611   2.292 -0.5311 -0.7185  0.3137
  392MOL0     C51673   6.889   3.684   2.184  0.2782  0.3673 -0.2284
  392MOL0     C51674   6.883   3.590   2.067  1.1008 -0.6713  0.0965
  392MOL0     C51675   6.990   3.619   1.971  0.6027  0.7856  0.4039
  392MOL0     C51676   7.085   3.639   1.897 -0.0456 -0.4557 -0.2809
  392MOL0     C51677   6.498   3.763   2.464  0.1393 -0.3598  0.2285
  392MOL0     C51678   6.363   3.772   2.430  0.5098  0.1154 -0.4703
  392MOL0     H51679   6.020   3.811   2.013  0.6637 -1.7474  3.5360
  392MOL0     H51680   5.780   3.795   1.977 -4.0520  1.7931  0.9097
  392MOL0     H51681   5.535   4.153   2.146 -0.2004 -0.1499  0.2678
  392MOL0     H51682   5.484   4.024   2.252  3.5459  0.0456  0.7346
  392MOL0     H51683   5.309   4.150   2.146 -2.3154 -0.1628 -2.0302
  392MOL0     H51684   5.302   3.969   2.097 -0.2901 -1.3956 -4.4983
  392MOL0     H51685   5.419   4.028   1.890  0.0735  0.3781 -0.4499
  392MOL0     H51686   5.389   4.198   1.919 -0.5751  1.1566  3.1559
  392MOL0     H51687   5.162   3.989   1.911  2.5408 -1.4045  0.4026
  392MOL0     H51688   5.145   4.154   1.949 -0.5650 -0.9776  0.7166
  392MOL0     H51689   5.064   4.078   1.720  0.0566  1.0899 -1.9837
  392MOL0     H51690   5.226   4.051   1.675  0.0182  1.7067 -0.2163
  392MOL0     H51691   5.221   4.321   1.779  0.3540  0.2835 -0.3672
  392MOL0     H51692   5.074   4.301   1.692 -0.8763 -0.7593  2.3186
  392MOL0     H51693   5.365   4.263   1.578  0.0738 -2.2745 -1.3070
  392MOL0     H51694   5.221   4.211   1.484 -0.6980  0.2294 -0.3220
  392MOL0     H51695   5.349   4.438   1.443 -0.7475  1.4358 -2.0505
  392MOL0     H51696   5.257   4.478   1.586  1.5926  3.7529 -2.7321
  392MOL0     H51697   5.006   4.541   1.577 -1.7985 -2.8500  0.0991
  392MOL0     H51698   4.732   4.508   1.302 -0.1665 -2.8509  2.1684
  392MOL0     H51699   4.794   4.661   1.371 -1.0442  0.4944 -0.8034
  392MOL0     H51700   4.762   4.576   1.578  0.2456  2.1167 -2.6714
  392MOL0     H51701   4.760   4.402   1.536  0.3467 -0.1833 -0.9725
  392MOL0     H51702   4.545   4.430   1.401  1.8244  1.9215 -3.2912
  392MOL0     H51703   4.535   4.463   1.581  2.1491 -2.7397 -0.4070
  392MOL0     H51704   4.497   4.655   1.357 -1.8035  0.9254 -0.0204
  392MOL0     H51705   4.577   4.704   1.502  0.5562 -0.5444 -2.6963
  392MOL0     H51706   4.343   4.567   1.258 -1.8979 -1.4530 -1.4895
  392MOL0     H51707   4.135   4.533   1.156 -1.1080  1.6713 -0.4747
  392MOL0     H51708   3.596   4.750   1.385  1.0722  0.8340 -1.0185
  392MOL0     H51709   3.359   4.749   1.294  1.1891  1.3285 -1.3363
  392MOL0     H51710   3.294   4.528   0.956  1.0593  0.5047  2.6199
  392MOL0     H51711   3.161   4.651   1.001  0.4264  0.6532 -0.7025
  392MOL0     H51712   3.035   4.457   1.100 -0.9594 -0.8398 -0.8742
  392MOL0     H51713   3.162   4.346   1.039 -2.7980 -1.3559  0.4907
  392MOL0     H51714   3.112   4.418   0.804  0.2308 -1.3491  0.7516
  392MOL0     H51715   2.998   4.535   0.867  0.9376 -0.3137 -3.6810
  392MOL0     H51716   2.995   4.235   0.902  0.6785 -0.6898 -2.1169
  392MOL0     H51717   2.864   4.345   0.959 -2.7880 -1.8107 -1.3279
  392MOL0     H51718   2.921   4.241   0.672 -2.3050 -1.1830 -0.6706
  392MOL0     H51719   2.788   4.351   0.702  0.2708 -0.5560  1.3267
  392MOL0     H51720   2.703   4.134   0.696 -1.0604  0.1346  0.7440
  392MOL0     H51721   2.710   4.159   0.871 -0.1265 -3.0561  1.3818
  392MOL0     H51722   2.892   3.990   0.688  0.4086  1.5780 -0.8327
  392MOL0     H51723   2.939   4.044   0.855 -0.0645 -1.2476 -0.1386
  392MOL0     H51724   2.748   3.926   0.954  1.1316  2.1832  0.2184
  392MOL0     H51725   2.837   3.815   0.846  1.9182  1.7893 -2.2026
  392MOL0     H51726   3.472   4.380   1.076  3.8003 -3.0874  1.8354
  392MOL0     H51727   3.684   4.397   1.173  0.0112  0.4971 -3.9527
  392MOL0     H51728   3.942   4.685   1.534  0.0393 -0.9152 -0.1262
  392MOL0     H51729   4.135   4.685   1.629 -1.9451  0.3416  0.3544
  392MOL0     H51730   5.706   4.116   2.263 -3.0455 -2.3860 -1.4934
  392MOL0     H51731   5.946   4.106   2.332 -1.9142  1.1656  0.4572
  392MOL0     H51732   6.364   3.974   2.156  1.3603  1.6291  0.1487
  392MOL0     H51733   6.607   3.963   2.204  0.9221  2.6867  3.3903
  392MOL0     H51734   6.715   3.635   2.487 -0.2596  0.2798 -0.6005
  392MOL0     H51735   6.877   3.706   2.470  3.3819 -2.4160 -1.9737
  392MOL0     H51736   6.845   3.517   2.327  2.8162  0.7693  0.3477
  392MOL0     H51737   6.707   3.584   2.242  1.3184 -2.7885 -2.2950
  392MOL0     H51738   6.994   3.698   2.212  1.6736 -2.3738 -3.4333
  392MOL0     H51739   6.849   3.783   2.161  1.9479  0.5117 -2.9794
  392MOL0     H51740   6.897   3.488   2.104 -1.4251 -0.3791  2.1266
  392MOL0     H51741   6.790   3.595   2.009  1.8090 -0.4563 -1.0503
  392MOL0     H51742   7.172   3.655   1.836  1.8319  1.0512  2.5439
  392MOL0     H51743   6.534   3.713   2.553  2.3893 -1.1075 -1.0278
  392MOL0     H51744   6.299   3.731   2.508  0.6508  1.3961  0.3460
  393MOL0     O51745   9.857  11.035   5.475 -0.1600  0.1057 -0.5187
  393MOL0     C51746   9.868  11.066   5.597 -0.0856  0.6433 -1.1163
  393MOL0     O51747   9.770  11.113   5.674 -0.0666  0.4062  0.0813
  393MOL0     C51748   9.640  11.082   5.631  0.0554 -1.7195  0.1040
  393MOL0     C51749   9.597  10.956   5.621  0.7081 -0.0564  0.4933
  393MOL0     C51750   9.461  10.932   5.582 -0.0930  0.6145 -0.1598
  393MOL0     C51751   9.366  11.036   5.568 -0.5346 -0.4135 -0.1093
  393MOL0     O51752   9.230  11.018   5.544 -0.2863 -0.2711 -0.0849
  393MOL0     C51753   9.182  11.063   5.424  0.0260 -0.6956 -0.0156
  393MOL0     C51754   9.080  10.973   5.372 -0.5127  1.0589  0.6895
  393MOL0     C51755   9.009  11.041   5.259 -0.7477 -0.2031  0.8082
  393MOL0     C51756   8.907  10.947   5.195 -0.0557  0.3652  0.2107
  393MOL0     C51757   8.811  11.027   5.109  1.7950 -0.1721  0.4008
  393MOL0     C51758   8.716  11.129   5.188  0.7818  0.7707  0.1832
  393MOL0     C51759   8.623  11.063   5.292  0.4443 -0.6949  0.2339
  393MOL0     C51760   8.525  10.960   5.239 -0.9520 -0.0898 -1.3210
  393MOL0     N51761   8.441  10.997   5.121  0.2146 -0.5869 -0.0045
  393MOL0     C51762   8.312  11.039   5.132 -0.3643  0.1261  0.6234
  393MOL0     C51763   8.277  11.082   5.003  0.0963  0.3136  0.1078
  393MOL0     C51764   8.149  11.142   4.945 -0.4160 -0.1196  0.1048
  393MOL0     C51765   8.020  11.071   4.990 -0.2519  0.5762 -0.7052
  393MOL0     C51766   7.901  11.137   4.926 -0.1723  0.1585  0.2482
  393MOL0     C51767   7.772  11.069   4.936  0.6360 -0.6909 -0.7794
  393MOL0     O51768   7.670  11.159   4.899 -0.5530 -0.5203  0.7089
  393MOL0     C51769   7.539  11.133   4.919  0.2726 -0.0829  0.5146
  393MOL0     C51770   7.490  11.020   4.968 -0.5507 -0.4388  0.4324
  393MOL0     C51771   7.356  10.991   4.974  0.0214  0.1928 -0.0550
  393MOL0     C51772   7.263  11.073   4.915 -0.0970 -0.1094 -0.3130
  393MOL0     C51773   7.119  11.040   4.922  0.1074 -0.3183  0.2181
  393MOL0     O51774   7.030  11.143   4.887 -0.8015  0.2469 -0.0796
  393MOL0     C51775   6.893  11.123   4.922 -0.8312  0.4555  0.0199
  393MOL0     C51776   6.866  11.062   5.049  0.1845  0.2646 -0.9019
  393MOL0     C51777   6.734  11.029   5.080 -0.4288 -0.0523 -0.1983
  393MOL0     C51778   6.630  11.068   4.999 -1.2169 -0.9389  0.3950
  393MOL0     O51779   6.509  11.041   5.048 -0.0502  0.0153 -0.2002
  393MOL0     C51780   6.398  11.129   5.017 -0.4233 -0.0217  1.4267
  393MOL0     C51781   6.288  11.096   5.117 -0.2161  0.1491 -0.6444
  393MOL0     C51782   6.197  11.210   5.122  0.4416 -0.8569  0.0757
  393MOL0     C51783   6.070  11.173   5.205  0.3216 -0.1211  0.6341
  393MOL0     C51784   5.961  11.278   5.223 -0.3192  0.4820  0.3624
  393MOL0     C51785   5.916  11.352   5.100  0.3710  0.0645 -0.1445
  393MOL0     C51786   5.818  11.475   5.126  0.1595 -0.1044  0.1540
  393MOL0     C51787   5.686  11.435   5.196 -0.2752 -0.2891 -0.5307
  393MOL0    Cl51788   5.606  11.586   5.232  0.2907  0.0151 -0.0784
  393MOL0     C51789   6.659  11.133   4.879  0.0256  0.1955 -0.5580
  393MOL0     C51790   6.792  11.153   4.840 -0.5208 -0.9404 -0.3178
  393MOL0     O51791   7.087  10.921   4.953 -0.3593 -0.0846 -0.9651
  393MOL0     C51792   7.309  11.205   4.881 -1.5607  0.7975  0.0413
  393MOL0     C51793   7.449  11.236   4.893 -0.3772 -0.0789  0.4959
  393MOL0     N51794   8.389  11.058   4.925 -0.2780 -0.3563  0.0960
  393MOL0     N51795   8.486  11.001   4.990 -0.0399 -0.2468 -0.0243
  393MOL0     C51796   9.413  11.168   5.578 -0.2010  0.1076 -0.4457
  393MOL0     C51797   9.549  11.187   5.609  0.6495 -0.0333 -0.3312
  393MOL0     C51798  10.002  11.073   5.659  0.6336  0.3344 -0.9444
  393MOL0     C51799  10.112  11.083   5.578 -0.2156 -0.3728  0.7430
  393MOL0     C51800  10.247  11.073   5.624  0.3671  1.3737 -0.0768
  393MOL0     C51801  10.269  11.062   5.755 -0.9290 -0.0581  0.0214
  393MOL0     O51802  10.395  11.071   5.804 -0.4585 -0.1337 -0.7162
  393MOL0     C51803  10.504  11.057   5.722 -0.3218  0.8986 -0.8375
  393MOL0     C51804  10.630  11.058   5.812  0.2569 -0.2189  0.1254
  393MOL0     C51805  10.653  11.193   5.873  1.0801  0.3181 -0.0264
  393MOL0     C51806  10.784  11.195   5.950  0.5028 -0.5969  0.2406
  393MOL0     C51807  10.782  11.128   6.081 -0.6057  0.4885 -0.3650
  393MOL0     C51808  10.797  11.087   6.194  0.0857 -0.6498 -0.8524
  393MOL0     C51809  10.161  11.058   5.849  0.0255  0.3947  0.2564
  393MOL0     C51810  10.028  11.063   5.804  0.2692  0.0325  0.4641
  393MOL0     H51811   9.671  10.878   5.637  1.3526  0.2429 -0.8724
  393MOL0     H51812   9.427  10.829   5.571  1.8257 -0.3106  1.8427
  393MOL0     H51813   9.262  11.084   5.353  0.3807 -0.9869  0.3006
  393MOL0     H51814   9.134  11.155   5.461  1.7984 -0.7160  2.5488
  393MOL0     H51815   9.006  10.941   5.446  0.0263 -0.6999  0.5062
  393MOL0     H51816   9.130  10.883   5.335 -1.5304  0.6530  0.2775
  393MOL0     H51817   9.071  11.081   5.178 -2.1761  2.2259  0.8361
  393MOL0     H51818   8.964  11.131   5.300 -0.3526  0.9582 -1.1844
  393MOL0     H51819   8.952  10.873   5.128 -0.8262 -0.0700  0.1590
  393MOL0     H51820   8.854  10.893   5.274 -0.1247  1.4045  0.8914
  393MOL0     H51821   8.747  10.955   5.058  1.4117  0.0994  0.4948
  393MOL0     H51822   8.869  11.077   5.031  1.2042 -2.1234 -1.3971
  393MOL0     H51823   8.651  11.178   5.116 -1.1372 -1.5314  0.2127
  393MOL0     H51824   8.770  11.205   5.246 -0.6899  1.3940  0.7719
  393MOL0     H51825   8.688  11.015   5.366 -1.1746  0.0400  2.2305
  393MOL0     H51826   8.570  11.139   5.351  0.9409  0.3573 -0.6286
  393MOL0     H51827   8.470  10.926   5.327 -0.3175  1.0197 -0.4578
  393MOL0     H51828   8.577  10.871   5.202  0.0240 -1.0992  2.1306
  393MOL0     H51829   8.256  11.028   5.224 -0.3281  1.0268  0.7674
  393MOL0     H51830   8.141  11.125   4.837 -2.6705  1.8587 -0.1196
  393MOL0     H51831   8.153  11.248   4.968  0.2008 -0.1917  0.3501
  393MOL0     H51832   8.004  11.077   5.098 -2.4069 -1.5779 -0.8252
  393MOL0     H51833   8.031  10.967   4.956  0.3010  0.8918 -1.5370
  393MOL0     H51834   7.887  11.235   4.973 -2.1748 -0.1654  0.4290
  393MOL0     H51835   7.929  11.143   4.821  0.4241 -0.3426  0.3725
  393MOL0     H51836   7.742  11.030   5.035 -1.0022 -0.3474 -1.1005
  393MOL0     H51837   7.765  10.984   4.867 -0.0679 -1.7131  0.4791
  393MOL0     H51838   7.545  10.937   5.010  0.5060  0.1629  0.2710
  393MOL0     H51839   7.322  10.898   5.017  0.2671 -0.3929 -1.0821
  393MOL0     H51840   6.939  11.038   5.125 -1.0825  2.4359  1.1593
  393MOL0     H51841   6.710  10.985   5.176  3.2008  1.5343  1.6228
  393MOL0     H51842   6.374  11.134   4.910  0.6059 -2.2470  1.0293
  393MOL0     H51843   6.431  11.231   5.039  1.1747 -0.3036  0.5322
  393MOL0     H51844   6.325  11.078   5.219 -1.9426  0.3984  0.0658
  393MOL0     H51845   6.232  11.007   5.086  1.1080 -0.3429 -1.6982
  393MOL0     H51846   6.174  11.237   5.019  2.1758 -3.2543 -1.0464
  393MOL0     H51847   6.234  11.301   5.170  0.6173  0.3938 -2.3106
  393MOL0     H51848   6.020  11.088   5.157  1.6511 -0.5238 -0.0809
  393MOL0     H51849   6.099  11.137   5.305  2.5390  0.4325  0.2481
  393MOL0     H51850   5.984  11.362   5.290 -2.1954  0.6466  0.8789
  393MOL0     H51851   5.875  11.228   5.269  0.2133 -1.8823 -1.0927
  393MOL0     H51852   5.859  11.285   5.034 -1.3969  3.1652 -2.0531
  393MOL0     H51853   6.001  11.381   5.038  1.8177 -2.6319  0.4280
  393MOL0     H51854   5.856  11.555   5.190 -3.7966  2.4251 -0.3244
  393MOL0     H51855   5.792  11.536   5.039 -0.1437  3.7367  2.6944
  393MOL0     H51856   5.711  11.381   5.288  0.6816  0.1460 -0.5258
  393MOL0     H51857   5.617  11.387   5.126 -0.2821 -0.4047 -0.4446
  393MOL0     H51858   6.579  11.171   4.816  0.1939 -0.9330 -1.4871
  393MOL0     H51859   6.822  11.208   4.752 -0.0642 -1.1151 -0.2783
  393MOL0     H51860   7.237  11.278   4.845  0.1074  2.0835 -0.8911
  393MOL0     H51861   7.504  11.326   4.868 -0.5437 -0.1964 -0.3261
  393MOL0     H51862   9.352  11.258   5.571 -1.4005 -0.3755  2.2395
  393MOL0     H51863   9.594  11.284   5.630  0.0177  0.1441  0.2645
  393MOL0     H51864  10.100  11.107   5.472 -2.0704  0.3908  1.0982
  393MOL0     H51865  10.323  11.071   5.546  0.8768  1.4059  0.4150
  393MOL0     H51866  10.500  11.138   5.648  0.3996  3.0350  1.3560
  393MOL0     H51867  10.493  10.960   5.672 -0.3379  0.0749  0.7196
  393MOL0     H51868  10.622  10.987   5.895 -2.1208  0.7082  0.7664
  393MOL0     H51869  10.707  11.032   5.739 -0.6890 -0.5158 -0.7892
  393MOL0     H51870  10.566  11.203   5.938  0.6608  0.6148 -0.6216
  393MOL0     H51871  10.645  11.278   5.805  2.3232  0.9773  0.6049
  393MOL0     H51872  10.868  11.158   5.889  0.6241 -0.5128  0.3578
  393MOL0     H51873  10.813  11.299   5.965 -0.0210 -0.6215  1.5349
  393MOL0     H51874  10.820  11.070   6.298  1.8584 -0.4783 -1.1821
  393MOL0     H51875  10.182  11.047   5.955 -0.9418  3.8127  0.9088
  393MOL0     H51876   9.955  11.059   5.885  0.0808 -0.5683  0.2638
  394MOL0     O51877   3.045   7.113   1.416 -0.3259  0.1131  0.1309
  394MOL0     C51878   2.991   7.152   1.314 -0.0641  0.2328 -0.2483
  394MOL0     O51879   3.051   7.181   1.197 -0.2627  0.2923  0.0898
  394MOL0     C51880   3.186   7.165   1.182  0.4470 -0.4895  0.2073
  394MOL0     C51881   3.239   7.051   1.128  0.1044  0.3666  0.7710
  394MOL0     C51882   3.369   7.012   1.123  0.7754  0.2187 -0.1980
  394MOL0     C51883   3.459   7.104   1.174 -0.4119  0.4902 -0.5749
  394MOL0     O51884   3.588   7.062   1.176 -0.5361 -0.1453  0.1495
  394MOL0     C51885   3.690   7.154   1.220  0.1026  0.6234  0.9066
  394MOL0     C51886   3.823   7.087   1.194 -0.3116  0.5059  0.0556
  394MOL0     C51887   3.933   7.165   1.267  0.6484  0.7553  0.6374
  394MOL0     C51888   3.950   7.122   1.420 -1.0520  0.6813 -0.3164
  394MOL0     C51889   4.092   7.118   1.465 -0.1385  0.1513 -0.2810
  394MOL0     C51890   4.108   7.158   1.619 -0.4126  0.3812  0.3449
  394MOL0     C51891   4.264   7.128   1.661 -0.0644  0.0855  0.3632
  394MOL0     C51892   4.287   7.150   1.814 -0.4567  0.3685 -0.1623
  394MOL0     N51893   4.408   7.215   1.858  0.0400  0.8840  0.4518
  394MOL0     C51894   4.434   7.303   1.961 -0.0659  1.1088 -0.7536
  394MOL0     C51895   4.565   7.302   1.969  0.0551  0.0698 -0.2203
  394MOL0     C51896   4.642   7.373   2.081  0.5365 -0.8838 -0.2037
  394MOL0     C51897   4.730   7.492   2.032 -0.1089 -0.3682 -0.7261
  394MOL0     C51898   4.722   7.632   2.097 -0.0373 -0.5244  0.6857
  394MOL0     C51899   4.580   7.684   2.085 -0.1062 -0.0560  0.1275
  394MOL0     O51900   4.580   7.824   2.108  1.0211 -0.4156  0.0635
  394MOL0     C51901   4.458   7.881   2.086  0.4876 -0.7618 -0.0790
  394MOL0     C51902   4.460   8.015   2.045 -0.1327 -0.1072 -0.1421
  394MOL0     C51903   4.344   8.090   2.017 -0.4767 -0.5114 -0.1823
  394MOL0     C51904   4.223   8.031   2.029  0.3612  0.1600  0.4023
  394MOL0     C51905   4.096   8.096   1.995  0.6984 -0.1574 -0.3410
  394MOL0     O51906   4.096   8.203   1.911 -0.0188 -0.5624 -0.2199
  394MOL0     C51907   3.971   8.239   1.872  0.1796 -0.6070  0.1231
  394MOL0     C51908   3.876   8.150   1.816  0.3688 -0.4454 -0.5989
  394MOL0     C51909   3.742   8.195   1.798 -1.1604  0.2213 -0.3681
  394MOL0     C51910   3.705   8.322   1.832  1.0020 -0.1878 -0.0060
  394MOL0     O51911   3.578   8.367   1.806 -0.2287  0.0327  0.0789
  394MOL0     C51912   3.505   8.324   1.684  0.6680 -0.3300  0.8031
  394MOL0     C51913   3.418   8.445   1.638  0.3075  0.1052 -0.1997
  394MOL0     C51914   3.444   8.509   1.500  0.3061  0.1266  0.2655
  394MOL0     C51915   3.317   8.581   1.452 -0.9750 -0.0815 -0.1518
  394MOL0     C51916   3.313   8.725   1.504 -0.2067  1.0524  0.0247
  394MOL0     C51917   3.186   8.805   1.469 -1.2156  0.3143  0.7704
  394MOL0     C51918   3.173   8.820   1.316  0.0235 -0.0867 -0.7753
  394MOL0     C51919   3.046   8.885   1.278 -0.1441  0.0188  0.2608
  394MOL0    Cl51920   3.046   9.061   1.318 -0.1165  0.1272  0.1856
  394MOL0     C51921   3.798   8.408   1.882  0.1984 -0.3754  0.1700
  394MOL0     C51922   3.929   8.367   1.907 -0.1945  1.0360  0.0678
  394MOL0     O51923   3.999   8.050   2.055 -0.3440  0.4013  0.7285
  394MOL0     C51924   4.219   7.891   2.053 -0.7756 -0.0882 -0.6637
  394MOL0     C51925   4.334   7.818   2.081 -1.0519  0.5240  0.6274
  394MOL0     N51926   4.622   7.214   1.881 -0.7809  0.1025 -0.6272
  394MOL0     N51927   4.524   7.168   1.809 -0.0027  0.2336  0.9478
  394MOL0     C51928   3.418   7.229   1.219  0.4584  0.8141  0.3478
  394MOL0     C51929   3.279   7.258   1.223 -0.4956 -0.2299  0.3966
  394MOL0     C51930   2.844   7.164   1.319 -0.4636  0.6645 -0.0677
  394MOL0     C51931   2.772   7.197   1.204  0.3127 -0.0851  0.3016
  394MOL0     C51932   2.641   7.233   1.212  0.2348 -0.4725  0.4695
  394MOL0     C51933   2.579   7.244   1.336 -0.4841  0.5208  0.0252
  394MOL0     O51934   2.455   7.301   1.355  0.4121  0.4430 -0.0193
  394MOL0     C51935   2.378   7.359   1.247 -0.8747  0.0090  0.6140
  394MOL0     C51936   2.284   7.258   1.184  0.4958  0.4927 -0.7223
  394MOL0     C51937   2.157   7.303   1.118  0.4422 -0.3899 -0.0835
  394MOL0     C51938   2.062   7.178   1.082  0.0476  0.4846  0.0767
  394MOL0     C51939   1.948   7.206   0.994 -0.2948 -0.3343  0.2068
  394MOL0     C51940   1.851   7.220   0.922  0.3077 -1.0321  0.1527
  394MOL0     C51941   2.649   7.204   1.456 -0.1166  0.7546 -0.0707
  394MOL0     C51942   2.781   7.160   1.447 -0.0129 -0.0160  0.8426
  394MOL0     H51943   3.174   6.977   1.081 -0.1860  1.5530 -0.7747
  394MOL0     H51944   3.381   6.915   1.076  0.3945  1.1450 -2.3367
  394MOL0     H51945   3.681   7.178   1.326  0.4732  0.7764  0.9040
  394MOL0     H51946   3.672   7.247   1.165 -1.3619 -0.6961 -1.0073
  394MOL0     H51947   3.839   7.081   1.086  2.6086  2.4369  0.2849
  394MOL0     H51948   3.823   6.982   1.226 -0.0206  0.9127  1.4630
  394MOL0     H51949   3.906   7.271   1.256 -0.3136  0.2432 -3.0214
  394MOL0     H51950   4.028   7.155   1.213 -0.0644 -1.3590 -0.2943
  394MOL0     H51951   3.878   7.184   1.474 -1.4902  0.3759 -0.5390
  394MOL0     H51952   3.904   7.023   1.416 -0.2762  0.3024 -0.0242
  394MOL0     H51953   4.155   7.177   1.398  0.2514 -1.1497 -1.0827
  394MOL0     H51954   4.135   7.018   1.462  3.1999  1.4981 -1.6555
  394MOL0     H51955   4.043   7.087   1.671  1.3740 -2.6209 -1.2391
  394MOL0     H51956   4.082   7.262   1.639  0.4030  0.3168  1.8873
  394MOL0     H51957   4.305   7.035   1.623 -3.8819 -1.4076 -0.5897
  394MOL0     H51958   4.319   7.206   1.607 -0.8291 -1.1129 -2.3343
  394MOL0     H51959   4.275   7.055   1.867 -3.2722  0.8027  0.0891
  394MOL0     H51960   4.202   7.197   1.863  1.7365  1.1696  3.2300
  394MOL0     H51961   4.363   7.362   2.019 -1.2775  0.5275 -1.6085
  394MOL0     H51962   4.701   7.300   2.137  0.4866 -0.0482  0.9906
  394MOL0     H51963   4.568   7.418   2.148  0.8186 -1.5527  0.5757
  394MOL0     H51964   4.713   7.515   1.927  0.5462  1.9509 -0.3774
  394MOL0     H51965   4.834   7.459   2.039  0.4742  0.8933 -2.7659
  394MOL0     H51966   4.747   7.631   2.203 -0.2608 -0.3777  0.7416
  394MOL0     H51967   4.798   7.699   2.055 -0.5501 -0.0017  0.5661
  394MOL0     H51968   4.540   7.649   2.180  0.8536  0.7394  0.8502
  394MOL0     H51969   4.529   7.642   1.998  0.6447 -0.1191 -0.2891
  394MOL0     H51970   4.553   8.070   2.035 -1.8627  3.0920  0.2129
  394MOL0     H51971   4.350   8.194   1.988  2.9562 -0.9684 -1.5168
  394MOL0     H51972   3.909   8.051   1.787 -1.3807 -1.4618  0.7120
  394MOL0     H51973   3.671   8.122   1.761 -1.2293  0.5299 -0.8524
  394MOL0     H51974   3.438   8.239   1.699  1.1720 -1.5288 -2.7019
  394MOL0     H51975   3.567   8.291   1.600 -1.5324 -1.3083 -0.5538
  394MOL0     H51976   3.424   8.521   1.716  0.1808  0.1229 -0.2077
  394MOL0     H51977   3.315   8.409   1.639  0.3430 -0.1302 -1.9755
  394MOL0     H51978   3.461   8.432   1.425  0.0979 -0.0521  0.4000
  394MOL0     H51979   3.535   8.569   1.501  2.1564 -2.4690  2.6036
  394MOL0     H51980   3.315   8.588   1.343 -3.4826 -4.9253 -0.6930
  394MOL0     H51981   3.228   8.527   1.485 -3.2691  0.4425 -4.7710
  394MOL0     H51982   3.403   8.775   1.466  0.2943 -0.6602 -1.1735
  394MOL0     H51983   3.319   8.724   1.614  1.9234 -3.5382  0.0864
  394MOL0     H51984   3.190   8.905   1.512  2.5711  2.5573 -3.7841
  394MOL0     H51985   3.098   8.746   1.496 -0.4319 -0.3897  1.8867
  394MOL0     H51986   3.254   8.867   1.259 -0.1978  1.1675 -0.0954
  394MOL0     H51987   3.169   8.715   1.288  1.3503 -0.1015 -0.9619
  394MOL0     H51988   2.963   8.837   1.330 -1.4350 -1.9048 -3.2396
  394MOL0     H51989   3.019   8.857   1.176  0.3900 -2.4188  0.7461
  394MOL0     H51990   3.762   8.510   1.884 -0.2326 -0.4261 -1.9965
  394MOL0     H51991   4.004   8.430   1.953  0.5513 -0.0949  0.4452
  394MOL0     H51992   4.119   7.850   2.053 -0.0222 -2.2782  2.3410
  394MOL0     H51993   4.334   7.716   2.118 -1.1283 -0.3306 -1.5942
  394MOL0     H51994   3.474   7.309   1.267 -0.6996  1.4772  0.6246
  394MOL0     H51995   3.242   7.352   1.263  1.0038  0.0886  1.0958
  394MOL0     H51996   2.822   7.177   1.109  0.2523 -0.1992  0.2942
  394MOL0     H51997   2.596   7.271   1.121  1.8605  3.7110  1.1940
  394MOL0     H51998   2.431   7.416   1.170  1.9237 -2.3399  0.6158
  394MOL0     H51999   2.322   7.438   1.298 -0.4309  0.7629 -0.0504
  394MOL0     H52000   2.347   7.207   1.111  3.4350  2.0635  0.5762
  394MOL0     H52001   2.260   7.198   1.273 -0.7309 -1.0617 -2.0333
  394MOL0     H52002   2.165   7.363   1.026  1.4260 -0.9476 -0.3775
  394MOL0     H52003   2.102   7.373   1.180  0.4083  1.9557 -2.5727
  394MOL0     H52004   2.123   7.120   1.012  0.0990  2.0146 -1.2365
  394MOL0     H52005   2.033   7.125   1.173 -0.9627 -0.2077 -0.6327
  394MOL0     H52006   1.761   7.260   0.880 -0.0353 -0.4825  1.3888
  394MOL0     H52007   2.597   7.211   1.551 -2.0354 -0.3466 -0.9944
  394MOL0     H52008   2.824   7.147   1.546  0.8799  2.7249  0.9020
  395MOL0     O52009   4.100   6.353   4.431 -0.5121 -0.3593 -0.1516
  395MOL0     C52010   4.161   6.304   4.334 -0.0799 -0.3591 -0.4141
  395MOL0     O52011   4.115   6.213   4.247  0.3649  0.7289  0.2770
  395MOL0     C52012   3.987   6.167   4.264  0.5143 -0.2227 -0.4256
  395MOL0     C52013   3.876   6.242   4.233 -0.6370 -0.1615  0.0056
  395MOL0     C52014   3.753   6.194   4.266 -0.4528  0.5810 -0.0115
  395MOL0     C52015   3.733   6.066   4.319 -0.5048 -0.5057 -0.5375
  395MOL0     O52016   3.605   6.036   4.346 -0.1123 -0.1516 -0.0120
  395MOL0     C52017   3.567   5.906   4.400  0.3872 -0.6213 -0.6354
  395MOL0     C52018   3.415   5.898   4.390 -0.4049  0.1666  0.5560
  395MOL0     C52019   3.344   6.009   4.467 -0.0757 -0.6281 -1.1042
  395MOL0     C52020   3.194   5.980   4.480 -0.5257 -0.7750  0.7335
  395MOL0     C52021   3.121   6.082   4.572 -0.5587  0.5431  0.0251
  395MOL0     C52022   2.979   6.038   4.622  0.7689 -0.1653  0.1704
  395MOL0     C52023   2.868   6.137   4.579  0.3892  0.4279  0.4568
  395MOL0     C52024   2.751   6.143   4.675 -0.4492 -0.3226 -0.1895
  395MOL0     N52025   2.693   6.000   4.679  0.2328 -0.3081 -0.3180
  395MOL0     C52026   2.660   5.926   4.569  0.7313  0.4041 -0.3606
  395MOL0     C52027   2.678   5.800   4.617  0.1722 -0.1718  0.4189
  395MOL0     C52028   2.693   5.669   4.547 -0.0120  0.9813  0.1636
  395MOL0     C52029   2.563   5.624   4.487  0.2881 -0.3716 -1.0749
  395MOL0     C52030   2.435   5.646   4.565 -0.3589 -0.0615  0.4177
  395MOL0     C52031   2.326   5.551   4.513  0.3504 -0.1664 -0.1163
  395MOL0     O52032   2.302   5.543   4.373 -0.9229 -0.4024 -0.3667
  395MOL0     C52033   2.212   5.461   4.323  1.0171  0.0160  0.3898
  395MOL0     C52034   2.088   5.428   4.385 -0.0635 -0.0974 -0.2845
  395MOL0     C52035   2.005   5.340   4.325 -0.3170  0.4126  0.2696
  395MOL0     C52036   2.041   5.279   4.197  0.7215  0.2131  0.1448
  395MOL0     C52037   1.960   5.175   4.133  0.1941  0.6625 -0.7339
  395MOL0     O52038   1.840   5.139   4.191  0.1515 -0.5269 -0.0538
  395MOL0     C52039   1.761   5.040   4.139  0.6643  0.2870  0.3427
  395MOL0     C52040   1.652   5.079   4.055  0.1420  0.0476  0.2145
  395MOL0     C52041   1.568   4.983   3.995  0.4167 -0.2576 -0.4668
  395MOL0     C52042   1.612   4.850   3.994  0.6935 -0.8017  0.0453
  395MOL0     O52043   1.535   4.759   3.928 -0.0677  0.2571 -0.4760
  395MOL0     C52044   1.593   4.638   3.875  0.3925 -0.4665 -0.7771
  395MOL0     C52045   1.474   4.550   3.823  0.8354 -0.0297 -0.0805
  395MOL0     C52046   1.519   4.457   3.708  0.0826  0.0178  0.5325
  395MOL0     C52047   1.631   4.356   3.744  0.1420  0.4553  0.5063
  395MOL0     C52048   1.589   4.260   3.855  0.4255  0.0565 -1.0585
  395MOL0     C52049   1.699   4.170   3.900 -0.3319  1.1842  0.2429
  395MOL0     C52050   1.827   4.232   3.948  0.3899 -0.0041 -0.1151
  395MOL0     C52051   1.921   4.114   3.984 -0.6627  0.4781  0.2757
  395MOL0    Cl52052   2.089   4.201   3.973 -0.1102 -0.2228 -0.3471
  395MOL0     C52053   1.731   4.816   4.065 -0.2825 -0.6555 -0.1516
  395MOL0     C52054   1.800   4.906   4.149  0.2797 -0.4776  0.4974
  395MOL0     O52055   2.002   5.137   4.024  0.4303 -0.3390  0.3747
  395MOL0     C52056   2.170   5.312   4.138  0.5899  0.2157  0.0628
  395MOL0     C52057   2.247   5.409   4.197 -1.2412 -0.4043  1.0523
  395MOL0     N52058   2.693   5.804   4.745 -0.4005 -0.0208 -0.1958
  395MOL0     N52059   2.708   5.921   4.790  0.4855  0.6469 -0.1426
  395MOL0     C52060   3.848   5.980   4.335  0.4879 -0.1091  0.1425
  395MOL0     C52061   3.977   6.034   4.309 -0.1499  0.5041 -0.1759
  395MOL0     C52062   4.304   6.354   4.312 -0.0321 -0.5186  0.1696
  395MOL0     C52063   4.382   6.309   4.199 -0.3590 -0.5510 -0.3622
  395MOL0     C52064   4.523   6.344   4.191  0.3733 -0.8477 -0.0150
  395MOL0     C52065   4.586   6.402   4.299  0.0540  0.3374 -0.1373
  395MOL0     O52066   4.726   6.391   4.311  0.4976  0.3445  0.3418
  395MOL0     C52067   4.782   6.526   4.286  0.4198 -0.8308 -0.3875
  395MOL0     C52068   4.919   6.545   4.358 -0.2728 -0.3631 -0.4046
  395MOL0     C52069   4.987   6.414   4.410  0.6280  0.5459  0.2695
  395MOL0     C52070   5.135   6.444   4.435 -0.4692  0.2864 -0.5207
  395MOL0     C52071   5.166   6.549   4.529 -0.7147  0.1200  0.5535
  395MOL0     C52072   5.200   6.623   4.617 -0.0921  0.2615 -0.2460
  395MOL0     C52073   4.513   6.435   4.407 -0.2077  0.6332  0.2934
  395MOL0     C52074   4.377   6.415   4.418  0.2428 -0.5869  0.4917
  395MOL0     H52075   3.897   6.339   4.191  1.9295 -0.8310 -0.4007
  395MOL0     H52076   3.663   6.253   4.248  0.0676  1.3150 -0.2757
  395MOL0     H52077   3.607   5.892   4.501 -0.1030 -0.7799 -0.4576
  395MOL0     H52078   3.623   5.824   4.355 -0.2797 -2.1672  1.2418
  395MOL0     H52079   3.384   5.806   4.439 -1.6035  0.4363  0.3335
  395MOL0     H52080   3.379   5.898   4.287  0.3815  0.5082  0.2692
  395MOL0     H52081   3.352   6.100   4.407  0.8847 -0.5560 -0.8767
  395MOL0     H52082   3.395   6.042   4.558 -1.2308  0.0986 -0.6889
  395MOL0     H52083   3.152   5.982   4.378  0.0585  2.4913  0.4576
  395MOL0     H52084   3.180   5.879   4.520 -1.0536 -0.9825  0.0553
  395MOL0     H52085   3.110   6.180   4.525  0.0925  2.3489  3.3296
  395MOL0     H52086   3.178   6.095   4.664 -0.1492 -1.6999  0.1607
  395MOL0     H52087   2.989   6.041   4.731  2.2479  1.0535  0.0298
  395MOL0     H52088   2.955   5.935   4.595  1.3301 -0.9636  2.5107
  395MOL0     H52089   2.911   6.237   4.567  4.5472 -1.2693 -0.3887
  395MOL0     H52090   2.843   6.099   4.479  1.5616 -1.2138  0.7473
  395MOL0     H52091   2.668   6.203   4.637 -0.0504 -0.1378 -0.7823
  395MOL0     H52092   2.784   6.181   4.772  2.7022 -3.0641 -0.0417
  395MOL0     H52093   2.655   5.960   4.466  1.8023  1.4560 -0.0755
  395MOL0     H52094   2.727   5.589   4.614  1.4692  0.5541 -1.0596
  395MOL0     H52095   2.771   5.676   4.472  1.8256 -0.3118  1.8484
  395MOL0     H52096   2.579   5.520   4.457  0.2364 -1.4967  2.3360
  395MOL0     H52097   2.548   5.691   4.402 -0.1426  0.6403 -0.2321
  395MOL0     H52098   2.449   5.611   4.668  0.0764 -1.7475 -0.1751
  395MOL0     H52099   2.411   5.752   4.565  3.5168  0.9733 -0.1933
  395MOL0     H52100   2.234   5.581   4.565  1.7354  0.2803  2.2565
  395MOL0     H52101   2.355   5.455   4.555 -2.6011 -0.6453  1.1158
  395MOL0     H52102   2.052   5.471   4.478  0.3179 -0.7053  0.1454
  395MOL0     H52103   1.916   5.315   4.382  1.0192  0.4936  2.4920
  395MOL0     H52104   1.640   5.185   4.037  1.9121 -0.0840 -2.2871
  395MOL0     H52105   1.485   5.004   3.928  0.4860 -0.6438 -0.6775
  395MOL0     H52106   1.647   4.585   3.954 -1.2123  0.6357  1.1594
  395MOL0     H52107   1.657   4.652   3.786 -0.7140  1.8312 -1.2954
  395MOL0     H52108   1.386   4.603   3.786  0.9587 -1.1698 -2.1719
  395MOL0     H52109   1.432   4.488   3.903 -0.8484  0.7909 -0.2857
  395MOL0     H52110   1.557   4.510   3.620  2.5704 -2.9083 -0.3268
  395MOL0     H52111   1.426   4.406   3.680 -1.7745  1.4368  3.6643
  395MOL0     H52112   1.674   4.300   3.660  2.0114 -0.9095  2.2786
  395MOL0     H52113   1.707   4.420   3.789 -0.9536  1.1143  1.4660
  395MOL0     H52114   1.500   4.205   3.822  1.3985 -1.4376 -1.2738
  395MOL0     H52115   1.549   4.315   3.941  0.9531  0.3869 -1.0186
  395MOL0     H52116   1.726   4.110   3.813 -0.6329  1.7270 -0.2323
  395MOL0     H52117   1.660   4.100   3.974 -0.6715  1.1037 -0.0127
  395MOL0     H52118   1.872   4.297   3.873  0.7610  1.3350  1.2147
  395MOL0     H52119   1.814   4.300   4.033  2.5327 -0.7512  0.8877
  395MOL0     H52120   1.899   4.032   3.915 -1.6843  0.4845  0.5828
  395MOL0     H52121   1.906   4.077   4.086 -1.2234 -0.1918 -0.0404
  395MOL0     H52122   1.773   4.717   4.053  1.6705 -0.3950  3.3171
  395MOL0     H52123   1.898   4.876   4.185 -0.5471 -1.6304  1.8392
  395MOL0     H52124   2.210   5.272   4.046  1.0620  1.8013 -0.4435
  395MOL0     H52125   2.338   5.448   4.152 -2.1304  1.6527  0.9194
  395MOL0     H52126   3.841   5.880   4.374 -1.1690  0.5484  1.6374
  395MOL0     H52127   4.066   5.973   4.318  0.3547  1.1900 -0.3775
  395MOL0     H52128   4.328   6.234   4.143  0.1230 -1.1592 -0.0250
  395MOL0     H52129   4.584   6.299   4.113  2.3651  3.7604 -1.4579
  395MOL0     H52130   4.716   6.609   4.314  2.4201  0.5546  0.4902
  395MOL0     H52131   4.800   6.530   4.178 -0.5664 -1.7635 -0.5968
  395MOL0     H52132   4.974   6.605   4.285  1.8371 -0.6355  0.8714
  395MOL0     H52133   4.904   6.609   4.445 -0.8841 -1.3815  0.2599
  395MOL0     H52134   4.978   6.328   4.342 -1.7474 -0.1102  1.2836
  395MOL0     H52135   4.934   6.376   4.498 -1.9737  1.2150 -0.8943
  395MOL0     H52136   5.181   6.352   4.470 -0.8308  0.7988  1.4018
  395MOL0     H52137   5.179   6.467   4.337 -0.0043  1.0867 -0.1293
  395MOL0     H52138   5.245   6.657   4.708  0.3813  2.3520 -1.2056
  395MOL0     H52139   4.577   6.465   4.491  1.6949 -0.4484 -0.7064
  395MOL0     H52140   4.328   6.439   4.512 -0.4270 -0.6712  0.1725
  396MOL0     O52141   0.680   1.731  11.007  0.9341  0.1522 -0.1311
  396MOL0     C52142   0.771   1.705  10.928  0.3290  0.2957 -0.3357
  396MOL0     O52143   0.750   1.634  10.814 -0.4174 -0.4446  0.0715
  396MOL0     C52144   0.627   1.594  10.774 -0.2871 -0.0166  0.3161
  396MOL0     C52145   0.572   1.472  10.821 -0.3641  0.4530 -0.2067
  396MOL0     C52146   0.438   1.452  10.791  0.0272  0.7883  1.4192
  396MOL0     C52147   0.363   1.528  10.700  1.1787 -1.1212 -0.8027
  396MOL0     O52148   0.244   1.472  10.665 -0.5392  0.1543  0.3937
  396MOL0     C52149   0.133   1.567  10.674  0.5893  0.5411  0.1876
  396MOL0     C52150   0.055   1.563  10.814  0.4619 -0.4863  0.8876
  396MOL0     C52151   0.049   1.420  10.850 -0.0448 -0.3304  0.4404
  396MOL0     C52152  -0.032   1.401  10.982  1.8808  0.7562  0.7267
  396MOL0     C52153  -0.056   1.252  11.007  0.6007 -0.4454  0.6652
  396MOL0     C52154  -0.149   1.243  11.127  0.0066 -0.1502  0.3288
  396MOL0     C52155  -0.153   1.094  11.174  0.7264 -0.7098 -0.3719
  396MOL0     C52156  -0.223   1.070  11.308 -1.3304  0.0357  0.1682
  396MOL0     N52157  -0.367   1.073  11.298 -0.5261 -0.0652  0.3177
  396MOL0     C52158  -0.437   1.193  11.306  0.1648  0.1898  0.1945
  396MOL0     C52159  -0.566   1.156  11.319  0.5896  0.4475  0.2396
  396MOL0     C52160  -0.685   1.247  11.349 -0.0068  1.2120  0.0695
  396MOL0     C52161  -0.820   1.177  11.356 -0.0695  0.3840  0.6075
  396MOL0     C52162  -0.833   1.082  11.473  0.3004  0.9042 -0.3567
  396MOL0     C52163  -0.968   1.018  11.456  0.0148  0.0138 -0.6321
  396MOL0     O52164  -1.077   1.118  11.471  0.1540  0.8283  0.3317
  396MOL0     C52165  -1.190   1.096  11.547 -0.1798 -0.9928  0.4098
  396MOL0     C52166  -1.251   1.222  11.572  0.0569 -0.2436  0.2366
  396MOL0     C52167  -1.362   1.230  11.668 -0.3372  0.5349  0.0235
  396MOL0     C52168  -1.410   1.117  11.733  0.1366 -0.6779  0.7028
  396MOL0     C52169  -1.521   1.106  11.838 -0.1305  0.3708 -0.3258
  396MOL0     O52170  -1.554   1.225  11.902 -0.2994  0.5138 -0.3791
  396MOL0     C52171  -1.665   1.232  11.990 -1.0100  0.4184 -0.3077
  396MOL0     C52172  -1.655   1.330  12.087  1.4671  0.4073 -0.2059
  396MOL0     C52173  -1.770   1.353  12.172 -0.5353 -1.0403  0.2147
  396MOL0     C52174  -1.890   1.276  12.154 -0.2792  0.1704  0.4031
  396MOL0     O52175  -2.005   1.289  12.223  0.4167 -0.1026 -0.0467
  396MOL0     C52176  -2.026   1.392  12.322  0.0217  0.0073 -0.5098
  396MOL0     C52177  -2.169   1.396  12.358 -0.0984 -1.6066  0.1577
  396MOL0     C52178  -2.240   1.541  12.351  0.0538  0.0305  0.7163
  396MOL0     C52179  -2.202   1.624  12.474 -0.2575  0.1842  0.6313
  396MOL0     C52180  -2.259   1.774  12.478 -0.0500  0.1140  0.6697
  396MOL0     C52181  -2.416   1.783  12.500 -0.0559 -0.3530  0.1569
  396MOL0     C52182  -2.455   1.741  12.648 -0.1786 -0.0127  0.7119
  396MOL0     C52183  -2.596   1.803  12.690 -0.1681 -0.0915 -0.3708
  396MOL0    Cl52184  -2.738   1.717  12.625  0.5566 -0.3626  0.1224
  396MOL0     C52185  -1.888   1.174  12.058  0.3894 -0.0381  1.4401
  396MOL0     C52186  -1.783   1.155  11.971 -0.7515 -0.1880 -0.5735
  396MOL0     O52187  -1.581   0.996  11.859 -0.4217 -0.0972  0.9389
  396MOL0     C52188  -1.356   0.996  11.698 -0.0017  0.2345  0.1764
  396MOL0     C52189  -1.242   0.979  11.604 -0.1156 -0.0507 -0.2573
  396MOL0     N52190  -0.574   1.019  11.292 -0.5837 -0.7107 -0.5200
  396MOL0     N52191  -0.453   0.974  11.279 -0.5718 -0.3479 -0.1067
  396MOL0     C52192   0.415   1.647  10.663  0.4418 -1.0200  0.4737
  396MOL0     C52193   0.543   1.685  10.697 -0.0557  0.9003 -0.3072
  396MOL0     C52194   0.902   1.766  10.964  0.5408 -0.3911 -0.1187
  396MOL0     C52195   1.018   1.757  10.885  0.8958  0.3498 -0.1723
  396MOL0     C52196   1.133   1.829  10.904 -0.6108 -0.8201  0.3588
  396MOL0     C52197   1.141   1.929  11.004  0.2959  0.3234  0.5503
  396MOL0     O52198   1.257   2.009  11.022  0.5213  0.1882  0.3890
  396MOL0     C52199   1.277   2.090  10.908 -0.2906  0.5737  0.3276
  396MOL0     C52200   1.348   2.222  10.940  0.3215 -0.0256 -0.1560
  396MOL0     C52201   1.275   2.303  11.050 -0.0140  0.1379 -0.0482
  396MOL0     C52202   1.282   2.460  11.041 -0.3511  0.5344 -0.0298
  396MOL0     C52203   1.410   2.518  11.086  0.3769 -0.3946  0.0207
  396MOL0     C52204   1.514   2.584  11.103  0.0920  0.3968 -0.1136
  396MOL0     C52205   1.023   1.937  11.094 -0.1521  0.4485  0.4707
  396MOL0     C52206   0.907   1.858  11.066 -0.8802  0.0706 -0.4367
  396MOL0     H52207   0.617   1.398  10.886 -0.4361  2.9361  2.9324
  396MOL0     H52208   0.383   1.378  10.847  0.6332  0.8164  2.0707
  396MOL0     H52209   0.062   1.528  10.601  1.6915  1.1114 -1.2426
  396MOL0     H52210   0.153   1.669  10.638  1.9216 -0.0989 -0.9685
  396MOL0     H52211  -0.040   1.615  10.807  1.3736  1.0359 -1.5927
  396MOL0     H52212   0.113   1.624  10.884  1.7240  0.1597 -0.6569
  396MOL0     H52213   0.147   1.372  10.854  1.2165  1.0998 -4.7531
  396MOL0     H52214  -0.001   1.367  10.768  1.6634  0.4131 -1.1557
  396MOL0     H52215   0.021   1.444  11.067 -0.5565  0.1390  2.6567
  396MOL0     H52216  -0.126   1.456  10.976  1.6071  0.3629  1.3248
  396MOL0     H52217   0.043   1.210  11.028  1.0106 -1.3549 -2.6668
  396MOL0     H52218  -0.099   1.203  10.920  2.8245  1.7228 -1.8300
  396MOL0     H52219  -0.254   1.266  11.109 -0.0529 -0.9225 -0.4394
  396MOL0     H52220  -0.114   1.311  11.204 -0.8110 -1.5007  1.9549
  396MOL0     H52221  -0.205   1.035  11.098 -0.5043 -0.5143  0.2915
  396MOL0     H52222  -0.053   1.055  11.195  0.7295 -0.3004  0.4300
  396MOL0     H52223  -0.185   1.131  11.391 -2.9944 -2.0761  2.6344
  396MOL0     H52224  -0.190   0.973  11.346 -0.6799 -0.1057 -0.7051
  396MOL0     H52225  -0.399   1.295  11.300 -0.8394  0.5118 -1.7367
  396MOL0     H52226  -0.695   1.314  11.263 -5.3175  0.7239 -0.0201
  396MOL0     H52227  -0.661   1.316  11.430 -0.2762  1.0004  0.3373
  396MOL0     H52228  -0.835   1.122  11.263  1.6054  0.2165  0.4011
  396MOL0     H52229  -0.894   1.256  11.346 -1.5074 -0.5614  2.9131
  396MOL0     H52230  -0.751   1.010  11.466  0.8481  1.6178 -1.5689
  396MOL0     H52231  -0.826   1.135  11.568  1.8183 -1.5061  0.9844
  396MOL0     H52232  -0.979   0.940  11.533 -1.3104 -0.9806 -1.7946
  396MOL0     H52233  -0.978   0.959  11.365  0.3709 -3.0417  1.1538
  396MOL0     H52234  -1.223   1.315  11.524 -1.6618  1.4392  2.2814
  396MOL0     H52235  -1.406   1.327  11.689  2.8792  2.2760 -0.5661
  396MOL0     H52236  -1.568   1.393  12.103  1.0620  0.6094  1.3568
  396MOL0     H52237  -1.747   1.415  12.258  2.6850 -1.5860 -0.1321
  396MOL0     H52238  -1.990   1.484  12.275  1.4809  0.6760  1.7893
  396MOL0     H52239  -1.968   1.379  12.414 -1.1656  4.3449  1.0736
  396MOL0     H52240  -2.187   1.352  12.457  2.0399  0.7075  1.7211
  396MOL0     H52241  -2.230   1.342  12.286 -2.5051 -1.9101  2.2589
  396MOL0     H52242  -2.348   1.525  12.363  0.2697 -1.5523  0.7611
  396MOL0     H52243  -2.219   1.592  12.256  0.0680  0.7433  1.0901
  396MOL0     H52244  -2.245   1.562  12.553 -1.5878  0.5325  0.2074
  396MOL0     H52245  -2.093   1.631  12.480  0.2022 -4.2490  0.6862
  396MOL0     H52246  -2.243   1.831  12.386  2.9770 -2.6438 -0.7024
  396MOL0     H52247  -2.192   1.815  12.555 -1.2226  0.2621  1.6476
  396MOL0     H52248  -2.464   1.712  12.433 -0.4425  0.9688 -1.0135
  396MOL0     H52249  -2.456   1.882  12.477  0.3269  0.4932  2.8229
  396MOL0     H52250  -2.457   1.632  12.658  1.4736 -0.1433  0.0056
  396MOL0     H52251  -2.378   1.778  12.717  3.3112 -0.4271 -2.6427
  396MOL0     H52252  -2.595   1.909  12.665 -0.4293  0.1192  0.5056
  396MOL0     H52253  -2.601   1.803  12.799 -1.8467 -0.1613 -0.4282
  396MOL0     H52254  -1.972   1.105  12.056  1.2582 -1.0992  0.1999
  396MOL0     H52255  -1.793   1.078  11.896 -0.2820 -0.5314 -0.2872
  396MOL0     H52256  -1.406   0.908  11.737 -1.1640 -0.3789 -2.4632
  396MOL0     H52257  -1.193   0.886  11.577 -1.2438 -0.5560 -0.6271
  396MOL0     H52258   0.358   1.718  10.603  3.9145  0.8901 -0.8760
  396MOL0     H52259   0.569   1.788  10.673 -1.0415  1.1448 -0.3800
  396MOL0     H52260   1.012   1.681  10.807  1.4816  0.6896 -0.5657
  396MOL0     H52261   1.223   1.814  10.844  0.9137  3.2609  1.2621
  396MOL0     H52262   1.180   2.109  10.862  0.2435 -2.2973 -2.3440
  396MOL0     H52263   1.318   2.034  10.824 -1.3194 -1.9249  1.3664
  396MOL0     H52264   1.451   2.205  10.971  0.4046 -0.6474 -0.7630
  396MOL0     H52265   1.356   2.286  10.851  1.6535  3.2950  2.1534
  396MOL0     H52266   1.327   2.293  11.146 -0.8110 -0.6649  0.3179
  396MOL0     H52267   1.176   2.258  11.062  0.3171 -0.2162  1.6957
  396MOL0     H52268   1.262   2.487  10.938 -1.4615  0.3076  0.1162
  396MOL0     H52269   1.203   2.498  11.106 -2.0825 -2.5318 -0.1342
  396MOL0     H52270   1.608   2.630  11.123 -0.1116  0.7885 -0.0538
  396MOL0     H52271   1.015   2.000  11.182 -0.5498  1.7800 -0.4760
  396MOL0     H52272   0.825   1.861  11.137 -2.2512 -1.3726 -1.8905
  397MOL0     O52273   9.201   8.463   2.181 -0.2792  0.3350 -0.0567
  397MOL0     C52274   9.249   8.371   2.116  0.7723  0.2311  0.4875
  397MOL0     O52275   9.186   8.253   2.090  0.0490  0.1893  0.1968
  397MOL0     C52276   9.049   8.246   2.113  0.6865  0.0710  0.1643
  397MOL0     C52277   8.999   8.112   2.143  0.4127 -0.2252 -1.2576
  397MOL0     C52278   8.859   8.101   2.165  0.9093 -0.3867 -0.7859
  397MOL0     C52279   8.764   8.206   2.136 -0.1747  0.3936  0.2898
  397MOL0     O52280   8.628   8.207   2.159 -0.2969 -0.4139  0.2535
  397MOL0     C52281   8.548   8.107   2.221 -0.6030 -1.2881  0.3907
  397MOL0     C52282   8.439   8.056   2.130  0.0614 -0.0064 -0.0641
  397MOL0     C52283   8.367   7.950   2.212  0.6425  0.2534  0.1566
  397MOL0     C52284   8.243   7.912   2.137  0.6132 -0.0871 -0.4860
  397MOL0     C52285   8.164   7.798   2.205  0.1132 -0.1927 -0.0453
  397MOL0     C52286   8.024   7.789   2.143 -0.3254 -0.4890  0.2782
  397MOL0     C52287   7.940   7.683   2.203  0.2844 -0.4160  0.0873
  397MOL0     C52288   7.871   7.713   2.343 -0.2716  0.2775  0.5536
  397MOL0     N52289   7.750   7.622   2.363  0.2440  0.4307 -0.0335
  397MOL0     C52290   7.653   7.652   2.463 -0.1954  0.0900 -0.3329
  397MOL0     C52291   7.553   7.563   2.444  0.9975  0.0136 -0.2351
  397MOL0     C52292   7.417   7.565   2.510 -0.2927  0.4614  1.0206
  397MOL0     C52293   7.315   7.468   2.446 -0.5159 -0.2392  0.6447
  397MOL0     C52294   7.254   7.543   2.323  0.2505 -0.2497 -0.1096
  397MOL0     C52295   7.135   7.476   2.271  0.9887  0.4514  0.6529
  397MOL0     O52296   7.037   7.482   2.375  0.1775  0.2308  0.7349
  397MOL0     C52297   6.911   7.431   2.361  0.0822  0.1451  0.2797
  397MOL0     C52298   6.843   7.407   2.239 -0.3400  1.2213  0.6415
  397MOL0     C52299   6.719   7.339   2.227 -0.3375 -1.0671 -0.1364
  397MOL0     C52300   6.646   7.325   2.344 -1.1167  0.2523 -0.1279
  397MOL0     C52301   6.499   7.285   2.340 -1.1804  0.2170 -0.1660
  397MOL0     O52302   6.433   7.320   2.218  0.2556  0.0628 -0.6232
  397MOL0     C52303   6.303   7.286   2.191 -0.1138  0.1919 -0.0048
  397MOL0     C52304   6.204   7.370   2.247  0.4907 -0.1399 -0.1481
  397MOL0     C52305   6.066   7.328   2.233  0.2306 -0.9558  0.2959
  397MOL0     C52306   6.038   7.209   2.168 -0.1386  0.2850  0.8780
  397MOL0     O52307   5.902   7.196   2.165  0.7473 -0.2075 -0.0993
  397MOL0     C52308   5.850   7.060   2.167 -0.0329 -0.1467  0.5008
  397MOL0     C52309   5.701   7.049   2.194  0.3377  0.3101  0.5837
  397MOL0     C52310   5.658   7.065   2.342 -0.7277 -0.2877  0.1566
  397MOL0     C52311   5.509   7.034   2.357 -0.2421 -0.6591 -0.9145
  397MOL0     C52312   5.467   7.101   2.494  0.6245 -0.4960  1.1074
  397MOL0     C52313   5.314   7.085   2.515 -0.7629 -0.5584 -0.0085
  397MOL0     C52314   5.271   7.153   2.649 -0.4882 -1.3547 -0.4116
  397MOL0     C52315   5.120   7.143   2.647  0.4236  0.6919 -0.0075
  397MOL0    Cl52316   5.059   6.972   2.650  0.6884  0.8176  0.2954
  397MOL0     C52317   6.138   7.124   2.119 -0.7676  0.4117  0.4183
  397MOL0     C52318   6.274   7.161   2.131  0.8812  0.0537  0.3955
  397MOL0     O52319   6.453   7.221   2.427  0.4258 -0.1947 -0.2812
  397MOL0     C52320   6.703   7.360   2.470  0.5296  0.0680  0.4017
  397MOL0     C52321   6.835   7.411   2.478 -0.3615 -0.2177 -0.0004
  397MOL0     N52322   7.583   7.490   2.327  0.4278  0.5659 -0.1985
  397MOL0     N52323   7.700   7.525   2.284  0.3459 -0.4361  0.2088
  397MOL0     C52324   8.812   8.327   2.097 -0.9541  0.7794 -0.0009
  397MOL0     C52325   8.952   8.345   2.084  0.0107 -0.4849  0.6256
  397MOL0     C52326   9.391   8.387   2.073  0.7363 -0.0780  0.1759
  397MOL0     C52327   9.466   8.503   2.110 -0.3827 -0.0540  0.8417
  397MOL0     C52328   9.593   8.522   2.062  0.2457  0.4461 -0.1089
  397MOL0     C52329   9.655   8.415   1.991  0.1077 -1.5326  0.7892
  397MOL0     O52330   9.780   8.444   1.946 -0.3315  0.2534  0.5767
  397MOL0     C52331   9.817   8.365   1.836  0.1534 -0.6651  0.1109
  397MOL0     C52332   9.948   8.415   1.768  0.0513 -0.0276  0.2393
  397MOL0     C52333   9.909   8.543   1.687 -0.7236 -0.7837 -0.5642
  397MOL0     C52334   9.991   8.660   1.746  0.0702 -0.3355  0.2116
  397MOL0     C52335   9.956   8.789   1.692 -0.5893  0.1750 -0.3452
  397MOL0     C52336   9.922   8.895   1.644 -0.8354  0.0306  0.3893
  397MOL0     C52337   9.593   8.296   1.975  0.4010 -0.3152 -0.3762
  397MOL0     C52338   9.459   8.279   2.016  0.8469  0.8417 -0.7846
  397MOL0     H52339   9.057   8.021   2.146  2.0634  0.7494 -2.3961
  397MOL0     H52340   8.817   8.005   2.194  0.2221  0.8976  3.0243
  397MOL0     H52341   8.509   8.162   2.308  3.5973 -1.2945  2.5428
  397MOL0     H52342   8.616   8.033   2.264 -1.5324 -1.2081  2.1213
  397MOL0     H52343   8.480   8.021   2.035  1.0683  0.7361  0.0731
  397MOL0     H52344   8.368   8.138   2.113 -1.2772 -0.8358  1.2423
  397MOL0     H52345   8.347   7.992   2.311 -1.2613 -1.5058  0.6012
  397MOL0     H52346   8.426   7.863   2.241  0.9747  0.0666 -1.0210
  397MOL0     H52347   8.183   8.003   2.143  0.0200 -0.5614  2.8615
  397MOL0     H52348   8.274   7.888   2.035 -1.2661 -0.9620 -0.8935
  397MOL0     H52349   8.156   7.825   2.310  0.4500  1.9178 -0.5142
  397MOL0     H52350   8.216   7.702   2.197 -1.9796 -1.5468  1.6894
  397MOL0     H52351   8.034   7.771   2.035 -3.1158  1.1425 -0.3431
  397MOL0     H52352   7.964   7.879   2.151 -2.4456 -2.0203  3.2937
  397MOL0     H52353   7.857   7.672   2.132  0.3041 -2.1531  0.2766
  397MOL0     H52354   7.979   7.581   2.209 -0.2670 -0.5755  1.2695
  397MOL0     H52355   7.839   7.817   2.345 -1.4812  0.0148 -2.0797
  397MOL0     H52356   7.943   7.691   2.423  0.2542 -1.0102 -0.2374
  397MOL0     H52357   7.648   7.728   2.540  0.0465 -0.6493  0.4230
  397MOL0     H52358   7.391   7.671   2.513  0.8072  0.8441 -0.9533
  397MOL0     H52359   7.424   7.522   2.610 -0.9346 -0.5682  0.6305
  397MOL0     H52360   7.247   7.453   2.531 -0.4386  0.3656  0.8201
  397MOL0     H52361   7.361   7.374   2.416 -2.4766  0.0657 -4.2639
  397MOL0     H52362   7.225   7.643   2.357 -3.8156 -1.8614  1.9604
  397MOL0     H52363   7.324   7.561   2.241  0.2883  0.0482 -0.0145
  397MOL0     H52364   7.158   7.381   2.222 -0.9085  0.6665 -0.8078
  397MOL0     H52365   7.093   7.531   2.185 -1.8430  2.0207  2.8676
  397MOL0     H52366   6.881   7.428   2.139 -0.2836 -4.0315 -0.7436
  397MOL0     H52367   6.672   7.331   2.130 -1.4200 -0.4376  0.3113
  397MOL0     H52368   6.227   7.457   2.307 -1.0004  0.1048  0.1106
  397MOL0     H52369   5.980   7.388   2.264 -1.2298 -3.1478  0.6987
  397MOL0     H52370   5.900   6.997   2.241  2.7885 -0.1296 -1.2141
  397MOL0     H52371   5.866   7.021   2.065  0.2775  1.2070  0.0094
  397MOL0     H52372   5.673   6.945   2.173 -0.2856  0.8863 -1.7252
  397MOL0     H52373   5.645   7.109   2.122  0.0501 -1.0929 -0.3980
  397MOL0     H52374   5.695   7.161   2.380  2.7967 -1.5427  0.1605
  397MOL0     H52375   5.715   7.003   2.411  0.8127  1.7712  0.8551
  397MOL0     H52376   5.444   7.070   2.277 -0.3976 -1.7269 -1.2848
  397MOL0     H52377   5.496   6.926   2.371  0.5484 -0.7346 -0.7098
  397MOL0     H52378   5.484   7.206   2.472  0.9435 -0.9881 -1.3969
  397MOL0     H52379   5.523   7.062   2.579 -0.9876 -0.1417  2.3786
  397MOL0     H52380   5.295   6.977   2.520 -1.9188 -0.3212  2.0566
  397MOL0     H52381   5.261   7.127   2.430  0.9773  2.6536  0.3401
  397MOL0     H52382   5.323   7.115   2.738  1.3218 -1.1117 -1.3245
  397MOL0     H52383   5.289   7.260   2.639 -2.8612 -1.1126 -3.2413
  397MOL0     H52384   5.071   7.199   2.566  0.9770 -2.0193 -2.3594
  397MOL0     H52385   5.071   7.187   2.734  2.1895  1.2804  0.7338
  397MOL0     H52386   6.114   7.029   2.072  1.9253 -0.2254  0.1772
  397MOL0     H52387   6.338   7.083   2.092 -0.0893  0.9144 -3.3085
  397MOL0     H52388   6.637   7.368   2.556  2.1886  0.4352  1.6850
  397MOL0     H52389   6.872   7.431   2.578 -1.3093 -3.2491  1.0553
  397MOL0     H52390   8.740   8.407   2.079 -1.6247 -0.1791 -1.8256
  397MOL0     H52391   8.984   8.442   2.047 -0.2817  1.2683  4.4890
  397MOL0     H52392   9.420   8.586   2.163 -0.3685  1.1541 -0.9490
  397MOL0     H52393   9.643   8.615   2.088  1.2338 -0.9300  3.6334
  397MOL0     H52394   9.744   8.365   1.754  1.5454  3.4053 -1.4071
  397MOL0     H52395   9.835   8.265   1.877  2.2441 -0.2075  0.3902
  397MOL0     H52396  10.032   8.434   1.836  2.3209 -0.2683 -2.3464
  397MOL0     H52397   9.975   8.338   1.695 -4.1184  2.4972 -4.6308
  397MOL0     H52398   9.805   8.572   1.701  0.0125  0.5555  3.4293
  397MOL0     H52399   9.937   8.532   1.581  3.1561 -2.4210  0.4332
  397MOL0     H52400   9.985   8.651   1.855  0.3518  0.8455  0.3410
  397MOL0     H52401  10.098   8.656   1.726 -0.2913 -1.5728 -1.6626
  397MOL0     H52402   9.907   8.993   1.604  0.4069  0.1960  0.2828
  397MOL0     H52403   9.632   8.218   1.910 -0.5778  1.3282 -3.0888
  397MOL0     H52404   9.401   8.194   1.982 -3.7536  2.1308  2.7069
  398MOL0     O52405   0.850   5.110   6.395  0.5754 -0.4715 -0.3329
  398MOL0     C52406   0.902   5.126   6.281 -0.4819  0.5478 -0.2213
  398MOL0     O52407   1.033   5.156   6.251 -0.1177  0.5837  0.1485
  398MOL0     C52408   1.130   5.156   6.346 -0.0722 -0.7232 -0.4986
  398MOL0     C52409   1.243   5.239   6.334 -0.4390 -0.7550  0.5449
  398MOL0     C52410   1.344   5.249   6.419  0.4118 -0.1830 -0.1560
  398MOL0     C52411   1.326   5.183   6.545  0.4313  0.3206 -0.1172
  398MOL0     O52412   1.418   5.220   6.636  0.2769  0.4070  0.0549
  398MOL0     C52413   1.374   5.275   6.760  0.0789 -0.4680  0.6646
  398MOL0     C52414   1.501   5.321   6.841 -0.3587 -0.9165 -0.0388
  398MOL0     C52415   1.589   5.207   6.879 -0.6501  0.1277  0.1007
  398MOL0     C52416   1.693   5.253   6.982  0.0521 -0.7985 -0.5799
  398MOL0     C52417   1.796   5.138   7.009 -0.2148 -1.0995  0.1699
  398MOL0     C52418   1.864   5.142   7.153  0.0765 -0.5212 -0.4081
  398MOL0     C52419   1.972   5.253   7.178 -0.0499 -0.8481  0.6645
  398MOL0     C52420   2.008   5.289   7.320  0.0848  0.6918  0.5691
  398MOL0     N52421   1.895   5.347   7.400  0.2707 -0.1192 -1.1482
  398MOL0     C52422   1.819   5.290   7.495 -0.9483  0.3038 -0.0330
  398MOL0     C52423   1.707   5.373   7.499  0.1306  0.2260 -0.4107
  398MOL0     C52424   1.591   5.361   7.588 -0.5599 -0.3417  0.1350
  398MOL0     C52425   1.474   5.461   7.559 -2.2483  1.0443 -0.3278
  398MOL0     C52426   1.376   5.491   7.675  0.9846 -0.3848  0.1649
  398MOL0     C52427   1.307   5.368   7.735 -0.5691 -0.3061  0.3081
  398MOL0     O52428   1.197   5.403   7.821  0.6753  0.0203 -0.2549
  398MOL0     C52429   1.077   5.447   7.773 -0.5858  0.6501 -0.4646
  398MOL0     C52430   0.970   5.479   7.866 -0.6893 -0.0647 -0.1421
  398MOL0     C52431   0.845   5.520   7.823 -0.4968 -0.0160  0.0167
  398MOL0     C52432   0.810   5.515   7.686 -0.5918 -0.8702  0.3859
  398MOL0     C52433   0.677   5.543   7.650 -0.5228 -0.1444  0.0366
  398MOL0     O52434   0.633   5.499   7.524 -0.3439 -0.4381 -0.7694
  398MOL0     C52435   0.516   5.554   7.493 -0.1756 -0.2200 -0.7236
  398MOL0     C52436   0.387   5.488   7.513 -1.0859  0.4646 -0.3978
  398MOL0     C52437   0.269   5.551   7.467  0.2475 -0.4788  0.0006
  398MOL0     C52438   0.278   5.669   7.386  0.3029  0.3132  0.2804
  398MOL0     O52439   0.160   5.719   7.346 -0.2723 -0.3334 -0.5154
  398MOL0     C52440   0.151   5.813   7.240  0.2901  0.3459  0.8304
  398MOL0     C52441   0.011   5.846   7.199  0.0385 -0.9287 -0.0607
  398MOL0     C52442   0.008   5.961   7.095 -0.5249  0.0129 -0.1262
  398MOL0     C52443  -0.140   6.003   7.075 -0.1089  0.7320  0.9828
  398MOL0     C52444  -0.149   6.098   6.949 -0.2925 -0.4608  0.4539
  398MOL0     C52445  -0.297   6.144   6.932 -0.0984  0.8814 -0.0574
  398MOL0     C52446  -0.387   6.029   6.880  0.2463 -0.7664 -0.3910
  398MOL0     C52447  -0.543   6.060   6.888  0.6891 -0.2426  0.3954
  398MOL0    Cl52448  -0.637   5.939   6.793 -0.4059  0.5269  0.0923
  398MOL0     C52449   0.402   5.729   7.358 -0.7262 -0.0825 -0.5032
  398MOL0     C52450   0.518   5.676   7.416 -0.6609  0.8264  0.2298
  398MOL0     O52451   0.605   5.585   7.737  0.5107 -0.8658  0.3901
  398MOL0     C52452   0.905   5.474   7.593 -0.1704  0.4221  0.2002
  398MOL0     C52453   1.033   5.441   7.642 -0.0186  0.0006  0.2415
  398MOL0     N52454   1.724   5.460   7.398 -0.0795  0.2935  0.8597
  398MOL0     N52455   1.836   5.451   7.352  0.6749 -0.1128  0.0620
  398MOL0     C52456   1.224   5.092   6.565 -0.3658 -0.3864  0.7367
  398MOL0     C52457   1.128   5.086   6.464 -0.1299 -0.2311 -0.3870
  398MOL0     C52458   0.813   5.098   6.162 -0.0377  0.3898  0.6331
  398MOL0     C52459   0.864   5.070   6.034 -0.8530 -1.3023  0.5922
  398MOL0     C52460   0.775   5.044   5.931  0.0542  0.2945  0.1912
  398MOL0     C52461   0.637   5.057   5.943  0.1396 -1.0702  0.7662
  398MOL0     O52462   0.552   5.038   5.837 -0.9788 -0.0964 -0.1858
  398MOL0     C52463   0.432   4.973   5.858 -0.4518 -0.2892  0.3368
  398MOL0     C52464   0.327   5.049   5.781 -0.6763 -0.3255 -0.1504
  398MOL0     C52465   0.303   5.186   5.840 -0.3639  0.0663 -0.3774
  398MOL0     C52466   0.204   5.279   5.766 -0.9495 -1.1162 -0.5752
  398MOL0     C52467   0.061   5.239   5.761  0.4989 -0.1983 -0.5509
  398MOL0     C52468  -0.057   5.218   5.740  1.2421 -0.3716  0.3828
  398MOL0     C52469   0.589   5.086   6.074 -0.9376  0.2932 -0.5469
  398MOL0     C52470   0.674   5.110   6.181  0.1300 -0.3863  0.1859
  398MOL0     H52471   1.244   5.295   6.241  1.2169  0.4133  1.2277
  398MOL0     H52472   1.422   5.322   6.399  0.7141 -0.5765 -0.4340
  398MOL0     H52473   1.318   5.197   6.813  1.8902 -2.6010 -0.4008
  398MOL0     H52474   1.313   5.364   6.746  0.7422 -0.1408 -0.2547
  398MOL0     H52475   1.475   5.372   6.934  1.4265  2.7347 -1.3422
  398MOL0     H52476   1.568   5.382   6.780 -3.1019  1.7961 -0.5868
  398MOL0     H52477   1.636   5.166   6.789 -4.0210 -0.8163 -1.3884
  398MOL0     H52478   1.541   5.118   6.921  1.3291  0.4342  3.3190
  398MOL0     H52479   1.747   5.344   6.954  1.4391 -0.7665  1.8958
  398MOL0     H52480   1.649   5.281   7.078  0.1384  2.3664 -1.3359
  398MOL0     H52481   1.867   5.138   6.926 -0.8280 -2.7579 -0.3940
  398MOL0     H52482   1.745   5.041   7.005 -0.4668 -1.2588  3.9361
  398MOL0     H52483   1.923   5.051   7.171 -0.4476 -0.7821  0.0338
  398MOL0     H52484   1.796   5.147   7.238  1.2529 -2.8068  0.7642
  398MOL0     H52485   2.067   5.223   7.134  1.0474  1.2492  1.4808
  398MOL0     H52486   1.937   5.340   7.122  0.1723 -0.6269  0.8691
  398MOL0     H52487   2.087   5.365   7.315  0.1181  0.7271  1.4729
  398MOL0     H52488   2.051   5.203   7.371  0.8267  1.9661  2.2068
  398MOL0     H52489   1.845   5.215   7.569  2.9259  2.4962  1.0968
  398MOL0     H52490   1.623   5.362   7.693  1.7033 -0.1032 -0.5043
  398MOL0     H52491   1.544   5.262   7.585 -3.5432  0.8795  2.1110
  398MOL0     H52492   1.423   5.414   7.474  1.9985 -2.7628 -1.1482
  398MOL0     H52493   1.517   5.553   7.518  1.4347 -0.1444  0.4732
  398MOL0     H52494   1.417   5.558   7.751 -0.7195 -0.1519  0.9208
  398MOL0     H52495   1.303   5.559   7.629  0.5936 -0.1239  1.1566
  398MOL0     H52496   1.380   5.305   7.786  1.5408 -0.2184 -2.3841
  398MOL0     H52497   1.261   5.300   7.663 -0.0341  0.5405 -0.8586
  398MOL0     H52498   0.998   5.497   7.969  3.5263  1.5508 -1.3482
  398MOL0     H52499   0.780   5.564   7.897 -1.5824  1.2710 -1.6353
  398MOL0     H52500   0.374   5.388   7.556 -1.4852  0.2868 -0.9259
  398MOL0     H52501   0.172   5.504   7.478  0.3754 -0.8670 -0.4563
  398MOL0     H52502   0.194   5.780   7.145 -0.1874 -0.4288  0.8769
  398MOL0     H52503   0.187   5.910   7.277  1.6192 -1.0112  3.3400
  398MOL0     H52504  -0.037   5.883   7.290 -2.3243 -0.6679 -1.3042
  398MOL0     H52505  -0.045   5.757   7.166 -2.7650  1.5555 -2.7432
  398MOL0     H52506   0.061   5.924   7.006  0.4062 -0.1719  0.4941
  398MOL0     H52507   0.050   6.057   7.128 -0.0091  0.6636 -2.4799
  398MOL0     H52508  -0.205   5.918   7.056 -2.1677  2.7692 -2.0068
  398MOL0     H52509  -0.176   6.058   7.163  1.9064  4.7363 -0.4429
  398MOL0     H52510  -0.112   6.046   6.860  0.3393  2.7242 -1.2981
  398MOL0     H52511  -0.079   6.183   6.950 -0.7066 -0.0486 -1.2173
  398MOL0     H52512  -0.315   6.228   6.864  0.1987  1.9860  1.1874
  398MOL0     H52513  -0.344   6.164   7.028  1.0565 -0.6317  0.8618
  398MOL0     H52514  -0.368   5.988   6.780  1.8904 -0.1157 -0.3753
  398MOL0     H52515  -0.382   5.947   6.953 -2.0480  1.4561  2.5587
  398MOL0     H52516  -0.552   6.158   6.841 -0.4628 -0.3380  0.3833
  398MOL0     H52517  -0.578   6.059   6.992 -1.9492  1.3869 -0.3953
  398MOL0     H52518   0.415   5.822   7.304 -0.9310  0.1438 -0.1673
  398MOL0     H52519   0.614   5.727   7.408 -0.3614  0.8483  2.9570
  398MOL0     H52520   0.896   5.457   7.486  0.2422 -0.3359  0.2748
  398MOL0     H52521   1.101   5.411   7.563  1.7598  2.6144  0.6566
  398MOL0     H52522   1.226   5.036   6.659  0.7689  1.1399  1.6706
  398MOL0     H52523   1.044   5.031   6.505  0.4362  1.0239  2.6995
  398MOL0     H52524   0.968   5.072   6.003 -0.8474  0.7942  0.5763
  398MOL0     H52525   0.812   5.026   5.830  2.1298  3.3601  0.2855
  398MOL0     H52526   0.408   4.951   5.962 -1.4415  1.2535  0.4600
  398MOL0     H52527   0.441   4.875   5.809 -0.1508  0.8754 -2.1304
  398MOL0     H52528   0.348   5.048   5.673  1.3213  1.9567  0.1370
  398MOL0     H52529   0.235   4.992   5.795 -0.6550 -0.0139  1.4009
  398MOL0     H52530   0.403   5.229   5.842  0.2609 -1.3518 -0.0081
  398MOL0     H52531   0.264   5.176   5.942 -1.3642  0.2457 -0.7323
  398MOL0     H52532   0.193   5.374   5.818  1.8827 -0.5470 -0.8459
  398MOL0     H52533   0.235   5.293   5.662 -0.2823 -3.4080 -0.7422
  398MOL0     H52534  -0.160   5.204   5.714  1.8214  0.3801 -2.7710
  398MOL0     H52535   0.484   5.104   6.096 -0.3785  3.4966  0.0725
  398MOL0     H52536   0.624   5.143   6.272  0.2701 -0.4234  0.2770
  399MOL0     O52537   1.936   3.789   8.969  0.4647  0.2609 -0.5762
  399MOL0     C52538   1.965   3.678   8.940 -0.6860 -0.2409 -0.5269
  399MOL0     O52539   1.919   3.568   9.000 -0.4228  0.4174  0.2793
  399MOL0     C52540   1.790   3.562   9.052 -0.0488  0.6425  0.0901
  399MOL0     C52541   1.681   3.593   8.966 -0.5710 -0.2955 -0.6582
  399MOL0     C52542   1.554   3.599   9.014  0.7789 -0.5557 -0.4401
  399MOL0     C52543   1.527   3.551   9.141  0.0600 -0.2763  0.0995
  399MOL0     O52544   1.401   3.533   9.189  0.0285 -0.1326 -0.3874
  399MOL0     C52545   1.290   3.576   9.096  0.0391 -0.0433 -0.3258
  399MOL0     C52546   1.159   3.557   9.180 -0.7240 -0.1869 -0.0244
  399MOL0     C52547   1.121   3.420   9.236  0.7934  0.3726 -0.2469
  399MOL0     C52548   1.068   3.331   9.121  0.1434 -0.2179  0.0756
  399MOL0     C52549   0.979   3.215   9.165  0.4374 -0.0662  0.4134
  399MOL0     C52550   0.929   3.133   9.047 -0.0719 -0.1703 -0.6822
  399MOL0     C52551   0.857   3.018   9.114 -0.2727 -0.0278  0.7307
  399MOL0     C52552   0.844   2.898   9.022  0.5253 -0.2736  1.3173
  399MOL0     N52553   0.708   2.851   9.008 -0.0801 -0.2451 -0.3646
  399MOL0     C52554   0.656   2.795   8.894  0.2660  0.2799 -0.1698
  399MOL0     C52555   0.524   2.760   8.940 -0.6628  0.3663  0.6901
  399MOL0     C52556   0.420   2.702   8.859 -0.2160 -0.9146 -0.2800
  399MOL0     C52557   0.296   2.710   8.935  0.4396  0.3921  0.9437
  399MOL0     C52558   0.177   2.673   8.843  1.0642 -0.1808 -0.3680
  399MOL0     C52559   0.039   2.692   8.921 -0.2176  0.5447  0.4638
  399MOL0     O52560  -0.054   2.644   8.819  0.2816  0.6686 -0.2233
  399MOL0     C52561  -0.193   2.639   8.854  0.6044 -0.0785 -0.5803
  399MOL0     C52562  -0.248   2.666   8.983  0.4693 -0.0247 -1.0622
  399MOL0     C52563  -0.386   2.659   9.011  0.1295  1.1281  0.4549
  399MOL0     C52564  -0.470   2.606   8.919  0.0974 -0.0998  0.8411
  399MOL0     C52565  -0.607   2.573   8.962 -0.1737 -0.3491  0.1141
  399MOL0     O52566  -0.693   2.514   8.875 -0.1999  1.0758  0.3591
  399MOL0     C52567  -0.819   2.472   8.903 -0.5486  0.3677  1.3393
  399MOL0     C52568  -0.871   2.378   8.819  0.3687  0.4205  0.1848
  399MOL0     C52569  -1.006   2.338   8.831  0.3253  0.6652  1.4350
  399MOL0     C52570  -1.094   2.380   8.932 -0.4100 -0.2308 -0.8826
  399MOL0     O52571  -1.230   2.356   8.952 -0.1898 -0.3074  0.0519
  399MOL0     C52572  -1.284   2.245   8.888 -0.2816  0.6702 -0.3559
  399MOL0     C52573  -1.436   2.240   8.902 -0.0714  0.5636 -0.0664
  399MOL0     C52574  -1.516   2.361   8.834 -0.0930  0.4752 -0.3023
  399MOL0     C52575  -1.669   2.324   8.837 -0.7267  0.0064  0.3446
  399MOL0     C52576  -1.747   2.439   8.771  0.8777  0.0346  0.2912
  399MOL0     C52577  -1.893   2.421   8.722 -0.3469 -0.9255  0.6704
  399MOL0     C52578  -1.986   2.357   8.819  0.0407  0.6606 -0.7910
  399MOL0     C52579  -2.031   2.442   8.934  0.6673 -0.0855 -0.0095
  399MOL0    Cl52580  -2.171   2.345   9.010 -0.4936 -0.0398  0.0782
  399MOL0     C52581  -1.030   2.471   9.025  0.0703 -0.3958 -0.5707
  399MOL0     C52582  -0.905   2.524   9.002 -0.6721  0.1953  0.0387
  399MOL0     O52583  -0.629   2.582   9.080 -0.1553 -0.0914 -1.0282
  399MOL0     C52584  -0.417   2.572   8.791  0.6786  0.9220 -0.5343
  399MOL0     C52585  -0.287   2.594   8.757 -0.3207  0.5040 -0.2183
  399MOL0     N52586   0.509   2.787   9.073 -1.1150 -0.1565  0.2010
  399MOL0     N52587   0.623   2.842   9.115  0.0678  0.3341  0.5681
  399MOL0     C52588   1.630   3.501   9.219  0.3325 -0.3609  0.8394
  399MOL0     C52589   1.762   3.511   9.176 -0.2146  0.1584 -0.3809
  399MOL0     C52590   2.087   3.653   8.854 -0.6796  1.1787 -0.8317
  399MOL0     C52591   2.140   3.757   8.782 -0.1300  0.3325  0.2006
  399MOL0     C52592   2.255   3.732   8.699  0.3890  0.3463  0.2215
  399MOL0     C52593   2.303   3.602   8.680  0.2835 -0.4028 -0.2056
  399MOL0     O52594   2.416   3.588   8.602  0.5476  0.4717 -0.0032
  399MOL0     C52595   2.422   3.468   8.518  0.1031 -0.6007  0.3611
  399MOL0     C52596   2.542   3.389   8.556 -0.0957  0.3022 -0.4702
  399MOL0     C52597   2.675   3.464   8.537  0.0555  0.8238 -0.2155
  399MOL0     C52598   2.796   3.389   8.599  0.4375  0.0802  0.1664
  399MOL0     C52599   2.919   3.463   8.587  0.2398 -1.2108  0.6079
  399MOL0     C52600   3.029   3.515   8.561 -0.6813 -0.8087  0.3704
  399MOL0     C52601   2.227   3.495   8.735  0.0198 -0.5656 -0.3833
  399MOL0     C52602   2.129   3.524   8.828  0.6873 -1.3250  0.2589
  399MOL0     H52603   1.685   3.629   8.864 -2.7069  1.6734 -0.1223
  399MOL0     H52604   1.478   3.634   8.945  0.9580 -2.4384 -1.6923
  399MOL0     H52605   1.281   3.512   9.008  1.2762  1.2646 -1.4391
  399MOL0     H52606   1.299   3.681   9.070  0.5246  0.5784  2.0902
  399MOL0     H52607   1.072   3.600   9.131 -1.0918 -1.2010 -0.2822
  399MOL0     H52608   1.180   3.620   9.267  0.9858 -1.1748  0.3260
  399MOL0     H52609   1.045   3.439   9.311  1.0420  0.5723 -0.0421
  399MOL0     H52610   1.212   3.377   9.278  2.1245 -1.7454 -4.6258
  399MOL0     H52611   1.011   3.393   9.051  1.7934  0.7865 -0.4343
  399MOL0     H52612   1.151   3.293   9.061 -0.1819 -0.2454 -0.3554
  399MOL0     H52613   0.902   3.253   9.233  0.5929 -0.6280  0.9067
  399MOL0     H52614   1.048   3.150   9.219  1.5364  1.0457  0.3996
  399MOL0     H52615   0.999   3.112   8.966 -0.4869 -0.7330 -0.8978
  399MOL0     H52616   0.858   3.193   8.989 -1.4937 -0.1781  0.9753
  399MOL0     H52617   0.914   2.985   9.201 -4.4177  1.0615  4.1369
  399MOL0     H52618   0.762   3.037   9.163 -1.2665 -1.3059 -0.6194
  399MOL0     H52619   0.910   2.820   9.060  3.6393  0.9545 -1.1532
  399MOL0     H52620   0.888   2.913   8.923  1.0495 -3.5573  0.9681
  399MOL0     H52621   0.691   2.794   8.792 -0.9187 -0.3890 -0.5933
  399MOL0     H52622   0.435   2.599   8.824  0.8427 -1.1965  0.9263
  399MOL0     H52623   0.399   2.777   8.782 -1.2226 -0.3030  0.5670
  399MOL0     H52624   0.268   2.813   8.957 -4.2281  0.3539 -3.1582
  399MOL0     H52625   0.292   2.647   9.024 -1.3077 -0.6995  0.1548
  399MOL0     H52626   0.159   2.728   8.750 -5.4213 -0.3861  0.3001
  399MOL0     H52627   0.188   2.569   8.813  0.9496  0.0741 -1.3381
  399MOL0     H52628   0.026   2.796   8.952 -1.6829  0.2735  0.8296
  399MOL0     H52629   0.038   2.637   9.016 -0.3532  0.4747  0.4221
  399MOL0     H52630  -0.187   2.691   9.070 -1.2295  1.4292 -0.2285
  399MOL0     H52631  -0.407   2.691   9.112 -2.6979 -0.4539  0.4597
  399MOL0     H52632  -0.822   2.349   8.726 -2.1016 -3.0252 -0.2175
  399MOL0     H52633  -1.043   2.275   8.751  0.5549  0.1271  1.7423
  399MOL0     H52634  -1.243   2.152   8.928 -2.9750 -0.1078  0.8055
  399MOL0     H52635  -1.265   2.255   8.781  0.0119  3.3863 -0.1364
  399MOL0     H52636  -1.470   2.221   9.005 -2.6904  0.8089 -0.8083
  399MOL0     H52637  -1.463   2.150   8.847  0.6503  1.6870 -2.3648
  399MOL0     H52638  -1.482   2.385   8.733 -0.4383  1.6083 -0.1635
  399MOL0     H52639  -1.490   2.451   8.891  2.1510 -1.1028  1.3447
  399MOL0     H52640  -1.675   2.226   8.788 -0.7332  0.6081 -0.9177
  399MOL0     H52641  -1.679   2.325   8.946  0.4442  1.1207  0.4647
  399MOL0     H52642  -1.702   2.465   8.675  1.1262 -2.8634 -0.4971
  399MOL0     H52643  -1.740   2.530   8.831  1.0083 -1.4390  2.6390
  399MOL0     H52644  -1.894   2.350   8.639 -2.5635 -0.8539  0.5617
  399MOL0     H52645  -1.930   2.520   8.695  1.5851 -0.7374 -1.6431
  399MOL0     H52646  -2.071   2.314   8.765 -2.3550  2.9525  0.9232
  399MOL0     H52647  -1.933   2.272   8.863 -1.1823 -0.1340 -0.8166
  399MOL0     H52648  -2.068   2.538   8.898  0.6002 -1.1541 -3.0229
  399MOL0     H52649  -1.949   2.464   9.005 -1.3010  1.9196  1.8158
  399MOL0     H52650  -1.089   2.510   9.107 -1.1937 -2.6147 -0.3449
  399MOL0     H52651  -0.861   2.606   9.058  3.0051 -1.0456 -0.7595
  399MOL0     H52652  -0.476   2.517   8.718  3.0751 -1.9957 -0.4519
  399MOL0     H52653  -0.247   2.574   8.658  0.5417 -0.1102  0.2452
  399MOL0     H52654   1.611   3.445   9.310 -2.4278 -2.7189 -1.0034
  399MOL0     H52655   1.830   3.469   9.250 -0.1809  1.6654  0.4955
  399MOL0     H52656   2.121   3.860   8.811  2.1709  0.5875  1.0222
  399MOL0     H52657   2.313   3.808   8.648 -1.5805  1.1642 -0.9410
  399MOL0     H52658   2.441   3.505   8.417  0.7192  0.8869  0.9953
  399MOL0     H52659   2.329   3.410   8.514  0.6938 -1.5458 -0.0121
  399MOL0     H52660   2.532   3.350   8.658 -1.0605  0.8840 -0.3343
  399MOL0     H52661   2.545   3.306   8.485 -0.2868 -0.8647  0.8453
  399MOL0     H52662   2.670   3.566   8.576  3.2448  1.6552 -1.5815
  399MOL0     H52663   2.691   3.478   8.429  1.9831  2.2686  0.1908
  399MOL0     H52664   2.777   3.361   8.703 -1.0749  0.0415 -0.0962
  399MOL0     H52665   2.813   3.305   8.532 -0.1789 -0.3628  0.5452
  399MOL0     H52666   3.106   3.586   8.543 -2.2102  1.3010  1.6405
  399MOL0     H52667   2.255   3.394   8.708 -1.9948 -0.8907 -1.4777
  399MOL0     H52668   2.072   3.446   8.876  1.1262 -1.9086 -0.1658
  400MOL0     O52669   0.390   5.109   5.332  0.2501 -0.1235  1.1731
  400MOL0     C52670   0.414   4.998   5.369  1.0521 -0.1298  0.3668
  400MOL0     O52671   0.314   4.906   5.401 -0.4427  0.3810 -0.6698
  400MOL0     C52672   0.180   4.936   5.393  0.1417  1.3582 -0.0802
  400MOL0     C52673   0.129   4.963   5.264 -0.1536  0.3100  0.2911
  400MOL0     C52674  -0.006   4.988   5.248  0.0509 -0.3753 -0.4683
  400MOL0     C52675  -0.096   4.981   5.357  0.3646  0.6165 -1.2757
  400MOL0     O52676  -0.230   4.988   5.323  0.6777 -0.0168  0.1333
  400MOL0     C52677  -0.315   4.879   5.372  0.5208  0.7568  0.2954
  400MOL0     C52678  -0.268   4.751   5.323 -0.3244 -0.4672 -0.4266
  400MOL0     C52679  -0.306   4.742   5.170 -0.0747  1.0048  0.2366
  400MOL0     C52680  -0.247   4.621   5.109 -0.5539 -0.4371  0.1616
  400MOL0     C52681  -0.292   4.591   4.969 -0.5707 -0.2294  0.3937
  400MOL0     C52682  -0.180   4.498   4.901  0.6483 -0.6048  0.1833
  400MOL0     C52683  -0.226   4.466   4.756  0.5852 -0.1052 -0.3440
  400MOL0     C52684  -0.218   4.595   4.660 -0.2813 -0.2324  0.0103
  400MOL0     N52685  -0.087   4.667   4.660  0.3295  0.3587 -0.5736
  400MOL0     C52686   0.037   4.604   4.657  0.0880 -0.1652  0.1613
  400MOL0     C52687   0.120   4.703   4.612  0.4533  0.2729 -0.7490
  400MOL0     C52688   0.271   4.705   4.589  0.3477  0.1619  0.1910
  400MOL0     C52689   0.349   4.692   4.719  0.5179  0.1988 -0.0329
  400MOL0     C52690   0.479   4.753   4.704 -0.7364 -0.1345 -0.1503
  400MOL0     C52691   0.556   4.737   4.838  0.2427 -0.4988  0.5072
  400MOL0     O52692   0.678   4.797   4.813 -0.3536  0.2546 -0.1045
  400MOL0     C52693   0.775   4.743   4.883  0.6640 -0.1366 -0.5925
  400MOL0     C52694   0.864   4.658   4.828 -0.1141 -0.0058 -0.2841
  400MOL0     C52695   0.984   4.631   4.905 -0.1311 -0.0793 -0.5662
  400MOL0     C52696   0.998   4.657   5.043  1.5025 -0.0414  0.1542
  400MOL0     C52697   1.119   4.614   5.112  0.1928  0.3375 -0.5863
  400MOL0     O52698   1.218   4.550   5.039 -0.6610 -0.7097 -0.1297
  400MOL0     C52699   1.342   4.553   5.094 -1.1291 -0.8857  0.6295
  400MOL0     C52700   1.390   4.434   5.144  0.2393  0.1943  0.3588
  400MOL0     C52701   1.521   4.422   5.199  0.2249  0.3243 -0.4975
  400MOL0     C52702   1.607   4.540   5.205  0.7467 -0.4519 -0.1092
  400MOL0     O52703   1.739   4.550   5.258 -0.4360  0.1403  0.4941
  400MOL0     C52704   1.759   4.471   5.376 -0.1645 -0.4399 -0.2498
  400MOL0     C52705   1.889   4.504   5.457  0.4162 -0.3232 -0.0076
  400MOL0     C52706   2.016   4.490   5.372  0.2573  0.5858 -0.4769
  400MOL0     C52707   2.042   4.345   5.334  0.3630 -0.8686 -0.3580
  400MOL0     C52708   2.189   4.329   5.279  0.1173  0.2842  0.1915
  400MOL0     C52709   2.225   4.391   5.149  0.3016  0.6449  0.0882
  400MOL0     C52710   2.360   4.335   5.110 -0.4671  0.2652 -0.8975
  400MOL0     C52711   2.413   4.412   4.988 -0.2704 -1.5960 -0.1305
  400MOL0    Cl52712   2.588   4.379   4.973  0.0601  0.0945  0.3478
  400MOL0     C52713   1.554   4.654   5.146  0.1824 -0.7914  0.6058
  400MOL0     C52714   1.431   4.658   5.081 -0.5257  0.3643 -0.4217
  400MOL0     O52715   1.123   4.623   5.236  0.0572  0.7207  0.2431
  400MOL0     C52716   0.892   4.736   5.101 -0.2409  0.9955 -0.6984
  400MOL0     C52717   0.788   4.787   5.019 -0.3584 -0.3364 -0.2510
  400MOL0     N52718   0.042   4.815   4.587  0.1466 -0.8312 -0.0813
  400MOL0     N52719  -0.078   4.796   4.619  0.0826 -0.2216 -0.1072
  400MOL0     C52720  -0.049   4.955   5.490 -0.2537  0.4490  0.0755
  400MOL0     C52721   0.094   4.928   5.512 -1.1907 -0.7470  1.1569
  400MOL0     C52722   0.553   4.963   5.391  0.1164 -0.4612 -0.0252
  400MOL0     C52723   0.594   4.867   5.481 -0.0049 -0.1376 -0.7167
  400MOL0     C52724   0.726   4.818   5.488 -0.3363 -1.4672 -0.2557
  400MOL0     C52725   0.825   4.901   5.428  0.6001 -0.5421 -0.5864
  400MOL0     O52726   0.962   4.878   5.443 -0.1077  0.7118  0.0583
  400MOL0     C52727   1.003   4.779   5.532  0.1471  0.7209 -0.3918
  400MOL0     C52728   1.158   4.765   5.532  0.0028 -0.8679  0.2349
  400MOL0     C52729   1.240   4.893   5.545 -0.4330  0.1158 -0.1949
  400MOL0     C52730   1.375   4.878   5.475  0.1951  0.2753 -0.2671
  400MOL0     C52731   1.475   4.794   5.537 -0.2586 -0.3794 -0.2768
  400MOL0     C52732   1.552   4.721   5.587 -0.3037  0.4693  0.4197
  400MOL0     C52733   0.791   5.019   5.362  0.1506  0.8091  0.0578
  400MOL0     C52734   0.657   5.045   5.324  0.6508  0.4891 -0.8014
  400MOL0     H52735   0.197   4.963   5.180  3.1046  1.0772  2.7163
  400MOL0     H52736  -0.051   4.993   5.150  0.2384  0.8464 -0.5061
  400MOL0     H52737  -0.415   4.897   5.334  0.4089  0.0242  0.2272
  400MOL0     H52738  -0.314   4.874   5.482  2.8769 -1.1223  0.2741
  400MOL0     H52739  -0.334   4.686   5.382 -1.0561  0.7189  0.0968
  400MOL0     H52740  -0.160   4.734   5.334 -0.0670  0.7060 -1.0275
  400MOL0     H52741  -0.273   4.834   5.121 -0.2782  1.2434  0.5422
  400MOL0     H52742  -0.416   4.748   5.169 -0.4546 -3.0867 -1.3811
  400MOL0     H52743  -0.138   4.631   5.107 -0.6375  0.4786 -1.8636
  400MOL0     H52744  -0.263   4.529   5.167 -0.8153 -1.4045 -1.3719
  400MOL0     H52745  -0.306   4.683   4.912 -4.5042 -0.5483  0.5644
  400MOL0     H52746  -0.392   4.546   4.970 -2.6847  3.9575 -0.5686
  400MOL0     H52747  -0.163   4.400   4.948 -1.2412 -1.9021 -1.6931
  400MOL0     H52748  -0.086   4.553   4.900 -0.1154  0.7459 -1.6541
  400MOL0     H52749  -0.162   4.389   4.713  1.0661  0.6818 -1.0657
  400MOL0     H52750  -0.330   4.433   4.756  0.8375 -0.9122 -1.5035
  400MOL0     H52751  -0.295   4.658   4.706 -0.9256 -1.6179  0.8778
  400MOL0     H52752  -0.240   4.565   4.557  2.6243 -1.0255 -0.4568
  400MOL0     H52753   0.063   4.503   4.685  0.6385  0.4463  2.0149
  400MOL0     H52754   0.303   4.799   4.545 -0.4778  0.8540  1.0182
  400MOL0     H52755   0.293   4.622   4.521 -1.0275 -1.4399  1.5766
  400MOL0     H52756   0.351   4.585   4.743 -1.0002 -0.0976 -1.0589
  400MOL0     H52757   0.290   4.732   4.802 -3.4340  0.2350 -2.6069
  400MOL0     H52758   0.539   4.707   4.625  0.4504 -1.7176  1.5843
  400MOL0     H52759   0.462   4.859   4.684 -0.5349  0.4441  2.3279
  400MOL0     H52760   0.562   4.632   4.868 -0.7903 -0.1978  1.8488
  400MOL0     H52761   0.511   4.792   4.921 -0.0967  1.1744 -0.7330
  400MOL0     H52762   0.861   4.651   4.720 -0.7621  2.5654 -0.5113
  400MOL0     H52763   1.042   4.557   4.851  0.9908 -1.2842  2.1232
  400MOL0     H52764   1.329   4.344   5.144  0.3540  0.0945 -1.4391
  400MOL0     H52765   1.547   4.327   5.245 -2.2439  0.4718  1.3753
  400MOL0     H52766   1.767   4.368   5.342 -0.4721 -1.0919  1.5324
  400MOL0     H52767   1.673   4.475   5.443 -1.0537  0.0616 -1.3939
  400MOL0     H52768   1.901   4.439   5.544  1.7906 -0.6575 -0.4220
  400MOL0     H52769   1.895   4.610   5.483  4.0173 -0.3891 -0.0666
  400MOL0     H52770   2.100   4.508   5.440 -0.3135 -0.8926  0.6562
  400MOL0     H52771   2.026   4.549   5.280  2.2547  0.5638 -0.3345
  400MOL0     H52772   2.017   4.279   5.417  0.3738 -1.1874 -0.6052
  400MOL0     H52773   1.975   4.296   5.262  1.2151 -1.1862 -0.9560
  400MOL0     H52774   2.208   4.221   5.277 -1.2077  0.0110 -2.3606
  400MOL0     H52775   2.260   4.363   5.355  1.9964 -1.3243 -0.7304
  400MOL0     H52776   2.230   4.499   5.163  3.1402  0.4975  0.9590
  400MOL0     H52777   2.163   4.374   5.061 -1.2429 -0.9586  1.4111
  400MOL0     H52778   2.437   4.343   5.187 -2.4801 -1.8511  1.4958
  400MOL0     H52779   2.339   4.230   5.085  0.1157 -0.9298  2.9448
  400MOL0     H52780   2.397   4.520   5.002  1.8609 -1.3907  1.2041
  400MOL0     H52781   2.351   4.390   4.901  0.6259 -1.7086 -0.7479
  400MOL0     H52782   1.627   4.732   5.128 -0.0199 -1.1024 -1.9598
  400MOL0     H52783   1.406   4.754   5.036  1.6063  0.0920 -2.4195
  400MOL0     H52784   0.890   4.772   5.204  1.6726  2.1500 -0.9968
  400MOL0     H52785   0.734   4.871   5.063  1.7382  2.6983 -2.9893
  400MOL0     H52786  -0.117   4.948   5.574 -0.6945  2.1489 -0.0863
  400MOL0     H52787   0.128   4.913   5.613 -2.3516  2.2707  2.1146
  400MOL0     H52788   0.517   4.820   5.542 -0.6643  2.6146  0.7682
  400MOL0     H52789   0.747   4.736   5.556 -0.1744  1.1983  3.2306
  400MOL0     H52790   0.965   4.681   5.504 -1.6222  1.8005 -2.0480
  400MOL0     H52791   0.963   4.798   5.632  0.5521 -0.1450 -0.0565
  400MOL0     H52792   1.198   4.691   5.601  1.9487  0.1881  0.3033
  400MOL0     H52793   1.187   4.741   5.430 -0.4720  1.3196 -0.4767
  400MOL0     H52794   1.248   4.932   5.646 -2.6053  0.0302  0.0426
  400MOL0     H52795   1.187   4.971   5.489  0.7101 -0.1370 -1.7023
  400MOL0     H52796   1.363   4.853   5.369  0.6216 -1.2925  0.0239
  400MOL0     H52797   1.410   4.981   5.472 -0.6104  0.5501 -0.5486
  400MOL0     H52798   1.622   4.652   5.628  1.2275  0.7349 -1.5917
  400MOL0     H52799   0.875   5.073   5.319  1.5637 -1.8700 -0.7504
  400MOL0     H52800   0.628   5.127   5.259  5.0670  1.8004 -1.4337
  401MOL0     O52801   8.819   0.665   8.359 -0.9131  0.9109 -0.3106
  401MOL0     C52802   8.835   0.570   8.440  0.4881  1.3365  0.3006
  401MOL0     O52803   8.734   0.508   8.515 -1.2276 -0.5278 -0.1659
  401MOL0     C52804   8.595   0.522   8.498 -0.1290 -0.0838 -1.0454
  401MOL0     C52805   8.529   0.584   8.389 -0.3284 -0.2564 -0.3121
  401MOL0     C52806   8.386   0.589   8.375  0.0532 -0.0651 -0.8704
  401MOL0     C52807   8.303   0.527   8.469  0.5871  0.5868  1.1684
  401MOL0     O52808   8.162   0.552   8.445 -0.3650  0.0960  0.8054
  401MOL0     C52809   8.079   0.485   8.538 -0.6183  0.5896 -0.1946
  401MOL0     C52810   7.943   0.493   8.491 -0.0093  0.9080  1.4072
  401MOL0     C52811   7.856   0.620   8.498 -0.7019 -0.1671  0.3587
  401MOL0     C52812   7.745   0.637   8.396 -0.3818  0.3254 -0.3915
  401MOL0     C52813   7.663   0.768   8.416  0.0864  0.4351 -0.2249
  401MOL0     C52814   7.568   0.752   8.541 -0.0093 -0.7262  0.4602
  401MOL0     C52815   7.462   0.852   8.558  0.6301  0.8092  0.6488
  401MOL0     C52816   7.367   0.826   8.680  0.1337 -0.0990  0.8463
  401MOL0     N52817   7.266   0.727   8.649  0.0801  0.5514  0.9443
  401MOL0     C52818   7.146   0.756   8.575 -0.1859  0.1950  0.6505
  401MOL0     C52819   7.078   0.637   8.575 -0.1632  0.7146 -0.0502
  401MOL0     C52820   6.935   0.615   8.539  0.4593  0.0059  0.6102
  401MOL0     C52821   6.864   0.521   8.635  0.0490 -0.1102  0.4495
  401MOL0     C52822   6.841   0.578   8.770  0.2425 -0.5164  0.4841
  401MOL0     C52823   6.742   0.500   8.861 -0.2113 -0.1982 -0.0682
  401MOL0     O52824   6.611   0.498   8.811 -0.0500 -0.4109  0.5495
  401MOL0     C52825   6.519   0.425   8.876  0.8381 -0.0831  0.3285
  401MOL0     C52826   6.389   0.433   8.833 -0.1275 -0.6653 -0.3615
  401MOL0     C52827   6.287   0.360   8.896  0.1185 -0.1638 -0.9098
  401MOL0     C52828   6.321   0.264   8.992  0.4006 -0.9174  0.5403
  401MOL0     C52829   6.224   0.185   9.061  0.3564  0.1339  0.2327
  401MOL0     O52830   6.099   0.238   9.039 -0.2159  0.3702  0.5361
  401MOL0     C52831   5.993   0.160   9.078  0.2555 -0.1649 -0.2468
  401MOL0     C52832   5.968   0.029   9.029 -0.5191 -0.4430  0.2214
  401MOL0     C52833   5.852  -0.046   9.071 -0.0451  0.6133  0.7132
  401MOL0     C52834   5.749   0.011   9.147 -0.0106 -0.5129  0.3789
  401MOL0     O52835   5.634  -0.056   9.163  0.5494 -0.3972 -0.6091
  401MOL0     C52836   5.562  -0.018   9.285  0.7229  0.5041 -0.5295
  401MOL0     C52837   5.463  -0.121   9.315 -0.7508  0.5706 -0.5480
  401MOL0     C52838   5.386  -0.110   9.447  0.4622  0.5173  0.3397
  401MOL0     C52839   5.306   0.022   9.471  0.4761 -0.2453 -0.3386
  401MOL0     C52840   5.217   0.021   9.600  1.0551  0.5984  1.1712
  401MOL0     C52841   5.084  -0.057   9.573 -0.7257  0.5918 -0.0498
  401MOL0     C52842   4.983  -0.048   9.679  0.3954 -0.1230 -0.1088
  401MOL0     C52843   4.841  -0.110   9.665  0.2870  0.7920 -0.3316
  401MOL0    Cl52844   4.746  -0.063   9.518 -0.2690 -0.3642 -0.1215
  401MOL0     C52845   5.770   0.147   9.188 -0.2622 -0.7786  0.5873
  401MOL0     C52846   5.890   0.222   9.158 -0.2466 -1.0550 -0.0147
  401MOL0     O52847   6.253   0.083   9.119 -0.2564  0.4877 -0.1669
  401MOL0     C52848   6.454   0.254   9.032  0.5652  0.2586  0.4384
  401MOL0     C52849   6.547   0.346   8.985  0.2461 -0.0819  0.2411
  401MOL0     N52850   7.164   0.539   8.632  0.8162 -0.6383 -0.4134
  401MOL0     N52851   7.276   0.587   8.659  0.0451  1.0161 -1.1401
  401MOL0     C52852   8.365   0.458   8.578  0.0626  0.8496 -0.3139
  401MOL0     C52853   8.510   0.457   8.590  0.6079 -0.2618  0.6179
  401MOL0     C52854   8.976   0.531   8.472  0.9889 -0.1171 -1.0192
  401MOL0     C52855   9.077   0.568   8.386  0.2135  1.2078  0.5950
  401MOL0     C52856   9.208   0.525   8.419  0.6581  0.0998  1.0523
  401MOL0     C52857   9.252   0.463   8.534  0.1810 -0.2162  0.2196
  401MOL0     O52858   9.376   0.414   8.553 -0.1955 -0.2528 -0.4571
  401MOL0     C52859   9.486   0.482   8.485  0.9465 -0.1937 -1.1415
  401MOL0     C52860   9.614   0.430   8.546  0.2877  0.1875  0.2004
  401MOL0     C52861   9.682   0.329   8.447  0.7372 -0.5622  0.0096
  401MOL0     C52862   9.596   0.201   8.412  0.5932  0.4682 -0.1165
  401MOL0     C52863   9.696   0.107   8.361  0.2857  0.1183  0.0059
  401MOL0     C52864   9.777   0.031   8.315  0.6628  1.0166 -0.0263
  401MOL0     C52865   9.145   0.447   8.622  0.3189  0.7492  0.0188
  401MOL0     C52866   9.008   0.471   8.592  1.1688  0.1114 -0.3274
  401MOL0     H52867   8.592   0.615   8.307  0.0998 -0.8023 -0.1943
  401MOL0     H52868   8.334   0.630   8.289  3.0626 -0.7502 -3.1958
  401MOL0     H52869   8.078   0.526   8.640  2.1799 -0.4560  0.3412
  401MOL0     H52870   8.111   0.381   8.545  2.1041  1.3638 -0.0764
  401MOL0     H52871   7.896   0.412   8.547  0.0894 -1.3884 -1.6114
  401MOL0     H52872   7.933   0.457   8.388 -2.7011 -0.9004  2.1817
  401MOL0     H52873   7.917   0.709   8.479  0.2783 -1.4404 -3.5485
  401MOL0     H52874   7.819   0.620   8.600 -0.1480 -4.1674  0.7398
  401MOL0     H52875   7.774   0.634   8.290 -2.9828 -0.5526 -1.1773
  401MOL0     H52876   7.677   0.550   8.393 -2.4004  1.6180  2.6655
  401MOL0     H52877   7.593   0.775   8.332  0.3713  0.1968 -0.4872
  401MOL0     H52878   7.733   0.852   8.423 -0.6298  1.3015 -2.6174
  401MOL0     H52879   7.632   0.763   8.629 -0.9074 -2.8655  1.4354
  401MOL0     H52880   7.519   0.655   8.544  0.4978 -0.9665  2.2304
  401MOL0     H52881   7.507   0.952   8.570  0.4645  0.5242  4.9843
  401MOL0     H52882   7.397   0.860   8.470  0.9569  0.2804  0.3529
  401MOL0     H52883   7.311   0.916   8.705  0.5808  0.2860  0.4826
  401MOL0     H52884   7.425   0.799   8.769  0.5991 -1.3573  0.1775
  401MOL0     H52885   7.122   0.853   8.533  0.6365 -0.3154 -1.1060
  401MOL0     H52886   6.938   0.565   8.441  1.6517  3.5147 -1.3355
  401MOL0     H52887   6.879   0.709   8.534  0.1998 -0.2034 -1.4068
  401MOL0     H52888   6.926   0.431   8.645  0.3285 -0.2677 -2.1746
  401MOL0     H52889   6.772   0.494   8.583 -1.2426  1.3232  1.8935
  401MOL0     H52890   6.938   0.580   8.822  1.0248 -2.5375 -0.7610
  401MOL0     H52891   6.798   0.677   8.749  0.4511 -0.5625 -0.1944
  401MOL0     H52892   6.750   0.555   8.956  4.3808  0.3587 -0.5559
  401MOL0     H52893   6.791   0.402   8.869 -1.9268 -0.9252  3.2822
  401MOL0     H52894   6.381   0.496   8.745  1.2980  1.2425  0.7887
  401MOL0     H52895   6.184   0.367   8.863  0.3377 -0.7663 -1.7796
  401MOL0     H52896   6.045  -0.026   8.976  2.2241  2.8571  0.4243
  401MOL0     H52897   5.836  -0.146   9.033  1.1851 -0.0924  1.9837
  401MOL0     H52898   5.503   0.075   9.280 -0.7537 -0.2280  1.9615
  401MOL0     H52899   5.640  -0.005   9.360 -0.5293  0.5048  0.8199
  401MOL0     H52900   5.517  -0.216   9.316 -3.3463 -1.0349 -1.9521
  401MOL0     H52901   5.392  -0.114   9.232 -0.6103 -1.0528 -0.8434
  401MOL0     H52902   5.466  -0.114   9.522  1.4956  0.1802 -0.7368
  401MOL0     H52903   5.330  -0.203   9.465  1.2724  0.2163  1.4256
  401MOL0     H52904   5.380   0.100   9.490  1.4635 -1.3797  0.6859
  401MOL0     H52905   5.244   0.051   9.385  1.6187  1.2170 -0.7193
  401MOL0     H52906   5.185   0.122   9.629 -4.8681 -0.4572 -0.2380
  401MOL0     H52907   5.267  -0.020   9.688  1.5316  0.9291  1.0583
  401MOL0     H52908   5.111  -0.162   9.557  1.0035  1.2866 -2.1073
  401MOL0     H52909   5.035  -0.018   9.483 -3.0282  1.7435  1.5935
  401MOL0     H52910   5.028  -0.069   9.777  2.7965  3.6090 -0.1947
  401MOL0     H52911   4.976   0.058   9.704 -1.0348 -0.7389  2.5669
  401MOL0     H52912   4.789  -0.081   9.757  1.4568  0.2824  0.5180
  401MOL0     H52913   4.863  -0.217   9.665  3.3732  1.3287  0.1020
  401MOL0     H52914   5.698   0.206   9.243 -1.6817 -2.7811  1.0030
  401MOL0     H52915   5.897   0.326   9.189 -1.1747 -1.2704  0.9718
  401MOL0     H52916   6.464   0.187   9.117  0.7680 -1.2132 -0.7105
  401MOL0     H52917   6.639   0.355   9.042  0.1048  0.5887  0.3663
  401MOL0     H52918   8.299   0.418   8.655 -1.3159  2.6173 -0.5082
  401MOL0     H52919   8.548   0.404   8.677  0.3912  0.0401  0.8990
  401MOL0     H52920   9.051   0.615   8.291 -0.5906  1.1391  0.7705
  401MOL0     H52921   9.280   0.555   8.344 -0.3226 -3.1512 -1.4217
  401MOL0     H52922   9.477   0.589   8.501 -1.5323 -0.5622  0.6202
  401MOL0     H52923   9.474   0.457   8.379 -2.3740  0.5459 -1.0476
  401MOL0     H52924   9.688   0.509   8.565 -1.3831  1.2328  2.9247
  401MOL0     H52925   9.586   0.409   8.649  0.7766  1.5425  0.6300
  401MOL0     H52926   9.774   0.303   8.499 -1.4252 -1.8953  3.4968
  401MOL0     H52927   9.697   0.382   8.352 -2.1817 -0.7007 -0.6384
  401MOL0     H52928   9.548   0.152   8.497  1.7526  1.2088  0.9996
  401MOL0     H52929   9.522   0.221   8.334 -0.9251 -0.7331  0.9500
  401MOL0     H52930   9.843  -0.038   8.265 -2.5974 -1.0467 -1.8463
  401MOL0     H52931   9.168   0.403   8.718  1.0791 -1.6461 -1.1790
  401MOL0     H52932   8.927   0.443   8.659 -0.0056  1.1518 -1.2452
  402MOL0     O52933   6.162   8.269   3.842  0.4205  0.0396 -0.2592
  402MOL0     C52934   6.245   8.336   3.779 -0.2413 -0.4192  0.7376
  402MOL0     O52935   6.212   8.456   3.708 -0.1055  0.2893 -0.3549
  402MOL0     C52936   6.087   8.493   3.680 -0.0642  0.1554  0.3540
  402MOL0     C52937   6.061   8.569   3.567  0.2710  0.3188  0.7221
  402MOL0     C52938   5.930   8.607   3.541  0.5763  0.0806  0.1305
  402MOL0     C52939   5.817   8.576   3.615  0.1162  0.0354  0.0319
  402MOL0     O52940   5.685   8.607   3.578 -0.2967  0.0136  0.4805
  402MOL0     C52941   5.628   8.555   3.448 -0.2897 -0.0217 -0.0081
  402MOL0     C52942   5.476   8.539   3.454  0.0153  0.8218 -0.1336
  402MOL0     C52943   5.428   8.466   3.574 -0.1826  0.4156 -0.0332
  402MOL0     C52944   5.476   8.329   3.587  0.4930 -0.3540 -0.3504
  402MOL0     C52945   5.378   8.232   3.659  1.4711 -0.1211  0.5744
  402MOL0     C52946   5.262   8.181   3.563 -0.7152  1.1873 -0.1842
  402MOL0     C52947   5.184   8.059   3.618 -0.2066 -0.0633 -0.1323
  402MOL0     C52948   5.130   8.074   3.761 -0.2499 -0.1793 -0.0542
  402MOL0     N52949   5.030   8.184   3.755 -0.3752 -0.0725 -0.5726
  402MOL0     C52950   5.015   8.292   3.839  0.0052  0.1713 -0.9913
  402MOL0     C52951   4.918   8.365   3.793 -1.0535 -0.2909  0.7952
  402MOL0     C52952   4.869   8.500   3.852  0.0767 -0.2620  0.3859
  402MOL0     C52953   4.919   8.614   3.762  0.5999 -1.0603  0.0899
  402MOL0     C52954   5.069   8.632   3.769 -1.1237  0.1421  0.2163
  402MOL0     C52955   5.098   8.759   3.679  0.1470 -0.4324  0.1768
  402MOL0     O52956   5.024   8.877   3.719 -0.0553 -0.1284  0.0746
  402MOL0     C52957   4.958   8.945   3.618  0.1694 -0.1689  0.1783
  402MOL0     C52958   5.026   8.995   3.509 -0.3114  0.7721  1.0911
  402MOL0     C52959   4.955   9.058   3.405 -0.1086  1.1748  0.2269
  402MOL0     C52960   4.818   9.069   3.410  0.2577 -0.2841  0.0734
  402MOL0     C52961   4.740   9.156   3.315 -1.1338 -0.6451  0.0709
  402MOL0     O52962   4.606   9.165   3.337  0.1023 -0.2020 -0.5443
  402MOL0     C52963   4.539   9.262   3.278 -0.1563 -0.3366  0.2893
  402MOL0     C52964   4.574   9.399   3.277  0.4187 -0.5369  0.3025
  402MOL0     C52965   4.495   9.496   3.208  0.3743  0.3512 -1.3572
  402MOL0     C52966   4.374   9.460   3.143  0.5515 -0.1412 -0.3747
  402MOL0     O52967   4.296   9.567   3.091  0.1296  0.3724  0.3232
  402MOL0     C52968   4.161   9.541   3.057 -0.3433 -0.3211 -0.3382
  402MOL0     C52969   4.077   9.548   3.180 -0.0779 -0.1201  1.1338
  402MOL0     C52970   3.934   9.508   3.160 -0.5183  0.6852 -0.3363
  402MOL0     C52971   3.846   9.566   3.270 -1.3382  0.7626 -0.1087
  402MOL0     C52972   3.699   9.538   3.245  0.7722 -0.5060 -0.1577
  402MOL0     C52973   3.635   9.615   3.135  0.2848 -0.3281  0.5896
  402MOL0     C52974   3.609   9.758   3.161 -0.0864 -0.2474 -0.2984
  402MOL0     C52975   3.458   9.793   3.156 -1.1519  0.3625  0.9025
  402MOL0    Cl52976   3.358   9.722   3.286 -0.2109 -0.2422  0.5439
  402MOL0     C52977   4.340   9.325   3.153 -0.4066 -0.0078  0.0700
  402MOL0     C52978   4.422   9.228   3.212  0.0722  0.0238 -0.1988
  402MOL0     O52979   4.802   9.215   3.231 -0.8602 -0.6831  0.3879
  402MOL0     C52980   4.751   9.018   3.524 -0.5280 -0.4487  0.6062
  402MOL0     C52981   4.821   8.958   3.629 -0.1711  0.4054 -0.2011
  402MOL0     N52982   4.868   8.299   3.685  0.3953  0.1325  0.0167
  402MOL0     N52983   4.934   8.201   3.661 -0.0147  0.3121  0.7228
  402MOL0     C52984   5.845   8.500   3.720  0.3812  0.0527 -0.2743
  402MOL0     C52985   5.973   8.467   3.759 -1.1097 -0.6691 -0.3326
  402MOL0     C52986   6.387   8.311   3.795 -0.3562 -0.4193 -0.4133
  402MOL0     C52987   6.431   8.206   3.882  0.2565  0.4727 -0.0742
  402MOL0     C52988   6.568   8.177   3.891 -0.1603  1.1000  0.3248
  402MOL0     C52989   6.653   8.256   3.822  0.1017 -0.0667 -0.1176
  402MOL0     O52990   6.779   8.221   3.835 -0.0823 -0.5589 -0.5043
  402MOL0     C52991   6.878   8.253   3.738  0.6217 -0.0352  0.3861
  402MOL0     C52992   7.002   8.176   3.768  0.4337 -0.0960  0.3211
  402MOL0     C52993   7.100   8.221   3.655  0.0874 -0.1345 -0.0395
  402MOL0     C52994   7.208   8.118   3.619 -0.4708  0.4451  0.3317
  402MOL0     C52995   7.281   8.070   3.724 -0.1505  0.0250  0.8923
  402MOL0     C52996   7.360   8.035   3.802 -0.2965  0.5749 -0.1227
  402MOL0     C52997   6.609   8.358   3.737 -0.8944  0.2690 -0.3070
  402MOL0     C52998   6.476   8.397   3.731 -0.2387 -0.3277 -0.4625
  402MOL0     H52999   6.143   8.597   3.501  1.4457 -2.6173  0.7488
  402MOL0     H53000   5.924   8.661   3.447  3.2507 -1.3394 -0.9649
  402MOL0     H53001   5.681   8.461   3.431  2.4156  1.2314  0.8374
  402MOL0     H53002   5.645   8.627   3.367  0.1910 -0.0409  0.0713
  402MOL0     H53003   5.447   8.475   3.370  3.0308  2.1489 -2.3684
  402MOL0     H53004   5.424   8.635   3.450 -1.4922  0.1366  1.4438
  402MOL0     H53005   5.319   8.466   3.585 -0.2006 -1.4122  0.1443
  402MOL0     H53006   5.459   8.521   3.663  0.0625 -0.5254  0.4730
  402MOL0     H53007   5.516   8.287   3.494 -2.1141 -1.2271 -1.1591
  402MOL0     H53008   5.563   8.343   3.653 -1.3985  1.1394  1.9946
  402MOL0     H53009   5.331   8.280   3.745 -0.9111  2.2562 -1.8539
  402MOL0     H53010   5.438   8.145   3.688  0.5474 -0.7661  0.5646
  402MOL0     H53011   5.304   8.154   3.466 -2.8581  0.4425 -0.9723
  402MOL0     H53012   5.186   8.259   3.554 -0.7392  1.4725  1.9976
  402MOL0     H53013   5.109   8.035   3.542  0.9634 -0.5452 -1.1851
  402MOL0     H53014   5.253   7.975   3.613  1.4823  1.3088 -1.2362
  402MOL0     H53015   5.206   8.104   3.833 -2.0387  1.1939  1.3601
  402MOL0     H53016   5.085   7.981   3.799  2.9448 -1.8146  0.0423
  402MOL0     H53017   5.067   8.309   3.932  0.1204 -1.2689 -0.7719
  402MOL0     H53018   4.900   8.507   3.957 -1.1219 -0.3472  0.7637
  402MOL0     H53019   4.761   8.489   3.850  0.0558 -0.2065 -2.2028
  402MOL0     H53020   4.870   8.707   3.791 -0.4096 -1.7782  0.7739
  402MOL0     H53021   4.892   8.596   3.658 -0.1009 -2.4072  0.4821
  402MOL0     H53022   5.107   8.653   3.869 -0.1434  1.0222 -0.3168
  402MOL0     H53023   5.119   8.543   3.732 -3.5363 -1.0452 -0.4398
  402MOL0     H53024   5.071   8.745   3.574 -0.5170  2.9509 -0.2374
  402MOL0     H53025   5.206   8.771   3.676  0.3897 -2.5436 -1.3756
  402MOL0     H53026   5.135   8.997   3.507 -0.2889 -0.4525 -0.3985
  402MOL0     H53027   5.006   9.095   3.317  0.5508 -0.5917 -0.1600
  402MOL0     H53028   4.670   9.426   3.321 -0.5351  2.0963  0.9344
  402MOL0     H53029   4.522   9.600   3.192 -2.4668  1.7021  1.4479
  402MOL0     H53030   4.152   9.448   2.999 -0.2107 -0.2405 -0.4897
  402MOL0     H53031   4.127   9.621   2.991 -0.0892 -0.4253 -0.5982
  402MOL0     H53032   4.083   9.652   3.211 -0.6460  0.0207  0.7863
  402MOL0     H53033   4.111   9.475   3.254 -1.7847 -2.2711 -0.0800
  402MOL0     H53034   3.926   9.402   3.186 -1.3025  1.1410  1.4432
  402MOL0     H53035   3.911   9.520   3.054 -0.0277  0.6789 -0.4482
  402MOL0     H53036   3.867   9.514   3.364 -1.3728  2.7525  1.0598
  402MOL0     H53037   3.858   9.672   3.296  0.7704  0.1744  1.6222
  402MOL0     H53038   3.638   9.558   3.333 -1.4899  0.1624 -1.7828
  402MOL0     H53039   3.682   9.431   3.227  0.0007 -0.3018 -0.7224
  402MOL0     H53040   3.541   9.563   3.111  0.5550  0.3017 -2.2626
  402MOL0     H53041   3.692   9.612   3.041 -0.3714 -4.1122  0.1471
  402MOL0     H53042   3.633   9.782   3.265 -0.1549  1.6502 -0.6970
  402MOL0     H53043   3.668   9.817   3.091 -1.0748  0.1242 -0.8507
  402MOL0     H53044   3.409   9.777   3.060 -3.8651 -0.4651  2.3288
  402MOL0     H53045   3.461   9.901   3.171 -0.5186  0.4603  0.1475
  402MOL0     H53046   4.256   9.296   3.091  0.5497  0.1372 -1.3291
  402MOL0     H53047   4.408   9.123   3.193  3.2946 -0.6129  0.3561
  402MOL0     H53048   4.643   9.028   3.535 -0.5257  1.3058 -0.4601
  402MOL0     H53049   4.763   8.927   3.715 -0.0187  0.3433 -0.1212
  402MOL0     H53050   5.758   8.461   3.772 -0.5082  0.1015 -1.6693
  402MOL0     H53051   5.985   8.418   3.855 -0.0330  0.7633  0.3016
  402MOL0     H53052   6.363   8.145   3.941  1.3007 -1.4858 -0.8134
  402MOL0     H53053   6.604   8.094   3.950 -1.7368  2.0931  2.8318
  402MOL0     H53054   6.902   8.360   3.740  2.3602 -0.3413  3.4327
  402MOL0     H53055   6.840   8.224   3.640  1.6404  0.2477 -0.1067
  402MOL0     H53056   7.040   8.198   3.868  1.4075 -0.3096  0.0105
  402MOL0     H53057   6.962   8.074   3.767  0.8675 -0.3648  2.9709
  402MOL0     H53058   7.149   8.317   3.674 -1.1792  0.9706 -2.0361
  402MOL0     H53059   7.044   8.238   3.563  0.6924  0.0324 -0.3814
  402MOL0     H53060   7.169   8.039   3.554  1.2297  0.5366 -0.8727
  402MOL0     H53061   7.279   8.170   3.555 -2.9947  0.4335 -2.7509
  402MOL0     H53062   7.430   8.003   3.877 -0.2805  0.6298 -0.1142
  402MOL0     H53063   6.688   8.415   3.689  2.0690 -0.4908  3.2374
  402MOL0     H53064   6.450   8.468   3.653  1.2839  1.2845  0.4223
  403MOL0     O53065   9.706   0.400   2.552 -0.6803 -0.0312  0.4819
  403MOL0     C53066   9.762   0.410   2.442 -0.4016 -0.8863  0.2567
  403MOL0     O53067   9.705   0.439   2.320  0.4477  0.0652 -0.2510
  403MOL0     C53068   9.573   0.475   2.318  0.1484 -0.4224 -0.2690
  403MOL0     C53069   9.486   0.394   2.257 -0.0927  0.3340  1.2480
  403MOL0     C53070   9.353   0.437   2.233  0.5282  0.4299 -0.1330
  403MOL0     C53071   9.308   0.561   2.259 -0.0333  0.7294 -0.1268
  403MOL0     O53072   9.186   0.598   2.204 -0.1716 -0.2698  0.3154
  403MOL0     C53073   9.192   0.727   2.142  0.9804  0.9816  0.6038
  403MOL0     C53074   9.123   0.825   2.232  0.1349  0.0763  0.5707
  403MOL0     C53075   8.976   0.805   2.273 -0.8104 -0.1263  0.1397
  403MOL0     C53076   8.889   0.857   2.159  0.1303  0.1928  0.5544
  403MOL0     C53077   8.769   0.929   2.197  0.4031  0.2842 -0.6336
  403MOL0     C53078   8.806   1.056   2.270 -0.3612 -1.1649 -0.9900
  403MOL0     C53079   8.685   1.154   2.281  0.7934 -0.7969 -0.4574
  403MOL0     C53080   8.629   1.170   2.424  0.4753  0.5374 -0.2550
  403MOL0     N53081   8.737   1.210   2.524 -0.1057  0.1763  0.3410
  403MOL0     C53082   8.760   1.341   2.564 -0.4977  0.1868  0.9565
  403MOL0     C53083   8.845   1.338   2.672  0.6910  0.0667  0.4671
  403MOL0     C53084   8.882   1.447   2.760  0.4236 -0.3856  0.5060
  403MOL0     C53085   9.026   1.484   2.726  0.1441 -0.6242  0.1740
  403MOL0     C53086   9.085   1.545   2.853  0.3629  0.3165 -0.0577
  403MOL0     C53087   9.150   1.451   2.963  0.4237 -0.4080  0.1029
  403MOL0     O53088   9.208   1.332   2.917  0.2278  0.6375  0.6614
  403MOL0     C53089   9.344   1.331   2.883  0.8850  0.1194 -0.5953
  403MOL0     C53090   9.407   1.211   2.869  0.1528  0.3727 -0.3942
  403MOL0     C53091   9.543   1.207   2.830 -0.3720  0.0860 -0.0007
  403MOL0     C53092   9.614   1.327   2.794  0.3244 -0.3421 -0.3424
  403MOL0     C53093   9.759   1.312   2.758 -0.2868  0.2472  0.1542
  403MOL0     O53094   9.835   1.215   2.812 -0.0411 -0.3079 -0.7395
  403MOL0     C53095   9.973   1.194   2.811  0.0284 -0.1703  0.4807
  403MOL0     C53096  10.064   1.299   2.794 -1.2531  0.2552 -0.2488
  403MOL0     C53097  10.203   1.270   2.789  0.2191  0.2230 -0.0228
  403MOL0     C53098  10.250   1.137   2.803  0.7142 -0.2219 -0.5968
  403MOL0     O53099  10.383   1.096   2.817 -0.1743 -0.8779 -0.1985
  403MOL0     C53100  10.481   1.201   2.794  0.5510 -0.4078 -0.0193
  403MOL0     C53101  10.500   1.236   2.641  0.5742 -0.4810  0.6902
  403MOL0     C53102  10.553   1.118   2.560  0.5119  0.1563  0.4106
  403MOL0     C53103  10.563   1.156   2.415 -0.3418 -0.3963  0.6836
  403MOL0     C53104  10.595   1.033   2.328 -0.0299 -0.7822 -0.2546
  403MOL0     C53105  10.594   1.065   2.183  0.6522  0.6424  0.3899
  403MOL0     C53106  10.587   0.935   2.096 -0.8848 -0.0498 -0.5415
  403MOL0     C53107  10.612   0.967   1.946 -0.5515 -0.3777  0.4289
  403MOL0    Cl53108  10.785   0.997   1.923 -0.0628  0.1954  0.6462
  403MOL0     C53109  10.156   1.040   2.818  0.5886 -0.0611 -0.3383
  403MOL0     C53110  10.021   1.065   2.827  0.3299  0.3562 -0.2709
  403MOL0     O53111   9.808   1.401   2.694  0.6894 -0.4372 -0.4462
  403MOL0     C53112   9.543   1.446   2.800  0.6402 -0.4845 -1.0049
  403MOL0     C53113   9.412   1.445   2.842  0.8020  1.1525 -0.4367
  403MOL0     N53114   8.886   1.201   2.681  0.2853  0.8322  0.1171
  403MOL0     N53115   8.809   1.125   2.602  0.4920  0.0513  0.0768
  403MOL0     C53116   9.398   0.645   2.332 -0.0127 -0.1045  0.7664
  403MOL0     C53117   9.532   0.600   2.359 -0.0655 -0.6641  0.0539
  403MOL0     C53118   9.900   0.376   2.433  0.3566  0.1759  0.0261
  403MOL0     C53119   9.971   0.406   2.318  0.6064 -0.5091  0.0275
  403MOL0     C53120  10.107   0.395   2.310 -0.2302  1.0848  0.0695
  403MOL0     C53121  10.179   0.339   2.418  0.1908  0.0103 -0.0284
  403MOL0     O53122  10.313   0.316   2.408 -0.2332  0.2611 -0.4515
  403MOL0     C53123  10.387   0.321   2.279 -0.1858 -0.2050  0.1504
  403MOL0     C53124  10.532   0.266   2.301  0.3598  0.1776  0.0102
  403MOL0     C53125  10.531   0.115   2.301  0.2600 -0.2367 -0.2888
  403MOL0     C53126  10.671   0.071   2.347  0.2900  1.1124 -0.5207
  403MOL0     C53127  10.779   0.097   2.249 -0.9119 -0.5999  0.8484
  403MOL0     C53128  10.876   0.119   2.179  0.7316  0.0199  1.9273
  403MOL0     C53129  10.106   0.321   2.542 -1.3436  0.0790 -0.2225
  403MOL0     C53130   9.980   0.344   2.553  0.7266 -0.7934 -0.2115
  403MOL0     H53131   9.527   0.301   2.218  0.7029  0.8094  0.9247
  403MOL0     H53132   9.297   0.363   2.176 -0.6376  1.8763 -0.9390
  403MOL0     H53133   9.126   0.703   2.057 -0.3377 -1.0657  2.0932
  403MOL0     H53134   9.285   0.769   2.104  0.4153  0.4508 -1.5417
  403MOL0     H53135   9.142   0.925   2.191  0.0815  0.0050  0.3696
  403MOL0     H53136   9.183   0.824   2.323  3.1336 -2.5299 -1.2447
  403MOL0     H53137   8.966   0.867   2.363 -2.9474 -0.1023 -0.0508
  403MOL0     H53138   8.961   0.703   2.311  1.7065 -0.5942  0.0626
  403MOL0     H53139   8.942   0.924   2.091 -0.6263 -0.0233 -0.2780
  403MOL0     H53140   8.865   0.772   2.094  3.6344 -0.8991  0.4544
  403MOL0     H53141   8.702   0.867   2.258  1.9515 -3.8909 -2.7830
  403MOL0     H53142   8.716   0.943   2.102  2.5500 -3.1332 -2.5081
  403MOL0     H53143   8.886   1.112   2.221 -1.3759  0.0512 -1.3257
  403MOL0     H53144   8.846   1.033   2.369 -0.4252  0.1238 -0.6416
  403MOL0     H53145   8.704   1.254   2.240 -0.1061  0.0528  1.1308
  403MOL0     H53146   8.603   1.113   2.222 -0.5015  0.3761  0.4572
  403MOL0     H53147   8.571   1.083   2.456 -4.2241  3.5291  0.4037
  403MOL0     H53148   8.554   1.249   2.410  1.0087  0.8338 -1.6030
  403MOL0     H53149   8.710   1.435   2.544  0.6338  1.0528  1.9997
  403MOL0     H53150   8.867   1.413   2.863  2.9193 -2.9357  0.1458
  403MOL0     H53151   8.828   1.540   2.740  0.2195 -0.7391 -0.6782
  403MOL0     H53152   9.031   1.560   2.647  1.0825 -0.1333  0.6804
  403MOL0     H53153   9.092   1.407   2.686  1.5070  1.2495 -1.3650
  403MOL0     H53154   9.160   1.620   2.827 -0.3501  0.4676 -1.8064
  403MOL0     H53155   9.000   1.598   2.898  0.0195  0.8657 -1.3304
  403MOL0     H53156   9.068   1.429   3.031 -1.3540  2.8621 -0.7485
  403MOL0     H53157   9.219   1.503   3.031  2.0903 -3.3104  0.7908
  403MOL0     H53158   9.356   1.121   2.901 -1.0151  0.8503 -0.8788
  403MOL0     H53159   9.592   1.110   2.822  0.5437  0.6844 -2.9185
  403MOL0     H53160  10.032   1.401   2.780 -0.4786  0.2859 -2.1389
  403MOL0     H53161  10.271   1.352   2.768 -0.1702  0.0556 -2.1375
  403MOL0     H53162  10.575   1.148   2.816 -1.4556 -3.4537  1.9405
  403MOL0     H53163  10.474   1.288   2.861  0.3997 -0.9569  0.6904
  403MOL0     H53164  10.576   1.314   2.636 -0.0567  0.2343  1.7420
  403MOL0     H53165  10.416   1.278   2.584  2.1820 -0.6388 -1.9642
  403MOL0     H53166  10.488   1.035   2.588  5.0212 -3.2231  2.1532
  403MOL0     H53167  10.650   1.083   2.597  1.2010  1.0999 -0.4247
  403MOL0     H53168  10.466   1.196   2.387 -0.1302 -0.3112  0.0543
  403MOL0     H53169  10.642   1.231   2.404 -0.0717 -0.9673 -1.9942
  403MOL0     H53170  10.516   0.959   2.345 -0.4201 -0.6706 -1.5188
  403MOL0     H53171  10.693   0.989   2.349  0.2861  0.5903  1.3831
  403MOL0     H53172  10.674   1.139   2.169  0.0545  1.4802  1.2994
  403MOL0     H53173  10.497   1.113   2.167  1.7239  2.0513 -2.7465
  403MOL0     H53174  10.658   0.859   2.132  1.8015  0.9489 -3.2702
  403MOL0     H53175  10.485   0.899   2.115 -0.2772 -1.3892  0.3770
  403MOL0     H53176  10.563   1.057   1.906  0.5359 -0.6655 -1.7373
  403MOL0     H53177  10.591   0.877   1.887  1.8332 -0.6017 -0.2031
  403MOL0     H53178  10.184   0.940   2.852  3.0574  1.1461  1.5756
  403MOL0     H53179   9.958   0.982   2.856  0.4635 -0.2358 -1.6079
  403MOL0     H53180   9.595   1.532   2.760 -2.2815  1.8372 -0.2554
  403MOL0     H53181   9.363   1.541   2.835 -1.0186  0.1478 -2.8744
  403MOL0     H53182   9.375   0.748   2.357  0.6266  0.6653 -1.5356
  403MOL0     H53183   9.606   0.658   2.414 -3.4283  3.5200  0.7786
  403MOL0     H53184   9.918   0.455   2.237  2.0252  0.6241 -0.2455
  403MOL0     H53185  10.158   0.429   2.220 -1.2790  0.0073 -0.9701
  403MOL0     H53186  10.392   0.421   2.235 -0.7884 -1.4295 -3.0017
  403MOL0     H53187  10.338   0.269   2.196  0.9825 -0.1773 -0.5874
  403MOL0     H53188  10.587   0.297   2.212 -2.3504  1.5452 -1.3003
  403MOL0     H53189  10.576   0.320   2.385  2.6259  0.6636 -1.3954
  403MOL0     H53190  10.505   0.078   2.202 -1.4219 -1.7119  0.6496
  403MOL0     H53191  10.462   0.077   2.378  1.1035 -0.4398  0.3856
  403MOL0     H53192  10.703   0.121   2.439  5.1143  0.4969 -1.5743
  403MOL0     H53193  10.667  -0.037   2.361  1.7347  1.0134 -0.7670
  403MOL0     H53194  10.963   0.161   2.132 -0.4354  0.6137  0.2090
  403MOL0     H53195  10.159   0.299   2.634 -0.7900  0.8937 -0.3411
  403MOL0     H53196   9.930   0.335   2.649 -2.3041 -1.2775 -1.7215
  404MOL0     O53197   7.432   9.317   2.507 -0.8134  0.5381 -0.5907
  404MOL0     C53198   7.477   9.261   2.611  0.0802 -0.5940 -0.7133
  404MOL0     O53199   7.404   9.185   2.700 -0.3366  0.1294 -0.0931
  404MOL0     C53200   7.266   9.197   2.692  0.2152 -0.5387  0.5226
  404MOL0     C53201   7.200   9.133   2.588  0.3613 -0.2228 -0.0467
  404MOL0     C53202   7.062   9.146   2.572 -0.0952 -0.7511 -0.5989
  404MOL0     C53203   6.983   9.208   2.672 -0.1306 -0.1837 -0.4047
  404MOL0     O53204   6.848   9.226   2.676 -0.1829  0.4273  0.2249
  404MOL0     C53205   6.778   9.107   2.640 -0.3562 -0.0364  0.8665
  404MOL0     C53206   6.633   9.127   2.690  0.4733  0.6938 -0.3131
  404MOL0     C53207   6.570   9.262   2.658  1.3230 -0.3646 -0.6898
  404MOL0     C53208   6.424   9.277   2.708 -1.6199 -0.8625 -0.2495
  404MOL0     C53209   6.373   9.429   2.697 -0.6421 -0.0522  0.6109
  404MOL0     C53210   6.252   9.430   2.789 -0.2068  0.4897  0.4714
  404MOL0     C53211   6.118   9.369   2.738 -0.1993  0.0375  0.0133
  404MOL0     C53212   6.043   9.454   2.633  0.2088  0.5356 -0.3914
  404MOL0     N53213   5.912   9.388   2.636  0.4233 -0.4716  0.0865
  404MOL0     C53214   5.812   9.437   2.709  0.3551  0.3372 -0.0870
  404MOL0     C53215   5.708   9.353   2.679  0.4224 -0.2201 -0.4315
  404MOL0     C53216   5.575   9.381   2.744  0.6337  0.2621  0.3059
  404MOL0     C53217   5.510   9.272   2.828 -1.0260  0.2671  0.9293
  404MOL0     C53218   5.490   9.144   2.744 -0.2127  0.3143 -0.1574
  404MOL0     C53219   5.377   9.067   2.809 -0.9950  0.1659  0.3848
  404MOL0     O53220   5.259   9.131   2.825  0.0397  0.6116  0.0340
  404MOL0     C53221   5.156   9.059   2.879 -0.0188 -0.1989  0.4777
  404MOL0     C53222   5.148   8.921   2.906 -0.4637 -0.1603  0.1625
  404MOL0     C53223   5.040   8.863   2.967  0.0785 -0.0314 -0.0445
  404MOL0     C53224   4.934   8.937   2.997 -0.0250 -0.2192 -0.2281
  404MOL0     C53225   4.808   8.876   3.044 -0.0475 -0.1199 -0.4695
  404MOL0     O53226   4.808   8.769   3.123  0.6632 -0.0773 -0.4645
  404MOL0     C53227   4.705   8.741   3.211  0.1574  0.4198 -0.5707
  404MOL0     C53228   4.562   8.741   3.171  0.5553 -0.0708  0.1304
  404MOL0     C53229   4.463   8.705   3.259 -0.0178 -0.1653 -0.3220
  404MOL0     C53230   4.496   8.688   3.391  0.1225 -0.2139 -0.3892
  404MOL0     O53231   4.397   8.676   3.481  0.1396  0.3463  0.2107
  404MOL0     C53232   4.373   8.541   3.512  0.3842 -0.1988 -0.7149
  404MOL0     C53233   4.231   8.498   3.481  0.4900 -0.7145  0.4194
  404MOL0     C53234   4.191   8.511   3.330  0.0498 -0.1817  0.2113
  404MOL0     C53235   4.077   8.413   3.296 -0.4092  1.1489 -0.9543
  404MOL0     C53236   3.951   8.428   3.378  0.1106  0.8851 -0.2235
  404MOL0     C53237   3.828   8.356   3.327  0.2641 -0.1370  0.7503
  404MOL0     C53238   3.708   8.341   3.425  0.2474 -0.3656 -0.3293
  404MOL0     C53239   3.574   8.391   3.366 -0.3930  0.8731  0.5394
  404MOL0    Cl53240   3.536   8.306   3.208 -0.0597  0.0381  0.3721
  404MOL0     C53241   4.635   8.677   3.431  1.3054 -0.2672  0.6749
  404MOL0     C53242   4.733   8.707   3.343 -0.5619  0.2953 -0.0068
  404MOL0     O53243   4.709   8.946   3.026 -0.0185 -0.9217 -0.1498
  404MOL0     C53244   4.937   9.077   2.982 -0.4952  0.5975  0.0256
  404MOL0     C53245   5.051   9.135   2.919  0.4655 -0.0703  0.3215
  404MOL0     N53246   5.753   9.255   2.586  0.7866  0.1651 -0.7120
  404MOL0     N53247   5.878   9.276   2.571  0.0304  0.0201  0.2462
  404MOL0     C53248   7.049   9.277   2.776 -0.9581  0.2849  0.1295
  404MOL0     C53249   7.194   9.267   2.787 -0.0194  0.5349 -0.2614
  404MOL0     C53250   7.626   9.265   2.627  0.2932 -1.1599 -0.2440
  404MOL0     C53251   7.690   9.209   2.737  0.1672 -0.1042 -0.7625
  404MOL0     C53252   7.827   9.199   2.750 -0.1999 -0.3576 -0.6095
  404MOL0     C53253   7.912   9.251   2.644 -0.5119  0.8137  0.5156
  404MOL0     O53254   8.051   9.232   2.648 -0.0411 -0.2113 -0.2798
  404MOL0     C53255   8.122   9.354   2.693  0.0648  0.8389 -0.0430
  404MOL0     C53256   8.277   9.332   2.711  1.0161 -0.7067 -0.1207
  404MOL0     C53257   8.302   9.254   2.848 -0.0440 -0.0754 -1.0941
  404MOL0     C53258   8.449   9.197   2.863  0.4308 -0.0502  0.2014
  404MOL0     C53259   8.548   9.304   2.856 -0.1227  0.3752 -0.7057
  404MOL0     C53260   8.629   9.397   2.853 -0.4905  0.1216 -0.8237
  404MOL0     C53261   7.845   9.310   2.534  0.7655  0.0476 -0.2503
  404MOL0     C53262   7.707   9.320   2.530 -0.4583  0.2380  0.0579
  404MOL0     H53263   7.263   9.085   2.513  1.4282 -0.0742  0.7195
  404MOL0     H53264   7.018   9.128   2.475  2.1308 -1.4585 -1.5325
  404MOL0     H53265   6.823   9.016   2.680 -1.9881 -0.7083  1.2771
  404MOL0     H53266   6.782   9.104   2.531  2.4739  1.3835  0.8400
  404MOL0     H53267   6.632   9.106   2.797  0.2846 -0.1215 -0.4660
  404MOL0     H53268   6.582   9.047   2.635 -1.1443  0.1212  1.8622
  404MOL0     H53269   6.562   9.287   2.552  2.3723  2.6535 -0.1757
  404MOL0     H53270   6.625   9.345   2.703  0.0408  1.2311 -1.9481
  404MOL0     H53271   6.373   9.202   2.647 -2.0484 -0.3272 -0.5574
  404MOL0     H53272   6.417   9.245   2.813  1.2411 -2.7672 -0.5112
  404MOL0     H53273   6.339   9.459   2.598 -0.4992 -2.7151 -0.3401
  404MOL0     H53274   6.462   9.485   2.724 -1.6885  1.7899  0.3811
  404MOL0     H53275   6.219   9.532   2.811  0.1741  0.8740 -0.6738
  404MOL0     H53276   6.263   9.388   2.890 -2.0174  1.2249  1.0000
  404MOL0     H53277   6.141   9.272   2.694 -1.1555 -0.1523 -0.0867
  404MOL0     H53278   6.053   9.336   2.820  1.9289  0.0275  1.7855
  404MOL0     H53279   6.095   9.450   2.536  1.1901 -5.0114  0.0031
  404MOL0     H53280   6.037   9.557   2.669 -5.5958  0.5376 -0.5255
  404MOL0     H53281   5.818   9.517   2.782 -0.4594 -0.7597  1.2295
  404MOL0     H53282   5.495   9.418   2.679 -1.7233 -1.0445  2.3136
  404MOL0     H53283   5.594   9.470   2.805  1.3130 -0.6418  1.4663
  404MOL0     H53284   5.421   9.301   2.885 -0.2717 -1.2820  3.0677
  404MOL0     H53285   5.587   9.240   2.899 -0.2685  0.0495  0.0277
  404MOL0     H53286   5.464   9.167   2.641 -1.2210 -1.2902 -0.2990
  404MOL0     H53287   5.581   9.085   2.746 -0.1521  0.4013 -0.3882
  404MOL0     H53288   5.418   9.042   2.907 -0.2422 -0.0035  0.0352
  404MOL0     H53289   5.348   8.995   2.732 -3.5584  3.1867 -1.7167
  404MOL0     H53290   5.225   8.851   2.876 -0.9101 -0.3932 -0.4600
  404MOL0     H53291   5.035   8.755   2.973  4.0329 -0.5330 -2.4653
  404MOL0     H53292   4.544   8.764   3.066  0.1639 -1.4119 -0.1094
  404MOL0     H53293   4.359   8.706   3.227  0.4445 -0.0022 -1.8874
  404MOL0     H53294   4.394   8.537   3.619  1.2826 -0.5273 -0.8996
  404MOL0     H53295   4.438   8.471   3.460  1.4744  1.1644 -1.2390
  404MOL0     H53296   4.155   8.570   3.515  1.5536  1.0005 -0.6621
  404MOL0     H53297   4.217   8.395   3.515 -0.1679 -1.7163 -2.6013
  404MOL0     H53298   4.282   8.492   3.273 -0.0222 -1.2326  0.4246
  404MOL0     H53299   4.168   8.614   3.300  0.1347  0.4397  2.1660
  404MOL0     H53300   4.047   8.423   3.192 -4.1147 -1.1679 -0.2851
  404MOL0     H53301   4.119   8.313   3.310  0.1868  1.4591 -0.4760
  404MOL0     H53302   3.917   8.532   3.385 -2.0098  0.1733  1.0337
  404MOL0     H53303   3.970   8.393   3.480  0.8742  0.6861 -0.4302
  404MOL0     H53304   3.858   8.251   3.316  0.8806  0.0884  0.2479
  404MOL0     H53305   3.810   8.403   3.230  0.4375 -0.2648  0.6547
  404MOL0     H53306   3.700   8.238   3.458  2.2086  0.2303  2.3157
  404MOL0     H53307   3.724   8.412   3.507 -1.0058  1.2275 -1.3789
  404MOL0     H53308   3.580   8.493   3.327 -1.8652  0.8388  0.1744
  404MOL0     H53309   3.492   8.377   3.438 -1.2607 -1.8979 -0.8651
  404MOL0     H53310   4.667   8.673   3.535  0.0220  0.9670  1.1435
  404MOL0     H53311   4.837   8.719   3.371 -1.0220  1.1785  1.4037
  404MOL0     H53312   4.858   9.144   3.015  1.7452  1.9573  3.1771
  404MOL0     H53313   5.074   9.240   2.905  0.7807  0.0458  1.5654
  404MOL0     H53314   6.995   9.327   2.855  0.2243  1.2521  0.3618
  404MOL0     H53315   7.252   9.319   2.863 -0.6153  0.5674  0.1828
  404MOL0     H53316   7.640   9.156   2.818  0.8859  3.0366  1.9887
  404MOL0     H53317   7.879   9.151   2.833 -4.0612 -1.2195  1.5827
  404MOL0     H53318   8.092   9.384   2.793  1.9213 -2.2814  1.6087
  404MOL0     H53319   8.102   9.434   2.622 -0.7679  0.4681 -0.2412
  404MOL0     H53320   8.317   9.274   2.628  2.4546 -0.3530  0.3037
  404MOL0     H53321   8.327   9.429   2.708 -2.1236  1.1856  2.4394
  404MOL0     H53322   8.227   9.175   2.860  1.4491 -1.1617  2.0415
  404MOL0     H53323   8.283   9.330   2.924 -1.0462 -0.4597 -0.9377
  404MOL0     H53324   8.456   9.147   2.960  0.4778  2.2163  1.4273
  404MOL0     H53325   8.468   9.123   2.785  4.9099  0.4669  0.5267
  404MOL0     H53326   8.708   9.469   2.861 -1.5534  1.1207  3.1235
  404MOL0     H53327   7.902   9.336   2.445  0.0766 -0.0303 -0.7179
  404MOL0     H53328   7.667   9.365   2.440 -0.4673  1.3256  0.5757
  405MOL0     O53329   9.367  11.034   9.919 -0.1298  0.5318  0.3469
  405MOL0     C53330   9.428  10.969  10.001  0.0596 -0.2132 -0.6321
  405MOL0     O53331   9.374  10.900  10.108 -0.1464  0.0343  0.5760
  405MOL0     C53332   9.236  10.902  10.112 -0.7283  0.0977 -0.5200
  405MOL0     C53333   9.179  10.783  10.153  0.4320  0.0717  0.6629
  405MOL0     C53334   9.044  10.771  10.172  0.0499  0.0400  0.6610
  405MOL0     C53335   8.956  10.883  10.141 -0.2765 -0.4432  0.3754
  405MOL0     O53336   8.816  10.861  10.148 -1.2030  0.2081 -0.3601
  405MOL0     C53337   8.736  10.976  10.153 -1.0904 -0.4063  0.9532
  405MOL0     C53338   8.591  10.943  10.178 -0.2909 -0.4415  0.6023
  405MOL0     C53339   8.523  10.865  10.059  0.4385  0.1442 -0.5673
  405MOL0     C53340   8.371  10.832  10.075  0.0968  0.0928 -0.0970
  405MOL0     C53341   8.331  10.765   9.938 -0.5090 -0.2179 -0.5418
  405MOL0     C53342   8.184  10.755   9.918 -0.6644 -0.7803 -0.1185
  405MOL0     C53343   8.109  10.676  10.026  0.4394 -0.3730  0.3657
  405MOL0     C53344   7.967  10.639   9.987 -0.2366  0.5740 -0.6277
  405MOL0     N53345   7.880  10.752   9.994  0.1725  0.1015  0.4939
  405MOL0     C53346   7.822  10.796  10.114  0.4799  0.7398 -0.7084
  405MOL0     C53347   7.718  10.867  10.063  0.9456 -0.0493  0.2721
  405MOL0     C53348   7.607  10.931  10.149  0.2147 -0.2774 -0.1983
  405MOL0     C53349   7.464  10.901  10.098  0.4932  0.9803  1.4345
  405MOL0     C53350   7.421  10.747  10.075 -0.2892  0.3120  0.5860
  405MOL0     C53351   7.275  10.721  10.038  0.0926  0.6687 -0.0828
  405MOL0     O53352   7.196  10.747  10.155  0.1328  0.7129 -0.1926
  405MOL0     C53353   7.063  10.737  10.141  1.0732 -0.3193  0.7571
  405MOL0     C53354   6.993  10.683  10.038 -0.4399  0.3503  0.3687
  405MOL0     C53355   6.850  10.680  10.046  0.6739 -0.1655  0.5858
  405MOL0     C53356   6.782  10.724  10.157  0.3253  0.6098  0.7266
  405MOL0     C53357   6.636  10.697  10.173 -0.0524  0.3550 -0.5513
  405MOL0     O53358   6.585  10.732  10.289 -0.1182  0.3891 -0.4774
  405MOL0     C53359   6.444  10.727  10.317  0.0409 -0.8316  0.0311
  405MOL0     C53360   6.377  10.856  10.298  0.2650 -0.4419 -0.1555
  405MOL0     C53361   6.241  10.859  10.325  0.0777 -0.4450 -0.3307
  405MOL0     C53362   6.168  10.743  10.353  0.2777 -0.8635  0.5103
  405MOL0     O53363   6.036  10.727  10.363  0.5261  0.5503  0.5920
  405MOL0     C53364   5.944  10.841  10.357 -0.8903 -0.1711  1.2085
  405MOL0     C53365   5.808  10.800  10.396 -0.6122 -0.3338  0.6122
  405MOL0     C53366   5.768  10.674  10.306  0.1497  0.1809  0.0206
  405MOL0     C53367   5.620  10.645  10.343 -0.0645 -0.4121  0.0199
  405MOL0     C53368   5.560  10.539  10.250 -0.3084 -0.2136  0.9452
  405MOL0     C53369   5.507  10.604  10.127 -0.8070 -0.4323 -0.6255
  405MOL0     C53370   5.435  10.511  10.036  0.4024 -0.3562 -0.2590
  405MOL0     C53371   5.313  10.578   9.973  0.7302  0.2391 -0.1437
  405MOL0    Cl53372   5.183  10.594  10.100  0.0457  0.0168  0.1740
  405MOL0     C53373   6.240  10.627  10.364 -0.3683  0.3325  0.2712
  405MOL0     C53374   6.372  10.617  10.337 -0.9055  0.1597  0.2730
  405MOL0     O53375   6.571  10.635  10.087 -0.0836 -0.7609  0.4487
  405MOL0     C53376   6.859  10.778  10.259  0.7641  0.7133  0.1583
  405MOL0     C53377   7.002  10.779  10.252  0.0250  0.5517 -0.4675
  405MOL0     N53378   7.721  10.875   9.929  0.2033 -0.6931  0.3293
  405MOL0     N53379   7.821  10.813   9.888 -0.4528 -0.2314  0.1868
  405MOL0     C53380   9.015  11.002  10.102 -0.1524  0.0745 -0.3855
  405MOL0     C53381   9.148  11.011  10.089  0.0135  0.8192 -0.1544
  405MOL0     C53382   9.573  10.958   9.995  0.4238 -0.2196  0.1516
  405MOL0     C53383   9.650  10.945  10.115  0.3941  0.6660  0.3786
  405MOL0     C53384   9.788  10.943  10.116 -0.1700  0.7876  0.3244
  405MOL0     C53385   9.862  10.957   9.995 -0.4951  0.1570  0.1943
  405MOL0     O53386  10.002  10.965   9.995 -0.0132  0.4264  0.7852
  405MOL0     C53387  10.057  10.863  10.085 -0.1319 -0.3066 -0.7491
  405MOL0     C53388  10.183  10.800  10.015  0.9715  0.0644 -0.2256
  405MOL0     C53389  10.269  10.893   9.936  0.3262  0.5493 -0.4525
  405MOL0     C53390  10.376  10.822   9.855  0.0895  1.5049 -0.4460
  405MOL0     C53391  10.507  10.830   9.926 -0.6823  0.0083 -0.0382
  405MOL0     C53392  10.611  10.836   9.977 -1.1167  0.3964 -0.6215
  405MOL0     C53393   9.782  10.983   9.873  0.3028 -0.2762 -0.6470
  405MOL0     C53394   9.643  10.979   9.871  0.0357  0.0781 -0.5906
  405MOL0     H53395   9.246  10.700  10.176  1.2809  0.3392 -0.7091
  405MOL0     H53396   9.000  10.679  10.211 -2.3315  1.5705  1.8269
  405MOL0     H53397   8.748  11.024  10.055  1.6866 -0.8684  0.9978
  405MOL0     H53398   8.775  11.045  10.228 -0.7301  1.4209 -0.8179
  405MOL0     H53399   8.545  11.042  10.185  0.5189 -0.1834  3.2791
  405MOL0     H53400   8.584  10.898  10.277  1.6349 -2.4920 -0.1157
  405MOL0     H53401   8.573  10.770  10.039 -1.9972 -0.9775 -1.6237
  405MOL0     H53402   8.536  10.935   9.976 -0.3171  1.4975  0.4059
  405MOL0     H53403   8.355  10.761  10.157  1.3541 -1.3894 -1.0778
  405MOL0     H53404   8.319  10.926  10.096 -0.3737 -0.3102  0.5899
  405MOL0     H53405   8.361  10.660   9.937 -1.9254 -0.7309  2.0688
  405MOL0     H53406   8.390  10.809   9.856  0.4880 -1.1542 -0.3548
  405MOL0     H53407   8.174  10.719   9.815  3.6630 -1.7894 -0.3848
  405MOL0     H53408   8.142  10.856   9.914 -1.3610 -0.7933  3.5872
  405MOL0     H53409   8.162  10.585  10.055  2.5998  1.4944  2.7639
  405MOL0     H53410   8.106  10.738  10.116 -2.0818 -0.6789  0.5706
  405MOL0     H53411   7.923  10.560  10.048  2.6025 -0.1570  0.6052
  405MOL0     H53412   7.971  10.597   9.886 -1.9788 -2.1177  0.3133
  405MOL0     H53413   7.845  10.764  10.215  1.5097  0.4327 -1.0340
  405MOL0     H53414   7.615  11.040  10.152 -0.6311 -0.2153 -0.0203
  405MOL0     H53415   7.617  10.884  10.248 -1.1662 -1.9192 -0.7871
  405MOL0     H53416   7.446  10.965  10.011 -0.1915 -0.5571  0.3973
  405MOL0     H53417   7.393  10.945  10.169 -2.5355 -0.8468 -0.2175
  405MOL0     H53418   7.469  10.705   9.985  0.0902 -0.7919  1.2829
  405MOL0     H53419   7.462  10.691  10.160 -1.9523  0.6819  1.6564
  405MOL0     H53420   7.259  10.618  10.006 -2.2041  1.4993 -1.8574
  405MOL0     H53421   7.232  10.788   9.963 -0.2967  0.4204 -0.0844
  405MOL0     H53422   7.050  10.660   9.949  1.5598  1.7863  1.1902
  405MOL0     H53423   6.789  10.630   9.972  2.4003 -0.8054 -0.4759
  405MOL0     H53424   6.431  10.948  10.277 -0.6001  1.0645  3.5055
  405MOL0     H53425   6.192  10.953  10.301  0.0484 -1.4209 -4.9627
  405MOL0     H53426   5.944  10.884  10.256  1.9006  0.0355  1.1953
  405MOL0     H53427   5.985  10.922  10.418 -0.5741  0.7072 -0.1170
  405MOL0     H53428   5.744  10.887  10.384  0.1319  0.2669  0.9074
  405MOL0     H53429   5.819  10.762  10.498 -0.9035  0.3371  0.8958
  405MOL0     H53430   5.821  10.583  10.336 -0.9288 -0.2137  0.7875
  405MOL0     H53431   5.781  10.695  10.199 -0.0005  1.3084  0.2102
  405MOL0     H53432   5.614  10.591  10.438  0.5791 -0.2493  0.1522
  405MOL0     H53433   5.563  10.739  10.344  0.5681  0.0201 -1.5170
  405MOL0     H53434   5.485  10.483  10.306 -1.8589  2.1735  1.4179
  405MOL0     H53435   5.633  10.466  10.213 -0.2071  0.8169 -1.0191
  405MOL0     H53436   5.581  10.650  10.062 -2.7851  1.7898 -1.4562
  405MOL0     H53437   5.443  10.687  10.160 -0.2917  0.2047 -1.1936
  405MOL0     H53438   5.494  10.488   9.947 -1.7196  4.9530 -3.4822
  405MOL0     H53439   5.415  10.415  10.086  1.2395 -0.4903 -0.1639
  405MOL0     H53440   5.281  10.516   9.888 -0.4978 -0.5356  0.8449
  405MOL0     H53441   5.346  10.677   9.941 -0.9121  1.1335  0.8042
  405MOL0     H53442   6.180  10.540  10.389  0.1227 -0.7990 -2.1394
  405MOL0     H53443   6.423  10.521  10.336 -0.6815  0.2469 -1.9612
  405MOL0     H53444   6.819  10.815  10.353  0.1809 -1.6777  0.9073
  405MOL0     H53445   7.056  10.811  10.341  0.4905  2.5690 -1.4272
  405MOL0     H53446   8.959  11.095  10.092  2.7227  1.9346 -0.4059
  405MOL0     H53447   9.182  11.111  10.063 -4.9940  2.4058 -1.8701
  405MOL0     H53448   9.589  10.932  10.204 -2.7886  2.4359 -1.3669
  405MOL0     H53449   9.845  10.940  10.209  2.3998  0.3534 -1.1761
  405MOL0     H53450   9.993  10.782  10.122  1.6706 -0.8519  1.4536
  405MOL0     H53451  10.090  10.912  10.178 -0.0541 -0.4075 -0.7229
  405MOL0     H53452  10.241  10.759  10.098  0.7835  0.8511  0.2933
  405MOL0     H53453  10.154  10.718   9.949 -0.0875  0.9507 -0.8934
  405MOL0     H53454  10.315  10.955  10.013  0.5248  1.2971 -1.1653
  405MOL0     H53455  10.204  10.961   9.881 -0.4244  1.0821  1.0346
  405MOL0     H53456  10.348  10.722   9.822  1.6388 -0.2236  2.9882
  405MOL0     H53457  10.380  10.871   9.757 -1.9843  2.8630  0.0891
  405MOL0     H53458  10.709  10.836  10.020 -1.6915 -1.6365  0.8031
  405MOL0     H53459   9.842  10.992   9.783 -0.1883 -0.8543 -1.0441
  405MOL0     H53460   9.594  10.995   9.775 -0.6447 -1.3152 -0.5080
  406MOL0     O53461   5.542   9.813   3.449  0.4766 -0.0758  0.5804
  406MOL0     C53462   5.553   9.692   3.481 -0.9184 -0.5367  0.5350
  406MOL0     O53463   5.664   9.612   3.460 -0.1252  0.4079 -0.0010
  406MOL0     C53464   5.790   9.655   3.436  0.1027 -0.0656  0.7083
  406MOL0     C53465   5.836   9.781   3.480  0.1463 -0.5988  0.5889
  406MOL0     C53466   5.975   9.812   3.466  1.2618  0.2554 -0.0695
  406MOL0     C53467   6.057   9.710   3.414 -0.5602  0.1170 -0.6810
  406MOL0     O53468   6.181   9.746   3.379  0.7093  0.3903  0.1775
  406MOL0     C53469   6.256   9.815   3.480 -0.5108  0.0860 -0.2450
  406MOL0     C53470   6.407   9.803   3.447 -0.1356 -0.2442  0.3368
  406MOL0     C53471   6.457   9.664   3.497  0.0856  0.4463 -0.7370
  406MOL0     C53472   6.591   9.637   3.455 -0.1696 -0.3276 -0.0245
  406MOL0     C53473   6.653   9.506   3.519  0.6650  0.0528 -0.2428
  406MOL0     C53474   6.794   9.475   3.464 -0.2527  0.3153  0.6137
  406MOL0     C53475   6.866   9.354   3.532 -0.0273 -0.5363 -0.2497
  406MOL0     C53476   6.804   9.215   3.508 -0.0460  0.3197 -0.7140
  406MOL0     N53477   6.804   9.169   3.367 -0.0742  0.0986 -0.0262
  406MOL0     C53478   6.696   9.180   3.280  0.6822 -0.6351  0.2191
  406MOL0     C53479   6.717   9.087   3.181 -0.4212  0.5557  0.8301
  406MOL0     C53480   6.633   9.071   3.066  0.9653  0.4120  0.2949
  406MOL0     C53481   6.505   8.988   3.096  0.0694 -0.0400  0.4687
  406MOL0     C53482   6.437   8.957   2.966 -0.4842  0.0330  0.1515
  406MOL0     C53483   6.307   8.883   2.987  0.5348  0.3770 -0.0135
  406MOL0     O53484   6.328   8.774   3.078  0.1614 -0.3891  0.1429
  406MOL0     C53485   6.222   8.693   3.107 -0.3529  0.0909  0.0608
  406MOL0     C53486   6.229   8.605   3.214 -0.4366  0.1656  0.2376
  406MOL0     C53487   6.134   8.511   3.240  0.1362  0.0765  0.7402
  406MOL0     C53488   6.005   8.514   3.172 -0.6508 -0.6893  0.2010
  406MOL0     C53489   5.895   8.414   3.193  0.6449  0.0716 -1.1971
  406MOL0     O53490   5.785   8.407   3.103  0.6148  0.3720  0.4438
  406MOL0     C53491   5.678   8.315   3.100 -0.5611  0.1408 -0.7882
  406MOL0     C53492   5.641   8.232   3.205  0.2653 -0.7607 -0.1014
  406MOL0     C53493   5.535   8.140   3.195  0.4359 -0.0175 -1.0610
  406MOL0     C53494   5.471   8.124   3.078  0.1155  0.1131  0.0229
  406MOL0     O53495   5.383   8.021   3.054 -0.1661  0.4820  0.7146
  406MOL0     C53496   5.248   8.065   3.081  0.3551 -0.1072  0.1575
  406MOL0     C53497   5.141   7.966   3.038 -0.4872  0.5255  0.1946
  406MOL0     C53498   5.123   7.938   2.887  0.7935  0.2238 -0.0018
  406MOL0     C53499   5.001   7.859   2.848  1.0435 -0.1554 -0.1769
  406MOL0     C53500   4.942   7.901   2.713  0.2253  0.0526  0.2467
  406MOL0     C53501   4.817   7.828   2.688  0.3264 -0.3813 -1.0140
  406MOL0     C53502   4.754   7.878   2.555 -0.4194 -0.2515 -0.4577
  406MOL0     C53503   4.620   7.802   2.520  0.9831  0.1203  0.2001
  406MOL0    Cl53504   4.495   7.814   2.654 -0.2513  0.3030 -0.8732
  406MOL0     C53505   5.507   8.198   2.967  0.2547  0.1979  0.4473
  406MOL0     C53506   5.608   8.291   2.982 -0.5789  0.7006  0.6769
  406MOL0     O53507   5.909   8.331   3.281  0.4313  0.3996 -0.3429
  406MOL0     C53508   5.995   8.606   3.063  1.1329  0.9947 -0.2933
  406MOL0     C53509   6.100   8.693   3.036  1.1558 -0.4398  0.3729
  406MOL0     N53510   6.834   9.018   3.210  0.0433  0.2969  0.2452
  406MOL0     N53511   6.883   9.060   3.324 -0.3300 -0.0309  0.2085
  406MOL0     C53512   6.019   9.586   3.388  0.5467 -0.1479 -0.2134
  406MOL0     C53513   5.879   9.560   3.395 -0.6348  0.3563 -0.2668
  406MOL0     C53514   5.435   9.640   3.561 -0.2243  0.6374  0.7391
  406MOL0     C53515   5.312   9.701   3.559 -1.0389 -0.4528  0.4165
  406MOL0     C53516   5.199   9.650   3.628  0.1746 -0.2192  0.3872
  406MOL0     C53517   5.222   9.519   3.682 -1.2675 -1.5564 -0.2371
  406MOL0     O53518   5.124   9.436   3.730 -0.6031 -0.5915 -0.2305
  406MOL0     C53519   4.992   9.486   3.709 -1.5239  1.2339 -0.1072
  406MOL0     C53520   4.910   9.366   3.756  0.8049 -0.0574  0.2996
  406MOL0     C53521   4.769   9.376   3.690  0.0664  1.3211  0.6745
  406MOL0     C53522   4.664   9.275   3.732 -0.5729  0.2783 -0.2393
  406MOL0     C53523   4.530   9.332   3.685 -0.9653  0.8235 -0.1249
  406MOL0     C53524   4.436   9.398   3.645 -0.1848  0.4579 -0.2095
  406MOL0     C53525   5.347   9.464   3.685  0.2683  0.6437 -0.0429
  406MOL0     C53526   5.457   9.524   3.626  0.2036 -0.9805 -0.0799
  406MOL0     H53527   5.768   9.857   3.519  0.6026  0.1791 -0.0987
  406MOL0     H53528   6.008   9.912   3.489  1.1924  0.2203  0.1836
  406MOL0     H53529   6.229   9.777   3.579 -4.8162 -0.3003 -1.3619
  406MOL0     H53530   6.241   9.923   3.488  1.7230  0.4010  0.5275
  406MOL0     H53531   6.467   9.884   3.489 -3.0667  1.0545  2.3285
  406MOL0     H53532   6.417   9.807   3.338  0.3308  2.9365  0.4273
  406MOL0     H53533   6.390   9.588   3.457 -2.0018  0.4600  2.3501
  406MOL0     H53534   6.454   9.659   3.606  0.2391  0.2450 -0.7420
  406MOL0     H53535   6.598   9.614   3.349  1.7785 -1.4188  0.2937
  406MOL0     H53536   6.654   9.724   3.476  0.9939 -1.1094 -0.1723
  406MOL0     H53537   6.579   9.427   3.503  0.9347 -0.3316  0.3667
  406MOL0     H53538   6.660   9.537   3.623 -2.4036 -2.0324  0.7231
  406MOL0     H53539   6.854   9.566   3.468 -0.4686  0.5357 -0.8255
  406MOL0     H53540   6.776   9.444   3.361 -2.8046  3.2976  0.0366
  406MOL0     H53541   6.967   9.343   3.493  1.7200 -0.6820  3.8557
  406MOL0     H53542   6.883   9.364   3.640  2.9984 -0.4727 -0.6491
  406MOL0     H53543   6.700   9.215   3.542  0.8032  1.9416  2.1410
  406MOL0     H53544   6.865   9.147   3.568  0.7024  0.6331 -1.1077
  406MOL0     H53545   6.606   9.239   3.296  0.9832 -0.6471  2.1720
  406MOL0     H53546   6.703   9.013   3.004  2.1010 -1.0250  2.7492
  406MOL0     H53547   6.618   9.174   3.034  1.4948  0.3063 -0.3323
  406MOL0     H53548   6.434   9.039   3.163 -0.2243 -0.0340  0.1531
  406MOL0     H53549   6.533   8.891   3.139  0.7026  0.3981  1.0531
  406MOL0     H53550   6.416   9.048   2.909 -2.6960 -1.0221 -0.8885
  406MOL0     H53551   6.508   8.906   2.900 -0.6622 -1.7626  1.2702
  406MOL0     H53552   6.284   8.831   2.894 -3.1334 -0.4632  1.2202
  406MOL0     H53553   6.225   8.953   3.009  0.0003  0.0193 -0.8229
  406MOL0     H53554   6.323   8.604   3.268 -0.2704 -1.9200  0.0032
  406MOL0     H53555   6.164   8.439   3.316  0.1185  0.2470  0.9111
  406MOL0     H53556   5.680   8.249   3.305 -0.7261 -1.0002  0.3425
  406MOL0     H53557   5.499   8.073   3.273 -0.3331 -0.0819 -1.4655
  406MOL0     H53558   5.232   8.157   3.024 -1.1107 -2.0439 -2.8137
  406MOL0     H53559   5.235   8.075   3.189 -2.1271 -1.9878  0.1107
  406MOL0     H53560   5.047   8.006   3.077  2.1484  2.9963  4.7982
  406MOL0     H53561   5.158   7.868   3.083 -0.6293  0.9347  1.1478
  406MOL0     H53562   5.214   7.884   2.859 -0.1617 -1.5935  0.2640
  406MOL0     H53563   5.127   8.034   2.835  1.7589  0.0141 -0.3331
  406MOL0     H53564   5.029   7.754   2.838 -1.1043 -0.6664 -1.5451
  406MOL0     H53565   4.924   7.874   2.925  0.4489 -0.9987 -0.6005
  406MOL0     H53566   5.006   7.884   2.627 -2.4967 -2.7724 -1.4372
  406MOL0     H53567   4.922   8.009   2.719  1.3362  0.2484  0.6168
  406MOL0     H53568   4.741   7.844   2.765  0.1477 -0.8662 -1.0846
  406MOL0     H53569   4.838   7.721   2.679 -2.1902 -0.8639 -2.0567
  406MOL0     H53570   4.734   7.985   2.560 -0.0866 -0.2632  1.7327
  406MOL0     H53571   4.832   7.844   2.486 -1.9121 -1.8008 -1.4634
  406MOL0     H53572   4.641   7.697   2.497 -2.4709 -0.3350 -1.5274
  406MOL0     H53573   4.580   7.849   2.430 -0.1600  1.7001  1.4758
  406MOL0     H53574   5.460   8.189   2.870  1.3346  2.8114 -0.4213
  406MOL0     H53575   5.644   8.346   2.896 -2.5284 -1.1027 -1.4053
  406MOL0     H53576   5.896   8.613   3.019  0.3290  2.8415  1.6202
  406MOL0     H53577   6.082   8.759   2.951  1.7162  0.2688  0.7883
  406MOL0     H53578   6.083   9.502   3.361 -1.1581 -1.8071  0.6852
  406MOL0     H53579   5.848   9.459   3.371 -0.3541  0.1144  0.3489
  406MOL0     H53580   5.299   9.792   3.501  1.1904 -0.5104 -0.2785
  406MOL0     H53581   5.102   9.698   3.624  0.1547 -0.3352 -1.6961
  406MOL0     H53582   4.983   9.498   3.600 -1.3793  2.7507  0.0359
  406MOL0     H53583   4.970   9.570   3.774  0.6412  1.8162 -0.0554
  406MOL0     H53584   4.963   9.272   3.734  0.3303 -0.3407  0.3623
  406MOL0     H53585   4.890   9.367   3.863 -3.4449 -0.5396 -0.3269
  406MOL0     H53586   4.780   9.366   3.581 -2.2312 -1.8975  0.6021
  406MOL0     H53587   4.728   9.477   3.696  0.7343  1.9400 -2.9703
  406MOL0     H53588   4.679   9.172   3.701  1.7319 -0.0834  1.7449
  406MOL0     H53589   4.666   9.272   3.841  0.2906  0.8723 -0.2245
  406MOL0     H53590   4.355   9.456   3.608 -1.1106  0.0261  1.0430
  406MOL0     H53591   5.352   9.369   3.737  0.7111 -0.9600 -2.8100
  406MOL0     H53592   5.555   9.476   3.619 -0.7720 -3.0515 -0.1418
  407MOL0     O53593   0.419   7.072   1.565  0.8507 -0.3430 -0.3708
  407MOL0     C53594   0.468   7.176   1.529  0.4865 -1.3673  0.4183
  407MOL0     O53595   0.488   7.281   1.605 -0.4690  0.1499  0.4171
  407MOL0     C53596   0.460   7.295   1.742  0.6058  0.5356 -0.4692
  407MOL0     C53597   0.340   7.240   1.801  0.1607  0.0719  0.0806
  407MOL0     C53598   0.305   7.282   1.938 -0.1403  0.2360  0.4142
  407MOL0     C53599   0.389   7.364   2.006  0.3171  0.1058 -0.8213
  407MOL0     O53600   0.350   7.414   2.129  0.3756 -0.3493 -0.1583
  407MOL0     C53601   0.446   7.394   2.228 -0.4101 -0.0798 -0.7117
  407MOL0     C53602   0.375   7.364   2.354  0.2041  0.5784  0.0769
  407MOL0     C53603   0.469   7.321   2.474 -0.1624  0.4742  0.0634
  407MOL0     C53604   0.608   7.378   2.466  0.4778 -0.1442  0.2685
  407MOL0     C53605   0.693   7.335   2.588  0.4803  0.0906 -0.0008
  407MOL0     C53606   0.836   7.307   2.538  0.2308  0.6382  0.1029
  407MOL0     C53607   0.934   7.277   2.649 -0.3794  0.1154 -0.2391
  407MOL0     C53608   0.975   7.406   2.727  0.2051  0.1394  0.7920
  407MOL0     N53609   1.023   7.375   2.865  0.2754  0.2255  0.3251
  407MOL0     C53610   1.106   7.268   2.893 -0.3326  0.0415 -1.0101
  407MOL0     C53611   1.112   7.272   3.031 -0.3107  0.6991  0.1613
  407MOL0     C53612   1.168   7.148   3.102 -0.2492 -0.7401 -0.3536
  407MOL0     C53613   1.236   7.181   3.241 -0.2285  0.1719 -0.1507
  407MOL0     C53614   1.147   7.229   3.347 -0.6654  0.1420  0.2957
  407MOL0     C53615   1.218   7.249   3.486  0.6643  0.4514  0.0384
  407MOL0     O53616   1.132   7.290   3.589  0.8586 -0.4154 -0.5983
  407MOL0     C53617   1.177   7.281   3.720 -0.3565  0.0863 -0.0877
  407MOL0     C53618   1.097   7.350   3.807 -0.4934 -0.0383  0.1381
  407MOL0     C53619   1.138   7.378   3.940  0.3691  0.7229  0.9979
  407MOL0     C53620   1.255   7.318   3.984  0.7831 -0.8914 -0.4346
  407MOL0     C53621   1.290   7.345   4.129  0.0942  0.5066  0.4417
  407MOL0     O53622   1.211   7.441   4.193 -0.5197  0.5627  0.5451
  407MOL0     C53623   1.228   7.451   4.327  0.0119  0.8487  0.4655
  407MOL0     C53624   1.347   7.496   4.380  0.5685 -0.1806  0.1137
  407MOL0     C53625   1.380   7.499   4.516  0.3683  0.0223  1.7109
  407MOL0     C53626   1.280   7.452   4.606  0.4558 -0.5544  0.7703
  407MOL0     O53627   1.287   7.444   4.738 -0.7780  0.0959  0.1447
  407MOL0     C53628   1.396   7.528   4.793  0.1169  0.8641 -0.8064
  407MOL0     C53629   1.411   7.507   4.949 -0.2647 -0.5421  0.0319
  407MOL0     C53630   1.425   7.353   4.968 -0.1305 -0.8771 -0.6902
  407MOL0     C53631   1.463   7.323   5.112 -0.1602  0.2310  0.0435
  407MOL0     C53632   1.449   7.172   5.130  0.6979  0.6335 -0.7743
  407MOL0     C53633   1.546   7.079   5.073 -0.2706  0.2205 -0.2427
  407MOL0     C53634   1.495   6.940   5.091 -0.0408 -0.0795  0.2339
  407MOL0     C53635   1.602   6.833   5.036 -0.0369 -0.0233 -0.7194
  407MOL0    Cl53636   1.570   6.661   5.084  0.0450 -0.4166 -0.4538
  407MOL0     C53637   1.153   7.421   4.556  0.0489 -0.4145 -0.1759
  407MOL0     C53638   1.130   7.416   4.420 -0.0803 -0.2558  0.0489
  407MOL0     O53639   1.376   7.269   4.182 -0.0365 -0.2123  0.7713
  407MOL0     C53640   1.338   7.242   3.893  0.1410 -0.0053  0.0056
  407MOL0     C53641   1.300   7.234   3.761 -1.0151  0.2421  0.6570
  407MOL0     N53642   1.056   7.388   3.078 -0.3882  0.0983 -0.0343
  407MOL0     N53643   0.997   7.445   2.981  0.1812  0.3524 -0.4046
  407MOL0     C53644   0.510   7.404   1.946  1.2880 -1.1070 -0.4409
  407MOL0     C53645   0.545   7.374   1.820  1.0781  0.4194  0.4256
  407MOL0     C53646   0.507   7.189   1.392  0.3218  0.3526  0.0498
  407MOL0     C53647   0.570   7.302   1.330  0.8423  0.0896  0.1611
  407MOL0     C53648   0.576   7.317   1.191  0.8108 -0.2481  0.0723
  407MOL0     C53649   0.527   7.220   1.102  0.1046  0.3393  0.2732
  407MOL0     O53650   0.548   7.218   0.965  0.3939 -0.2775  0.5051
  407MOL0     C53651   0.543   7.346   0.889 -0.7434  0.4964 -0.1937
  407MOL0     C53652   0.399   7.397   0.883 -0.2197  0.1183  0.4728
  407MOL0     C53653   0.322   7.375   0.756  0.8546 -0.6337  0.3539
  407MOL0     C53654   0.340   7.490   0.651 -0.2128  0.2653 -0.2672
  407MOL0     C53655   0.295   7.622   0.695 -0.8203 -0.0803 -0.1174
  407MOL0     C53656   0.254   7.732   0.728 -0.2533  0.0184 -0.4861
  407MOL0     C53657   0.468   7.107   1.152  0.0320 -0.6743 -0.9019
  407MOL0     C53658   0.461   7.094   1.292 -0.5253  0.3919 -0.2576
  407MOL0     H53659   0.284   7.174   1.735  0.4282 -1.8222  1.6500
  407MOL0     H53660   0.213   7.253   1.988  0.1176 -0.2142  0.6316
  407MOL0     H53661   0.507   7.484   2.239  1.3339 -1.1741 -0.9457
  407MOL0     H53662   0.515   7.312   2.205  2.3857  2.0499 -0.4008
  407MOL0     H53663   0.309   7.278   2.338  3.0455 -1.6269 -0.5871
  407MOL0     H53664   0.315   7.450   2.387  0.3752  0.1702  1.5393
  407MOL0     H53665   0.468   7.212   2.469 -1.2543  0.4805 -0.3053
  407MOL0     H53666   0.427   7.350   2.571  0.8723  4.3261 -0.4902
  407MOL0     H53667   0.656   7.348   2.372  1.6081 -0.0266  0.8012
  407MOL0     H53668   0.590   7.486   2.471  0.7813  0.1700 -3.1598
  407MOL0     H53669   0.646   7.247   2.634 -3.9707  3.3584  2.4601
  407MOL0     H53670   0.690   7.418   2.660  0.0263  0.3528 -0.3242
  407MOL0     H53671   0.875   7.387   2.474 -0.5312  2.3609  1.6874
  407MOL0     H53672   0.834   7.225   2.466  3.9311 -0.1453  0.6814
  407MOL0     H53673   0.902   7.206   2.726  0.2346  2.1615  2.0370
  407MOL0     H53674   1.022   7.239   2.597  1.1113  1.4319  1.2114
  407MOL0     H53675   0.886   7.470   2.728 -3.1610 -3.8905 -2.0017
  407MOL0     H53676   1.054   7.450   2.665  0.3865 -1.9122 -0.5233
  407MOL0     H53677   1.138   7.190   2.824 -1.0750 -0.0463 -1.2680
  407MOL0     H53678   1.247   7.102   3.043  1.5734  1.3231  0.3435
  407MOL0     H53679   1.083   7.082   3.121 -0.3972  0.0834  2.3019
  407MOL0     H53680   1.318   7.252   3.230 -1.7344  1.8755 -0.9804
  407MOL0     H53681   1.285   7.089   3.276 -0.6024  0.3117  0.7716
  407MOL0     H53682   1.103   7.325   3.321  1.1944  1.0773  0.4071
  407MOL0     H53683   1.057   7.167   3.353 -0.8172  0.2176 -0.9212
  407MOL0     H53684   1.299   7.320   3.466 -1.0835  2.0515 -1.7818
  407MOL0     H53685   1.266   7.155   3.514 -0.2452  0.1011  0.4495
  407MOL0     H53686   1.007   7.389   3.760 -1.3997 -4.1460 -2.0236
  407MOL0     H53687   1.072   7.436   4.004 -1.4252  1.9558 -1.7246
  407MOL0     H53688   1.414   7.533   4.303 -0.6806 -1.3350 -1.5955
  407MOL0     H53689   1.480   7.536   4.534  0.5670 -0.7519  2.2425
  407MOL0     H53690   1.384   7.636   4.776  3.4760  1.3746 -0.5163
  407MOL0     H53691   1.493   7.501   4.752 -0.1488 -1.3696 -0.0709
  407MOL0     H53692   1.320   7.532   5.005 -2.0643 -0.3809 -2.7432
  407MOL0     H53693   1.495   7.563   4.991 -0.5951 -1.8169  2.5807
  407MOL0     H53694   1.510   7.313   4.911 -0.0006 -3.8859  1.4149
  407MOL0     H53695   1.330   7.309   4.936  0.1494 -0.1260 -2.7335
  407MOL0     H53696   1.566   7.352   5.135 -1.5038  3.6517  2.7674
  407MOL0     H53697   1.394   7.383   5.172 -0.0767 -1.0095  1.4472
  407MOL0     H53698   1.355   7.154   5.077 -0.2881  0.3716  0.9690
  407MOL0     H53699   1.437   7.165   5.239 -3.3676  1.3265 -0.9993
  407MOL0     H53700   1.638   7.098   5.128 -0.6966 -0.6295  0.7969
  407MOL0     H53701   1.547   7.093   4.964 -0.5633 -1.2920 -0.4645
  407MOL0     H53702   1.475   6.929   5.198  2.1422  0.2812  0.7311
  407MOL0     H53703   1.406   6.921   5.030  0.4410  1.1087 -0.8909
  407MOL0     H53704   1.698   6.858   5.081 -0.1426 -1.4112  0.3663
  407MOL0     H53705   1.603   6.833   4.926 -0.2974 -1.5736 -0.7551
  407MOL0     H53706   1.071   7.397   4.624  0.1084  0.8238  0.3552
  407MOL0     H53707   1.029   7.380   4.405 -0.2963 -0.7744  2.3779
  407MOL0     H53708   1.434   7.197   3.918  0.8816  2.4719  2.0171
  407MOL0     H53709   1.369   7.193   3.688 -1.7675  1.9294 -1.0936
  407MOL0     H53710   0.582   7.467   1.997  0.7772  1.9747 -3.1744
  407MOL0     H53711   0.640   7.406   1.778  1.5510 -0.5068  0.7822
  407MOL0     H53712   0.604   7.386   1.389  0.3448  0.7086 -0.4089
  407MOL0     H53713   0.628   7.404   1.151  1.0415 -0.5719 -0.3431
  407MOL0     H53714   0.585   7.324   0.790  1.3864  1.0100  0.5299
  407MOL0     H53715   0.597   7.425   0.942 -3.7013  2.1511  0.5408
  407MOL0     H53716   0.334   7.359   0.962  1.3346 -1.4675  1.0606
  407MOL0     H53717   0.404   7.505   0.902  0.2186  0.3908 -1.0739
  407MOL0     H53718   0.213   7.367   0.770  0.2936  2.0415 -1.7323
  407MOL0     H53719   0.360   7.280   0.717  0.0913 -0.7185 -0.2126
  407MOL0     H53720   0.441   7.483   0.610 -0.4145 -1.9349 -0.4720
  407MOL0     H53721   0.264   7.463   0.577 -0.8020 -1.2528  0.8341
  407MOL0     H53722   0.214   7.826   0.761 -2.2553 -1.1196  0.5703
  407MOL0     H53723   0.431   7.028   1.088 -1.3442  0.8424 -2.0449
  407MOL0     H53724   0.413   7.002   1.326  2.5009 -0.8635  1.0090
  408MOL0     O53725   6.288  10.343   8.176 -0.7810  0.0828  0.2843
  408MOL0     C53726   6.297  10.376   8.054 -0.1665 -0.9018 -0.4169
  408MOL0     O53727   6.203  10.443   7.984  0.1422  0.2385  0.2650
  408MOL0     C53728   6.081  10.464   8.033 -0.3282  0.3309 -0.3774
  408MOL0     C53729   5.999  10.355   8.069  0.9993 -0.3257  0.3779
  408MOL0     C53730   5.870  10.373   8.117  0.6992  0.4186  0.3216
  408MOL0     C53731   5.831  10.506   8.147  0.5927  0.4922  0.3569
  408MOL0     O53732   5.705  10.532   8.195 -0.5532  0.6395 -0.0657
  408MOL0     C53733   5.612  10.427   8.228  0.2509  0.0358  0.0171
  408MOL0     C53734   5.486  10.489   8.284  1.0526 -0.8755  0.9136
  408MOL0     C53735   5.413  10.574   8.178 -0.1750  0.1553 -0.1529
  408MOL0     C53736   5.276  10.629   8.231 -0.5533  0.2845 -0.6672
  408MOL0     C53737   5.199  10.708   8.122  0.1070  0.2747  0.2326
  408MOL0     C53738   5.096  10.798   8.185 -0.0681  0.1156  0.3887
  408MOL0     C53739   4.991  10.840   8.081  0.4076 -0.7806 -0.5837
  408MOL0     C53740   4.893  10.949   8.122  0.0068 -0.3289  0.8170
  408MOL0     N53741   4.785  10.965   8.015 -0.1708  0.3907  0.3629
  408MOL0     C53742   4.810  11.036   7.898 -0.2507 -0.3353  0.3229
  408MOL0     C53743   4.702  11.020   7.820  0.4244 -0.6862  0.6488
  408MOL0     C53744   4.681  11.105   7.694 -0.1680 -0.4130  0.3802
  408MOL0     C53745   4.675  11.253   7.735  0.0269  0.1198 -0.4275
  408MOL0     C53746   4.651  11.362   7.635 -0.3275 -0.5392  0.1020
  408MOL0     C53747   4.647  11.489   7.719  1.0114  0.1390  0.4706
  408MOL0     O53748   4.536  11.491   7.817 -0.0144  0.2098  0.1094
  408MOL0     C53749   4.404  11.452   7.780 -0.7441  0.1994 -0.6857
  408MOL0     C53750   4.335  11.386   7.881  0.3833  0.1333  0.4146
  408MOL0     C53751   4.197  11.371   7.861 -0.0533  0.0312 -0.2312
  408MOL0     C53752   4.132  11.418   7.741  0.3049 -0.3919 -1.2381
  408MOL0     C53753   3.993  11.396   7.715 -0.0218 -0.0178  0.1953
  408MOL0     O53754   3.935  11.434   7.604  0.0726  0.4456 -0.2061
  408MOL0     C53755   3.795  11.403   7.589 -0.7391 -0.5342 -0.8023
  408MOL0     C53756   3.707  11.504   7.545 -0.6636 -0.3774 -0.7308
  408MOL0     C53757   3.568  11.476   7.530 -0.3958  0.7854 -0.2109
  408MOL0     C53758   3.526  11.343   7.548  0.5276 -0.0262 -0.0723
  408MOL0     O53759   3.398  11.300   7.552 -0.3468  0.0964  0.4992
  408MOL0     C53760   3.310  11.346   7.444 -0.3070 -0.8558  0.0619
  408MOL0     C53761   3.232  11.227   7.383 -0.3960 -0.2616  0.6821
  408MOL0     C53762   3.328  11.131   7.311  0.2395  0.1436 -0.2520
  408MOL0     C53763   3.248  11.003   7.270 -0.1457 -0.1354  0.8816
  408MOL0     C53764   3.311  10.911   7.170 -0.1693  0.3657  0.3732
  408MOL0     C53765   3.305  10.951   7.024  0.0862 -0.0455 -0.0394
  408MOL0     C53766   3.167  10.987   6.985 -0.1398 -0.3091  0.2131
  408MOL0     C53767   3.148  11.001   6.831  0.1039 -0.1018  0.1636
  408MOL0    Cl53768   2.969  10.976   6.803 -0.1911 -0.0645  0.2909
  408MOL0     C53769   3.615  11.244   7.572  0.5859 -0.8395 -0.3331
  408MOL0     C53770   3.742  11.277   7.604  0.2365  0.3942  0.5976
  408MOL0     O53771   3.939  11.363   7.817 -0.1091  0.2326 -0.3417
  408MOL0     C53772   4.205  11.489   7.649 -0.0585  0.0304  0.0922
  408MOL0     C53773   4.344  11.496   7.666 -0.6499 -0.1509  0.2703
  408MOL0     N53774   4.613  10.945   7.891  1.0381 -0.0674 -0.0585
  408MOL0     N53775   4.661  10.917   8.005  0.0123  0.0360 -0.4870
  408MOL0     C53776   5.904  10.617   8.117 -0.6849 -0.5254  0.1854
  408MOL0     C53777   6.030  10.594   8.055 -1.1687 -0.5126  0.2961
  408MOL0     C53778   6.416  10.317   7.993 -0.3726 -0.5728  0.4689
  408MOL0     C53779   6.466  10.363   7.863  0.8907  0.0894 -0.1435
  408MOL0     C53780   6.593  10.325   7.821  0.5596 -0.3419 -0.0015
  408MOL0     C53781   6.678  10.238   7.891  0.0032 -0.9895  1.0364
  408MOL0     O53782   6.792  10.200   7.825 -0.1522  0.9373 -0.1808
  408MOL0     C53783   6.880  10.102   7.881 -0.5242 -0.2558 -0.5414
  408MOL0     C53784   7.014  10.173   7.928 -0.0289 -0.4198  0.5808
  408MOL0     C53785   7.146  10.110   7.874 -0.3220  0.3867 -0.0608
  408MOL0     C53786   7.173   9.973   7.932  0.3100  0.4743 -0.3655
  408MOL0     C53787   7.312   9.944   7.941 -0.3966 -0.0244  0.0336
  408MOL0     C53788   7.432   9.928   7.948 -0.3895  0.7692  0.0161
  408MOL0     C53789   6.635  10.200   8.014 -0.4478 -0.0061  0.1338
  408MOL0     C53790   6.509  10.233   8.063  1.2614 -0.4109  0.3409
  408MOL0     H53791   6.030  10.252   8.061 -0.1765 -0.7630  1.1727
  408MOL0     H53792   5.811  10.287   8.148  0.8750  0.2531  0.1998
  408MOL0     H53793   5.647  10.344   8.290  0.7760  0.3333  0.1251
  408MOL0     H53794   5.583  10.392   8.128  1.2160 -2.8963  0.6715
  408MOL0     H53795   5.510  10.550   8.371  1.7966  0.7656 -0.3789
  408MOL0     H53796   5.426  10.403   8.314 -1.4359 -0.1913 -1.5778
  408MOL0     H53797   5.390  10.509   8.094  3.1971 -1.9222  0.3609
  408MOL0     H53798   5.478  10.658   8.153  2.1226 -0.7245  2.3784
  408MOL0     H53799   5.211  10.545   8.257 -0.1130  0.4837  1.2540
  408MOL0     H53800   5.281  10.690   8.322  1.8826 -1.8348  0.7440
  408MOL0     H53801   5.148  10.641   8.052 -1.4358  1.6933 -0.0947
  408MOL0     H53802   5.265  10.768   8.058 -0.1267  0.8237  0.4944
  408MOL0     H53803   5.143  10.880   8.240 -0.6407  0.4821  0.3431
  408MOL0     H53804   5.040  10.737   8.257 -0.7956 -0.1990 -0.4282
  408MOL0     H53805   5.057  10.884   8.006 -0.4621  1.8200  0.0923
  408MOL0     H53806   4.923  10.757   8.056 -0.4516  0.2241 -1.7111
  408MOL0     H53807   4.939  11.045   8.146 -0.6824  0.5386 -1.1810
  408MOL0     H53808   4.838  10.926   8.214 -2.2283 -0.0447 -0.3975
  408MOL0     H53809   4.901  11.085   7.867  1.3899 -2.4536  1.5002
  408MOL0     H53810   4.586  11.075   7.648  0.6756 -2.2190 -0.2927
  408MOL0     H53811   4.762  11.101   7.621  0.3111  2.6879  0.5981
  408MOL0     H53812   4.766  11.276   7.791 -0.1065 -0.1591 -0.0956
  408MOL0     H53813   4.588  11.256   7.801 -0.3225 -0.3304 -0.8631
  408MOL0     H53814   4.738  11.368   7.568  0.3008  0.3646  0.9787
  408MOL0     H53815   4.561  11.351   7.574 -0.0299 -1.2016 -0.2382
  408MOL0     H53816   4.643  11.571   7.647 -0.5846 -0.8831 -0.6569
  408MOL0     H53817   4.743  11.507   7.770 -0.1324  1.5397  2.2471
  408MOL0     H53818   4.379  11.360   7.976  0.5489  1.8963  0.8706
  408MOL0     H53819   4.137  11.336   7.944 -2.8655 -1.9560 -2.8467
  408MOL0     H53820   3.751  11.602   7.528 -0.5532 -0.8220 -3.4232
  408MOL0     H53821   3.497  11.545   7.485  1.6644  2.8626 -0.4679
  408MOL0     H53822   3.382  11.387   7.373 -0.8558 -0.9005 -0.5340
  408MOL0     H53823   3.241  11.415   7.493 -1.3994 -2.5427  0.9906
  408MOL0     H53824   3.152  11.258   7.315  0.5747 -1.7512 -1.2456
  408MOL0     H53825   3.176  11.176   7.462  2.5765 -0.0053  3.1645
  408MOL0     H53826   3.407  11.098   7.380  1.1786 -2.1230 -2.2781
  408MOL0     H53827   3.371  11.164   7.216  1.0947 -5.2877 -2.1358
  408MOL0     H53828   3.229  10.947   7.362  1.7990 -3.3387 -0.4983
  408MOL0     H53829   3.148  11.022   7.229  1.1787 -0.1382 -2.6844
  408MOL0     H53830   3.251  10.820   7.165 -0.8656  0.8800 -3.0133
  408MOL0     H53831   3.416  10.890   7.191 -0.1139  0.3447  0.0781
  408MOL0     H53832   3.352  10.863   6.979  1.6532  0.6677  0.1614
  408MOL0     H53833   3.371  11.033   6.996 -2.4828  1.3151 -2.6387
  408MOL0     H53834   3.087  10.917   7.009 -0.2472 -1.5945 -3.3695
  408MOL0     H53835   3.136  11.081   7.031 -1.5749 -1.3868  1.5438
  408MOL0     H53836   3.205  10.919   6.786 -0.3186 -0.1746 -0.2430
  408MOL0     H53837   3.174  11.097   6.786 -4.2977  0.6680 -1.2195
  408MOL0     H53838   3.580  11.144   7.596 -0.2058 -0.3198  0.7443
  408MOL0     H53839   3.815  11.204   7.636  1.2884  0.1566 -2.0824
  408MOL0     H53840   4.158  11.552   7.575  0.7368 -2.9225 -3.1621
  408MOL0     H53841   4.399  11.555   7.592 -0.0540 -0.7353  0.2433
  408MOL0     H53842   5.865  10.717   8.132  1.0343 -0.0223  1.5097
  408MOL0     H53843   6.098  10.676   8.033 -0.6453 -0.9755  0.1756
  408MOL0     H53844   6.415  10.444   7.812 -3.0028 -1.6219  0.6565
  408MOL0     H53845   6.633  10.367   7.729  0.9093 -0.6312  0.0194
  408MOL0     H53846   6.902  10.028   7.803 -1.3233  0.3229 -1.3341
  408MOL0     H53847   6.835  10.047   7.964 -0.5472 -0.4513 -0.6828
  408MOL0     H53848   7.008  10.278   7.900  1.5640 -0.2727  0.7403
  408MOL0     H53849   7.005  10.185   8.036  0.0033  1.1639  0.4353
  408MOL0     H53850   7.235  10.158   7.916 -0.2464 -1.0651  1.5559
  408MOL0     H53851   7.141  10.112   7.764  0.2280  0.1571 -0.0962
  408MOL0     H53852   7.135   9.961   8.034  1.8156 -1.1892  0.0523
  408MOL0     H53853   7.130   9.893   7.871  1.4584 -0.6770  0.2737
  408MOL0     H53854   7.537   9.914   7.964 -0.8646 -1.6006  1.5135
  408MOL0     H53855   6.685  10.123   8.072 -1.7447 -2.1233 -1.4450
  408MOL0     H53856   6.500  10.199   8.166  2.9194 -0.0854  0.6299
  409MOL0     O53857   4.804   9.713   9.739  0.3137  0.0188 -0.2166
  409MOL0     C53858   4.733   9.680   9.835 -0.1745 -0.7300 -0.8861
  409MOL0     O53859   4.782   9.653   9.955 -0.1458 -0.0155  0.4651
  409MOL0     C53860   4.903   9.687  10.003 -0.5122 -0.7279 -0.1062
  409MOL0     C53861   5.024   9.628   9.961 -1.0461 -0.2501 -0.6887
  409MOL0     C53862   5.142   9.658  10.033  0.7313  0.2736  0.9357
  409MOL0     C53863   5.129   9.730  10.153  0.0282 -0.0317  0.6091
  409MOL0     O53864   5.240   9.747  10.230  0.1636  0.1915  0.5821
  409MOL0     C53865   5.249   9.653  10.338 -0.1611  0.1002 -0.2321
  409MOL0     C53866   5.384   9.668  10.414 -0.1146 -0.1346  0.0051
  409MOL0     C53867   5.496   9.578  10.366  0.5871 -0.2193  0.6974
  409MOL0     C53868   5.568   9.626  10.242  0.2061  0.7368 -0.5136
  409MOL0     C53869   5.691   9.545  10.213 -0.5054  1.1676  0.1705
  409MOL0     C53870   5.663   9.391  10.198 -0.7418 -0.1595  0.4550
  409MOL0     C53871   5.794   9.312  10.153 -0.3040 -0.5955 -0.9401
  409MOL0     C53872   5.835   9.341  10.012 -0.7909  0.9864  0.8808
  409MOL0     N53873   5.953   9.268   9.958 -0.2465  0.7341 -0.6503
  409MOL0     C53874   6.007   9.303   9.842  0.0146 -0.1486 -0.3826
  409MOL0     C53875   6.128   9.244   9.836  0.7640 -0.7224 -0.0244
  409MOL0     C53876   6.236   9.277   9.731 -0.4031 -0.1730 -0.1298
  409MOL0     C53877   6.358   9.345   9.788  0.1773  0.5990 -0.0829
  409MOL0     C53878   6.314   9.489   9.836  0.0583 -0.4644 -0.5312
  409MOL0     C53879   6.260   9.572   9.721  0.1543  0.0093  0.1001
  409MOL0     O53880   6.119   9.573   9.721  0.6987  0.4328  0.1974
  409MOL0     C53881   6.061   9.610   9.598 -0.1442  0.7308 -0.7371
  409MOL0     C53882   5.922   9.593   9.599 -0.1339 -0.8909  0.4646
  409MOL0     C53883   5.834   9.629   9.492 -0.8220 -0.0118  0.0825
  409MOL0     C53884   5.896   9.683   9.373  0.7140 -0.3964 -0.2397
  409MOL0     C53885   5.810   9.708   9.254 -0.3060 -0.1482  0.3337
  409MOL0     O53886   5.681   9.664   9.262  0.1071 -0.8699  0.6547
  409MOL0     C53887   5.590   9.664   9.165 -0.3500 -0.0397  0.6770
  409MOL0     C53888   5.603   9.725   9.042 -0.0462  0.1852 -0.3354
  409MOL0     C53889   5.492   9.714   8.955 -0.3185 -0.3844  0.0098
  409MOL0     C53890   5.367   9.698   9.010  0.0810  0.2509  0.6730
  409MOL0     O53891   5.264   9.729   8.920 -0.2814  0.5968 -0.3908
  409MOL0     C53892   5.125   9.726   8.972 -0.0126 -0.2387 -0.3371
  409MOL0     C53893   5.047   9.601   8.923  0.2263  0.1737  0.0618
  409MOL0     C53894   4.905   9.585   8.979 -0.1486 -0.7872 -0.6953
  409MOL0     C53895   4.807   9.682   8.903  0.6482 -1.1640 -0.0908
  409MOL0     C53896   4.664   9.672   8.945 -0.2235 -0.6661 -0.8399
  409MOL0     C53897   4.592   9.791   8.885 -0.0927  0.0086 -0.2479
  409MOL0     C53898   4.453   9.777   8.931  0.3875  0.5216 -0.3206
  409MOL0     C53899   4.365   9.896   8.897 -0.1147 -0.5007  0.7490
  409MOL0    Cl53900   4.205   9.860   8.956 -0.1127  0.2903 -0.4020
  409MOL0     C53901   5.354   9.648   9.146 -0.6113  0.1081  1.2013
  409MOL0     C53902   5.467   9.618   9.213  0.3187 -0.7177  1.1554
  409MOL0     O53903   5.865   9.758   9.158  0.8228 -0.5831  1.2894
  409MOL0     C53904   6.033   9.703   9.374  0.0201 -1.0657  0.6108
  409MOL0     C53905   6.113   9.676   9.483 -0.0855 -0.4260  0.7785
  409MOL0     N53906   6.142   9.164   9.950 -1.2213 -0.0523 -0.8464
  409MOL0     N53907   6.039   9.183  10.032  0.1394  0.3153 -0.4507
  409MOL0     C53908   5.006   9.774  10.195 -0.1356 -0.3793  0.5738
  409MOL0     C53909   4.895   9.769  10.112 -0.0904 -0.9190 -0.0268
  409MOL0     C53910   4.592   9.649   9.816  0.4582  0.9708 -0.5642
  409MOL0     C53911   4.501   9.600   9.920 -0.3252  0.0502 -0.0510
  409MOL0     C53912   4.372   9.559   9.894 -0.1235  0.7014  0.0186
  409MOL0     C53913   4.322   9.572   9.764 -0.3459  0.3960  0.2472
  409MOL0     O53914   4.194   9.539   9.730 -0.2854 -0.2886 -0.4392
  409MOL0     C53915   4.096   9.551   9.838  0.0012 -0.5647 -0.7785
  409MOL0     C53916   3.964   9.555   9.764 -0.5580  0.0311 -0.5711
  409MOL0     C53917   3.845   9.499   9.836  0.5081  0.4208  0.0750
  409MOL0     C53918   3.710   9.554   9.774 -0.1178  0.3614  0.2985
  409MOL0     C53919   3.580   9.511   9.840 -0.6404  0.1211 -0.5619
  409MOL0     C53920   3.468   9.480   9.881 -0.0773  0.1997  0.0030
  409MOL0     C53921   4.405   9.610   9.656 -0.1982  0.4825  0.3966
  409MOL0     C53922   4.534   9.652   9.685 -0.5703 -0.1034  0.0853
  409MOL0     H53923   5.022   9.563   9.873 -1.1740 -0.7878 -0.2935
  409MOL0     H53924   5.239   9.625   9.998  0.7175  1.0345  0.1653
  409MOL0     H53925   5.232   9.549  10.307 -1.1141 -0.4492  1.9520
  409MOL0     H53926   5.165   9.676  10.404 -0.4725 -1.6422  0.0490
  409MOL0     H53927   5.355   9.646  10.517 -1.5161  2.8243  0.3476
  409MOL0     H53928   5.417   9.773  10.411 -0.4125 -0.0278  0.4047
  409MOL0     H53929   5.464   9.474  10.353 -0.4464  0.2717 -0.9416
  409MOL0     H53930   5.575   9.580  10.442  1.1157 -1.6256  0.2343
  409MOL0     H53931   5.512   9.605  10.151  2.3426 -4.9568 -0.9590
  409MOL0     H53932   5.593   9.732  10.247 -1.2350  1.0934 -0.4881
  409MOL0     H53933   5.759   9.548  10.298 -2.1409  1.8118  1.5188
  409MOL0     H53934   5.729   9.596  10.124 -0.3951  1.9475  0.6647
  409MOL0     H53935   5.585   9.364  10.126  1.4189  0.9080 -2.4633
  409MOL0     H53936   5.631   9.348  10.294 -0.6307 -2.3443 -0.4112
  409MOL0     H53937   5.870   9.350  10.222 -1.7337 -2.0277  1.5497
  409MOL0     H53938   5.781   9.205  10.169 -0.3546 -0.2469  1.7916
  409MOL0     H53939   5.862   9.445   9.993 -0.4227  0.4563 -1.8609
  409MOL0     H53940   5.758   9.312   9.940 -1.5730 -0.6922  2.3220
  409MOL0     H53941   5.955   9.357   9.763  1.2162  1.4504 -0.1091
  409MOL0     H53942   6.202   9.326   9.639 -0.0589  0.2455 -0.0383
  409MOL0     H53943   6.273   9.183   9.691 -0.3447 -1.2826  2.3411
  409MOL0     H53944   6.434   9.357   9.710 -1.2820  1.3996 -1.4377
  409MOL0     H53945   6.397   9.297   9.878  2.8444 -0.6401 -1.7764
  409MOL0     H53946   6.246   9.480   9.922 -1.9832 -0.0064 -2.0049
  409MOL0     H53947   6.400   9.547   9.870 -0.5834 -0.2750  0.8453
  409MOL0     H53948   6.292   9.525   9.627 -1.6202 -0.5490 -0.2742
  409MOL0     H53949   6.302   9.673   9.718  0.8897 -0.3082 -0.9409
  409MOL0     H53950   5.881   9.540   9.684  1.5645 -3.6678 -0.3383
  409MOL0     H53951   5.726   9.619   9.500 -1.1057  1.0842 -1.7239
  409MOL0     H53952   5.696   9.771   9.010  0.2003  2.2786  2.9322
  409MOL0     H53953   5.507   9.738   8.850  0.0245 -0.8527 -0.0536
  409MOL0     H53954   5.080   9.810   8.920 -1.3825 -1.4374 -1.1571
  409MOL0     H53955   5.126   9.729   9.082 -0.3381  0.4879 -0.3548
  409MOL0     H53956   5.102   9.514   8.960  0.9582 -0.3782 -2.1248
  409MOL0     H53957   5.053   9.582   8.815  0.5148 -3.3539  0.5696
  409MOL0     H53958   4.904   9.601   9.087 -1.6063  1.1717 -0.9379
  409MOL0     H53959   4.883   9.479   8.969  1.3619 -1.1729 -0.3084
  409MOL0     H53960   4.845   9.782   8.927  0.6535 -1.6593  2.1749
  409MOL0     H53961   4.819   9.658   8.797  3.2202 -1.6341  0.2338
  409MOL0     H53962   4.650   9.672   9.053 -2.8565 -4.8896 -0.9253
  409MOL0     H53963   4.625   9.577   8.907 -2.2561 -0.3629  0.3691
  409MOL0     H53964   4.602   9.799   8.776 -2.6650 -1.7867 -0.6862
  409MOL0     H53965   4.630   9.887   8.920 -1.3171 -0.0188  1.2397
  409MOL0     H53966   4.412   9.680   8.901 -0.0466  1.0237 -1.3824
  409MOL0     H53967   4.464   9.771   9.040  2.0918  0.6238 -0.4610
  409MOL0     H53968   4.361   9.914   8.790  2.2490  2.6552  1.0534
  409MOL0     H53969   4.414   9.976   8.953  2.1239 -0.8017 -0.6370
  409MOL0     H53970   5.255   9.625   9.183 -1.2769  0.7300 -0.1130
  409MOL0     H53971   5.456   9.581   9.315  0.0440 -1.4153  0.8760
  409MOL0     H53972   6.081   9.742   9.284 -1.1956 -0.8093  0.0522
  409MOL0     H53973   6.220   9.684   9.469  0.1841 -3.6105  0.3029
  409MOL0     H53974   4.997   9.839  10.281  0.2850  0.9171 -0.3260
  409MOL0     H53975   4.804   9.814  10.151 -0.6756 -1.0582 -1.1954
  409MOL0     H53976   4.544   9.603  10.020  0.2341 -0.5312 -0.2624
  409MOL0     H53977   4.308   9.520   9.973 -2.4134  0.9400 -1.6100
  409MOL0     H53978   4.118   9.646   9.887 -0.8113 -0.8054  0.0812
  409MOL0     H53979   4.112   9.474   9.913  1.2124  2.4931  2.3429
  409MOL0     H53980   3.940   9.660   9.746  1.2278  0.5365 -0.2887
  409MOL0     H53981   3.977   9.505   9.667  2.2759  0.0152 -0.2909
  409MOL0     H53982   3.848   9.523   9.943  0.1689 -1.6323  0.6027
  409MOL0     H53983   3.841   9.390   9.829  2.3676  0.3796 -0.6987
  409MOL0     H53984   3.711   9.662   9.786 -0.8107  0.4008  0.0803
  409MOL0     H53985   3.702   9.527   9.668 -1.2266 -2.7265  1.0591
  409MOL0     H53986   3.368   9.446   9.899  0.0476 -0.9363 -1.2512
  409MOL0     H53987   4.380   9.612   9.551  0.1172 -0.9620  0.2693
  409MOL0     H53988   4.600   9.679   9.602 -1.9609  0.6433 -0.8072
  410MOL0     O53989   6.602   7.774   1.580  0.1114  0.3889 -0.5731
  410MOL0     C53990   6.655   7.785   1.688  0.0214  0.1384 -0.3739
  410MOL0     O53991   6.591   7.764   1.815 -0.5712 -0.8426  0.6883
  410MOL0     C53992   6.455   7.764   1.817 -0.3234 -0.4871  0.0970
  410MOL0     C53993   6.384   7.647   1.831 -0.6028  0.8000  0.0712
  410MOL0     C53994   6.255   7.652   1.825 -0.4820  0.7666 -0.8897
  410MOL0     C53995   6.185   7.768   1.824  1.4580 -0.3413  0.4216
  410MOL0     O53996   6.054   7.781   1.856 -0.3152 -0.1682 -0.0143
  410MOL0     C53997   6.005   7.673   1.943  0.3568  0.2435  0.6640
  410MOL0     C53998   5.860   7.714   1.976 -0.6513 -0.1709  0.0951
  410MOL0     C53999   5.784   7.619   2.067  0.0992 -0.8947  0.3060
  410MOL0     C54000   5.636   7.607   2.027 -0.2839  0.1356 -0.3010
  410MOL0     C54001   5.566   7.518   2.134  0.0483  0.2182  0.1569
  410MOL0     C54002   5.433   7.474   2.074  0.9097 -0.1097 -0.3150
  410MOL0     C54003   5.369   7.367   2.161 -0.9511 -0.0361 -0.2417
  410MOL0     C54004   5.229   7.323   2.095 -0.1114  0.3135  0.3052
  410MOL0     N54005   5.121   7.247   2.176  0.6610  0.6959  0.0346
  410MOL0     C54006   5.121   7.113   2.177  0.4449 -0.7086 -0.2228
  410MOL0     C54007   5.008   7.078   2.242 -0.6626 -0.2070 -0.0889
  410MOL0     C54008   4.955   6.938   2.278  0.3576  0.3146  0.3058
  410MOL0     C54009   4.859   6.898   2.177  0.0908 -0.9802 -0.1512
  410MOL0     C54010   4.726   6.988   2.169 -0.1332  0.3327  0.4363
  410MOL0     C54011   4.631   6.918   2.069 -0.3601  1.1590 -0.6990
  410MOL0     O54012   4.600   6.779   2.094 -0.4154 -0.9201  0.7362
  410MOL0     C54013   4.497   6.748   2.178  1.0721  0.3064 -0.1700
  410MOL0     C54014   4.392   6.837   2.218  0.4384 -0.6522 -0.2211
  410MOL0     C54015   4.291   6.801   2.310 -0.3093  0.0620  0.9915
  410MOL0     C54016   4.303   6.683   2.382 -0.1354  0.1691 -0.4726
  410MOL0     C54017   4.213   6.649   2.496  0.9007 -0.6010 -0.0048
  410MOL0     O54018   4.119   6.740   2.535  0.1224  0.2485  0.4988
  410MOL0     C54019   4.037   6.709   2.642  0.2530 -0.3303 -0.0896
  410MOL0     C54020   4.069   6.750   2.772  0.1440  0.4496 -0.0585
  410MOL0     C54021   3.996   6.720   2.883 -0.2084  0.7507  0.0484
  410MOL0     C54022   3.869   6.665   2.869 -0.6586 -0.2796  0.0154
  410MOL0     O54023   3.808   6.639   2.986 -0.1551 -0.2527 -0.6499
  410MOL0     C54024   3.668   6.610   2.971 -0.4994 -0.3109  0.5285
  410MOL0     C54025   3.612   6.585   3.108  0.5033 -0.0328  0.1951
  410MOL0     C54026   3.454   6.585   3.103  0.4993  0.1502 -0.4742
  410MOL0     C54027   3.391   6.699   3.040  1.4784  0.0536 -0.0229
  410MOL0     C54028   3.239   6.687   3.026  0.2848  0.3132  0.1165
  410MOL0     C54029   3.181   6.823   2.981 -0.7309 -0.1807  0.2214
  410MOL0     C54030   3.196   6.838   2.829 -0.0168  0.6408 -0.2275
  410MOL0     C54031   3.136   6.965   2.774  0.0905  0.9594  0.0748
  410MOL0    Cl54032   3.151   7.113   2.876  0.0970 -0.0457 -0.0534
  410MOL0     C54033   3.834   6.616   2.740 -0.7777 -0.7111 -0.1822
  410MOL0     C54034   3.911   6.651   2.623 -0.9273 -0.2264 -0.4209
  410MOL0     O54035   4.222   6.537   2.541 -0.6851  0.0466 -0.6661
  410MOL0     C54036   4.411   6.597   2.347 -0.9244 -1.1263 -0.6365
  410MOL0     C54037   4.503   6.630   2.245  0.5295 -0.5096  0.2297
  410MOL0     N54038   4.952   7.205   2.285 -1.3489  1.1071 -0.2775
  410MOL0     N54039   5.022   7.295   2.242 -0.3938  0.0952  0.4320
  410MOL0     C54040   6.254   7.886   1.813 -1.0183 -0.7548 -0.6547
  410MOL0     C54041   6.396   7.889   1.809 -0.4776 -0.7194 -0.0933
  410MOL0     C54042   6.801   7.810   1.681  0.4335  1.1146  0.4561
  410MOL0     C54043   6.868   7.816   1.558  0.2206  0.0579 -0.2093
  410MOL0     C54044   7.004   7.827   1.560 -1.0217 -0.4193  0.0879
  410MOL0     C54045   7.072   7.838   1.674 -0.0119  0.4303 -0.2280
  410MOL0     O54046   7.212   7.844   1.676  0.9243  0.7411  0.0171
  410MOL0     C54047   7.287   7.799   1.561  0.0364 -0.2556  0.2831
  410MOL0     C54048   7.344   7.904   1.464  0.3453  0.0367  0.6699
  410MOL0     C54049   7.449   7.872   1.353  0.0295 -0.3586  0.3936
  410MOL0     C54050   7.582   7.828   1.417 -0.0621  0.3149 -0.4476
  410MOL0     C54051   7.691   7.824   1.314 -0.8822 -0.2236  0.0654
  410MOL0     C54052   7.777   7.807   1.231 -0.3044  0.3360  0.2525
  410MOL0     C54053   7.005   7.815   1.796  0.2804 -0.0113 -1.0895
  410MOL0     C54054   6.868   7.800   1.798 -0.0809 -1.0218 -0.1468
  410MOL0     H54055   6.440   7.555   1.840  0.4514  1.2876 -1.2730
  410MOL0     H54056   6.205   7.556   1.823 -1.9933  1.5257 -1.6188
  410MOL0     H54057   6.061   7.667   2.037  1.1048  0.9087  0.2742
  410MOL0     H54058   6.010   7.578   1.888 -2.5241  1.2329 -1.5458
  410MOL0     H54059   5.802   7.719   1.884  0.0086 -0.3443 -0.3363
  410MOL0     H54060   5.867   7.809   2.030 -0.8483 -0.4175  0.5616
  410MOL0     H54061   5.803   7.661   2.167 -0.2572  1.7399 -0.6553
  410MOL0     H54062   5.841   7.525   2.068 -0.1249 -1.0859 -1.7787
  410MOL0     H54063   5.590   7.705   2.035  1.6438  0.9858  1.3450
  410MOL0     H54064   5.621   7.566   1.926  2.7775  0.0991 -0.8594
  410MOL0     H54065   5.562   7.577   2.226  1.1790 -0.2155  0.4914
  410MOL0     H54066   5.627   7.428   2.148 -0.3845  0.0100  0.7479
  410MOL0     H54067   5.454   7.434   1.975  3.7405  0.0064  0.1412
  410MOL0     H54068   5.367   7.560   2.069 -1.4716 -1.7223  1.1837
  410MOL0     H54069   5.443   7.288   2.178 -0.3469  0.5722  0.0301
  410MOL0     H54070   5.340   7.396   2.263 -1.5398  1.8425 -0.9168
  410MOL0     H54071   5.257   7.256   2.013  2.8847  0.3715  1.1504
  410MOL0     H54072   5.182   7.412   2.052 -1.7000 -0.7761 -0.3099
  410MOL0     H54073   5.197   7.044   2.142  2.7034  2.1069 -1.3370
  410MOL0     H54074   4.908   6.946   2.377  1.0710  3.0716  0.5019
  410MOL0     H54075   5.041   6.871   2.277  0.1820  0.0608 -2.0023
  410MOL0     H54076   4.831   6.795   2.202  0.7143 -0.7715  1.5294
  410MOL0     H54077   4.910   6.905   2.081 -0.6755  1.4830 -0.4536
  410MOL0     H54078   4.686   7.004   2.270  0.7600  0.7426  0.7367
  410MOL0     H54079   4.752   7.081   2.120 -1.1763 -0.0297 -0.8498
  410MOL0     H54080   4.689   6.911   1.977 -2.8148 -0.9005 -2.2329
  410MOL0     H54081   4.541   6.976   2.045 -0.7244  1.0335  0.3198
  410MOL0     H54082   4.377   6.927   2.160 -1.3935 -0.6099  0.2490
  410MOL0     H54083   4.213   6.876   2.315  0.0326  0.4389  0.7082
  410MOL0     H54084   4.164   6.802   2.788  2.1586 -3.2524  1.2589
  410MOL0     H54085   4.033   6.746   2.982 -1.7451 -0.3958  0.9678
  410MOL0     H54086   3.641   6.524   2.909 -5.0971 -1.6474  3.8330
  410MOL0     H54087   3.628   6.704   2.933 -1.7247 -0.7326  0.7129
  410MOL0     H54088   3.650   6.666   3.172  1.5453 -0.0041 -0.4378
  410MOL0     H54089   3.653   6.489   3.140  1.1354  0.5361  1.1280
  410MOL0     H54090   3.419   6.575   3.206  0.0606 -0.0493 -0.6423
  410MOL0     H54091   3.420   6.501   3.042  0.6718  1.3095 -2.2212
  410MOL0     H54092   3.416   6.789   3.096 -1.5029  1.3155 -0.5763
  410MOL0     H54093   3.430   6.706   2.938  1.6792 -4.2779 -0.4485
  410MOL0     H54094   3.197   6.671   3.126 -0.5308  1.5708 -0.0041
  410MOL0     H54095   3.208   6.601   2.966  1.9035  0.8438 -1.5874
  410MOL0     H54096   3.231   6.906   3.032 -1.3251 -0.4476  1.2697
  410MOL0     H54097   3.072   6.830   2.987 -0.7946 -1.6179  1.3796
  410MOL0     H54098   3.302   6.835   2.804 -0.0753  3.6122 -1.2287
  410MOL0     H54099   3.149   6.754   2.777  0.3563  1.2324 -1.5439
  410MOL0     H54100   3.027   6.956   2.775 -0.4530  4.8708  3.0590
  410MOL0     H54101   3.182   6.981   2.676 -0.7078 -2.0734 -0.9012
  410MOL0     H54102   3.743   6.558   2.728 -2.1442  0.8810  1.7592
  410MOL0     H54103   3.886   6.609   2.527 -2.1436  0.9731 -0.6651
  410MOL0     H54104   4.419   6.503   2.402  1.6240 -1.5643 -1.5997
  410MOL0     H54105   4.598   6.579   2.233  2.1973  2.5089 -0.4932
  410MOL0     H54106   6.198   7.979   1.826  0.3323  0.0956 -0.6874
  410MOL0     H54107   6.449   7.984   1.810  0.4054 -1.2001  0.6201
  410MOL0     H54108   6.814   7.798   1.466  2.0754 -1.7224 -1.0140
  410MOL0     H54109   7.064   7.822   1.470  2.8200 -3.1484  2.5331
  410MOL0     H54110   7.245   7.715   1.505  1.4710 -1.2399  0.6240
  410MOL0     H54111   7.382   7.753   1.590 -0.0779 -2.3234 -2.2979
  410MOL0     H54112   7.263   7.947   1.405  0.6015 -0.7405 -0.2751
  410MOL0     H54113   7.395   7.982   1.520  2.0105  0.2202 -1.0007
  410MOL0     H54114   7.460   7.942   1.270 -0.4103 -0.8831 -0.1166
  410MOL0     H54115   7.396   7.786   1.311 -0.4828 -0.1791  0.6584
  410MOL0     H54116   7.605   7.894   1.501 -1.1079 -0.6839  0.6687
  410MOL0     H54117   7.574   7.721   1.441  1.0167  0.7463  2.1214
  410MOL0     H54118   7.857   7.787   1.162 -1.4035 -1.5752 -0.5548
  410MOL0     H54119   7.045   7.818   1.896 -0.1402 -0.0129 -0.9189
  410MOL0     H54120   6.816   7.790   1.893  0.1712  0.7761  0.2066
  411MOL0     O54121   3.435   1.471   5.880  0.7550  0.6806 -0.5457
  411MOL0     C54122   3.536   1.454   5.943 -0.0758 -0.4790 -0.4180
  411MOL0     O54123   3.551   1.427   6.081  0.6692 -0.2265 -0.3169
  411MOL0     C54124   3.441   1.446   6.168 -0.6436 -0.3748  0.6530
  411MOL0     C54125   3.443   1.387   6.290  0.0240 -0.4630 -0.1763
  411MOL0     C54126   3.343   1.403   6.379  0.1466  1.1675 -1.2303
  411MOL0     C54127   3.225   1.470   6.353 -0.3542  0.2149 -0.0496
  411MOL0     O54128   3.125   1.492   6.452 -0.1550  1.2291 -0.3850
  411MOL0     C54129   3.120   1.379   6.542 -0.3501 -0.4924 -0.0947
  411MOL0     C54130   2.981   1.384   6.604 -0.5177  0.3431  0.6038
  411MOL0     C54131   2.870   1.370   6.497 -0.7470  0.1114 -0.3994
  411MOL0     C54132   2.739   1.374   6.565  0.0502 -0.3188  0.2100
  411MOL0     C54133   2.619   1.330   6.473  0.0366 -0.1168 -0.2908
  411MOL0     C54134   2.493   1.296   6.556 -0.2825  0.4247 -0.4776
  411MOL0     C54135   2.404   1.207   6.481  1.2616  0.5668  0.1512
  411MOL0     C54136   2.265   1.224   6.538 -0.4703 -0.2286  0.8570
  411MOL0     N54137   2.182   1.326   6.479  0.2065  0.8901 -0.4786
  411MOL0     C54138   2.176   1.459   6.521  0.2183  0.2068 -0.3713
  411MOL0     C54139   2.081   1.511   6.434  0.4512  0.1797  0.0321
  411MOL0     C54140   2.021   1.656   6.447  0.5588  0.3741 -0.1148
  411MOL0     C54141   1.880   1.656   6.512 -0.1568  0.9097 -0.8092
  411MOL0     C54142   1.821   1.789   6.481 -0.5958 -0.4588  0.0040
  411MOL0     C54143   1.675   1.788   6.493 -0.7322  0.0169  0.2589
  411MOL0     O54144   1.646   1.743   6.627 -0.2086 -0.2584 -0.1649
  411MOL0     C54145   1.518   1.721   6.659  0.6793  0.7055  0.4221
  411MOL0     C54146   1.495   1.677   6.787  0.3683 -0.1732 -0.6295
  411MOL0     C54147   1.369   1.661   6.843  0.4383 -0.7895  0.0714
  411MOL0     C54148   1.254   1.690   6.761 -0.1540  0.7044  0.7779
  411MOL0     C54149   1.115   1.658   6.816  0.1111 -0.3174  0.8519
  411MOL0     O54150   1.016   1.637   6.730 -0.0704 -0.4420 -0.5291
  411MOL0     C54151   0.881   1.642   6.758  0.5282 -0.2100 -0.3227
  411MOL0     C54152   0.822   1.526   6.814 -1.2457  0.0542 -0.4656
  411MOL0     C54153   0.683   1.507   6.824  0.3836 -0.0798  0.3161
  411MOL0     C54154   0.590   1.609   6.775 -0.3672  0.7726  0.4454
  411MOL0     O54155   0.456   1.599   6.807 -0.6483 -0.4534  0.5175
  411MOL0     C54156   0.398   1.470   6.841 -0.2848  0.2435  0.0948
  411MOL0     C54157   0.247   1.479   6.848  0.2396  0.3975  0.5547
  411MOL0     C54158   0.195   1.559   6.959  0.5492  0.3860 -0.7968
  411MOL0     C54159   0.056   1.508   6.987  0.0328  0.0559 -0.4460
  411MOL0     C54160  -0.016   1.584   7.098 -0.3936  0.0040  0.0326
  411MOL0     C54161  -0.149   1.512   7.131  0.6102 -0.6129  0.0757
  411MOL0     C54162  -0.232   1.602   7.227  0.5317  0.4583 -0.2105
  411MOL0     C54163  -0.370   1.545   7.251  0.0491 -0.7303  0.5513
  411MOL0    Cl54164  -0.376   1.388   7.338 -0.2978 -0.4764 -0.2224
  411MOL0     C54165   0.650   1.719   6.712 -0.2370  0.2879 -0.5540
  411MOL0     C54166   0.784   1.721   6.690 -0.1204 -0.1257 -0.3902
  411MOL0     O54167   1.102   1.643   6.937  0.6475  0.1929 -0.1178
  411MOL0     C54168   1.272   1.720   6.622  0.3010  0.8104  0.9770
  411MOL0     C54169   1.408   1.751   6.577  0.3206  0.4336 -0.5194
  411MOL0     N54170   2.034   1.416   6.350 -0.3622 -0.3533  0.3321
  411MOL0     N54171   2.097   1.305   6.379 -0.3415 -0.0343 -0.2526
  411MOL0     C54172   3.212   1.525   6.231 -0.5332 -0.2661  0.3699
  411MOL0     C54173   3.322   1.519   6.143  0.6392  0.5984 -0.0139
  411MOL0     C54174   3.665   1.461   5.867  0.2483  0.0464 -0.3999
  411MOL0     C54175   3.791   1.445   5.933 -0.1876 -0.7180 -0.1059
  411MOL0     C54176   3.911   1.457   5.862  0.5412 -0.0388  0.1237
  411MOL0     C54177   3.917   1.478   5.728  0.8250 -0.3352  0.0381
  411MOL0     O54178   4.035   1.508   5.666 -0.5194 -0.1914  0.2478
  411MOL0     C54179   4.043   1.482   5.525 -0.4909  0.2974 -0.0392
  411MOL0     C54180   4.194   1.496   5.490  0.4510 -0.1061  0.0971
  411MOL0     C54181   4.231   1.443   5.348 -0.1706 -0.8740  1.2976
  411MOL0     C54182   4.375   1.414   5.348 -0.2370  0.0205 -0.7917
  411MOL0     C54183   4.450   1.535   5.322  0.4790  0.7457 -0.2698
  411MOL0     C54184   4.509   1.636   5.301 -0.5490  0.9214 -0.3627
  411MOL0     C54185   3.791   1.493   5.667 -0.7888 -0.1850  0.1293
  411MOL0     C54186   3.671   1.485   5.731  0.8031 -0.3405 -0.0881
  411MOL0     H54187   3.531   1.332   6.320 -0.3861 -2.1947 -1.9500
  411MOL0     H54188   3.365   1.339   6.463 -0.6636  1.5459 -0.7167
  411MOL0     H54189   3.186   1.386   6.629 -1.9012  0.9443  1.0245
  411MOL0     H54190   3.134   1.288   6.484 -0.0216  0.4930 -1.6292
  411MOL0     H54191   2.978   1.475   6.664  0.2658  1.3647 -0.8590
  411MOL0     H54192   2.979   1.305   6.679 -0.4239  0.9701  1.2755
  411MOL0     H54193   2.873   1.271   6.449 -3.2562 -0.5196  0.5837
  411MOL0     H54194   2.886   1.451   6.426  2.9228  1.0109  1.2239
  411MOL0     H54195   2.740   1.313   6.656  0.8615  1.1965  1.2459
  411MOL0     H54196   2.718   1.475   6.600  1.9881  0.0433  0.4242
  411MOL0     H54197   2.655   1.245   6.414  0.5889  0.1690 -0.3775
  411MOL0     H54198   2.595   1.415   6.408  1.6561  1.2214  0.7784
  411MOL0     H54199   2.439   1.388   6.581 -1.1193 -0.7543  2.4645
  411MOL0     H54200   2.523   1.239   6.645  0.2723 -0.6819 -1.3532
  411MOL0     H54201   2.399   1.233   6.375  1.2275  3.4159  0.7729
  411MOL0     H54202   2.446   1.107   6.471 -0.7186 -0.1665 -1.3868
  411MOL0     H54203   2.275   1.245   6.645 -0.4076  1.2381  0.5804
  411MOL0     H54204   2.212   1.128   6.535 -1.1760  0.1584 -1.8390
  411MOL0     H54205   2.223   1.506   6.607 -0.9678  0.5296  0.1182
  411MOL0     H54206   2.027   1.703   6.348  0.0736  0.7329  0.0285
  411MOL0     H54207   2.075   1.725   6.512 -1.5965  3.4546 -1.3789
  411MOL0     H54208   1.892   1.640   6.620  0.2631  2.1101 -0.6658
  411MOL0     H54209   1.808   1.582   6.476 -1.1771  1.6488 -0.3260
  411MOL0     H54210   1.853   1.852   6.564  0.8013  0.0930 -0.9249
  411MOL0     H54211   1.852   1.835   6.387 -1.6571 -1.8158 -1.0654
  411MOL0     H54212   1.640   1.712   6.422  1.2948 -2.3230  1.6006
  411MOL0     H54213   1.630   1.885   6.474 -0.7357 -0.4659 -2.6449
  411MOL0     H54214   1.577   1.651   6.854  0.6538 -0.2489 -1.0022
  411MOL0     H54215   1.350   1.631   6.945 -1.0387  0.6941  0.2791
  411MOL0     H54216   0.890   1.447   6.844 -1.9879 -0.2120  0.5897
  411MOL0     H54217   0.650   1.411   6.863 -2.5242 -0.3602 -2.4651
  411MOL0     H54218   0.435   1.439   6.940  0.3364  0.5289 -0.0417
  411MOL0     H54219   0.421   1.392   6.768 -1.1105 -2.1910  2.3027
  411MOL0     H54220   0.201   1.379   6.851  0.4199  0.3388  2.5595
  411MOL0     H54221   0.204   1.529   6.761 -1.8325  3.3921  3.0760
  411MOL0     H54222   0.184   1.668   6.953 -3.2405  0.0884 -1.6811
  411MOL0     H54223   0.255   1.531   7.046 -1.7792 -1.0222  0.4544
  411MOL0     H54224  -0.003   1.526   6.897 -0.7493  1.3984  0.2994
  411MOL0     H54225   0.064   1.399   6.997 -0.1877 -0.0727 -1.5845
  411MOL0     H54226  -0.034   1.685   7.060  0.7578  0.4174  0.5366
  411MOL0     H54227   0.036   1.586   7.194 -1.6014 -1.7790  0.7713
  411MOL0     H54228  -0.126   1.413   7.170  0.9828  0.1469  1.9105
  411MOL0     H54229  -0.201   1.502   7.035 -1.6950  1.0372  1.0332
  411MOL0     H54230  -0.182   1.605   7.324  1.9931 -0.8261 -0.8857
  411MOL0     H54231  -0.235   1.706   7.191 -0.2835  0.7065  0.5330
  411MOL0     H54232  -0.423   1.534   7.156  2.9865 -1.7364 -1.1128
  411MOL0     H54233  -0.440   1.611   7.303 -2.8589 -1.2444 -2.3729
  411MOL0     H54234   0.583   1.785   6.658  1.0369  3.4054  1.3864
  411MOL0     H54235   0.813   1.800   6.621 -0.9620  1.4363  0.9465
  411MOL0     H54236   1.189   1.740   6.556 -0.0424  1.2434  1.5279
  411MOL0     H54237   1.424   1.781   6.474  1.8189 -0.8099 -0.6823
  411MOL0     H54238   3.123   1.580   6.199 -0.7184 -2.4970 -3.5351
  411MOL0     H54239   3.300   1.573   6.051 -1.0716  2.9780  1.6807
  411MOL0     H54240   3.799   1.442   6.041 -0.3650  0.0389 -0.0707
  411MOL0     H54241   4.009   1.445   5.909  0.7961  4.5212  1.2426
  411MOL0     H54242   3.983   1.554   5.469 -2.6701 -0.8482  0.7028
  411MOL0     H54243   4.002   1.384   5.502 -1.7897  1.4699 -3.1520
  411MOL0     H54244   4.210   1.604   5.498 -4.5562  0.8830 -0.3128
  411MOL0     H54245   4.256   1.441   5.562 -2.2627 -2.5937  0.7264
  411MOL0     H54246   4.207   1.511   5.266 -0.0502 -2.1057  0.2074
  411MOL0     H54247   4.165   1.357   5.335  0.4014 -1.0315 -0.9394
  411MOL0     H54248   4.409   1.371   5.442 -0.9838 -0.8238 -0.8951
  411MOL0     H54249   4.397   1.337   5.273  0.6329 -0.0639 -0.4652
  411MOL0     H54250   4.550   1.732   5.281 -0.0141  0.6931 -0.3875
  411MOL0     H54251   3.784   1.491   5.559 -1.0527  1.1641  0.1017
  411MOL0     H54252   3.576   1.496   5.678  1.6839 -1.1776 -1.9348
  412MOL0     O54253   7.664   1.520   3.041 -0.1270 -0.5828  0.2460
  412MOL0     C54254   7.624   1.612   2.968  0.2385  0.0025 -0.0118
  412MOL0     O54255   7.501   1.628   2.903  0.6135  0.3240 -0.5515
  412MOL0     C54256   7.379   1.582   2.953 -0.4729  0.0772  0.2621
  412MOL0     C54257   7.361   1.516   3.071 -0.0528 -0.4213 -0.1199
  412MOL0     C54258   7.245   1.441   3.106 -0.3575 -0.9462  0.7361
  412MOL0     C54259   7.137   1.457   3.021  0.0140  0.2734  0.4817
  412MOL0     O54260   7.009   1.412   3.055 -1.1366 -0.1250 -0.2285
  412MOL0     C54261   6.993   1.307   3.158  0.3873 -0.0811  0.2653
  412MOL0     C54262   6.950   1.366   3.300  0.1682  0.2826  0.2386
  412MOL0     C54263   6.947   1.265   3.414 -0.3126  0.2618  0.4159
  412MOL0     C54264   6.819   1.170   3.419 -0.2472 -0.7371  0.4760
  412MOL0     C54265   6.790   1.116   3.555 -0.0922  0.7883  0.1418
  412MOL0     C54266   6.637   1.068   3.562  0.3032  0.3866 -0.5874
  412MOL0     C54267   6.598   0.943   3.487  1.0620 -0.4348  0.3371
  412MOL0     C54268   6.449   0.915   3.510 -0.3133  0.9890 -0.4763
  412MOL0     N54269   6.441   0.854   3.650 -0.0853  0.1281  1.2084
  412MOL0     C54270   6.389   0.914   3.757 -0.0151  0.5817 -0.3010
  412MOL0     C54271   6.390   0.829   3.864  0.8676 -0.7219 -0.3286
  412MOL0     C54272   6.324   0.857   3.987  0.0370 -0.6773 -0.2603
  412MOL0     C54273   6.207   0.956   3.977  1.0310  0.5769 -0.1039
  412MOL0     C54274   6.155   0.968   4.124  0.4835 -0.4090 -0.5318
  412MOL0     C54275   6.014   1.036   4.133 -0.0247  0.3382 -0.1385
  412MOL0     O54276   5.919   0.971   4.038 -0.2236  0.0424  0.1168
  412MOL0     C54277   5.823   0.881   4.080 -0.1446  0.4233 -1.0912
  412MOL0     C54278   5.701   0.882   4.021  0.1765  0.7319 -0.2120
  412MOL0     C54279   5.606   0.782   4.054  0.4711  0.2985  0.8700
  412MOL0     C54280   5.629   0.675   4.147 -0.0823  0.0490  0.8154
  412MOL0     C54281   5.541   0.565   4.179 -1.3805 -0.3785  0.4978
  412MOL0     O54282   5.528   0.531   4.307 -1.2233  0.0863 -0.2754
  412MOL0     C54283   5.420   0.450   4.344 -0.0419 -0.1721  0.3874
  412MOL0     C54284   5.350   0.496   4.457 -0.0868  0.9204  0.1917
  412MOL0     C54285   5.238   0.432   4.513 -0.4393  0.0173 -0.4318
  412MOL0     C54286   5.202   0.315   4.458 -0.5138  0.3604 -0.5393
  412MOL0     O54287   5.081   0.270   4.501 -0.1896  0.6263  0.3130
  412MOL0     C54288   5.010   0.191   4.410 -0.9080  0.0389 -0.1001
  412MOL0     C54289   4.876   0.167   4.467  0.3787  0.4684  0.0319
  412MOL0     C54290   4.896   0.074   4.591  0.9044 -0.6325 -0.7498
  412MOL0     C54291   4.754   0.046   4.644 -0.3385 -0.6853 -0.4131
  412MOL0     C54292   4.770  -0.062   4.760 -0.2792 -0.3342 -0.1257
  412MOL0     C54293   4.631  -0.106   4.805 -0.5174 -0.5068 -0.1530
  412MOL0     C54294   4.647  -0.211   4.915  0.0312  0.5458 -0.0165
  412MOL0     C54295   4.512  -0.272   4.960 -0.7766 -0.6060  0.1758
  412MOL0    Cl54296   4.381  -0.274   4.830  0.0122 -0.0799 -0.1314
  412MOL0     C54297   5.267   0.262   4.339  0.3437  0.4073 -1.6871
  412MOL0     C54298   5.383   0.328   4.294 -0.7974  1.1112  0.3631
  412MOL0     O54299   5.460   0.539   4.087  0.5893  0.4883 -0.1940
  412MOL0     C54300   5.761   0.690   4.213  0.3070  0.4714  0.3161
  412MOL0     C54301   5.855   0.789   4.186  0.1750  0.8644 -0.0772
  412MOL0     N54302   6.447   0.716   3.810 -0.2151  0.7486 -0.3816
  412MOL0     N54303   6.467   0.726   3.684 -0.1270  0.0328 -0.6835
  412MOL0     C54304   7.147   1.547   2.911  0.1028  0.0302  0.5916
  412MOL0     C54305   7.268   1.613   2.876 -0.3758 -0.0302  0.5687
  412MOL0     C54306   7.720   1.723   2.938  0.9811 -0.5756  1.3674
  412MOL0     C54307   7.683   1.826   2.845 -0.6836  0.0314 -0.1150
  412MOL0     C54308   7.778   1.912   2.801  0.2269 -0.4785  0.3916
  412MOL0     C54309   7.904   1.918   2.862  0.9718  0.3863  0.5271
  412MOL0     O54310   8.011   1.999   2.840  0.2321  0.4590  0.8950
  412MOL0     C54311   8.020   2.043   2.706 -0.2142 -0.2335  1.2096
  412MOL0     C54312   8.114   2.157   2.693 -0.5175 -0.4183  0.1088
  412MOL0     C54313   8.254   2.117   2.633  0.0949 -0.1524  0.7192
  412MOL0     C54314   8.361   2.221   2.679  0.0088  0.1586  0.2601
  412MOL0     C54315   8.477   2.205   2.585 -0.0934  0.6896  0.0417
  412MOL0     C54316   8.565   2.195   2.505 -0.4214 -0.7894 -0.4676
  412MOL0     C54317   7.932   1.821   2.961 -0.6267  0.2893 -0.5626
  412MOL0     C54318   7.839   1.732   3.001 -0.1329  0.0201  0.5708
  412MOL0     H54319   7.442   1.487   3.137 -0.4833 -1.2860  0.0334
  412MOL0     H54320   7.242   1.375   3.192  1.5220 -1.0892  0.7266
  412MOL0     H54321   7.079   1.241   3.167 -0.9209 -1.6139  2.5862
  412MOL0     H54322   6.907   1.252   3.119 -0.6457  2.2525 -0.9329
  412MOL0     H54323   6.847   1.401   3.299  0.3538  0.9337  1.7500
  412MOL0     H54324   7.007   1.455   3.327 -2.8812  2.4789 -0.0604
  412MOL0     H54325   6.947   1.314   3.512 -4.1131 -0.3039  0.8647
  412MOL0     H54326   7.031   1.195   3.417 -0.1835  0.4433  3.1769
  412MOL0     H54327   6.743   1.235   3.375  1.8717  1.9297  0.4231
  412MOL0     H54328   6.832   1.089   3.346 -0.9608 -1.7877  1.4896
  412MOL0     H54329   6.803   1.184   3.640  3.1419 -3.7209  3.7850
  412MOL0     H54330   6.859   1.034   3.575 -1.0723  0.4622  2.5986
  412MOL0     H54331   6.567   1.146   3.531 -2.4378 -2.0862 -1.0024
  412MOL0     H54332   6.622   1.051   3.669 -0.4115 -1.6068 -0.9730
  412MOL0     H54333   6.623   0.970   3.384 -1.3065 -2.4100 -0.8562
  412MOL0     H54334   6.663   0.858   3.512  2.3136  0.2574 -0.4788
  412MOL0     H54335   6.425   0.835   3.439 -0.5606 -0.7423  1.4611
  412MOL0     H54336   6.374   0.994   3.501 -2.4185 -0.9741 -1.1483
  412MOL0     H54337   6.363   1.019   3.767 -0.9932  0.1401  3.3613
  412MOL0     H54338   6.395   0.884   4.066 -1.3559 -0.7123  1.0542
  412MOL0     H54339   6.278   0.768   4.030 -3.8752  0.1409 -2.2972
  412MOL0     H54340   6.124   0.922   3.914  0.6916 -0.1037  0.7023
  412MOL0     H54341   6.232   1.058   3.946 -1.8482  2.2274  2.5571
  412MOL0     H54342   6.146   0.873   4.177 -0.3408 -0.3378 -0.5217
  412MOL0     H54343   6.230   1.033   4.170  1.2806 -0.8430 -1.1863
  412MOL0     H54344   6.024   1.138   4.094  2.2289  1.1357  2.2197
  412MOL0     H54345   5.973   1.037   4.235 -0.1921  0.8598 -0.2099
  412MOL0     H54346   5.689   0.943   3.932 -1.9219  2.0632  0.9167
  412MOL0     H54347   5.513   0.799   4.000  0.8415 -0.9909 -0.2379
  412MOL0     H54348   5.390   0.589   4.497 -2.5001  1.5376  1.3942
  412MOL0     H54349   5.170   0.468   4.590 -2.6562  0.6912 -2.5668
  412MOL0     H54350   5.065   0.096   4.402  0.5073  0.3965  3.6637
  412MOL0     H54351   5.003   0.231   4.308 -1.8624 -0.3046 -0.1759
  412MOL0     H54352   4.824   0.122   4.382  0.5591  0.9191 -0.3236
  412MOL0     H54353   4.824   0.262   4.481 -2.1146 -0.2051 -3.3131
  412MOL0     H54354   4.953   0.114   4.676 -3.3681  0.5907  1.8784
  412MOL0     H54355   4.937  -0.019   4.551 -2.4550 -1.9696 -1.4271
  412MOL0     H54356   4.715   0.141   4.681  1.3940 -0.0599 -0.1481
  412MOL0     H54357   4.694   0.000   4.564  0.1055 -1.0177 -0.5583
  412MOL0     H54358   4.822  -0.016   4.844 -0.0708 -3.4312  1.5875
  412MOL0     H54359   4.835  -0.145   4.732 -0.9868 -0.3594 -1.8379
  412MOL0     H54360   4.578  -0.146   4.718 -1.4641  0.9568 -0.2829
  412MOL0     H54361   4.579  -0.019   4.847  0.3536 -0.4841  0.9294
  412MOL0     H54362   4.715  -0.290   4.884 -2.5144 -2.6492  1.9004
  412MOL0     H54363   4.687  -0.158   5.002 -0.3224  4.2518 -1.8936
  412MOL0     H54364   4.475  -0.207   5.040  3.0142  0.1045  1.5685
  412MOL0     H54365   4.531  -0.368   5.009  1.0851  0.6319  2.0616
  412MOL0     H54366   5.238   0.167   4.296  0.5008 -0.6809  0.5161
  412MOL0     H54367   5.449   0.274   4.227  0.4251 -0.2680  2.5737
  412MOL0     H54368   5.792   0.619   4.289  1.8801  1.0977  0.2929
  412MOL0     H54369   5.953   0.780   4.232  0.3953  0.0653 -0.6919
  412MOL0     H54370   7.059   1.550   2.847  2.1619  2.8012 -2.4827
  412MOL0     H54371   7.282   1.676   2.789  2.9400 -3.0688 -1.3362
  412MOL0     H54372   7.586   1.825   2.795 -0.3707  1.6745 -0.8162
  412MOL0     H54373   7.753   1.984   2.723 -0.9241 -2.4093 -1.1182
  412MOL0     H54374   7.925   2.085   2.670 -0.2605 -0.8395  0.6083
  412MOL0     H54375   8.039   1.954   2.645 -0.6384 -0.4908  1.4400
  412MOL0     H54376   8.070   2.232   2.626 -0.3758 -0.3756  0.0631
  412MOL0     H54377   8.128   2.212   2.787  1.1349 -0.8474  0.1403
  412MOL0     H54378   8.237   2.125   2.525 -1.1136  3.8379  1.0336
  412MOL0     H54379   8.291   2.024   2.677  5.2531  2.1858  2.1090
  412MOL0     H54380   8.316   2.319   2.659  2.9282  2.2882  3.1212
  412MOL0     H54381   8.392   2.229   2.783  0.6247 -2.5322  0.3431
  412MOL0     H54382   8.652   2.200   2.443 -0.0120 -0.6269  0.1122
  412MOL0     H54383   8.028   1.824   3.011 -0.5281  1.8583 -0.7998
  412MOL0     H54384   7.865   1.674   3.088 -0.8322  1.4344  1.7698
  413MOL0     O54385   7.974   2.806   3.245  0.2937 -0.2243  0.0294
  413MOL0     C54386   8.044   2.703   3.266  0.7346 -0.2973  0.9354
  413MOL0     O54387   7.999   2.585   3.309 -0.4881 -0.3572 -0.1747
  413MOL0     C54388   7.869   2.570   3.365 -0.7859 -0.1829 -0.1882
  413MOL0     C54389   7.766   2.501   3.303 -0.2913  0.4463  0.7942
  413MOL0     C54390   7.639   2.486   3.354 -0.4733  0.0742  0.8188
  413MOL0     C54391   7.610   2.553   3.483  0.0458  0.9380 -0.6889
  413MOL0     O54392   7.492   2.545   3.566 -0.3797 -0.2657  1.1527
  413MOL0     C54393   7.369   2.504   3.507 -0.9234 -0.6008  0.1035
  413MOL0     C54394   7.289   2.457   3.631 -0.0713 -0.3254  0.2367
  413MOL0     C54395   7.146   2.424   3.579 -0.4443 -0.2226  0.7210
  413MOL0     C54396   7.063   2.552   3.579 -0.3328 -0.0052 -0.0129
  413MOL0     C54397   6.937   2.563   3.500  0.8575  0.9343 -1.0443
  413MOL0     C54398   6.840   2.464   3.561  0.5612 -0.4579 -0.9747
  413MOL0     C54399   6.700   2.498   3.504  0.6088 -0.3651 -0.6751
  413MOL0     C54400   6.588   2.411   3.579  0.4029 -0.7123 -0.0414
  413MOL0     N54401   6.457   2.411   3.516 -1.1572 -0.7642  1.1268
  413MOL0     C54402   6.373   2.517   3.512  0.2393 -0.0965 -1.3785
  413MOL0     C54403   6.262   2.471   3.460  0.2284  0.6110  0.1116
  413MOL0     C54404   6.141   2.561   3.424 -0.2124 -1.0598 -1.0475
  413MOL0     C54405   6.012   2.487   3.382 -0.0444 -0.8878  0.4698
  413MOL0     C54406   6.047   2.408   3.261 -0.1682  0.5085  0.4310
  413MOL0     C54407   5.915   2.370   3.192 -0.2515  0.3742 -0.4374
  413MOL0     O54408   5.822   2.320   3.284 -0.1834 -1.0300 -0.2266
  413MOL0     C54409   5.692   2.351   3.284  0.0902  0.0439 -0.5310
  413MOL0     C54410   5.620   2.319   3.394 -0.2906  0.2016 -0.2663
  413MOL0     C54411   5.479   2.344   3.392  0.3842  0.3506 -0.2979
  413MOL0     C54412   5.413   2.416   3.286  0.5141 -0.2001  0.3611
  413MOL0     C54413   5.275   2.473   3.290  0.0499 -0.3556  0.2625
  413MOL0     O54414   5.228   2.532   3.174  0.4847 -0.4067 -0.0364
  413MOL0     C54415   5.105   2.588   3.180  0.1619  0.5149 -1.0111
  413MOL0     C54416   5.077   2.709   3.237  0.3624 -0.2648  0.1985
  413MOL0     C54417   4.942   2.745   3.252  0.4964 -0.1453  0.1820
  413MOL0     C54418   4.833   2.671   3.192  0.1600  0.0116 -0.0520
  413MOL0     O54419   4.707   2.719   3.188  0.0937  0.0311  1.1544
  413MOL0     C54420   4.687   2.859   3.224  0.6454  1.1394  0.2520
  413MOL0     C54421   4.539   2.890   3.200 -0.7353 -0.0236  0.2892
  413MOL0     C54422   4.454   2.829   3.315 -0.9934 -0.0654 -0.1128
  413MOL0     C54423   4.316   2.878   3.289 -0.1874  0.8815  0.0659
  413MOL0     C54424   4.240   2.854   3.422  0.3951 -0.0138  0.7614
  413MOL0     C54425   4.090   2.879   3.418  0.3072  0.7675 -0.3200
  413MOL0     C54426   4.037   2.870   3.558 -0.1930  0.8527 -1.3057
  413MOL0     C54427   3.887   2.887   3.561 -0.6304 -0.3310 -0.3383
  413MOL0    Cl54428   3.795   2.757   3.487 -0.1351  0.1768 -0.2172
  413MOL0     C54429   4.866   2.544   3.139  0.0377 -0.1553 -0.0492
  413MOL0     C54430   5.002   2.506   3.136  0.1049  0.5333  1.1116
  413MOL0     O54431   5.212   2.461   3.395 -0.2047  0.7206 -0.4629
  413MOL0     C54432   5.487   2.412   3.164 -0.0806 -0.2144  0.0092
  413MOL0     C54433   5.624   2.392   3.164 -0.0299  0.0124  0.2439
  413MOL0     N54434   6.282   2.334   3.436 -0.7947  0.6937 -0.4631
  413MOL0     N54435   6.398   2.297   3.477  0.5355 -0.6699 -0.1999
  413MOL0     C54436   7.712   2.633   3.542 -0.1667  0.0959 -0.0811
  413MOL0     C54437   7.835   2.647   3.476 -0.0185 -0.8975  0.9111
  413MOL0     C54438   8.196   2.730   3.256  0.6851 -0.1783 -0.1792
  413MOL0     C54439   8.274   2.833   3.185  0.5069  0.6467  0.3757
  413MOL0     C54440   8.417   2.826   3.180  0.0781  0.8076 -0.1004
  413MOL0     C54441   8.487   2.727   3.249 -0.1425  0.4740  0.0321
  413MOL0     O54442   8.622   2.717   3.252 -0.0980 -0.1645 -0.0377
  413MOL0     C54443   8.693   2.793   3.155 -1.0705 -0.0999  0.2757
  413MOL0     C54444   8.822   2.712   3.139 -0.7776 -0.2959 -0.3485
  413MOL0     C54445   8.910   2.759   3.029  0.0284 -0.5798  0.9299
  413MOL0     C54446   9.035   2.671   3.006  0.0353 -0.2920 -0.8994
  413MOL0     C54447   9.118   2.668   3.127  0.1367 -0.8817  0.4052
  413MOL0     C54448   9.217   2.664   3.207  0.9057  0.2960  0.7855
  413MOL0     C54449   8.416   2.624   3.309  0.0667 -0.6055  0.6556
  413MOL0     C54450   8.272   2.627   3.316 -0.6268  0.3462 -0.6010
  413MOL0     H54451   7.799   2.451   3.212  0.7744 -0.0601  1.4365
  413MOL0     H54452   7.572   2.420   3.299  0.0703  0.7052 -0.6452
  413MOL0     H54453   7.379   2.426   3.431 -2.4088 -1.0078  0.2964
  413MOL0     H54454   7.318   2.590   3.462 -0.6273  2.4194  4.8244
  413MOL0     H54455   7.288   2.540   3.702 -0.0438  0.4879 -0.6962
  413MOL0     H54456   7.332   2.364   3.670  1.2441  0.5779  1.0336
  413MOL0     H54457   7.101   2.351   3.647  3.4064 -0.0404  3.8132
  413MOL0     H54458   7.156   2.385   3.477 -0.5043 -0.8083  0.9363
  413MOL0     H54459   7.043   2.583   3.682 -0.6758 -0.5211  0.0834
  413MOL0     H54460   7.120   2.631   3.530 -0.7545 -1.0314 -2.3196
  413MOL0     H54461   6.959   2.535   3.397  3.7699  1.2630 -0.5856
  413MOL0     H54462   6.899   2.665   3.513  1.9996  1.3186 -0.6542
  413MOL0     H54463   6.836   2.468   3.670 -0.1908  1.0250 -1.0310
  413MOL0     H54464   6.872   2.360   3.549  0.4113 -1.5085  4.8811
  413MOL0     H54465   6.672   2.602   3.519 -0.7435 -0.8972  0.9054
  413MOL0     H54466   6.700   2.466   3.400  1.1421 -0.5028 -0.6326
  413MOL0     H54467   6.582   2.451   3.680 -2.3255 -0.9800 -0.0209
  413MOL0     H54468   6.627   2.308   3.586 -1.5288 -1.7477 -2.8678
  413MOL0     H54469   6.395   2.617   3.549  1.0666 -1.6863  3.0370
  413MOL0     H54470   6.177   2.629   3.347  0.6730 -0.0448  0.2287
  413MOL0     H54471   6.094   2.618   3.505 -1.1901 -0.8163 -1.7646
  413MOL0     H54472   5.939   2.559   3.344 -1.7610 -2.5896  0.3594
  413MOL0     H54473   5.965   2.421   3.456  2.8758 -3.7728 -0.0175
  413MOL0     H54474   6.101   2.469   3.188  0.6618  0.8045  1.2817
  413MOL0     H54475   6.101   2.315   3.280  3.3531  1.6926 -2.6054
  413MOL0     H54476   5.921   2.298   3.110  0.3594  1.0522 -0.9970
  413MOL0     H54477   5.878   2.463   3.149  0.4709  3.1305  4.2437
  413MOL0     H54478   5.669   2.279   3.482 -3.9532 -1.5358  1.2024
  413MOL0     H54479   5.421   2.321   3.480  1.8002 -1.4955  0.2166
  413MOL0     H54480   5.152   2.773   3.282 -1.1127  1.4943  0.2874
  413MOL0     H54481   4.924   2.839   3.304  1.3109 -0.1138  0.4186
  413MOL0     H54482   4.750   2.921   3.160  2.1854 -0.7621 -0.1479
  413MOL0     H54483   4.695   2.878   3.332 -0.2274 -0.8677  0.7116
  413MOL0     H54484   4.514   2.856   3.099 -0.9017 -0.1790  0.3839
  413MOL0     H54485   4.538   2.999   3.216  2.7291  0.3266 -0.9415
  413MOL0     H54486   4.492   2.862   3.412  3.1202 -1.9560 -0.8851
  413MOL0     H54487   4.454   2.720   3.314 -1.9360 -0.0751 -0.6288
  413MOL0     H54488   4.311   2.983   3.260 -1.0209  1.0653  0.8404
  413MOL0     H54489   4.273   2.820   3.207 -5.2197  0.4167  2.6464
  413MOL0     H54490   4.283   2.922   3.496 -0.7647 -0.8139  2.2294
  413MOL0     H54491   4.255   2.751   3.458  1.9696  1.1399  3.7409
  413MOL0     H54492   4.026   2.817   3.354 -1.6774  0.9176  1.4299
  413MOL0     H54493   4.073   2.982   3.386  1.8668  2.1968  3.0305
  413MOL0     H54494   4.076   2.780   3.606  1.8285  1.9996 -0.7093
  413MOL0     H54495   4.076   2.947   3.624 -0.1704 -0.4288  0.2321
  413MOL0     H54496   3.854   2.986   3.526 -3.4497 -0.7304  0.9184
  413MOL0     H54497   3.864   2.903   3.667  0.9356 -0.1604 -0.0076
  413MOL0     H54498   4.802   2.471   3.090 -0.7042 -0.5361  1.4502
  413MOL0     H54499   5.038   2.409   3.103 -4.0441 -0.9358  0.3640
  413MOL0     H54500   5.419   2.437   3.084 -1.6701  0.6891  1.5867
  413MOL0     H54501   5.674   2.403   3.069  0.5472  0.4570  0.5974
  413MOL0     H54502   7.685   2.668   3.640 -2.6434 -1.2059 -0.2251
  413MOL0     H54503   7.919   2.693   3.526  0.9271 -2.8638  1.2202
  413MOL0     H54504   8.218   2.912   3.136 -0.8774 -0.4827  0.0430
  413MOL0     H54505   8.459   2.912   3.128 -2.1819  2.7325  1.0514
  413MOL0     H54506   8.711   2.891   3.202 -0.1810 -0.1715  0.0917
  413MOL0     H54507   8.654   2.806   3.054  2.0180  1.1281 -0.8647
  413MOL0     H54508   8.880   2.721   3.231 -0.8444 -0.2135 -0.3132
  413MOL0     H54509   8.805   2.605   3.127  2.5116 -1.1352  1.3296
  413MOL0     H54510   8.932   2.865   3.043 -1.5528 -0.4255  2.5479
  413MOL0     H54511   8.865   2.746   2.930  0.4650 -0.3807  0.7037
  413MOL0     H54512   8.991   2.572   2.989 -1.7449 -0.0491  1.6664
  413MOL0     H54513   9.087   2.720   2.924 -0.3465  2.4873  0.3957
  413MOL0     H54514   9.295   2.668   3.280 -0.8891 -0.7061  2.8787
  413MOL0     H54515   8.468   2.537   3.346 -0.0982 -1.8617 -1.9062
  413MOL0     H54516   8.236   2.539   3.368  1.2583  0.1567  0.4395
  414MOL0     O54517  10.231  10.671   1.818 -0.3160  0.0562 -0.6338
  414MOL0     C54518  10.234  10.792   1.782 -0.5292  0.4138  0.8942
  414MOL0     O54519  10.126  10.868   1.765 -0.2808 -0.5387 -0.1053
  414MOL0     C54520   9.999  10.847   1.820  0.1263  0.5561  0.1203
  414MOL0     C54521   9.929  10.954   1.858 -0.5831 -0.0415  0.2357
  414MOL0     C54522   9.799  10.948   1.915  0.3748  0.2358  0.1324
  414MOL0     C54523   9.738  10.821   1.927 -0.3330  0.2444  0.4029
  414MOL0     O54524   9.614  10.793   1.982  0.2544  0.2266 -0.2311
  414MOL0     C54525   9.513  10.890   2.005 -0.3070  0.4634 -0.3176
  414MOL0     C54526   9.384  10.825   2.074 -0.0470  0.5916 -0.2273
  414MOL0     C54527   9.402  10.787   2.220  0.0847 -0.2056 -0.1082
  414MOL0     C54528   9.277  10.761   2.302 -0.5339 -0.1996  0.1515
  414MOL0     C54529   9.320  10.700   2.433 -0.2169 -0.1321 -0.3330
  414MOL0     C54530   9.205  10.668   2.536 -0.0613 -0.6842 -0.6067
  414MOL0     C54531   9.252  10.575   2.649 -0.1084 -0.1153 -0.3607
  414MOL0     C54532   9.139  10.533   2.745  0.0022 -0.0687  0.3819
  414MOL0     N54533   9.086  10.636   2.832 -0.3306  0.1175  0.9252
  414MOL0     C54534   8.978  10.708   2.824  1.5954  0.1542 -0.2394
  414MOL0     C54535   8.964  10.774   2.946  0.2450 -0.5459 -0.3555
  414MOL0     C54536   8.859  10.871   2.987  0.2659  0.0938  0.6785
  414MOL0     C54537   8.732  10.789   2.995 -0.1500  0.1141  0.1807
  414MOL0     C54538   8.741  10.691   3.107  0.4081 -0.9456  0.0673
  414MOL0     C54539   8.606  10.619   3.112  0.2864  0.3440  0.4576
  414MOL0     O54540   8.597  10.528   3.004  0.4368 -0.0605  0.2637
  414MOL0     C54541   8.498  10.432   2.997  0.0493 -0.0537  0.2863
  414MOL0     C54542   8.366  10.453   3.049  0.1982 -0.2255 -1.0293
  414MOL0     C54543   8.267  10.351   3.041 -0.8345 -0.1720  0.2201
  414MOL0     C54544   8.289  10.236   2.969 -0.3290  0.2147  0.8283
  414MOL0     C54545   8.177  10.141   2.948 -0.1719  0.5788  0.3793
  414MOL0     O54546   8.056  10.172   3.014  0.1775  0.2515 -0.3100
  414MOL0     C54547   7.934  10.110   2.999  0.1134 -0.1175 -0.8306
  414MOL0     C54548   7.894  10.044   2.886  0.9962 -0.0039 -0.1086
  414MOL0     C54549   7.758  10.004   2.869  0.5936  0.0673 -0.2553
  414MOL0     C54550   7.666  10.015   2.976  0.2054 -0.6557  0.5095
  414MOL0     O54551   7.538   9.965   2.947 -0.4797 -0.0235  0.2128
  414MOL0     C54552   7.435   9.990   3.045  0.5819 -0.2546  0.1422
  414MOL0     C54553   7.419   9.899   3.164 -0.0357  0.9689  0.3088
  414MOL0     C54554   7.274   9.918   3.216  0.2282 -0.4975 -0.1543
  414MOL0     C54555   7.229  10.060   3.248 -0.2653 -0.2515 -0.3691
  414MOL0     C54556   7.099  10.069   3.321 -0.4029  0.0074  0.4588
  414MOL0     C54557   6.971  10.053   3.238  0.2645 -0.3994 -0.7605
  414MOL0     C54558   6.862  10.101   3.329 -0.0482  0.0192  0.4401
  414MOL0     C54559   6.722  10.093   3.275  0.4490  0.5714 -0.2499
  414MOL0    Cl54560   6.680   9.926   3.226 -0.2417 -0.1573 -0.2759
  414MOL0     C54561   7.706  10.088   3.090 -0.1585 -0.1639 -0.4354
  414MOL0     C54562   7.836  10.139   3.099  0.0645 -0.6090 -0.0929
  414MOL0     O54563   8.187  10.039   2.875 -0.0560  0.3142 -0.2100
  414MOL0     C54564   8.411  10.225   2.900 -0.1125  1.2831 -0.7150
  414MOL0     C54565   8.517  10.315   2.924  0.8451 -0.7712 -0.5676
  414MOL0     N54566   9.085  10.752   3.013 -0.6009 -0.5038 -0.0739
  414MOL0     N54567   9.153  10.667   2.945 -0.8651  0.5089  0.4722
  414MOL0     C54568   9.813  10.709   1.888 -0.3889 -0.0010 -0.4848
  414MOL0     C54569   9.938  10.717   1.838  0.9330 -0.4707 -0.8158
  414MOL0     C54570  10.363  10.849   1.742 -0.2021  0.1780  0.1634
  414MOL0     C54571  10.380  10.981   1.700 -0.7224 -0.6869  0.7315
  414MOL0     C54572  10.505  11.049   1.676  0.1751 -0.5430  1.3622
  414MOL0     C54573  10.619  10.975   1.692  0.7001 -0.4580 -0.0920
  414MOL0     O54574  10.742  11.025   1.693  0.1017 -0.0778 -0.1478
  414MOL0     C54575  10.774  11.145   1.620  0.1564 -0.1566  0.0310
  414MOL0     C54576  10.806  11.119   1.465  0.7145  0.1698 -0.2403
  414MOL0     C54577  10.917  11.021   1.436  0.2918  0.3667 -0.2701
  414MOL0     C54578  10.883  10.869   1.446  1.0373  0.0693  0.6996
  414MOL0     C54579  10.764  10.819   1.373 -0.2227 -0.1398  0.8284
  414MOL0     C54580  10.654  10.788   1.325 -0.5445 -0.2841  0.0043
  414MOL0     C54581  10.606  10.837   1.730 -0.1939  0.3657  0.5722
  414MOL0     C54582  10.483  10.781   1.762 -0.2067 -0.7384 -0.0252
  414MOL0     H54583   9.979  11.049   1.841 -1.5914  0.2502 -1.1990
  414MOL0     H54584   9.750  11.040   1.944  1.4504  0.3673  1.6075
  414MOL0     H54585   9.497  10.940   1.909  0.2952 -1.1056 -1.2605
  414MOL0     H54586   9.550  10.966   2.075  1.0571 -1.4001  1.0828
  414MOL0     H54587   9.355  10.746   2.004  0.1427  1.3122 -1.1387
  414MOL0     H54588   9.308  10.904   2.078  1.3238  1.9032  2.3475
  414MOL0     H54589   9.449  10.877   2.260 -0.9437  0.5284 -0.5110
  414MOL0     H54590   9.458  10.693   2.220 -1.5662 -1.2289 -0.6422
  414MOL0     H54591   9.221  10.853   2.321 -4.5389 -2.0483 -1.5389
  414MOL0     H54592   9.214  10.701   2.236 -0.6041  1.2436 -1.1624
  414MOL0     H54593   9.389  10.769   2.481 -1.3865 -0.0976  1.3792
  414MOL0     H54594   9.381  10.611   2.417  4.0783  2.2420  1.3421
  414MOL0     H54595   9.132  10.611   2.478  3.4330 -3.1485 -2.9905
  414MOL0     H54596   9.165  10.761   2.577  2.2468  0.5481 -1.0067
  414MOL0     H54597   9.301  10.490   2.601 -0.6525 -0.3416 -0.5205
  414MOL0     H54598   9.322  10.637   2.706 -2.6550  1.8408  0.9107
  414MOL0     H54599   9.178  10.456   2.811 -1.7883 -1.4899 -0.1330
  414MOL0     H54600   9.054  10.498   2.685  1.3693 -2.9561 -0.0097
  414MOL0     H54601   8.895  10.706   2.753 -0.1082  3.2125  1.4338
  414MOL0     H54602   8.848  10.940   2.903  2.9930  0.5426  0.6203
  414MOL0     H54603   8.886  10.927   3.078 -1.4616  1.3854  0.4679
  414MOL0     H54604   8.714  10.734   2.902 -2.7978 -1.7003  1.6219
  414MOL0     H54605   8.652  10.860   3.017 -0.3074 -0.6220  2.1352
  414MOL0     H54606   8.816  10.611   3.100  0.6642 -0.5933 -1.4807
  414MOL0     H54607   8.760  10.743   3.202 -0.8263 -0.2498 -0.0504
  414MOL0     H54608   8.524  10.692   3.111 -2.9230 -2.8654 -2.4385
  414MOL0     H54609   8.596  10.563   3.206  1.4013 -2.6097 -1.0412
  414MOL0     H54610   8.344  10.549   3.094  0.6473 -0.8798  0.6637
  414MOL0     H54611   8.179  10.372   3.101  0.2793  2.5384  1.0635
  414MOL0     H54612   7.954  10.033   2.796  2.8517 -2.4696  1.3339
  414MOL0     H54613   7.733   9.959   2.774  1.4725 -2.8760  0.7945
  414MOL0     H54614   7.345   9.982   2.984  0.3982 -0.3911  0.4290
  414MOL0     H54615   7.423  10.094   3.074 -2.7534 -1.1353  2.5068
  414MOL0     H54616   7.489   9.935   3.240 -0.9017  1.4632  0.8795
  414MOL0     H54617   7.440   9.793   3.149 -0.2640  0.8424  0.8873
  414MOL0     H54618   7.271   9.862   3.311  1.6286 -1.3287 -0.5752
  414MOL0     H54619   7.188   9.884   3.157 -1.4274  1.5445  0.9431
  414MOL0     H54620   7.308  10.103   3.310 -1.4563  0.9077  0.3918
  414MOL0     H54621   7.226  10.128   3.162  0.9054  0.0078 -0.2192
  414MOL0     H54622   7.105  10.159   3.382 -1.3944  3.1478 -3.6299
  414MOL0     H54623   7.106   9.977   3.380  3.0156 -1.3890 -1.7732
  414MOL0     H54624   6.960   9.949   3.205 -1.8450 -0.3665 -0.3229
  414MOL0     H54625   6.983  10.114   3.149  0.0260  0.4227 -0.2404
  414MOL0     H54626   6.857  10.035   3.417 -2.9555 -1.8948 -1.0098
  414MOL0     H54627   6.884  10.205   3.354  2.5590 -0.5361  0.7611
  414MOL0     H54628   6.695  10.171   3.203 -2.1949 -0.9162 -0.9849
  414MOL0     H54629   6.654  10.126   3.354 -0.9283  1.1544 -1.6299
  414MOL0     H54630   7.641  10.109   3.174  0.2126  0.8368 -0.3901
  414MOL0     H54631   7.862  10.210   3.176  0.7539 -1.1015  0.1444
  414MOL0     H54632   8.442  10.141   2.839 -3.1670  0.2245 -0.9667
  414MOL0     H54633   8.609  10.278   2.880  0.4759 -0.4747 -1.6437
  414MOL0     H54634   9.778  10.607   1.899 -1.7077  0.5507  0.8079
  414MOL0     H54635   9.994  10.625   1.822  0.2408 -0.6061 -2.7485
  414MOL0     H54636  10.295  11.048   1.690  2.2570  3.2140 -1.3202
  414MOL0     H54637  10.510  11.155   1.654 -3.0398 -0.7890 -1.5679
  414MOL0     H54638  10.864  11.197   1.655 -0.3944  0.3532  0.7228
  414MOL0     H54639  10.692  11.217   1.628  0.9783  0.8089  0.0477
  414MOL0     H54640  10.715  11.078   1.421  1.1202  1.6701 -2.6784
  414MOL0     H54641  10.819  11.209   1.403  0.2617  0.1188 -0.4141
  414MOL0     H54642  11.002  11.044   1.500 -0.0170 -0.8682  0.6354
  414MOL0     H54643  10.947  11.035   1.332 -1.7597  1.1064 -0.8072
  414MOL0     H54644  10.971  10.817   1.406  1.3476 -0.4095  1.9405
  414MOL0     H54645  10.881  10.833   1.550  0.2525 -1.7906  0.0834
  414MOL0     H54646  10.559  10.768   1.279 -0.7700 -1.2232  0.8379
  414MOL0     H54647  10.698  10.779   1.734 -0.0010  0.6748  0.6086
  414MOL0     H54648  10.489  10.683   1.808 -0.2581  0.6915  3.3732
  415MOL0     O54649   3.348   4.904   2.632  0.7605 -0.4705 -0.2165
  415MOL0     C54650   3.364   4.996   2.712 -0.2369 -0.6203 -0.2025
  415MOL0     O54651   3.272   5.049   2.798 -0.0888  0.2847 -0.1070
  415MOL0     C54652   3.156   4.971   2.803 -0.5914 -0.3776 -0.5020
  415MOL0     C54653   3.141   4.874   2.903 -0.5024 -0.0410 -0.0384
  415MOL0     C54654   3.013   4.814   2.921  0.5956  0.1349 -1.1321
  415MOL0     C54655   2.915   4.834   2.831  0.6050 -0.0352  0.5214
  415MOL0     O54656   2.791   4.777   2.838 -0.2550 -0.7217 -0.0717
  415MOL0     C54657   2.740   4.706   2.725  0.5256  0.8977  0.5902
  415MOL0     C54658   2.596   4.755   2.689 -0.2458  0.1585 -0.6959
  415MOL0     C54659   2.599   4.908   2.650  0.2763 -0.2554 -0.0485
  415MOL0     C54660   2.456   4.957   2.640  0.4749  0.5703 -0.0746
  415MOL0     C54661   2.435   5.107   2.613  0.0481  0.4994 -0.2238
  415MOL0     C54662   2.296   5.153   2.648  0.4335 -0.1932  1.1431
  415MOL0     C54663   2.200   5.086   2.556  0.4437  0.7578  0.2119
  415MOL0     C54664   2.059   5.136   2.576  0.3159  0.3118  0.4829
  415MOL0     N54665   2.023   5.259   2.498  0.6333 -0.1134 -1.0776
  415MOL0     C54666   2.095   5.375   2.485 -0.1275 -1.0342  0.3145
  415MOL0     C54667   2.013   5.472   2.451  0.2696 -0.0371 -0.6874
  415MOL0     C54668   2.042   5.623   2.429  0.0264  0.3052 -0.8957
  415MOL0     C54669   1.931   5.712   2.374  0.0960  0.0049 -0.4665
  415MOL0     C54670   1.976   5.862   2.388  0.4378 -0.7997 -0.2898
  415MOL0     C54671   1.868   5.960   2.342  0.2876 -0.5914 -0.7236
  415MOL0     O54672   1.771   5.964   2.447  0.0587  0.2186 -0.0733
  415MOL0     C54673   1.644   5.995   2.403  0.1724  0.8567 -0.2108
  415MOL0     C54674   1.610   6.122   2.375 -0.4842  0.0595  0.5233
  415MOL0     C54675   1.479   6.168   2.353  0.3187  0.0707  0.1558
  415MOL0     C54676   1.374   6.072   2.367 -0.6129  0.3574  0.3728
  415MOL0     C54677   1.233   6.098   2.328 -0.1221 -0.1595 -0.4464
  415MOL0     O54678   1.135   6.031   2.404 -0.1913  0.3177  0.7318
  415MOL0     C54679   1.001   6.058   2.385 -0.1718 -0.0759  0.4167
  415MOL0     C54680   0.910   6.050   2.488 -1.4871 -0.1854  0.6827
  415MOL0     C54681   0.775   6.070   2.471  0.9696 -0.0362  0.2024
  415MOL0     C54682   0.716   6.101   2.343 -0.2890 -0.2352  0.1220
  415MOL0     O54683   0.581   6.123   2.319 -0.4665  0.5678 -0.4125
  415MOL0     C54684   0.524   6.116   2.191 -0.7705 -0.5351 -0.1674
  415MOL0     C54685   0.374   6.105   2.204 -0.0466 -1.4262  0.0397
  415MOL0     C54686   0.302   6.090   2.077  0.2625 -0.8091  0.7441
  415MOL0     C54687   0.150   6.068   2.088  1.1185 -0.0129  1.1525
  415MOL0     C54688   0.092   6.041   1.951  0.1914  0.8259 -0.9533
  415MOL0     C54689   0.121   5.908   1.893  0.5156 -0.1645 -0.2105
  415MOL0     C54690   0.032   5.876   1.762  0.4992  0.4306 -0.5974
  415MOL0     C54691   0.094   5.778   1.657 -0.0174  0.1154  1.0448
  415MOL0    Cl54692   0.253   5.835   1.604  0.1396  0.4315 -0.1628
  415MOL0     C54693   0.805   6.103   2.235 -1.0158  0.0556 -0.5932
  415MOL0     C54694   0.947   6.081   2.260 -0.4130 -0.6216 -0.3568
  415MOL0     O54695   1.215   6.204   2.254 -0.4511 -0.4178  0.6118
  415MOL0     C54696   1.414   5.939   2.388  0.1814 -0.0507 -1.0817
  415MOL0     C54697   1.541   5.897   2.410  0.9592  0.8037 -0.2966
  415MOL0     N54698   1.894   5.415   2.431  0.4045  0.4089  0.5583
  415MOL0     N54699   1.898   5.286   2.456  0.0037  0.0710  0.3039
  415MOL0     C54700   2.938   4.923   2.729  0.1882  0.5726  1.1095
  415MOL0     C54701   3.053   4.997   2.712  0.3026  0.1043 -0.0237
  415MOL0     C54702   3.503   5.045   2.735  0.5222 -0.2032 -0.0556
  415MOL0     C54703   3.538   5.138   2.836 -0.8263  0.0511 -0.1580
  415MOL0     C54704   3.673   5.185   2.857 -0.3136  0.9480  0.0539
  415MOL0     C54705   3.779   5.138   2.778  0.2867 -0.0780 -0.4278
  415MOL0     O54706   3.915   5.164   2.796 -1.1571 -0.0508  1.0723
  415MOL0     C54707   3.952   5.275   2.882 -0.5385  0.1382 -0.3901
  415MOL0     C54708   4.104   5.258   2.918 -0.0855 -0.9960  0.4206
  415MOL0     C54709   4.191   5.288   2.796 -0.5674 -0.1758  0.8256
  415MOL0     C54710   4.338   5.261   2.811  0.1676  0.7119  0.2602
  415MOL0     C54711   4.409   5.301   2.935  0.1670 -1.1167 -0.1720
  415MOL0     C54712   4.470   5.312   3.042  0.3044  0.2025 -0.0341
  415MOL0     C54713   3.741   5.048   2.678 -0.1502  0.2488 -0.4813
  415MOL0     C54714   3.607   5.003   2.653 -0.1930  0.6376  0.0844
  415MOL0     H54715   3.224   4.847   2.968 -2.9196 -3.0892  2.0790
  415MOL0     H54716   3.001   4.739   2.999  0.3582  3.0658  1.8587
  415MOL0     H54717   2.746   4.600   2.751  0.5678  0.9393  0.7545
  415MOL0     H54718   2.798   4.714   2.633  0.9435  1.9704  0.9289
  415MOL0     H54719   2.532   4.737   2.776 -2.2631  2.9046 -1.4965
  415MOL0     H54720   2.558   4.703   2.600 -2.1553  0.1589  0.0680
  415MOL0     H54721   2.659   4.925   2.560  2.3829 -0.2906  1.2870
  415MOL0     H54722   2.644   4.959   2.735  0.1037  0.2421 -0.2547
  415MOL0     H54723   2.411   4.890   2.565  0.4683 -0.6955  1.0124
  415MOL0     H54724   2.403   4.933   2.732 -2.5900 -2.1525 -2.2817
  415MOL0     H54725   2.461   5.132   2.509  2.2637  0.1284  0.1879
  415MOL0     H54726   2.514   5.157   2.670  0.1471  0.7271 -0.5548
  415MOL0     H54727   2.300   5.262   2.635 -1.6050 -0.0164  1.7364
  415MOL0     H54728   2.273   5.125   2.751 -0.6446 -2.5202  0.3387
  415MOL0     H54729   2.223   5.106   2.451 -2.1474  2.3278 -0.1602
  415MOL0     H54730   2.202   4.977   2.569  2.9923  0.5746 -1.0853
  415MOL0     H54731   2.036   5.160   2.680  1.0281  1.4213  0.4028
  415MOL0     H54732   1.992   5.055   2.547 -2.5380  2.7545 -0.2092
  415MOL0     H54733   2.198   5.377   2.520 -0.7415 -1.5350  2.3043
  415MOL0     H54734   2.130   5.623   2.363  0.7688 -0.0604  0.0615
  415MOL0     H54735   2.077   5.665   2.524 -0.0535 -1.2520 -0.1330
  415MOL0     H54736   1.833   5.693   2.419  0.7522  0.3113  1.1566
  415MOL0     H54737   1.920   5.691   2.268 -2.1730 -3.4586  0.2978
  415MOL0     H54738   1.993   5.873   2.495  2.2379 -1.9906 -0.4089
  415MOL0     H54739   2.073   5.888   2.347  1.5041 -2.5969  0.9391
  415MOL0     H54740   1.830   5.939   2.241  2.2083 -3.0999 -1.0429
  415MOL0     H54741   1.902   6.064   2.333 -2.8371  0.4703 -1.6773
  415MOL0     H54742   1.696   6.186   2.365 -0.1066 -0.7990 -3.2286
  415MOL0     H54743   1.452   6.265   2.314 -0.0204  0.8536  2.2091
  415MOL0     H54744   0.949   6.034   2.588 -2.8879  1.4190  1.5250
  415MOL0     H54745   0.707   6.072   2.556 -1.0794  2.5710 -1.3852
  415MOL0     H54746   0.554   6.036   2.121 -1.7819  1.1543 -2.6697
  415MOL0     H54747   0.545   6.213   2.144 -2.6169  0.1337  0.2970
  415MOL0     H54748   0.345   6.193   2.263 -1.9934 -1.1794 -1.2084
  415MOL0     H54749   0.339   6.019   2.262  0.9396 -0.5167  2.1072
  415MOL0     H54750   0.354   6.002   2.037 -1.6040 -1.7010  0.1618
  415MOL0     H54751   0.319   6.179   2.015  2.3197 -2.0374 -0.5730
  415MOL0     H54752   0.139   5.976   2.147  2.2713 -2.0659 -1.5590
  415MOL0     H54753   0.110   6.157   2.136 -2.1823  0.5270 -2.0963
  415MOL0     H54754   0.126   6.120   1.883 -0.9354  0.9137 -1.4429
  415MOL0     H54755  -0.017   6.038   1.959  0.1773 -1.3120 -1.4064
  415MOL0     H54756   0.094   5.842   1.976  0.2920  1.5831  1.1906
  415MOL0     H54757   0.227   5.892   1.872  0.2345 -0.3234 -1.5669
  415MOL0     H54758  -0.058   5.830   1.805  2.3720 -0.8862  2.1906
  415MOL0     H54759   0.013   5.971   1.711 -0.2022  1.2564  1.1179
  415MOL0     H54760   0.024   5.770   1.573 -1.1797  1.1039  1.8695
  415MOL0     H54761   0.105   5.679   1.701  2.5618 -0.0460  0.2108
  415MOL0     H54762   0.776   6.137   2.136 -1.9736  3.4405  0.6872
  415MOL0     H54763   1.012   6.088   2.173 -2.6362  2.9523 -1.9796
  415MOL0     H54764   1.330   5.872   2.398 -0.2196  0.7153  1.1109
  415MOL0     H54765   1.563   5.793   2.431  2.5200  1.2230  0.2484
  415MOL0     H54766   2.860   4.945   2.656  0.1299 -1.2529  0.5747
  415MOL0     H54767   3.074   5.067   2.632  1.7156 -1.0104 -0.6800
  415MOL0     H54768   3.455   5.193   2.880 -0.2287  2.8356 -2.2361
  415MOL0     H54769   3.692   5.265   2.928  2.0752  1.8487 -1.4596
  415MOL0     H54770   3.896   5.276   2.976 -0.2062  0.5709 -0.1955
  415MOL0     H54771   3.930   5.369   2.832  0.9921  0.9857  0.4620
  415MOL0     H54772   4.127   5.328   2.998 -0.5881 -1.7483  1.2495
  415MOL0     H54773   4.124   5.153   2.941 -1.7910 -1.3510  0.4351
  415MOL0     H54774   4.189   5.397   2.792 -0.9535 -0.1901  0.6469
  415MOL0     H54775   4.152   5.237   2.708  1.0068  1.2415 -0.7700
  415MOL0     H54776   4.356   5.154   2.798  1.0555  1.1181 -2.5902
  415MOL0     H54777   4.390   5.323   2.738  0.6084 -2.0788 -1.9525
  415MOL0     H54778   4.509   5.317   3.141  0.2191  1.2886 -0.0476
  415MOL0     H54779   3.827   5.013   2.622  0.9018  0.2829  1.0638
  415MOL0     H54780   3.588   4.945   2.563  2.6480 -0.5863  0.1432
  416MOL0     O54781   8.704   0.122   2.731 -0.3263  0.1299 -0.2933
  416MOL0     C54782   8.674   0.087   2.844 -0.3195  0.4855 -0.9892
  416MOL0     O54783   8.556   0.049   2.889 -0.0407  1.4889  0.2209
  416MOL0     C54784   8.448   0.014   2.814 -0.5578  0.1904 -0.2328
  416MOL0     C54785   8.341  -0.007   2.888 -0.4972 -0.0643 -0.9151
  416MOL0     C54786   8.215  -0.020   2.834  0.5168  1.1498 -0.7359
  416MOL0     C54787   8.201  -0.041   2.691 -0.8145 -0.7810  0.6543
  416MOL0     O54788   8.083  -0.065   2.625 -0.0156  0.0001 -0.3873
  416MOL0     C54789   8.006  -0.175   2.680 -0.1112  0.2335  0.3784
  416MOL0     C54790   7.909  -0.193   2.560  0.4164 -0.0988 -0.5967
  416MOL0     C54791   7.793  -0.283   2.592  1.0478 -1.0887  0.0273
  416MOL0     C54792   7.822  -0.424   2.637  0.4987  0.7427  0.3042
  416MOL0     C54793   7.696  -0.501   2.659  0.4878 -0.0870  0.6422
  416MOL0     C54794   7.729  -0.632   2.728 -0.2450  0.7122  0.2107
  416MOL0     C54795   7.591  -0.712   2.743  0.3638 -0.6553  0.2245
  416MOL0     C54796   7.593  -0.815   2.863 -0.4454 -0.0841  0.9008
  416MOL0     N54797   7.484  -0.904   2.867 -0.5049 -0.5266  0.0991
  416MOL0     C54798   7.453  -0.995   2.767  0.0709 -0.0930 -0.0149
  416MOL0     C54799   7.331  -1.041   2.805  0.5155  0.0976  0.5931
  416MOL0     C54800   7.251  -1.143   2.727  0.3266  0.3055 -0.6518
  416MOL0     C54801   7.132  -1.188   2.798 -0.1763  0.4699  0.2975
  416MOL0     C54802   7.005  -1.098   2.771  0.2624  0.6760  0.5849
  416MOL0     C54803   6.871  -1.162   2.817  0.5957  0.1361  1.8315
  416MOL0     O54804   6.823  -1.270   2.739  1.7745  0.6075  0.2373
  416MOL0     C54805   6.681  -1.297   2.756 -1.4936 -1.0340 -0.0166
  416MOL0     C54806   6.632  -1.372   2.656 -0.0325 -0.0610  0.8147
  416MOL0     C54807   6.500  -1.415   2.664 -0.3968 -0.2669 -0.0701
  416MOL0     C54808   6.410  -1.380   2.765 -0.0106  0.2638 -0.4077
  416MOL0     C54809   6.274  -1.430   2.765  0.4482  0.9475  0.3113
  416MOL0     O54810   6.211  -1.426   2.892  0.1808  0.1888 -0.6302
  416MOL0     C54811   6.082  -1.463   2.907 -0.3387 -0.0512 -0.4622
  416MOL0     C54812   5.981  -1.420   2.815  0.2711 -0.5059 -0.0446
  416MOL0     C54813   5.841  -1.447   2.844 -0.1086 -0.0140  0.8032
  416MOL0     C54814   5.804  -1.516   2.953 -0.5439 -0.6120 -0.0232
  416MOL0     O54815   5.662  -1.528   2.961 -0.8775 -0.3882  0.1417
  416MOL0     C54816   5.613  -1.589   3.083  0.1798 -0.1250  0.4576
  416MOL0     C54817   5.463  -1.596   3.055  0.4517  0.3200  0.6314
  416MOL0     C54818   5.398  -1.468   3.009  0.1407  0.4304 -0.1950
  416MOL0     C54819   5.382  -1.471   2.856  0.5763  0.4219  0.2447
  416MOL0     C54820   5.290  -1.363   2.800  0.6766  0.5159 -0.8906
  416MOL0     C54821   5.137  -1.402   2.802  0.7164  0.3377 -0.2507
  416MOL0     C54822   5.050  -1.281   2.767  1.0025  0.0778  0.4503
  416MOL0     C54823   4.910  -1.297   2.712 -0.3403  0.2469  0.3201
  416MOL0    Cl54824   4.930  -1.293   2.543 -0.2024 -0.3635  0.3804
  416MOL0     C54825   5.912  -1.561   3.033  0.3277 -0.5715  0.1050
  416MOL0     C54826   6.045  -1.527   3.022 -0.0193 -0.3368 -0.1480
  416MOL0     O54827   6.229  -1.485   2.665 -0.1839 -0.5163  0.4069
  416MOL0     C54828   6.467  -1.304   2.866  0.1257  0.2324  0.4823
  416MOL0     C54829   6.600  -1.260   2.863 -0.8919 -0.0467 -0.9647
  416MOL0     N54830   7.296  -0.979   2.927 -0.0994 -0.4119 -0.2875
  416MOL0     N54831   7.390  -0.901   2.967  0.3975 -0.2538 -0.0966
  416MOL0     C54832   8.319  -0.034   2.614  0.6497  0.2247  0.4818
  416MOL0     C54833   8.437  -0.000   2.675 -0.8621 -0.3132  0.0513
  416MOL0     C54834   8.784   0.097   2.947 -0.7790 -0.2063  0.1769
  416MOL0     C54835   8.772   0.039   3.066  0.0456 -0.2651  0.0647
  416MOL0     C54836   8.875   0.044   3.162 -0.2600 -0.0019 -0.7919
  416MOL0     C54837   8.995   0.105   3.128 -0.7352  0.0702  0.0866
  416MOL0     O54838   9.110   0.094   3.206  0.4935  0.0788 -0.2253
  416MOL0     C54839   9.210   0.006   3.156  0.2128 -0.4380  0.7095
  416MOL0     C54840   9.175  -0.140   3.182  0.1274 -1.2230  0.6702
  416MOL0     C54841   9.139  -0.151   3.328 -0.8801 -0.5984 -0.6643
  416MOL0     C54842   9.095  -0.296   3.353 -0.8803 -0.1836 -0.3754
  416MOL0     C54843   9.080  -0.312   3.500  0.0978  0.8011 -0.0337
  416MOL0     C54844   9.050  -0.318   3.619  0.3191 -0.6832 -0.9304
  416MOL0     C54845   9.008   0.173   3.007 -0.2538 -0.5299 -0.5496
  416MOL0     C54846   8.904   0.173   2.919  0.2562  0.2274 -0.2210
  416MOL0     H54847   8.363   0.010   2.993  3.7038  1.6858 -1.8772
  416MOL0     H54848   8.123  -0.020   2.892  0.1522 -0.8867 -1.2265
  416MOL0     H54849   7.953  -0.147   2.771 -1.5313  1.3203 -0.7423
  416MOL0     H54850   8.072  -0.261   2.699  1.3661  1.3951  0.7125
  416MOL0     H54851   7.973  -0.240   2.484  1.0689 -2.5117  1.3186
  416MOL0     H54852   7.873  -0.093   2.533 -2.0344 -1.7727 -4.2716
  416MOL0     H54853   7.743  -0.298   2.496  1.6876 -2.5301 -0.1089
  416MOL0     H54854   7.721  -0.231   2.657  1.1768  0.6005 -1.1121
  416MOL0     H54855   7.892  -0.470   2.566  0.8790 -0.6619  1.5339
  416MOL0     H54856   7.868  -0.416   2.736  0.5363  0.8924  0.2749
  416MOL0     H54857   7.645  -0.522   2.565  0.7224  3.2840 -0.3837
  416MOL0     H54858   7.616  -0.450   2.714 -0.1356  0.9713 -1.1507
  416MOL0     H54859   7.785  -0.616   2.821  3.3102 -3.0842 -0.9745
  416MOL0     H54860   7.791  -0.696   2.665  0.1030 -1.1336  2.2778
  416MOL0     H54861   7.507  -0.643   2.759  2.5303  1.8814  1.5618
  416MOL0     H54862   7.576  -0.760   2.646 -0.0481 -1.8649  0.8677
  416MOL0     H54863   7.593  -0.760   2.957 -0.5353  0.9728  0.3072
  416MOL0     H54864   7.680  -0.882   2.855 -0.1170  0.5170 -1.1851
  416MOL0     H54865   7.506  -1.024   2.677 -1.3681 -1.2806 -0.4965
  416MOL0     H54866   7.320  -1.227   2.710  0.2140 -0.1779  1.1030
  416MOL0     H54867   7.221  -1.106   2.629 -1.7185  0.9163  0.1576
  416MOL0     H54868   7.153  -1.183   2.905 -0.3487  1.2603  0.3012
  416MOL0     H54869   7.096  -1.288   2.774  1.6170  0.1259 -1.1845
  416MOL0     H54870   7.013  -1.006   2.830  1.8107  0.0475  1.4165
  416MOL0     H54871   7.000  -1.085   2.663 -2.7756  0.2256  0.5854
  416MOL0     H54872   6.802  -1.078   2.811  0.0662 -0.3219  1.3481
  416MOL0     H54873   6.875  -1.197   2.921  1.2854  1.2379  2.1960
  416MOL0     H54874   6.694  -1.398   2.571  2.8623 -0.2743  2.8641
  416MOL0     H54875   6.465  -1.488   2.591 -1.0201 -2.2862  2.1101
  416MOL0     H54876   6.004  -1.353   2.733 -4.0498 -0.6791 -1.6748
  416MOL0     H54877   5.768  -1.402   2.777  0.0717 -0.3867  0.3568
  416MOL0     H54878   5.646  -1.539   3.174 -2.0312 -0.9051  1.7431
  416MOL0     H54879   5.654  -1.691   3.087  0.0005 -0.2968 -1.1215
  416MOL0     H54880   5.414  -1.624   3.149 -0.1183 -1.8496 -0.2606
  416MOL0     H54881   5.439  -1.678   2.986  2.3299 -1.4762  1.9979
  416MOL0     H54882   5.450  -1.376   3.038 -0.3723  0.5943  0.2232
  416MOL0     H54883   5.298  -1.461   3.052 -0.0662 -1.0056 -0.3939
  416MOL0     H54884   5.484  -1.464   2.817  0.9223  4.2088  1.4921
  416MOL0     H54885   5.336  -1.568   2.833 -0.8702  1.0354  0.5081
  416MOL0     H54886   5.315  -1.348   2.694  1.9094 -1.8151 -1.0040
  416MOL0     H54887   5.323  -1.269   2.846  2.9132  0.4525 -2.2189
  416MOL0     H54888   5.117  -1.449   2.899  0.4487 -2.5350 -1.6103
  416MOL0     H54889   5.107  -1.483   2.735  1.1854 -1.6732  1.8357
  416MOL0     H54890   5.038  -1.224   2.859  0.5985 -0.0802  0.4983
  416MOL0     H54891   5.102  -1.217   2.695  0.4378 -0.3956 -0.3951
  416MOL0     H54892   4.837  -1.221   2.738 -1.0943 -0.5307  0.5274
  416MOL0     H54893   4.866  -1.394   2.738 -2.1531  1.1648  0.8245
  416MOL0     H54894   5.888  -1.627   3.116  2.8620 -2.5644 -0.6297
  416MOL0     H54895   6.127  -1.556   3.086  3.7282  1.2136 -3.7905
  416MOL0     H54896   6.406  -1.285   2.954  2.2923 -0.7436  2.2985
  416MOL0     H54897   6.639  -1.179   2.925 -1.2681  1.7242 -2.9172
  416MOL0     H54898   8.308  -0.046   2.507 -1.2638  2.8192  0.2995
  416MOL0     H54899   8.524   0.020   2.613  1.1859  0.2949  2.9356
  416MOL0     H54900   8.685  -0.019   3.096 -0.4082  0.7070  0.6796
  416MOL0     H54901   8.871  -0.020   3.250 -2.0721  0.7444 -0.2938
  416MOL0     H54902   9.300   0.028   3.214  0.5856  0.5339 -0.1905
  416MOL0     H54903   9.233   0.039   3.054 -0.1836  2.7371  1.5489
  416MOL0     H54904   9.096  -0.163   3.110  3.0178  0.1387 -3.2357
  416MOL0     H54905   9.260  -0.203   3.157  1.4714 -0.3838  2.8163
  416MOL0     H54906   9.045  -0.100   3.349 -2.8842 -4.0218 -0.6640
  416MOL0     H54907   9.219  -0.129   3.400 -0.6818 -1.0966 -0.7272
  416MOL0     H54908   8.998  -0.305   3.303 -1.4202  0.9087  0.4200
  416MOL0     H54909   9.178  -0.362   3.327  2.1034  2.7329  0.9966
  416MOL0     H54910   9.013  -0.329   3.719 -0.0190  1.5391 -0.7757
  416MOL0     H54911   9.099   0.229   2.990  1.6684 -1.5733  4.6239
  416MOL0     H54912   8.923   0.226   2.826  1.5774  1.7600  0.8809
  417MOL0     O54913   1.906   2.439   3.030  0.0840  0.1404  0.3490
  417MOL0     C54914   1.813   2.377   3.072  0.5036  0.7645  0.1670
  417MOL0     O54915   1.701   2.439   3.117 -0.2130 -0.4919 -1.0361
  417MOL0     C54916   1.683   2.572   3.093 -0.3244 -0.1381  0.4890
  417MOL0     C54917   1.650   2.628   2.972  0.2476 -0.2072  0.6204
  417MOL0     C54918   1.632   2.763   2.960  0.7691 -0.2925  0.6165
  417MOL0     C54919   1.650   2.850   3.072 -0.1510  1.6379  0.9563
  417MOL0     O54920   1.624   2.983   3.047  0.3504 -0.4472 -0.4039
  417MOL0     C54921   1.690   3.065   3.145  0.3650  0.3286 -0.4489
  417MOL0     C54922   1.686   3.208   3.086 -0.5579 -1.1653 -0.2843
  417MOL0     C54923   1.791   3.296   3.149  0.1437  0.0358 -0.0104
  417MOL0     C54924   1.933   3.271   3.106  0.8359 -0.8873  0.2366
  417MOL0     C54925   2.025   3.353   3.192  0.3524 -0.5703  0.0426
  417MOL0     C54926   2.035   3.298   3.333 -0.8858 -0.2534 -0.8467
  417MOL0     C54927   2.112   3.390   3.422 -0.6107 -0.7716  0.6214
  417MOL0     C54928   2.115   3.348   3.569  0.4292 -0.3136  0.0177
  417MOL0     N54929   2.194   3.228   3.575 -0.0868  0.5686 -0.4913
  417MOL0     C54930   2.332   3.225   3.556  1.2357 -0.2125  0.2921
  417MOL0     C54931   2.365   3.095   3.569  0.6683  0.7987 -0.9283
  417MOL0     C54932   2.496   3.037   3.532 -0.3082  0.1372  0.3230
  417MOL0     C54933   2.492   2.877   3.501  0.1282 -0.5800 -0.2484
  417MOL0     C54934   2.631   2.822   3.461  0.4614  0.1951 -0.9534
  417MOL0     C54935   2.646   2.839   3.313  1.1790  0.1295 -0.2284
  417MOL0     O54936   2.668   2.978   3.283  0.4344  0.0721 -0.1261
  417MOL0     C54937   2.791   3.037   3.299  0.0311 -0.4153  0.3997
  417MOL0     C54938   2.909   2.974   3.322 -1.2927 -0.2855 -0.2747
  417MOL0     C54939   3.034   3.041   3.330 -0.4309 -0.0048  0.5629
  417MOL0     C54940   3.032   3.181   3.332  0.4764 -0.7024  0.2146
  417MOL0     C54941   3.165   3.248   3.356  0.0097  0.6574 -0.5786
  417MOL0     O54942   3.267   3.169   3.365  0.0151  0.7460  0.0627
  417MOL0     C54943   3.401   3.209   3.359  0.3330 -0.3011  0.7093
  417MOL0     C54944   3.464   3.334   3.379  0.7283 -0.6296 -1.0801
  417MOL0     C54945   3.598   3.359   3.391 -0.3263  0.3201 -0.2093
  417MOL0     C54946   3.690   3.261   3.368  0.2556  0.1193 -0.2101
  417MOL0     O54947   3.828   3.261   3.381  0.5757 -0.2326 -0.0925
  417MOL0     C54948   3.870   3.385   3.427  0.5241 -0.1265  0.3723
  417MOL0     C54949   4.017   3.374   3.464  0.5965 -0.9476  0.6936
  417MOL0     C54950   4.102   3.299   3.355 -0.1036  0.0314 -0.6959
  417MOL0     C54951   4.085   3.350   3.214 -0.3869 -0.0695  0.0720
  417MOL0     C54952   4.141   3.487   3.185  0.0099 -0.0936  0.2705
  417MOL0     C54953   4.117   3.524   3.033  0.1140  0.5478 -0.0911
  417MOL0     C54954   4.117   3.674   2.997  0.4929 -0.1207  0.0345
  417MOL0     C54955   4.089   3.698   2.846 -0.3766 -0.0659 -0.3742
  417MOL0    Cl54956   4.221   3.636   2.739  0.0603  0.1067 -0.1362
  417MOL0     C54957   3.633   3.132   3.328 -0.7054  0.1670  0.3070
  417MOL0     C54958   3.490   3.102   3.333 -0.8285 -0.2122  0.2076
  417MOL0     O54959   3.172   3.373   3.357 -0.1549  0.6630  0.9135
  417MOL0     C54960   2.912   3.252   3.319  0.6708  0.5413 -0.5714
  417MOL0     C54961   2.793   3.178   3.293 -0.3128  0.4860  0.7722
  417MOL0     N54962   2.249   3.021   3.589  0.5314 -0.0309 -0.0855
  417MOL0     N54963   2.148   3.100   3.582  0.0578  0.2089 -0.4942
  417MOL0     C54964   1.675   2.788   3.193 -1.0220 -0.1360  0.7917
  417MOL0     C54965   1.691   2.650   3.202 -0.2505  0.5843 -0.2249
  417MOL0     C54966   1.830   2.231   3.097 -0.1398  0.1290  0.2289
  417MOL0     C54967   1.754   2.169   3.196  0.2311 -0.0592  0.2434
  417MOL0     C54968   1.743   2.032   3.198 -0.6729 -0.0594 -0.8596
  417MOL0     C54969   1.810   1.958   3.107 -0.1853  0.3905  0.0693
  417MOL0     O54970   1.812   1.817   3.113 -0.0269 -0.4557 -0.2281
  417MOL0     C54971   1.786   1.751   3.237 -0.1123 -0.9938  0.0394
  417MOL0     C54972   1.638   1.723   3.250  0.4588 -0.5173 -0.6178
  417MOL0     C54973   1.585   1.598   3.175  0.2360  0.2559  0.2507
  417MOL0     C54974   1.433   1.598   3.164  0.1827 -1.1133  0.1949
  417MOL0     C54975   1.353   1.607   3.286  0.0041  0.4601 -0.4836
  417MOL0     C54976   1.289   1.625   3.399 -0.6775  0.1630  0.5630
  417MOL0     C54977   1.879   2.023   3.001 -0.0369  0.8324  0.6754
  417MOL0     C54978   1.898   2.154   3.006  0.2292 -1.7608 -0.0221
  417MOL0     H54979   1.614   2.560   2.895 -0.3172  0.1200  0.5880
  417MOL0     H54980   1.610   2.807   2.863  1.3312  0.7225  0.9356
  417MOL0     H54981   1.790   3.028   3.167  0.1571 -0.4770 -0.8330
  417MOL0     H54982   1.633   3.066   3.239 -0.1929  1.4360 -0.7782
  417MOL0     H54983   1.588   3.255   3.106  0.5454  0.9380  0.5326
  417MOL0     H54984   1.695   3.198   2.977 -1.5508 -4.2051 -0.1909
  417MOL0     H54985   1.780   3.290   3.257  0.8706 -1.5053  0.0075
  417MOL0     H54986   1.773   3.402   3.129 -0.4995  0.7700  3.7964
  417MOL0     H54987   1.957   3.164   3.108 -1.6298 -1.5089  1.0446
  417MOL0     H54988   1.941   3.318   3.008 -1.0945  0.7786  0.7942
  417MOL0     H54989   1.987   3.456   3.187  2.0385  0.0317 -4.2209
  417MOL0     H54990   2.130   3.357   3.160  1.0591  0.6808  2.2519
  417MOL0     H54991   2.094   3.209   3.313 -2.4723 -1.6328  0.2864
  417MOL0     H54992   1.933   3.274   3.366 -1.9080  0.9052 -2.9371
  417MOL0     H54993   2.211   3.406   3.379 -0.7783  2.0725  1.0505
  417MOL0     H54994   2.073   3.493   3.418 -1.3925 -1.0843 -2.0492
  417MOL0     H54995   2.014   3.323   3.603  0.1294 -2.3071 -2.0240
  417MOL0     H54996   2.149   3.433   3.629 -0.5306  0.5056 -0.5773
  417MOL0     H54997   2.392   3.308   3.520 -0.8396  0.8096 -1.0537
  417MOL0     H54998   2.576   3.060   3.602  2.3285 -0.4040 -2.3009
  417MOL0     H54999   2.526   3.092   3.442 -0.5633  0.2620  0.3145
  417MOL0     H55000   2.423   2.859   3.418  3.2995  1.8140 -3.7439
  417MOL0     H55001   2.461   2.825   3.592 -0.3653 -1.7284 -1.0576
  417MOL0     H55002   2.710   2.883   3.506 -0.7106  2.1935 -1.4717
  417MOL0     H55003   2.647   2.715   3.480 -0.4343 -0.3287 -2.9150
  417MOL0     H55004   2.554   2.808   3.264  1.8954 -1.8057 -0.4558
  417MOL0     H55005   2.728   2.778   3.273  1.6982 -0.7614  2.0567
  417MOL0     H55006   2.917   2.867   3.343  1.7608  0.0872  1.1308
  417MOL0     H55007   3.125   2.984   3.337 -0.1118  0.5773  1.2425
  417MOL0     H55008   3.403   3.417   3.413 -0.1700 -2.0207  0.8474
  417MOL0     H55009   3.622   3.454   3.438 -0.2062  0.0497  0.2898
  417MOL0     H55010   3.814   3.424   3.512  0.7932  2.1442 -0.4359
  417MOL0     H55011   3.864   3.458   3.346 -3.1638 -0.2874  0.3566
  417MOL0     H55012   4.025   3.319   3.559  0.6868 -0.2801  1.0751
  417MOL0     H55013   4.056   3.475   3.470  0.6859 -0.8201 -1.3277
  417MOL0     H55014   4.075   3.194   3.358 -0.5454  0.1517 -0.4472
  417MOL0     H55015   4.206   3.315   3.385  0.0925 -1.2527 -0.6346
  417MOL0     H55016   4.143   3.284   3.149  1.5143  0.2418  1.3640
  417MOL0     H55017   3.982   3.349   3.176 -0.5516 -3.1575  0.3662
  417MOL0     H55018   4.247   3.485   3.210  0.5416 -1.8191 -1.7518
  417MOL0     H55019   4.077   3.555   3.242 -0.0430  0.1673 -0.0964
  417MOL0     H55020   4.022   3.490   2.993  0.5700  0.0905 -0.8141
  417MOL0     H55021   4.190   3.466   2.976 -0.1419  2.0876 -2.0721
  417MOL0     H55022   4.037   3.724   3.053 -0.8843 -0.6717 -1.3690
  417MOL0     H55023   4.213   3.716   3.029  0.5496 -1.8478  2.4012
  417MOL0     H55024   4.084   3.803   2.817  0.6355 -0.0135 -0.4121
  417MOL0     H55025   3.993   3.650   2.826 -2.4059  2.4487  2.4798
  417MOL0     H55026   3.704   3.053   3.306  0.9020  1.6901 -0.1284
  417MOL0     H55027   3.439   3.009   3.310 -2.3368  1.1566 -2.4201
  417MOL0     H55028   2.907   3.361   3.321 -0.1554  0.6004  3.7919
  417MOL0     H55029   2.694   3.223   3.282  0.1362  1.1732 -0.6217
  417MOL0     H55030   1.685   2.846   3.284 -3.1207  1.1187  0.2742
  417MOL0     H55031   1.702   2.602   3.298 -0.4684  2.3878  0.7509
  417MOL0     H55032   1.696   2.239   3.256  0.4036  1.6512 -1.4780
  417MOL0     H55033   1.683   1.971   3.265 -0.3130  1.3339  0.8077
  417MOL0     H55034   1.816   1.814   3.321  1.3336  1.4469 -2.1599
  417MOL0     H55035   1.844   1.659   3.247 -1.7916 -2.1882 -0.7695
  417MOL0     H55036   1.621   1.712   3.358 -0.6354 -1.7871 -0.8993
  417MOL0     H55037   1.577   1.801   3.206  1.5813 -0.8442 -2.8865
  417MOL0     H55038   1.621   1.509   3.228 -0.5966  0.5514  1.3401
  417MOL0     H55039   1.623   1.592   3.073 -1.1095  0.5226 -0.2844
  417MOL0     H55040   1.419   1.685   3.099 -1.6637 -0.6077  1.1806
  417MOL0     H55041   1.389   1.512   3.111 -2.2893  0.6929 -0.9294
  417MOL0     H55042   1.233   1.644   3.488 -1.4253 -2.0212  0.6250
  417MOL0     H55043   1.911   1.965   2.915  1.6583 -1.5654  2.7717
  417MOL0     H55044   1.953   2.200   2.925  1.2566 -0.5758  1.3003
  418MOL0     O55045   2.603   3.121   1.895  0.2376  0.0307 -0.4776
  418MOL0     C55046   2.650   3.088   2.003  0.4415  0.3810  0.0449
  418MOL0     O55047   2.570   3.043   2.108  0.0461 -0.1471  0.5866
  418MOL0     C55048   2.435   3.045   2.099  0.0214  0.2927 -0.3594
  418MOL0     C55049   2.367   2.936   2.152  0.0608  0.4395  0.2270
  418MOL0     C55050   2.230   2.930   2.139 -0.8897 -0.4052  0.0175
  418MOL0     C55051   2.154   3.034   2.087 -0.3566  0.5407  0.7910
  418MOL0     O55052   2.018   3.023   2.081  0.0710  0.1768  0.1824
  418MOL0     C55053   1.957   3.078   1.971 -0.6733 -1.8521  1.3104
  418MOL0     C55054   1.816   3.023   1.967  0.6010 -0.4637  0.8841
  418MOL0     C55055   1.724   3.062   1.850  0.0974  0.1091  0.3953
  418MOL0     C55056   1.646   3.188   1.868  0.4203  0.1934  0.0751
  418MOL0     C55057   1.560   3.220   1.744 -1.3219 -0.0854 -0.7003
  418MOL0     C55058   1.433   3.134   1.741  0.2067  0.6624 -0.0070
  418MOL0     C55059   1.427   3.036   1.620 -0.1590 -0.7333 -0.4025
  418MOL0     C55060   1.430   3.104   1.479  0.6542  0.5390  0.0928
  418MOL0     N55061   1.318   3.190   1.443  0.1993  0.2864  0.5522
  418MOL0     C55062   1.187   3.165   1.466 -0.5508  0.4024  0.7737
  418MOL0     C55063   1.135   3.288   1.455 -0.0830 -0.1910 -0.2850
  418MOL0     C55064   0.991   3.320   1.485 -0.0702  0.1264 -0.6049
  418MOL0     C55065   0.986   3.421   1.610 -0.0256  0.7842 -0.3824
  418MOL0     C55066   0.983   3.349   1.741 -0.1366 -0.5177  0.4371
  418MOL0     C55067   0.839   3.295   1.780  1.0958 -0.0125  0.7201
  418MOL0     O55068   0.789   3.196   1.697  0.4561  0.0118  0.2869
  418MOL0     C55069   0.652   3.176   1.679 -0.2795 -0.6010  0.0570
  418MOL0     C55070   0.609   3.114   1.568 -0.7632 -0.1396 -0.7275
  418MOL0     C55071   0.478   3.121   1.523 -0.0637 -0.8371  0.0667
  418MOL0     C55072   0.370   3.186   1.603 -0.3664  0.2419  0.2312
  418MOL0     C55073   0.224   3.189   1.571 -0.5885  0.6581 -0.3928
  418MOL0     O55074   0.131   3.235   1.659  0.3260 -0.7951 -0.3172
  418MOL0     C55075   0.001   3.259   1.623 -0.0045 -0.2516 -0.7018
  418MOL0     C55076  -0.078   3.162   1.559 -0.3170  0.2446 -0.5123
  418MOL0     C55077  -0.216   3.192   1.526 -0.1937 -0.2158 -0.0924
  418MOL0     C55078  -0.274   3.315   1.555  0.6253 -0.2624 -0.4476
  418MOL0     O55079  -0.413   3.328   1.531  0.2207 -0.3924 -0.3320
  418MOL0     C55080  -0.478   3.431   1.609 -0.4946  1.0303  0.1079
  418MOL0     C55081  -0.625   3.415   1.571 -0.3012 -0.2013  0.3808
  418MOL0     C55082  -0.703   3.507   1.674  0.4668  0.7115 -0.0691
  418MOL0     C55083  -0.855   3.500   1.643 -0.0459 -1.0049  0.1881
  418MOL0     C55084  -0.920   3.613   1.716 -0.4308  0.8501 -0.5729
  418MOL0     C55085  -1.070   3.591   1.705  0.4623  0.1006  0.8413
  418MOL0     C55086  -1.142   3.631   1.841  0.0563  0.0327 -0.1084
  418MOL0     C55087  -1.132   3.777   1.869  0.1405 -0.2740  0.1590
  418MOL0    Cl55088  -1.188   3.816   2.028  0.0095 -0.0994 -0.5230
  418MOL0     C55089  -0.189   3.413   1.621 -1.0750  0.3662 -0.0546
  418MOL0     C55090  -0.059   3.380   1.656  1.0627  0.0889 -0.6729
  418MOL0     O55091   0.201   3.148   1.457 -0.1888 -0.2197 -0.5245
  418MOL0     C55092   0.421   3.249   1.721  0.2896 -0.6267 -0.0860
  418MOL0     C55093   0.553   3.237   1.765 -0.4012 -0.2968 -0.0054
  418MOL0     N55094   1.225   3.377   1.394 -0.1430  0.1457 -0.5489
  418MOL0     N55095   1.330   3.313   1.389 -0.6502  0.3836  0.1399
  418MOL0     C55096   2.221   3.149   2.035 -0.4898  0.6118  0.3878
  418MOL0     C55097   2.359   3.152   2.045  1.0188  0.3837  0.1525
  418MOL0     C55098   2.794   3.113   2.024 -0.0458  0.9020  0.3460
  418MOL0     C55099   2.856   3.149   2.149  0.3649  0.5676  0.7970
  418MOL0     C55100   2.992   3.150   2.164  0.2984 -0.8640  0.4132
  418MOL0     C55101   3.080   3.118   2.059 -0.5982  0.4823  0.5746
  418MOL0     O55102   3.212   3.101   2.073 -0.0736 -1.4866 -0.3056
  418MOL0     C55103   3.272   3.057   2.198  0.1214  0.4114 -0.3789
  418MOL0     C55104   3.408   2.997   2.166  0.3915 -0.1562  0.6099
  418MOL0     C55105   3.508   3.111   2.166  0.2396  0.2888 -0.4091
  418MOL0     C55106   3.646   3.070   2.119 -1.4895  0.2103  0.4714
  418MOL0     C55107   3.713   2.979   2.211 -0.3495 -0.5182 -0.8544
  418MOL0     C55108   3.767   2.892   2.277 -0.6589  0.3001 -0.5997
  418MOL0     C55109   3.020   3.092   1.934  0.5808  0.0882  0.0492
  418MOL0     C55110   2.879   3.090   1.912  0.6617  0.5511  0.3466
  418MOL0     H55111   2.430   2.855   2.188  1.7643 -0.0021 -3.3159
  418MOL0     H55112   2.182   2.847   2.190  2.4566 -2.9246 -0.5670
  418MOL0     H55113   2.002   3.048   1.876  0.2007  0.2311  1.0271
  418MOL0     H55114   1.959   3.186   1.985 -0.8925 -1.4625 -1.2427
  418MOL0     H55115   1.780   3.022   2.070  1.8373 -0.5209  1.3398
  418MOL0     H55116   1.825   2.914   1.962 -1.5662 -0.6383 -0.5320
  418MOL0     H55117   1.653   2.980   1.837 -1.6124  1.5053  0.3923
  418MOL0     H55118   1.780   3.061   1.757 -0.3300 -2.2638  0.1040
  418MOL0     H55119   1.577   3.178   1.952  1.5596  2.8864  1.4370
  418MOL0     H55120   1.710   3.267   1.909  0.9441 -1.2475  2.1765
  418MOL0     H55121   1.622   3.219   1.654  2.9630  2.0093  1.9121
  418MOL0     H55122   1.520   3.321   1.756  1.9930  1.0592  2.4164
  418MOL0     H55123   1.338   3.189   1.735 -1.9612 -2.8859 -1.0847
  418MOL0     H55124   1.432   3.069   1.828  1.8088  1.3372  0.5420
  418MOL0     H55125   1.516   2.974   1.632 -0.8226 -1.4300  1.2839
  418MOL0     H55126   1.336   2.974   1.618 -2.1185  1.9447 -0.0680
  418MOL0     H55127   1.434   3.019   1.410  1.1254  0.4929  0.1733
  418MOL0     H55128   1.521   3.165   1.473  2.3092 -1.3083  3.2478
  418MOL0     H55129   1.136   3.078   1.505 -1.1403  0.0146 -0.7947
  418MOL0     H55130   0.944   3.226   1.516  1.4456 -0.5555 -0.2870
  418MOL0     H55131   0.946   3.374   1.401 -1.5426  3.0092  1.8366
  418MOL0     H55132   0.902   3.487   1.592 -0.7947 -1.0388 -4.4817
  418MOL0     H55133   1.077   3.482   1.608  1.2188 -0.9313  0.5053
  418MOL0     H55134   1.058   3.270   1.730 -0.9633 -1.1179 -1.3087
  418MOL0     H55135   1.016   3.411   1.824 -1.2460 -1.2054  1.4297
  418MOL0     H55136   0.778   3.385   1.769  1.2260 -0.1000 -1.0092
  418MOL0     H55137   0.834   3.251   1.880  3.3135 -1.1368  0.3981
  418MOL0     H55138   0.690   3.079   1.504 -0.9628 -0.4700 -0.8010
  418MOL0     H55139   0.451   3.093   1.422 -2.8443 -2.0469  1.0451
  418MOL0     H55140  -0.035   3.064   1.543 -0.8469 -0.8552  3.6774
  418MOL0     H55141  -0.278   3.119   1.475 -3.1390  2.7750 -1.1293
  418MOL0     H55142  -0.444   3.529   1.574 -0.6781  0.3894 -1.9868
  418MOL0     H55143  -0.456   3.427   1.716 -0.7368 -1.2737  0.1141
  418MOL0     H55144  -0.665   3.315   1.590 -1.9168  0.0143 -1.5865
  418MOL0     H55145  -0.644   3.450   1.469  0.3990  0.0059  0.3122
  418MOL0     H55146  -0.663   3.609   1.675 -0.3817  1.0580  0.4589
  418MOL0     H55147  -0.688   3.467   1.775  1.4326  1.4680  0.1018
  418MOL0     H55148  -0.878   3.513   1.537  0.7660  0.2099  0.1378
  418MOL0     H55149  -0.892   3.399   1.663 -3.5397  0.0151 -0.4675
  418MOL0     H55150  -0.894   3.707   1.667  0.6771  1.8509  1.8190
  418MOL0     H55151  -0.887   3.619   1.820 -0.8335  1.0292 -0.4536
  418MOL0     H55152  -1.101   3.488   1.690 -1.0510  0.6369  0.1581
  418MOL0     H55153  -1.113   3.651   1.624  3.1539  1.0057 -0.0457
  418MOL0     H55154  -1.246   3.600   1.854 -0.6663  1.8054 -1.2420
  418MOL0     H55155  -1.095   3.575   1.922  0.7465  1.3331  0.4162
  418MOL0     H55156  -1.189   3.833   1.794  2.2560 -0.0591 -1.3722
  418MOL0     H55157  -1.025   3.797   1.859 -0.0551  0.2585 -0.9518
  418MOL0     H55158  -0.228   3.511   1.643 -0.6086  0.3389  0.9401
  418MOL0     H55159  -0.001   3.452   1.713  0.7759  0.8618 -1.3394
  418MOL0     H55160   0.347   3.299   1.782  0.1713 -2.1988  1.1257
  418MOL0     H55161   0.590   3.286   1.855 -1.3075  2.8080 -1.2258
  418MOL0     H55162   2.165   3.235   1.999 -0.9276 -0.4689 -1.6378
  418MOL0     H55163   2.405   3.244   2.011 -1.3763  2.0240  1.0666
  418MOL0     H55164   2.780   3.171   2.223 -3.1854 -2.3129 -1.6109
  418MOL0     H55165   3.041   3.186   2.254  0.6206  0.3846 -0.2433
  418MOL0     H55166   3.205   2.986   2.247  1.9128 -0.0557  1.5293
  418MOL0     H55167   3.289   3.141   2.266 -0.0314 -0.3462  0.6213
  418MOL0     H55168   3.420   2.916   2.238 -0.7461 -1.3952 -0.5243
  418MOL0     H55169   3.399   2.962   2.063  0.5514  2.6437 -0.4216
  418MOL0     H55170   3.502   3.152   2.267 -4.1096  0.9487 -0.7474
  418MOL0     H55171   3.491   3.187   2.090  2.8494  1.0923 -0.3063
  418MOL0     H55172   3.651   3.024   2.020  0.4371  0.9723  0.1815
  418MOL0     H55173   3.712   3.157   2.109  0.2712 -1.0813  0.3595
  418MOL0     H55174   3.819   2.809   2.321 -1.0003 -0.6538 -1.8987
  418MOL0     H55175   3.082   3.075   1.846  1.9477  1.0287  0.7980
  418MOL0     H55176   2.830   3.044   1.827 -2.1305  3.6212  0.1384
  419MOL0     O55177   5.369   6.156   2.447  0.3757  0.4865  0.1699
  419MOL0     C55178   5.321   6.168   2.559 -0.7665  1.0812 -0.3470
  419MOL0     O55179   5.385   6.212   2.673  0.6222  0.2337  0.2545
  419MOL0     C55180   5.507   6.166   2.709  0.9831  1.1098 -0.6411
  419MOL0     C55181   5.587   6.238   2.791 -0.2607 -0.1602 -0.6600
  419MOL0     C55182   5.697   6.185   2.857  0.1388  0.1417 -0.2898
  419MOL0     C55183   5.735   6.053   2.840  0.0470 -0.2306 -0.1974
  419MOL0     O55184   5.838   6.010   2.920  0.1244  0.6383 -0.8411
  419MOL0     C55185   5.910   5.889   2.897  0.5024 -0.5487 -0.3430
  419MOL0     C55186   6.058   5.914   2.845  0.0118  0.1383  0.1252
  419MOL0     C55187   6.044   5.950   2.696  0.6828 -0.0687  0.6922
  419MOL0     C55188   6.173   6.008   2.634 -0.3271  0.7320  0.4196
  419MOL0     C55189   6.209   5.932   2.506  1.1930  0.6584  0.4810
  419MOL0     C55190   6.303   5.818   2.547  0.0872  0.1925  0.4453
  419MOL0     C55191   6.362   5.760   2.416 -0.8957 -0.4818 -0.0601
  419MOL0     C55192   6.407   5.612   2.443  0.1549 -1.1368 -0.4347
  419MOL0     N55193   6.461   5.558   2.321  0.2752  0.4477  0.4715
  419MOL0     C55194   6.559   5.607   2.245  0.0388 -0.1480 -0.3286
  419MOL0     C55195   6.593   5.521   2.148  0.2065  0.3349  0.0194
  419MOL0     C55196   6.696   5.537   2.042 -0.2261 -0.1578  0.5856
  419MOL0     C55197   6.685   5.448   1.910 -0.9979 -0.3728  0.2019
  419MOL0     C55198   6.585   5.533   1.811 -0.3133 -0.5441  0.5627
  419MOL0     C55199   6.446   5.541   1.867 -0.2764 -0.9616 -0.6649
  419MOL0     O55200   6.381   5.614   1.762 -0.3809  0.3453 -0.1197
  419MOL0     C55201   6.256   5.579   1.742  0.3875 -0.4519 -0.7725
  419MOL0     C55202   6.157   5.674   1.743 -0.2416  0.2108 -0.0218
  419MOL0     C55203   6.026   5.642   1.715 -0.1699  0.1916  1.2760
  419MOL0     C55204   5.994   5.515   1.662  0.3918 -0.0155  0.0814
  419MOL0     C55205   5.865   5.482   1.609  0.1477  0.4420  0.0350
  419MOL0     O55206   5.823   5.351   1.615 -0.2540  0.3582 -0.0705
  419MOL0     C55207   5.706   5.312   1.557  0.4192  0.8252  0.1729
  419MOL0     C55208   5.681   5.347   1.419  0.3856 -0.0934 -0.0381
  419MOL0     C55209   5.561   5.316   1.353  0.9923 -0.0954  0.2914
  419MOL0     C55210   5.465   5.245   1.426 -0.0800  0.2065  0.4859
  419MOL0     O55211   5.347   5.208   1.360  0.4785  0.2418 -0.0549
  419MOL0     C55212   5.225   5.213   1.437 -0.5014  0.0352  0.4681
  419MOL0     C55213   5.122   5.261   1.339  0.8266 -0.2071 -0.0234
  419MOL0     C55214   5.141   5.400   1.291 -0.3502 -0.7990  0.0139
  419MOL0     C55215   5.003   5.464   1.261 -0.5186 -0.3314  0.1847
  419MOL0     C55216   4.914   5.396   1.155 -0.1400 -0.3550  0.4554
  419MOL0     C55217   4.794   5.482   1.117  0.2781 -0.7590 -0.0195
  419MOL0     C55218   4.676   5.477   1.224 -0.5378 -0.1168  0.1607
  419MOL0     C55219   4.562   5.567   1.184  0.0676 -0.0083 -0.2119
  419MOL0    Cl55220   4.502   5.524   1.015  0.0139 -0.3123 -0.0230
  419MOL0     C55221   5.484   5.201   1.558  0.6572  0.3941 -0.4636
  419MOL0     C55222   5.604   5.242   1.623  0.0029  0.1362 -1.1323
  419MOL0     O55223   5.796   5.581   1.575  0.0638  0.2217  0.0269
  419MOL0     C55224   6.098   5.424   1.646  0.2293  1.0161 -0.4662
  419MOL0     C55225   6.228   5.449   1.684 -0.5453 -1.0619 -0.1900
  419MOL0     N55226   6.494   5.421   2.159 -0.0805  0.1407  0.1368
  419MOL0     N55227   6.427   5.440   2.261  0.5197 -0.1007 -0.9340
  419MOL0     C55228   5.652   5.975   2.757 -0.0611 -0.5989 -0.0792
  419MOL0     C55229   5.539   6.033   2.688 -0.1829  0.6304  0.2362
  419MOL0     C55230   5.182   6.139   2.560  0.6276  0.0497 -0.0471
  419MOL0     C55231   5.104   6.179   2.670 -0.2164  0.4474 -0.2379
  419MOL0     C55232   4.962   6.154   2.661  0.1409  0.1095 -0.3462
  419MOL0     C55233   4.895   6.091   2.557 -0.0615 -0.4442 -0.6362
  419MOL0     O55234   4.761   6.070   2.564  0.5313 -0.1177  0.0227
  419MOL0     C55235   4.716   5.967   2.651  1.0965 -0.7889  0.3990
  419MOL0     C55236   4.562   5.984   2.658  0.0062 -0.1859  0.4404
  419MOL0     C55237   4.504   5.846   2.679 -0.1327 -0.2439  0.6429
  419MOL0     C55238   4.480   5.776   2.540 -0.6706 -0.9564 -0.4658
  419MOL0     C55239   4.404   5.651   2.561  0.1131  0.1238  0.4717
  419MOL0     C55240   4.333   5.549   2.568 -0.6387  1.1049 -0.1619
  419MOL0     C55241   4.971   6.050   2.448 -0.0076 -0.7530  0.1966
  419MOL0     C55242   5.103   6.079   2.448 -1.3156  0.3403 -0.8599
  419MOL0     H55243   5.558   6.336   2.828  0.8942  0.7792 -2.0737
  419MOL0     H55244   5.763   6.246   2.917  1.4771 -1.4749 -0.0485
  419MOL0     H55245   5.852   5.825   2.829 -3.1609  0.3374  1.6675
  419MOL0     H55246   5.908   5.846   2.997  1.1565  4.1240  1.9626
  419MOL0     H55247   6.127   5.830   2.857 -1.2047 -1.2225 -1.7568
  419MOL0     H55248   6.094   5.998   2.905 -2.1947  1.5962 -0.4353
  419MOL0     H55249   5.971   6.032   2.700  3.1499  2.4194 -1.5442
  419MOL0     H55250   5.994   5.875   2.635 -1.6523  0.8879  1.3010
  419MOL0     H55251   6.155   6.114   2.615 -1.5882  0.6412  1.0004
  419MOL0     H55252   6.256   6.003   2.706  0.6245 -0.0247 -0.6740
  419MOL0     H55253   6.275   5.992   2.442  1.1335 -0.5944 -0.8307
  419MOL0     H55254   6.126   5.901   2.441  1.6234 -2.0306  1.0686
  419MOL0     H55255   6.243   5.743   2.600 -1.7358 -0.2128 -2.0240
  419MOL0     H55256   6.387   5.847   2.611 -1.0767 -0.1430  2.2068
  419MOL0     H55257   6.284   5.766   2.339 -1.8728  1.1971  1.0089
  419MOL0     H55258   6.443   5.816   2.369 -0.6437  0.1814  1.1310
  419MOL0     H55259   6.313   5.566   2.475 -0.5139  1.5367  1.8484
  419MOL0     H55260   6.474   5.619   2.529 -1.3135  2.1995  0.5947
  419MOL0     H55261   6.609   5.702   2.265  0.2486 -0.4700  0.7074
  419MOL0     H55262   6.797   5.512   2.076  0.9113 -0.0533 -2.3976
  419MOL0     H55263   6.706   5.643   2.018  0.2728 -0.2115  0.5474
  419MOL0     H55264   6.656   5.344   1.929 -1.6195 -0.7105 -2.1922
  419MOL0     H55265   6.780   5.433   1.860 -1.0915 -0.9610  0.1883
  419MOL0     H55266   6.632   5.630   1.792  3.0785 -2.1731 -0.2858
  419MOL0     H55267   6.574   5.499   1.707 -2.9591  1.6797  0.0289
  419MOL0     H55268   6.451   5.593   1.963  3.1418 -0.6829 -0.8779
  419MOL0     H55269   6.398   5.446   1.892  1.8203 -1.9638 -0.1965
  419MOL0     H55270   6.181   5.777   1.767 -2.3806  1.6785 -3.4103
  419MOL0     H55271   5.958   5.726   1.719 -2.0433 -1.1976  0.4446
  419MOL0     H55272   5.760   5.405   1.373  2.5550 -1.0199  2.2802
  419MOL0     H55273   5.540   5.347   1.251 -0.5051  0.3548  0.7099
  419MOL0     H55274   5.231   5.288   1.516  1.3488  2.7818 -2.0548
  419MOL0     H55275   5.186   5.115   1.466 -0.8319 -0.2562 -0.8936
  419MOL0     H55276   5.027   5.259   1.392  0.7633  0.3504 -0.1088
  419MOL0     H55277   5.137   5.190   1.256  1.2319  1.8289 -1.7805
  419MOL0     H55278   5.189   5.413   1.193 -1.4687 -2.3435 -0.7760
  419MOL0     H55279   5.193   5.454   1.370  0.0014 -2.0398  0.6464
  419MOL0     H55280   4.945   5.456   1.354 -2.6574 -3.2209 -1.2490
  419MOL0     H55281   5.028   5.567   1.234  0.9254 -1.1131 -1.6972
  419MOL0     H55282   4.891   5.293   1.182 -2.4231  0.0674  0.3293
  419MOL0     H55283   4.980   5.389   1.067  0.4861  1.0021  0.7874
  419MOL0     H55284   4.766   5.446   1.017  2.0390  2.3515 -1.7801
  419MOL0     H55285   4.837   5.582   1.114  1.4363 -1.2443 -0.0433
  419MOL0     H55286   4.631   5.377   1.232 -0.8712  0.1119  1.3167
  419MOL0     H55287   4.726   5.497   1.319  1.6290 -2.3358 -0.3956
  419MOL0     H55288   4.588   5.673   1.182 -1.0140  0.2641 -0.6319
  419MOL0     H55289   4.485   5.554   1.261 -0.1621 -1.0515 -0.5916
  419MOL0     H55290   5.408   5.146   1.611  0.5549 -0.6838 -1.6935
  419MOL0     H55291   5.619   5.208   1.725  1.0670 -0.0886 -1.3498
  419MOL0     H55292   6.064   5.327   1.611 -1.1751  0.8595  1.1544
  419MOL0     H55293   6.311   5.379   1.677  0.8039  0.6380 -1.9099
  419MOL0     H55294   5.664   5.868   2.742 -1.7368 -0.6930 -1.0356
  419MOL0     H55295   5.460   5.974   2.642  0.3854  2.3571 -3.2490
  419MOL0     H55296   5.147   6.220   2.761 -0.6936  0.7576 -0.1454
  419MOL0     H55297   4.895   6.178   2.743  1.0599 -1.6687  1.0203
  419MOL0     H55298   4.762   5.965   2.750  1.3730 -0.9205  0.2700
  419MOL0     H55299   4.732   5.873   2.598  0.3021 -0.3439 -0.6727
  419MOL0     H55300   4.526   6.054   2.734  1.3105 -0.6159  1.4839
  419MOL0     H55301   4.524   6.023   2.562  1.2801  1.6836  0.6359
  419MOL0     H55302   4.411   5.843   2.737  0.1609 -2.9838  1.1370
  419MOL0     H55303   4.561   5.784   2.749  1.8783  0.7586 -0.0627
  419MOL0     H55304   4.431   5.839   2.465  1.2909 -1.2077 -2.0452
  419MOL0     H55305   4.574   5.755   2.488  1.0663  3.5882  0.3957
  419MOL0     H55306   4.258   5.474   2.581 -0.8708  1.3884  0.1415
  419MOL0     H55307   4.919   6.008   2.363  0.7152 -3.4186  0.9875
  419MOL0     H55308   5.162   6.069   2.358  2.2844 -1.5037  1.4834
  420MOL0     O55309   0.698   4.599   9.649  0.0925 -0.3242 -0.7730
  420MOL0     C55310   0.785   4.512   9.690  0.7088 -0.5800 -0.5968
  420MOL0     O55311   0.754   4.374   9.685 -0.1611  0.4292 -0.6521
  420MOL0     C55312   0.646   4.310   9.636  0.1292  0.5723 -0.2883
  420MOL0     C55313   0.515   4.359   9.647  0.7281 -0.2522 -0.2303
  420MOL0     C55314   0.408   4.291   9.599 -0.6468 -0.7982  0.7798
  420MOL0     C55315   0.421   4.166   9.538  0.2555  0.2239  0.4568
  420MOL0     O55316   0.318   4.081   9.487 -0.1137 -0.0882  0.2471
  420MOL0     C55317   0.187   4.129   9.511  0.0892 -0.4429  0.0646
  420MOL0     C55318   0.091   4.074   9.414 -1.1532  0.1790  0.2799
  420MOL0     C55319  -0.045   4.133   9.441  0.9966  0.2714 -1.1245
  420MOL0     C55320  -0.155   4.059   9.357 -0.3692  0.2202 -0.2027
  420MOL0     C55321  -0.288   4.139   9.352 -0.3351  0.5817 -0.5726
  420MOL0     C55322  -0.384   4.070   9.254 -0.0223 -0.4468 -0.0082
  420MOL0     C55323  -0.508   4.151   9.261  0.5026  0.0289 -0.0795
  420MOL0     C55324  -0.633   4.085   9.199  0.1106 -0.2210  0.9860
  420MOL0     N55325  -0.754   4.155   9.228  1.2762  0.2888 -1.1217
  420MOL0     C55326  -0.850   4.106   9.316 -0.7386 -0.0805  0.4571
  420MOL0     C55327  -0.933   4.213   9.334 -0.0430 -0.0255  0.1410
  420MOL0     C55328  -1.058   4.222   9.419  0.0432  0.8478  1.3898
  420MOL0     C55329  -1.063   4.284   9.560  0.3010 -0.1179 -0.1053
  420MOL0     C55330  -1.074   4.434   9.559 -0.7910 -1.1694  0.0003
  420MOL0     C55331  -1.066   4.487   9.693  0.5493 -0.0556 -0.1249
  420MOL0     O55332  -1.172   4.446   9.777 -0.4528 -0.3372  0.2102
  420MOL0     C55333  -1.294   4.515   9.760 -0.2269  0.3917  0.6969
  420MOL0     C55334  -1.325   4.636   9.825 -0.1177 -0.5231  0.2048
  420MOL0     C55335  -1.449   4.695   9.812 -0.1360  0.1910 -0.6948
  420MOL0     C55336  -1.553   4.633   9.736  0.0809 -0.0786 -0.3075
  420MOL0     C55337  -1.693   4.685   9.725  0.0424  0.4287 -0.6639
  420MOL0     O55338  -1.715   4.817   9.761 -0.0353  0.2484  0.1207
  420MOL0     C55339  -1.848   4.862   9.739  0.0096  0.3832  0.6138
  420MOL0     C55340  -1.889   4.957   9.832  0.1470  0.1105  0.7478
  420MOL0     C55341  -2.012   5.016   9.821 -0.5249 -0.1334 -0.3586
  420MOL0     C55342  -2.093   4.993   9.713  0.0154  0.0358 -0.4806
  420MOL0     O55343  -2.213   5.058   9.711 -0.8525 -0.1209  0.0197
  420MOL0     C55344  -2.303   5.030   9.605  0.0553 -0.2115  0.1354
  420MOL0     C55345  -2.449   5.092   9.632 -0.1843 -0.5574  0.4889
  420MOL0     C55346  -2.534   5.021   9.524 -0.5105 -0.1273  0.1544
  420MOL0     C55347  -2.672   5.093   9.516  0.3390 -0.4993 -0.4631
  420MOL0     C55348  -2.759   5.044   9.396 -0.6992  0.0427 -0.9760
  420MOL0     C55349  -2.905   5.092   9.405  0.2960  0.7010 -0.0288
  420MOL0     C55350  -2.987   5.018   9.519 -0.7705  0.4706 -0.2379
  420MOL0     C55351  -3.116   5.090   9.551 -0.5257 -0.0357 -0.1483
  420MOL0    Cl55352  -3.254   5.078   9.442 -0.3829 -0.0196 -0.3344
  420MOL0     C55353  -2.052   4.900   9.613 -0.2674 -0.3003 -0.5362
  420MOL0     C55354  -1.928   4.840   9.625 -0.5151 -0.5984  0.0313
  420MOL0     O55355  -1.772   4.615   9.670  1.1236  0.4455  0.2214
  420MOL0     C55356  -1.517   4.515   9.672 -0.3698 -0.2673  0.9364
  420MOL0     C55357  -1.385   4.460   9.672  0.3062  0.2226 -0.8889
  420MOL0     N55358  -0.882   4.327   9.277  0.0888  0.3846 -0.4895
  420MOL0     N55359  -0.777   4.292   9.215 -0.1287  0.1546  0.0230
  420MOL0     C55360   0.548   4.109   9.539  0.1847  0.1101 -1.2099
  420MOL0     C55361   0.666   4.179   9.584  0.4807 -0.1181 -0.9732
  420MOL0     C55362   0.918   4.561   9.737  0.2661  0.3946 -0.2012
  420MOL0     C55363   1.022   4.466   9.769  0.1763 -0.4751  1.1982
  420MOL0     C55364   1.149   4.512   9.808  0.9298  0.6538 -0.9556
  420MOL0     C55365   1.175   4.650   9.832 -0.6416  0.0700 -0.2937
  420MOL0     O55366   1.286   4.701   9.893  0.4197  0.8142 -0.2970
  420MOL0     C55367   1.385   4.607   9.917  0.0345  0.0771 -0.4624
  420MOL0     C55368   1.473   4.556   9.794  0.1888 -0.1488 -0.4816
  420MOL0     C55369   1.484   4.650   9.680 -0.3502 -0.1910 -0.2802
  420MOL0     C55370   1.550   4.779   9.721  1.2598  1.1160 -0.1558
  420MOL0     C55371   1.690   4.761   9.749 -0.6715 -0.3440  0.2704
  420MOL0     C55372   1.804   4.734   9.770 -0.8651  0.1161 -0.3176
  420MOL0     C55373   1.074   4.738   9.800 -0.3837 -0.4466  0.0174
  420MOL0     C55374   0.947   4.697   9.753  0.0519 -0.3608 -0.0157
  420MOL0     H55375   0.499   4.454   9.696 -0.4903  0.7300 -2.4192
  420MOL0     H55376   0.315   4.343   9.619 -1.0703 -0.3640 -1.9685
  420MOL0     H55377   0.184   4.237   9.490  0.6039 -0.0687  1.7435
  420MOL0     H55378   0.151   4.110   9.612  1.7446  2.1265  1.2742
  420MOL0     H55379   0.074   3.968   9.436 -3.0056  0.2555 -0.5589
  420MOL0     H55380   0.127   4.094   9.313 -1.1162 -2.2979 -0.2364
  420MOL0     H55381  -0.045   4.240   9.415 -0.5552  0.4807 -0.3783
  420MOL0     H55382  -0.074   4.126   9.546  0.2136 -1.7813 -1.4324
  420MOL0     H55383  -0.116   4.061   9.255  0.8250  0.3367  0.2429
  420MOL0     H55384  -0.175   3.965   9.410 -0.0329  0.9851  1.3391
  420MOL0     H55385  -0.265   4.241   9.319 -0.5026  1.1460  0.9571
  420MOL0     H55386  -0.317   4.137   9.458  2.0625 -0.1755  0.1317
  420MOL0     H55387  -0.397   3.964   9.278  1.6501 -0.8466 -0.7207
  420MOL0     H55388  -0.345   4.078   9.152 -0.1698  4.5384  0.0909
  420MOL0     H55389  -0.534   4.165   9.366  0.0210 -1.9937  0.1052
  420MOL0     H55390  -0.487   4.249   9.216 -0.9054 -0.4505 -1.8841
  420MOL0     H55391  -0.653   3.983   9.234 -0.8973 -0.9934 -1.5560
  420MOL0     H55392  -0.613   4.083   9.091  0.3375 -0.5447  1.0338
  420MOL0     H55393  -0.855   4.002   9.347  1.1453 -0.5294 -0.5387
  420MOL0     H55394  -1.108   4.125   9.416 -2.3585  2.0032 -2.0041
  420MOL0     H55395  -1.132   4.268   9.353  0.1969  0.4137  0.9002
  420MOL0     H55396  -0.980   4.245   9.621  0.7313 -0.8508 -1.1194
  420MOL0     H55397  -1.151   4.242   9.609  0.5304 -0.0804  0.3509
  420MOL0     H55398  -0.990   4.472   9.500 -0.9232 -4.8940 -2.9904
  420MOL0     H55399  -1.166   4.463   9.508 -0.9237  0.3934  1.0770
  420MOL0     H55400  -1.066   4.596   9.687  0.7250 -0.0486 -0.0117
  420MOL0     H55401  -0.973   4.457   9.744 -1.3769  0.9933  4.5613
  420MOL0     H55402  -1.246   4.677   9.887 -2.1085  4.2736 -0.0354
  420MOL0     H55403  -1.472   4.788   9.863  3.7348 -0.7359  3.3634
  420MOL0     H55404  -1.823   4.988   9.913  1.1474  1.5589 -0.5599
  420MOL0     H55405  -2.051   5.078   9.901  0.7516  0.9656 -0.5621
  420MOL0     H55406  -2.319   4.922   9.601  5.4470 -1.2593  0.0576
  420MOL0     H55407  -2.266   5.072   9.511  0.6681  3.3764  1.8046
  420MOL0     H55408  -2.446   5.199   9.609 -0.1006 -1.0681 -2.1412
  420MOL0     H55409  -2.474   5.078   9.738  0.0893  1.0937  0.7963
  420MOL0     H55410  -2.546   4.915   9.547 -3.3688  0.4270  1.6344
  420MOL0     H55411  -2.480   5.029   9.430  0.4894  0.9392  0.7927
  420MOL0     H55412  -2.716   5.082   9.615 -0.8714 -2.3349 -1.1404
  420MOL0     H55413  -2.660   5.200   9.500  1.9830 -0.4918  0.5751
  420MOL0     H55414  -2.762   4.934   9.392 -2.9252 -0.0300  0.8785
  420MOL0     H55415  -2.701   5.088   9.315 -2.4363  1.5166 -1.4792
  420MOL0     H55416  -2.979   5.064   9.329 -2.8619  0.3973  2.9152
  420MOL0     H55417  -2.899   5.199   9.423  2.7105  1.1197 -2.5878
  420MOL0     H55418  -3.013   4.915   9.493  0.2521 -0.5703  2.5635
  420MOL0     H55419  -2.934   5.009   9.614 -2.0302 -0.9730  0.3646
  420MOL0     H55420  -3.090   5.196   9.558  0.7826 -0.4428  2.1327
  420MOL0     H55421  -3.149   5.059   9.651  1.4768 -2.5365 -0.1791
  420MOL0     H55422  -2.104   4.892   9.518  1.5927 -0.5540 -1.5873
  420MOL0     H55423  -1.897   4.781   9.540 -0.0763 -0.4076  0.0571
  420MOL0     H55424  -1.595   4.466   9.615  1.4336 -1.4954 -0.5853
  420MOL0     H55425  -1.365   4.371   9.612 -1.6512 -2.0284  1.5609
  420MOL0     H55426   0.550   4.009   9.497  1.5602  0.4235 -1.9668
  420MOL0     H55427   0.756   4.119   9.584  0.0337 -0.8053 -1.7736
  420MOL0     H55428   1.005   4.361   9.748 -1.1068  0.1293 -1.0526
  420MOL0     H55429   1.215   4.427   9.821  0.3902  0.5956  2.3696
  420MOL0     H55430   1.341   4.520   9.966 -1.7136 -0.4109 -2.6880
  420MOL0     H55431   1.450   4.639   9.998 -0.1342  1.5766 -0.8916
  420MOL0     H55432   1.573   4.537   9.831  0.5840 -1.0545 -1.9125
  420MOL0     H55433   1.427   4.465   9.754 -1.3273  0.9448 -1.3505
  420MOL0     H55434   1.382   4.670   9.646 -0.4588  1.7712  1.0563
  420MOL0     H55435   1.546   4.607   9.600  2.7173  3.4003 -0.1183
  420MOL0     H55436   1.543   4.851   9.639 -0.0322 -0.2111 -1.2592
  420MOL0     H55437   1.494   4.820   9.806  0.3825 -0.2161 -0.0755
  420MOL0     H55438   1.907   4.722   9.795 -0.2474  2.2889 -1.5482
  420MOL0     H55439   1.104   4.838   9.829 -3.0853  0.1065  1.2051
  420MOL0     H55440   0.864   4.762   9.729 -2.1332 -3.8481 -3.0027
  421MOL0     O55441   7.689   8.620   7.593  0.1464 -0.7875  0.3633
  421MOL0     C55442   7.722   8.686   7.497  0.3449 -0.0770  0.3393
  421MOL0     O55443   7.643   8.718   7.400  0.8394  0.3520  0.3996
  421MOL0     C55444   7.504   8.670   7.390 -0.7397  0.3648  0.5657
  421MOL0     C55445   7.407   8.768   7.358  0.9308 -0.2246 -0.1436
  421MOL0     C55446   7.274   8.729   7.367  0.0463  0.9671  0.5955
  421MOL0     C55447   7.236   8.599   7.373  0.9700 -0.1088 -0.2973
  421MOL0     O55448   7.106   8.576   7.336  0.4346  0.0489 -0.3786
  421MOL0     C55449   7.053   8.444   7.352 -0.0861 -1.0009  0.1895
  421MOL0     C55450   6.903   8.441   7.355  0.7196 -0.6586  0.3770
  421MOL0     C55451   6.854   8.302   7.386 -0.4574  1.0320  0.0876
  421MOL0     C55452   6.696   8.297   7.397 -0.5711  0.1731 -0.8969
  421MOL0     C55453   6.645   8.162   7.464  0.1068  0.2435  0.7625
  421MOL0     C55454   6.502   8.171   7.498 -0.5903  0.0046 -0.0611
  421MOL0     C55455   6.443   8.044   7.562  0.5654  0.9868  0.1190
  421MOL0     C55456   6.473   7.911   7.487 -0.2505  0.4675  0.4862
  421MOL0     N55457   6.379   7.797   7.518 -0.6089  0.2755  0.9526
  421MOL0     C55458   6.349   7.752   7.644  0.2796  0.6138 -0.2859
  421MOL0     C55459   6.256   7.655   7.625  0.6051  0.4967  1.3721
  421MOL0     C55460   6.188   7.574   7.733  0.2059  0.3129 -0.8452
  421MOL0     C55461   6.204   7.420   7.727  0.7488  0.0664  0.2086
  421MOL0     C55462   6.144   7.370   7.863  0.3535  0.6403  1.1019
  421MOL0     C55463   6.166   7.212   7.873 -0.3400 -0.4036  0.6294
  421MOL0     O55464   6.058   7.125   7.837  0.2615  0.2939 -0.1329
  421MOL0     C55465   5.945   7.126   7.919 -0.2454 -0.1935  0.6407
  421MOL0     C55466   5.947   7.128   8.066 -0.3706  0.5864 -0.0563
  421MOL0     C55467   5.828   7.140   8.125  0.7623  0.7400  0.1488
  421MOL0     C55468   5.703   7.138   8.060  0.2943 -1.0836 -1.4502
  421MOL0     C55469   5.566   7.149   8.125 -0.7143  0.8310  0.1294
  421MOL0     O55470   5.452   7.176   8.056 -0.7192  0.6972  0.0060
  421MOL0     C55471   5.333   7.203   8.130  0.2486  0.0286 -0.2612
  421MOL0     C55472   5.224   7.128   8.096 -0.2600  1.1935 -0.1549
  421MOL0     C55473   5.100   7.165   8.148  1.0739 -0.2793 -0.6254
  421MOL0     C55474   5.082   7.280   8.228  0.2413  0.6197 -0.4267
  421MOL0     O55475   4.962   7.325   8.286  0.4572 -0.5075 -0.5486
  421MOL0     C55476   4.849   7.245   8.263 -0.2603  0.3231 -0.5199
  421MOL0     C55477   4.766   7.277   8.139 -0.1135  0.5280 -0.1993
  421MOL0     C55478   4.636   7.191   8.141 -0.5339 -0.0100  0.0550
  421MOL0     C55479   4.664   7.049   8.134 -0.2330 -0.4799 -0.3721
  421MOL0     C55480   4.596   6.969   8.245 -0.4451  0.0733 -0.0028
  421MOL0     C55481   4.666   6.836   8.259 -0.0239  0.2655 -0.0085
  421MOL0     C55482   4.644   6.730   8.146 -0.0919 -0.1780  0.1733
  421MOL0     C55483   4.663   6.586   8.184  0.7173 -0.2747  0.4712
  421MOL0    Cl55484   4.831   6.548   8.233 -0.6146  0.3466 -0.3137
  421MOL0     C55485   5.192   7.348   8.267  0.1738 -0.0988 -0.3486
  421MOL0     C55486   5.321   7.312   8.227  0.0203  0.3663 -0.0616
  421MOL0     O55487   5.566   7.128   8.244 -0.9007  0.0812  0.5091
  421MOL0     C55488   5.703   7.125   7.917 -1.4975  0.0920 -0.5546
  421MOL0     C55489   5.824   7.120   7.855  0.0545 -0.3682  0.5438
  421MOL0     N55490   6.223   7.654   7.487  0.4650  0.2454  0.3884
  421MOL0     N55491   6.298   7.738   7.431 -0.2084 -0.1706  0.4939
  421MOL0     C55492   7.326   8.500   7.390  0.9898 -0.5193  0.1264
  421MOL0     C55493   7.465   8.538   7.402 -0.5852  0.7185 -0.4408
  421MOL0     C55494   7.858   8.738   7.488  0.0836  0.2648  0.0852
  421MOL0     C55495   7.962   8.695   7.567  0.9705 -0.0512 -0.0445
  421MOL0     C55496   8.095   8.750   7.557  0.1789  0.1556  1.1797
  421MOL0     C55497   8.122   8.841   7.457  0.6531 -0.3038 -0.3565
  421MOL0     O55498   8.255   8.878   7.437  0.4952 -0.6998 -0.3716
  421MOL0     C55499   8.306   8.987   7.351 -0.5379  0.3866 -0.9633
  421MOL0     C55500   8.459   8.980   7.352 -0.0960  1.2159 -0.0611
  421MOL0     C55501   8.506   8.845   7.275  0.5046 -0.4287 -0.0167
  421MOL0     C55502   8.650   8.844   7.237  1.1887 -0.5787 -0.4401
  421MOL0     C55503   8.666   8.775   7.106  0.5832  0.1337  0.6669
  421MOL0     C55504   8.656   8.732   6.993 -0.1657  0.0344  0.5318
  421MOL0     C55505   8.017   8.885   7.373  0.3312  0.0169  0.3554
  421MOL0     C55506   7.888   8.838   7.393 -0.5244 -0.2961 -0.3199
  421MOL0     H55507   7.426   8.873   7.340  1.6430 -0.1348  1.0707
  421MOL0     H55508   7.197   8.806   7.374  2.8482  4.1721 -0.7661
  421MOL0     H55509   7.085   8.396   7.445 -0.9561 -3.8283 -0.8597
  421MOL0     H55510   7.090   8.387   7.266  0.9683 -0.0515 -0.0123
  421MOL0     H55511   6.856   8.493   7.271  0.9322 -0.3870  0.4240
  421MOL0     H55512   6.873   8.497   7.445 -1.1943  0.2814 -0.7788
  421MOL0     H55513   6.887   8.256   7.480 -2.4189 -3.2809 -1.0940
  421MOL0     H55514   6.885   8.228   7.313  0.9018  0.0012  1.6265
  421MOL0     H55515   6.673   8.382   7.461 -0.3311 -0.0628 -0.4950
  421MOL0     H55516   6.647   8.320   7.302 -1.5119 -1.5002 -0.8668
  421MOL0     H55517   6.695   8.150   7.561 -1.6713  1.7266  1.9183
  421MOL0     H55518   6.668   8.080   7.396  1.1627  2.5458 -1.8637
  421MOL0     H55519   6.452   8.192   7.403  0.2886 -0.3562 -0.6158
  421MOL0     H55520   6.486   8.254   7.567 -2.2534  0.0697 -0.4823
  421MOL0     H55521   6.482   8.028   7.663  1.1827  1.6734 -0.0041
  421MOL0     H55522   6.336   8.063   7.576  0.1352 -0.7437 -0.5153
  421MOL0     H55523   6.577   7.881   7.506 -0.7121 -0.6596  1.3316
  421MOL0     H55524   6.460   7.930   7.380 -4.0174  1.3021  0.9576
  421MOL0     H55525   6.380   7.776   7.745 -2.3982 -0.8920  1.0098
  421MOL0     H55526   6.081   7.592   7.744 -0.1217 -0.8673 -1.8181
  421MOL0     H55527   6.231   7.613   7.826  0.2612  0.5191 -0.9569
  421MOL0     H55528   6.309   7.404   7.703  0.6154  2.0920 -2.1402
  421MOL0     H55529   6.135   7.389   7.648 -0.8936  3.3095  0.2087
  421MOL0     H55530   6.199   7.421   7.942  0.2783 -0.0024  1.5758
  421MOL0     H55531   6.039   7.401   7.869  0.6398  1.6778  0.9583
  421MOL0     H55532   6.179   7.208   7.982  1.4893 -0.0962  0.4515
  421MOL0     H55533   6.252   7.175   7.817  0.3766  2.6482 -0.4939
  421MOL0     H55534   6.027   7.120   8.138 -1.3153 -0.5551  0.8944
  421MOL0     H55535   5.830   7.139   8.234  3.1991 -0.4169  0.1618
  421MOL0     H55536   5.238   7.048   8.024 -2.1207  0.5389  0.1505
  421MOL0     H55537   5.003   7.120   8.130  0.6504 -0.3371  1.4599
  421MOL0     H55538   4.773   7.264   8.339 -0.7358  0.9305 -1.1354
  421MOL0     H55539   4.878   7.141   8.281  4.0413  1.1384 -1.6061
  421MOL0     H55540   4.838   7.257   8.059 -1.3114 -1.9777 -0.7696
  421MOL0     H55541   4.746   7.383   8.124 -2.0219  0.3280  0.6393
  421MOL0     H55542   4.569   7.210   8.056  1.4318 -1.5211 -1.9435
  421MOL0     H55543   4.575   7.215   8.229  0.7095  0.9821  0.6706
  421MOL0     H55544   4.623   7.027   8.035  1.9622 -0.5563 -1.3085
  421MOL0     H55545   4.770   7.026   8.122 -0.2422 -0.1733 -1.1384
  421MOL0     H55546   4.492   6.952   8.213 -1.5319  2.7731  1.7738
  421MOL0     H55547   4.595   7.008   8.347 -4.4412 -1.0864  0.5649
  421MOL0     H55548   4.623   6.788   8.348  2.7355 -1.4466  0.5305
  421MOL0     H55549   4.773   6.852   8.277  1.2283  0.6031 -5.9136
  421MOL0     H55550   4.541   6.741   8.110 -0.9582 -0.4176  2.4129
  421MOL0     H55551   4.717   6.745   8.066  0.2079  1.3028  0.6945
  421MOL0     H55552   4.628   6.522   8.103  1.5766  0.0557 -0.1709
  421MOL0     H55553   4.602   6.569   8.274  1.8168  1.2496  1.5749
  421MOL0     H55554   5.163   7.422   8.341 -4.9190 -0.0049 -1.9875
  421MOL0     H55555   5.407   7.374   8.249  0.8247 -0.1291 -1.6095
  421MOL0     H55556   5.607   7.120   7.867 -2.7130  1.0932  1.5242
  421MOL0     H55557   5.819   7.121   7.746 -2.6003 -0.4196  0.5918
  421MOL0     H55558   7.307   8.393   7.398  1.8142 -0.5644  2.3219
  421MOL0     H55559   7.538   8.461   7.426 -1.8642 -0.9032 -1.5312
  421MOL0     H55560   7.936   8.619   7.639  0.1382  1.5326  1.4116
  421MOL0     H55561   8.180   8.722   7.619  0.3598 -0.0999  0.8184
  421MOL0     H55562   8.263   9.075   7.400 -2.5514 -0.4902 -1.0283
  421MOL0     H55563   8.263   8.988   7.250 -2.9881  0.2364 -0.0030
  421MOL0     H55564   8.489   9.072   7.301  0.1958  0.2140 -1.7593
  421MOL0     H55565   8.497   8.998   7.453  0.3835 -0.8314  0.1625
  421MOL0     H55566   8.438   8.852   7.189 -1.5564  0.6457  1.6068
  421MOL0     H55567   8.478   8.751   7.323 -0.2043 -0.0375  0.3467
  421MOL0     H55568   8.691   8.946   7.243  0.7386 -0.3424 -1.2833
  421MOL0     H55569   8.714   8.790   7.308 -1.5402 -0.3525  2.4246
  421MOL0     H55570   8.643   8.707   6.890  0.3461  0.1057  0.4491
  421MOL0     H55571   8.041   8.964   7.302  0.1393 -0.3395 -0.1184
  421MOL0     H55572   7.805   8.889   7.345  0.9532  1.4597 -1.1397
  422MOL0     O55573   6.241   1.856   9.066  0.1059  0.1650 -0.3194
  422MOL0     C55574   6.186   1.863   8.958  0.1537 -1.3011 -0.4998
  422MOL0     O55575   6.233   1.934   8.849  0.4401 -0.7575  0.0959
  422MOL0     C55576   6.361   1.985   8.849 -0.0434 -0.4018 -1.2346
  422MOL0     C55577   6.474   1.926   8.921 -0.2397  0.9485 -0.7073
  422MOL0     C55578   6.598   1.979   8.904  0.2390  0.2597  0.4195
  422MOL0     C55579   6.619   2.094   8.822  0.3193 -0.0928  0.3619
  422MOL0     O55580   6.743   2.162   8.797  0.3675  0.2124 -0.5604
  422MOL0     C55581   6.863   2.122   8.875 -0.2123 -0.7249  0.0170
  422MOL0     C55582   6.988   2.209   8.846  0.3080 -0.6535 -0.2932
  422MOL0     C55583   7.027   2.199   8.699 -0.2719 -1.3284 -0.4187
  422MOL0     C55584   7.162   2.269   8.671  0.0381  0.1041 -0.7561
  422MOL0     C55585   7.216   2.237   8.530 -0.7198 -0.1352  0.4678
  422MOL0     C55586   7.345   2.312   8.504 -0.5551 -0.6095 -0.7865
  422MOL0     C55587   7.426   2.239   8.395  0.8274 -0.3334  0.6877
  422MOL0     C55588   7.572   2.288   8.375  0.6001  0.4704 -0.2518
  422MOL0     N55589   7.617   2.225   8.242  0.5517 -0.1055  0.2044
  422MOL0     C55590   7.599   2.280   8.116 -0.1799  0.0900 -0.6469
  422MOL0     C55591   7.662   2.187   8.036 -0.4172 -0.0459 -0.6419
  422MOL0     C55592   7.646   2.202   7.880 -0.1564  0.4836 -0.1879
  422MOL0     C55593   7.499   2.202   7.843  0.1131 -1.0034  0.6678
  422MOL0     C55594   7.499   2.228   7.692  0.0548  0.2238  0.4735
  422MOL0     C55595   7.367   2.215   7.601 -1.2444 -0.2060 -0.1529
  422MOL0     O55596   7.336   2.077   7.588 -0.2269 -0.5811 -0.3788
  422MOL0     C55597   7.208   2.056   7.548  0.1181  0.0408 -0.0342
  422MOL0     C55598   7.158   1.922   7.569 -0.6072 -0.9679  0.0848
  422MOL0     C55599   7.033   1.890   7.522  0.3045 -0.7089  0.1553
  422MOL0     C55600   6.953   1.989   7.459  0.8514  0.0192  0.4398
  422MOL0     C55601   6.816   1.950   7.419  0.0536 -0.3075 -0.4529
  422MOL0     O55602   6.755   2.043   7.343 -0.2375 -0.4969 -0.2688
  422MOL0     C55603   6.636   2.005   7.298  0.9501  0.8389  0.6448
  422MOL0     C55604   6.612   2.006   7.154 -0.5018 -0.0354 -0.3146
  422MOL0     C55605   6.484   1.966   7.107 -0.3425 -1.1181 -0.2487
  422MOL0     C55606   6.379   1.930   7.192  0.5323 -0.5222  0.5971
  422MOL0     O55607   6.244   1.910   7.156 -0.8020  0.3644 -0.5165
  422MOL0     C55608   6.217   1.880   7.021  0.5943 -0.4004 -0.3371
  422MOL0     C55609   6.065   1.867   7.019  0.5348  0.6579  1.0638
  422MOL0     C55610   6.016   1.784   6.903 -0.7106 -1.0405 -0.2423
  422MOL0     C55611   5.862   1.793   6.905  0.1516 -0.2013  0.5118
  422MOL0     C55612   5.808   1.714   6.775 -1.1355 -0.0508 -0.5527
  422MOL0     C55613   5.653   1.733   6.766  0.6486 -0.1795 -0.7926
  422MOL0     C55614   5.568   1.673   6.884  0.6329  0.5546  0.0552
  422MOL0     C55615   5.417   1.690   6.862 -1.0658 -0.2483 -0.8498
  422MOL0    Cl55616   5.363   1.581   6.728 -0.1558 -0.2698 -0.3144
  422MOL0     C55617   6.407   1.931   7.331 -0.1461 -0.0358  0.0112
  422MOL0     C55618   6.524   1.977   7.387 -0.3677  0.6347  0.2928
  422MOL0     O55619   6.765   1.848   7.460 -0.0322  0.0487 -0.6447
  422MOL0     C55620   7.005   2.117   7.428  1.2744 -0.1011  0.2713
  422MOL0     C55621   7.131   2.145   7.467 -0.2808 -0.2320 -0.3332
  422MOL0     N55622   7.696   2.081   8.111 -0.4423  0.0996 -0.3386
  422MOL0     N55623   7.665   2.101   8.239 -0.3783  0.1567  0.8372
  422MOL0     C55624   6.505   2.159   8.765  0.1027  0.6057  0.1517
  422MOL0     C55625   6.376   2.100   8.781  0.3325 -0.1279  0.5355
  422MOL0     C55626   6.055   1.796   8.957  0.9707  0.0218  0.2683
  422MOL0     C55627   5.981   1.762   9.071  0.1566 -0.1311 -0.7383
  422MOL0     C55628   5.866   1.689   9.071 -0.4385 -0.8813  0.5468
  422MOL0     C55629   5.817   1.657   8.949  0.7187  0.3890  0.0977
  422MOL0     O55630   5.697   1.585   8.925  0.3795  0.3464 -0.0686
  422MOL0     C55631   5.628   1.523   9.039  0.0838  0.2582  0.2270
  422MOL0     C55632   5.539   1.405   8.980  0.6508 -0.4710 -0.3359
  422MOL0     C55633   5.412   1.451   8.905  0.1238 -0.2602 -0.1298
  422MOL0     C55634   5.363   1.321   8.826  0.3806 -0.5167 -0.5001
  422MOL0     C55635   5.429   1.291   8.697  0.2270  0.3491 -0.3411
  422MOL0     C55636   5.472   1.283   8.585  0.6182 -0.8231  0.1334
  422MOL0     C55637   5.883   1.682   8.830  0.3192 -0.3328  1.6450
  422MOL0     C55638   5.995   1.754   8.838 -0.2895  0.6841  0.2577
  422MOL0     H55639   6.456   1.829   8.966 -3.9325  1.9945  0.5071
  422MOL0     H55640   6.683   1.933   8.952  1.2439  2.4730  0.8856
  422MOL0     H55641   6.885   2.018   8.852 -0.3681 -0.5111 -1.1682
  422MOL0     H55642   6.842   2.133   8.982 -0.3292  0.5125 -0.1156
  422MOL0     H55643   7.073   2.174   8.906  0.6328  1.6322  0.7115
  422MOL0     H55644   6.957   2.313   8.864 -1.5908 -1.1409 -0.5648
  422MOL0     H55645   6.951   2.258   8.647  0.9663  2.5265  1.7377
  422MOL0     H55646   7.021   2.092   8.675 -0.2502 -0.5676 -4.7117
  422MOL0     H55647   7.166   2.377   8.687  1.3928 -0.1843  1.1170
  422MOL0     H55648   7.236   2.248   8.749  1.3502  0.7644 -1.7777
  422MOL0     H55649   7.141   2.265   8.456  0.4793  0.5356 -0.5230
  422MOL0     H55650   7.237   2.130   8.536 -0.5074 -0.0603  1.1148
  422MOL0     H55651   7.409   2.321   8.593  0.9493  1.2968 -1.9972
  422MOL0     H55652   7.332   2.417   8.477 -1.3064 -0.5288 -0.1307
  422MOL0     H55653   7.413   2.134   8.422  1.1103 -0.1422  1.6347
  422MOL0     H55654   7.371   2.245   8.301 -0.6828 -1.5427  1.4546
  422MOL0     H55655   7.639   2.264   8.458 -0.3104  0.3168  0.4539
  422MOL0     H55656   7.574   2.397   8.373 -0.3356  0.4904 -1.3060
  422MOL0     H55657   7.554   2.375   8.088 -0.6750  0.3021  0.8021
  422MOL0     H55658   7.705   2.123   7.832 -0.8316 -0.0667 -0.1319
  422MOL0     H55659   7.681   2.303   7.856  1.5427 -0.3474 -1.4190
  422MOL0     H55660   7.440   2.278   7.896 -1.2862 -0.2192 -1.7981
  422MOL0     H55661   7.465   2.099   7.859 -0.0362 -1.3078 -1.3509
  422MOL0     H55662   7.530   2.331   7.674  2.3889 -0.1531  1.9188
  422MOL0     H55663   7.581   2.161   7.663 -1.8679 -1.0393 -2.6615
  422MOL0     H55664   7.403   2.249   7.503 -1.5535  0.8685  0.1058
  422MOL0     H55665   7.291   2.277   7.648  2.1362  2.5161  2.2591
  422MOL0     H55666   7.203   1.851   7.638 -0.6278  1.1935  2.4585
  422MOL0     H55667   6.991   1.792   7.538  4.0717 -2.6825 -0.7551
  422MOL0     H55668   6.693   2.022   7.084 -0.9407 -0.8548 -1.0300
  422MOL0     H55669   6.468   1.977   7.001  3.9388 -2.2065 -1.1949
  422MOL0     H55670   6.282   1.797   6.990  0.5339 -1.4221  2.1035
  422MOL0     H55671   6.238   1.968   6.960 -2.6986  0.3104 -0.6019
  422MOL0     H55672   6.028   1.970   7.020  2.1561  1.2969  3.3339
  422MOL0     H55673   6.034   1.817   7.111 -1.1719 -0.0444  0.1482
  422MOL0     H55674   6.050   1.682   6.922 -1.6807 -1.1724  0.9730
  422MOL0     H55675   6.055   1.826   6.810 -3.1178  1.8829 -0.1131
  422MOL0     H55676   5.819   1.767   7.002  1.2601 -1.5824  0.6749
  422MOL0     H55677   5.843   1.900   6.894  2.1936  0.4035  2.2938
  422MOL0     H55678   5.835   1.608   6.771 -0.8436  0.0386 -0.9712
  422MOL0     H55679   5.841   1.751   6.677  1.0459 -2.4320 -0.8096
  422MOL0     H55680   5.615   1.689   6.673  0.8358 -0.7066 -0.6258
  422MOL0     H55681   5.622   1.835   6.746 -2.3172 -0.9222 -0.4056
  422MOL0     H55682   5.591   1.567   6.893  0.6337  0.5108 -0.4111
  422MOL0     H55683   5.589   1.727   6.976 -1.5723 -1.2121  1.6994
  422MOL0     H55684   5.398   1.795   6.838 -1.9007  0.4301  2.3044
  422MOL0     H55685   5.371   1.663   6.957  0.8130  2.7874  1.0774
  422MOL0     H55686   6.332   1.927   7.409  2.4199  1.0267  2.7448
  422MOL0     H55687   6.543   1.981   7.494  1.3542 -0.5003  0.0575
  422MOL0     H55688   6.945   2.187   7.371  2.5887 -0.4917 -1.6750
  422MOL0     H55689   7.166   2.243   7.436 -2.7008  0.6884 -0.3743
  422MOL0     H55690   6.515   2.247   8.703  1.8331  0.5307  0.2838
  422MOL0     H55691   6.296   2.141   8.718  2.0845  1.3132 -0.8827
  422MOL0     H55692   6.020   1.785   9.170 -2.0616  1.0644 -0.0887
  422MOL0     H55693   5.817   1.678   9.167  0.1244  2.6963  1.4013
  422MOL0     H55694   5.565   1.600   9.085 -0.5772 -0.0359 -0.1823
  422MOL0     H55695   5.706   1.493   9.110 -0.0104  3.5015  1.8952
  422MOL0     H55696   5.611   1.350   8.919  1.9424 -0.3445  1.0077
  422MOL0     H55697   5.520   1.335   9.061 -0.9226  0.3650  0.0653
  422MOL0     H55698   5.434   1.528   8.830  0.2039  1.9255  2.0347
  422MOL0     H55699   5.340   1.476   8.984 -1.5856  1.0420 -1.9802
  422MOL0     H55700   5.372   1.233   8.890 -2.2551 -3.0509 -3.2869
  422MOL0     H55701   5.258   1.342   8.806  0.3723  0.2617  0.3110
  422MOL0     H55702   5.508   1.299   8.485  0.3841  0.9327  0.3073
  422MOL0     H55703   5.848   1.643   8.735  0.1369  0.0837  1.5407
  422MOL0     H55704   6.046   1.782   8.747 -0.3578 -0.7032 -0.2301
  423MOL0     O55705   4.062   2.053   9.208 -0.3391  0.0632 -0.3950
  423MOL0     C55706   3.959   2.117   9.199 -0.9353  0.4210 -0.0428
  423MOL0     O55707   3.935   2.242   9.256  0.1381 -0.4879 -0.4581
  423MOL0     C55708   4.040   2.323   9.278 -0.0183  0.6656  0.3688
  423MOL0     C55709   4.170   2.324   9.224 -0.2863  0.6123 -0.1595
  423MOL0     C55710   4.264   2.415   9.274 -1.3566  0.4239  0.7390
  423MOL0     C55711   4.240   2.509   9.373 -0.0579  0.5498  0.6302
  423MOL0     O55712   4.332   2.595   9.433 -0.2638 -0.2947 -0.1906
  423MOL0     C55713   4.433   2.648   9.343  0.2624 -0.0684  0.2854
  423MOL0     C55714   4.516   2.754   9.411 -0.7258 -0.5179 -0.6263
  423MOL0     C55715   4.444   2.841   9.513  0.0246 -0.1169 -0.3242
  423MOL0     C55716   4.533   2.960   9.550 -0.0462 -0.5149  0.4447
  423MOL0     C55717   4.471   3.029   9.671 -1.0632  0.8682 -0.2512
  423MOL0     C55718   4.539   3.162   9.710  0.1694  0.0211  0.0973
  423MOL0     C55719   4.474   3.217   9.841 -0.3343  0.0651 -0.4804
  423MOL0     C55720   4.520   3.359   9.874 -0.0810  0.4492 -0.2801
  423MOL0     N55721   4.666   3.356   9.919 -0.4406  0.0910  0.1809
  423MOL0     C55722   4.776   3.375   9.839  0.2741  0.1250 -0.4019
  423MOL0     C55723   4.882   3.338   9.913 -0.9120  0.4267 -0.1344
  423MOL0     C55724   5.024   3.310   9.869  0.4224 -0.2944 -0.5627
  423MOL0     C55725   5.046   3.174   9.808 -0.0757 -0.2420  0.3891
  423MOL0     C55726   4.995   3.057   9.892  0.5668  0.7409 -0.7482
  423MOL0     C55727   5.054   3.063  10.031  0.8028 -0.9793 -0.1627
  423MOL0     O55728   5.025   2.941  10.097  0.4999  0.7633  0.1546
  423MOL0     C55729   4.902   2.890  10.140 -0.0533  0.4957 -0.3399
  423MOL0     C55730   4.898   2.769  10.207  0.2866  0.7733  0.1856
  423MOL0     C55731   4.788   2.717  10.273  1.0553 -0.2946  0.4044
  423MOL0     C55732   4.662   2.790  10.267 -0.1232  0.6823 -0.2003
  423MOL0     C55733   4.538   2.756  10.343 -0.3510  0.1645 -0.6230
  423MOL0     O55734   4.551   2.650  10.432  0.3787  0.0188  0.1531
  423MOL0     C55735   4.437   2.588  10.477  0.1595 -1.3672  0.3267
  423MOL0     C55736   4.389   2.604  10.606 -0.8214 -0.2447 -0.0057
  423MOL0     C55737   4.268   2.545  10.642 -0.7502 -0.7013  0.4523
  423MOL0     C55738   4.203   2.461  10.551 -0.4648  0.1894 -0.1934
  423MOL0     O55739   4.089   2.395  10.599 -0.3093 -0.6054 -0.3476
  423MOL0     C55740   4.011   2.312  10.517  0.5488 -0.2291  0.3440
  423MOL0     C55741   3.899   2.272  10.611  0.6547 -1.1532  0.0648
  423MOL0     C55742   3.775   2.245  10.530  0.4251  0.1628  0.3101
  423MOL0     C55743   3.671   2.188  10.623 -1.0782  0.1562  0.0229
  423MOL0     C55744   3.528   2.231  10.598  0.1931 -0.2141  0.3316
  423MOL0     C55745   3.491   2.201  10.450  0.0415 -0.1734  0.5473
  423MOL0     C55746   3.358   2.262  10.415 -1.7165 -0.3427 -0.2138
  423MOL0     C55747   3.318   2.219  10.275 -0.1210 -0.2483 -0.8811
  423MOL0    Cl55748   3.270   2.049  10.253  0.1479 -0.6788 -0.0103
  423MOL0     C55749   4.265   2.431  10.433 -0.6889 -0.5503 -0.5050
  423MOL0     C55750   4.378   2.501  10.400  0.1420  0.3058 -0.2985
  423MOL0     O55751   4.428   2.807  10.314  0.0546 -0.4401  0.0856
  423MOL0     C55752   4.666   2.911  10.199 -0.2535 -0.3638  0.0108
  423MOL0     C55753   4.782   2.958  10.138  0.5572  0.2499 -0.5179
  423MOL0     N55754   4.838   3.309  10.041  0.4166 -0.0590  0.8102
  423MOL0     N55755   4.708   3.320  10.047 -0.4370 -0.4280  0.2586
  423MOL0     C55756   4.108   2.519   9.414  0.7710  0.7085 -0.3299
  423MOL0     C55757   4.007   2.424   9.372  0.2686  0.0960  0.4450
  423MOL0     C55758   3.857   2.057   9.112 -0.1678 -0.2800 -0.2489
  423MOL0     C55759   3.725   2.104   9.117 -1.0751  0.4040 -1.0660
  423MOL0     C55760   3.639   2.057   9.029 -0.0197  0.1773 -0.5104
  423MOL0     C55761   3.677   1.976   8.919  0.2269  0.3442 -0.2960
  423MOL0     O55762   3.578   1.920   8.845  0.3200 -0.2418  0.6546
  423MOL0     C55763   3.580   1.982   8.712 -0.3022  0.0855 -0.5123
  423MOL0     C55764   3.433   1.998   8.667  0.5446 -0.0698 -0.6937
  423MOL0     C55765   3.423   2.062   8.524  0.2490  0.5346  0.0298
  423MOL0     C55766   3.275   2.099   8.488 -0.0439  0.5218 -0.0631
  423MOL0     C55767   3.218   2.215   8.562  1.0074  0.3184  0.8346
  423MOL0     C55768   3.174   2.310   8.629 -0.7425 -0.0942 -0.3089
  423MOL0     C55769   3.807   1.932   8.913  0.5117 -0.3043  0.6312
  423MOL0     C55770   3.894   1.962   9.010  0.4682 -0.4820  0.5533
  423MOL0     H55771   4.194   2.255   9.144 -0.6178  0.9542 -0.5571
  423MOL0     H55772   4.362   2.385   9.237 -1.7595  0.8910 -0.7832
  423MOL0     H55773   4.396   2.685   9.247  3.1812 -1.3800 -1.4681
  423MOL0     H55774   4.501   2.569   9.311 -1.9700 -1.7167 -0.5832
  423MOL0     H55775   4.554   2.822   9.334  1.0608 -0.7407  0.0163
  423MOL0     H55776   4.604   2.709   9.458  0.0579  0.1398 -1.4332
  423MOL0     H55777   4.429   2.776   9.600 -0.7958  0.1558 -0.2618
  423MOL0     H55778   4.345   2.868   9.476 -1.5114 -3.0783  1.2379
  423MOL0     H55779   4.631   2.918   9.575 -0.2496 -0.4274  1.4200
  423MOL0     H55780   4.532   3.034   9.470 -2.3056  1.0254  1.7775
  423MOL0     H55781   4.470   2.953   9.750  2.0164 -0.2498 -1.1418
  423MOL0     H55782   4.365   3.042   9.647 -2.0252 -2.0548  1.8198
  423MOL0     H55783   4.518   3.241   9.637  0.9565  0.2694  0.1322
  423MOL0     H55784   4.648   3.149   9.713  0.5615  2.4577 -1.1057
  423MOL0     H55785   4.364   3.221   9.840 -0.4259 -1.7310 -0.3859
  423MOL0     H55786   4.499   3.143   9.917  1.4109  0.8865 -0.2061
  423MOL0     H55787   4.469   3.400   9.962 -1.2565  4.1815 -2.4850
  423MOL0     H55788   4.492   3.434   9.800  2.8277  2.7730  0.7278
  423MOL0     H55789   4.799   3.403   9.737 -0.4497  0.0535 -0.5899
  423MOL0     H55790   5.093   3.320   9.954 -0.5475 -0.0879  0.2235
  423MOL0     H55791   5.060   3.377   9.791 -0.5138  2.1593  0.9795
  423MOL0     H55792   5.154   3.161   9.796 -0.0590 -0.0256  0.3042
  423MOL0     H55793   4.999   3.177   9.709  1.9574 -2.5560 -0.7537
  423MOL0     H55794   4.885   3.056   9.886  0.3628 -0.2268  1.9907
  423MOL0     H55795   5.030   2.964   9.847 -1.9658  0.3328 -2.0856
  423MOL0     H55796   5.041   3.159  10.081  1.6011 -0.3328 -1.1461
  423MOL0     H55797   5.163   3.069  10.024  0.6921  0.4835 -1.0204
  423MOL0     H55798   4.995   2.720  10.198 -0.3210 -0.5838  0.6552
  423MOL0     H55799   4.797   2.623  10.327 -0.4617 -0.0707  1.1052
  423MOL0     H55800   4.436   2.678  10.671 -3.0351 -0.0461  1.4925
  423MOL0     H55801   4.213   2.576  10.730 -1.7331 -0.8615 -0.0864
  423MOL0     H55802   4.069   2.223  10.491 -0.6332 -1.2261  0.9808
  423MOL0     H55803   3.977   2.367  10.429 -1.8248  0.4709  1.6263
  423MOL0     H55804   3.877   2.350  10.685 -0.1071  0.2783 -1.6118
  423MOL0     H55805   3.926   2.185  10.671 -0.4182 -1.0425  0.7434
  423MOL0     H55806   3.794   2.173  10.449  1.6076  2.2558 -1.3702
  423MOL0     H55807   3.742   2.337  10.482 -0.1801  0.3876  1.1486
  423MOL0     H55808   3.678   2.079  10.620  2.2985  0.2445  0.7802
  423MOL0     H55809   3.702   2.208  10.726  1.2378  0.5749 -0.7046
  423MOL0     H55810   3.530   2.340  10.600 -0.0563 -0.1166 -2.1422
  423MOL0     H55811   3.463   2.189  10.675  3.6958  0.5532  4.0564
  423MOL0     H55812   3.487   2.093  10.432  0.2865 -0.0316 -0.3833
  423MOL0     H55813   3.564   2.247  10.384 -2.1673  1.0593 -1.1921
  423MOL0     H55814   3.284   2.235  10.491  0.9930 -1.5537  2.1721
  423MOL0     H55815   3.372   2.370  10.427 -1.6563 -0.4831  1.2166
  423MOL0     H55816   3.404   2.223  10.208  0.3782  2.3736 -0.2053
  423MOL0     H55817   3.239   2.285  10.238 -1.2997  0.6162  2.7444
  423MOL0     H55818   4.227   2.353  10.367 -0.3683 -1.8192  0.7666
  423MOL0     H55819   4.426   2.467  10.309 -0.2899  1.4467 -0.9791
  423MOL0     H55820   4.581   2.977  10.191  0.2001 -0.0102 -3.3273
  423MOL0     H55821   4.777   3.051  10.082 -1.2123 -1.2441 -3.0312
  423MOL0     H55822   4.073   2.607   9.467 -0.2755  0.6442 -0.8901
  423MOL0     H55823   3.905   2.431   9.408 -1.2415 -3.6414 -2.4763
  423MOL0     H55824   3.705   2.177   9.194  2.0915  0.9557 -0.6516
  423MOL0     H55825   3.538   2.094   9.040 -0.4069 -0.0464 -2.7724
  423MOL0     H55826   3.644   1.920   8.647 -2.2447 -1.1444 -1.3507
  423MOL0     H55827   3.623   2.082   8.702 -1.6246  0.4598 -4.0550
  423MOL0     H55828   3.395   1.896   8.667  1.9467 -0.6115 -1.1400
  423MOL0     H55829   3.372   2.047   8.744  1.3413  0.0191 -0.1116
  423MOL0     H55830   3.462   2.000   8.443 -1.9431 -1.4607  0.3968
  423MOL0     H55831   3.477   2.157   8.517  2.8389 -0.9761 -2.1954
  423MOL0     H55832   3.272   2.134   8.384 -3.0544  3.1141  0.7330
  423MOL0     H55833   3.215   2.008   8.487  1.7330 -0.7982  2.6224
  423MOL0     H55834   3.131   2.398   8.670 -1.0007  0.5427 -1.8665
  423MOL0     H55835   3.844   1.864   8.836  3.3711  2.2271 -0.4397
  423MOL0     H55836   3.993   1.922   8.991 -0.5363 -2.8052 -0.1232
  424MOL0     O55837  10.982   7.227   8.690  0.1456 -0.3061 -0.0413
  424MOL0     C55838  11.039   7.203   8.585  0.4265 -0.3044 -0.1612
  424MOL0     O55839  10.971   7.172   8.463 -0.1801 -0.7644  0.4087
  424MOL0     C55840  10.837   7.208   8.454 -0.3125  0.2447  0.4143
  424MOL0     C55841  10.744   7.125   8.514 -0.1341  0.4153  0.0219
  424MOL0     C55842  10.609   7.157   8.521  0.3773  0.0477  0.1145
  424MOL0     C55843  10.568   7.276   8.457  0.1093  0.2811  0.6485
  424MOL0     O55844  10.441   7.314   8.466  0.2820 -0.4077 -0.0046
  424MOL0     C55845  10.352   7.214   8.405  0.4401  0.4116  0.2349
  424MOL0     C55846  10.211   7.276   8.426 -0.6185  0.1945 -0.1351
  424MOL0     C55847  10.109   7.197   8.350  0.7235 -0.0290  0.8364
  424MOL0     C55848   9.985   7.281   8.315 -0.5478 -0.5070  0.0529
  424MOL0     C55849   9.892   7.324   8.442 -0.3638 -0.3835  0.4215
  424MOL0     C55850   9.838   7.202   8.528  0.6784 -0.6374 -0.6581
  424MOL0     C55851   9.761   7.262   8.649  0.0906 -0.3318 -0.3669
  424MOL0     C55852   9.684   7.159   8.723  1.0228 -0.2257 -0.2569
  424MOL0     N55853   9.612   7.221   8.838 -0.1008 -0.2170  0.2377
  424MOL0     C55854   9.500   7.309   8.827  0.0370  0.2742  0.5799
  424MOL0     C55855   9.471   7.333   8.956 -0.3508  0.6326 -0.2345
  424MOL0     C55856   9.357   7.410   9.017  0.4427 -0.5768 -0.1398
  424MOL0     C55857   9.405   7.529   9.098  0.0719  0.7478 -0.3986
  424MOL0     C55858   9.331   7.658   9.079  0.4156  0.0269  0.3171
  424MOL0     C55859   9.180   7.649   9.101 -0.0015 -0.0843  0.1093
  424MOL0     O55860   9.142   7.617   9.237 -0.0051  1.3109 -0.3109
  424MOL0     C55861   9.032   7.691   9.271  0.1365  0.5695  0.0081
  424MOL0     C55862   9.042   7.762   9.388 -0.1204 -0.5034  0.0636
  424MOL0     C55863   8.936   7.842   9.428 -0.0206 -0.2389 -0.1862
  424MOL0     C55864   8.820   7.860   9.348  0.4994 -0.2632 -0.3435
  424MOL0     C55865   8.702   7.940   9.391  0.2155 -0.5384 -1.7601
  424MOL0     O55866   8.601   7.948   9.309  0.6360 -0.7358  0.4825
  424MOL0     C55867   8.480   8.006   9.340  0.2243  0.0142 -0.4638
  424MOL0     C55868   8.393   8.008   9.230 -0.8602  0.6818  0.1311
  424MOL0     C55869   8.273   8.069   9.240  0.4468  0.8352  0.0040
  424MOL0     C55870   8.227   8.114   9.361  0.7656 -0.7361  0.4547
  424MOL0     O55871   8.108   8.171   9.330  0.0541  0.4985  0.1322
  424MOL0     C55872   8.072   8.285   9.409  0.1275  0.0813 -0.0590
  424MOL0     C55873   7.940   8.340   9.344 -0.0088  0.5643  0.2179
  424MOL0     C55874   7.821   8.357   9.444 -0.1333 -0.0568  0.1811
  424MOL0     C55875   7.691   8.424   9.380  0.3850 -0.9138 -0.5845
  424MOL0     C55876   7.557   8.407   9.468  0.5937  1.2253  0.2812
  424MOL0     C55877   7.504   8.255   9.461  0.0789 -0.2924  0.7044
  424MOL0     C55878   7.366   8.249   9.516  1.0730  0.6289 -0.6397
  424MOL0     C55879   7.254   8.291   9.426 -0.5292  0.2048  0.3139
  424MOL0    Cl55880   7.226   8.176   9.295 -0.1657  0.3901  0.0387
  424MOL0     C55881   8.299   8.111   9.474  0.3035  0.1834 -0.3341
  424MOL0     C55882   8.430   8.055   9.469 -0.4078 -0.0143 -0.0375
  424MOL0     O55883   8.703   7.996   9.497  0.1256 -0.8888 -0.7441
  424MOL0     C55884   8.811   7.786   9.232 -0.8582 -0.0900  0.2495
  424MOL0     C55885   8.916   7.700   9.194  0.2622 -0.5733 -0.2336
  424MOL0     N55886   9.567   7.266   9.037  0.4492  0.0445  1.2657
  424MOL0     N55887   9.652   7.202   8.964 -1.1447  0.1529 -0.2922
  424MOL0     C55888  10.664   7.359   8.380  0.1452 -0.5539  0.1632
  424MOL0     C55889  10.802   7.324   8.391  1.0114 -0.6914 -0.5036
  424MOL0     C55890  11.187   7.220   8.575  0.0111 -0.4645  0.4868
  424MOL0     C55891  11.247   7.190   8.457 -0.5128 -0.1778 -0.1718
  424MOL0     C55892  11.384   7.216   8.436 -0.4261  0.4065 -0.3239
  424MOL0     C55893  11.465   7.271   8.545 -0.5101 -0.5959 -0.2002
  424MOL0     O55894  11.601   7.286   8.514 -0.9247 -0.5079  0.1156
  424MOL0     C55895  11.684   7.351   8.616 -0.1924 -0.2499 -0.4983
  424MOL0     C55896  11.826   7.379   8.572  0.2407  0.3831  0.2516
  424MOL0     C55897  11.903   7.246   8.555  1.2127  0.2325 -0.4584
  424MOL0     C55898  12.052   7.273   8.557  0.4356 -0.0425  0.2655
  424MOL0     C55899  12.094   7.350   8.430  1.0392 -0.0162 -0.1596
  424MOL0     C55900  12.128   7.410   8.333 -0.7411  1.4001  1.1780
  424MOL0     C55901  11.394   7.312   8.662 -0.9673 -0.1761 -0.8622
  424MOL0     C55902  11.261   7.284   8.680  0.1820 -0.1819  0.5476
  424MOL0     H55903  10.775   7.037   8.569  2.2001 -0.0847 -1.9060
  424MOL0     H55904  10.536   7.099   8.577 -0.0118  0.3588 -0.0697
  424MOL0     H55905  10.358   7.118   8.458 -3.2570 -0.4086 -0.5829
  424MOL0     H55906  10.378   7.203   8.299  0.0306 -1.0870  0.2636
  424MOL0     H55907  10.213   7.383   8.402 -0.8604  0.8676  2.5116
  424MOL0     H55908  10.178   7.278   8.531 -0.3580  0.6633 -0.0558
  424MOL0     H55909  10.071   7.108   8.401 -0.6729  0.1226  0.1050
  424MOL0     H55910  10.153   7.173   8.253 -0.5678  0.8067  0.0079
  424MOL0     H55911  10.008   7.373   8.261  0.9660 -0.7831  0.1932
  424MOL0     H55912   9.929   7.216   8.246  2.8631 -3.0610 -0.5768
  424MOL0     H55913   9.814   7.375   8.387 -0.5905 -1.3820 -0.2037
  424MOL0     H55914   9.946   7.394   8.506 -4.6496 -0.3678  4.5501
  424MOL0     H55915   9.925   7.144   8.561  2.0893  2.1470  0.9657
  424MOL0     H55916   9.773   7.141   8.465 -0.7601  0.7112 -0.5578
  424MOL0     H55917   9.833   7.313   8.713  1.7859  1.0137 -3.1168
  424MOL0     H55918   9.695   7.333   8.598  0.5972 -2.1193 -3.9087
  424MOL0     H55919   9.756   7.087   8.764  0.7604 -0.4147 -0.1244
  424MOL0     H55920   9.618   7.093   8.665  0.9161 -1.1517  0.8672
  424MOL0     H55921   9.442   7.341   8.741  0.6322  1.9409  0.7704
  424MOL0     H55922   9.297   7.341   9.077  0.9805  1.2332  2.6790
  424MOL0     H55923   9.306   7.449   8.928  1.6975 -0.1854 -0.7070
  424MOL0     H55924   9.513   7.544   9.087 -0.0007  0.7569 -1.1847
  424MOL0     H55925   9.376   7.493   9.197 -2.5080 -0.5232 -1.5149
  424MOL0     H55926   9.363   7.732   9.153 -3.0350  0.9972  1.0306
  424MOL0     H55927   9.346   7.700   8.979  1.5209  2.2822  1.3655
  424MOL0     H55928   9.143   7.576   9.028 -2.3278  2.4592 -1.4695
  424MOL0     H55929   9.131   7.741   9.068 -0.9221 -1.3922 -2.4943
  424MOL0     H55930   9.135   7.745   9.441 -0.5132 -0.4845  0.7720
  424MOL0     H55931   8.934   7.903   9.517  3.4550  2.6111 -1.7833
  424MOL0     H55932   8.447   7.967   9.145  2.0802  0.0166  2.1812
  424MOL0     H55933   8.216   8.070   9.148  3.3425 -2.5708 -2.0491
  424MOL0     H55934   8.152   8.360   9.404 -0.4142  0.6237 -0.6024
  424MOL0     H55935   8.061   8.260   9.515  1.1423 -0.3532 -0.0445
  424MOL0     H55936   7.913   8.266   9.268  3.7269 -0.8216  0.0578
  424MOL0     H55937   7.969   8.432   9.293  3.2334 -0.2227  0.4480
  424MOL0     H55938   7.853   8.417   9.530 -1.4497 -0.3647  0.9155
  424MOL0     H55939   7.786   8.273   9.503  0.3183  1.7490  3.2680
  424MOL0     H55940   7.716   8.529   9.359  2.0100 -1.7850 -3.5664
  424MOL0     H55941   7.670   8.389   9.278 -0.3389  1.1194 -1.1852
  424MOL0     H55942   7.482   8.469   9.418 -0.1065  1.4095  1.5002
  424MOL0     H55943   7.562   8.446   9.571  2.2450  1.6659  0.0525
  424MOL0     H55944   7.573   8.193   9.519  1.6202  1.3200  0.6941
  424MOL0     H55945   7.498   8.224   9.357 -0.3211  0.3122  0.5387
  424MOL0     H55946   7.346   8.143   9.533 -4.5769  1.6299  1.2167
  424MOL0     H55947   7.361   8.299   9.613  0.4087  1.0009 -0.8639
  424MOL0     H55948   7.272   8.383   9.370  0.6683  1.9780  3.3610
  424MOL0     H55949   7.159   8.309   9.478 -1.7888  0.4149 -1.9428
  424MOL0     H55950   8.275   8.153   9.570  0.6878 -2.8014  1.1837
  424MOL0     H55951   8.488   8.061   9.561 -2.6569 -0.5749  1.4815
  424MOL0     H55952   8.716   7.797   9.179 -1.3766  0.5601  1.2815
  424MOL0     H55953   8.902   7.654   9.096 -0.7721  1.9240 -1.3448
  424MOL0     H55954  10.625   7.454   8.346 -2.3980 -0.9138  1.8251
  424MOL0     H55955  10.866   7.400   8.347 -0.4147 -0.3781 -2.1282
  424MOL0     H55956  11.196   7.129   8.383  1.1360 -2.2293  0.3014
  424MOL0     H55957  11.435   7.174   8.349 -0.9528  0.3102 -0.5872
  424MOL0     H55958  11.675   7.291   8.707  0.8322  0.0943 -0.1631
  424MOL0     H55959  11.641   7.449   8.635  0.3152  0.0416 -0.8387
  424MOL0     H55960  11.827   7.435   8.478 -1.4536 -1.6806 -1.0886
  424MOL0     H55961  11.880   7.442   8.643  3.6786 -2.2492  0.2495
  424MOL0     H55962  11.869   7.199   8.462  1.8870 -2.5607  0.6042
  424MOL0     H55963  11.880   7.200   8.651  0.0268  3.7293  1.0931
  424MOL0     H55964  12.075   7.323   8.651 -1.4416 -0.9695  1.2769
  424MOL0     H55965  12.107   7.178   8.561 -0.8114 -0.7607  1.0349
  424MOL0     H55966  12.160   7.475   8.254  0.6524 -0.3970  0.1620
  424MOL0     H55967  11.449   7.357   8.743 -1.2717  0.9560 -1.2622
  424MOL0     H55968  11.200   7.320   8.762 -1.6628  1.0580 -1.2525
  425MOL0     O55969   3.723   0.651   9.164 -0.1572 -0.0422  0.6980
  425MOL0     C55970   3.714   0.754   9.094  0.1983  0.7019  1.0749
  425MOL0     O55971   3.600   0.809   9.043  0.2007  0.2651  0.0393
  425MOL0     C55972   3.480   0.748   9.057 -0.1641  0.4999  0.3146
  425MOL0     C55973   3.378   0.841   9.044  0.3076  0.4067  0.1349
  425MOL0     C55974   3.247   0.799   9.075  0.2520  0.1962  0.0799
  425MOL0     C55975   3.215   0.658   9.095 -1.0145 -0.2045 -0.4231
  425MOL0     O55976   3.079   0.631   9.104 -0.1385  0.4287  0.2597
  425MOL0     C55977   3.036   0.494   9.070 -0.5750 -0.2268  0.5447
  425MOL0     C55978   2.914   0.497   8.988 -0.0294  0.2900 -0.8438
  425MOL0     C55979   2.810   0.580   9.056  0.0483 -0.1154  0.2475
  425MOL0     C55980   2.671   0.510   9.039 -0.7989  0.1855  0.5641
  425MOL0     C55981   2.550   0.603   9.059 -0.4414 -0.7482 -0.4023
  425MOL0     C55982   2.431   0.510   9.039  0.2556 -0.0484  0.0771
  425MOL0     C55983   2.316   0.551   9.138 -0.1156  0.9072  0.3841
  425MOL0     C55984   2.181   0.498   9.081  0.0094 -0.7016 -0.9529
  425MOL0     N55985   2.076   0.502   9.180 -0.5194 -0.0970 -0.3412
  425MOL0     C55986   2.085   0.420   9.292  0.7019  0.1297  0.0013
  425MOL0     C55987   2.018   0.485   9.392 -0.3088  0.4831 -0.0232
  425MOL0     C55988   1.986   0.436   9.537  0.1889  0.1147  0.5649
  425MOL0     C55989   1.888   0.318   9.519 -1.0646  0.6655  0.6166
  425MOL0     C55990   1.892   0.224   9.638  0.3324 -0.1918  0.2662
  425MOL0     C55991   1.824   0.083   9.614  0.0802 -0.1302  0.3864
  425MOL0     O55992   1.682   0.114   9.592 -1.2025 -0.5743  0.6952
  425MOL0     C55993   1.591   0.018   9.570  0.3561 -0.3930  0.0473
  425MOL0     C55994   1.469   0.048   9.510 -0.2564 -0.0602 -0.5871
  425MOL0     C55995   1.374  -0.049   9.471 -0.3396  0.6050  0.5521
  425MOL0     C55996   1.398  -0.187   9.503 -0.2564  0.1042 -0.8715
  425MOL0     C55997   1.293  -0.290   9.473 -0.4001  0.1891  0.1294
  425MOL0     O55998   1.178  -0.246   9.416 -0.1557 -0.2886 -0.1456
  425MOL0     C55999   1.082  -0.335   9.387  0.5963  0.9154 -0.6881
  425MOL0     C56000   1.100  -0.430   9.290 -0.6448 -0.2678  0.6170
  425MOL0     C56001   1.000  -0.514   9.251 -0.1577 -0.3595  0.1752
  425MOL0     C56002   0.876  -0.511   9.310 -0.4589 -0.0092  0.8210
  425MOL0     O56003   0.772  -0.599   9.289 -0.7074  0.4552 -0.1013
  425MOL0     C56004   0.786  -0.689   9.175  0.5829  0.4772 -0.5550
  425MOL0     C56005   0.657  -0.767   9.160  1.4642  1.1199  0.6092
  425MOL0     C56006   0.623  -0.813   9.017 -0.1225  0.1598  0.3616
  425MOL0     C56007   0.509  -0.912   9.017  0.3085  0.2723  0.6411
  425MOL0     C56008   0.448  -0.916   8.876  0.4835 -0.0048 -0.4687
  425MOL0     C56009   0.537  -0.966   8.767 -0.6365 -0.6102  0.3142
  425MOL0     C56010   0.475  -1.021   8.638 -0.3935  0.4988 -0.7118
  425MOL0     C56011   0.584  -1.115   8.568 -0.1449 -0.0718 -0.2491
  425MOL0    Cl56012   0.553  -1.128   8.390 -0.1077  0.0051 -0.5099
  425MOL0     C56013   0.848  -0.413   9.405  0.0009 -0.1820  0.4491
  425MOL0     C56014   0.953  -0.321   9.442  0.2606 -0.1318 -1.3314
  425MOL0     O56015   1.322  -0.406   9.513  0.4381 -0.3630  0.1268
  425MOL0     C56016   1.512  -0.214   9.584 -0.4730  0.8336  0.2613
  425MOL0     C56017   1.606  -0.114   9.609 -0.2592  0.5108  0.4769
  425MOL0     N56018   1.972   0.608   9.341  0.1483  0.2423  0.0880
  425MOL0     N56019   1.999   0.610   9.209 -0.9424 -0.4804 -0.2701
  425MOL0     C56020   3.322   0.574   9.117  0.5296 -1.1203  0.4669
  425MOL0     C56021   3.452   0.619   9.102 -0.2563 -0.3733  0.0410
  425MOL0     C56022   3.835   0.832   9.073  1.5110  0.5161 -0.1330
  425MOL0     C56023   3.863   0.921   8.968 -0.3593 -0.6506  0.5999
  425MOL0     C56024   3.981   0.994   8.957  0.0269 -0.3882 -0.9176
  425MOL0     C56025   4.084   0.970   9.050 -0.0380 -0.4150 -0.5023
  425MOL0     O56026   4.202   1.045   9.050  0.6262 -0.3609 -0.3731
  425MOL0     C56027   4.291   1.013   9.156  0.2521 -0.3479 -0.6198
  425MOL0     C56028   4.421   1.096   9.126  0.0785 -0.0031  0.5962
  425MOL0     C56029   4.506   1.019   9.019  0.2992 -0.1493  0.5025
  425MOL0     C56030   4.657   1.003   9.042  0.2240 -0.2591  0.7656
  425MOL0     C56031   4.684   0.940   9.177 -0.0671  0.3965  0.0532
  425MOL0     C56032   4.704   0.879   9.282  0.0347 -0.4971  0.5718
  425MOL0     C56033   4.048   0.883   9.154 -0.2378 -0.0233 -0.0763
  425MOL0     C56034   3.928   0.823   9.177 -0.1249  0.2475  0.5725
  425MOL0     H56035   3.402   0.939   9.004  3.3298  0.0095  0.7604
  425MOL0     H56036   3.161   0.865   9.080 -2.1151 -2.6991  0.3773
  425MOL0     H56037   3.016   0.434   9.159 -2.2655 -0.7068 -0.1139
  425MOL0     H56038   3.113   0.444   9.010  0.7678  1.2025  0.9996
  425MOL0     H56039   2.880   0.394   8.974 -1.4839  0.5949  0.2275
  425MOL0     H56040   2.934   0.541   8.890  1.4488  1.1407 -0.2009
  425MOL0     H56041   2.812   0.682   9.017  2.5377 -0.6015 -1.1352
  425MOL0     H56042   2.833   0.603   9.160  1.8567  2.6471 -0.6417
  425MOL0     H56043   2.655   0.480   8.935  1.9331  0.2237  0.0531
  425MOL0     H56044   2.659   0.428   9.110 -1.3003 -1.0576 -0.8928
  425MOL0     H56045   2.553   0.675   8.976  0.3623 -3.1181 -2.5887
  425MOL0     H56046   2.557   0.642   9.161  0.1082  1.0219 -1.0766
  425MOL0     H56047   2.452   0.404   9.053  0.6528  0.0304  0.0761
  425MOL0     H56048   2.400   0.506   8.934 -0.6825 -1.8840  0.3779
  425MOL0     H56049   2.339   0.509   9.236  1.0605 -0.0982 -0.2959
  425MOL0     H56050   2.302   0.658   9.153  0.1599  0.8285  1.2361
  425MOL0     H56051   2.191   0.402   9.028  1.3886 -0.4614 -1.1687
  425MOL0     H56052   2.152   0.577   9.012 -2.0470  1.5527  2.2057
  425MOL0     H56053   2.133   0.323   9.297 -0.7316 -0.5800  0.7340
  425MOL0     H56054   1.943   0.514   9.600 -0.9771  0.0861 -0.1649
  425MOL0     H56055   2.082   0.410   9.582  0.0966  1.9570  1.9345
  425MOL0     H56056   1.902   0.260   9.428 -2.3466 -1.0425  1.4432
  425MOL0     H56057   1.786   0.356   9.510 -1.0913  0.3316 -0.5848
  425MOL0     H56058   1.994   0.194   9.665 -0.6143 -4.4588 -0.0886
  425MOL0     H56059   1.845   0.269   9.725  1.7237 -1.3655  1.6780
  425MOL0     H56060   1.839   0.025   9.706 -2.4733  0.1024  1.0179
  425MOL0     H56061   1.874   0.028   9.533  2.6086  1.8722  0.4834
  425MOL0     H56062   1.455   0.155   9.498  2.1200  0.3486 -0.0302
  425MOL0     H56063   1.284  -0.006   9.428 -0.0562  1.5725  0.9250
  425MOL0     H56064   1.196  -0.421   9.240 -0.1921  0.0384  1.5200
  425MOL0     H56065   1.027  -0.584   9.172  0.5644  1.0900 -0.9050
  425MOL0     H56066   0.875  -0.747   9.203  1.5545  2.4259  0.7064
  425MOL0     H56067   0.796  -0.632   9.082  0.5265 -2.9169 -2.7999
  425MOL0     H56068   0.569  -0.710   9.193  0.7340  1.0046 -1.0360
  425MOL0     H56069   0.664  -0.851   9.230  3.7726  2.4815  2.1536
  425MOL0     H56070   0.706  -0.873   8.980  0.2398  0.9394 -0.1054
  425MOL0     H56071   0.605  -0.731   8.947 -0.8795 -0.7469 -0.5505
  425MOL0     H56072   0.535  -1.014   9.047  2.5588 -0.3774 -2.9054
  425MOL0     H56073   0.435  -0.873   9.087  0.8592  0.4304  1.1448
  425MOL0     H56074   0.423  -0.813   8.849 -0.5138 -0.3201 -0.7879
  425MOL0     H56075   0.354  -0.971   8.877  0.2965  0.3083 -0.5223
  425MOL0     H56076   0.604  -1.043   8.809  0.1797  1.6214  3.4470
  425MOL0     H56077   0.602  -0.882   8.741 -0.2104 -1.2955 -0.8989
  425MOL0     H56078   0.391  -1.081   8.672  2.2154 -2.6631  0.6748
  425MOL0     H56079   0.451  -0.936   8.574 -2.4596 -0.2240 -0.9797
  425MOL0     H56080   0.572  -1.214   8.614  0.8731 -0.0011  0.2007
  425MOL0     H56081   0.686  -1.081   8.586  1.0528 -1.8616 -3.0192
  425MOL0     H56082   0.754  -0.421   9.459  0.1525 -0.2000  0.7118
  425MOL0     H56083   0.943  -0.249   9.523  1.6891 -3.1747  1.8104
  425MOL0     H56084   1.523  -0.315   9.621 -2.4041  0.8264  0.9541
  425MOL0     H56085   1.692  -0.142   9.669  0.9904 -0.1519 -1.5221
  425MOL0     H56086   3.307   0.474   9.156  2.0572 -0.7557  2.1036
  425MOL0     H56087   3.538   0.556   9.123  1.5213  2.4225  1.7564
  425MOL0     H56088   3.806   0.922   8.876  3.1133 -0.8302 -1.7562
  425MOL0     H56089   3.998   1.064   8.876 -1.6132  0.1646 -0.8194
  425MOL0     H56090   4.323   0.908   9.153  1.6596  0.0392 -0.0468
  425MOL0     H56091   4.248   1.039   9.253 -0.9340 -0.1030 -1.1881
  425MOL0     H56092   4.397   1.200   9.098  2.6008  0.2071 -1.1796
  425MOL0     H56093   4.477   1.098   9.219 -2.4321 -3.0299  2.3747
  425MOL0     H56094   4.497   1.079   8.928 -1.1652 -0.2445  0.5651
  425MOL0     H56095   4.459   0.925   8.990  0.6346  0.4748 -2.3847
  425MOL0     H56096   4.690   0.925   8.972 -0.6977 -1.5544  1.7363
  425MOL0     H56097   4.711   1.096   9.025  3.3612 -1.8979  1.0310
  425MOL0     H56098   4.728   0.804   9.355  0.2250 -0.7868  0.2160
  425MOL0     H56099   4.130   0.866   9.224  0.6430 -1.1066 -1.3241
  425MOL0     H56100   3.907   0.758   9.262 -1.3372  1.6776  1.4150
  426MOL0     O56101  10.127   4.630   5.845  0.3737 -0.0261  0.2184
  426MOL0     C56102  10.184   4.715   5.920  0.9084  0.8359 -0.5866
  426MOL0     O56103  10.122   4.840   5.954  0.3147 -0.9211  0.0656
  426MOL0     C56104  10.028   4.892   5.864 -0.8514  0.1566  0.2442
  426MOL0     C56105   9.929   4.978   5.912  0.5439 -0.3014  0.3563
  426MOL0     C56106   9.860   5.054   5.824  0.4713 -0.3093  0.5616
  426MOL0     C56107   9.873   5.042   5.686 -0.4433 -0.2062 -0.4931
  426MOL0     O56108   9.811   5.141   5.614 -0.0159 -0.7305 -0.3352
  426MOL0     C56109   9.814   5.129   5.463  0.1348 -0.0389 -0.5008
  426MOL0     C56110   9.743   5.247   5.391  0.4294 -0.7598 -0.1691
  426MOL0     C56111   9.830   5.371   5.401  0.0884  0.2074 -0.0255
  426MOL0     C56112   9.751   5.510   5.391  0.1907 -0.5808 -0.3447
  426MOL0     C56113   9.840   5.637   5.410 -0.7307 -0.3302 -0.1780
  426MOL0     C56114   9.964   5.636   5.323 -0.0651 -0.5935 -0.8565
  426MOL0     C56115  10.038   5.770   5.315 -0.7970  0.7087  0.1782
  426MOL0     C56116  10.129   5.775   5.192 -0.8869  0.2885  0.5100
  426MOL0     N56117  10.055   5.824   5.074 -0.5886  0.6066  0.0235
  426MOL0     C56118  10.020   5.955   5.072  0.2578  0.1296 -0.0027
  426MOL0     C56119   9.980   5.977   4.948  0.1678 -0.2256 -0.3074
  426MOL0     C56120   9.921   6.106   4.905 -0.0283 -0.7413  0.3326
  426MOL0     C56121   9.776   6.083   4.856  0.2281 -0.7753  0.4620
  426MOL0     C56122   9.691   6.223   4.839  0.1926  0.0691 -0.2949
  426MOL0     C56123   9.543   6.203   4.865 -0.2463  0.1754  0.4462
  426MOL0     O56124   9.479   6.142   4.751  0.4572  0.1698  0.3842
  426MOL0     C56125   9.345   6.178   4.745  0.3044 -1.4854  1.1496
  426MOL0     C56126   9.292   6.264   4.643  0.4646  0.2651  0.3697
  426MOL0     C56127   9.157   6.293   4.644  0.1560 -0.3506  0.6059
  426MOL0     C56128   9.066   6.239   4.728 -0.1847  0.1612 -0.7766
  426MOL0     C56129   8.931   6.289   4.729 -0.2638  0.3265  0.2214
  426MOL0     O56130   8.896   6.388   4.644 -0.5021 -0.1295 -0.1707
  426MOL0     C56131   8.762   6.402   4.638  0.5640 -0.0613 -0.6571
  426MOL0     C56132   8.685   6.465   4.739 -0.2673  0.4006 -1.0038
  426MOL0     C56133   8.552   6.500   4.712  0.1627  0.0080  0.2868
  426MOL0     C56134   8.488   6.478   4.593 -0.1387 -0.3103 -0.3744
  426MOL0     O56135   8.359   6.516   4.586 -1.7062 -0.8624 -0.5020
  426MOL0     C56136   8.280   6.444   4.492 -0.7127 -0.3685 -0.1948
  426MOL0     C56137   8.238   6.316   4.563 -0.0846  0.8423  0.2748
  426MOL0     C56138   8.081   6.309   4.568 -0.0450 -0.1711  0.1196
  426MOL0     C56139   8.007   6.410   4.656  0.3046  0.0904 -0.0917
  426MOL0     C56140   7.863   6.359   4.674  0.6869  1.0410 -0.3179
  426MOL0     C56141   7.771   6.469   4.722 -0.4420 -1.2818 -0.3767
  426MOL0     C56142   7.619   6.430   4.699  0.0026  0.9325  0.1949
  426MOL0     C56143   7.533   6.538   4.761 -0.6456 -0.3145 -0.2442
  426MOL0    Cl56144   7.517   6.684   4.666  0.2803 -0.2983 -0.0257
  426MOL0     C56145   8.569   6.434   4.489  0.4845 -0.4247 -0.3829
  426MOL0     C56146   8.705   6.398   4.510  0.0375 -0.1651 -0.4048
  426MOL0     O56147   8.860   6.239   4.814  0.2738 -0.0689  0.3193
  426MOL0     C56148   9.116   6.158   4.835 -0.1135 -0.1033  0.1629
  426MOL0     C56149   9.257   6.120   4.839  0.3320 -0.1758 -0.3135
  426MOL0     N56150   9.987   5.851   4.881 -0.5051  0.4127 -0.8606
  426MOL0     N56151  10.041   5.760   4.954  0.3435 -0.7838  0.3562
  426MOL0     C56152   9.969   4.949   5.631  0.4964  0.8413  0.0420
  426MOL0     C56153  10.055   4.884   5.722  0.6218 -0.1215 -1.4207
  426MOL0     C56154  10.321   4.685   5.960 -0.5614  0.0271  0.4110
  426MOL0     C56155  10.396   4.773   6.045 -0.9423 -0.1788 -0.2766
  426MOL0     C56156  10.516   4.736   6.099  0.0417  0.5454  0.0593
  426MOL0     C56157  10.573   4.611   6.084  0.4973  0.5182 -0.0843
  426MOL0     O56158  10.701   4.571   6.133 -0.5125  0.5588  0.1597
  426MOL0     C56159  10.787   4.653   6.216 -0.5877  0.4409 -0.2922
  426MOL0     C56160  10.927   4.604   6.215 -0.5660 -0.0510 -0.6818
  426MOL0     C56161  10.933   4.452   6.261 -0.1997  0.2232  0.6924
  426MOL0     C56162  10.896   4.444   6.420 -0.2599 -0.4598  0.3693
  426MOL0     C56163  10.871   4.302   6.455  0.2868 -0.5721 -0.6808
  426MOL0     C56164  10.828   4.198   6.501  0.2777  0.1176  0.1521
  426MOL0     C56165  10.506   4.529   5.989 -0.4352  0.1692 -0.0943
  426MOL0     C56166  10.384   4.565   5.933  0.2944 -0.4064  0.1859
  426MOL0     H56167   9.924   4.970   6.020  2.2834 -2.4600  0.3399
  426MOL0     H56168   9.792   5.134   5.853  0.5275  0.1863 -0.6143
  426MOL0     H56169   9.761   5.039   5.430  2.5692 -2.6684  2.0866
  426MOL0     H56170   9.915   5.118   5.422 -0.2493  2.6226 -2.3936
  426MOL0     H56171   9.641   5.257   5.429 -0.7255  0.3949 -3.2625
  426MOL0     H56172   9.721   5.218   5.288 -0.9954 -0.9162  0.1681
  426MOL0     H56173   9.894   5.371   5.312  0.5471 -0.0902  0.3047
  426MOL0     H56174   9.895   5.373   5.488 -0.9949  1.3721  0.7868
  426MOL0     H56175   9.712   5.526   5.289 -0.1309 -2.0104 -0.4695
  426MOL0     H56176   9.669   5.515   5.464 -0.8902  1.7270 -1.5961
  426MOL0     H56177   9.876   5.634   5.513 -3.5393  1.2934  0.9525
  426MOL0     H56178   9.796   5.737   5.401  0.7915  0.2692 -1.5166
  426MOL0     H56179   9.922   5.618   5.224 -1.4815 -0.4752 -0.3015
  426MOL0     H56180  10.034   5.553   5.338  1.9453  1.3930  1.9396
  426MOL0     H56181   9.967   5.854   5.311  1.1860  2.4153 -2.3482
  426MOL0     H56182  10.090   5.779   5.411  0.3158  1.1749 -0.4465
  426MOL0     H56183  10.156   5.669   5.178 -0.1535  0.6564 -1.0910
  426MOL0     H56184  10.226   5.823   5.207  1.5751 -3.2673 -2.2087
  426MOL0     H56185  10.024   6.024   5.156  1.8700 -2.7804  2.5238
  426MOL0     H56186   9.986   6.144   4.826  1.8435 -1.8819  1.2332
  426MOL0     H56187   9.926   6.177   4.989  0.5783  0.9596 -1.0774
  426MOL0     H56188   9.720   6.023   4.927 -0.5140 -2.6478 -1.5883
  426MOL0     H56189   9.773   6.022   4.765  2.8331  1.8119 -1.5828
  426MOL0     H56190   9.741   6.290   4.909  0.3504  0.7783 -1.0661
  426MOL0     H56191   9.707   6.260   4.737  1.2934  0.4466  0.0091
  426MOL0     H56192   9.499   6.300   4.890 -1.3268  0.2566 -1.5798
  426MOL0     H56193   9.541   6.144   4.957 -0.5007  1.7783  1.5064
  426MOL0     H56194   9.365   6.314   4.581  1.2710 -0.9967  0.2665
  426MOL0     H56195   9.125   6.375   4.580 -1.3813 -0.6038  1.0104
  426MOL0     H56196   8.728   6.501   4.832 -1.4748 -0.4409 -0.0857
  426MOL0     H56197   8.495   6.552   4.788  0.3764  1.8438 -0.7400
  426MOL0     H56198   8.323   6.420   4.395 -0.3019 -0.3343 -0.0213
  426MOL0     H56199   8.196   6.513   4.478 -2.7040 -1.6959  3.6108
  426MOL0     H56200   8.290   6.307   4.659 -0.8936 -1.8145  0.5358
  426MOL0     H56201   8.281   6.238   4.500 -0.8638  1.9751 -1.7676
  426MOL0     H56202   8.058   6.207   4.599  2.2385 -1.3652 -1.8148
  426MOL0     H56203   8.044   6.323   4.466 -1.9771 -4.1003  0.1245
  426MOL0     H56204   8.055   6.414   4.754 -0.5133 -1.3043  0.3935
  426MOL0     H56205   8.003   6.507   4.606 -0.9582 -0.7147 -1.6390
  426MOL0     H56206   7.864   6.263   4.727 -3.0416  0.6506 -0.7350
  426MOL0     H56207   7.834   6.338   4.571  0.8955 -0.0363 -0.1682
  426MOL0     H56208   7.786   6.558   4.660 -0.1599 -0.4722  0.8103
  426MOL0     H56209   7.796   6.498   4.825 -3.5631  1.3374 -0.1770
  426MOL0     H56210   7.591   6.401   4.597 -3.4743  0.7344  1.0829
  426MOL0     H56211   7.591   6.338   4.750  1.4918  1.7482  2.6473
  426MOL0     H56212   7.579   6.565   4.857  2.5555  0.7480 -1.9011
  426MOL0     H56213   7.432   6.499   4.774  0.1130 -2.7672 -1.0628
  426MOL0     H56214   8.544   6.423   4.385  0.0771 -0.4368 -0.2835
  426MOL0     H56215   8.770   6.362   4.430  0.2538 -2.8006  0.8643
  426MOL0     H56216   9.048   6.111   4.906 -1.1287  1.3703  0.1974
  426MOL0     H56217   9.300   6.046   4.905  4.1671  0.5636 -1.7402
  426MOL0     H56218   9.984   4.938   5.524  2.9764 -0.2019  0.4357
  426MOL0     H56219  10.149   4.841   5.688  1.0378  0.2267 -0.7293
  426MOL0     H56220  10.360   4.871   6.075  1.0986  0.7777 -0.8407
  426MOL0     H56221  10.577   4.799   6.164 -2.7098  2.3789  1.0202
  426MOL0     H56222  10.758   4.653   6.321 -0.4520  2.0789 -0.2171
  426MOL0     H56223  10.794   4.758   6.183 -1.9194  0.0275 -2.0868
  426MOL0     H56224  10.971   4.599   6.115 -1.1174 -0.2293 -0.9162
  426MOL0     H56225  10.987   4.672   6.277 -0.7499  0.5868 -1.1949
  426MOL0     H56226  11.027   4.401   6.241 -1.2013 -2.1244  1.6684
  426MOL0     H56227  10.863   4.388   6.207  3.2731 -1.0191 -2.6949
  426MOL0     H56228  10.981   4.465   6.484 -2.6621  0.1539  3.5970
  426MOL0     H56229  10.818   4.514   6.452 -0.2915  0.2612 -1.1620
  426MOL0     H56230  10.798   4.111   6.555 -1.3130  1.0400  0.8418
  426MOL0     H56231  10.555   4.434   5.968 -0.1137 -0.6068  3.5637
  426MOL0     H56232  10.329   4.502   5.864 -1.7340  1.0866  0.3635
  427MOL0     O56233   9.168   5.569   4.714  0.3209  0.2019  0.2405
  427MOL0     C56234   9.249   5.654   4.753 -0.2757  0.3393 -0.5175
  427MOL0     O56235   9.227   5.755   4.849 -0.0959  0.1828  0.7089
  427MOL0     C56236   9.100   5.781   4.881  0.4048  0.6905  0.5472
  427MOL0     C56237   9.003   5.806   4.784 -0.6542 -0.6529  0.5193
  427MOL0     C56238   8.871   5.840   4.825 -0.2130 -0.2384  0.3672
  427MOL0     C56239   8.834   5.849   4.960  0.2038 -0.5506  0.5645
  427MOL0     O56240   8.713   5.901   5.010 -0.2721  0.3616 -0.6036
  427MOL0     C56241   8.644   5.992   4.926  0.6360  0.0769 -0.6651
  427MOL0     C56242   8.534   6.065   5.000  0.0718  0.4059 -0.3700
  427MOL0     C56243   8.452   6.160   4.913  0.9358 -0.0299  0.6066
  427MOL0     C56244   8.381   6.274   4.998 -0.1170 -1.0072 -0.2329
  427MOL0     C56245   8.241   6.315   4.949 -0.1233  0.4515  0.5218
  427MOL0     C56246   8.177   6.374   5.071  0.9193 -0.5669  0.3841
  427MOL0     C56247   8.021   6.402   5.037 -0.3332 -0.0976  0.2361
  427MOL0     C56248   7.976   6.481   5.150 -0.0053  0.1783  0.1589
  427MOL0     N56249   7.835   6.520   5.133 -0.0274  0.5005  0.3820
  427MOL0     C56250   7.783   6.644   5.167  0.0066 -0.1567 -0.9239
  427MOL0     C56251   7.654   6.627   5.166  0.4537  0.7948  0.0485
  427MOL0     C56252   7.563   6.749   5.178 -0.4380  0.0827  0.7382
  427MOL0     C56253   7.460   6.731   5.289 -0.2638 -0.4960  0.1018
  427MOL0     C56254   7.322   6.711   5.232 -0.4895  0.5050  0.1059
  427MOL0     C56255   7.232   6.700   5.357  0.4428 -0.2608  0.4545
  427MOL0     O56256   7.097   6.678   5.308 -0.5339 -0.0579  0.2195
  427MOL0     C56257   7.013   6.587   5.366  0.6695 -0.3696 -0.1973
  427MOL0     C56258   7.046   6.491   5.465  0.3672 -0.8015  0.0446
  427MOL0     C56259   6.946   6.405   5.516  0.5991 -0.4480  0.1836
  427MOL0     C56260   6.817   6.413   5.474 -0.0522  0.3233 -0.1374
  427MOL0     C56261   6.702   6.341   5.543 -0.6865 -0.1090  0.1842
  427MOL0     O56262   6.574   6.381   5.510  0.3568  0.0847 -0.1567
  427MOL0     C56263   6.485   6.283   5.495 -0.0651  0.6384  0.2305
  427MOL0     C56264   6.360   6.297   5.556  0.0126 -0.7757  0.3431
  427MOL0     C56265   6.260   6.198   5.543  0.3842  0.5629  0.3380
  427MOL0     C56266   6.280   6.077   5.484 -0.4051 -0.9816 -1.0218
  427MOL0     O56267   6.177   5.994   5.455 -0.1362  0.2433  0.3669
  427MOL0     C56268   6.059   6.004   5.520  0.1512  0.7131 -0.5250
  427MOL0     C56269   5.970   5.875   5.508  0.6605  0.2564 -0.4566
  427MOL0     C56270   5.830   5.900   5.568 -0.6096  0.4352 -0.8796
  427MOL0     C56271   5.742   5.785   5.543 -0.0655 -0.2583  0.7930
  427MOL0     C56272   5.612   5.802   5.622 -0.4580  0.3855 -0.0035
  427MOL0     C56273   5.532   5.673   5.604 -0.4013  0.1176  0.0512
  427MOL0     C56274   5.414   5.668   5.705  0.1949 -0.2470  0.5456
  427MOL0     C56275   5.333   5.542   5.684 -0.2278  0.6553 -1.3040
  427MOL0    Cl56276   5.175   5.565   5.762  0.5084  0.0647  0.0997
  427MOL0     C56277   6.410   6.050   5.431 -0.1816  0.2742  0.1782
  427MOL0     C56278   6.514   6.151   5.442  0.1981  0.3891 -0.2700
  427MOL0     O56279   6.736   6.248   5.618  0.0606  0.0427 -0.4042
  427MOL0     C56280   6.791   6.496   5.370  1.0031  0.1378 -0.3090
  427MOL0     C56281   6.883   6.580   5.307  0.7125  0.8710 -0.3284
  427MOL0     N56282   7.626   6.495   5.132 -0.5931 -0.9721 -0.8488
  427MOL0     N56283   7.736   6.432   5.127  0.0800  0.8096  0.7967
  427MOL0     C56284   8.939   5.812   5.051  1.3528 -0.5539 -0.4136
  427MOL0     C56285   9.068   5.794   5.012  0.5920 -0.3270 -0.6822
  427MOL0     C56286   9.390   5.632   4.719  0.2569  0.5568 -0.7969
  427MOL0     C56287   9.477   5.740   4.728 -0.2554 -0.8560 -0.6878
  427MOL0     C56288   9.615   5.725   4.686 -0.4240  0.2614 -0.3112
  427MOL0     C56289   9.672   5.598   4.658 -0.2720 -0.4729 -0.0697
  427MOL0     O56290   9.803   5.571   4.606  0.2775  0.2878 -0.3915
  427MOL0     C56291   9.891   5.682   4.625 -0.4792  0.1116  0.1088
  427MOL0     C56292  10.028   5.651   4.554 -0.5127 -0.4828  0.2244
  427MOL0     C56293  10.079   5.512   4.603 -0.1109 -0.3949 -1.0617
  427MOL0     C56294  10.230   5.504   4.567  0.7178  0.4815 -0.4093
  427MOL0     C56295  10.251   5.484   4.421 -0.1300 -0.2797  0.6073
  427MOL0     C56296  10.251   5.451   4.304 -0.7829  0.1168  0.5451
  427MOL0     C56297   9.584   5.494   4.663 -1.3143  0.4791 -0.2861
  427MOL0     C56298   9.447   5.505   4.687 -0.1733 -0.2877 -0.0842
  427MOL0     H56299   9.033   5.802   4.680 -1.1959 -2.1180  0.4005
  427MOL0     H56300   8.792   5.866   4.755  0.6898 -1.6088 -1.2283
  427MOL0     H56301   8.598   5.944   4.839 -1.6666 -2.8968  1.9237
  427MOL0     H56302   8.717   6.065   4.890  0.6846 -0.4261 -1.6058
  427MOL0     H56303   8.574   6.135   5.074 -0.7078  1.4734 -0.9412
  427MOL0     H56304   8.469   5.992   5.049 -0.9335  3.6543  3.7350
  427MOL0     H56305   8.388   6.106   4.843  0.3278  2.8420 -1.2234
  427MOL0     H56306   8.519   6.200   4.837 -1.2452 -2.5443 -2.9784
  427MOL0     H56307   8.353   6.230   5.094 -2.3110 -0.7228 -0.6873
  427MOL0     H56308   8.445   6.361   5.011 -1.8891  0.5065 -1.1557
  427MOL0     H56309   8.199   6.220   4.915  1.2053  0.2648 -0.6827
  427MOL0     H56310   8.234   6.382   4.863 -1.2147 -0.0958  0.1558
  427MOL0     H56311   8.223   6.471   5.088  0.0081 -0.5348  3.2006
  427MOL0     H56312   8.178   6.317   5.165 -2.5668  0.9624  1.5261
  427MOL0     H56313   8.012   6.456   4.942 -1.0580  0.3635  0.5578
  427MOL0     H56314   7.965   6.308   5.036 -0.6195  0.0468  1.3367
  427MOL0     H56315   8.041   6.566   5.175  1.9635 -1.6487  1.7128
  427MOL0     H56316   7.988   6.414   5.236 -0.6522 -3.0802 -2.1174
  427MOL0     H56317   7.838   6.731   5.202 -1.4438  0.6526 -0.5882
  427MOL0     H56318   7.525   6.783   5.082  3.2407  1.5788 -0.3745
  427MOL0     H56319   7.625   6.832   5.213 -1.1853  2.0370 -2.2852
  427MOL0     H56320   7.452   6.828   5.340 -1.0521  0.7653 -2.2774
  427MOL0     H56321   7.491   6.660   5.366  1.5372 -0.5617 -0.6364
  427MOL0     H56322   7.292   6.798   5.173 -1.8672  1.1818  1.7172
  427MOL0     H56323   7.335   6.621   5.171  2.0305  0.1790  1.0049
  427MOL0     H56324   7.223   6.782   5.428 -1.4235  0.5982 -0.7106
  427MOL0     H56325   7.261   6.616   5.421 -3.0925 -2.0783 -0.0739
  427MOL0     H56326   7.141   6.487   5.517  0.3361 -4.5765  0.0366
  427MOL0     H56327   6.983   6.331   5.586 -1.2976 -1.2282  0.4098
  427MOL0     H56328   6.349   6.388   5.615  2.5879  0.2874 -0.6757
  427MOL0     H56329   6.160   6.231   5.570  0.0742  0.3434 -0.5053
  427MOL0     H56330   6.005   6.089   5.478 -2.2254  0.3526  1.5589
  427MOL0     H56331   6.078   6.020   5.626  0.7589  1.2721 -0.7182
  427MOL0     H56332   6.017   5.795   5.565 -1.5365  0.0946  1.2367
  427MOL0     H56333   5.956   5.851   5.402 -0.1998 -0.4097 -0.2087
  427MOL0     H56334   5.774   5.987   5.532 -0.1379  1.2763  0.3346
  427MOL0     H56335   5.842   5.920   5.674 -1.3318  2.6581 -1.1576
  427MOL0     H56336   5.710   5.775   5.439  2.4942 -1.7342  0.0674
  427MOL0     H56337   5.788   5.692   5.578  0.0271 -0.5392 -0.0598
  427MOL0     H56338   5.559   5.889   5.583 -0.5026 -0.1899 -1.2791
  427MOL0     H56339   5.639   5.817   5.727  1.7918  1.8704 -0.7127
  427MOL0     H56340   5.591   5.581   5.612  0.1241  0.4780  0.3516
  427MOL0     H56341   5.503   5.673   5.499  2.5042 -0.8282 -0.8264
  427MOL0     H56342   5.447   5.667   5.809 -0.7798  0.2388  0.8682
  427MOL0     H56343   5.347   5.750   5.680 -0.6712 -1.2418 -0.5181
  427MOL0     H56344   5.386   5.469   5.745  2.5774  2.0342 -1.9091
  427MOL0     H56345   5.336   5.519   5.577 -0.6038  2.2496 -1.6794
  427MOL0     H56346   6.419   5.952   5.384 -2.6862 -2.0031  3.8884
  427MOL0     H56347   6.612   6.117   5.411  1.8492 -1.3891  5.6514
  427MOL0     H56348   6.696   6.501   5.319  0.3096 -2.3863  0.5833
  427MOL0     H56349   6.850   6.640   5.223  0.5980  2.2794  0.6820
  427MOL0     H56350   8.909   5.799   5.154  0.8752 -1.8664 -0.6935
  427MOL0     H56351   9.137   5.770   5.093  2.6186  1.5387 -1.7640
  427MOL0     H56352   9.447   5.830   4.780 -0.9149 -1.3935 -0.1227
  427MOL0     H56353   9.678   5.814   4.689  0.1337 -0.1006  3.3652
  427MOL0     H56354   9.917   5.694   4.731  3.3609  1.0385 -0.7739
  427MOL0     H56355   9.856   5.780   4.590  1.8147  1.4072  1.2013
  427MOL0     H56356  10.014   5.653   4.445  1.0891  2.4409 -0.0266
  427MOL0     H56357  10.102   5.731   4.565 -0.0867 -0.4050 -2.4867
  427MOL0     H56358  10.026   5.428   4.558  0.3884 -1.2105 -0.1725
  427MOL0     H56359  10.050   5.485   4.705 -2.5034 -3.1254 -2.3272
  427MOL0     H56360  10.277   5.596   4.603 -0.4007  0.7968  0.2811
  427MOL0     H56361  10.282   5.419   4.610  1.6600  0.8643 -0.7534
  427MOL0     H56362  10.274   5.427   4.202  1.6811  0.9330  0.8334
  427MOL0     H56363   9.619   5.396   4.632 -0.7024  0.8518 -0.7857
  427MOL0     H56364   9.375   5.424   4.682  0.1179 -0.6388  1.0267
  428MOL0     O56365   2.212   9.658   2.987  0.5053  0.5807  0.9040
  428MOL0     C56366   2.232   9.545   2.953 -0.8546  0.2647  0.1134
  428MOL0     O56367   2.139   9.459   2.896 -0.2649 -0.1766  0.3232
  428MOL0     C56368   2.036   9.506   2.817  0.3682 -0.0301 -0.1568
  428MOL0     C56369   1.958   9.621   2.831  0.3292  0.4431  0.7313
  428MOL0     C56370   1.848   9.651   2.742 -0.4303 -0.6155  0.4754
  428MOL0     C56371   1.814   9.569   2.638  0.9010 -0.1934  0.0967
  428MOL0     O56372   1.712   9.583   2.546  0.0027  0.5590 -0.7238
  428MOL0     C56373   1.628   9.703   2.548 -1.2170  0.1743  0.4620
  428MOL0     C56374   1.523   9.714   2.643  0.6191  1.1435 -0.7726
  428MOL0     C56375   1.431   9.595   2.648 -0.2424 -0.2339  0.5567
  428MOL0     C56376   1.338   9.596   2.770 -0.2004 -0.5303  0.5488
  428MOL0     C56377   1.211   9.675   2.744  0.4139  0.7547 -0.2216
  428MOL0     C56378   1.093   9.608   2.820 -0.6418 -0.3849 -0.2840
  428MOL0     C56379   0.961   9.682   2.815  0.1560 -0.1800 -0.3625
  428MOL0     C56380   0.881   9.672   2.686 -0.7872  0.1650 -1.0501
  428MOL0     N56381   0.837   9.534   2.659  0.6975  0.3853  0.0627
  428MOL0     C56382   0.903   9.447   2.574  0.6329 -0.5766 -0.0765
  428MOL0     C56383   0.810   9.349   2.555 -0.1696 -0.3038  0.7630
  428MOL0     C56384   0.844   9.224   2.484 -0.7591 -0.3426 -0.2325
  428MOL0     C56385   0.958   9.125   2.524 -1.3935  0.1735  0.5137
  428MOL0     C56386   0.982   9.093   2.675 -0.4837 -0.6167  0.0473
  428MOL0     C56387   1.051   9.218   2.747  0.7575 -0.0156 -0.7755
  428MOL0     O56388   1.170   9.283   2.695  0.3540  0.4420 -0.0581
  428MOL0     C56389   1.280   9.207   2.683  0.3230  0.2295 -0.5316
  428MOL0     C56390   1.307   9.071   2.739 -0.3925  0.2086  0.3312
  428MOL0     C56391   1.429   9.003   2.710  0.9587 -0.0243  0.4337
  428MOL0     C56392   1.521   9.068   2.629 -0.9623  0.3111  0.2015
  428MOL0     C56393   1.655   9.016   2.605  0.1534  0.4743 -0.5231
  428MOL0     O56394   1.749   9.099   2.559  0.3361 -0.5621 -0.0968
  428MOL0     C56395   1.875   9.046   2.541 -0.3975 -0.2275  0.2627
  428MOL0     C56396   1.950   8.974   2.633  0.0051 -0.7459 -0.3919
  428MOL0     C56397   2.082   8.946   2.603 -0.5337 -0.1113  0.7547
  428MOL0     C56398   2.134   8.974   2.467  0.4094  0.0351 -0.4459
  428MOL0     O56399   2.258   8.932   2.423  0.0301 -0.3681 -0.0288
  428MOL0     C56400   2.352   8.895   2.523 -0.3989 -1.2655  0.1403
  428MOL0     C56401   2.489   8.865   2.471  0.3408 -0.0831  0.6256
  428MOL0     C56402   2.496   8.717   2.434  0.1260  0.4783 -0.5848
  428MOL0     C56403   2.641   8.684   2.420 -0.4221  0.2333  0.3598
  428MOL0     C56404   2.688   8.534   2.393  0.6443 -0.0190 -0.6033
  428MOL0     C56405   2.592   8.462   2.283  0.3693  0.8076  1.3216
  428MOL0     C56406   2.621   8.307   2.260  0.0474 -0.4159  0.0744
  428MOL0     C56407   2.583   8.253   2.128 -0.1240  0.2541 -0.6574
  428MOL0    Cl56408   2.410   8.283   2.085 -0.0102  0.2752 -0.2324
  428MOL0     C56409   2.051   9.041   2.376  0.1145  0.3422 -0.8966
  428MOL0     C56410   1.919   9.082   2.415 -1.0108 -0.5079 -1.1362
  428MOL0     O56411   1.675   8.898   2.621 -0.7212  0.2651  0.0957
  428MOL0     C56412   1.502   9.200   2.577 -0.0682  0.3199  0.4747
  428MOL0     C56413   1.382   9.264   2.602  0.8279 -0.3275 -1.1638
  428MOL0     N56414   0.689   9.381   2.609  0.0150  0.2900 -0.5209
  428MOL0     N56415   0.709   9.494   2.667 -0.2100  0.1503 -1.2050
  428MOL0     C56416   1.897   9.456   2.615 -0.1159 -0.0025 -0.3849
  428MOL0     C56417   2.005   9.429   2.697  0.4227  0.4277 -0.0027
  428MOL0     C56418   2.368   9.490   2.981  0.4937 -0.3063  0.1034
  428MOL0     C56419   2.391   9.357   2.966 -0.1192  0.2243  0.0125
  428MOL0     C56420   2.521   9.305   2.988 -0.3262 -0.0335  0.4918
  428MOL0     C56421   2.629   9.389   3.019  0.5111 -0.0479  0.3790
  428MOL0     O56422   2.750   9.326   3.051 -0.4478 -0.1847  0.4693
  428MOL0     C56423   2.867   9.404   3.062 -0.0881  0.0581  0.1835
  428MOL0     C56424   2.990   9.323   3.008 -0.8777 -0.0422 -0.2363
  428MOL0     C56425   3.112   9.412   3.025  0.4740  0.5732  1.0445
  428MOL0     C56426   3.113   9.525   2.915 -0.6034  0.5565  0.1733
  428MOL0     C56427   3.246   9.545   2.861 -0.5398  0.9689 -0.3287
  428MOL0     C56428   3.352   9.584   2.814  0.4158  0.0845  0.2040
  428MOL0     C56429   2.598   9.524   3.033 -0.5858  0.8142  0.4483
  428MOL0     C56430   2.470   9.577   3.016  0.0500 -0.0946 -0.8984
  428MOL0     H56431   1.968   9.697   2.908 -3.3405  0.7921  1.0408
  428MOL0     H56432   1.777   9.732   2.763  0.8523  0.3729  1.1768
  428MOL0     H56433   1.584   9.713   2.448 -0.3443 -0.5371 -0.0094
  428MOL0     H56434   1.696   9.789   2.559  0.8580 -1.5002  1.3910
  428MOL0     H56435   1.466   9.808   2.641  1.7167  1.8822  0.8441
  428MOL0     H56436   1.567   9.714   2.743  4.2907 -1.9518 -2.1691
  428MOL0     H56437   1.497   9.509   2.665 -0.7858 -0.0484  4.6386
  428MOL0     H56438   1.368   9.593   2.559 -2.7454 -2.5744  2.2357
  428MOL0     H56439   1.311   9.490   2.775 -3.8485 -0.3477 -5.4033
  428MOL0     H56440   1.397   9.633   2.855  0.8328 -1.1041  0.0982
  428MOL0     H56441   1.177   9.683   2.641 -0.8385  1.4339  0.2231
  428MOL0     H56442   1.231   9.774   2.786  0.3040  0.5810  0.2459
  428MOL0     H56443   1.120   9.592   2.925  0.1613 -3.5901 -0.8413
  428MOL0     H56444   1.087   9.509   2.773  3.1696 -1.4435  1.0649
  428MOL0     H56445   0.898   9.649   2.898  0.7600  0.2954  0.2975
  428MOL0     H56446   0.974   9.785   2.852  0.1074 -0.6260  0.9684
  428MOL0     H56447   0.947   9.701   2.604  1.0224 -4.1165 -1.3662
  428MOL0     H56448   0.791   9.734   2.692 -3.0569 -2.7912 -1.8868
  428MOL0     H56449   1.002   9.464   2.532 -0.2160 -1.3780 -2.5842
  428MOL0     H56450   0.871   9.253   2.382  0.0458  1.3098  0.4167
  428MOL0     H56451   0.754   9.162   2.491  1.0239 -3.0772 -0.2875
  428MOL0     H56452   1.051   9.164   2.484 -0.1249  0.0195  3.0707
  428MOL0     H56453   0.936   9.033   2.469  0.7944  0.2248 -0.5281
  428MOL0     H56454   0.886   9.061   2.717 -0.3639 -0.7783  0.2026
  428MOL0     H56455   1.048   9.007   2.690  1.6996  1.3466  2.9840
  428MOL0     H56456   1.072   9.179   2.847  1.8725  3.2559  0.3999
  428MOL0     H56457   0.977   9.297   2.759  1.1330  0.2401 -0.0770
  428MOL0     H56458   1.240   9.021   2.809  3.2442 -5.6509  0.3088
  428MOL0     H56459   1.438   8.907   2.760  0.0061 -0.2955  0.1221
  428MOL0     H56460   1.921   8.970   2.737 -1.8807  0.3808 -0.8218
  428MOL0     H56461   2.136   8.897   2.684 -1.5333 -0.5746  1.1607
  428MOL0     H56462   2.322   8.801   2.569 -0.7194 -1.6041 -0.7494
  428MOL0     H56463   2.359   8.970   2.603 -0.5197 -2.6913  1.5296
  428MOL0     H56464   2.557   8.892   2.551  1.4379 -2.2340  0.4821
  428MOL0     H56465   2.518   8.927   2.386 -1.0438 -1.6659 -1.0931
  428MOL0     H56466   2.444   8.703   2.339 -1.5922  0.7298  0.2828
  428MOL0     H56467   2.452   8.655   2.512 -0.8859 -1.1912 -2.4033
  428MOL0     H56468   2.672   8.727   2.325  1.5876  0.3728  1.0341
  428MOL0     H56469   2.703   8.740   2.491  0.3324  2.6282 -2.0511
  428MOL0     H56470   2.665   8.490   2.491 -0.8007 -0.6836 -1.2128
  428MOL0     H56471   2.792   8.528   2.360  0.9011 -0.3323  0.2266
  428MOL0     H56472   2.613   8.505   2.184  1.0634 -0.5618  0.8454
  428MOL0     H56473   2.489   8.484   2.310  0.0510 -0.5357  1.2534
  428MOL0     H56474   2.729   8.294   2.270 -0.0317  0.3521  3.1057
  428MOL0     H56475   2.580   8.246   2.342 -2.8204  1.2521  0.0059
  428MOL0     H56476   2.607   8.147   2.136  3.1546  1.0293  2.1269
  428MOL0     H56477   2.639   8.282   2.039  1.6300 -1.2183 -0.1080
  428MOL0     H56478   2.091   9.056   2.276 -1.2575  0.2892 -1.4765
  428MOL0     H56479   1.867   9.145   2.344  2.2671  3.1178 -0.6733
  428MOL0     H56480   1.567   9.254   2.509  0.3749  0.9554  1.3884
  428MOL0     H56481   1.358   9.362   2.560  1.2451  1.0925  1.6728
  428MOL0     H56482   1.880   9.384   2.536 -2.1168 -1.2533  1.1021
  428MOL0     H56483   2.071   9.346   2.676  1.4096  1.4925 -1.2606
  428MOL0     H56484   2.307   9.292   2.942  1.7625 -1.7292 -1.6374
  428MOL0     H56485   2.539   9.199   2.975  0.0423  0.2579 -1.7437
  428MOL0     H56486   2.888   9.432   3.166 -0.9376  3.0618 -0.3377
  428MOL0     H56487   2.861   9.491   2.995 -1.2168 -2.1408 -2.7773
  428MOL0     H56488   3.003   9.230   3.065 -1.4960  0.5530  0.9047
  428MOL0     H56489   2.980   9.302   2.901 -0.4463 -2.1974  0.0928
  428MOL0     H56490   3.204   9.353   3.017  0.7626  0.9708  1.3508
  428MOL0     H56491   3.115   9.460   3.124 -0.2069  1.3824  0.6871
  428MOL0     H56492   3.055   9.503   2.824 -0.2378  1.1979 -0.2216
  428MOL0     H56493   3.089   9.615   2.973 -0.3615  0.4088  0.5058
  428MOL0     H56494   3.442   9.630   2.779  0.5201 -0.8297 -0.7675
  428MOL0     H56495   2.685   9.589   3.038  1.5034 -1.7877  0.4355
  428MOL0     H56496   2.449   9.682   3.032 -0.6420 -0.2332 -0.8789
  429MOL0     O56497   5.749   2.894   5.177  0.3986 -0.2557  0.1129
  429MOL0     C56498   5.806   2.938   5.080  0.6762 -0.1388  0.6758
  429MOL0     O56499   5.756   2.927   4.950  0.1808 -0.4447 -0.4077
  429MOL0     C56500   5.629   2.900   4.931 -0.6457  0.1824 -0.5211
  429MOL0     C56501   5.582   2.768   4.944 -0.5034 -0.1520  0.3048
  429MOL0     C56502   5.444   2.741   4.941 -0.2261  0.1098 -0.0515
  429MOL0     C56503   5.361   2.836   4.879  0.0149 -0.1995  0.4335
  429MOL0     O56504   5.233   2.797   4.863  0.6083 -0.3146  0.4013
  429MOL0     C56505   5.134   2.887   4.814  0.1408  0.0670  0.1849
  429MOL0     C56506   5.013   2.808   4.798  0.8577 -0.8926  0.5179
  429MOL0     C56507   4.885   2.893   4.832 -0.2891  0.1583 -1.0347
  429MOL0     C56508   4.753   2.823   4.803  0.7888  0.5117 -0.1950
  429MOL0     C56509   4.637   2.899   4.865 -0.0361 -0.2410 -0.4686
  429MOL0     C56510   4.508   2.805   4.860 -0.2023 -0.5442 -0.1334
  429MOL0     C56511   4.377   2.874   4.860 -0.4559 -0.1820  0.1988
  429MOL0     C56512   4.261   2.783   4.835 -0.3550  0.2944  0.8918
  429MOL0     N56513   4.119   2.836   4.862  0.0397 -0.1221  0.9135
  429MOL0     C56514   4.087   2.906   4.977 -0.0880 -0.3009  0.4231
  429MOL0     C56515   3.954   2.940   4.955 -0.6298  0.3105 -0.0373
  429MOL0     C56516   3.854   2.990   5.053 -0.3166 -0.3793 -0.5866
  429MOL0     C56517   3.771   2.879   5.129 -0.9234 -0.2836  0.8456
  429MOL0     C56518   3.668   2.964   5.201 -0.3623  0.0845 -0.0352
  429MOL0     C56519   3.568   2.897   5.291 -0.4429  0.5732  0.0961
  429MOL0     O56520   3.508   3.003   5.373  0.0828 -0.0514  0.4323
  429MOL0     C56521   3.415   2.956   5.464 -0.5818  0.2361  0.3139
  429MOL0     C56522   3.382   3.049   5.573  0.9695 -0.3626  0.7780
  429MOL0     C56523   3.308   3.019   5.675  0.4324  0.4020 -0.0726
  429MOL0     C56524   3.260   2.891   5.697  0.4171  0.1002  0.5947
  429MOL0     C56525   3.173   2.861   5.806  0.2637  0.7126  0.8683
  429MOL0     O56526   3.198   2.921   5.923  0.2202 -0.0973 -0.3268
  429MOL0     C56527   3.103   2.904   6.025 -0.6221 -1.0345  0.8862
  429MOL0     C56528   3.132   2.819   6.131  0.0623  0.2662  0.3344
  429MOL0     C56529   3.035   2.813   6.228  0.3680 -0.3329 -0.0744
  429MOL0     C56530   2.907   2.881   6.218  0.3635  0.1012 -1.0837
  429MOL0     O56531   2.806   2.869   6.310  0.0374 -0.5784 -0.5658
  429MOL0     C56532   2.808   2.760   6.397 -0.9573  0.4646 -0.3123
  429MOL0     C56533   2.677   2.740   6.463 -0.2170  0.3711 -0.2691
  429MOL0     C56534   2.585   2.651   6.379 -0.4675  0.7188 -0.0960
  429MOL0     C56535   2.444   2.641   6.442  0.2047  0.1263 -0.6245
  429MOL0     C56536   2.364   2.552   6.353 -0.5418 -0.6459  1.0771
  429MOL0     C56537   2.433   2.414   6.333  1.1940  0.1553 -0.5095
  429MOL0     C56538   2.325   2.326   6.258  0.2317 -0.2432 -0.1644
  429MOL0     C56539   2.392   2.193   6.224 -0.0530 -0.7540 -0.9407
  429MOL0    Cl56540   2.410   2.093   6.367  0.0292 -0.0954 -0.0360
  429MOL0     C56541   2.889   2.960   6.115  0.3599  0.4313  0.9006
  429MOL0     C56542   2.981   2.973   6.007  0.6271 -1.5001 -0.1634
  429MOL0     O56543   3.090   2.777   5.783  0.1361  0.2185 -0.5319
  429MOL0     C56544   3.292   2.794   5.594  0.4416  0.0467 -0.1240
  429MOL0     C56545   3.366   2.820   5.481 -0.1070 -0.2697  0.3854
  429MOL0     N56546   3.929   2.897   4.831 -0.5183 -0.3507  0.1263
  429MOL0     N56547   4.024   2.823   4.775  0.5271 -0.4211 -0.2565
  429MOL0     C56548   5.406   2.967   4.850  0.9013  0.5529 -0.1708
  429MOL0     C56549   5.541   3.001   4.881  0.4463 -0.1988  1.1960
  429MOL0     C56550   5.938   2.996   5.091 -0.0240 -0.5574 -0.4448
  429MOL0     C56551   6.008   2.991   5.217 -0.9748 -0.0475  0.2437
  429MOL0     C56552   6.134   3.062   5.221  0.7752  0.3453 -0.6278
  429MOL0     C56553   6.194   3.125   5.115  0.2322  0.0582 -0.1127
  429MOL0     O56554   6.317   3.190   5.122 -0.2793  0.2658 -0.1258
  429MOL0     C56555   6.372   3.223   5.250  0.2848  0.6596 -0.5891
  429MOL0     C56556   6.472   3.333   5.229  0.5316 -0.5048  0.3875
  429MOL0     C56557   6.541   3.372   5.368 -0.3213  0.3896 -0.5928
  429MOL0     C56558   6.629   3.491   5.343  0.5871 -0.2219 -1.0915
  429MOL0     C56559   6.751   3.445   5.283 -0.7477  0.4975  1.0532
  429MOL0     C56560   6.842   3.425   5.212  0.0688  0.5729  0.0160
  429MOL0     C56561   6.129   3.133   4.995  0.4714 -0.3035  0.1636
  429MOL0     C56562   6.007   3.063   4.980  0.3386  0.0040  0.6740
  429MOL0     H56563   5.654   2.701   4.990 -0.5730 -0.6678 -0.3276
  429MOL0     H56564   5.415   2.641   4.971  0.7995  0.0024  0.6519
  429MOL0     H56565   5.146   2.943   4.720 -1.3344  0.6483  0.3166
  429MOL0     H56566   5.128   2.959   4.896 -0.2863  1.1900 -0.8011
  429MOL0     H56567   5.012   2.718   4.860  4.7343 -0.3393  1.6020
  429MOL0     H56568   5.018   2.786   4.691  1.2753 -1.6659  0.6945
  429MOL0     H56569   4.895   2.989   4.782 -1.4023  0.1150 -1.3714
  429MOL0     H56570   4.895   2.908   4.940  3.3893 -2.0786 -0.9029
  429MOL0     H56571   4.741   2.811   4.695  2.7433 -2.7443 -0.1996
  429MOL0     H56572   4.751   2.724   4.849 -1.1131  0.6541  0.1106
  429MOL0     H56573   4.605   2.981   4.799 -0.6021 -0.7894 -0.8827
  429MOL0     H56574   4.664   2.943   4.961 -1.8335  1.4165 -0.6521
  429MOL0     H56575   4.503   2.732   4.941 -1.8532  0.8695  1.1144
  429MOL0     H56576   4.513   2.744   4.770  2.6511 -0.6280 -0.0101
  429MOL0     H56577   4.360   2.928   4.953 -1.4409  0.6502 -0.4495
  429MOL0     H56578   4.370   2.947   4.780  0.1757 -0.6623 -0.3055
  429MOL0     H56579   4.286   2.693   4.892  0.9823 -0.7619 -1.2417
  429MOL0     H56580   4.266   2.759   4.728 -2.0392  1.5159  0.5010
  429MOL0     H56581   4.149   2.908   5.066  0.8603 -3.2398 -0.0861
  429MOL0     H56582   3.785   3.057   5.001 -0.3888  0.8181  0.9859
  429MOL0     H56583   3.902   3.048   5.132 -1.8574  0.0091  0.0941
  429MOL0     H56584   3.836   2.832   5.203  0.5128  1.0554  0.4811
  429MOL0     H56585   3.733   2.804   5.060 -1.8510  0.3646  0.6322
  429MOL0     H56586   3.719   3.030   5.271  0.7245 -1.3170  0.5412
  429MOL0     H56587   3.605   3.013   5.126 -1.2299 -1.3826 -0.3139
  429MOL0     H56588   3.616   2.817   5.348 -2.4019 -0.5226  0.2943
  429MOL0     H56589   3.483   2.852   5.238 -0.7229 -0.2078  1.1715
  429MOL0     H56590   3.424   3.148   5.560 -1.1628  0.5061  0.0543
  429MOL0     H56591   3.294   3.097   5.749  1.9744 -0.3307  1.0463
  429MOL0     H56592   3.223   2.760   6.127 -1.3660 -2.0626 -0.3419
  429MOL0     H56593   3.070   2.751   6.310 -0.7937 -0.3719  0.4140
  429MOL0     H56594   2.868   2.779   6.487 -1.3991 -2.5662  0.7424
  429MOL0     H56595   2.830   2.668   6.343  0.6205  2.0623 -2.5715
  429MOL0     H56596   2.626   2.837   6.476  0.1451  0.5919 -0.4743
  429MOL0     H56597   2.693   2.696   6.561 -2.8665 -0.1711 -0.0066
  429MOL0     H56598   2.637   2.556   6.369  0.2208  1.0357  0.3738
  429MOL0     H56599   2.571   2.702   6.283  1.4906 -0.5466 -1.1134
  429MOL0     H56600   2.455   2.597   6.541  1.6899  0.8137 -0.4562
  429MOL0     H56601   2.390   2.736   6.446 -1.1939 -0.4426 -3.3134
  429MOL0     H56602   2.353   2.604   6.258 -0.4607 -0.7034  1.0356
  429MOL0     H56603   2.260   2.539   6.384 -1.4254 -3.2956 -2.3586
  429MOL0     H56604   2.447   2.369   6.432 -1.3876 -0.8058 -0.4956
  429MOL0     H56605   2.533   2.419   6.290  2.4455  3.8187  2.2386
  429MOL0     H56606   2.226   2.310   6.301 -1.4636  0.5588 -3.4208
  429MOL0     H56607   2.299   2.377   6.165 -0.1101  1.4801  0.8274
  429MOL0     H56608   2.496   2.216   6.200  0.2987  1.3203  2.0156
  429MOL0     H56609   2.346   2.140   6.141 -1.3288  1.0515 -1.4337
  429MOL0     H56610   2.793   3.011   6.125 -0.1894 -0.6285  1.2185
  429MOL0     H56611   2.970   3.046   5.928 -1.0289 -0.9892  0.4939
  429MOL0     H56612   3.254   2.693   5.606  0.9051 -0.4553 -2.4687
  429MOL0     H56613   3.398   2.739   5.416  0.5385  2.0093 -2.3766
  429MOL0     H56614   5.347   3.051   4.816  1.6972  0.1946 -2.5878
  429MOL0     H56615   5.582   3.100   4.866 -0.6531 -0.1550 -2.9406
  429MOL0     H56616   5.960   2.961   5.310 -3.3806  3.3594  0.2907
  429MOL0     H56617   6.180   3.071   5.319  1.4547 -1.6266 -0.7256
  429MOL0     H56618   6.424   3.133   5.287 -0.8602  0.7780  1.4480
  429MOL0     H56619   6.303   3.263   5.324  0.2980 -1.6550  0.8013
  429MOL0     H56620   6.551   3.305   5.159 -0.0611 -3.4775  0.8103
  429MOL0     H56621   6.424   3.422   5.187 -1.8625 -2.5611 -1.4715
  429MOL0     H56622   6.600   3.295   5.418 -4.2900 -1.9277  0.9425
  429MOL0     H56623   6.464   3.408   5.436  0.9598  2.1687 -0.0106
  429MOL0     H56624   6.588   3.568   5.277 -0.4369 -0.2936 -0.5581
  429MOL0     H56625   6.657   3.543   5.435 -1.6754 -0.3381 -0.2809
  429MOL0     H56626   6.926   3.410   5.147  0.3733  2.4183 -0.0661
  429MOL0     H56627   6.174   3.186   4.911 -1.5024  1.5301  0.1727
  429MOL0     H56628   5.964   3.051   4.881 -1.4687 -1.8197  1.6079
  430MOL0     O56629   9.339   1.670   8.046  0.1982  0.6760 -0.4934
  430MOL0     C56630   9.319   1.729   8.154 -0.4456  0.1821 -0.3526
  430MOL0     O56631   9.226   1.822   8.172 -0.3963 -0.0078 -0.5022
  430MOL0     C56632   9.111   1.836   8.096 -0.0499  0.7195 -0.3051
  430MOL0     C56633   9.066   1.961   8.063 -0.5279 -0.1506  0.2191
  430MOL0     C56634   8.951   1.969   7.989 -0.4701 -0.5191 -0.4514
  430MOL0     C56635   8.879   1.857   7.946 -0.3002  0.0032  0.5571
  430MOL0     O56636   8.768   1.872   7.868 -0.3723  0.0613 -0.1010
  430MOL0     C56637   8.640   1.838   7.933 -0.2039 -0.3089 -0.2909
  430MOL0     C56638   8.530   1.871   7.839 -0.4488 -0.4952  0.0896
  430MOL0     C56639   8.529   2.027   7.793 -0.6834 -0.2539  0.0177
  430MOL0     C56640   8.414   2.028   7.689  0.4198 -0.1864 -0.4477
  430MOL0     C56641   8.428   2.173   7.631  0.9488  0.1676 -0.5041
  430MOL0     C56642   8.317   2.227   7.542  0.0205  0.5826  0.0210
  430MOL0     C56643   8.313   2.166   7.400  0.9611 -0.6441 -0.0345
  430MOL0     C56644   8.194   2.216   7.316  0.1437 -0.2435 -0.6998
  430MOL0     N56645   8.175   2.140   7.197  0.3802 -0.1803  0.2807
  430MOL0     C56646   8.143   2.007   7.185  0.2087 -0.4643 -0.8449
  430MOL0     C56647   8.119   1.986   7.054 -0.1978  0.3202  0.4312
  430MOL0     C56648   8.091   1.850   6.990  0.3028 -0.1415 -0.8796
  430MOL0     C56649   8.230   1.777   6.973  0.2698  0.2025 -0.3134
  430MOL0     C56650   8.325   1.833   6.870 -0.3260  0.2937 -0.0190
  430MOL0     C56651   8.464   1.785   6.913  0.1474 -0.8020  0.0510
  430MOL0     O56652   8.561   1.866   6.844 -0.2785 -0.0521  0.5919
  430MOL0     C56653   8.685   1.864   6.900  0.1728  0.1782 -0.5859
  430MOL0     C56654   8.755   1.987   6.911  0.3597  0.6869  0.5904
  430MOL0     C56655   8.881   1.985   6.969  0.0444 -0.3472  0.2654
  430MOL0     C56656   8.942   1.864   7.007 -0.3346 -0.3901 -0.6418
  430MOL0     C56657   9.073   1.859   7.073 -0.4839 -1.0091 -0.2569
  430MOL0     O56658   9.157   1.966   7.047 -0.0651 -0.3462 -0.0618
  430MOL0     C56659   9.287   1.969   7.091  0.2837 -0.1258  0.7509
  430MOL0     C56660   9.349   2.090   7.092 -0.1264  0.4299 -0.5141
  430MOL0     C56661   9.488   2.098   7.123  0.4323 -0.2727  0.0282
  430MOL0     C56662   9.563   1.984   7.152  0.1100 -0.8800 -0.5016
  430MOL0     O56663   9.697   1.981   7.162 -0.3988 -0.5750 -0.0414
  430MOL0     C56664   9.769   2.102   7.212 -0.5354 -0.2819 -0.3005
  430MOL0     C56665   9.922   2.075   7.235 -0.7334 -0.0003  0.0990
  430MOL0     C56666   9.950   1.957   7.334  0.0191 -0.5066  0.2352
  430MOL0     C56667  10.103   1.939   7.358  0.3140  0.8738  0.7878
  430MOL0     C56668  10.142   1.812   7.438  0.7729  0.4143 -0.2329
  430MOL0     C56669  10.290   1.797   7.473 -0.7327 -0.1065 -0.4270
  430MOL0     C56670  10.337   1.880   7.598  0.3156 -0.8588  1.0521
  430MOL0     C56671  10.484   1.875   7.641  0.5864  0.0781 -0.0524
  430MOL0    Cl56672  10.529   1.705   7.690 -0.0274 -0.5030 -0.7480
  430MOL0     C56673   9.499   1.860   7.140 -0.7637  0.7428  0.4484
  430MOL0     C56674   9.361   1.849   7.115 -0.2592 -0.2947  0.0737
  430MOL0     O56675   9.090   1.766   7.155 -0.6781 -0.6621  0.1105
  430MOL0     C56676   8.865   1.743   6.995 -0.4139 -0.6052  0.5938
  430MOL0     C56677   8.737   1.745   6.935 -0.4600  0.4250  0.0099
  430MOL0     N56678   8.147   2.095   6.987  0.0747 -0.0058  0.0621
  430MOL0     N56679   8.182   2.186   7.068  0.0781  1.1254  0.7656
  430MOL0     C56680   8.919   1.730   7.992 -0.8408 -0.3628  0.3134
  430MOL0     C56681   9.036   1.718   8.064  0.3258 -0.1964  0.5546
  430MOL0     C56682   9.393   1.681   8.263 -0.0483  0.0845 -0.2107
  430MOL0     C56683   9.512   1.612   8.242 -1.1276  0.6295  0.4032
  430MOL0     C56684   9.595   1.560   8.339 -0.9995 -0.0101  0.0539
  430MOL0     C56685   9.551   1.568   8.476  0.0659  0.1898 -0.1750
  430MOL0     O56686   9.637   1.520   8.573  0.2043 -0.1467 -0.3537
  430MOL0     C56687   9.597   1.528   8.710  0.3520 -0.2294 -0.6053
  430MOL0     C56688   9.710   1.484   8.803  0.0428 -0.5313  0.2814
  430MOL0     C56689   9.811   1.595   8.808  0.0445 -0.0394 -0.0794
  430MOL0     C56690   9.934   1.552   8.894 -0.4568  0.5112 -0.1663
  430MOL0     C56691   9.921   1.557   9.040 -0.8855 -0.2917  0.0835
  430MOL0     C56692   9.906   1.552   9.163  0.1271 -0.7293  0.4224
  430MOL0     C56693   9.425   1.622   8.497  0.2278 -0.4828 -0.2959
  430MOL0     C56694   9.351   1.683   8.393  0.7943 -0.4868  0.0869
  430MOL0     H56695   9.118   2.051   8.093 -1.1905 -0.0436  1.0886
  430MOL0     H56696   8.917   2.069   7.965 -0.1577 -0.8048 -2.2409
  430MOL0     H56697   8.622   1.897   8.023 -1.3233 -2.2095  0.8120
  430MOL0     H56698   8.626   1.732   7.957  0.6571 -1.4238 -4.0040
  430MOL0     H56699   8.432   1.844   7.880 -2.2245 -2.0945 -4.5242
  430MOL0     H56700   8.550   1.812   7.749  0.7586 -1.2725  0.8496
  430MOL0     H56701   8.622   2.045   7.739 -0.2557  1.5452  1.2893
  430MOL0     H56702   8.529   2.094   7.879  1.3331  0.1643 -0.2573
  430MOL0     H56703   8.418   1.956   7.606 -2.6823 -2.2286  0.9774
  430MOL0     H56704   8.319   2.013   7.740 -0.1374 -0.3999 -1.5069
  430MOL0     H56705   8.526   2.185   7.583  1.0411  1.2136 -0.0773
  430MOL0     H56706   8.435   2.244   7.714  0.4458 -0.1962 -0.1461
  430MOL0     H56707   8.348   2.329   7.521 -0.5335  0.6338 -0.5683
  430MOL0     H56708   8.219   2.223   7.590  0.3666 -0.9902  0.6713
  430MOL0     H56709   8.405   2.185   7.345  1.2396 -3.9144 -0.8857
  430MOL0     H56710   8.312   2.060   7.426 -2.2092 -0.5609  0.6338
  430MOL0     H56711   8.211   2.322   7.297 -0.6966 -0.0307 -0.3178
  430MOL0     H56712   8.103   2.205   7.376  0.9923  2.2487  1.1935
  430MOL0     H56713   8.129   1.930   7.260  1.9143 -1.6621 -1.6900
  430MOL0     H56714   8.033   1.856   6.898 -2.8445 -0.7690  0.9174
  430MOL0     H56715   8.031   1.795   7.063  0.0573  1.8175  0.4632
  430MOL0     H56716   8.198   1.677   6.943 -3.7621  1.3164 -0.3723
  430MOL0     H56717   8.271   1.768   7.074 -2.3412  0.2181  0.8226
  430MOL0     H56718   8.294   1.802   6.770  0.1546 -5.0004  1.1832
  430MOL0     H56719   8.330   1.942   6.877  0.1080  0.4733 -2.2225
  430MOL0     H56720   8.473   1.680   6.885  0.5373 -1.0585  1.1086
  430MOL0     H56721   8.483   1.791   7.020  1.0176  0.2200 -0.1476
  430MOL0     H56722   8.712   2.079   6.871 -1.4896  0.0558  1.0291
  430MOL0     H56723   8.939   2.076   6.980 -2.0181  0.8387  1.9844
  430MOL0     H56724   9.302   2.186   7.075  0.8230  1.0869  0.4527
  430MOL0     H56725   9.536   2.195   7.133  1.1473 -0.8137  2.7589
  430MOL0     H56726   9.731   2.142   7.307 -2.2691 -0.0563 -1.0526
  430MOL0     H56727   9.760   2.182   7.138 -0.7828  1.3976  1.4540
  430MOL0     H56728   9.966   2.172   7.262 -3.0314  1.1539  0.0288
  430MOL0     H56729   9.956   2.034   7.140 -0.0695  0.0629  0.3070
  430MOL0     H56730   9.902   1.864   7.303  0.3881 -0.6448  0.0730
  430MOL0     H56731   9.906   1.995   7.426  2.6592  2.4119  0.4581
  430MOL0     H56732  10.150   1.937   7.259  3.3465  0.3764  2.1392
  430MOL0     H56733  10.140   2.030   7.405 -0.4412  1.6431 -0.0461
  430MOL0     H56734  10.119   1.724   7.378  1.2524 -0.4113  0.7848
  430MOL0     H56735  10.088   1.803   7.532 -2.0532  0.0504 -1.7652
  430MOL0     H56736  10.361   1.831   7.398  1.0593 -1.1988  0.7111
  430MOL0     H56737  10.308   1.690   7.487 -2.0013 -0.1856  0.9229
  430MOL0     H56738  10.308   1.982   7.571 -0.3459 -0.7744  2.0322
  430MOL0     H56739  10.277   1.846   7.682 -1.4235 -0.2340  0.1039
  430MOL0     H56740  10.492   1.935   7.732  0.8856 -2.4402  1.7042
  430MOL0     H56741  10.559   1.905   7.567  1.3968  2.9774  1.7642
  430MOL0     H56742   9.557   1.769   7.147  2.7605  2.9257  2.5853
  430MOL0     H56743   9.325   1.748   7.100 -0.8139 -0.3155  1.4815
  430MOL0     H56744   8.914   1.649   7.017 -0.5823 -1.0509 -0.7903
  430MOL0     H56745   8.683   1.654   6.914  2.4846 -1.9507  1.8304
  430MOL0     H56746   8.877   1.639   7.949  0.7412  0.8271 -4.3327
  430MOL0     H56747   9.070   1.617   8.086 -2.4438 -1.6632 -1.2719
  430MOL0     H56748   9.551   1.616   8.140 -3.3024 -1.3843 -0.6012
  430MOL0     H56749   9.694   1.523   8.316  0.2683  2.7827  0.6280
  430MOL0     H56750   9.520   1.451   8.718  0.6510 -0.6588 -1.6849
  430MOL0     H56751   9.554   1.624   8.740 -0.5672 -0.8642  0.2022
  430MOL0     H56752   9.676   1.442   8.898 -1.8291  2.0987  0.8898
  430MOL0     H56753   9.742   1.388   8.762 -3.0070 -2.1927  1.4422
  430MOL0     H56754   9.772   1.690   8.844 -1.3417 -1.0832  1.2907
  430MOL0     H56755   9.839   1.615   8.704 -0.3804  2.2061  0.2040
  430MOL0     H56756   9.962   1.449   8.871 -0.8744  0.2305  0.5359
  430MOL0     H56757  10.019   1.614   8.864  2.2608 -2.2275  1.3737
  430MOL0     H56758   9.883   1.562   9.267 -1.8209 -2.5916  0.2303
  430MOL0     H56759   9.392   1.632   8.600 -0.3117 -0.3053 -0.4812
  430MOL0     H56760   9.261   1.744   8.398  0.7575 -0.2054 -2.4039
  431MOL0     O56761   7.342   6.605   7.116  0.5107 -0.3195  0.2556
  431MOL0     C56762   7.380   6.640   7.001  0.5894 -0.2922 -0.2724
  431MOL0     O56763   7.302   6.643   6.891  0.3553  0.1544  0.1842
  431MOL0     C56764   7.166   6.622   6.893 -0.7355  0.4314 -0.2706
  431MOL0     C56765   7.112   6.514   6.821  0.2029 -0.3934  0.4437
  431MOL0     C56766   6.969   6.493   6.834 -0.2135 -0.5658  0.3377
  431MOL0     C56767   6.878   6.590   6.890 -0.5456  0.4011 -0.5719
  431MOL0     O56768   6.748   6.599   6.884  0.2883 -0.5262  0.2174
  431MOL0     C56769   6.687   6.509   6.785 -0.4081  0.6141  0.4874
  431MOL0     C56770   6.623   6.384   6.839  0.0696 -0.3141  0.2594
  431MOL0     C56771   6.511   6.445   6.936 -0.3798  0.3387 -0.0293
  431MOL0     C56772   6.438   6.316   7.003 -0.5565  0.0828  0.2515
  431MOL0     C56773   6.338   6.321   7.115  0.5041  0.3595 -0.5863
  431MOL0     C56774   6.213   6.410   7.081 -0.6022 -0.6581  0.1512
  431MOL0     C56775   6.122   6.362   6.963  0.3988 -0.2478 -0.4406
  431MOL0     C56776   5.999   6.284   7.021 -0.1960 -1.1297 -0.6893
  431MOL0     N56777   5.904   6.373   7.089  0.2926 -0.2131  0.2187
  431MOL0     C56778   5.801   6.432   7.021 -0.0568  0.0804 -0.4035
  431MOL0     C56779   5.716   6.472   7.109  0.2188  0.6268  0.9712
  431MOL0     C56780   5.601   6.557   7.066 -0.4375 -0.9131  0.6989
  431MOL0     C56781   5.479   6.479   7.020  0.1522  0.5234  0.1696
  431MOL0     C56782   5.380   6.579   6.952  0.0088 -0.8284  0.7384
  431MOL0     C56783   5.310   6.674   7.049 -0.0559  1.0770 -0.4752
  431MOL0     O56784   5.268   6.606   7.166  0.0628  0.3593 -0.7487
  431MOL0     C56785   5.140   6.551   7.175 -0.1546 -0.7722  0.1440
  431MOL0     C56786   5.078   6.554   7.308  0.1854 -0.5579  0.3180
  431MOL0     C56787   4.955   6.499   7.331 -0.4642  1.8976  0.4735
  431MOL0     C56788   4.869   6.461   7.226  1.1025 -0.6763 -1.0991
  431MOL0     C56789   4.735   6.414   7.241  0.5478  0.1813 -0.5896
  431MOL0     O56790   4.685   6.404   7.365  0.0845  0.3147 -0.0408
  431MOL0     C56791   4.552   6.407   7.379 -0.1843  0.0961 -0.6601
  431MOL0     C56792   4.480   6.510   7.318  0.9372 -0.7261 -0.5729
  431MOL0     C56793   4.340   6.524   7.332 -0.5945 -0.3147 -0.5120
  431MOL0     C56794   4.273   6.434   7.419  0.6714  0.0330  0.9328
  431MOL0     O56795   4.138   6.451   7.436  0.4553  0.1261  0.1438
  431MOL0     C56796   4.056   6.340   7.456  0.6574 -0.4595  0.0565
  431MOL0     C56797   3.913   6.373   7.411 -0.3671 -0.3427  0.6304
  431MOL0     C56798   3.863   6.499   7.479 -0.5747  0.2621 -1.0195
  431MOL0     C56799   3.703   6.523   7.471 -0.1116  0.7555  0.3548
  431MOL0     C56800   3.616   6.397   7.493 -0.7406 -0.2040  0.7499
  431MOL0     C56801   3.462   6.436   7.476 -0.2219 -0.0672  0.4830
  431MOL0     C56802   3.368   6.320   7.499  0.1018  0.5111 -0.1914
  431MOL0     C56803   3.228   6.336   7.452 -0.1022 -0.0498  0.3932
  431MOL0    Cl56804   3.152   6.495   7.512 -0.3874  0.6257  0.5624
  431MOL0     C56805   4.346   6.335   7.481  0.0928  1.2482 -0.6080
  431MOL0     C56806   4.487   6.325   7.462 -0.2374 -0.7501 -0.6122
  431MOL0     O56807   4.674   6.385   7.134 -0.3560 -0.1722 -0.1506
  431MOL0     C56808   4.933   6.460   7.095  1.0033  0.8341 -0.1781
  431MOL0     C56809   5.058   6.521   7.072 -0.2813  0.1298  0.4869
  431MOL0     N56810   5.753   6.430   7.231 -0.5657  0.0243  0.0483
  431MOL0     N56811   5.867   6.374   7.222  0.4779  0.1824 -1.0411
  431MOL0     C56812   6.940   6.702   6.954 -0.5177 -0.7460  0.2460
  431MOL0     C56813   7.081   6.714   6.958  0.0907  0.7920  0.0436
  431MOL0     C56814   7.518   6.692   6.979 -0.3165 -0.2953 -0.0443
  431MOL0     C56815   7.609   6.706   7.087 -0.4524 -0.4942 -0.2299
  431MOL0     C56816   7.742   6.761   7.068 -0.1591 -0.6845 -0.3782
  431MOL0     C56817   7.769   6.827   6.949 -0.1688 -0.2140  1.0023
  431MOL0     O56818   7.883   6.905   6.929 -0.0804 -0.4361  1.0798
  431MOL0     C56819   7.937   6.920   6.795  0.4053 -1.3245  0.4138
  431MOL0     C56820   8.086   6.932   6.823 -0.1613  0.1519  0.7303
  431MOL0     C56821   8.172   6.962   6.699  0.4214  0.0315 -0.3663
  431MOL0     C56822   8.283   7.052   6.727 -0.9825 -0.2920  0.4247
  431MOL0     C56823   8.340   7.098   6.603  0.3481  0.6664 -0.3286
  431MOL0     C56824   8.405   7.137   6.505 -0.2344 -0.0965 -0.4001
  431MOL0     C56825   7.682   6.808   6.846 -0.1527  0.1821  0.2340
  431MOL0     C56826   7.555   6.741   6.858  0.0930  0.2771  0.0479
  431MOL0     H56827   7.170   6.433   6.777  2.8395  1.8431 -0.4808
  431MOL0     H56828   6.944   6.395   6.795  0.9274 -0.8934  0.4097
  431MOL0     H56829   6.759   6.482   6.707  0.5996 -1.8222  2.1686
  431MOL0     H56830   6.606   6.567   6.738  0.2613  0.1942 -1.2758
  431MOL0     H56831   6.696   6.316   6.883 -0.5152 -1.7085 -0.8403
  431MOL0     H56832   6.588   6.320   6.758 -1.1479  3.1139 -2.1599
  431MOL0     H56833   6.441   6.504   6.877  1.4206  1.3466 -1.2248
  431MOL0     H56834   6.547   6.501   7.023 -3.4453 -1.3305  2.5414
  431MOL0     H56835   6.381   6.265   6.925  2.4692 -2.4898 -0.4772
  431MOL0     H56836   6.511   6.243   7.039 -1.0816 -1.2379 -1.2327
  431MOL0     H56837   6.398   6.356   7.200  1.9876 -0.8576 -1.0756
  431MOL0     H56838   6.317   6.215   7.131  0.2033  0.2593 -1.5917
  431MOL0     H56839   6.249   6.511   7.059  1.1011 -0.1515  4.4070
  431MOL0     H56840   6.156   6.429   7.172  0.2252  1.8540  0.2025
  431MOL0     H56841   6.083   6.451   6.913 -3.8443 -1.4249  0.4158
  431MOL0     H56842   6.170   6.298   6.888  1.0118  1.0870 -1.2177
  431MOL0     H56843   6.034   6.205   7.089  0.7776  0.3742  0.6346
  431MOL0     H56844   5.955   6.233   6.935 -2.1560  0.2884 -0.5801
  431MOL0     H56845   5.797   6.437   6.913 -0.3876  0.5800 -0.3686
  431MOL0     H56846   5.630   6.632   6.991  3.4670 -1.4733  1.4392
  431MOL0     H56847   5.564   6.608   7.155 -0.1890 -1.0009  0.8524
  431MOL0     H56848   5.430   6.423   7.100  3.2793 -2.9900 -0.1262
  431MOL0     H56849   5.514   6.402   6.951 -1.2186 -1.0923  1.2174
  431MOL0     H56850   5.424   6.635   6.869 -3.0117  0.1924 -0.3348
  431MOL0     H56851   5.295   6.525   6.909  0.3938 -1.2583  0.5103
  431MOL0     H56852   5.224   6.723   7.002  0.8989  3.7239  0.3584
  431MOL0     H56853   5.381   6.754   7.069  3.8649 -2.2466  0.1777
  431MOL0     H56854   5.138   6.609   7.380  2.1550 -1.9765 -0.1513
  431MOL0     H56855   4.929   6.483   7.435  2.3950  0.5205  1.0789
  431MOL0     H56856   4.536   6.582   7.261  1.5516 -0.7191  0.0266
  431MOL0     H56857   4.287   6.608   7.289 -0.3563 -0.3372 -0.8537
  431MOL0     H56858   4.055   6.293   7.554 -0.7115 -0.6896 -0.0396
  431MOL0     H56859   4.091   6.257   7.395 -1.2318  0.4631 -2.4940
  431MOL0     H56860   3.847   6.286   7.421  1.2250 -1.5294  1.4132
  431MOL0     H56861   3.912   6.395   7.304  0.9015  2.0019  1.0421
  431MOL0     H56862   3.921   6.586   7.447 -2.6171  2.5516  1.0683
  431MOL0     H56863   3.891   6.488   7.584  0.5605  0.7192 -1.2533
  431MOL0     H56864   3.684   6.612   7.531  4.2531  2.4808 -0.4054
  431MOL0     H56865   3.694   6.556   7.367  0.2645  2.7315  0.9142
  431MOL0     H56866   3.638   6.349   7.590 -0.2802 -0.7754  0.3730
  431MOL0     H56867   3.645   6.327   7.414  1.1744  1.2865  0.0321
  431MOL0     H56868   3.443   6.472   7.374  1.1451 -3.6496 -1.2430
  431MOL0     H56869   3.442   6.513   7.551  1.2679  1.3163 -0.4782
  431MOL0     H56870   3.397   6.243   7.426 -4.8819 -2.8374  0.7761
  431MOL0     H56871   3.371   6.291   7.604 -0.3597 -0.1968 -0.3574
  431MOL0     H56872   3.172   6.246   7.476  0.2984 -0.4631 -0.2072
  431MOL0     H56873   3.228   6.346   7.343  1.7852 -1.6725  0.1888
  431MOL0     H56874   4.301   6.263   7.548  4.2473  0.1847  1.4103
  431MOL0     H56875   4.544   6.240   7.499  0.1828 -1.5025 -2.7846
  431MOL0     H56876   4.871   6.429   7.012 -0.0616  1.3127  0.4158
  431MOL0     H56877   5.087   6.538   6.968 -2.0246  1.1653  0.1166
  431MOL0     H56878   6.879   6.784   6.989 -1.4767 -1.3652  0.0566
  431MOL0     H56879   7.107   6.802   7.016 -0.9023  1.9651 -1.2216
  431MOL0     H56880   7.577   6.659   7.179  2.6047 -0.6716  0.8710
  431MOL0     H56881   7.802   6.790   7.154 -0.4315  0.9393 -0.6966
  431MOL0     H56882   7.892   7.014   6.762  0.5501 -1.3708  0.0824
  431MOL0     H56883   7.921   6.837   6.726 -1.8971 -1.8677  1.5092
  431MOL0     H56884   8.091   7.019   6.890 -1.7614  1.9098 -1.2774
  431MOL0     H56885   8.121   6.839   6.869 -1.7699 -0.0142  1.6796
  431MOL0     H56886   8.110   7.012   6.624  3.9725  2.3882 -2.0416
  431MOL0     H56887   8.211   6.868   6.657  2.1102 -1.3659  3.7847
  431MOL0     H56888   8.267   7.135   6.797  0.6560 -1.2514  2.0494
  431MOL0     H56889   8.361   6.994   6.777 -0.6843 -1.5239 -1.3926
  431MOL0     H56890   8.462   7.183   6.428  1.5174  1.0479  1.4707
  431MOL0     H56891   7.707   6.834   6.744  1.2512 -2.2663 -0.1290
  431MOL0     H56892   7.492   6.720   6.773 -0.1394  2.9616 -0.5357
  432MOL0     O56893   1.066   6.806  10.824 -0.2447  0.9858 -0.0929
  432MOL0     C56894   1.176   6.768  10.869 -0.6681  0.2141 -0.1983
  432MOL0     O56895   1.229   6.643  10.855  0.3046  0.3401  0.2922
  432MOL0     C56896   1.163   6.545  10.791 -0.3703 -0.3414 -0.6560
  432MOL0     C56897   1.062   6.476  10.854  0.9251 -0.4644  0.7419
  432MOL0     C56898   1.005   6.364  10.789 -0.0772  0.1058 -0.5828
  432MOL0     C56899   1.062   6.314  10.673  0.3113 -0.2218 -0.3286
  432MOL0     O56900   1.010   6.227  10.587 -0.1175  0.2087  0.3013
  432MOL0     C56901   0.884   6.161  10.624  1.0356 -0.2543  0.1688
  432MOL0     C56902   0.824   6.093  10.502  0.5220 -0.5234 -0.1724
  432MOL0     C56903   0.694   6.026  10.550 -0.5770 -0.6493 -0.0494
  432MOL0     C56904   0.650   5.892  10.484 -0.0206 -1.2866  0.2576
  432MOL0     C56905   0.632   5.900  10.335  0.3259  0.4879  0.2371
  432MOL0     C56906   0.575   5.769  10.292  0.0043 -0.1733  0.5020
  432MOL0     C56907   0.507   5.784  10.145 -0.2150  0.0821 -0.9568
  432MOL0     C56908   0.478   5.646  10.079  0.0245  0.2948 -0.5015
  432MOL0     N56909   0.411   5.654   9.949 -0.4600 -1.4050  0.1821
  432MOL0     C56910   0.470   5.707   9.838  0.3288 -0.3657 -0.0732
  432MOL0     C56911   0.370   5.726   9.750  0.5941  0.3186  0.7241
  432MOL0     C56912   0.387   5.776   9.608 -0.6513  1.2923  0.3303
  432MOL0     C56913   0.370   5.644   9.510  0.3106 -0.1140  0.4471
  432MOL0     C56914   0.215   5.609   9.481  0.1458  0.0894  0.3724
  432MOL0     C56915   0.164   5.693   9.366 -0.3541  0.3424 -0.2496
  432MOL0     O56916   0.037   5.633   9.320  0.2003 -0.7968  0.7101
  432MOL0     C56917  -0.052   5.724   9.256  0.7899  0.0117 -0.1005
  432MOL0     C56918  -0.163   5.662   9.202  0.6531 -0.3170 -0.1575
  432MOL0     C56919  -0.279   5.732   9.155 -0.0108 -0.6553  0.2232
  432MOL0     C56920  -0.279   5.871   9.171  0.7729 -0.5107 -0.0405
  432MOL0     C56921  -0.393   5.956   9.128  0.6246 -0.9016  0.5970
  432MOL0     O56922  -0.411   6.079   9.190  0.3339  0.3491  0.6059
  432MOL0     C56923  -0.523   6.150   9.140 -1.1642 -0.7815  0.0740
  432MOL0     C56924  -0.521   6.259   9.045 -0.2180  0.4331 -0.4241
  432MOL0     C56925  -0.635   6.327   9.019  0.6837 -0.5979  0.0335
  432MOL0     C56926  -0.760   6.293   9.083 -0.5310  0.5765 -0.0483
  432MOL0     O56927  -0.873   6.363   9.052 -0.0753 -0.4264 -0.0867
  432MOL0     C56928  -0.927   6.452   9.154  0.8433 -0.2599 -0.2815
  432MOL0     C56929  -1.079   6.423   9.167 -0.5200  0.4190 -0.9919
  432MOL0     C56930  -1.151   6.491   9.284 -0.4014  0.2698 -0.3276
  432MOL0     C56931  -1.306   6.520   9.268 -0.1105 -0.4037  0.4188
  432MOL0     C56932  -1.389   6.500   9.395 -0.1409 -0.0844 -0.2220
  432MOL0     C56933  -1.534   6.532   9.372  0.2078  0.7485 -0.4395
  432MOL0     C56934  -1.613   6.471   9.485  0.1199  0.2445  0.6494
  432MOL0     C56935  -1.756   6.504   9.455  0.3159  0.1862 -0.3008
  432MOL0    Cl56936  -1.849   6.400   9.564  0.0200 -0.2715 -0.0747
  432MOL0     C56937  -0.762   6.183   9.170  0.4117 -0.5609 -0.8570
  432MOL0     C56938  -0.648   6.122   9.209  0.0382 -0.7132  0.4702
  432MOL0     O56939  -0.467   5.914   9.033 -0.0515 -0.0364 -0.2747
  432MOL0     C56940  -0.160   5.932   9.224  0.1155  0.3512  0.0290
  432MOL0     C56941  -0.046   5.865   9.258 -0.1227  0.0040  0.5819
  432MOL0     N56942   0.252   5.691   9.809  0.7597  0.3432  0.5874
  432MOL0     N56943   0.278   5.640   9.924 -1.0039  0.7433  0.1497
  432MOL0     C56944   1.169   6.390  10.617 -0.0196  0.5923  0.8899
  432MOL0     C56945   1.214   6.501  10.673 -0.4042  0.7612 -0.3104
  432MOL0     C56946   1.278   6.865  10.932  0.6501 -0.4948  0.1113
  432MOL0     C56947   1.231   7.002  10.963  0.0219 -0.1077  0.9051
  432MOL0     C56948   1.315   7.103  11.013 -0.6892 -0.2531  0.0791
  432MOL0     C56949   1.449   7.076  11.022  0.1236 -0.2147  0.1955
  432MOL0     O56950   1.534   7.176  11.058 -0.2520 -0.4004  0.0138
  432MOL0     C56951   1.653   7.155  11.130 -0.5757  0.4124  0.2563
  432MOL0     C56952   1.692   7.280  11.216 -0.4153  0.5032  0.2183
  432MOL0     C56953   1.567   7.313  11.308 -0.2288  0.5536 -0.0812
  432MOL0     C56954   1.480   7.420  11.242  0.7194 -0.7440  0.1445
  432MOL0     C56955   1.376   7.490  11.321 -0.4022 -0.4271  0.5141
  432MOL0     C56956   1.293   7.553  11.387  0.8085  0.8099  0.6103
  432MOL0     C56957   1.490   6.945  11.002 -0.6289 -1.0359 -0.2871
  432MOL0     C56958   1.413   6.837  10.952  0.9231  0.3503 -0.2377
  432MOL0     H56959   1.035   6.503  10.956  3.7898  0.6237  1.2926
  432MOL0     H56960   0.922   6.311  10.835 -1.0258  1.8607 -0.1787
  432MOL0     H56961   0.808   6.234  10.653  0.5596  0.7686 -3.1356
  432MOL0     H56962   0.906   6.093  10.706 -0.9373 -0.7620  0.3196
  432MOL0     H56963   0.902   6.024  10.469  0.9218 -0.4315  0.5539
  432MOL0     H56964   0.798   6.163  10.422 -0.5240  1.6582  1.9386
  432MOL0     H56965   0.620   6.105  10.535  2.1898  1.9644 -1.0377
  432MOL0     H56966   0.702   6.008  10.657 -0.4648 -1.8387 -0.2453
  432MOL0     H56967   0.737   5.831  10.507  2.0011  0.7448 -1.5130
  432MOL0     H56968   0.558   5.857  10.532 -0.4824  2.0828  2.1677
  432MOL0     H56969   0.730   5.918  10.288  0.1041  0.9162 -0.0656
  432MOL0     H56970   0.552   5.970  10.310 -2.3605 -1.2788  3.1344
  432MOL0     H56971   0.487   5.749  10.354  0.8945  1.4983  2.4051
  432MOL0     H56972   0.652   5.693  10.300  0.4185  0.3757  2.0923
  432MOL0     H56973   0.412   5.838  10.152  0.0658  0.4046  1.1404
  432MOL0     H56974   0.578   5.827  10.073  1.5880 -1.6156 -0.2882
  432MOL0     H56975   0.405   5.605  10.149  1.0728 -0.6948  0.0475
  432MOL0     H56976   0.571   5.591  10.065  1.3578  2.3655 -0.0876
  432MOL0     H56977   0.576   5.716   9.814 -0.0942 -1.8460 -2.9965
  432MOL0     H56978   0.491   5.808   9.598 -0.3329  0.5144  1.0323
  432MOL0     H56979   0.320   5.858   9.581 -0.7189  0.6993 -1.3664
  432MOL0     H56980   0.412   5.554   9.557  0.2863  0.4072  1.4899
  432MOL0     H56981   0.422   5.666   9.417  0.4046  3.0350  1.1309
  432MOL0     H56982   0.193   5.504   9.461 -1.5745  0.3174  0.8601
  432MOL0     H56983   0.150   5.637   9.564 -0.5193  0.1429 -0.1525
  432MOL0     H56984   0.232   5.691   9.281 -0.3408 -1.6396 -0.2442
  432MOL0     H56985   0.156   5.793   9.410  0.0534 -0.6013  2.1313
  432MOL0     H56986  -0.164   5.554   9.204  1.3165 -0.3766 -1.8609
  432MOL0     H56987  -0.365   5.674   9.122  0.7324 -1.3285 -0.5636
  432MOL0     H56988  -0.425   6.281   8.999  1.4607 -1.4675  1.9018
  432MOL0     H56989  -0.630   6.407   8.947  2.1829 -1.4399 -0.8390
  432MOL0     H56990  -0.913   6.555   9.120 -1.2059  0.7580  1.6547
  432MOL0     H56991  -0.873   6.444   9.249  0.0753 -1.9411  0.0592
  432MOL0     H56992  -1.088   6.314   9.170  2.9725  0.0320  1.4620
  432MOL0     H56993  -1.115   6.454   9.069 -1.2896  0.5374 -0.6810
  432MOL0     H56994  -1.103   6.587   9.310  1.7464 -0.6227 -0.7806
  432MOL0     H56995  -1.138   6.424   9.370  1.4696 -1.1677 -1.6590
  432MOL0     H56996  -1.325   6.618   9.224 -1.8448 -1.1129 -0.5063
  432MOL0     H56997  -1.342   6.453   9.190 -2.9827  0.6247  0.7358
  432MOL0     H56998  -1.358   6.577   9.466 -1.2862  2.7089 -2.5152
  432MOL0     H56999  -1.370   6.400   9.436 -3.7917 -1.9330 -2.4704
  432MOL0     H57000  -1.565   6.502   9.272  1.0125  0.2731 -0.5582
  432MOL0     H57001  -1.550   6.640   9.365  0.7630  0.7869 -1.3032
  432MOL0     H57002  -1.595   6.363   9.478  0.2458  0.3462 -0.8822
  432MOL0     H57003  -1.587   6.511   9.583  3.5239 -0.0777 -0.0003
  432MOL0     H57004  -1.775   6.478   9.351 -0.4887  1.1215 -0.3947
  432MOL0     H57005  -1.767   6.609   9.482 -0.2097 -0.1622  0.8953
  432MOL0     H57006  -0.853   6.152   9.220  0.3247 -0.0036 -0.6577
  432MOL0     H57007  -0.656   6.042   9.282  0.3998 -1.4422 -0.2708
  432MOL0     H57008  -0.160   6.040   9.232 -0.1481  0.3375  0.2287
  432MOL0     H57009   0.048   5.918   9.272  0.4610 -0.8795  0.1345
  432MOL0     H57010   1.216   6.362  10.523 -1.6630 -0.8990  0.4642
  432MOL0     H57011   1.304   6.555  10.645  2.0860 -1.1333  3.3052
  432MOL0     H57012   1.124   7.020  10.955  0.3603  1.3512 -1.4313
  432MOL0     H57013   1.269   7.200  11.029 -4.1963 -1.7139 -0.2329
  432MOL0     H57014   1.726   7.138  11.051 -0.7463  0.2280  0.1365
  432MOL0     H57015   1.641   7.062  11.188 -0.5748 -1.4409 -2.5096
  432MOL0     H57016   1.777   7.241  11.272  1.2956 -1.4401 -3.3890
  432MOL0     H57017   1.731   7.359  11.152 -1.0618 -0.3096 -1.2274
  432MOL0     H57018   1.608   7.353  11.402  1.4835  1.6859 -1.2519
  432MOL0     H57019   1.512   7.222  11.332  1.1216  0.1722  1.8945
  432MOL0     H57020   1.552   7.494  11.205 -0.6163  0.0812 -0.8940
  432MOL0     H57021   1.431   7.380  11.153  0.4921 -0.5203  0.1684
  432MOL0     H57022   1.216   7.615  11.428 -2.5338 -0.0954 -3.6243
  432MOL0     H57023   1.591   6.915  11.027  0.2917  1.8198 -0.2793
  432MOL0     H57024   1.451   6.735  10.947  1.3239  0.5482 -1.4336
  433MOL0     O57025   9.708   6.659   3.227 -0.1997  0.5693 -0.4983
  433MOL0     C57026   9.745   6.776   3.236  0.2043 -0.1881 -0.5744
  433MOL0     O57027   9.666   6.880   3.212 -0.1962 -0.2463  0.5502
  433MOL0     C57028   9.546   6.855   3.153  0.5339  0.3576  0.3031
  433MOL0     C57029   9.514   6.929   3.042 -0.3583  0.9196  0.2294
  433MOL0     C57030   9.386   6.916   2.977 -1.0019  0.1698 -0.1438
  433MOL0     C57031   9.291   6.823   3.023 -0.8226  0.4105  0.3130
  433MOL0     O57032   9.168   6.813   2.961 -0.3969  0.4264  0.0121
  433MOL0     C57033   9.056   6.801   3.048  0.5522  0.2611 -0.0840
  433MOL0     C57034   9.042   6.935   3.136  0.2358  0.1491  0.2689
  433MOL0     C57035   8.936   6.914   3.245 -0.0738 -0.2295  1.1112
  433MOL0     C57036   8.898   7.053   3.300  0.3214 -0.7608  0.1293
  433MOL0     C57037   8.784   7.023   3.399  0.0382  0.1144  0.5477
  433MOL0     C57038   8.724   7.153   3.442 -0.2326  0.5901  1.6752
  433MOL0     C57039   8.584   7.128   3.490  0.8047  0.4953  0.4765
  433MOL0     C57040   8.488   7.152   3.367 -1.0600 -0.6350  0.1821
  433MOL0     N57041   8.352   7.125   3.418 -0.7924  0.2050  0.3721
  433MOL0     C57042   8.272   7.216   3.477 -0.1563  0.2067 -0.2858
  433MOL0     C57043   8.161   7.140   3.508  0.3392  0.0762  0.2247
  433MOL0     C57044   8.033   7.196   3.563  0.0601 -0.0945  0.1102
  433MOL0     C57045   8.038   7.188   3.716  0.6756  0.2889 -0.3991
  433MOL0     C57046   8.147   7.287   3.774 -0.4865  0.4334  0.0929
  433MOL0     C57047   8.278   7.207   3.802 -0.0584 -0.6337  0.7444
  433MOL0     O57048   8.382   7.300   3.771  0.1696  0.2239  0.3612
  433MOL0     C57049   8.504   7.255   3.812 -1.3340 -0.1268  0.7233
  433MOL0     C57050   8.531   7.129   3.872 -0.0281  0.8488 -0.1831
  433MOL0     C57051   8.664   7.083   3.905  0.8820 -0.7700 -0.8946
  433MOL0     C57052   8.776   7.163   3.872  0.4858  0.1571  0.3604
  433MOL0     C57053   8.917   7.113   3.893  0.0189 -0.0799 -0.0374
  433MOL0     O57054   9.024   7.217   3.874  0.5002  1.0585  0.0492
  433MOL0     C57055   9.145   7.180   3.931 -0.2895  0.0145  0.1527
  433MOL0     C57056   9.258   7.195   3.850 -0.1035  0.5080 -0.2551
  433MOL0     C57057   9.386   7.151   3.899 -1.1498 -0.5344  0.2026
  433MOL0     C57058   9.398   7.113   4.035  0.6947 -0.6429  0.3576
  433MOL0     O57059   9.517   7.077   4.087  0.2424  0.0833  0.5790
  433MOL0     C57060   9.514   6.999   4.209 -0.5538  0.5458 -0.5545
  433MOL0     C57061   9.646   6.927   4.218 -0.2044 -0.1789  0.3660
  433MOL0     C57062   9.677   6.879   4.360  0.0722 -1.0412  0.4154
  433MOL0     C57063   9.830   6.835   4.355 -0.2193 -0.3434 -0.7751
  433MOL0     C57064   9.875   6.817   4.504 -0.4620  0.1608 -1.2022
  433MOL0     C57065  10.024   6.793   4.501  0.3268 -0.3883  0.3502
  433MOL0     C57066  10.083   6.775   4.642 -0.5283 -0.4462 -0.3228
  433MOL0     C57067  10.228   6.748   4.631  0.7745 -0.4382 -0.3973
  433MOL0    Cl57068  10.266   6.587   4.551 -0.3772 -0.1735 -0.4064
  433MOL0     C57069   9.282   7.104   4.111 -1.1350 -0.1318  0.1628
  433MOL0     C57070   9.154   7.143   4.064 -0.0940  0.9907  0.3609
  433MOL0     O57071   8.940   7.001   3.941 -0.3137 -0.0213 -0.1358
  433MOL0     C57072   8.750   7.293   3.817  0.5162  0.0409 -0.2203
  433MOL0     C57073   8.614   7.342   3.786 -0.3877  0.2591 -0.8191
  433MOL0     N57074   8.185   7.009   3.464  0.2806 -0.4886 -0.0571
  433MOL0     N57075   8.294   7.000   3.411 -0.2337  1.1522  0.3044
  433MOL0     C57076   9.326   6.744   3.137 -0.7857 -0.7669  0.1629
  433MOL0     C57077   9.450   6.765   3.202 -0.0619 -0.4198 -0.7305
  433MOL0     C57078   9.873   6.800   3.295 -0.7196  0.3321  1.2450
  433MOL0     C57079   9.904   6.916   3.368  0.4603 -0.2859  0.5228
  433MOL0     C57080  10.029   6.951   3.405 -0.2894  0.9017 -0.2743
  433MOL0     C57081  10.136   6.860   3.378 -0.0353  1.1872  0.1624
  433MOL0     O57082  10.259   6.897   3.408  0.2741 -0.2367 -0.2505
  433MOL0     C57083  10.359   6.820   3.448  0.4337 -0.2323 -1.7646
  433MOL0     C57084  10.477   6.860   3.365  0.2276  0.3644  0.3573
  433MOL0     C57085  10.614   6.787   3.376 -0.2263  0.5006 -0.1152
  433MOL0     C57086  10.736   6.855   3.297  0.7538 -0.1102  0.1009
  433MOL0     C57087  10.864   6.780   3.302 -0.3292 -0.1158 -0.6879
  433MOL0     C57088  10.977   6.725   3.315  0.7303 -0.4058  0.0129
  433MOL0     C57089  10.107   6.748   3.308 -0.2087  0.3164  0.1114
  433MOL0     C57090   9.981   6.711   3.272  0.3816  0.5691 -0.1034
  433MOL0     H57091   9.593   6.991   2.999 -0.0985 -0.2283 -1.0086
  433MOL0     H57092   9.362   6.969   2.885  0.3955  2.0130  0.4782
  433MOL0     H57093   9.057   6.709   3.108 -2.9056 -1.9034 -2.8691
  433MOL0     H57094   8.964   6.784   2.991 -0.8889  1.8507  1.6729
  433MOL0     H57095   9.010   7.018   3.072 -2.6516 -0.2766  1.0225
  433MOL0     H57096   9.137   6.962   3.184 -0.6996  1.2416  1.6261
  433MOL0     H57097   8.967   6.841   3.320 -0.3150 -1.8053 -0.2478
  433MOL0     H57098   8.847   6.879   3.192 -0.3526  0.9159  0.8050
  433MOL0     H57099   8.986   7.101   3.344  0.7393  1.0839 -2.5018
  433MOL0     H57100   8.869   7.124   3.222 -0.7011  0.0915  1.2552
  433MOL0     H57101   8.820   6.966   3.485  0.6504 -1.7140 -0.8616
  433MOL0     H57102   8.714   6.956   3.348  3.6077 -3.8382  0.3571
  433MOL0     H57103   8.740   7.232   3.367  0.7251  1.3426  2.6349
  433MOL0     H57104   8.790   7.182   3.524  0.4154  0.4393  1.2150
  433MOL0     H57105   8.572   7.023   3.518  1.9540 -0.5493 -2.5173
  433MOL0     H57106   8.566   7.193   3.576 -1.3540 -1.7424  1.8422
  433MOL0     H57107   8.521   7.084   3.287  1.7954 -0.2064  0.8869
  433MOL0     H57108   8.488   7.253   3.326 -2.6062  0.1010  1.8523
  433MOL0     H57109   8.283   7.322   3.500  1.4510 -0.3211  1.6602
  433MOL0     H57110   7.949   7.140   3.522 -1.7631  1.5457  1.4283
  433MOL0     H57111   8.022   7.301   3.532 -5.2154  0.4895  2.9093
  433MOL0     H57112   8.045   7.086   3.753 -1.3497 -0.6891 -2.4721
  433MOL0     H57113   7.938   7.221   3.744  1.2795  2.4935 -0.6230
  433MOL0     H57114   8.165   7.368   3.702  2.1042  0.0609  0.2221
  433MOL0     H57115   8.110   7.332   3.866 -0.9934 -0.2611  0.2361
  433MOL0     H57116   8.290   7.121   3.735 -1.8212  1.0135 -1.8845
  433MOL0     H57117   8.265   7.174   3.906 -0.9299 -1.5463  0.3761
  433MOL0     H57118   8.454   7.064   3.911  0.9459  0.1404  0.6260
  433MOL0     H57119   8.677   6.985   3.950  2.5947 -0.1272  0.1337
  433MOL0     H57120   9.236   7.217   3.746 -0.4820 -0.3664 -0.3615
  433MOL0     H57121   9.478   7.145   3.842 -0.9321  0.6240  0.3990
  433MOL0     H57122   9.445   6.916   4.193  1.7093 -1.5272 -0.0182
  433MOL0     H57123   9.502   7.056   4.302  0.8540  0.4150 -0.2773
  433MOL0     H57124   9.729   6.994   4.197  0.2780 -0.6706  0.6795
  433MOL0     H57125   9.654   6.854   4.136  1.9793  0.6318 -0.2087
  433MOL0     H57126   9.620   6.791   4.389 -1.3047 -0.6700 -1.0080
  433MOL0     H57127   9.649   6.959   4.430  0.3926  0.3474 -0.9755
  433MOL0     H57128   9.842   6.743   4.298 -0.1476 -0.3778 -0.7046
  433MOL0     H57129   9.894   6.913   4.313 -0.8677  0.7487  0.1909
  433MOL0     H57130   9.820   6.733   4.547 -2.7902  1.3858 -1.6391
  433MOL0     H57131   9.847   6.908   4.557 -1.9235 -0.4121 -0.9674
  433MOL0     H57132  10.080   6.878   4.461 -0.5263 -0.1681 -0.4030
  433MOL0     H57133  10.040   6.705   4.438 -2.5624 -0.6784 -0.1120
  433MOL0     H57134  10.080   6.867   4.701  1.2455 -1.2911  1.2200
  433MOL0     H57135  10.017   6.707   4.696  2.1799  0.2653  4.3960
  433MOL0     H57136  10.279   6.733   4.727 -0.8565 -0.7472  0.4694
  433MOL0     H57137  10.272   6.836   4.585 -1.2784 -0.0420 -1.7299
  433MOL0     H57138   9.284   7.088   4.219 -1.3316 -4.0843 -0.2879
  433MOL0     H57139   9.060   7.137   4.119 -0.0286  0.1925  0.3873
  433MOL0     H57140   8.833   7.360   3.797  0.7003  0.4668  1.7308
  433MOL0     H57141   8.603   7.439   3.739 -0.9434  0.7601  0.3065
  433MOL0     H57142   9.265   6.673   3.191 -1.1769  1.0077  2.1805
  433MOL0     H57143   9.463   6.734   3.305 -2.6890  1.9708  0.4486
  433MOL0     H57144   9.820   6.976   3.401 -2.3345 -2.7498 -1.4857
  433MOL0     H57145  10.048   7.042   3.461 -1.6596  1.0811 -0.0752
  433MOL0     H57146  10.349   6.712   3.433 -0.7803 -0.6802  1.5741
  433MOL0     H57147  10.371   6.844   3.554 -2.5353  1.3413 -1.6969
  433MOL0     H57148  10.447   6.837   3.262  2.9875 -2.0653 -0.0369
  433MOL0     H57149  10.493   6.968   3.359  1.5879  0.1217 -0.6519
  433MOL0     H57150  10.608   6.683   3.342 -0.4612 -0.0295  1.4586
  433MOL0     H57151  10.636   6.778   3.483 -0.0859 -1.4667 -0.2727
  433MOL0     H57152  10.699   6.873   3.196 -2.4531  1.9980  1.4564
  433MOL0     H57153  10.743   6.951   3.348 -3.4884  0.8245 -0.6515
  433MOL0     H57154  11.068   6.670   3.302 -0.0558 -0.9860 -4.5289
  433MOL0     H57155  10.192   6.685   3.284 -1.8964 -1.5490 -1.3149
  433MOL0     H57156   9.964   6.615   3.224  1.7371 -0.3285  1.1134
  434MOL0     O57157   0.513   9.710   4.995 -0.7245  0.3572  0.4755
  434MOL0     C57158   0.430   9.615   4.992 -0.2670  0.2005 -0.5098
  434MOL0     O57159   0.459   9.487   4.975 -0.3878  0.6883 -0.1991
  434MOL0     C57160   0.587   9.442   4.960 -0.1675  0.4501  0.4808
  434MOL0     C57161   0.671   9.428   5.066  0.1949  0.2153 -0.6812
  434MOL0     C57162   0.792   9.358   5.065  0.1273 -0.4625 -0.0178
  434MOL0     C57163   0.840   9.299   4.946  1.2493 -0.2394  0.2244
  434MOL0     O57164   0.958   9.230   4.930 -1.0086 -0.2719  1.0775
  434MOL0     C57165   1.014   9.165   5.040  0.3010 -0.9369  0.5591
  434MOL0     C57166   1.139   9.084   5.005  0.2478  0.7211 -0.3348
  434MOL0     C57167   1.243   9.141   4.919 -0.8600 -0.1903  0.3531
  434MOL0     C57168   1.360   9.042   4.897 -0.2280 -1.2105  0.3572
  434MOL0     C57169   1.478   9.093   4.815 -0.0269  0.1874 -0.3893
  434MOL0     C57170   1.587   8.987   4.785 -0.2085  1.1530 -0.3643
  434MOL0     C57171   1.540   8.863   4.716 -0.8765  0.6086  1.0139
  434MOL0     C57172   1.657   8.781   4.633  0.2766 -0.4138 -0.1092
  434MOL0     N57173   1.585   8.713   4.517 -0.0379 -0.0664 -0.0149
  434MOL0     C57174   1.465   8.648   4.529  0.6067 -0.0944  0.4866
  434MOL0     C57175   1.434   8.605   4.403 -0.1449 -0.7624  0.0683
  434MOL0     C57176   1.319   8.519   4.364  0.6712 -0.0148 -0.2455
  434MOL0     C57177   1.207   8.588   4.273  0.1039 -0.0244 -0.3130
  434MOL0     C57178   1.262   8.622   4.136  0.3354  0.3514  0.6928
  434MOL0     C57179   1.163   8.678   4.039 -0.1671  0.6359 -0.2410
  434MOL0     O57180   1.053   8.599   4.051 -0.0631 -1.1883  0.0270
  434MOL0     C57181   1.017   8.537   3.931  0.1048 -0.1709 -0.7050
  434MOL0     C57182   0.881   8.530   3.904 -0.1187  0.7496  0.0731
  434MOL0     C57183   0.835   8.438   3.801 -0.3759 -0.3388 -0.3328
  434MOL0     C57184   0.925   8.372   3.714  0.6276 -0.2138 -0.7985
  434MOL0     C57185   0.884   8.275   3.608  0.6664 -0.9303 -0.3913
  434MOL0     O57186   0.961   8.267   3.502  0.1876 -0.3078  0.5730
  434MOL0     C57187   0.935   8.175   3.399 -0.3651 -0.5301 -0.1844
  434MOL0     C57188   0.861   8.057   3.409 -0.0927  0.3668  0.6173
  434MOL0     C57189   0.855   7.971   3.300 -0.5651  0.7852  0.2634
  434MOL0     C57190   0.912   8.016   3.181 -0.3984 -0.7529 -0.3191
  434MOL0     O57191   0.905   7.952   3.066  0.4410  0.3902 -0.2873
  434MOL0     C57192   0.789   7.872   3.024  1.1390 -0.0706  0.6198
  434MOL0     C57193   0.810   7.801   2.887  0.5082 -0.6581  0.4135
  434MOL0     C57194   0.786   7.904   2.769 -0.0374  0.8974  0.8381
  434MOL0     C57195   0.811   7.841   2.635  0.8692  0.3291  0.0840
  434MOL0     C57196   0.704   7.744   2.595 -0.2100  0.4543 -0.6205
  434MOL0     C57197   0.582   7.815   2.547  0.2508  0.1252 -0.7072
  434MOL0     C57198   0.465   7.728   2.510  0.3686 -0.1431 -0.3262
  434MOL0     C57199   0.348   7.808   2.473 -0.3364  0.1690 -0.0454
  434MOL0    Cl57200   0.225   7.686   2.417  0.2920  0.0145  0.1667
  434MOL0     C57201   0.983   8.136   3.168  0.1516 -0.3493  0.9903
  434MOL0     C57202   0.991   8.212   3.284  0.0629 -0.1201  0.5288
  434MOL0     O57203   0.783   8.208   3.630 -0.4102 -0.8669  0.0586
  434MOL0     C57204   1.064   8.385   3.745  0.1448  0.4639 -0.7774
  434MOL0     C57205   1.106   8.461   3.853 -0.0765 -0.3176 -1.1150
  434MOL0     N57206   1.539   8.640   4.316 -0.1047  0.5774  0.0165
  434MOL0     N57207   1.629   8.707   4.387 -0.0812  0.0743 -0.9307
  434MOL0     C57208   0.761   9.336   4.831  0.1383 -0.9007 -0.5125
  434MOL0     C57209   0.633   9.392   4.842  0.1431  0.4732 -0.7570
  434MOL0     C57210   0.284   9.647   5.009 -0.0062 -0.3261  0.2773
  434MOL0     C57211   0.182   9.561   4.962 -0.0288 -0.2872 -0.0311
  434MOL0     C57212   0.047   9.591   4.991  0.2815  0.0434  0.2283
  434MOL0     C57213   0.016   9.697   5.076 -0.4248 -0.0195 -0.4433
  434MOL0     O57214  -0.108   9.712   5.131  0.4703 -0.0566 -0.1820
  434MOL0     C57215  -0.217   9.643   5.076 -0.4153 -0.2683  0.1440
  434MOL0     C57216  -0.356   9.708   5.110 -0.8323  0.0937 -0.2052
  434MOL0     C57217  -0.463   9.607   5.045  0.0507  0.9024 -0.2806
  434MOL0     C57218  -0.503   9.481   5.128  0.5244  0.4927  0.3845
  434MOL0     C57219  -0.629   9.485   5.199  0.2992 -0.2727  0.2239
  434MOL0     C57220  -0.728   9.537   5.247 -0.5916 -0.5362 -0.4735
  434MOL0     C57221   0.122   9.778   5.112  0.4222  0.4158 -0.9385
  434MOL0     C57222   0.257   9.760   5.085 -0.3012 -0.1267  0.1708
  434MOL0     H57223   0.638   9.469   5.160 -0.0519  0.9333 -1.0752
  434MOL0     H57224   0.845   9.362   5.159  0.0983 -0.5006  0.0003
  434MOL0     H57225   0.943   9.102   5.094 -0.1070  0.6199  1.9478
  434MOL0     H57226   1.047   9.236   5.117  0.4221  0.1631 -0.4720
  434MOL0     H57227   1.106   8.990   4.961  1.5152 -1.0517  2.2566
  434MOL0     H57228   1.183   9.050   5.099  1.7645 -0.6578 -1.4794
  434MOL0     H57229   1.283   9.233   4.962 -4.2261  1.1519  0.9611
  434MOL0     H57230   1.205   9.164   4.819  3.1034  0.0166 -1.2808
  434MOL0     H57231   1.400   9.023   4.997 -1.4672  1.4033  1.4474
  434MOL0     H57232   1.335   8.947   4.848  2.2783 -1.2838 -0.9082
  434MOL0     H57233   1.521   9.179   4.868  0.7639 -0.6399  0.3520
  434MOL0     H57234   1.440   9.138   4.723 -0.6058  1.4146  0.4024
  434MOL0     H57235   1.637   8.953   4.876  0.6480  0.2138 -1.1627
  434MOL0     H57236   1.664   9.033   4.724 -0.3034 -0.8594 -2.1144
  434MOL0     H57237   1.488   8.794   4.783  0.4575 -1.2541  0.1975
  434MOL0     H57238   1.460   8.888   4.645 -2.6443 -2.8243  1.6026
  434MOL0     H57239   1.698   8.712   4.707 -2.4524 -1.3542  0.6618
  434MOL0     H57240   1.741   8.844   4.602  1.0092 -1.3505 -0.0756
  434MOL0     H57241   1.402   8.630   4.615  1.4961 -1.8725  0.8130
  434MOL0     H57242   1.257   8.482   4.446  1.3866  1.2196  0.8822
  434MOL0     H57243   1.361   8.431   4.314  0.7685  0.3308 -0.7793
  434MOL0     H57244   1.156   8.670   4.325 -0.6934 -1.4861  1.2878
  434MOL0     H57245   1.144   8.500   4.260  1.9096 -1.2184 -1.4405
  434MOL0     H57246   1.327   8.709   4.124 -0.5489  0.9378  0.0027
  434MOL0     H57247   1.304   8.528   4.098  0.2738  1.0398 -1.2126
  434MOL0     H57248   1.212   8.676   3.941  1.7334  0.3206  0.6664
  434MOL0     H57249   1.136   8.784   4.048  2.7842  2.4426 -6.6029
  434MOL0     H57250   0.815   8.588   3.967  0.8509  3.3312 -1.1374
  434MOL0     H57251   0.729   8.441   3.779 -1.3378 -1.2380  3.5281
  434MOL0     H57252   0.822   8.023   3.504 -0.8389 -1.6076 -0.3275
  434MOL0     H57253   0.788   7.886   3.296  1.0496 -0.4577 -1.8607
  434MOL0     H57254   0.706   7.942   3.012  0.8239 -0.4977  0.2684
  434MOL0     H57255   0.746   7.806   3.100 -0.8162 -0.2477 -0.5654
  434MOL0     H57256   0.749   7.711   2.890 -2.5800  1.3134  0.4343
  434MOL0     H57257   0.910   7.761   2.867  0.7566  0.5245 -0.8569
  434MOL0     H57258   0.858   7.986   2.773 -0.5655  1.4363 -0.2938
  434MOL0     H57259   0.693   7.961   2.770 -0.9174 -0.4556  0.0685
  434MOL0     H57260   0.812   7.919   2.558 -0.6380  1.0011  0.7074
  434MOL0     H57261   0.905   7.784   2.632 -0.1763 -1.4645 -0.1403
  434MOL0     H57262   0.678   7.683   2.683  1.5449 -1.1049 -1.1290
  434MOL0     H57263   0.748   7.687   2.512  0.2698 -0.1950  0.0612
  434MOL0     H57264   0.606   7.875   2.459  1.3349  1.0501  0.1857
  434MOL0     H57265   0.546   7.886   2.622 -1.4040  0.0269 -1.3687
  434MOL0     H57266   0.486   7.663   2.425 -0.6532 -0.0956 -0.6291
  434MOL0     H57267   0.447   7.662   2.596 -1.4685 -0.6621 -1.0590
  434MOL0     H57268   0.372   7.891   2.406  1.9249 -1.3150 -1.2190
  434MOL0     H57269   0.304   7.858   2.560 -0.1796  2.0152 -0.9958
  434MOL0     H57270   1.039   8.160   3.077  0.5079 -0.5965  1.1420
  434MOL0     H57271   1.045   8.306   3.281  0.3353 -0.1400  2.9918
  434MOL0     H57272   1.135   8.325   3.689  4.9028  1.8488  3.1553
  434MOL0     H57273   1.207   8.455   3.894 -0.5263  2.0178  0.5365
  434MOL0     H57274   0.791   9.299   4.734 -1.4015  1.7889 -2.1551
  434MOL0     H57275   0.570   9.402   4.755 -0.7286  2.0966  0.0136
  434MOL0     H57276   0.203   9.469   4.908 -1.3210  1.1032 -3.1386
  434MOL0     H57277  -0.024   9.512   4.967  1.1877 -0.0093 -2.5943
  434MOL0     H57278  -0.206   9.547   5.126  2.9553  1.4309  3.1506
  434MOL0     H57279  -0.212   9.629   4.968 -1.4613  1.4769 -0.1770
  434MOL0     H57280  -0.380   9.729   5.214 -0.5252 -0.2512 -0.0617
  434MOL0     H57281  -0.348   9.806   5.061  1.6331  0.0751  0.0236
  434MOL0     H57282  -0.426   9.575   4.947  1.9408 -1.9732  1.1891
  434MOL0     H57283  -0.558   9.650   5.013 -1.3112 -2.2670 -0.9400
  434MOL0     H57284  -0.517   9.402   5.054 -4.0507  1.2288  0.2016
  434MOL0     H57285  -0.423   9.439   5.191 -0.7576  1.0304  2.4686
  434MOL0     H57286  -0.805   9.593   5.298  0.7825  2.1855 -1.1881
  434MOL0     H57287   0.104   9.846   5.195 -0.8081 -1.5191  0.4848
  434MOL0     H57288   0.341   9.810   5.131 -0.3272 -0.1078  0.1984
  435MOL0     O57289   5.744   9.202   9.601 -0.0154  0.1818  0.3538
  435MOL0     C57290   5.712   9.283   9.513  0.6087 -0.5489  0.6904
  435MOL0     O57291   5.599   9.355   9.510 -0.3015  0.0359 -0.1518
  435MOL0     C57292   5.505   9.343   9.614  0.1353  0.4497  0.0194
  435MOL0     C57293   5.436   9.459   9.650  0.9090  0.1418 -0.0065
  435MOL0     C57294   5.342   9.465   9.755  0.9240  0.4188 -0.0341
  435MOL0     C57295   5.326   9.348   9.839  0.6137  0.1391 -0.1249
  435MOL0     O57296   5.247   9.367   9.946 -0.3872 -0.4057 -0.0154
  435MOL0     C57297   5.250   9.259  10.043  0.6546 -0.0449  0.1851
  435MOL0     C57298   5.159   9.293  10.158  0.2481  0.3007 -0.4285
  435MOL0     C57299   5.013   9.260  10.117  0.4969 -0.0636  0.3082
  435MOL0     C57300   4.913   9.318  10.212 -0.3058 -0.6484  0.6257
  435MOL0     C57301   4.774   9.307  10.154  0.2794  0.8051  0.3567
  435MOL0     C57302   4.728   9.159  10.176 -0.4039  0.2357  0.3653
  435MOL0     C57303   4.699   9.083  10.048  0.4453  0.6233 -0.1660
  435MOL0     C57304   4.680   8.939  10.078 -0.1760 -0.7818 -0.4857
  435MOL0     N57305   4.541   8.925  10.116  0.6868 -0.4501 -1.2733
  435MOL0     C57306   4.447   8.869  10.039  0.5557 -0.1681 -1.2821
  435MOL0     C57307   4.350   8.828  10.131 -1.0037  0.2274  0.2373
  435MOL0     C57308   4.216   8.767  10.084  0.5161 -0.9276 -0.3563
  435MOL0     C57309   4.139   8.853   9.975 -0.3460 -0.0459 -1.2502
  435MOL0     C57310   4.018   8.769   9.931  0.2425  0.9609  0.6456
  435MOL0     C57311   3.905   8.752  10.040 -0.3508  0.1026  0.4794
  435MOL0     O57312   3.793   8.704   9.967  0.4503 -0.1087  0.2725
  435MOL0     C57313   3.677   8.675  10.031  0.3704 -0.2518  0.0654
  435MOL0     C57314   3.584   8.618   9.956  0.3536  0.0103  0.4222
  435MOL0     C57315   3.463   8.572  10.008 -0.2839 -0.0474 -0.1655
  435MOL0     C57316   3.427   8.594  10.139  0.5232  0.1644  0.2765
  435MOL0     C57317   3.293   8.540  10.189 -0.4446 -0.4846  0.1516
  435MOL0     O57318   3.226   8.450  10.116 -0.8854  0.0808 -0.1638
  435MOL0     C57319   3.090   8.438  10.133  0.6475  1.0716  0.4953
  435MOL0     C57320   3.012   8.495  10.041  0.4477 -0.3497 -0.0355
  435MOL0     C57321   2.871   8.486  10.058 -0.2433  0.5831  0.6562
  435MOL0     C57322   2.816   8.415  10.170 -0.1353  1.2604  0.1916
  435MOL0     O57323   2.688   8.377  10.173  0.1478 -0.3113 -0.5882
  435MOL0     C57324   2.625   8.321  10.057 -0.7016 -0.0158 -0.4402
  435MOL0     C57325   2.479   8.293  10.090  0.1618  1.1178  0.5309
  435MOL0     C57326   2.406   8.423  10.124  0.1975 -0.2183  0.5636
  435MOL0     C57327   2.253   8.390  10.114 -0.1857  0.2380  0.4252
  435MOL0     C57328   2.173   8.514  10.146 -0.0638 -0.1662 -0.3644
  435MOL0     C57329   2.061   8.473  10.233 -0.0208  0.0400 -0.1339
  435MOL0     C57330   1.957   8.595  10.253 -0.4511  0.4119  0.3492
  435MOL0     C57331   1.859   8.604  10.143  0.1764 -0.0247 -0.4873
  435MOL0    Cl57332   1.730   8.708  10.203 -0.0548 -0.4459 -0.4071
  435MOL0     C57333   2.908   8.369  10.273 -0.5600  0.2089  0.6087
  435MOL0     C57334   3.044   8.386  10.256 -0.6753  0.0853  1.2650
  435MOL0     O57335   3.253   8.592  10.293  0.2063  0.8874  0.5777
  435MOL0     C57336   3.521   8.666  10.213  0.8747  0.2774 -0.7551
  435MOL0     C57337   3.650   8.702  10.167  0.3477  0.0539  0.2000
  435MOL0     N57338   4.391   8.863  10.256 -0.1685 -0.1941 -0.7925
  435MOL0     N57339   4.498   8.933  10.245  0.0337 -0.5783  0.4209
  435MOL0     C57340   5.394   9.227   9.800 -0.1368 -0.1039 -0.0343
  435MOL0     C57341   5.483   9.228   9.693 -0.1978 -0.0848  0.5775
  435MOL0     C57342   5.804   9.310   9.405 -1.0358 -0.2025  0.5680
  435MOL0     C57343   5.940   9.283   9.425 -0.2090  0.9824  0.3603
  435MOL0     C57344   6.035   9.309   9.323 -0.6035  0.2125 -0.4164
  435MOL0     C57345   6.002   9.368   9.203  0.1271 -0.0677  0.0788
  435MOL0     O57346   6.080   9.418   9.109 -0.9485 -0.0082  0.3175
  435MOL0     C57347   6.225   9.431   9.135  0.2967  0.1441 -0.7614
  435MOL0     C57348   6.265   9.516   9.010 -0.3578 -0.7991 -0.2637
  435MOL0     C57349   6.247   9.670   9.038  1.0387 -0.3363 -0.6642
  435MOL0     C57350   6.163   9.742   8.937  0.2130  1.2289  0.2607
  435MOL0     C57351   6.192   9.718   8.793  0.5550 -0.2551 -0.7938
  435MOL0     C57352   6.214   9.718   8.675 -0.5387  0.6342  0.1710
  435MOL0     C57353   5.873   9.400   9.188 -0.0036 -0.1539  0.4104
  435MOL0     C57354   5.769   9.365   9.281 -1.1373 -0.5433 -0.9830
  435MOL0     H57355   5.456   9.547   9.589  0.4860  1.8219  2.1476
  435MOL0     H57356   5.286   9.557   9.765 -2.5237 -1.4404 -0.7189
  435MOL0     H57357   5.349   9.249  10.090  0.0601 -1.4224  1.2130
  435MOL0     H57358   5.219   9.163   9.999 -0.4975 -0.8650  2.6370
  435MOL0     H57359   5.170   9.401  10.165 -2.1375  0.6029 -0.6145
  435MOL0     H57360   5.184   9.237  10.249 -4.0640 -0.2925  0.5853
  435MOL0     H57361   4.996   9.152  10.111 -2.8610  0.3590  0.1737
  435MOL0     H57362   4.990   9.310  10.022  2.5021  2.7293  1.1558
  435MOL0     H57363   4.927   9.274  10.311  0.7232 -1.1009  0.2973
  435MOL0     H57364   4.938   9.425  10.213 -1.3021 -0.4110  1.3600
  435MOL0     H57365   4.774   9.328  10.047  0.1087  0.3803  0.2726
  435MOL0     H57366   4.715   9.384  10.205  3.0979  3.1542  0.3731
  435MOL0     H57367   4.643   9.170  10.243 -1.2675  1.3763 -0.8739
  435MOL0     H57368   4.800   9.103  10.237 -0.7113 -2.0365 -1.2516
  435MOL0     H57369   4.614   9.123   9.992 -0.1278 -0.5343 -0.1547
  435MOL0     H57370   4.785   9.093   9.981  0.3701  2.7091 -0.0112
  435MOL0     H57371   4.734   8.906  10.167  0.4708 -0.1391 -0.6361
  435MOL0     H57372   4.704   8.876   9.991 -2.3986 -1.7490 -0.4837
  435MOL0     H57373   4.445   8.849   9.932 -2.5281 -1.7218 -1.0200
  435MOL0     H57374   4.144   8.760  10.166 -1.4393  2.2559 -1.6052
  435MOL0     H57375   4.235   8.669  10.040  0.2734 -1.7750  1.3612
  435MOL0     H57376   4.211   8.877   9.897  0.8351  0.9520  0.0941
  435MOL0     H57377   4.110   8.946  10.025 -0.4597 -1.4177  1.4559
  435MOL0     H57378   3.961   8.816   9.850 -0.8149 -2.2406 -0.5974
  435MOL0     H57379   4.044   8.672   9.889 -1.2674  0.4111  0.9103
  435MOL0     H57380   3.889   8.854  10.077  2.0429  0.1994  1.4210
  435MOL0     H57381   3.938   8.678  10.113 -1.0351 -3.0774 -2.2268
  435MOL0     H57382   3.598   8.624   9.849 -0.6489  2.9052  0.3921
  435MOL0     H57383   3.396   8.517   9.944  0.1840 -1.2800  0.3701
  435MOL0     H57384   3.046   8.549   9.952 -1.1256 -0.4446 -0.7248
  435MOL0     H57385   2.808   8.526   9.979 -0.6531  1.2877  1.3154
  435MOL0     H57386   2.658   8.219  10.033  1.6291  0.3419  0.9338
  435MOL0     H57387   2.640   8.390   9.974  0.3381  1.4638  0.9277
  435MOL0     H57388   2.467   8.223  10.173 -1.6313  1.1153  0.3147
  435MOL0     H57389   2.435   8.246  10.002 -3.2143 -2.0597  3.5840
  435MOL0     H57390   2.427   8.506  10.056 -0.9696 -0.9305 -0.7096
  435MOL0     H57391   2.435   8.449  10.226 -1.5917 -0.1392  1.0947
  435MOL0     H57392   2.223   8.355  10.015  4.2493  1.1383 -1.5126
  435MOL0     H57393   2.245   8.309  10.187  0.3564  0.5011  0.7878
  435MOL0     H57394   2.144   8.558  10.050 -3.3335 -2.9806 -0.8483
  435MOL0     H57395   2.243   8.575  10.204  2.4523 -2.4753 -0.7383
  435MOL0     H57396   2.104   8.447  10.330  0.3254  0.4771 -0.1622
  435MOL0     H57397   2.005   8.393  10.185 -0.6560  1.6582 -2.2336
  435MOL0     H57398   1.902   8.584  10.347 -1.1119 -0.4473 -0.1184
  435MOL0     H57399   2.008   8.691  10.261  0.5477 -0.0585 -0.2368
  435MOL0     H57400   1.823   8.505  10.113 -2.1232  0.9082 -1.0107
  435MOL0     H57401   1.902   8.654  10.056 -1.5158  2.7475  0.1433
  435MOL0     H57402   2.873   8.317  10.362 -0.7829 -0.0032  0.3972
  435MOL0     H57403   3.112   8.349  10.331 -0.0157 -2.4384 -0.4640
  435MOL0     H57404   3.498   8.681  10.318  1.6763 -1.8141 -0.2262
  435MOL0     H57405   3.718   8.758  10.230  0.7015 -0.3777  0.2001
  435MOL0     H57406   5.393   9.131   9.852 -0.7474  0.3018  0.7296
  435MOL0     H57407   5.536   9.140   9.659  1.0035  0.7138  0.3349
  435MOL0     H57408   5.982   9.249   9.519 -0.8874  1.8627  0.9940
  435MOL0     H57409   6.138   9.299   9.358 -0.3882  0.6308 -0.9180
  435MOL0     H57410   6.261   9.328   9.127 -0.9191 -0.5211  1.3429
  435MOL0     H57411   6.231   9.474   9.235 -1.7660 -3.1722  0.9785
  435MOL0     H57412   6.369   9.496   8.982 -0.8568 -0.8121 -2.2816
  435MOL0     H57413   6.197   9.494   8.927  0.4813  0.1703 -1.2458
  435MOL0     H57414   6.343   9.723   9.038  1.7570 -1.4495  2.3882
  435MOL0     H57415   6.204   9.675   9.139  0.8510  0.1734 -0.7665
  435MOL0     H57416   6.063   9.705   8.962  0.3643 -0.9073 -1.9248
  435MOL0     H57417   6.165   9.850   8.949  1.4879  1.8228 -3.9372
  435MOL0     H57418   6.238   9.731   8.571  0.4091  0.7299  0.3919
  435MOL0     H57419   5.853   9.456   9.097 -1.8897 -2.7269 -0.8759
  435MOL0     H57420   5.669   9.402   9.265 -0.7064  0.9952 -0.3420
  436MOL0     O57421   2.243   0.918   0.968  0.4703  0.5227  0.0859
  436MOL0     C57422   2.203   0.984   0.869 -0.8174 -0.6732 -0.9402
  436MOL0     O57423   2.078   1.033   0.850  0.1471  0.0945 -0.4632
  436MOL0     C57424   1.975   1.042   0.938  0.6015 -0.2754 -1.1189
  436MOL0     C57425   1.847   1.074   0.890 -0.0767  0.0745  1.2333
  436MOL0     C57426   1.742   1.054   0.973 -0.1900 -0.4392  0.0738
  436MOL0     C57427   1.750   1.040   1.115  0.0583 -0.3305 -0.4267
  436MOL0     O57428   1.640   1.037   1.186  0.4548  0.5312 -0.7222
  436MOL0     C57429   1.646   1.017   1.331 -0.5039 -0.2818 -0.2205
  436MOL0     C57430   1.505   1.029   1.393 -0.3894  0.2382 -0.9194
  436MOL0     C57431   1.478   1.164   1.458 -0.2122 -0.5424  0.9407
  436MOL0     C57432   1.346   1.188   1.529 -0.4434  0.2524 -0.2521
  436MOL0     C57433   1.349   1.316   1.607  0.3963 -0.0482 -0.2038
  436MOL0     C57434   1.229   1.333   1.700  0.8653  0.1155 -0.3982
  436MOL0     C57435   1.108   1.387   1.639  0.0126 -0.8623 -0.6876
  436MOL0     C57436   0.996   1.416   1.743  0.5771  0.8283 -0.6959
  436MOL0     N57437   0.876   1.467   1.675  0.3545 -0.8431  0.7097
  436MOL0     C57438   0.747   1.424   1.672 -0.6051  0.0055  0.3666
  436MOL0     C57439   0.676   1.532   1.674  1.4011  0.2605 -0.0547
  436MOL0     C57440   0.525   1.547   1.697  0.7124 -0.3592  0.2836
  436MOL0     C57441   0.441   1.471   1.595 -0.0334 -0.1703 -0.0387
  436MOL0     C57442   0.290   1.497   1.633 -0.7323 -1.2187  0.9553
  436MOL0     C57443   0.219   1.374   1.594  0.0483 -0.5388  0.3149
  436MOL0     O57444   0.185   1.380   1.447 -0.1801  0.2200  0.1149
  436MOL0     C57445   0.071   1.434   1.396  0.2108  0.0471 -0.4289
  436MOL0     C57446   0.024   1.404   1.271  0.1561  0.1937  0.0031
  436MOL0     C57447  -0.090   1.468   1.212 -0.1812  0.4297  0.2603
  436MOL0     C57448  -0.154   1.570   1.287  0.3345  0.6068 -0.8141
  436MOL0     C57449  -0.270   1.653   1.240 -0.5790 -0.0160 -0.5283
  436MOL0     O57450  -0.322   1.754   1.330  0.1440 -0.4303  0.0433
  436MOL0     C57451  -0.411   1.841   1.277 -2.0654 -0.1649  0.2274
  436MOL0     C57452  -0.372   1.978   1.257  0.3301  0.2091  0.2592
  436MOL0     C57453  -0.460   2.069   1.194 -0.2433  0.3454  0.3186
  436MOL0     C57454  -0.593   2.027   1.169  0.5517 -0.2950 -0.9744
  436MOL0     O57455  -0.685   2.114   1.110 -0.6190  0.5943  0.3057
  436MOL0     C57456  -0.679   2.251   1.145 -0.1873 -0.5373 -0.4791
  436MOL0     C57457  -0.808   2.322   1.110  0.2868  0.7049 -0.4476
  436MOL0     C57458  -0.855   2.317   0.971  0.8420  0.6177  0.3670
  436MOL0     C57459  -0.997   2.379   0.955 -0.2221 -0.0541  0.4821
  436MOL0     C57460  -1.026   2.444   0.818  0.8918 -0.5202  0.4108
  436MOL0     C57461  -1.169   2.464   0.794 -0.1055  0.2071  0.1260
  436MOL0     C57462  -1.229   2.579   0.882  0.0615 -0.5995  0.0219
  436MOL0     C57463  -1.382   2.594   0.861  0.7515  0.5845  0.0317
  436MOL0    Cl57464  -1.438   2.759   0.882  0.2840  0.2146  0.2131
  436MOL0     C57465  -0.634   1.893   1.193 -0.5297 -0.3964  0.4533
  436MOL0     C57466  -0.539   1.802   1.244 -0.0342  0.1680 -0.3146
  436MOL0     O57467  -0.310   1.641   1.124 -0.1284 -0.1450 -0.4582
  436MOL0     C57468  -0.112   1.585   1.419 -0.5685 -0.2768  0.4209
  436MOL0     C57469  -0.011   1.509   1.473 -0.2811  1.0918 -0.0189
  436MOL0     N57470   0.751   1.639   1.670  0.3245  0.7491 -0.3808
  436MOL0     N57471   0.875   1.598   1.659  0.7213  0.0323 -0.2782
  436MOL0     C57472   1.881   1.025   1.170  0.6556  0.4947 -0.1743
  436MOL0     C57473   1.994   1.018   1.085 -0.1275 -0.7601 -0.3782
  436MOL0     C57474   2.304   0.992   0.760  0.5316 -0.3275 -0.1217
  436MOL0     C57475   2.432   0.929   0.765  1.4969 -0.8792 -0.3852
  436MOL0     C57476   2.518   0.917   0.659 -0.0702 -0.3663 -0.3575
  436MOL0     C57477   2.470   0.972   0.538 -0.2260 -0.3935 -0.6387
  436MOL0     O57478   2.554   0.958   0.437 -0.2671 -0.2216  0.0520
  436MOL0     C57479   2.526   1.020   0.308 -0.5070  0.0087 -0.2685
  436MOL0     C57480   2.623   0.954   0.210 -0.2547  0.1522  0.0363
  436MOL0     C57481   2.562   0.827   0.145 -0.5279  0.1876 -0.6174
  436MOL0     C57482   2.634   0.772   0.024 -0.8720  0.1794  1.0049
  436MOL0     C57483   2.629   0.868  -0.087  0.1928  0.6848  0.2504
  436MOL0     C57484   2.613   0.962  -0.170 -0.3414 -0.9460 -0.8501
  436MOL0     C57485   2.355   1.045   0.534 -0.5877 -0.1368  0.1067
  436MOL0     C57486   2.276   1.055   0.644 -0.4640 -0.5655  0.5455
  436MOL0     H57487   1.834   1.098   0.785 -0.2376  0.9632  1.4438
  436MOL0     H57488   1.638   1.067   0.946 -0.9798  1.1671  3.3792
  436MOL0     H57489   1.716   1.088   1.376  0.6322  0.5481 -3.0395
  436MOL0     H57490   1.687   0.917   1.347 -0.8792 -0.2359  1.0930
  436MOL0     H57491   1.490   0.954   1.471 -0.8985 -0.7571 -1.9402
  436MOL0     H57492   1.428   1.019   1.316 -2.6573  2.3445  0.9097
  436MOL0     H57493   1.485   1.240   1.378  0.7298 -0.8969  0.6738
  436MOL0     H57494   1.568   1.186   1.517  1.2164  1.9399 -1.8560
  436MOL0     H57495   1.263   1.182   1.459 -1.0578  1.4162  0.3460
  436MOL0     H57496   1.337   1.100   1.592  2.8366 -0.8025 -1.0305
  436MOL0     H57497   1.349   1.391   1.528 -0.7485 -0.5137 -0.6598
  436MOL0     H57498   1.441   1.332   1.665  0.1681 -2.4886  0.9507
  436MOL0     H57499   1.262   1.383   1.791  3.5873  0.2010 -1.3220
  436MOL0     H57500   1.197   1.234   1.733  0.7797  0.8194  1.7654
  436MOL0     H57501   1.119   1.487   1.596  0.2501 -2.3786 -4.4924
  436MOL0     H57502   1.073   1.320   1.561 -1.0094  0.8119 -1.7223
  436MOL0     H57503   1.033   1.487   1.818 -0.9634 -0.4673  1.3956
  436MOL0     H57504   0.977   1.326   1.801  2.4469  1.5580  1.1995
  436MOL0     H57505   0.711   1.325   1.700  1.3967 -0.4656  1.4778
  436MOL0     H57506   0.499   1.653   1.694  2.0781 -0.0252 -0.5212
  436MOL0     H57507   0.512   1.505   1.797  1.7299 -1.4916 -0.0379
  436MOL0     H57508   0.472   1.368   1.574 -0.7541 -0.2111 -0.9768
  436MOL0     H57509   0.450   1.519   1.497  0.4139  0.0944  0.1286
  436MOL0     H57510   0.276   1.522   1.738  2.1025 -0.5350  1.2380
  436MOL0     H57511   0.249   1.582   1.577  0.5191 -0.8698  0.5461
  436MOL0     H57512   0.134   1.380   1.663 -0.8663  2.2768 -0.8757
  436MOL0     H57513   0.279   1.286   1.615  2.9877  1.8388  2.7484
  436MOL0     H57514   0.088   1.336   1.215  0.2480 -0.8717  1.3637
  436MOL0     H57515  -0.118   1.438   1.111  0.8393  1.8302 -0.4652
  436MOL0     H57516  -0.275   2.009   1.296  0.9991 -3.2325  1.7817
  436MOL0     H57517  -0.413   2.167   1.181  1.8919 -0.7148 -0.3905
  436MOL0     H57518  -0.602   2.310   1.095  0.5363  0.4419  1.6988
  436MOL0     H57519  -0.670   2.262   1.253 -1.4001  2.4634 -0.5854
  436MOL0     H57520  -0.814   2.417   1.163 -0.5993 -0.8078  2.3949
  436MOL0     H57521  -0.885   2.266   1.165  2.7480 -1.1592  1.3242
  436MOL0     H57522  -0.854   2.216   0.927 -3.5210  0.5103  0.1248
  436MOL0     H57523  -0.790   2.374   0.904  1.5691 -1.7192 -1.0379
  436MOL0     H57524  -1.081   2.315   0.984 -1.1869  0.4548 -1.0677
  436MOL0     H57525  -1.003   2.463   1.024 -0.7905  1.2021 -1.0372
  436MOL0     H57526  -0.989   2.373   0.743  0.9834 -1.3493  1.2284
  436MOL0     H57527  -0.981   2.544   0.811  0.3833 -0.1590  1.9507
  436MOL0     H57528  -1.220   2.369   0.809 -0.4271  0.4565  0.6628
  436MOL0     H57529  -1.173   2.495   0.689 -2.9665 -2.3948 -0.6781
  436MOL0     H57530  -1.212   2.572   0.990 -3.5441  0.0122  0.7399
  436MOL0     H57531  -1.187   2.670   0.838  0.5376 -1.2555 -0.9029
  436MOL0     H57532  -1.427   2.524   0.932 -1.2897  2.4659  0.7139
  436MOL0     H57533  -1.410   2.551   0.765  2.8205 -0.9407  0.0605
  436MOL0     H57534  -0.733   1.864   1.160  0.2319 -0.9524 -1.4900
  436MOL0     H57535  -0.573   1.699   1.238 -3.5571  1.2740 -2.4211
  436MOL0     H57536  -0.158   1.662   1.480  2.5185  0.8426  1.5490
  436MOL0     H57537   0.007   1.515   1.580 -0.7911 -1.3755  0.2753
  436MOL0     H57538   1.891   1.015   1.278  0.8505  2.1018 -0.0187
  436MOL0     H57539   2.090   0.990   1.127  0.8625  2.3325 -0.3354
  436MOL0     H57540   2.473   0.886   0.856 -2.0798  0.4286  2.0850
  436MOL0     H57541   2.619   0.877   0.667  0.0122  0.0098  0.6573
  436MOL0     H57542   2.565   1.122   0.314  2.1563 -0.9661  0.5225
  436MOL0     H57543   2.423   1.003   0.276 -1.1717 -2.2859  2.5955
  436MOL0     H57544   2.643   1.026   0.130  1.5381  1.0456  1.2373
  436MOL0     H57545   2.722   0.935   0.253  0.8881 -0.5494 -2.6889
  436MOL0     H57546   2.462   0.852   0.109 -2.5402 -1.0081  3.4676
  436MOL0     H57547   2.541   0.753   0.223  1.0967  0.6997  0.3507
  436MOL0     H57548   2.738   0.758   0.054 -0.6401 -2.0602 -0.5813
  436MOL0     H57549   2.598   0.672  -0.003  0.5254  0.5337 -2.8699
  436MOL0     H57550   2.595   1.044  -0.236 -2.1010  0.1745  0.8980
  436MOL0     H57551   2.332   1.096   0.441 -0.1730 -2.5447 -1.4040
  436MOL0     H57552   2.178   1.100   0.632 -2.1029 -4.1124 -1.1862
  437MOL0     O57553   3.713  11.207   9.606 -0.3548  0.1634  0.4243
  437MOL0     C57554   3.792  11.128   9.555  0.2047 -0.2148 -0.2274
  437MOL0     O57555   3.929  11.130   9.558 -0.4426 -0.1611 -0.3710
  437MOL0     C57556   3.980  11.214   9.650 -0.1247 -0.1332  0.4829
  437MOL0     C57557   3.970  11.193   9.788 -0.1963 -0.0470  0.0333
  437MOL0     C57558   4.015  11.286   9.877 -0.4749  0.8818  0.2634
  437MOL0     C57559   4.059  11.415   9.830  0.4447 -0.8278 -0.3988
  437MOL0     O57560   4.079  11.523   9.910  0.2919 -0.2083 -0.5241
  437MOL0     C57561   4.132  11.480  10.042  0.2225  0.4735 -0.2969
  437MOL0     C57562   4.036  11.492  10.152 -0.0559  1.2708 -0.1371
  437MOL0     C57563   4.018  11.636  10.184  0.1003  0.0926  0.2357
  437MOL0     C57564   3.928  11.653  10.310  0.0478  0.5022 -0.5135
  437MOL0     C57565   3.886  11.796  10.353 -0.5372 -0.2217  0.0237
  437MOL0     C57566   4.000  11.889  10.417  0.1447  0.1894  0.3511
  437MOL0     C57567   4.028  11.859  10.568 -0.6296 -0.0938  0.4517
  437MOL0     C57568   3.950  11.942  10.667  0.7551 -0.6857 -0.7975
  437MOL0     N57569   3.809  11.919  10.655  1.1556  0.5208 -0.2483
  437MOL0     C57570   3.747  11.794  10.683  0.1662  0.6233  0.2831
  437MOL0     C57571   3.617  11.811  10.664  0.0680  0.5621 -0.4606
  437MOL0     C57572   3.522  11.701  10.689  0.1399 -1.0094  0.7483
  437MOL0     C57573   3.507  11.691  10.844 -0.3614 -0.0199 -0.0556
  437MOL0     C57574   3.413  11.574  10.880 -0.0131  0.0873  0.6317
  437MOL0     C57575   3.268  11.572  10.817  0.4721 -0.7772 -0.0493
  437MOL0     O57576   3.202  11.695  10.829 -0.4211 -0.1230  0.1685
  437MOL0     C57577   3.064  11.705  10.839  0.7944  0.4763 -0.5206
  437MOL0     C57578   3.015  11.826  10.891 -0.2885  0.7325 -0.3714
  437MOL0     C57579   2.877  11.838  10.905  0.5002  0.6507  0.2673
  437MOL0     C57580   2.785  11.735  10.863  0.6353  0.2335 -0.3241
  437MOL0     C57581   2.637  11.761  10.861  0.5427 -0.2841 -0.4823
  437MOL0     O57582   2.587  11.870  10.915  0.1713  0.8132  0.1023
  437MOL0     C57583   2.455  11.857  10.956  0.0651 -0.9907  0.0959
  437MOL0     C57584   2.369  11.976  10.959 -0.5312 -0.0579  0.1711
  437MOL0     C57585   2.233  11.967  11.000  0.2763 -0.5015  0.2362
  437MOL0     C57586   2.178  11.852  11.052 -0.0938 -0.4048  0.3935
  437MOL0     O57587   2.048  11.857  11.088 -0.0587 -0.2430 -0.0542
  437MOL0     C57588   2.020  11.810  11.220 -0.3598 -0.7860 -0.2275
  437MOL0     C57589   1.870  11.806  11.243  0.3074  0.1990  0.2102
  437MOL0     C57590   1.801  11.935  11.261 -0.6914  0.0006  0.3384
  437MOL0     C57591   1.667  11.925  11.336  0.0178 -0.2424 -1.1862
  437MOL0     C57592   1.558  11.917  11.233  0.0363  0.5365  0.5282
  437MOL0     C57593   1.419  11.934  11.295 -0.6426 -0.1637 -0.6771
  437MOL0     C57594   1.307  11.897  11.201  0.4754  0.0036 -0.0499
  437MOL0     C57595   1.164  11.945  11.225 -0.1671  0.4334  0.5964
  437MOL0    Cl57596   1.116  11.925  11.395 -0.1562 -0.2671 -0.1221
  437MOL0     C57597   2.259  11.747  11.070 -0.5378 -0.2259  0.1503
  437MOL0     C57598   2.401  11.745  11.022  1.3229 -0.9319 -0.4194
  437MOL0     O57599   2.574  11.669  10.810  0.0922  0.3838  0.4226
  437MOL0     C57600   2.830  11.608  10.821 -0.4671 -0.3452 -0.6209
  437MOL0     C57601   2.976  11.599  10.807 -0.3803 -0.4904 -0.0085
  437MOL0     N57602   3.595  11.939  10.641 -0.1219  0.1004 -0.0934
  437MOL0     N57603   3.708  11.998  10.612 -0.4650 -0.0391 -0.2655
  437MOL0     C57604   4.070  11.436   9.692  0.6428 -0.0313  0.0319
  437MOL0     C57605   4.033  11.329   9.600 -0.4917  0.3578 -0.5863
  437MOL0     C57606   3.748  11.008   9.502  0.1962  0.4018 -0.3154
  437MOL0     C57607   3.648  10.925   9.554 -0.0480  0.6890  0.4220
  437MOL0     C57608   3.608  10.804   9.494  0.4805  0.4396 -0.1034
  437MOL0     C57609   3.680  10.760   9.382 -0.8154  0.0769 -0.5050
  437MOL0     O57610   3.652  10.635   9.335  0.5417 -0.4494  0.0830
  437MOL0     C57611   3.756  10.556   9.279  0.2779  0.2697  0.0666
  437MOL0     C57612   3.853  10.485   9.381  0.4643 -0.1286  0.3509
  437MOL0     C57613   3.931  10.379   9.304 -0.7469 -0.4254  0.2700
  437MOL0     C57614   4.030  10.428   9.197  0.0340  0.4115 -0.0688
  437MOL0     C57615   4.146  10.507   9.246  0.0032 -0.2409 -0.1622
  437MOL0     C57616   4.243  10.581   9.262 -0.3769 -0.6008 -0.0998
  437MOL0     C57617   3.775  10.848   9.325  0.2089 -0.0659  0.8463
  437MOL0     C57618   3.807  10.966   9.379 -0.7440  0.9874 -0.1380
  437MOL0     H57619   3.911  11.106   9.813 -0.2246  0.0534  0.3174
  437MOL0     H57620   3.993  11.262   9.980 -1.6907 -0.1375 -0.2155
  437MOL0     H57621   4.213  11.548  10.070 -1.1750  1.6685  0.9710
  437MOL0     H57622   4.174  11.379  10.036 -3.9109 -1.4355 -0.5307
  437MOL0     H57623   4.083  11.445  10.239 -0.7266  0.1619 -0.3539
  437MOL0     H57624   3.947  11.436  10.122  2.7306 -2.4799 -2.4687
  437MOL0     H57625   3.987  11.701  10.101  1.4383  0.3025 -0.1215
  437MOL0     H57626   4.113  11.676  10.218  1.1556 -0.3167 -2.0502
  437MOL0     H57627   3.833  11.608  10.282 -0.0128 -1.3290  2.1838
  437MOL0     H57628   3.969  11.586  10.387 -0.5541 -1.9235 -2.1976
  437MOL0     H57629   3.799  11.784  10.418 -0.7794 -1.6786 -0.5247
  437MOL0     H57630   3.853  11.850  10.264  0.6452  4.4183  2.1038
  437MOL0     H57631   3.968  11.993  10.410  4.3000  1.5421 -1.8668
  437MOL0     H57632   4.094  11.885  10.361 -0.4778 -0.3747 -0.6840
  437MOL0     H57633   4.002  11.756  10.593  1.3543 -0.4501  1.2691
  437MOL0     H57634   4.134  11.861  10.597 -1.1871 -1.5061  2.7985
  437MOL0     H57635   3.968  12.048  10.645 -2.5385  0.3153  0.7141
  437MOL0     H57636   3.982  11.913  10.767  2.1679 -0.5011 -1.1754
  437MOL0     H57637   3.790  11.699  10.713  2.2574  0.4663 -2.6564
  437MOL0     H57638   3.556  11.606  10.646  0.1825 -1.0655  0.9061
  437MOL0     H57639   3.426  11.738  10.651  1.7795  2.4418 -0.4138
  437MOL0     H57640   3.463  11.780  10.890 -1.0411 -1.4049  2.1323
  437MOL0     H57641   3.601  11.669  10.895 -1.4719  2.6146  3.6194
  437MOL0     H57642   3.463  11.482  10.849 -0.1382  0.0841  0.4350
  437MOL0     H57643   3.399  11.572  10.988 -2.7723 -1.0075  0.3269
  437MOL0     H57644   3.207  11.496  10.868 -0.1114  0.1494  0.6757
  437MOL0     H57645   3.271  11.539  10.713 -1.3317 -0.2865 -0.2933
  437MOL0     H57646   3.088  11.899  10.926 -1.4218  0.5741  2.5068
  437MOL0     H57647   2.840  11.932  10.943  1.7910  0.5016  1.9949
  437MOL0     H57648   2.413  12.067  10.920 -2.0807 -0.7849 -3.6809
  437MOL0     H57649   2.171  12.055  10.989 -1.1874 -1.5502 -0.2153
  437MOL0     H57650   2.072  11.865  11.297 -0.5143 -0.4816 -0.3399
  437MOL0     H57651   2.051  11.705  11.220  2.4125 -0.0564 -0.8184
  437MOL0     H57652   1.848  11.749  11.333 -0.0984  0.9021  0.5690
  437MOL0     H57653   1.832  11.742  11.163  1.6160  0.0879 -0.3536
  437MOL0     H57654   1.788  11.978  11.161  1.6053 -0.2290 -0.1298
  437MOL0     H57655   1.863  12.001  11.322  1.1213 -2.3823  1.2226
  437MOL0     H57656   1.676  11.849  11.413  2.5349  1.0139 -0.1358
  437MOL0     H57657   1.660  12.024  11.382 -2.9680 -0.4148 -1.0651
  437MOL0     H57658   1.574  11.825  11.177  1.9345  2.0469 -1.6096
  437MOL0     H57659   1.575  12.000  11.163 -0.0773  1.4199  1.5144
  437MOL0     H57660   1.408  12.035  11.334  0.4929 -0.2264 -0.1558
  437MOL0     H57661   1.415  11.874  11.387 -0.4930  2.6398  1.2671
  437MOL0     H57662   1.328  11.925  11.098  1.9451  1.7063  0.6722
  437MOL0     H57663   1.303  11.789  11.222  0.3447  0.2608  1.3276
  437MOL0     H57664   1.101  11.891  11.154  0.6918 -3.1736  2.3265
  437MOL0     H57665   1.156  12.051  11.200 -0.8542  0.3273  0.3567
  437MOL0     H57666   2.222  11.663  11.128  0.5037 -0.2411  0.8223
  437MOL0     H57667   2.458  11.655  11.039  2.1652 -0.3869 -0.2746
  437MOL0     H57668   2.762  11.528  10.795 -2.2588  1.1910 -0.7992
  437MOL0     H57669   3.025  11.520  10.752  1.8428  0.5724  0.3239
  437MOL0     H57670   4.094  11.537   9.660  0.8199  0.3033  1.1675
  437MOL0     H57671   4.031  11.337   9.492  0.7571 -1.5560 -0.8118
  437MOL0     H57672   3.606  10.944   9.652 -1.3019 -0.2779  0.0925
  437MOL0     H57673   3.542  10.733   9.542  1.4768 -0.7217 -0.4001
  437MOL0     H57674   3.819  10.617   9.214  1.8431 -0.0034  1.2637
  437MOL0     H57675   3.709  10.478   9.219  0.9989  0.2027 -0.4247
  437MOL0     H57676   3.925  10.555   9.423  0.1527  0.2927  0.1878
  437MOL0     H57677   3.800  10.437   9.464  0.3893 -0.0952  0.3228
  437MOL0     H57678   3.856  10.318   9.254 -2.0847  1.4064 -0.0870
  437MOL0     H57679   3.985  10.313   9.372  1.5902 -2.5762 -3.3326
  437MOL0     H57680   4.072  10.341   9.146 -1.2753  0.2901 -0.9987
  437MOL0     H57681   3.975  10.485   9.121 -2.9738 -0.7975  1.0481
  437MOL0     H57682   4.326  10.645   9.286  0.6732 -2.0380  0.2183
  437MOL0     H57683   3.827  10.836   9.230 -0.3126 -0.1087  0.5616
  437MOL0     H57684   3.889  11.019   9.333 -0.1619  0.8805  0.7626
  438MOL0     O57685  10.863  10.176   1.901 -0.0967  1.0608 -0.2230
  438MOL0     C57686  10.909  10.291   1.914 -0.0772  0.1609  0.0461
  438MOL0     O57687  11.039  10.338   1.915 -0.2327 -0.1400  0.1338
  438MOL0     C57688  11.133  10.255   1.961  0.5416 -0.1105 -0.6504
  438MOL0     C57689  11.250  10.269   1.894 -0.7242  0.4583 -0.4903
  438MOL0     C57690  11.361  10.198   1.939 -0.4241  0.7104 -0.6399
  438MOL0     C57691  11.355  10.098   2.041 -0.2896  0.5491  0.0918
  438MOL0     O57692  11.471  10.025   2.073 -0.0420  0.5898  0.0712
  438MOL0     C57693  11.444   9.894   2.126 -0.5538 -0.4466  0.4608
  438MOL0     C57694  11.570   9.817   2.110 -0.0943 -0.4326  0.7243
  438MOL0     C57695  11.586   9.786   1.962  0.3117  0.6031 -0.2439
  438MOL0     C57696  11.713   9.693   1.943 -0.3845 -0.1861 -0.2684
  438MOL0     C57697  11.849   9.742   2.001  0.2349 -0.2884  0.2494
  438MOL0     C57698  11.954   9.631   1.984  0.4698 -0.1685 -0.1368
  438MOL0     C57699  12.086   9.667   2.054 -0.0660 -0.0353  0.0324
  438MOL0     C57700  12.079   9.628   2.204  0.6472  0.1985  0.2153
  438MOL0     N57701  12.210   9.653   2.269  0.0884 -0.7200  0.6338
  438MOL0     C57702  12.269   9.778   2.290  0.5422  0.1099  0.4927
  438MOL0     C57703  12.386   9.760   2.353 -0.1310 -0.1968  0.3202
  438MOL0     C57704  12.484   9.863   2.397  0.7805 -0.2117  0.3291
  438MOL0     C57705  12.606   9.875   2.300  0.5588 -0.5407  0.2259
  438MOL0     C57706  12.557   9.898   2.156 -0.2768 -0.0669 -0.4948
  438MOL0     C57707  12.656   9.947   2.054 -0.3798 -0.1135  0.2262
  438MOL0     O57708  12.597   9.973   1.921 -0.3280  0.0086  0.1400
  438MOL0     C57709  12.513  10.080   1.908 -0.0428  1.0424  0.9653
  438MOL0     C57710  12.378  10.065   1.878 -0.4117  0.3142  0.0349
  438MOL0     C57711  12.299  10.180   1.866  0.2103  0.1870 -0.8548
  438MOL0     C57712  12.352  10.309   1.867 -0.5671 -0.0106  0.7248
  438MOL0     C57713  12.269  10.423   1.850  0.0626 -0.9258 -0.5458
  438MOL0     O57714  12.332  10.542   1.828 -0.1425  0.3706  0.4999
  438MOL0     C57715  12.262  10.651   1.863  0.2672 -0.3945  0.7861
  438MOL0     C57716  12.287  10.703   1.986 -0.7958 -1.2137  0.8578
  438MOL0     C57717  12.213  10.812   2.029  0.2209  0.3739 -0.2087
  438MOL0     C57718  12.129  10.878   1.941  0.5669  0.2109 -0.2687
  438MOL0     O57719  12.055  10.995   1.971 -0.7704 -0.1720 -0.1097
  438MOL0     C57720  12.067  11.049   2.097 -0.4702 -0.2614 -0.5469
  438MOL0     C57721  11.952  11.147   2.122 -0.5243 -0.2300 -0.2655
  438MOL0     C57722  11.824  11.066   2.148 -0.1330 -0.7932  0.3631
  438MOL0     C57723  11.717  11.164   2.210  0.3542 -0.0388 -0.1809
  438MOL0     C57724  11.573  11.105   2.229 -0.0780 -0.4949 -0.1359
  438MOL0     C57725  11.476  11.190   2.307 -0.2379  0.4111 -0.6123
  438MOL0     C57726  11.340  11.141   2.324  0.2491  0.6598  0.5050
  438MOL0     C57727  11.248  11.257   2.368  0.4149  1.0142  0.6147
  438MOL0    Cl57728  11.215  11.338   2.214  0.5841  0.2805 -0.4755
  438MOL0     C57729  12.114  10.833   1.811 -0.1617  0.7715  0.4264
  438MOL0     C57730  12.185  10.718   1.773  0.0651 -0.7666 -0.0358
  438MOL0     O57731  12.145  10.402   1.858 -0.1734  1.1637  0.8632
  438MOL0     C57732  12.492  10.323   1.892 -0.5083  0.2188  0.9004
  438MOL0     C57733  12.569  10.203   1.916 -0.1934  0.8260 -0.6159
  438MOL0     N57734  12.407   9.624   2.348 -1.1668 -0.0354 -0.6658
  438MOL0     N57735  12.297   9.565   2.307 -0.2243  0.1076  0.5507
  438MOL0     C57736  11.232  10.077   2.110 -0.5450  1.0043  0.1500
  438MOL0     C57737  11.115  10.145   2.057 -1.0225 -0.0787 -0.7646
  438MOL0     C57738  10.813  10.382   1.972  0.9954  0.3839  0.7459
  438MOL0     C57739  10.692  10.337   2.029  1.0624 -0.3796  0.5769
  438MOL0     C57740  10.592  10.429   2.071  0.1292  0.1493  0.1193
  438MOL0     C57741  10.615  10.563   2.062  0.1813 -0.6286  0.9794
  438MOL0     O57742  10.524  10.655   2.114 -0.7682 -0.1288  0.4341
  438MOL0     C57743  10.389  10.643   2.072 -0.4813 -1.1753 -0.3858
  438MOL0     C57744  10.298  10.645   2.191  0.1612  0.1528  0.7172
  438MOL0     C57745  10.151  10.667   2.161  0.3855 -0.6991  0.2272
  438MOL0     C57746  10.074  10.649   2.288  0.4492 -1.1383 -0.0974
  438MOL0     C57747   9.925  10.625   2.260  0.0969 -0.0602  0.4342
  438MOL0     C57748   9.813  10.594   2.230  0.5589 -0.0726 -0.3132
  438MOL0     C57749  10.734  10.611   1.999 -0.1279  0.3396  0.2673
  438MOL0     C57750  10.838  10.519   1.968  0.1567 -1.0997  1.3126
  438MOL0     H57751  11.253  10.335   1.809 -2.1163  1.8470  0.5050
  438MOL0     H57752  11.456  10.208   1.888  0.4594  0.6338  0.9374
  438MOL0     H57753  11.359   9.849   2.074  0.4312 -1.4593 -0.3253
  438MOL0     H57754  11.431   9.901   2.235  2.5968 -0.2342  0.9026
  438MOL0     H57755  11.556   9.720   2.158 -0.5756 -0.5851  0.2879
  438MOL0     H57756  11.660   9.863   2.150  0.1055 -0.6614  0.5405
  438MOL0     H57757  11.610   9.866   1.893  0.2751 -1.5961 -2.9785
  438MOL0     H57758  11.496   9.739   1.922  2.1680 -1.3842 -2.3708
  438MOL0     H57759  11.694   9.600   1.998  1.2379 -0.7378 -0.5844
  438MOL0     H57760  11.724   9.668   1.838 -0.2991  0.0796 -0.3231
  438MOL0     H57761  11.837   9.762   2.107 -0.5531 -1.0083  0.2977
  438MOL0     H57762  11.890   9.828   1.945  1.2035  0.0740  1.4722
  438MOL0     H57763  11.971   9.623   1.876  2.0279 -1.0222  0.1397
  438MOL0     H57764  11.912   9.535   2.015 -2.2249  1.2262  0.8576
  438MOL0     H57765  12.167   9.611   2.006  0.7250  1.4521 -0.4166
  438MOL0     H57766  12.104   9.774   2.044  0.1823 -0.2623 -2.7033
  438MOL0     H57767  12.054   9.521   2.210 -0.7238  0.5441  1.2699
  438MOL0     H57768  11.994   9.679   2.250 -0.0708  1.4200 -2.2709
  438MOL0     H57769  12.222   9.873   2.267  0.7311  0.1047  0.0733
  438MOL0     H57770  12.523   9.834   2.496  0.8699 -0.4146  0.2345
  438MOL0     H57771  12.435   9.960   2.401 -0.4774 -0.8257  0.3339
  438MOL0     H57772  12.668   9.786   2.313  2.1629  0.3992 -0.7126
  438MOL0     H57773  12.651   9.968   2.335 -1.9028  0.9336 -0.2913
  438MOL0     H57774  12.540   9.796   2.119  1.5222 -1.2289  1.6214
  438MOL0     H57775  12.461   9.949   2.145  0.5483  1.4304 -1.0062
  438MOL0     H57776  12.743   9.881   2.048  0.8478  1.1910  2.2972
  438MOL0     H57777  12.704  10.037   2.093  1.4930 -1.2717  0.7073
  438MOL0     H57778  12.328   9.969   1.872 -0.8135  0.4588  0.9554
  438MOL0     H57779  12.191  10.164   1.862 -0.1294  1.7612  0.3806
  438MOL0     H57780  12.356  10.659   2.058 -0.5055 -1.2435  0.5615
  438MOL0     H57781  12.228  10.856   2.127  1.3907 -0.0247 -0.1932
  438MOL0     H57782  12.169  11.088   2.105 -0.7950  0.2617  1.9712
  438MOL0     H57783  12.061  10.977   2.179 -0.2621 -0.2614 -0.5288
  438MOL0     H57784  11.950  11.219   2.040 -0.2300 -0.7262 -0.7147
  438MOL0     H57785  11.986  11.204   2.208  0.5647 -2.5340  0.9270
  438MOL0     H57786  11.829  10.970   2.200 -0.8701  0.6213  3.2753
  438MOL0     H57787  11.781  11.058   2.048 -0.5591  1.2939  0.3442
  438MOL0     H57788  11.752  11.208   2.304  2.4796  4.0656 -2.6067
  438MOL0     H57789  11.712  11.252   2.145  0.2107 -0.9339 -1.4001
  438MOL0     H57790  11.589  11.018   2.294 -1.1691  0.2525  1.1853
  438MOL0     H57791  11.533  11.072   2.133 -2.0393  0.5493  0.2773
  438MOL0     H57792  11.467  11.292   2.268 -2.9232  0.6300  0.3345
  438MOL0     H57793  11.512  11.220   2.406  1.6963  2.8126 -1.9205
  438MOL0     H57794  11.315  11.084   2.234  3.3303  1.7044 -1.1709
  438MOL0     H57795  11.346  11.070   2.407  1.8388 -0.8208 -0.7953
  438MOL0     H57796  11.301  11.317   2.442  0.4328  0.4576  1.0577
  438MOL0     H57797  11.160  11.216   2.418  0.3439  1.1228  0.5785
  438MOL0     H57798  12.061  10.897   1.742  3.5823  4.0068  0.1929
  438MOL0     H57799  12.166  10.692   1.670  0.3614 -0.5551 -0.1464
  438MOL0     H57800  12.529  10.424   1.899 -1.8463  0.6085  3.1213
  438MOL0     H57801  12.672  10.210   1.950 -0.2263 -2.1640  0.3304
  438MOL0     H57802  11.234  10.005   2.191  1.6503  0.1481 -0.5760
  438MOL0     H57803  11.016  10.141   2.101  0.6181  0.0686  3.4145
  438MOL0     H57804  10.680  10.231   2.046  1.4042 -0.5761 -0.3475
  438MOL0     H57805  10.495  10.399   2.110  1.1576 -1.6989  1.4050
  438MOL0     H57806  10.365  10.546   2.026 -0.3344 -2.1071  1.4365
  438MOL0     H57807  10.367  10.730   2.009 -0.8794 -3.0702 -3.0693
  438MOL0     H57808  10.298  10.546   2.239 -1.0457 -0.2589 -0.0958
  438MOL0     H57809  10.336  10.724   2.256 -0.1687  1.7990 -1.0253
  438MOL0     H57810  10.114  10.590   2.092 -0.8899 -2.6477  2.9001
  438MOL0     H57811  10.130  10.766   2.120  2.4322 -0.3468 -0.0939
  438MOL0     H57812  10.112  10.571   2.354  1.5423 -0.4517  0.0934
  438MOL0     H57813  10.084  10.740   2.347 -0.0986  0.8224 -2.8336
  438MOL0     H57814   9.710  10.579   2.206 -0.1130  2.5423  0.5234
  438MOL0     H57815  10.748  10.718   1.991  2.8110 -0.0400 -0.7328
  438MOL0     H57816  10.934  10.552   1.929 -1.2038  0.8204 -0.6394
  439MOL0     O57817   5.023   5.909   3.187  0.2424 -0.1744 -0.6513
  439MOL0     C57818   4.996   5.921   3.065  0.0053 -0.2189 -0.0830
  439MOL0     O57819   5.003   6.038   2.988 -0.3752  0.0919 -0.0210
  439MOL0     C57820   5.069   6.140   3.038  0.2369 -1.1179  0.8297
  439MOL0     C57821   5.013   6.250   3.111 -1.1697 -0.3727 -0.8712
  439MOL0     C57822   5.092   6.351   3.148 -0.2907  0.3086  0.0114
  439MOL0     C57823   5.225   6.357   3.095 -0.4904  0.6770  0.2863
  439MOL0     O57824   5.304   6.471   3.108  0.5218  0.1229 -0.1119
  439MOL0     C57825   5.257   6.602   3.153  0.3742 -0.8766  0.5894
  439MOL0     C57826   5.258   6.599   3.305  0.6041  0.1781 -0.6539
  439MOL0     C57827   5.383   6.664   3.358  0.2237  0.5856 -0.5330
  439MOL0     C57828   5.522   6.607   3.340 -0.1684  0.0203 -0.1862
  439MOL0     C57829   5.625   6.708   3.395 -0.0440  1.5904  0.1461
  439MOL0     C57830   5.765   6.642   3.403 -0.1581 -0.2231  0.2416
  439MOL0     C57831   5.893   6.739   3.398 -0.1154  0.8075 -0.6079
  439MOL0     C57832   5.893   6.840   3.506 -0.8371  0.1641 -0.3503
  439MOL0     N57833   5.867   6.976   3.462 -0.5915 -0.4550 -0.8774
  439MOL0     C57834   5.928   7.089   3.507  0.5799  0.3261 -0.9435
  439MOL0     C57835   5.851   7.188   3.468  0.4990 -1.1939 -0.6021
  439MOL0     C57836   5.865   7.334   3.513 -0.2074 -0.0552  0.5926
  439MOL0     C57837   5.730   7.404   3.547 -0.3256 -1.3547  0.4474
  439MOL0     C57838   5.641   7.339   3.648 -0.1746 -0.6845  0.6800
  439MOL0     C57839   5.496   7.393   3.659  0.3005 -0.3511  0.4357
  439MOL0     O57840   5.429   7.341   3.772  0.4462  0.5304  0.1449
  439MOL0     C57841   5.295   7.358   3.792 -0.1100  1.5019 -0.0531
  439MOL0     C57842   5.250   7.390   3.922  0.3179 -1.4545 -0.3289
  439MOL0     C57843   5.113   7.419   3.941 -0.5640  0.9451  0.8884
  439MOL0     C57844   5.023   7.396   3.836 -0.0434 -0.3140  0.3176
  439MOL0     C57845   4.885   7.436   3.862  0.9782  0.2147 -0.7139
  439MOL0     O57846   4.787   7.378   3.783  0.4486  0.2758 -0.1289
  439MOL0     C57847   4.653   7.389   3.822  0.0221 -0.7920 -0.5721
  439MOL0     C57848   4.590   7.511   3.859 -0.0583 -0.0294 -0.5589
  439MOL0     C57849   4.454   7.505   3.904 -0.1485  0.2154 -0.9256
  439MOL0     C57850   4.384   7.376   3.910  0.6529 -0.1053  0.2236
  439MOL0     O57851   4.245   7.366   3.942  0.2806  0.1065 -0.3068
  439MOL0     C57852   4.195   7.479   4.018  0.0018  0.9012  0.4024
  439MOL0     C57853   4.040   7.461   4.029  0.0037  0.9078 -0.1503
  439MOL0     C57854   3.973   7.582   4.096  0.0209 -0.0339  0.0626
  439MOL0     C57855   3.820   7.555   4.078  1.1148  1.6207 -0.2009
  439MOL0     C57856   3.752   7.663   4.155  0.4722  0.3341 -0.5235
  439MOL0     C57857   3.599   7.637   4.172  0.8272 -0.3910 -1.0551
  439MOL0     C57858   3.510   7.666   4.056 -0.3693  0.3663  0.0400
  439MOL0     C57859   3.374   7.688   4.102 -0.0563  0.6404  0.1165
  439MOL0    Cl57860   3.322   7.543   4.196 -0.1087  0.4875  0.1308
  439MOL0     C57861   4.448   7.269   3.854 -0.0066 -0.3227  0.8575
  439MOL0     C57862   4.584   7.269   3.817 -0.2119  0.6562 -1.1183
  439MOL0     O57863   4.859   7.510   3.954 -0.1246  0.1646 -0.3102
  439MOL0     C57864   5.064   7.350   3.709  0.5820 -0.0841 -0.1589
  439MOL0     C57865   5.202   7.318   3.693 -0.2502  0.5049  0.0904
  439MOL0     N57866   5.750   7.141   3.394 -0.6246 -0.4373  0.1348
  439MOL0     N57867   5.767   7.014   3.379  0.0334  0.0632 -0.2832
  439MOL0     C57868   5.283   6.256   3.026 -0.2823 -0.2363  0.1580
  439MOL0     C57869   5.200   6.144   2.998 -0.3043  0.6865 -1.1899
  439MOL0     C57870   4.941   5.803   2.995  0.8928 -0.5090 -0.8169
  439MOL0     C57871   4.924   5.807   2.855  0.2281 -0.2028  1.1139
  439MOL0     C57872   4.884   5.697   2.785 -0.8928  0.9070  0.0051
  439MOL0     C57873   4.847   5.577   2.852 -0.6135 -0.7514 -0.2148
  439MOL0     O57874   4.833   5.453   2.802  0.0542  0.6155 -1.0159
  439MOL0     C57875   4.823   5.440   2.659 -0.3651  0.6092 -0.8879
  439MOL0     C57876   4.828   5.301   2.618  0.3750 -0.1263 -0.7424
  439MOL0     C57877   4.828   5.289   2.468  0.0109  0.5339  0.0366
  439MOL0     C57878   4.843   5.145   2.421 -0.8103  0.4080  0.2200
  439MOL0     C57879   4.719   5.078   2.451  0.9452  0.0115  0.6653
  439MOL0     C57880   4.604   5.032   2.452  0.2651 -0.1454  0.0525
  439MOL0     C57881   4.849   5.575   2.992  0.0215 -0.4895  0.5940
  439MOL0     C57882   4.905   5.684   3.060 -0.8440  0.1183  0.5924
  439MOL0     H57883   4.910   6.247   3.142 -0.7656  1.7276  0.8825
  439MOL0     H57884   5.044   6.432   3.201 -1.4071  0.3647 -1.0176
  439MOL0     H57885   5.159   6.629   3.111  0.5621 -0.3347  0.5017
  439MOL0     H57886   5.317   6.682   3.111 -0.3177  0.4029  1.9560
  439MOL0     H57887   5.238   6.501   3.349 -0.8897  0.5078 -0.5257
  439MOL0     H57888   5.177   6.666   3.335  0.5851 -0.6308  1.2155
  439MOL0     H57889   5.374   6.680   3.465 -2.2672  0.9382 -0.7473
  439MOL0     H57890   5.395   6.764   3.313  2.0721  0.6631  0.0372
  439MOL0     H57891   5.539   6.517   3.399  1.0798  1.1036  1.1643
  439MOL0     H57892   5.541   6.576   3.236  2.1762  2.7194 -0.6955
  439MOL0     H57893   5.595   6.749   3.492 -0.5532  4.2001 -1.0293
  439MOL0     H57894   5.623   6.795   3.328  1.8145  0.8102 -0.9834
  439MOL0     H57895   5.787   6.569   3.325 -1.4243  1.1541 -1.4959
  439MOL0     H57896   5.775   6.586   3.496  1.0695 -0.7041 -0.1544
  439MOL0     H57897   5.979   6.672   3.411 -0.1489  1.0794  1.1900
  439MOL0     H57898   5.901   6.789   3.301  1.1661 -0.9379 -1.4636
  439MOL0     H57899   5.989   6.824   3.556 -1.5722 -0.7629  0.8274
  439MOL0     H57900   5.822   6.806   3.582 -1.7835 -0.7619 -1.6070
  439MOL0     H57901   6.009   7.085   3.579 -1.0558  0.0291  0.9740
  439MOL0     H57902   5.923   7.394   3.442 -0.1090  2.0630  2.3426
  439MOL0     H57903   5.926   7.330   3.604 -1.5546 -2.9009  1.4846
  439MOL0     H57904   5.676   7.404   3.452 -0.3581  3.5227  0.2210
  439MOL0     H57905   5.752   7.510   3.564  0.1033 -1.2287 -0.7731
  439MOL0     H57906   5.626   7.236   3.614 -1.5276  0.6891 -3.5396
  439MOL0     H57907   5.686   7.329   3.748 -0.3310 -0.1931  0.8025
  439MOL0     H57908   5.437   7.366   3.571  0.2983  1.4920 -0.1761
  439MOL0     H57909   5.507   7.502   3.660  0.1422 -0.2550 -2.0754
  439MOL0     H57910   5.321   7.412   4.001  0.5780 -1.2063 -0.6285
  439MOL0     H57911   5.079   7.464   4.033  0.8620 -0.9871  2.4358
  439MOL0     H57912   4.632   7.611   3.868 -1.6985  0.6095  0.3647
  439MOL0     H57913   4.415   7.602   3.935  1.5090  0.8500 -0.7511
  439MOL0     H57914   4.221   7.578   3.980  0.2223  1.2841  1.5123
  439MOL0     H57915   4.230   7.473   4.122  0.1736 -0.8976  0.2793
  439MOL0     H57916   4.017   7.368   4.083  1.0809 -0.1158 -1.3652
  439MOL0     H57917   3.997   7.456   3.929 -1.4967 -1.7092  0.5314
  439MOL0     H57918   4.008   7.664   4.032  2.9582 -1.5603 -0.4558
  439MOL0     H57919   3.995   7.593   4.203  3.8650  2.6674 -0.7817
  439MOL0     H57920   3.800   7.562   3.971  0.2901 -1.6019 -0.3679
  439MOL0     H57921   3.787   7.457   4.115 -1.3467  1.1628 -3.1889
  439MOL0     H57922   3.780   7.757   4.108  1.9171  0.7903  1.1679
  439MOL0     H57923   3.791   7.667   4.257  0.3122  2.1989 -0.5121
  439MOL0     H57924   3.568   7.697   4.258  2.7403 -5.0105  3.3054
  439MOL0     H57925   3.582   7.534   4.204  0.7604  0.3645  1.5629
  439MOL0     H57926   3.562   7.749   4.008 -1.5555  2.1926  1.7638
  439MOL0     H57927   3.501   7.592   3.976  1.8965  1.7328 -1.6234
  439MOL0     H57928   3.310   7.716   4.018 -0.2254 -2.8776 -1.0923
  439MOL0     H57929   3.370   7.771   4.173 -0.0237 -1.7266  3.0767
  439MOL0     H57930   4.398   7.173   3.851  1.6963 -1.2234  0.4582
  439MOL0     H57931   4.631   7.181   3.776  0.3300  0.4229 -0.0229
  439MOL0     H57932   5.000   7.334   3.622  2.2533 -0.3927 -1.3731
  439MOL0     H57933   5.239   7.269   3.603  1.7728 -1.1385  1.7099
  439MOL0     H57934   5.388   6.270   2.999 -0.9886  1.9227 -1.8588
  439MOL0     H57935   5.252   6.061   2.953 -0.0850  2.2397 -4.0275
  439MOL0     H57936   4.939   5.904   2.809  1.2624  1.1036  3.9737
  439MOL0     H57937   4.875   5.694   2.677 -1.2900  1.3016  0.0257
  439MOL0     H57938   4.911   5.484   2.610  0.3216 -1.1875 -1.3712
  439MOL0     H57939   4.725   5.480   2.633 -1.6870 -0.7915  1.6231
  439MOL0     H57940   4.910   5.253   2.672  0.1607  0.5308  0.1763
  439MOL0     H57941   4.740   5.249   2.658  2.0285 -0.8316  2.2522
  439MOL0     H57942   4.911   5.342   2.420  1.4763 -0.7364  1.0604
  439MOL0     H57943   4.732   5.319   2.426 -1.1222 -2.0614  0.5969
  439MOL0     H57944   4.862   5.157   2.314  0.8957  0.9433  0.5553
  439MOL0     H57945   4.927   5.094   2.468  0.7756  0.8956 -1.9238
  439MOL0     H57946   4.501   5.003   2.452  0.1237  0.1506 -2.6900
  439MOL0     H57947   4.822   5.478   3.032  2.8237 -2.3994 -1.7225
  439MOL0     H57948   4.898   5.694   3.168 -0.0055 -0.0762  0.6743
  440MOL0     O57949   6.197   7.114   3.699  0.2570 -0.0729 -0.5217
  440MOL0     C57950   6.300   7.182   3.686  0.7620  0.1754 -0.6734
  440MOL0     O57951   6.312   7.319   3.706 -0.5485  0.2221  1.1629
  440MOL0     C57952   6.216   7.392   3.759  0.4346  0.2385 -0.1814
  440MOL0     C57953   6.163   7.485   3.671  0.0966 -0.0196  0.0788
  440MOL0     C57954   6.062   7.559   3.719  0.4059 -0.2573  0.3277
  440MOL0     C57955   6.020   7.548   3.858 -0.1287 -0.8368 -0.8707
  440MOL0     O57956   5.930   7.645   3.905 -0.7269  0.1215 -0.2736
  440MOL0     C57957   5.813   7.665   3.825 -0.4955  0.1889 -1.0052
  440MOL0     C57958   5.702   7.695   3.926  0.2804 -0.0597 -0.5825
  440MOL0     C57959   5.557   7.718   3.882 -0.4505 -0.7863 -0.4693
  440MOL0     C57960   5.471   7.740   4.000 -0.1937 -0.5926 -0.3742
  440MOL0     C57961   5.315   7.758   3.987  0.2283  0.5121  0.1415
  440MOL0     C57962   5.246   7.761   4.122  1.3115 -0.0061 -0.0557
  440MOL0     C57963   5.092   7.738   4.126  0.0260 -0.1633 -0.1405
  440MOL0     C57964   5.002   7.852   4.078 -0.5375 -0.3628  0.4664
  440MOL0     N57965   4.997   7.959   4.175  0.3889 -0.0986  0.1474
  440MOL0     C57966   4.956   7.945   4.306 -0.9482  0.6881  1.0507
  440MOL0     C57967   4.946   8.072   4.348 -0.3802  0.6091  0.5779
  440MOL0     C57968   4.901   8.120   4.483  0.8523  0.8561  0.7454
  440MOL0     C57969   4.745   8.124   4.479  0.2289  0.0938 -0.9028
  440MOL0     C57970   4.711   8.193   4.613 -0.5327 -0.4316 -0.7499
  440MOL0     C57971   4.566   8.208   4.633 -0.0943 -0.1580 -0.0841
  440MOL0     O57972   4.504   8.092   4.674  0.4048  1.0304  0.1150
  440MOL0     C57973   4.368   8.089   4.690 -0.4713  0.5556 -0.1943
  440MOL0     C57974   4.305   7.962   4.690  0.2979  0.1062  0.3147
  440MOL0     C57975   4.161   7.955   4.680 -0.0860 -0.9194 -1.0856
  440MOL0     C57976   4.081   8.071   4.675  0.7326 -0.3615 -0.3975
  440MOL0     C57977   3.933   8.032   4.660 -0.2216 -0.2587  0.4865
  440MOL0     O57978   3.900   7.902   4.628 -0.4838 -0.7788  0.0081
  440MOL0     C57979   3.766   7.869   4.622  0.3271 -0.1222 -0.0908
  440MOL0     C57980   3.698   7.872   4.506 -0.6867 -0.4046  0.0883
  440MOL0     C57981   3.559   7.838   4.497 -0.6910  0.2399  0.4249
  440MOL0     C57982   3.491   7.808   4.610 -0.3603 -0.0856 -0.0831
  440MOL0     O57983   3.358   7.776   4.613 -1.0214 -0.5158 -0.4281
  440MOL0     C57984   3.310   7.688   4.511  0.2839  0.8304 -0.3408
  440MOL0     C57985   3.153   7.688   4.505  0.4722  1.7431 -0.1661
  440MOL0     C57986   3.079   7.809   4.468 -0.4461 -0.3897 -0.1693
  440MOL0     C57987   2.932   7.792   4.461 -1.1827 -0.5648 -0.0465
  440MOL0     C57988   2.851   7.906   4.398 -0.1341  0.0076 -0.3055
  440MOL0     C57989   2.709   7.867   4.366  0.1703 -1.1189  0.6545
  440MOL0     C57990   2.626   7.862   4.485  0.5526  0.3081 -0.3275
  440MOL0     C57991   2.474   7.866   4.453 -0.3243 -0.3089  0.3005
  440MOL0    Cl57992   2.425   7.733   4.348  0.1695 -0.2878  0.0896
  440MOL0     C57993   3.561   7.818   4.736 -0.1762  0.7620 -0.3562
  440MOL0     C57994   3.694   7.851   4.739 -0.3649  0.4859 -0.2117
  440MOL0     O57995   3.851   8.123   4.667  0.5394  0.2963  0.6605
  440MOL0     C57996   4.142   8.191   4.693  0.0132  0.0888  0.0396
  440MOL0     C57997   4.279   8.202   4.701 -0.6879  0.0535  0.3806
  440MOL0     N57998   4.984   8.157   4.243  0.4059  0.2658 -0.2049
  440MOL0     N57999   5.007   8.084   4.134 -0.3524  0.0963  0.3770
  440MOL0     C58000   6.069   7.454   3.944  0.0433  0.1473  0.1926
  440MOL0     C58001   6.174   7.376   3.892 -0.1348 -0.9743  0.4212
  440MOL0     C58002   6.418   7.121   3.637 -0.8931  0.6820 -0.5907
  440MOL0     C58003   6.426   6.987   3.602 -0.2040 -0.3246 -0.5978
  440MOL0     C58004   6.539   6.928   3.548  0.3760  0.5853  0.4721
  440MOL0     C58005   6.650   7.003   3.523 -0.5985  0.7279  0.1634
  440MOL0     O58006   6.755   6.934   3.466  0.0353 -0.6806 -1.0272
  440MOL0     C58007   6.782   6.957   3.330 -0.2969 -0.0701  0.5454
  440MOL0     C58008   6.800   6.816   3.249 -0.4979 -0.2933  0.2091
  440MOL0     C58009   6.686   6.722   3.255 -0.1397  0.2412  0.1074
  440MOL0     C58010   6.545   6.765   3.208 -0.5383  0.0909  0.0147
  440MOL0     C58011   6.467   6.646   3.199 -0.5897 -0.2065  0.2822
  440MOL0     C58012   6.412   6.538   3.202  0.6943 -0.5553 -0.3608
  440MOL0     C58013   6.647   7.141   3.549 -0.0656  1.1204  0.4700
  440MOL0     C58014   6.531   7.192   3.606  0.1855 -0.6790 -0.0369
  440MOL0     H58015   6.200   7.488   3.569  1.9401 -0.3678  0.7072
  440MOL0     H58016   6.024   7.641   3.658  0.1895  0.6706  1.6626
  440MOL0     H58017   5.781   7.573   3.774 -1.1405 -1.1756  1.6571
  440MOL0     H58018   5.832   7.742   3.750  1.4512  0.8961  0.1293
  440MOL0     H58019   5.719   7.783   3.988  1.4585  1.0435 -2.3973
  440MOL0     H58020   5.699   7.607   3.991 -1.7490  0.8624  0.6595
  440MOL0     H58021   5.518   7.636   3.820 -0.3194 -0.6208 -0.7732
  440MOL0     H58022   5.565   7.808   3.821  0.0802  0.4145  1.2779
  440MOL0     H58023   5.482   7.657   4.070 -0.4302  1.6746  2.5998
  440MOL0     H58024   5.510   7.823   4.061  1.6017 -3.0289  2.0144
  440MOL0     H58025   5.279   7.678   3.923 -1.4638  1.7308 -0.5197
  440MOL0     H58026   5.291   7.854   3.939 -0.1809  1.5119  2.2011
  440MOL0     H58027   5.277   7.860   4.159  0.4563  0.4806 -0.5993
  440MOL0     H58028   5.290   7.683   4.185 -0.0420 -1.6241 -1.0407
  440MOL0     H58029   5.060   7.648   4.073 -1.2586 -1.0742  2.0547
  440MOL0     H58030   5.072   7.695   4.225  0.2087 -0.3558 -0.1848
  440MOL0     H58031   4.903   7.805   4.073  0.2826 -2.1506  0.0521
  440MOL0     H58032   5.017   7.886   3.976 -1.1296 -2.2841 -0.3170
  440MOL0     H58033   4.956   7.853   4.365  2.6417 -0.5903 -0.6175
  440MOL0     H58034   4.936   8.223   4.479  0.6211  0.9976  2.0285
  440MOL0     H58035   4.943   8.057   4.562  2.6943  0.2277 -0.6715
  440MOL0     H58036   4.711   8.020   4.485  1.4160 -0.2442  2.9457
  440MOL0     H58037   4.701   8.173   4.392  0.2770  0.8880 -0.4912
  440MOL0     H58038   4.758   8.143   4.698 -3.2402  0.4595  1.4446
  440MOL0     H58039   4.757   8.292   4.617  0.4416 -0.8574 -1.2625
  440MOL0     H58040   4.530   8.241   4.535  2.5352  0.8689 -0.7671
  440MOL0     H58041   4.553   8.292   4.703 -1.2995  0.6250 -1.1922
  440MOL0     H58042   4.365   7.872   4.681 -0.4275 -0.2345 -1.8747
  440MOL0     H58043   4.136   7.851   4.664  2.0806 -1.3286 -2.1308
  440MOL0     H58044   3.771   7.894   4.429  1.4859  0.2244  2.1976
  440MOL0     H58045   3.506   7.836   4.402 -0.2125 -2.0495  0.1350
  440MOL0     H58046   3.344   7.588   4.538 -2.2302  0.3897  1.5227
  440MOL0     H58047   3.353   7.705   4.411  1.7722  2.1314  0.4642
  440MOL0     H58048   3.121   7.658   4.605 -0.3542 -0.1812 -0.9604
  440MOL0     H58049   3.122   7.609   4.435  1.1682  1.7904 -0.5449
  440MOL0     H58050   3.111   7.844   4.369  1.2215  0.1138  0.5170
  440MOL0     H58051   3.116   7.886   4.536  2.8926 -1.9691 -0.0086
  440MOL0     H58052   2.904   7.698   4.412 -1.5008 -1.4387  1.7327
  440MOL0     H58053   2.895   7.777   4.563 -0.4062  1.9107  0.6764
  440MOL0     H58054   2.908   7.941   4.311  1.7846  0.3119  1.0249
  440MOL0     H58055   2.856   7.988   4.470  0.5455  0.1359 -0.4936
  440MOL0     H58056   2.702   7.774   4.311 -4.2118 -0.9664  0.5808
  440MOL0     H58057   2.668   7.944   4.300  1.0344 -0.6565  0.6439
  440MOL0     H58058   2.641   7.763   4.531 -0.7111 -0.8625 -2.3008
  440MOL0     H58059   2.643   7.942   4.558 -3.1099 -0.0613  1.1461
  440MOL0     H58060   2.458   7.965   4.409  1.1846 -0.1632  0.0257
  440MOL0     H58061   2.417   7.859   4.546  2.5950 -0.9755  2.2028
  440MOL0     H58062   3.506   7.794   4.827 -3.8517  0.9129 -2.3223
  440MOL0     H58063   3.736   7.856   4.840 -0.8348 -3.5370  0.3758
  440MOL0     H58064   4.082   8.281   4.702 -1.9484 -1.2024  0.6555
  440MOL0     H58065   4.322   8.300   4.716 -0.6669  0.3967 -1.6875
  440MOL0     H58066   6.022   7.441   4.040 -0.3740  2.0408  0.2725
  440MOL0     H58067   6.226   7.300   3.949  0.4798 -0.8752 -0.0008
  440MOL0     H58068   6.339   6.932   3.635 -3.7712  3.6375 -2.5305
  440MOL0     H58069   6.542   6.824   3.517 -1.9657  0.3443  0.8854
  440MOL0     H58070   6.879   7.007   3.325  0.0884 -0.8203  0.4821
  440MOL0     H58071   6.702   7.014   3.281 -1.1088  0.2067  2.1433
  440MOL0     H58072   6.833   6.838   3.147  2.3787 -0.2312  1.0733
  440MOL0     H58073   6.883   6.767   3.301 -1.6161 -0.1441  2.2600
  440MOL0     H58074   6.674   6.677   3.354 -2.1352  0.2830 -0.0693
  440MOL0     H58075   6.711   6.639   3.189 -1.4972  1.1356 -1.5938
  440MOL0     H58076   6.508   6.837   3.282  1.6665  1.6672 -0.3075
  440MOL0     H58077   6.550   6.802   3.105  2.1192  0.8095  0.3325
  440MOL0     H58078   6.367   6.441   3.201  2.2132 -1.2957 -1.8434
  440MOL0     H58079   6.736   7.201   3.532  1.7126 -1.6978 -0.9830
  440MOL0     H58080   6.526   7.293   3.647 -1.9568 -0.4595 -0.7205
  441MOL0     O58081   5.946   9.335   5.611 -0.0951 -0.2311  0.0261
  441MOL0     C58082   6.006   9.249   5.664  0.0702  0.4806  0.3650
  441MOL0     O58083   5.958   9.126   5.687 -0.7740  0.2825  0.0655
  441MOL0     C58084   5.867   9.064   5.599 -0.1704  0.5607 -0.2546
  441MOL0     C58085   5.825   8.938   5.630  0.1187  0.0474 -0.0162
  441MOL0     C58086   5.735   8.875   5.554  0.2753  0.3431 -0.0540
  441MOL0     C58087   5.683   8.926   5.435 -0.1105 -0.1827  0.5356
  441MOL0     O58088   5.605   8.870   5.346  0.3868 -0.6781 -0.3008
  441MOL0     C58089   5.509   8.776   5.399  0.8829  0.4882  1.0168
  441MOL0     C58090   5.386   8.746   5.325 -0.3182 -0.4620 -0.0857
  441MOL0     C58091   5.405   8.704   5.175 -0.3987 -0.5673 -0.2909
  441MOL0     C58092   5.519   8.597   5.141 -0.1374 -0.1037  0.1448
  441MOL0     C58093   5.501   8.469   5.216  0.2350  0.0541  0.4269
  441MOL0     C58094   5.389   8.373   5.164  0.2587 -0.1900 -0.8331
  441MOL0     C58095   5.358   8.249   5.248  0.0572 -0.1005 -0.4356
  441MOL0     C58096   5.302   8.286   5.386 -0.5329 -0.4151  0.3897
  441MOL0     N58097   5.180   8.366   5.382  1.0594  0.7242 -0.8639
  441MOL0     C58098   5.064   8.355   5.312 -0.4759 -0.0725  0.0264
  441MOL0     C58099   4.978   8.455   5.341 -0.0968  0.2551 -0.4182
  441MOL0     C58100   4.842   8.476   5.277 -1.4256 -0.1201 -0.2495
  441MOL0     C58101   4.726   8.388   5.348 -0.2397 -0.0975  0.6514
  441MOL0     C58102   4.673   8.454   5.474  0.1344 -0.0299 -0.2611
  441MOL0     C58103   4.544   8.385   5.507  0.2947 -0.4816  0.6015
  441MOL0     O58104   4.449   8.442   5.425 -0.0168 -0.3127  0.3798
  441MOL0     C58105   4.325   8.388   5.437  0.3847  0.6510 -0.8319
  441MOL0     C58106   4.217   8.470   5.396 -0.0350  0.0998  0.8464
  441MOL0     C58107   4.084   8.429   5.411  0.2887 -0.0984 -0.2454
  441MOL0     C58108   4.056   8.292   5.448  0.5486  0.2064 -0.5748
  441MOL0     C58109   3.923   8.236   5.440 -0.3811 -0.5156 -0.2710
  441MOL0     O58110   3.829   8.318   5.396  0.0295 -0.4514  1.0361
  441MOL0     C58111   3.694   8.281   5.381 -0.7851  1.1526  0.3244
  441MOL0     C58112   3.603   8.389   5.385  0.6902 -0.1395 -0.1643
  441MOL0     C58113   3.470   8.372   5.349  0.2666  0.0811  0.1155
  441MOL0     C58114   3.419   8.243   5.335 -0.2532 -0.6544 -0.4451
  441MOL0     O58115   3.284   8.227   5.291  0.1076 -0.7071 -0.3017
  441MOL0     C58116   3.208   8.109   5.312  0.2036 -0.4098  0.3959
  441MOL0     C58117   3.066   8.150   5.296  0.5481  0.2430  0.0426
  441MOL0     C58118   2.975   8.024   5.307  0.4742  0.3903  0.0840
  441MOL0     C58119   2.842   8.063   5.241 -0.1249  0.3766  0.3605
  441MOL0     C58120   2.746   7.943   5.239 -0.6073  0.4978 -0.2182
  441MOL0     C58121   2.608   7.973   5.219  0.9942 -0.1483 -0.5332
  441MOL0     C58122   2.531   7.852   5.268 -0.2651  0.4238 -0.0480
  441MOL0     C58123   2.381   7.847   5.217 -0.5969 -0.7593  0.9658
  441MOL0    Cl58124   2.300   7.692   5.251  0.1124  0.1199  0.0369
  441MOL0     C58125   3.510   8.129   5.333  0.8331 -0.0870 -0.4196
  441MOL0     C58126   3.646   8.152   5.358  0.6594  0.1847  0.0838
  441MOL0     O58127   3.898   8.123   5.479  0.2261 -0.2520 -0.1319
  441MOL0     C58128   4.163   8.216   5.495  0.0479  0.5471 -0.3852
  441MOL0     C58129   4.291   8.260   5.485 -0.1071 -0.5277 -0.4155
  441MOL0     N58130   5.053   8.538   5.417 -0.3273 -0.4682  0.1391
  441MOL0     N58131   5.169   8.485   5.437 -0.2815 -0.4443  0.0202
  441MOL0     C58132   5.725   9.062   5.409  0.8329 -0.2439 -0.1285
  441MOL0     C58133   5.814   9.131   5.489 -0.0168  0.5686 -0.0075
  441MOL0     C58134   6.138   9.295   5.734  0.2044 -0.5106 -0.2319
  441MOL0     C58135   6.166   9.258   5.864  0.3320  0.1526  0.4172
  441MOL0     C58136   6.282   9.299   5.936  0.5133 -0.4880 -0.2935
  441MOL0     C58137   6.362   9.398   5.875  0.8455 -0.1503 -0.0838
  441MOL0     O58138   6.465   9.439   5.958 -0.4181 -0.2664  0.2683
  441MOL0     C58139   6.574   9.511   5.898 -0.4275  0.4743  0.6809
  441MOL0     C58140   6.689   9.531   5.998 -1.0212  0.3550  0.2863
  441MOL0     C58141   6.803   9.624   5.960 -0.0068 -0.4175 -0.9059
  441MOL0     C58142   6.941   9.559   5.916  0.5669 -0.0245  0.0755
  441MOL0     C58143   7.022   9.673   5.867 -0.2925  0.0984 -0.0386
  441MOL0     C58144   7.077   9.767   5.809  0.8682 -1.0130 -0.7843
  441MOL0     C58145   6.330   9.443   5.744 -0.7846 -0.6887  0.1246
  441MOL0     C58146   6.218   9.395   5.678  0.2167  0.3913  0.6051
  441MOL0     H58147   5.874   8.887   5.712  0.5300  0.3470 -0.0699
  441MOL0     H58148   5.709   8.777   5.592 -0.3409  1.2040  1.8799
  441MOL0     H58149   5.467   8.813   5.493 -0.5000  1.6173  0.0133
  441MOL0     H58150   5.564   8.684   5.415 -0.4191 -0.8781 -1.6296
  441MOL0     H58151   5.326   8.836   5.341  3.2693  1.9031  1.2696
  441MOL0     H58152   5.327   8.669   5.376 -0.8636 -0.7148 -1.0738
  441MOL0     H58153   5.420   8.801   5.127  1.8223 -1.1013 -0.7762
  441MOL0     H58154   5.308   8.666   5.141 -1.5583  0.6005  1.5186
  441MOL0     H58155   5.519   8.568   5.036  0.8856 -2.0494  0.6345
  441MOL0     H58156   5.617   8.640   5.161 -0.5609  1.9789 -1.9031
  441MOL0     H58157   5.478   8.494   5.320 -2.1723  1.3680 -0.3482
  441MOL0     H58158   5.600   8.425   5.202  0.5758  0.4295  1.5457
  441MOL0     H58159   5.411   8.329   5.066  1.1672  0.0317 -0.7340
  441MOL0     H58160   5.299   8.433   5.151  1.6688  2.3924  0.6107
  441MOL0     H58161   5.280   8.194   5.195 -0.2879  1.4257 -1.5772
  441MOL0     H58162   5.452   8.194   5.260  0.0675 -0.1886 -0.9195
  441MOL0     H58163   5.376   8.344   5.442 -2.4961  0.7871  1.8889
  441MOL0     H58164   5.287   8.194   5.444 -0.0634  0.0170  1.2159
  441MOL0     H58165   5.040   8.275   5.242 -0.8166 -0.4638  0.5854
  441MOL0     H58166   4.860   8.429   5.180  1.7569 -2.7992  1.4459
  441MOL0     H58167   4.811   8.581   5.282 -4.3790 -0.9625  1.4130
  441MOL0     H58168   4.765   8.288   5.370 -0.0643  0.2424  1.9842
  441MOL0     H58169   4.641   8.380   5.280 -0.2293  2.1332  0.2872
  441MOL0     H58170   4.736   8.432   5.561  2.3724  1.7121 -1.3211
  441MOL0     H58171   4.658   8.562   5.483  1.4249  0.0335  1.9241
  441MOL0     H58172   4.520   8.407   5.611 -1.6483 -0.6348  0.2180
  441MOL0     H58173   4.545   8.277   5.485 -1.0524  0.4473 -5.7649
  441MOL0     H58174   4.248   8.560   5.345  2.1374 -2.1600 -2.1802
  441MOL0     H58175   4.004   8.493   5.374  2.0997  3.4511  1.5107
  441MOL0     H58176   3.647   8.488   5.389  1.7579 -0.6243  2.0969
  441MOL0     H58177   3.406   8.459   5.343  3.7687  2.8279 -0.6955
  441MOL0     H58178   3.231   8.075   5.414  0.6840 -0.0107  0.4262
  441MOL0     H58179   3.245   8.044   5.232  2.8449  3.0048 -1.4411
  441MOL0     H58180   3.055   8.201   5.200 -1.8976 -0.1632  0.0318
  441MOL0     H58181   3.032   8.217   5.375  0.7284 -0.5994  0.8561
  441MOL0     H58182   2.957   7.998   5.411 -2.2287  1.4494 -0.0139
  441MOL0     H58183   3.020   7.933   5.267 -2.9446 -1.2310 -0.4334
  441MOL0     H58184   2.797   8.146   5.295  4.1763  3.0931  0.2353
  441MOL0     H58185   2.861   8.096   5.138  2.4770  1.4541  1.1063
  441MOL0     H58186   2.764   7.889   5.332  2.8202  0.3425 -0.8347
  441MOL0     H58187   2.784   7.877   5.160 -0.1912  1.7818 -1.1414
  441MOL0     H58188   2.591   7.997   5.114  2.6501  2.2791 -0.3328
  441MOL0     H58189   2.578   8.067   5.267 -1.9274 -0.8750 -0.7695
  441MOL0     H58190   2.576   7.759   5.231 -0.8328  0.3616 -0.5920
  441MOL0     H58191   2.528   7.851   5.377  0.7176 -1.9700  0.0155
  441MOL0     H58192   2.368   7.865   5.110  1.2387  1.8753  1.0730
  441MOL0     H58193   2.319   7.923   5.266 -1.7879 -1.6744  0.9219
  441MOL0     H58194   3.475   8.034   5.294 -1.8211  0.8316 -0.4799
  441MOL0     H58195   3.713   8.066   5.353  0.1314 -0.1540 -3.0697
  441MOL0     H58196   4.128   8.119   5.529  0.5747  0.6296  0.4363
  441MOL0     H58197   4.370   8.192   5.513 -0.3260 -0.4758  0.3337
  441MOL0     H58198   5.691   9.115   5.321 -1.2094  4.1758  2.9182
  441MOL0     H58199   5.846   9.227   5.448  0.1197  0.7641  0.5496
  441MOL0     H58200   6.110   9.187   5.924  2.3984  0.3875  2.8410
  441MOL0     H58201   6.311   9.246   6.026 -1.1736 -0.4018  0.3385
  441MOL0     H58202   6.544   9.614   5.876  3.3262  1.6939  0.5372
  441MOL0     H58203   6.607   9.473   5.801 -1.2513  0.5660  0.3551
  441MOL0     H58204   6.653   9.559   6.098  1.1897  1.7850  0.7467
  441MOL0     H58205   6.735   9.433   6.014 -0.2614  0.1950 -2.3956
  441MOL0     H58206   6.833   9.695   6.037  0.1684 -2.2756  0.8327
  441MOL0     H58207   6.766   9.680   5.873  0.6234  1.2536 -0.1423
  441MOL0     H58208   6.986   9.521   6.008  0.6225  2.8264  1.3307
  441MOL0     H58209   6.924   9.479   5.843  1.7810  0.2576 -0.5408
  441MOL0     H58210   7.123   9.857   5.774 -2.2224  1.6845  1.4968
  441MOL0     H58211   6.398   9.512   5.694  0.1120 -1.6429 -0.0125
  441MOL0     H58212   6.213   9.421   5.572 -0.9390  3.9226  1.3801
  442MOL0     O58213   9.620   1.604   7.667 -0.1588  0.0408  0.0839
  442MOL0     C58214   9.565   1.628   7.558 -0.2356 -0.5491 -0.0471
  442MOL0     O58215   9.626   1.635   7.435 -0.2753 -0.4244 -0.0508
  442MOL0     C58216   9.757   1.587   7.416  0.2464  0.0215  0.2691
  442MOL0     C58217   9.784   1.593   7.279  0.2686 -0.5996 -1.1089
  442MOL0     C58218   9.904   1.531   7.230  0.0336  0.4472 -0.2911
  442MOL0     C58219   9.986   1.457   7.313 -0.6937 -1.0354 -0.3877
  442MOL0     O58220  10.089   1.385   7.266 -0.1877  0.7370  0.1552
  442MOL0     C58221  10.188   1.467   7.194  0.2780  0.3382  0.4118
  442MOL0     C58222  10.289   1.370   7.146  0.0541 -0.8431  0.8748
  442MOL0     C58223  10.353   1.276   7.254  0.0430 -0.5064 -0.0422
  442MOL0     C58224  10.492   1.243   7.197 -1.0396  0.6623 -0.3719
  442MOL0     C58225  10.551   1.113   7.263  0.0057  0.2779  0.7983
  442MOL0     C58226  10.554   1.107   7.421 -1.0232 -0.3979  0.9968
  442MOL0     C58227  10.641   1.219   7.463 -0.8223 -0.1434 -0.1595
  442MOL0     C58228  10.682   1.207   7.610 -0.4802  0.3693 -0.4503
  442MOL0     N58229  10.562   1.218   7.694  0.5116  0.4503 -0.4811
  442MOL0     C58230  10.504   1.343   7.739 -0.6258  0.8134  0.0172
  442MOL0     C58231  10.403   1.298   7.820  0.2762  0.8375 -1.2027
  442MOL0     C58232  10.315   1.402   7.892  0.4998  0.9428  0.3583
  442MOL0     C58233  10.223   1.467   7.785 -0.1705  0.1620  0.7975
  442MOL0     C58234  10.131   1.573   7.853  0.9943  0.8285  1.1247
  442MOL0     C58235  10.033   1.510   7.965 -1.1527  0.1671  0.5905
  442MOL0     O58236  10.000   1.603   8.070 -0.0229  0.2019 -0.1537
  442MOL0     C58237   9.897   1.691   8.054 -0.6082 -0.1230  0.1141
  442MOL0     C58238   9.914   1.813   8.121  0.4643  0.4062  0.2171
  442MOL0     C58239   9.827   1.916   8.113  0.8492  0.2077  0.7509
  442MOL0     C58240   9.710   1.900   8.036  1.2893  0.1683  0.5105
  442MOL0     C58241   9.620   2.014   8.015  1.0367 -0.2237  1.3983
  442MOL0     O58242   9.505   1.980   7.940  0.3590 -0.3463 -0.2091
  442MOL0     C58243   9.400   2.059   7.901 -0.8113 -0.0106  1.0440
  442MOL0     C58244   9.294   2.000   7.830  0.1041  0.7804  0.0638
  442MOL0     C58245   9.185   2.074   7.775  0.1864 -0.8689  0.3187
  442MOL0     C58246   9.187   2.212   7.799  1.0158  0.6197  0.7257
  442MOL0     O58247   9.082   2.301   7.767 -0.2044  0.4422  0.2885
  442MOL0     C58248   8.983   2.263   7.681  0.6321  1.1032  0.4707
  442MOL0     C58249   8.920   2.390   7.633  0.1922 -0.0481 -0.4478
  442MOL0     C58250   8.793   2.375   7.553 -0.2648  0.9830  0.0433
  442MOL0     C58251   8.729   2.510   7.524 -0.4783  0.6613  0.5887
  442MOL0     C58252   8.603   2.481   7.441  0.9201 -0.6446  0.3806
  442MOL0     C58253   8.536   2.610   7.399  0.1994 -0.6173 -0.6361
  442MOL0     C58254   8.429   2.602   7.294  0.4993  0.1768  0.3911
  442MOL0     C58255   8.327   2.708   7.307  0.0273  0.6581  0.5737
  442MOL0    Cl58256   8.218   2.664   7.447 -0.4345  0.4004 -0.0476
  442MOL0     C58257   9.280   2.272   7.881 -0.4163 -0.1502 -0.2090
  442MOL0     C58258   9.391   2.199   7.928  0.4870  0.4898  0.1750
  442MOL0     O58259   9.648   2.125   8.059 -0.5661  0.5648 -0.5647
  442MOL0     C58260   9.687   1.781   7.959 -0.8779  1.0720  0.0102
  442MOL0     C58261   9.784   1.676   7.969 -0.0058 -0.4277  0.1212
  442MOL0     N58262  10.407   1.161   7.834  0.3510 -0.1820  0.4085
  442MOL0     N58263  10.508   1.115   7.762 -0.8276 -0.7057  0.3097
  442MOL0     C58264   9.956   1.457   7.454  0.1758 -0.4209 -1.1893
  442MOL0     C58265   9.845   1.525   7.506  0.1163  0.3762 -0.2624
  442MOL0     C58266   9.423   1.661   7.560  0.2967  1.3717  0.0015
  442MOL0     C58267   9.346   1.714   7.454 -0.2772 -0.9180  0.3706
  442MOL0     C58268   9.209   1.735   7.458  0.4106 -0.4037  0.2585
  442MOL0     C58269   9.140   1.727   7.584 -0.3213  0.2044  0.9545
  442MOL0     O58270   9.009   1.743   7.607  0.8552  0.3984  0.0208
  442MOL0     C58271   8.917   1.775   7.506  0.6476  0.3455  0.0807
  442MOL0     C58272   8.796   1.856   7.554 -0.1048  1.3324 -0.0866
  442MOL0     C58273   8.725   1.925   7.438  0.1115 -0.5074  0.4200
  442MOL0     C58274   8.652   1.834   7.344 -0.3964  0.7832  1.1213
  442MOL0     C58275   8.567   1.901   7.248 -0.0017  0.1720 -0.4667
  442MOL0     C58276   8.512   1.970   7.167 -0.3166 -0.4388 -0.7156
  442MOL0     C58277   9.216   1.698   7.693 -0.5026 -0.3783 -0.6148
  442MOL0     C58278   9.350   1.661   7.679 -0.4823 -0.3864 -0.5847
  442MOL0     H58279   9.712   1.625   7.205 -1.7729 -5.4383 -1.5515
  442MOL0     H58280   9.925   1.535   7.124 -3.2795 -0.0436 -1.0841
  442MOL0     H58281  10.232   1.548   7.253 -0.0518  1.6831 -1.1251
  442MOL0     H58282  10.157   1.526   7.107 -0.7342 -0.8867 -0.0827
  442MOL0     H58283  10.367   1.428   7.097 -0.7635 -1.5241 -1.3393
  442MOL0     H58284  10.239   1.310   7.070 -0.6061  3.4455 -2.4734
  442MOL0     H58285  10.296   1.184   7.270 -0.1992 -0.2972  0.3045
  442MOL0     H58286  10.364   1.327   7.350 -3.0021  1.0708 -0.4102
  442MOL0     H58287  10.480   1.237   7.088  0.7437  1.4699 -0.6425
  442MOL0     H58288  10.557   1.328   7.218  0.7792 -1.3250  2.9762
  442MOL0     H58289  10.652   1.092   7.228 -0.5411 -0.8952 -0.1272
  442MOL0     H58290  10.493   1.023   7.241  0.8985 -0.3851  1.1044
  442MOL0     H58291  10.598   1.010   7.449 -1.5438 -1.6614 -2.1850
  442MOL0     H58292  10.458   1.129   7.469 -0.6610  1.0315  1.1175
  442MOL0     H58293  10.729   1.226   7.399 -0.8595  0.3482 -0.1610
  442MOL0     H58294  10.597   1.318   7.447 -1.7293 -0.2893  1.2008
  442MOL0     H58295  10.751   1.289   7.630 -0.9042  0.9161 -1.1999
  442MOL0     H58296  10.735   1.115   7.636  0.2532  0.6466 -0.9547
  442MOL0     H58297  10.534   1.444   7.714  3.1004  0.1260  1.1484
  442MOL0     H58298  10.377   1.472   7.948  3.9787 -1.6921  0.0897
  442MOL0     H58299  10.257   1.338   7.961 -2.3893  3.1076  0.1269
  442MOL0     H58300  10.160   1.403   7.722  0.2083 -0.6846  1.2712
  442MOL0     H58301  10.286   1.522   7.714 -1.5050 -1.6034 -1.9290
  442MOL0     H58302  10.193   1.648   7.904  0.5513  2.1615 -0.2089
  442MOL0     H58303  10.064   1.628   7.786 -1.1297 -1.1328  1.5058
  442MOL0     H58304  10.078   1.424   8.015  1.2611  2.2388  2.2112
  442MOL0     H58305   9.941   1.494   7.909 -0.8212  0.8470 -0.1648
  442MOL0     H58306  10.004   1.830   8.179 -1.0867 -2.4906  3.9316
  442MOL0     H58307   9.836   2.012   8.163 -1.6244  1.6678 -1.3785
  442MOL0     H58308   9.298   1.896   7.800 -0.8989  0.7297  0.0727
  442MOL0     H58309   9.105   2.026   7.720 -1.2899  0.0657  1.5508
  442MOL0     H58310   8.915   2.202   7.741  0.0243  1.6171  0.3116
  442MOL0     H58311   9.025   2.204   7.599 -1.4450  1.5108 -0.9638
  442MOL0     H58312   8.993   2.440   7.569  0.4134 -2.8957 -2.6332
  442MOL0     H58313   8.887   2.446   7.720  3.5310 -0.2723  1.1213
  442MOL0     H58314   8.724   2.323   7.620 -3.4773  1.9594 -2.2194
  442MOL0     H58315   8.802   2.318   7.459 -3.1841  2.7363 -1.4566
  442MOL0     H58316   8.700   2.557   7.619 -1.1061  2.0599 -0.2533
  442MOL0     H58317   8.783   2.577   7.457  0.7148 -0.8727 -0.0236
  442MOL0     H58318   8.533   2.438   7.513  1.0467 -0.0094  0.8912
  442MOL0     H58319   8.627   2.415   7.357  0.9073 -1.1559  0.7745
  442MOL0     H58320   8.608   2.686   7.367 -0.2933  0.3792  0.5480
  442MOL0     H58321   8.496   2.655   7.490  1.3589 -0.6774 -0.0673
  442MOL0     H58322   8.474   2.617   7.196  1.2965  2.0100  0.9810
  442MOL0     H58323   8.377   2.507   7.278 -0.4888  1.0386 -1.9543
  442MOL0     H58324   8.271   2.717   7.213  1.8685  0.5492 -0.5856
  442MOL0     H58325   8.370   2.806   7.326 -0.3944  1.5017 -2.2605
  442MOL0     H58326   9.275   2.378   7.904  0.9407 -0.6069  2.7035
  442MOL0     H58327   9.454   2.256   7.995 -2.1525  1.4679  1.9757
  442MOL0     H58328   9.606   1.759   7.891  0.1158 -2.2164 -0.2549
  442MOL0     H58329   9.764   1.587   7.911 -2.4336  0.4633 -0.5043
  442MOL0     H58330  10.021   1.397   7.518 -0.3520  0.3136  0.0839
  442MOL0     H58331   9.834   1.528   7.614 -1.6106 -0.7647 -0.3741
  442MOL0     H58332   9.393   1.717   7.356 -1.0373 -0.2391  0.0099
  442MOL0     H58333   9.154   1.771   7.372  3.0971 -0.5982 -1.6490
  442MOL0     H58334   8.881   1.684   7.457  0.1950  0.9098 -0.6489
  442MOL0     H58335   8.968   1.838   7.432 -0.8539  0.6461 -0.7345
  442MOL0     H58336   8.734   1.787   7.612 -2.3900  2.1746 -1.4206
  442MOL0     H58337   8.829   1.940   7.616 -0.5787  0.5573  1.2506
  442MOL0     H58338   8.788   1.983   7.371 -2.7102 -0.2215 -2.2414
  442MOL0     H58339   8.657   2.000   7.481  1.3810  0.8724  0.0928
  442MOL0     H58340   8.721   1.775   7.283  1.4295  5.1637 -1.5031
  442MOL0     H58341   8.591   1.772   7.410  2.2541 -1.7797  1.3864
  442MOL0     H58342   8.475   2.038   7.093 -0.4531 -0.1997 -0.4303
  442MOL0     H58343   9.168   1.694   7.790  2.1280 -2.0573  0.7479
  442MOL0     H58344   9.399   1.622   7.768  0.4482  1.2860 -0.3296
  443MOL0     O58345   5.154   6.691   6.767  0.2712  0.2423 -0.1759
  443MOL0     C58346   5.070   6.782   6.748 -0.9239 -0.6433 -0.7339
  443MOL0     O58347   5.098   6.908   6.774  0.7015 -0.7460 -0.5514
  443MOL0     C58348   5.222   6.943   6.815 -0.7495  0.5990  0.1260
  443MOL0     C58349   5.235   7.009   6.933 -0.4311  0.6760 -0.1861
  443MOL0     C58350   5.359   7.050   6.986  0.0861  0.2383 -0.3706
  443MOL0     C58351   5.482   7.022   6.918  0.2766  1.0448  0.6231
  443MOL0     O58352   5.599   7.066   6.972  0.8790  0.0114 -0.2467
  443MOL0     C58353   5.698   6.976   6.992 -1.0255  0.8462 -1.0211
  443MOL0     C58354   5.792   7.009   7.113  0.0661  0.0280  0.0562
  443MOL0     C58355   5.716   7.038   7.248 -0.3725  0.2339  0.2914
  443MOL0     C58356   5.620   6.928   7.279 -0.3888 -0.0768  1.0495
  443MOL0     C58357   5.564   6.940   7.420  0.0963 -0.3765 -0.5758
  443MOL0     C58358   5.463   6.835   7.447 -0.1059  0.4259  0.7623
  443MOL0     C58359   5.421   6.819   7.600 -0.1792  0.5662 -0.1198
  443MOL0     C58360   5.310   6.916   7.648  1.0976 -0.4112 -0.9003
  443MOL0     N58361   5.181   6.886   7.590  0.2648  0.5927  0.4776
  443MOL0     C58362   5.108   6.964   7.502  0.6375 -0.6958  0.4329
  443MOL0     C58363   4.984   6.907   7.509 -0.4364  0.2336  0.2859
  443MOL0     C58364   4.858   6.959   7.446 -0.2992 -0.4399  0.8180
  443MOL0     C58365   4.848   6.966   7.293 -0.8682 -0.0946 -0.5163
  443MOL0     C58366   4.840   6.828   7.240 -0.6070  0.7788  0.7858
  443MOL0     C58367   4.846   6.817   7.086 -0.1561 -0.5466 -0.1540
  443MOL0     O58368   4.782   6.930   7.017 -0.0899 -0.4512 -0.2599
  443MOL0     C58369   4.650   6.936   7.028 -0.1186 -0.3177 -0.3453
  443MOL0     C58370   4.568   6.828   7.049  0.3046  0.5975  0.7596
  443MOL0     C58371   4.430   6.852   7.068  0.4124 -0.0042  0.1642
  443MOL0     C58372   4.372   6.972   7.041 -0.1428 -0.3528 -0.1529
  443MOL0     C58373   4.222   6.987   7.058  0.1457  0.5411  0.4929
  443MOL0     O58374   4.155   6.887   7.117  0.3118  0.1856 -0.1628
  443MOL0     C58375   4.040   6.918   7.183 -1.2088  0.2139 -0.6937
  443MOL0     C58376   3.958   6.807   7.197  0.6386 -0.3207 -0.4698
  443MOL0     C58377   3.840   6.814   7.268 -0.5244 -0.6703 -0.1799
  443MOL0     C58378   3.787   6.935   7.316 -0.1015  0.0295 -0.1641
  443MOL0     O58379   3.660   6.960   7.372  0.1022 -0.6716 -0.6365
  443MOL0     C58380   3.577   6.844   7.397 -0.2899 -0.7301 -0.5694
  443MOL0     C58381   3.434   6.871   7.425  0.0820 -0.8740  0.3452
  443MOL0     C58382   3.397   6.961   7.544 -0.2236 -0.5898 -0.2116
  443MOL0     C58383   3.445   6.909   7.689 -0.0384 -0.2246  0.8500
  443MOL0     C58384   3.374   6.782   7.735  1.7279 -0.9165 -0.0170
  443MOL0     C58385   3.216   6.796   7.735 -0.3247  0.5484  0.6605
  443MOL0     C58386   3.167   6.681   7.834  0.6866 -0.4658  0.7454
  443MOL0     C58387   3.010   6.661   7.802  0.3739  0.4525 -0.2253
  443MOL0    Cl58388   2.938   6.552   7.926 -0.1741  0.3780 -0.2573
  443MOL0     C58389   3.872   7.046   7.298 -0.0769  1.0768  0.3720
  443MOL0     C58390   3.996   7.049   7.226  0.5517  0.0518 -0.4879
  443MOL0     O58391   4.175   7.095   7.026  1.5724 -0.2808  0.0329
  443MOL0     C58392   4.452   7.083   7.000 -0.3889 -0.4926  0.9247
  443MOL0     C58393   4.586   7.065   6.996  0.0386  0.8485 -0.9220
  443MOL0     N58394   4.993   6.796   7.582  0.4780  0.5619 -0.7137
  443MOL0     N58395   5.108   6.788   7.636 -0.1658 -0.2107  0.3440
  443MOL0     C58396   5.467   6.956   6.791  0.8442 -0.1930 -0.2778
  443MOL0     C58397   5.337   6.921   6.738 -0.4223  0.0535 -0.0102
  443MOL0     C58398   4.931   6.742   6.721  0.0605  0.1976 -0.4850
  443MOL0     C58399   4.892   6.612   6.723 -0.3214  0.1072 -0.0799
  443MOL0     C58400   4.756   6.576   6.719 -0.0684 -0.4744 -0.4279
  443MOL0     C58401   4.658   6.675   6.707 -1.2680  0.6719  0.6704
  443MOL0     O58402   4.523   6.653   6.694 -0.1943  0.7071 -0.0129
  443MOL0     C58403   4.475   6.526   6.720  0.8335  0.4687 -0.4142
  443MOL0     C58404   4.329   6.520   6.755 -0.4558  0.4358 -0.7834
  443MOL0     C58405   4.307   6.595   6.880 -0.2802  0.1985 -0.5361
  443MOL0     C58406   4.171   6.565   6.957 -0.0629  0.0098 -0.3618
  443MOL0     C58407   4.153   6.428   7.004 -0.4306  0.6209  0.7798
  443MOL0     C58408   4.127   6.315   7.055  0.0557 -0.7505 -0.4797
  443MOL0     C58409   4.695   6.806   6.700 -0.4275  0.9289  0.1535
  443MOL0     C58410   4.831   6.838   6.705 -0.4629 -1.1551 -0.7257
  443MOL0     H58411   5.149   7.053   6.984  1.1963  2.5510  1.1186
  443MOL0     H58412   5.373   7.102   7.080  0.5157 -2.2367  1.0315
  443MOL0     H58413   5.763   6.976   6.904  0.3569 -1.0350 -0.0713
  443MOL0     H58414   5.671   6.870   6.993 -0.2050  0.6369 -0.1231
  443MOL0     H58415   5.848   7.101   7.094 -1.7631  1.7376  2.3025
  443MOL0     H58416   5.861   6.925   7.120 -0.5351 -0.7736 -2.5056
  443MOL0     H58417   5.657   7.130   7.242 -1.9015 -0.5373  2.3406
  443MOL0     H58418   5.786   7.072   7.325  0.5485  2.2055 -1.3175
  443MOL0     H58419   5.534   6.924   7.212 -0.9706  1.2144  1.6836
  443MOL0     H58420   5.673   6.833   7.265  0.0945  0.1797  1.1354
  443MOL0     H58421   5.519   7.039   7.434  1.1414  0.1873 -1.1152
  443MOL0     H58422   5.649   6.933   7.489  0.5334 -1.1460 -1.1766
  443MOL0     H58423   5.515   6.744   7.416  1.0093  1.3544 -0.1716
  443MOL0     H58424   5.375   6.844   7.383  0.0907  0.4200  0.4925
  443MOL0     H58425   5.393   6.718   7.629  0.2021  0.5075  0.0529
  443MOL0     H58426   5.505   6.841   7.667  1.6713  4.3410 -3.2225
  443MOL0     H58427   5.330   7.024   7.640 -2.0203  0.4893  1.6150
  443MOL0     H58428   5.305   6.913   7.757  2.5090  0.7692 -0.7708
  443MOL0     H58429   5.133   7.059   7.455  0.4738 -0.6679  0.3995
  443MOL0     H58430   4.831   7.045   7.508  1.0566 -0.1185  0.9780
  443MOL0     H58431   4.781   6.884   7.468  0.8119 -1.6652  0.6266
  443MOL0     H58432   4.934   7.012   7.244 -0.7565 -1.8832 -2.1299
  443MOL0     H58433   4.768   7.036   7.266 -0.4817  1.4991  2.1150
  443MOL0     H58434   4.918   6.769   7.289 -0.0252 -1.0164 -2.0985
  443MOL0     H58435   4.746   6.785   7.276 -0.6046  1.8760  2.1886
  443MOL0     H58436   4.807   6.719   7.058  3.2720 -1.9393 -0.5609
  443MOL0     H58437   4.951   6.815   7.053  0.0119 -2.4005  0.3735
  443MOL0     H58438   4.604   6.728   7.070 -1.1277 -0.2085 -0.4458
  443MOL0     H58439   4.365   6.767   7.088 -1.0971  0.7000 -1.4670
  443MOL0     H58440   3.987   6.715   7.147  0.9249  0.3927 -1.6733
  443MOL0     H58441   3.776   6.727   7.280  0.5037 -1.6773 -1.6317
  443MOL0     H58442   3.609   6.793   7.488  2.1781 -0.1372 -1.0409
  443MOL0     H58443   3.589   6.776   7.312  0.5918  0.3436 -1.3324
  443MOL0     H58444   3.390   6.774   7.448 -1.1931  0.3821  4.0176
  443MOL0     H58445   3.389   6.911   7.333 -0.1014 -0.6075  0.5459
  443MOL0     H58446   3.289   6.974   7.539  0.1144  2.1822 -3.7650
  443MOL0     H58447   3.432   7.062   7.527 -0.9819  0.0289  1.5956
  443MOL0     H58448   3.552   6.888   7.679 -0.4134 -1.1938 -1.8640
  443MOL0     H58449   3.443   6.992   7.762  3.9505 -0.4951  1.4977
  443MOL0     H58450   3.410   6.761   7.836  2.5814  0.0873 -0.0904
  443MOL0     H58451   3.396   6.707   7.658 -0.1884  0.6028 -2.1847
  443MOL0     H58452   3.188   6.781   7.630  0.2788 -1.6590  0.7544
  443MOL0     H58453   3.193   6.898   7.766 -0.7504  1.0594 -1.2159
  443MOL0     H58454   3.231   6.592   7.829  0.4327 -0.6974  1.4806
  443MOL0     H58455   3.179   6.720   7.935 -2.0227  1.2084  0.5193
  443MOL0     H58456   3.004   6.610   7.706  3.1415  1.5220 -1.0428
  443MOL0     H58457   2.953   6.754   7.804  1.1463  0.9336  1.2386
  443MOL0     H58458   3.825   7.141   7.321  0.6504  1.1722  1.5748
  443MOL0     H58459   4.042   7.147   7.217 -1.4811  1.0490 -0.6002
  443MOL0     H58460   4.403   7.174   6.969 -0.8177 -0.6096  1.2506
  443MOL0     H58461   4.653   7.142   6.960  0.9264 -0.3430 -1.9136
  443MOL0     H58462   5.549   6.931   6.724 -1.2498  0.4748 -3.2837
  443MOL0     H58463   5.322   6.863   6.648  0.3949 -1.6981  0.9253
  443MOL0     H58464   4.964   6.533   6.743 -0.6175 -0.3164 -0.6459
  443MOL0     H58465   4.732   6.471   6.710 -0.8934 -0.3786  0.5764
  443MOL0     H58466   4.534   6.481   6.801  0.0297  0.7777  0.3610
  443MOL0     H58467   4.499   6.462   6.634  1.2751 -0.6482  0.5063
  443MOL0     H58468   4.264   6.564   6.679 -0.6951  0.4454 -0.5732
  443MOL0     H58469   4.306   6.413   6.764  3.8847 -0.5212  2.1673
  443MOL0     H58470   4.301   6.699   6.848 -1.1052 -0.0007 -1.0495
  443MOL0     H58471   4.382   6.571   6.956 -2.1163 -5.6733 -0.1046
  443MOL0     H58472   4.167   6.614   7.054  1.1716 -2.2004  0.9069
  443MOL0     H58473   4.084   6.593   6.897  0.0241  1.7321  0.2856
  443MOL0     H58474   4.115   6.219   7.101  1.4717 -0.9219 -0.4302
  443MOL0     H58475   4.625   6.889   6.701  0.4901  1.7292 -0.3785
  443MOL0     H58476   4.854   6.944   6.719 -0.5515 -1.2784  0.4307
  444MOL0     O58477   5.936   6.786   2.344 -0.1859 -0.7709 -0.6261
  444MOL0     C58478   6.011   6.704   2.407  0.6796  0.3952  1.2138
  444MOL0     O58479   5.966   6.598   2.479 -0.6406 -0.2467  0.0170
  444MOL0     C58480   5.827   6.586   2.492  0.6563 -0.3359  0.1776
  444MOL0     C58481   5.749   6.691   2.535 -0.5508 -0.1229 -0.0340
  444MOL0     C58482   5.616   6.676   2.558  0.6237  0.1428  0.0606
  444MOL0     C58483   5.555   6.546   2.546 -0.9292 -0.4084  0.4388
  444MOL0     O58484   5.424   6.526   2.569  0.0823 -0.1311 -0.3753
  444MOL0     C58485   5.359   6.600   2.669 -0.3949 -0.2257 -0.0273
  444MOL0     C58486   5.246   6.523   2.714  0.4929 -1.1323 -0.3831
  444MOL0     C58487   5.138   6.538   2.612  0.8853 -0.2624  1.0057
  444MOL0     C58488   4.998   6.542   2.680 -0.7686  0.0210  0.5474
  444MOL0     C58489   4.914   6.629   2.596  0.6252  0.9811  0.1441
  444MOL0     C58490   4.765   6.620   2.637 -0.2800 -0.5116 -1.1716
  444MOL0     C58491   4.699   6.707   2.527 -0.3549 -0.1819 -0.2358
  444MOL0     C58492   4.564   6.763   2.557  0.3906 -0.2354  0.3229
  444MOL0     N58493   4.561   6.860   2.670 -0.2835  0.1509  0.7332
  444MOL0     C58494   4.662   6.955   2.678 -0.4160 -0.2647 -0.1013
  444MOL0     C58495   4.656   6.990   2.811 -0.3386 -0.4464 -0.3797
  444MOL0     C58496   4.731   7.104   2.874  0.1152  0.5141  0.4708
  444MOL0     C58497   4.626   7.212   2.914  0.6764  0.5162  0.0099
  444MOL0     C58498   4.566   7.283   2.789 -0.0653  0.6834 -0.6660
  444MOL0     C58499   4.472   7.402   2.812  0.3074 -0.3431 -0.5836
  444MOL0     O58500   4.358   7.358   2.894 -0.2038 -0.4773 -0.1051
  444MOL0     C58501   4.240   7.435   2.900  0.2287  0.6319  0.0600
  444MOL0     C58502   4.133   7.393   2.979  0.6402 -0.3662  0.1205
  444MOL0     C58503   4.012   7.467   2.990  0.5057  1.1208 -0.1600
  444MOL0     C58504   3.998   7.594   2.932 -0.5301  0.4220  0.0372
  444MOL0     C58505   3.867   7.658   2.952 -0.3713 -0.4231  1.3435
  444MOL0     O58506   3.772   7.589   3.015 -0.0804  0.1446 -0.0190
  444MOL0     C58507   3.643   7.619   3.007 -0.0722  0.4590  0.9156
  444MOL0     C58508   3.571   7.545   3.100 -0.1231 -0.4594  0.3491
  444MOL0     C58509   3.432   7.552   3.107 -0.0898  0.3240 -0.5082
  444MOL0     C58510   3.361   7.638   3.028 -0.1941 -0.0449 -0.9890
  444MOL0     O58511   3.227   7.644   3.050 -0.3866  0.7812 -0.6232
  444MOL0     C58512   3.144   7.720   2.968  0.1987  0.2228  0.6674
  444MOL0     C58513   2.985   7.693   3.005 -0.4197 -0.0776  0.6980
  444MOL0     C58514   2.953   7.553   2.964 -0.5639 -0.8380  0.2527
  444MOL0     C58515   2.807   7.508   3.005 -0.6502 -0.0752 -0.5178
  444MOL0     C58516   2.754   7.386   2.923 -0.2166  0.0292  0.0234
  444MOL0     C58517   2.807   7.251   2.968 -0.0345  0.4293  0.7075
  444MOL0     C58518   2.755   7.131   2.877  0.3907  0.4591 -0.0185
  444MOL0     C58519   2.789   6.997   2.929 -0.0440 -0.6449 -0.6840
  444MOL0    Cl58520   2.769   6.881   2.793 -0.3679 -0.1738 -0.2930
  444MOL0     C58521   3.424   7.707   2.927  0.4621  0.9872  0.0958
  444MOL0     C58522   3.562   7.697   2.917 -0.1094  0.7720  0.1275
  444MOL0     O58523   3.850   7.769   2.903  0.0760  0.3236 -0.2389
  444MOL0     C58524   4.110   7.646   2.868 -0.0697  0.5351  0.0958
  444MOL0     C58525   4.227   7.569   2.851 -0.2087  0.2090 -0.4361
  444MOL0     N58526   4.559   6.923   2.873 -0.7303  0.2918 -0.0164
  444MOL0     N58527   4.498   6.839   2.791  0.5049  0.3573 -0.9811
  444MOL0     C58528   5.633   6.439   2.506  1.0358 -0.3467  0.6797
  444MOL0     C58529   5.772   6.460   2.480  0.8706  0.4270  0.1697
  444MOL0     C58530   6.154   6.723   2.395  0.8193  0.0860  0.1966
  444MOL0     C58531   6.205   6.856   2.384  0.2323 -0.7674  0.0257
  444MOL0     C58532   6.345   6.884   2.382 -0.2657  0.7035  0.4668
  444MOL0     C58533   6.428   6.774   2.383 -0.2258  0.0315 -0.4612
  444MOL0     O58534   6.563   6.783   2.375 -0.4932 -0.4119 -0.0143
  444MOL0     C58535   6.629   6.902   2.345  0.0511 -0.5845 -1.0366
  444MOL0     C58536   6.783   6.868   2.330  0.4040 -0.0522 -0.3891
  444MOL0     C58537   6.874   6.995   2.318  0.3777 -0.4374 -0.1988
  444MOL0     C58538   7.008   6.948   2.266 -0.0000 -0.7038  0.4925
  444MOL0     C58539   7.078   6.886   2.383 -0.2239  0.5908 -0.6270
  444MOL0     C58540   7.134   6.831   2.474 -0.6198 -0.8893 -0.0612
  444MOL0     C58541   6.383   6.643   2.406  0.7602  1.1749 -0.9270
  444MOL0     C58542   6.243   6.615   2.410  0.3704  0.3370  0.2678
  444MOL0     H58543   5.797   6.784   2.565  1.6778 -1.1968 -0.1189
  444MOL0     H58544   5.559   6.765   2.584  0.2998  0.0327 -0.2640
  444MOL0     H58545   5.329   6.701   2.639  1.8960  0.8799  1.1551
  444MOL0     H58546   5.422   6.616   2.757  0.2094 -1.1330 -0.2835
  444MOL0     H58547   5.217   6.575   2.806  0.8844  1.4661 -1.6382
  444MOL0     H58548   5.262   6.418   2.740 -1.7638 -0.8065  2.8795
  444MOL0     H58549   5.146   6.449   2.548  4.6868  0.5818  0.0669
  444MOL0     H58550   5.153   6.624   2.547 -1.6323  1.0350  2.0326
  444MOL0     H58551   4.960   6.440   2.692  1.0554 -0.6716  0.8247
  444MOL0     H58552   4.996   6.588   2.779  1.0499  1.4532 -0.0157
  444MOL0     H58553   4.920   6.595   2.493  1.1112 -0.1424  0.5288
  444MOL0     H58554   4.955   6.731   2.596 -2.9467  2.6010 -1.8557
  444MOL0     H58555   4.748   6.673   2.732  1.3745  0.9548 -1.6375
  444MOL0     H58556   4.725   6.519   2.638  2.4762 -1.7367  1.3930
  444MOL0     H58557   4.753   6.798   2.500  3.5442 -1.8165  1.4429
  444MOL0     H58558   4.691   6.646   2.436  1.1227 -0.8959  0.0918
  444MOL0     H58559   4.508   6.674   2.589  0.6135  0.1510  1.8579
  444MOL0     H58560   4.528   6.812   2.466 -0.3150  0.5733  1.0239
  444MOL0     H58561   4.713   7.010   2.600 -0.9148 -0.2562 -0.4283
  444MOL0     H58562   4.798   7.142   2.797  0.5743  1.3748  1.2725
  444MOL0     H58563   4.795   7.079   2.960  0.6087  0.8972  0.2235
  444MOL0     H58564   4.654   7.295   2.979  2.9387 -1.0202  1.1248
  444MOL0     H58565   4.544   7.165   2.968 -1.1772 -0.6777 -3.5478
  444MOL0     H58566   4.643   7.317   2.719 -0.4424  1.3140 -0.7819
  444MOL0     H58567   4.505   7.210   2.736  0.6775 -2.6062  2.6129
  444MOL0     H58568   4.439   7.441   2.715 -0.4931  3.1218  0.9142
  444MOL0     H58569   4.508   7.493   2.861 -3.8038  1.9877 -1.3840
  444MOL0     H58570   4.146   7.298   3.029  1.9768 -0.0934  0.3290
  444MOL0     H58571   3.935   7.425   3.054  1.8728 -0.1117  0.7465
  444MOL0     H58572   3.620   7.481   3.173 -3.4458 -2.0887  1.3423
  444MOL0     H58573   3.390   7.493   3.188  0.9232  0.6653  0.2960
  444MOL0     H58574   3.163   7.688   2.865  1.2035 -0.0631  0.9372
  444MOL0     H58575   3.161   7.827   2.982 -2.7330  0.9155 -0.3774
  444MOL0     H58576   2.921   7.765   2.953  0.0405  0.9663  1.5440
  444MOL0     H58577   2.964   7.710   3.111  1.6370  1.2461  0.9476
  444MOL0     H58578   3.029   7.482   2.995 -0.5601 -0.6032  0.7990
  444MOL0     H58579   2.955   7.537   2.856  0.7250 -1.3915  0.3534
  444MOL0     H58580   2.822   7.477   3.109  0.8818 -0.6098 -0.8806
  444MOL0     H58581   2.738   7.593   2.996 -0.2556  0.6882  2.5349
  444MOL0     H58582   2.774   7.405   2.817  4.2627  2.9830  1.1026
  444MOL0     H58583   2.645   7.379   2.933 -0.1213 -1.9374  0.0682
  444MOL0     H58584   2.772   7.238   3.070  0.6679  0.7256  0.9912
  444MOL0     H58585   2.916   7.247   2.955 -0.1535  3.0918 -2.8809
  444MOL0     H58586   2.648   7.132   2.858  0.5388 -0.1255 -0.9623
  444MOL0     H58587   2.796   7.133   2.775 -2.4763 -1.2149 -1.3167
  444MOL0     H58588   2.728   6.971   3.015 -1.0857  0.7548 -0.9512
  444MOL0     H58589   2.894   7.001   2.958  0.0082  0.7156 -0.9947
  444MOL0     H58590   3.385   7.782   2.859 -2.3045  0.6810  1.2204
  444MOL0     H58591   3.616   7.752   2.840  2.9591  0.3925  1.8495
  444MOL0     H58592   4.103   7.747   2.827  1.5441  1.5079  1.9948
  444MOL0     H58593   4.311   7.612   2.797  0.0638  0.6391  0.3103
  444MOL0     H58594   5.584   6.343   2.502 -1.2529  0.7635  0.4129
  444MOL0     H58595   5.833   6.378   2.443  0.5679  0.9178 -1.5111
  444MOL0     H58596   6.141   6.943   2.391 -0.0356 -0.9930  0.4307
  444MOL0     H58597   6.388   6.984   2.377 -0.0346  0.5546 -1.2047
  444MOL0     H58598   6.623   6.977   2.424  1.2746  1.3051 -2.6348
  444MOL0     H58599   6.604   6.936   2.244 -2.4597 -0.4575 -0.4260
  444MOL0     H58600   6.820   6.814   2.418  2.1495 -0.5152 -1.3537
  444MOL0     H58601   6.803   6.801   2.246  2.1183 -2.0134  1.4569
  444MOL0     H58602   6.889   7.041   2.416 -1.6622  1.2419 -0.6283
  444MOL0     H58603   6.834   7.071   2.251  2.7974  0.1265 -1.1118
  444MOL0     H58604   7.003   6.869   2.190  0.4491  0.7814 -1.1379
  444MOL0     H58605   7.075   7.028   2.233  0.5622 -0.9659  0.9654
  444MOL0     H58606   7.194   6.803   2.559 -1.8575 -3.3965  0.1007
  444MOL0     H58607   6.454   6.564   2.428  1.6602  2.1725 -0.1735
  444MOL0     H58608   6.209   6.512   2.412  1.0426  0.0926 -0.6478
  445MOL0     O58609   9.624   8.675   8.708  0.5167  0.5166 -0.1120
  445MOL0     C58610   9.669   8.754   8.623 -0.3257  0.5909 -0.5156
  445MOL0     O58611   9.594   8.830   8.531 -0.4269  0.3446  0.4709
  445MOL0     C58612   9.456   8.830   8.542  0.7525 -0.1261  0.1369
  445MOL0     C58613   9.394   8.956   8.576 -0.4253  0.4154 -0.5166
  445MOL0     C58614   9.256   8.957   8.579 -0.6895 -0.0301 -1.0592
  445MOL0     C58615   9.176   8.852   8.544  0.4667 -0.9831  0.1307
  445MOL0     O58616   9.035   8.840   8.546 -0.4812  0.2237 -0.3779
  445MOL0     C58617   8.966   8.948   8.598 -0.6529 -1.0047  0.6000
  445MOL0     C58618   8.828   8.916   8.648  0.2712 -0.4932 -0.7893
  445MOL0     C58619   8.736   8.858   8.539  0.4164  0.9959 -1.1563
  445MOL0     C58620   8.697   8.947   8.421 -0.1855  0.0385 -1.2198
  445MOL0     C58621   8.593   9.059   8.439 -0.6980 -0.8982  0.6673
  445MOL0     C58622   8.577   9.133   8.313  0.5132 -0.4888  0.2572
  445MOL0     C58623   8.459   9.229   8.307 -0.0171 -0.6843 -0.2691
  445MOL0     C58624   8.343   9.213   8.205 -0.3885 -0.4399 -0.8025
  445MOL0     N58625   8.293   9.348   8.162  0.0769 -0.1422  0.0132
  445MOL0     C58626   8.250   9.444   8.251 -0.0654  0.2328 -0.2932
  445MOL0     C58627   8.204   9.543   8.169  0.6172  0.6294 -0.9214
  445MOL0     C58628   8.144   9.669   8.211  0.2817  0.1773 -0.7860
  445MOL0     C58629   7.996   9.651   8.280 -1.0335  0.2809 -0.0590
  445MOL0     C58630   7.918   9.775   8.234 -0.8658  0.8316 -0.1592
  445MOL0     C58631   7.768   9.787   8.283  0.1127 -1.2304  0.2874
  445MOL0     O58632   7.732   9.919   8.234 -0.2897 -0.3377 -0.3571
  445MOL0     C58633   7.605   9.976   8.266  0.5516  0.5676  0.3397
  445MOL0     C58634   7.505   9.893   8.311  0.3369 -0.3024 -0.6965
  445MOL0     C58635   7.375   9.936   8.333 -0.2803 -1.0413  0.5551
  445MOL0     C58636   7.353  10.075   8.323  0.4884 -0.8678  0.2150
  445MOL0     C58637   7.216  10.120   8.354  0.9097 -0.4998  0.3776
  445MOL0     O58638   7.187  10.245   8.332  0.2645  0.3092  0.0541
  445MOL0     C58639   7.058  10.287   8.339 -0.1486  0.3796 -0.4098
  445MOL0     C58640   6.942  10.217   8.331  0.4225  0.2572  0.4976
  445MOL0     C58641   6.818  10.270   8.364 -0.2532 -0.0915 -0.0764
  445MOL0     C58642   6.806  10.406   8.403 -0.7551  0.5948  0.4185
  445MOL0     O58643   6.694  10.477   8.435 -0.3155  0.1006  0.6519
  445MOL0     C58644   6.573  10.410   8.419  0.2957 -0.2076 -0.9541
  445MOL0     C58645   6.462  10.507   8.448  0.4651 -0.0995 -1.2380
  445MOL0     C58646   6.339  10.427   8.515  0.4179 -0.7151  0.2194
  445MOL0     C58647   6.207  10.501   8.512  0.2681 -0.1557 -1.1201
  445MOL0     C58648   6.091  10.407   8.542 -0.2789 -0.1195  0.5906
  445MOL0     C58649   5.959  10.474   8.563  0.7586  0.3660 -0.2308
  445MOL0     C58650   5.872  10.392   8.658 -0.7438  0.1118  0.7178
  445MOL0     C58651   5.729  10.435   8.654 -0.5955  0.5104 -0.3431
  445MOL0    Cl58652   5.644  10.349   8.782  0.0787  0.0752  0.2708
  445MOL0     C58653   6.922  10.485   8.404 -0.3394  0.2671  0.4059
  445MOL0     C58654   7.045  10.421   8.375  0.1138 -0.5787 -0.5369
  445MOL0     O58655   7.140  10.032   8.396 -0.5882 -0.0675  0.5354
  445MOL0     C58656   7.443  10.163   8.268 -0.8679  0.1652 -0.4784
  445MOL0     C58657   7.573  10.111   8.233  0.3475 -0.3543  0.5020
  445MOL0     N58658   8.244   9.517   8.040 -0.5855  0.3573 -0.3614
  445MOL0     N58659   8.306   9.407   8.037 -0.7955 -0.0143 -0.9302
  445MOL0     C58660   9.238   8.729   8.505 -0.5395  0.0467  1.1042
  445MOL0     C58661   9.379   8.717   8.502 -0.6194 -0.5235 -0.8642
  445MOL0     C58662   9.816   8.756   8.626 -0.0291  0.2768 -0.0140
  445MOL0     C58663   9.893   8.709   8.731 -0.9538  0.4998 -0.1049
  445MOL0     C58664  10.036   8.706   8.731  0.6037  1.0602  0.2871
  445MOL0     C58665  10.104   8.751   8.618 -0.2399 -0.4741  0.6214
  445MOL0     O58666  10.247   8.764   8.610  0.4899 -0.2962  0.0385
  445MOL0     C58667  10.307   8.810   8.734  0.4233 -0.1694 -0.5770
  445MOL0     C58668  10.453   8.860   8.745  0.4619 -0.8355  0.8791
  445MOL0     C58669  10.481   8.985   8.656 -0.7134 -0.1893 -0.0808
  445MOL0     C58670  10.372   9.087   8.635  0.1650 -0.5341  0.1300
  445MOL0     C58671  10.378   9.183   8.751 -0.5449 -1.1968  0.3652
  445MOL0     C58672  10.352   9.323   8.885  0.2827 -0.5908 -0.2104
  445MOL0     C58673  10.028   8.797   8.508 -0.0686  0.1176 -0.7461
  445MOL0     C58674   9.887   8.798   8.504 -0.4212  0.4117 -0.3492
  445MOL0     H58675   9.453   9.038   8.615 -2.8537  2.3732 -0.6682
  445MOL0     H58676   9.211   9.037   8.637  0.8907 -1.3672  2.3134
  445MOL0     H58677   8.953   9.024   8.520 -2.3362 -2.0487 -0.1952
  445MOL0     H58678   9.012   8.992   8.687 -2.0853  0.0588  0.8545
  445MOL0     H58679   8.801   9.010   8.697 -0.4285 -0.3729 -1.3950
  445MOL0     H58680   8.838   8.850   8.735 -0.9886  2.4003  1.7757
  445MOL0     H58681   8.640   8.841   8.589  0.2115 -0.3146 -1.9398
  445MOL0     H58682   8.772   8.761   8.502 -0.0228 -0.2071  1.3625
  445MOL0     H58683   8.792   8.996   8.397 -0.6975  1.0623 -1.2293
  445MOL0     H58684   8.664   8.880   8.341 -0.8858 -1.4316  0.2385
  445MOL0     H58685   8.614   9.124   8.524  2.3369 -0.3365 -0.3809
  445MOL0     H58686   8.503   9.011   8.479  0.2934 -2.0502  1.6044
  445MOL0     H58687   8.559   9.052   8.242  0.2649 -3.1819  3.1772
  445MOL0     H58688   8.676   9.177   8.297  1.7263 -3.5466 -1.4751
  445MOL0     H58689   8.425   9.250   8.408 -1.6644  0.8997 -1.1056
  445MOL0     H58690   8.520   9.314   8.276  1.6002 -0.7023  2.4935
  445MOL0     H58691   8.272   9.148   8.257 -1.3706  1.9907  1.1123
  445MOL0     H58692   8.388   9.165   8.118 -1.0941  1.5955 -2.3520
  445MOL0     H58693   8.250   9.446   8.360  0.5910  3.4430 -0.2518
  445MOL0     H58694   8.144   9.737   8.126  2.2689 -0.0378 -1.0217
  445MOL0     H58695   8.200   9.703   8.299 -1.8620  0.3808  0.5697
  445MOL0     H58696   8.008   9.641   8.389 -0.5269  3.4924  0.2543
  445MOL0     H58697   7.956   9.561   8.232  0.8167  0.3994 -1.9923
  445MOL0     H58698   7.965   9.866   8.273 -2.3585  0.8237  1.8014
  445MOL0     H58699   7.921   9.771   8.125 -2.0269  1.2582 -0.2239
  445MOL0     H58700   7.749   9.793   8.391  1.8140  2.0075  0.5525
  445MOL0     H58701   7.709   9.707   8.237  0.0459 -0.8814 -0.2454
  445MOL0     H58702   7.515   9.785   8.324 -0.3009 -0.3320 -0.3935
  445MOL0     H58703   7.302   9.867   8.375 -1.1607  0.4799  1.6383
  445MOL0     H58704   6.937  10.115   8.294 -0.5592  0.9164 -1.3050
  445MOL0     H58705   6.740  10.197   8.349 -0.1991 -0.1230 -0.2024
  445MOL0     H58706   6.578  10.331   8.495 -0.0940  1.2943  0.7052
  445MOL0     H58707   6.557  10.351   8.328 -1.7884 -3.1022  1.0722
  445MOL0     H58708   6.429  10.534   8.347 -2.4006  0.6637 -0.2096
  445MOL0     H58709   6.492  10.591   8.510 -1.1439 -0.7090  0.4472
  445MOL0     H58710   6.359  10.409   8.621  2.6725  2.7148  0.5122
  445MOL0     H58711   6.328  10.334   8.458 -2.9484  0.1709 -0.8415
  445MOL0     H58712   6.201  10.587   8.579  2.5575 -1.2170  0.5847
  445MOL0     H58713   6.198  10.549   8.414 -1.0020  0.9039 -0.5084
  445MOL0     H58714   6.122  10.358   8.635 -0.5802  0.0907  0.7995
  445MOL0     H58715   6.091  10.326   8.468  3.2669  2.0465 -2.1031
  445MOL0     H58716   5.899  10.483   8.471 -1.4853  0.3840  1.1524
  445MOL0     H58717   5.975  10.570   8.612 -1.5972 -0.6363  2.8397
  445MOL0     H58718   5.877  10.287   8.626  1.1509  1.0718 -2.6819
  445MOL0     H58719   5.911  10.402   8.760 -0.7006  1.0433  0.6183
  445MOL0     H58720   5.686  10.400   8.560 -1.0068 -1.3849  0.4986
  445MOL0     H58721   5.718  10.544   8.657  0.9256  0.6779  0.1261
  445MOL0     H58722   6.903  10.586   8.438 -1.7726  0.0376  0.3230
  445MOL0     H58723   7.136  10.469   8.407 -0.2161 -1.6241  2.1856
  445MOL0     H58724   7.423  10.270   8.267 -4.5720 -0.3460  1.8930
  445MOL0     H58725   7.641  10.180   8.185  2.1468 -1.6804  1.0121
  445MOL0     H58726   9.177   8.641   8.486 -1.5762  0.1268  3.6901
  445MOL0     H58727   9.428   8.627   8.466 -1.7078 -0.0214 -3.9161
  445MOL0     H58728   9.854   8.651   8.814  0.8467  0.5258  0.8103
  445MOL0     H58729  10.083   8.676   8.824 -1.3238  1.1425  1.3610
  445MOL0     H58730  10.312   8.723   8.799 -0.4075  0.5225  0.4592
  445MOL0     H58731  10.238   8.887   8.770 -0.2140 -0.3034 -1.4830
  445MOL0     H58732  10.476   8.880   8.850  0.9794  0.2942  0.5645
  445MOL0     H58733  10.521   8.777   8.725  0.4908 -0.9927  1.6023
  445MOL0     H58734  10.509   8.962   8.553 -0.3053 -0.1750  0.0256
  445MOL0     H58735  10.574   9.029   8.694 -0.3435 -0.8450 -0.2162
  445MOL0     H58736  10.391   9.132   8.538 -1.1394 -4.1105 -1.9692
  445MOL0     H58737  10.274   9.042   8.617 -0.0479  0.8599 -2.6876
  445MOL0     H58738  10.341   9.388   8.970  0.0116 -0.1032 -0.6135
  445MOL0     H58739  10.076   8.819   8.413 -1.5866 -0.0312 -1.5702
  445MOL0     H58740   9.837   8.823   8.411  0.7694 -1.8363 -1.6856
  446MOL0     O58741   6.555  10.288   4.760 -0.9560  0.1549  0.1525
  446MOL0     C58742   6.606  10.181   4.740 -0.8464  0.2918  0.8059
  446MOL0     O58743   6.547  10.059   4.748 -0.3410 -0.0025  0.1344
  446MOL0     C58744   6.413  10.051   4.781 -0.1593  0.6969  0.7345
  446MOL0     C58745   6.370   9.995   4.895  0.1649  0.8346 -0.5785
  446MOL0     C58746   6.242   9.998   4.939  0.0154 -0.0915  0.8045
  446MOL0     C58747   6.140  10.052   4.866  0.3856  0.2895  0.2651
  446MOL0     O58748   6.011  10.052   4.907 -0.0889  0.6256 -0.2888
  446MOL0     C58749   5.979   9.964   5.019 -0.4591  0.9120 -0.4297
  446MOL0     C58750   5.833   9.971   5.055 -0.6524 -0.2205  0.5473
  446MOL0     C58751   5.739   9.959   4.934  1.0729  0.0931  0.6317
  446MOL0     C58752   5.740   9.826   4.868  0.7355 -0.9608  0.7014
  446MOL0     C58753   5.658   9.831   4.739 -0.0395 -0.2645  0.6289
  446MOL0     C58754   5.685   9.708   4.645  0.4693 -0.0421  0.2458
  446MOL0     C58755   5.584   9.720   4.521  0.5418 -0.3258  0.4375
  446MOL0     C58756   5.618   9.846   4.424  0.7575  0.1283 -0.0490
  446MOL0     N58757   5.755   9.836   4.374  0.0999 -0.5826 -0.4577
  446MOL0     C58758   5.867   9.897   4.430 -0.2613  0.2924 -0.0437
  446MOL0     C58759   5.963   9.869   4.333 -0.1320 -0.0862 -0.6042
  446MOL0     C58760   6.101   9.932   4.330  0.1065  0.1832 -0.8289
  446MOL0     C58761   6.209   9.835   4.379  0.5854 -0.0538  0.1610
  446MOL0     C58762   6.203   9.815   4.533 -0.4152  0.3215 -0.2606
  446MOL0     C58763   6.343   9.801   4.594 -0.4118  0.4779 -1.1215
  446MOL0     O58764   6.401   9.680   4.554  0.3930  0.1740 -0.2354
  446MOL0     C58765   6.537   9.668   4.547  0.7846  0.3839  0.2277
  446MOL0     C58766   6.589   9.575   4.457  0.5023 -0.3461 -0.3408
  446MOL0     C58767   6.727   9.555   4.450 -0.7716 -0.0802 -0.7640
  446MOL0     C58768   6.821   9.626   4.530  0.4407 -0.4671  0.2561
  446MOL0     C58769   6.961   9.608   4.514 -0.7652 -0.4150  0.5424
  446MOL0     O58770   7.041   9.680   4.606  0.4958 -0.9202  0.6969
  446MOL0     C58771   7.176   9.641   4.612 -0.0950  0.3495  0.3360
  446MOL0     C58772   7.227   9.513   4.611 -0.1796 -1.1662  0.2489
  446MOL0     C58773   7.365   9.505   4.641  0.0904 -0.8466  0.5279
  446MOL0     C58774   7.453   9.622   4.647 -0.9495  0.9103  0.1582
  446MOL0     O58775   7.586   9.621   4.691 -0.4195  0.5142 -0.7088
  446MOL0     C58776   7.682   9.523   4.635  1.0102  0.3660 -0.7426
  446MOL0     C58777   7.825   9.545   4.674  0.4892  0.4453  1.2969
  446MOL0     C58778   7.906   9.427   4.608  0.5938 -0.1952 -0.2951
  446MOL0     C58779   8.052   9.423   4.667 -0.0917  0.4741  0.2422
  446MOL0     C58780   8.096   9.279   4.666  0.2425 -0.0993  0.0671
  446MOL0     C58781   8.233   9.262   4.730  0.0546 -0.1723 -0.5162
  446MOL0     C58782   8.350   9.336   4.668  0.6257  0.5587 -0.4666
  446MOL0     C58783   8.481   9.329   4.749 -0.6436 -0.5631 -0.6760
  446MOL0    Cl58784   8.463   9.454   4.878 -0.1770 -0.0201  0.0376
  446MOL0     C58785   7.399   9.745   4.643  0.2426  0.2610  0.4835
  446MOL0     C58786   7.261   9.753   4.612 -0.1384 -0.4461  1.2458
  446MOL0     O58787   7.009   9.538   4.423  0.2098  0.2707 -0.0112
  446MOL0     C58788   6.762   9.713   4.625 -0.6843  0.0498 -0.1802
  446MOL0     C58789   6.623   9.731   4.636  0.4833  0.0706  0.3692
  446MOL0     N58790   5.913   9.797   4.229 -0.0574 -0.8301  0.2826
  446MOL0     N58791   5.785   9.787   4.245 -0.6953  0.0350 -0.4258
  446MOL0     C58792   6.180  10.108   4.737  0.0300  0.1427  0.6090
  446MOL0     C58793   6.316  10.108   4.698 -0.3526  0.7349 -0.2646
  446MOL0     C58794   6.747  10.186   4.690 -0.1901  0.0818 -0.3057
  446MOL0     C58795   6.819  10.308   4.688 -0.2251 -0.2212  0.1468
  446MOL0     C58796   6.958  10.311   4.643 -0.8890 -0.9981  0.2272
  446MOL0     C58797   7.016  10.200   4.583  0.3590  0.3041 -0.1082
  446MOL0     O58798   7.146  10.196   4.524  0.1121 -0.4479 -0.9629
  446MOL0     C58799   7.229  10.313   4.550  0.4855 -0.2240 -0.0262
  446MOL0     C58800   7.361  10.275   4.471 -0.4267 -0.3549 -0.2347
  446MOL0     C58801   7.454  10.165   4.544  0.4548 -0.2236 -0.1760
  446MOL0     C58802   7.585  10.233   4.586  0.2462  0.2404 -0.6903
  446MOL0     C58803   7.666  10.137   4.661 -0.4488  1.2559 -0.5318
  446MOL0     C58804   7.723  10.037   4.703 -0.1770  0.1521 -0.3776
  446MOL0     C58805   6.937  10.075   4.581 -0.1599 -0.2610 -0.3148
  446MOL0     C58806   6.802  10.071   4.637 -0.1781 -0.4272 -0.5040
  446MOL0     H58807   6.446   9.942   4.952 -0.6174  0.9019  0.5557
  446MOL0     H58808   6.234   9.951   5.037 -1.0824 -1.6371  0.0213
  446MOL0     H58809   6.027  10.003   5.109  0.4523 -0.1450 -0.4244
  446MOL0     H58810   6.011   9.860   5.005  3.1552  1.8294 -0.0187
  446MOL0     H58811   5.821  10.062   5.115  1.5158 -0.2254  1.0773
  446MOL0     H58812   5.810   9.887   5.121 -0.9181  0.4266  1.2859
  446MOL0     H58813   5.765  10.036   4.861 -1.4989  0.2772 -0.1907
  446MOL0     H58814   5.637   9.981   4.967  1.2217 -0.8247  1.7973
  446MOL0     H58815   5.844   9.802   4.843  0.2745 -1.3605 -0.9634
  446MOL0     H58816   5.690   9.764   4.943 -2.9469  0.3370 -0.4511
  446MOL0     H58817   5.691   9.919   4.682 -1.0767  1.0464  1.9646
  446MOL0     H58818   5.549   9.835   4.742 -0.0839  0.5508 -0.8990
  446MOL0     H58819   5.663   9.614   4.696 -3.6667  0.9974  0.6926
  446MOL0     H58820   5.791   9.713   4.617  0.4802  2.8675  0.5766
  446MOL0     H58821   5.583   9.629   4.460 -2.7095 -0.4746  0.5658
  446MOL0     H58822   5.481   9.733   4.553  0.1551  0.1410 -0.9644
  446MOL0     H58823   5.594   9.938   4.479 -0.0359  0.6545 -1.2251
  446MOL0     H58824   5.557   9.844   4.333  1.1888  2.9880 -0.4942
  446MOL0     H58825   5.887   9.939   4.528  0.3311  1.7566 -0.7581
  446MOL0     H58826   6.112  10.016   4.399 -0.8059  0.6377 -1.2323
  446MOL0     H58827   6.119   9.970   4.229  0.4650  0.2547 -0.7421
  446MOL0     H58828   6.308   9.875   4.354  0.9631 -1.6161 -0.9773
  446MOL0     H58829   6.198   9.738   4.330  1.6350  1.6046 -3.7500
  446MOL0     H58830   6.166   9.907   4.580 -0.9185 -0.1710  0.3266
  446MOL0     H58831   6.136   9.733   4.559 -1.3835  0.6913 -1.4693
  446MOL0     H58832   6.331   9.811   4.702  0.1514  3.0247 -1.2275
  446MOL0     H58833   6.398   9.893   4.574 -1.1707  1.1163 -0.3719
  446MOL0     H58834   6.517   9.532   4.389 -0.0856 -0.5678  0.4164
  446MOL0     H58835   6.779   9.494   4.377  2.0893  0.7198  0.4513
  446MOL0     H58836   7.164   9.426   4.594  2.7200 -3.3879  0.0248
  446MOL0     H58837   7.397   9.401   4.646  0.2165 -0.7762  1.1835
  446MOL0     H58838   7.678   9.525   4.526  0.4305  3.4251 -0.7451
  446MOL0     H58839   7.645   9.422   4.656  1.7479 -0.0226 -1.2797
  446MOL0     H58840   7.831   9.536   4.783 -0.7790 -0.8452  1.3073
  446MOL0     H58841   7.860   9.643   4.643 -1.5256  0.7965 -0.0926
  446MOL0     H58842   7.914   9.431   4.499 -1.9715 -0.9365 -0.5737
  446MOL0     H58843   7.847   9.335   4.619  0.4092 -0.1777 -1.0795
  446MOL0     H58844   8.116   9.476   4.597 -0.1016 -1.8945 -1.6871
  446MOL0     H58845   8.061   9.457   4.771 -0.0952  0.2251  0.3257
  446MOL0     H58846   8.106   9.254   4.560  1.1912  1.9625 -0.3792
  446MOL0     H58847   8.016   9.225   4.718 -1.0271  1.1239 -0.5367
  446MOL0     H58848   8.258   9.156   4.728 -1.2948 -0.5155 -0.6145
  446MOL0     H58849   8.227   9.291   4.836  4.9606 -2.3993  0.6378
  446MOL0     H58850   8.377   9.307   4.566  2.4135  2.1099 -0.4850
  446MOL0     H58851   8.314   9.437   4.648 -1.8772 -0.3380 -0.8642
  446MOL0     H58852   8.566   9.364   4.689 -0.7462 -2.0553 -1.7260
  446MOL0     H58853   8.500   9.233   4.798 -1.6612 -0.5287 -0.1849
  446MOL0     H58854   7.444   9.841   4.667 -0.0079  0.2039  1.1990
  446MOL0     H58855   7.224   9.854   4.604 -0.9200 -0.6052  2.5722
  446MOL0     H58856   6.830   9.755   4.699 -2.0793 -0.3631  1.4033
  446MOL0     H58857   6.574   9.796   4.708 -1.9249  0.1159 -1.1951
  446MOL0     H58858   6.115  10.163   4.669  2.7066  2.8396  0.0223
  446MOL0     H58859   6.347  10.145   4.601  0.4149  1.9796  0.4336
  446MOL0     H58860   6.783  10.405   4.720  0.0924  0.1876 -0.7274
  446MOL0     H58861   7.017  10.402   4.648 -1.1093 -0.5135 -3.5243
  446MOL0     H58862   7.248  10.325   4.657 -0.4570  2.3929 -0.0629
  446MOL0     H58863   7.191  10.403   4.501 -0.0444 -1.2451 -1.5761
  446MOL0     H58864   7.336  10.237   4.371  2.0517 -1.7078 -0.4053
  446MOL0     H58865   7.420  10.365   4.453  1.6966 -1.3843  1.2064
  446MOL0     H58866   7.466  10.077   4.480 -1.1953  0.0443 -0.9082
  446MOL0     H58867   7.392  10.130   4.628 -3.0061 -0.2519 -2.5457
  446MOL0     H58868   7.629  10.267   4.492 -2.1344  2.3528 -1.1165
  446MOL0     H58869   7.563  10.312   4.658  0.2826 -1.0128  0.7561
  446MOL0     H58870   7.770   9.948   4.741  0.8589  0.0524 -1.8174
  446MOL0     H58871   6.989   9.990   4.538  3.1960 -0.1321  2.9450
  446MOL0     H58872   6.740   9.985   4.615 -0.0173 -0.4490 -0.8800
  447MOL0     O58873   0.665   2.984   7.240 -0.1891 -0.0269  0.5127
  447MOL0     C58874   0.714   3.091   7.264 -0.5492 -0.3670  0.4478
  447MOL0     O58875   0.648   3.194   7.323 -0.5405 -1.0653 -0.3839
  447MOL0     C58876   0.512   3.181   7.346  0.5441 -0.0582  0.0381
  447MOL0     C58877   0.433   3.274   7.281  0.6367 -0.4327 -0.8441
  447MOL0     C58878   0.298   3.272   7.302 -0.8031  0.1887  0.1759
  447MOL0     C58879   0.233   3.189   7.388  0.8654 -0.0152  0.0444
  447MOL0     O58880   0.092   3.187   7.384 -0.0200  0.1068 -0.4060
  447MOL0     C58881   0.032   3.239   7.503  0.5213  0.8524  0.1787
  447MOL0     C58882  -0.093   3.321   7.482 -0.4253 -0.5828  0.2643
  447MOL0     C58883  -0.215   3.269   7.402 -0.1633  0.3744 -0.0130
  447MOL0     C58884  -0.289   3.161   7.492  0.4945  0.4120 -0.2149
  447MOL0     C58885  -0.441   3.171   7.508  0.2414  0.4401  0.3340
  447MOL0     C58886  -0.513   3.129   7.374 -0.2974 -0.2560  1.0094
  447MOL0     C58887  -0.663   3.132   7.375  0.7497 -0.2123  0.8900
  447MOL0     C58888  -0.723   3.219   7.269  0.1611  0.2335 -0.0471
  447MOL0     N58889  -0.874   3.226   7.277  0.5186  0.8978  0.0775
  447MOL0     C58890  -0.953   3.256   7.393 -0.5477 -0.3133  0.5007
  447MOL0     C58891  -1.075   3.271   7.344 -0.0649 -0.2513  0.1677
  447MOL0     C58892  -1.203   3.285   7.426 -0.1336 -0.2428 -0.6700
  447MOL0     C58893  -1.296   3.399   7.379  0.9887 -0.1832  0.8475
  447MOL0     C58894  -1.402   3.439   7.482 -0.0521 -0.2838  0.4808
  447MOL0     C58895  -1.481   3.566   7.446 -0.3196  0.1699  0.6547
  447MOL0     O58896  -1.489   3.671   7.545 -0.3176  0.5617 -0.5085
  447MOL0     C58897  -1.555   3.653   7.663 -0.3319 -0.6555 -1.3601
  447MOL0     C58898  -1.544   3.749   7.766 -0.0338 -0.4901  0.1297
  447MOL0     C58899  -1.614   3.736   7.887  0.4096 -0.8112  0.4456
  447MOL0     C58900  -1.700   3.629   7.912  0.3279 -0.1262 -0.3548
  447MOL0     C58901  -1.769   3.617   8.046 -1.1390  0.7297 -0.0772
  447MOL0     O58902  -1.725   3.693   8.146  0.3714 -0.1929  0.4358
  447MOL0     C58903  -1.812   3.721   8.249 -0.3536 -0.1516  0.4067
  447MOL0     C58904  -1.852   3.614   8.330  0.0636  0.0038 -1.1661
  447MOL0     C58905  -1.947   3.632   8.434  0.1167 -0.8261  0.3873
  447MOL0     C58906  -2.001   3.759   8.458 -0.4315 -0.1587  0.1558
  447MOL0     O58907  -2.096   3.766   8.548  0.1900  0.0711 -0.8520
  447MOL0     C58908  -2.069   3.842   8.668  0.6830 -0.6663  0.1021
  447MOL0     C58909  -2.169   3.806   8.782 -0.6047  0.0435  0.6161
  447MOL0     C58910  -2.305   3.844   8.733  0.3546  0.4364 -0.2426
  447MOL0     C58911  -2.414   3.776   8.824 -0.4487 -0.5629 -0.4211
  447MOL0     C58912  -2.564   3.812   8.797  0.6605 -0.8282 -0.0825
  447MOL0     C58913  -2.659   3.712   8.866  0.1221 -0.4211  0.3646
  447MOL0     C58914  -2.793   3.779   8.887 -0.0735  0.6560 -0.2342
  447MOL0     C58915  -2.899   3.698   8.957  0.1217 -0.3526 -0.4224
  447MOL0    Cl58916  -2.938   3.571   8.834  0.2563  0.1683 -0.0466
  447MOL0     C58917  -1.964   3.863   8.374  0.1341 -0.3536  0.5558
  447MOL0     C58918  -1.864   3.847   8.279  0.1318 -0.1796 -0.2413
  447MOL0     O58919  -1.860   3.533   8.053  0.2461  0.1079 -0.7460
  447MOL0     C58920  -1.714   3.534   7.806  0.1716 -0.0905  0.1335
  447MOL0     C58921  -1.645   3.548   7.683  1.0558 -0.3851  0.4803
  447MOL0     N58922  -1.072   3.258   7.209 -0.1190  0.7536  0.0453
  447MOL0     N58923  -0.952   3.225   7.163  0.1064 -0.1807 -0.3902
  447MOL0     C58924   0.317   3.087   7.445  0.2196 -0.9704 -0.0087
  447MOL0     C58925   0.460   3.086   7.436 -0.3193 -0.5128 -1.3443
  447MOL0     C58926   0.860   3.118   7.232  0.3424 -0.0829  0.4351
  447MOL0     C58927   0.924   3.239   7.264 -0.2813  0.0122 -0.1686
  447MOL0     C58928   1.063   3.244   7.257  0.9128  0.0399 -0.3293
  447MOL0     C58929   1.139   3.136   7.197 -0.7851 -0.4469 -0.2050
  447MOL0     O58930   1.263   3.167   7.177 -0.7433  0.3762  0.3766
  447MOL0     C58931   1.303   3.202   7.046  0.2433 -0.5627 -0.5295
  447MOL0     C58932   1.454   3.206   7.025 -0.0743 -0.6365 -0.5105
  447MOL0     C58933   1.516   3.062   7.025  0.3870 -0.6677 -0.3446
  447MOL0     C58934   1.668   3.071   6.979  0.3230  0.5300  0.5462
  447MOL0     C58935   1.674   3.083   6.839 -0.5426 -0.4028  0.5852
  447MOL0     C58936   1.695   3.110   6.718  0.5533  0.9699  0.0520
  447MOL0     C58937   1.073   3.023   7.149  0.4625 -0.6295 -0.4245
  447MOL0     C58938   0.936   3.007   7.178 -0.5735 -0.3209  0.4641
  447MOL0     H58939   0.465   3.342   7.202 -3.7863  0.8190 -1.8612
  447MOL0     H58940   0.231   3.345   7.258 -0.7467 -0.7813 -1.6134
  447MOL0     H58941   0.097   3.300   7.566  1.6507  0.9951 -1.0881
  447MOL0     H58942  -0.003   3.157   7.567  1.4689  2.4002  2.8078
  447MOL0     H58943  -0.060   3.415   7.436 -0.5647  0.2510  1.7858
  447MOL0     H58944  -0.135   3.355   7.577 -1.6014 -4.6138  1.3811
  447MOL0     H58945  -0.178   3.227   7.308  0.5484  2.3135 -0.6409
  447MOL0     H58946  -0.283   3.349   7.372 -1.5214 -0.9819 -0.7386
  447MOL0     H58947  -0.249   3.062   7.468  1.1726  0.4126  0.8139
  447MOL0     H58948  -0.244   3.173   7.591  0.9922 -3.3758  0.1355
  447MOL0     H58949  -0.479   3.272   7.523 -3.5882 -0.7972  0.0190
  447MOL0     H58950  -0.472   3.110   7.593 -0.4028 -2.4255 -1.8246
  447MOL0     H58951  -0.484   3.026   7.351 -0.0258 -0.4075  1.9732
  447MOL0     H58952  -0.473   3.189   7.292  0.2872 -0.8780  0.8330
  447MOL0     H58953  -0.697   3.030   7.351  0.3253 -0.7610  3.5746
  447MOL0     H58954  -0.692   3.168   7.474  0.4075  2.4403 -0.1003
  447MOL0     H58955  -0.692   3.166   7.179 -0.5010 -1.2555  0.5619
  447MOL0     H58956  -0.677   3.318   7.263  1.1708 -0.2890 -1.4659
  447MOL0     H58957  -0.934   3.256   7.500  3.0476  0.2432 -0.0061
  447MOL0     H58958  -1.176   3.309   7.529  2.2986 -1.1023 -1.0631
  447MOL0     H58959  -1.249   3.186   7.434  0.7131 -0.7411 -1.7753
  447MOL0     H58960  -1.357   3.357   7.299 -0.9926  0.5328  1.9259
  447MOL0     H58961  -1.234   3.485   7.353 -0.0773  0.6122  0.9146
  447MOL0     H58962  -1.477   3.362   7.500 -0.2473  0.0089  0.9438
  447MOL0     H58963  -1.356   3.466   7.577  3.5253  1.6211 -1.5994
  447MOL0     H58964  -1.581   3.543   7.408  0.1473 -1.1928  0.1705
  447MOL0     H58965  -1.426   3.611   7.363 -1.5955  2.7684  1.1261
  447MOL0     H58966  -1.481   3.836   7.749 -3.1350  2.3079  1.6998
  447MOL0     H58967  -1.606   3.810   7.966  1.4511 -0.9635  0.5020
  447MOL0     H58968  -1.818   3.511   8.320 -0.9398 -0.6256  1.1752
  447MOL0     H58969  -1.993   3.550   8.489  0.0884  0.7096  2.8222
  447MOL0     H58970  -2.084   3.948   8.643 -0.6582 -1.3354 -2.2309
  447MOL0     H58971  -1.965   3.824   8.696  0.2629 -2.1992  0.7306
  447MOL0     H58972  -2.129   3.852   8.873 -0.7973 -2.5704  2.1307
  447MOL0     H58973  -2.163   3.697   8.782 -0.7761  0.0223 -0.6196
  447MOL0     H58974  -2.333   3.805   8.635 -4.2749 -0.5267  1.2059
  447MOL0     H58975  -2.317   3.952   8.733  2.1584  0.6684 -0.0632
  447MOL0     H58976  -2.415   3.667   8.812 -0.4772 -0.4456 -1.5683
  447MOL0     H58977  -2.401   3.789   8.932  0.6381 -1.3838 -0.4391
  447MOL0     H58978  -2.572   3.801   8.688 -0.6192 -3.5674  0.1936
  447MOL0     H58979  -2.584   3.916   8.822  0.7796 -0.5386 -1.1602
  447MOL0     H58980  -2.617   3.672   8.959  1.6434  0.5586  0.1359
  447MOL0     H58981  -2.671   3.624   8.803  0.7467 -0.7685  0.7186
  447MOL0     H58982  -2.780   3.870   8.947 -2.5521  1.6186 -1.0124
  447MOL0     H58983  -2.832   3.802   8.788 -2.1264  2.7418  0.9491
  447MOL0     H58984  -2.991   3.750   8.987  1.8305  1.4854  1.9932
  447MOL0     H58985  -2.861   3.637   9.039 -2.1167  2.5647  3.1298
  447MOL0     H58986  -2.008   3.959   8.399 -0.9609 -0.2873 -1.3443
  447MOL0     H58987  -1.846   3.935   8.218  0.5115  0.4070  0.6881
  447MOL0     H58988  -1.785   3.453   7.822 -0.1773 -0.5555 -3.0331
  447MOL0     H58989  -1.663   3.478   7.602 -2.5068  0.1617  0.6463
  447MOL0     H58990   0.266   3.012   7.505 -0.6221 -2.2389 -2.1967
  447MOL0     H58991   0.516   3.014   7.496 -0.6183  0.6016  0.3393
  447MOL0     H58992   0.888   3.313   7.334 -1.8326  0.2653 -1.1710
  447MOL0     H58993   1.114   3.326   7.306  0.2913  1.5871 -2.1404
  447MOL0     H58994   1.264   3.300   7.014 -0.2543 -0.8719 -0.8938
  447MOL0     H58995   1.267   3.121   6.982  0.5940 -0.6873 -0.5673
  447MOL0     H58996   1.470   3.260   6.931 -3.8050  1.0018 -0.3677
  447MOL0     H58997   1.504   3.272   7.097 -2.2273  1.6927 -1.0125
  447MOL0     H58998   1.448   3.000   6.965 -2.2938  0.5447  1.2811
  447MOL0     H58999   1.516   3.015   7.123  0.3223  1.1004  0.5443
  447MOL0     H59000   1.721   3.148   7.034  3.8027  0.7162 -2.6625
  447MOL0     H59001   1.723   2.977   6.991  0.4176  0.1651 -2.0661
  447MOL0     H59002   1.715   3.103   6.613 -0.0150 -4.8324 -0.0153
  447MOL0     H59003   1.115   2.940   7.093 -0.1586  0.5959 -2.8733
  447MOL0     H59004   0.878   2.917   7.158  2.5063 -2.0233 -1.6123
  448MOL0     O59005   8.767  10.173   8.601 -1.0374  0.0261 -0.1552
  448MOL0     C59006   8.695  10.109   8.678  0.9143  0.4028  0.0222
  448MOL0     O59007   8.557  10.112   8.683 -0.2954  0.0440  0.0239
  448MOL0     C59008   8.507  10.204   8.601  1.1458 -0.0390 -0.4191
  448MOL0     C59009   8.448  10.170   8.484 -0.1995  0.0560  0.1652
  448MOL0     C59010   8.415  10.259   8.385  0.0111  0.0669 -0.7635
  448MOL0     C59011   8.422  10.403   8.417 -0.1525 -0.0036  1.1721
  448MOL0     O59012   8.399  10.496   8.318  0.3440  0.3023 -0.1970
  448MOL0     C59013   8.284  10.470   8.239 -0.3763  0.5839 -0.0781
  448MOL0     C59014   8.149  10.480   8.314 -0.4035  0.3403  0.2072
  448MOL0     C59015   8.138  10.622   8.382 -0.0400  0.3548  0.2925
  448MOL0     C59016   8.009  10.628   8.462 -0.1959 -0.0447 -0.4796
  448MOL0     C59017   7.990  10.778   8.492 -0.7204 -1.1838 -0.1153
  448MOL0     C59018   7.843  10.804   8.519  0.7554 -0.3687  0.1526
  448MOL0     C59019   7.822  10.953   8.561  0.8086 -0.4686 -0.4061
  448MOL0     C59020   7.664  10.973   8.582 -0.5278  1.0253 -0.4193
  448MOL0     N59021   7.607  10.992   8.443 -0.5203 -0.1552 -0.8024
  448MOL0     C59022   7.615  11.105   8.365 -0.9048  0.9051 -0.5058
  448MOL0     C59023   7.556  11.072   8.246 -0.5298  0.5930  0.9601
  448MOL0     C59024   7.526  11.159   8.134  0.4170  0.1410 -0.6600
  448MOL0     C59025   7.379  11.209   8.139 -0.9977  0.7822 -0.0408
  448MOL0     C59026   7.350  11.324   8.038 -0.2422  0.0089 -0.5074
  448MOL0     C59027   7.200  11.366   8.060 -0.1271  0.7968  0.2720
  448MOL0     O59028   7.183  11.494   7.984  0.5127  0.1218 -0.2601
  448MOL0     C59029   7.060  11.533   7.937  0.8538  0.4297 -0.3025
  448MOL0     C59030   7.052  11.651   7.862 -0.3709 -0.0472  0.8481
  448MOL0     C59031   6.933  11.693   7.803  0.0480  0.1380 -0.3447
  448MOL0     C59032   6.813  11.622   7.837 -0.3221 -0.8918 -0.0652
  448MOL0     C59033   6.685  11.661   7.770 -1.0898  0.6782  0.2528
  448MOL0     O59034   6.575  11.577   7.791 -0.3620  0.6010  0.1005
  448MOL0     C59035   6.462  11.610   7.730  1.0172 -0.8952 -0.1784
  448MOL0     C59036   6.400  11.731   7.750  0.5480  0.5877 -0.4709
  448MOL0     C59037   6.271  11.754   7.693 -0.3869 -0.1680 -0.1432
  448MOL0     C59038   6.207  11.652   7.621  0.4083  0.4636  0.7563
  448MOL0     O59039   6.072  11.649   7.594  0.3708 -1.2882  0.4510
  448MOL0     C59040   5.994  11.593   7.697 -0.4830  0.0413  0.4634
  448MOL0     C59041   5.878  11.529   7.624 -0.3332  0.2362 -0.0346
  448MOL0     C59042   5.765  11.482   7.720  0.5005  0.2994 -0.0136
  448MOL0     C59043   5.631  11.478   7.645 -0.7458 -0.4952  0.0171
  448MOL0     C59044   5.547  11.363   7.705 -0.2404 -0.1061 -0.5372
  448MOL0     C59045   5.420  11.354   7.627 -0.0055  0.1237 -0.2362
  448MOL0     C59046   5.317  11.265   7.696 -0.8593  0.4260  0.3786
  448MOL0     C59047   5.336  11.110   7.689  0.3298 -0.5112  0.4408
  448MOL0    Cl59048   5.224  11.025   7.786 -0.0137  0.1460 -0.1380
  448MOL0     C59049   6.272  11.529   7.608 -0.0396 -0.6120  0.3749
  448MOL0     C59050   6.401  11.510   7.654 -0.0148 -0.0070  0.2286
  448MOL0     O59051   6.690  11.761   7.694  0.0449 -0.2826  0.4803
  448MOL0     C59052   6.826  11.498   7.911  0.9755  0.2679 -0.4884
  448MOL0     C59053   6.945  11.462   7.963 -0.1935  0.8568  0.2380
  448MOL0     N59054   7.507  10.940   8.254 -0.1615 -0.3646  0.2664
  448MOL0     N59055   7.537  10.898   8.376  0.3622  0.8783 -0.1382
  448MOL0     C59056   8.471  10.442   8.540 -0.3123 -0.4625 -0.0781
  448MOL0     C59057   8.515  10.345   8.628  0.8772  0.5359 -0.1316
  448MOL0     C59058   8.780  10.017   8.758  0.5520 -0.2324  0.0927
  448MOL0     C59059   8.711   9.924   8.845 -0.3796  0.2769 -0.3364
  448MOL0     C59060   8.785   9.833   8.918 -0.3481  0.2884 -0.3884
  448MOL0     C59061   8.922   9.823   8.897 -0.3909 -0.6411 -0.1431
  448MOL0     O59062   8.995   9.736   8.979  0.1101 -0.0233  0.1476
  448MOL0     C59063   8.937   9.620   9.038 -0.6528  0.0951 -0.2039
  448MOL0     C59064   8.995   9.502   8.955 -0.8906  0.4755 -0.1329
  448MOL0     C59065   8.903   9.457   8.839 -0.0469 -0.3744 -0.4601
  448MOL0     C59066   8.960   9.332   8.775  0.4198  0.5677 -0.8246
  448MOL0     C59067   8.892   9.304   8.649  0.3921 -0.1727  0.5231
  448MOL0     C59068   8.845   9.294   8.533  0.3351 -0.3791 -0.1968
  448MOL0     C59069   8.987   9.914   8.820  0.2216 -0.6703 -0.0756
  448MOL0     C59070   8.917  10.015   8.757 -0.4263 -0.7556  0.6479
  448MOL0     H59071   8.430  10.065   8.464 -1.6278  0.4136 -0.5630
  448MOL0     H59072   8.373  10.215   8.295  1.5501 -2.2504 -0.4227
  448MOL0     H59073   8.300  10.373   8.192  2.2178 -0.8887  3.3968
  448MOL0     H59074   8.289  10.549   8.164  1.1417  0.8806  0.2930
  448MOL0     H59075   8.158  10.417   8.402  0.5144  3.5784  2.6158
  448MOL0     H59076   8.065  10.455   8.248 -0.2760  1.3936 -0.3688
  448MOL0     H59077   8.121  10.691   8.299  1.4186 -1.5220 -1.6831
  448MOL0     H59078   8.225  10.643   8.445  0.7148 -1.8326  0.0665
  448MOL0     H59079   7.926  10.589   8.403 -0.1591  0.7024 -1.0442
  448MOL0     H59080   8.029  10.561   8.546  2.3083 -2.0125 -2.4748
  448MOL0     H59081   8.020  10.847   8.412 -0.3201 -0.3799  0.7019
  448MOL0     H59082   8.061  10.807   8.570 -0.4489 -1.2466 -0.3378
  448MOL0     H59083   7.820  10.738   8.603  0.8290 -0.0498  0.4213
  448MOL0     H59084   7.771  10.784   8.439 -1.3287  1.0568  1.5760
  448MOL0     H59085   7.875  10.970   8.655  3.6376  3.1458 -2.4052
  448MOL0     H59086   7.862  11.017   8.482 -1.5258 -1.1304 -2.2677
  448MOL0     H59087   7.629  11.046   8.654 -1.2355  1.0187 -0.7475
  448MOL0     H59088   7.627  10.883   8.633  3.0506  0.4152  1.4715
  448MOL0     H59089   7.658  11.198   8.399  2.5468 -0.8755  0.5168
  448MOL0     H59090   7.565  11.113   8.043 -0.8353  1.2148 -1.7784
  448MOL0     H59091   7.581  11.253   8.144 -1.8400  1.5972 -1.1367
  448MOL0     H59092   7.347  11.253   8.233 -1.1219 -0.1464  0.3684
  448MOL0     H59093   7.305  11.131   8.115 -2.1305  1.9045 -0.2975
  448MOL0     H59094   7.410  11.414   8.053 -1.6208  0.9491 -0.4065
  448MOL0     H59095   7.374  11.289   7.937  2.2365 -0.7170  0.2651
  448MOL0     H59096   7.162  11.381   8.161 -0.1780  0.5688  0.2879
  448MOL0     H59097   7.146  11.281   8.017 -0.1647 -0.1640  2.1120
  448MOL0     H59098   7.136  11.717   7.839 -1.4732  0.9000 -0.6473
  448MOL0     H59099   6.929  11.775   7.731  1.4637  0.4198 -0.1295
  448MOL0     H59100   6.450  11.802   7.815  0.7447 -2.4839  3.0913
  448MOL0     H59101   6.222  11.850   7.694 -0.7313 -0.2649 -2.2858
  448MOL0     H59102   5.957  11.668   7.768 -0.9083 -0.0276  0.3190
  448MOL0     H59103   6.041  11.510   7.751  1.6326  0.2462 -0.9516
  448MOL0     H59104   5.918  11.437   7.580  1.9423 -1.3204  4.6021
  448MOL0     H59105   5.838  11.596   7.547  0.9430  0.4593 -0.5417
  448MOL0     H59106   5.750  11.549   7.805 -3.6554 -3.9514  3.0420
  448MOL0     H59107   5.788  11.383   7.760 -0.3720  0.7913  1.7576
  448MOL0     H59108   5.573  11.571   7.647 -2.6883 -1.6436  0.2390
  448MOL0     H59109   5.642  11.447   7.541  0.6018 -0.8191  0.2414
  448MOL0     H59110   5.537  11.395   7.810 -1.8331  3.5039 -1.6353
  448MOL0     H59111   5.594  11.265   7.694 -0.5296 -0.5474  1.6142
  448MOL0     H59112   5.431  11.311   7.527 -3.2442  0.1323 -0.7100
  448MOL0     H59113   5.381  11.455   7.614 -0.1457  0.1863  0.6307
  448MOL0     H59114   5.309  11.299   7.800 -0.5934 -0.2265  0.6196
  448MOL0     H59115   5.225  11.295   7.646 -1.1972  2.6585  2.1722
  448MOL0     H59116   5.439  11.078   7.709  0.2131 -0.3422  1.3635
  448MOL0     H59117   5.304  11.090   7.586 -0.3486  1.0707  0.3124
  448MOL0     H59118   6.213  11.456   7.553 -0.6992 -0.6215  1.0760
  448MOL0     H59119   6.456  11.418   7.640 -2.4156 -1.2920 -1.4971
  448MOL0     H59120   6.746  11.426   7.928  1.6840 -0.6654 -1.0180
  448MOL0     H59121   6.956  11.368   8.016  0.2992  1.7146  1.7004
  448MOL0     H59122   8.489  10.544   8.570  0.9554 -0.1904 -1.6009
  448MOL0     H59123   8.564  10.376   8.720 -1.1024 -1.6618  1.7654
  448MOL0     H59124   8.604   9.926   8.858 -0.4563 -1.6204 -0.4312
  448MOL0     H59125   8.739   9.754   8.977  0.1379 -0.7446 -1.3721
  448MOL0     H59126   8.829   9.601   9.044 -0.6240 -0.4449 -1.1831
  448MOL0     H59127   8.968   9.623   9.143 -3.6938 -1.2031  0.8614
  448MOL0     H59128   9.092   9.537   8.920 -1.1160  1.0461 -0.2095
  448MOL0     H59129   9.017   9.426   9.030  1.1243  1.8109  0.7138
  448MOL0     H59130   8.896   9.539   8.768  0.9409 -1.0714 -1.4077
  448MOL0     H59131   8.800   9.447   8.875 -0.5512 -2.0291 -2.2271
  448MOL0     H59132   9.064   9.352   8.748  1.9550 -3.5962  1.0958
  448MOL0     H59133   8.942   9.253   8.849 -2.4418  0.5270 -1.4378
  448MOL0     H59134   8.787   9.288   8.443 -1.1761  0.6565  0.6609
  448MOL0     H59135   9.096   9.908   8.814  0.4206 -1.7989  3.0476
  448MOL0     H59136   8.972  10.078   8.687  0.8073 -0.9324  1.4291
  449MOL0     O59137   1.672   2.309   6.929  0.2497 -0.1677 -0.8466
  449MOL0     C59138   1.631   2.199   6.911  0.2302 -0.4268 -0.6363
  449MOL0     O59139   1.504   2.176   6.854  0.4015  0.3573 -1.0210
  449MOL0     C59140   1.410   2.137   6.953  0.4541 -0.6138  1.2893
  449MOL0     C59141   1.360   2.222   7.058  0.7670  0.6002 -0.1656
  449MOL0     C59142   1.257   2.176   7.141 -0.3785  0.6171 -0.4739
  449MOL0     C59143   1.202   2.042   7.125 -0.2453  0.7727 -0.3515
  449MOL0     O59144   1.094   2.009   7.205 -0.1452  0.5397  0.2672
  449MOL0     C59145   1.032   1.877   7.193  0.4231  0.3158 -0.6309
  449MOL0     C59146   0.883   1.889   7.220  0.0298 -0.4746  0.2806
  449MOL0     C59147   0.802   1.759   7.200 -0.2150 -0.1767 -0.1010
  449MOL0     C59148   0.650   1.786   7.227 -0.4289 -0.1361 -0.9106
  449MOL0     C59149   0.570   1.874   7.125  0.6354  0.1709  0.3372
  449MOL0     C59150   0.421   1.846   7.157 -0.2270  0.7121 -0.4307
  449MOL0     C59151   0.319   1.921   7.070 -0.3961  0.0545 -0.7831
  449MOL0     C59152   0.338   2.073   7.079 -0.2614 -0.1385 -1.1987
  449MOL0     N59153   0.262   2.165   6.998  0.1953 -0.1259  0.0325
  449MOL0     C59154   0.143   2.147   6.933 -0.0318  1.6164 -0.1365
  449MOL0     C59155   0.109   2.260   6.870  0.6249 -0.8065 -0.0332
  449MOL0     C59156  -0.020   2.285   6.789 -0.7074  0.0998 -0.2393
  449MOL0     C59157  -0.130   2.187   6.768 -0.6213  0.5278  0.1225
  449MOL0     C59158  -0.240   2.255   6.690  0.1003 -0.6209 -0.1000
  449MOL0     C59159  -0.346   2.144   6.669 -0.2768  0.2250 -0.4569
  449MOL0     O59160  -0.407   2.113   6.792  0.3755  0.5577 -0.6802
  449MOL0     C59161  -0.503   2.019   6.786  0.0504  0.1760  0.0941
  449MOL0     C59162  -0.531   1.931   6.674 -0.3738  0.3048 -0.6443
  449MOL0     C59163  -0.647   1.852   6.666 -0.1102 -0.1137 -0.3519
  449MOL0     C59164  -0.740   1.858   6.775 -1.7072  0.7560 -0.5111
  449MOL0     C59165  -0.860   1.780   6.782 -0.5853  0.0923  0.3025
  449MOL0     O59166  -0.946   1.795   6.887  0.5168  0.4977  0.0111
  449MOL0     C59167  -1.077   1.750   6.893 -0.7823  0.1126  0.0116
  449MOL0     C59168  -1.128   1.636   6.829 -0.5108 -0.0319  0.1491
  449MOL0     C59169  -1.268   1.607   6.830 -0.6072  0.3661  0.3536
  449MOL0     C59170  -1.356   1.684   6.909  0.5255  0.1941  0.0899
  449MOL0     O59171  -1.493   1.654   6.924  0.9348  0.1474  0.4175
  449MOL0     C59172  -1.549   1.524   6.879 -0.2376 -0.0041  0.2930
  449MOL0     C59173  -1.570   1.532   6.732  0.4334  0.3224  0.1987
  449MOL0     C59174  -1.721   1.498   6.708 -0.7052 -0.0062  0.6080
  449MOL0     C59175  -1.814   1.611   6.752 -0.4634  0.7967 -0.3506
  449MOL0     C59176  -1.949   1.582   6.699  0.1622 -0.7931  0.2512
  449MOL0     C59177  -2.052   1.655   6.778 -1.3884 -0.2053 -0.6224
  449MOL0     C59178  -2.175   1.689   6.695 -0.0028  0.3287  0.0357
  449MOL0     C59179  -2.172   1.817   6.612 -0.8172 -0.1059 -1.2080
  449MOL0    Cl59180  -2.328   1.864   6.541 -0.3058 -0.7719 -0.0331
  449MOL0     C59181  -1.301   1.784   6.987  0.0778 -0.1474  0.1290
  449MOL0     C59182  -1.166   1.826   6.975 -0.0983  0.4048 -0.1845
  449MOL0     O59183  -0.881   1.713   6.684  0.1834 -0.0888  1.0746
  449MOL0     C59184  -0.704   1.937   6.886 -0.9218  0.8469  0.0922
  449MOL0     C59185  -0.590   2.015   6.887 -0.4127 -0.4470 -0.7720
  449MOL0     N59186   0.202   2.354   6.906 -0.0389 -0.7906  0.4738
  449MOL0     N59187   0.300   2.293   6.970  0.3458  0.1034  0.3615
  449MOL0     C59188   1.257   1.961   7.017 -0.3494 -0.6700 -0.2520
  449MOL0     C59189   1.355   2.010   6.935 -0.2631  0.4018  0.4394
  449MOL0     C59190   1.729   2.095   6.943  0.5687 -0.2895  0.3810
  449MOL0     C59191   1.830   2.119   7.040 -0.3141 -0.1927 -0.4390
  449MOL0     C59192   1.911   2.011   7.080 -0.1228 -0.2050  0.1207
  449MOL0     C59193   1.889   1.881   7.030 -0.0546 -0.2275  0.3889
  449MOL0     O59194   1.967   1.774   7.055  0.8890  0.1417  0.6532
  449MOL0     C59195   2.006   1.735   7.184  0.1551 -0.2315  0.1590
  449MOL0     C59196   1.902   1.737   7.293  0.4435  0.4392  0.7029
  449MOL0     C59197   1.967   1.721   7.435 -0.7884 -0.8822 -0.4940
  449MOL0     C59198   2.007   1.855   7.493  0.6018 -0.2620  0.2159
  449MOL0     C59199   1.882   1.930   7.523 -1.2217  0.3510  1.2861
  449MOL0     C59200   1.788   1.998   7.544 -0.1734 -0.0987 -0.0418
  449MOL0     C59201   1.787   1.861   6.945 -0.0250 -0.8117 -0.5509
  449MOL0     C59202   1.709   1.965   6.897  0.0712 -0.3138  0.7800
  449MOL0     H59203   1.396   2.322   7.080 -2.4620  1.1098  4.1144
  449MOL0     H59204   1.215   2.252   7.206 -1.7321  0.3555 -1.0188
  449MOL0     H59205   1.083   1.806   7.259 -1.5039 -0.4306  0.1234
  449MOL0     H59206   1.048   1.830   7.095 -2.9453 -2.4148 -0.0811
  449MOL0     H59207   0.841   1.966   7.155 -1.8230 -1.9812 -0.3843
  449MOL0     H59208   0.882   1.913   7.327  1.7121 -2.7809  0.8874
  449MOL0     H59209   0.850   1.689   7.270 -0.3957  0.8295  1.0573
  449MOL0     H59210   0.813   1.722   7.098  0.3763  1.1606 -0.5402
  449MOL0     H59211   0.599   1.689   7.217 -2.0144  0.7056 -1.3606
  449MOL0     H59212   0.639   1.822   7.329  5.0042 -0.1354 -0.0457
  449MOL0     H59213   0.594   1.833   7.026  0.4892  0.2522  0.2674
  449MOL0     H59214   0.590   1.981   7.140  1.1796  0.1632 -0.3141
  449MOL0     H59215   0.387   1.864   7.259 -1.4945  0.4114 -0.7772
  449MOL0     H59216   0.411   1.738   7.138  0.6436  1.0716 -3.4486
  449MOL0     H59217   0.337   1.884   6.969  0.3168  3.7476 -2.1694
  449MOL0     H59218   0.220   1.897   7.110  0.2785  1.1583  1.8172
  449MOL0     H59219   0.444   2.099   7.065 -0.1679 -0.3241 -0.8412
  449MOL0     H59220   0.328   2.103   7.184  1.2471 -0.2773 -0.9835
  449MOL0     H59221   0.078   2.061   6.941  1.3048  0.5372 -0.4438
  449MOL0     H59222   0.017   2.317   6.691  2.7429 -2.2972  0.1140
  449MOL0     H59223  -0.065   2.374   6.835  0.1721  0.3760  0.1090
  449MOL0     H59224  -0.169   2.150   6.864 -1.5316  0.8339 -0.1113
  449MOL0     H59225  -0.093   2.107   6.704  0.8088  0.8587  0.5155
  449MOL0     H59226  -0.276   2.338   6.752  1.6974 -1.6580  2.3577
  449MOL0     H59227  -0.203   2.288   6.593 -0.4912 -2.8895 -1.1548
  449MOL0     H59228  -0.299   2.058   6.621 -0.9516 -0.8626  0.7721
  449MOL0     H59229  -0.417   2.181   6.594 -2.0154 -1.8114  0.0934
  449MOL0     H59230  -0.465   1.919   6.589 -0.0549  0.9704 -0.4978
  449MOL0     H59231  -0.658   1.774   6.591  2.3179 -1.1005  0.2382
  449MOL0     H59232  -1.049   1.579   6.780  0.8538  1.3195  0.7155
  449MOL0     H59233  -1.309   1.523   6.774 -0.4731 -0.3611  1.3272
  449MOL0     H59234  -1.640   1.514   6.939 -0.7781 -1.6025 -0.7363
  449MOL0     H59235  -1.477   1.445   6.903 -0.0552  0.6340  1.9848
  449MOL0     H59236  -1.509   1.456   6.683 -1.1533 -1.5585  1.0219
  449MOL0     H59237  -1.523   1.621   6.689  3.8805 -1.3082  0.2132
  449MOL0     H59238  -1.748   1.408   6.763 -0.2254 -1.0816 -0.8494
  449MOL0     H59239  -1.740   1.473   6.604  3.1374 -1.7022  0.1245
  449MOL0     H59240  -1.831   1.610   6.860 -2.5498 -3.3826 -0.5460
  449MOL0     H59241  -1.768   1.705   6.718  0.8486  0.0628 -0.6981
  449MOL0     H59242  -1.965   1.473   6.702  0.6414 -0.8472  0.9072
  449MOL0     H59243  -1.954   1.609   6.593 -2.4762 -4.4189 -0.7832
  449MOL0     H59244  -2.000   1.749   6.802 -1.3056  0.0227 -1.6654
  449MOL0     H59245  -2.089   1.603   6.867 -1.1220 -0.7391 -0.8187
  449MOL0     H59246  -2.196   1.607   6.626  2.1412  0.3994 -0.7489
  449MOL0     H59247  -2.259   1.686   6.765 -0.4956 -2.3094 -0.5243
  449MOL0     H59248  -2.097   1.806   6.533 -0.2711 -0.3313 -0.6660
  449MOL0     H59249  -2.147   1.900   6.678 -1.1354 -0.7521 -0.2489
  449MOL0     H59250  -1.366   1.824   7.064 -0.6321 -0.7309 -0.1643
  449MOL0     H59251  -1.128   1.885   7.058  1.7627 -2.2228  0.9696
  449MOL0     H59252  -0.777   1.933   6.966 -0.6660  0.7080  0.3212
  449MOL0     H59253  -0.556   2.075   6.971  3.4377 -0.0436 -2.4090
  449MOL0     H59254   1.238   1.859   6.985  1.5044 -1.3408  0.6157
  449MOL0     H59255   1.382   1.942   6.854 -5.1590 -2.8421  1.0744
  449MOL0     H59256   1.847   2.215   7.088 -1.3237 -1.4222  2.6804
  449MOL0     H59257   1.985   2.036   7.155  0.9142  2.8687 -1.7079
  449MOL0     H59258   2.095   1.792   7.214 -1.3497  1.7718  0.9833
  449MOL0     H59259   2.058   1.638   7.181 -1.3314 -1.0857  1.0483
  449MOL0     H59260   1.845   1.831   7.293 -0.1517  0.1283  2.6093
  449MOL0     H59261   1.833   1.652   7.287 -0.7201  1.4489 -2.3461
  449MOL0     H59262   2.058   1.661   7.421 -1.8745 -2.8637  0.5775
  449MOL0     H59263   1.896   1.672   7.501 -2.7226  2.4744  0.1535
  449MOL0     H59264   2.067   1.829   7.581 -2.5247 -0.3900  2.4442
  449MOL0     H59265   2.070   1.914   7.426  1.8894 -1.5026  0.2755
  449MOL0     H59266   1.705   2.061   7.564 -0.5107  0.0472 -1.7451
  449MOL0     H59267   1.775   1.758   6.915 -1.8503 -0.4563 -1.1659
  449MOL0     H59268   1.633   1.942   6.822  1.5193 -2.5112 -0.1229
  450MOL0     O59269   7.994   0.140   9.068  0.0871 -0.2969  0.0634
  450MOL0     C59270   8.004   0.145   9.194  0.2175  0.7380  0.3834
  450MOL0     O59271   8.112   0.111   9.268 -0.7848  0.2245  0.2697
  450MOL0     C59272   8.218   0.054   9.201 -0.1014 -0.1825  0.7005
  450MOL0     C59273   8.230  -0.083   9.207  0.0945 -0.5392 -1.2191
  450MOL0     C59274   8.346  -0.147   9.165 -0.3569 -0.3475 -0.3120
  450MOL0     C59275   8.450  -0.075   9.096  0.2331  0.1267  0.5560
  450MOL0     O59276   8.565  -0.128   9.042 -0.3318 -0.7664 -0.4807
  450MOL0     C59277   8.579  -0.273   9.053  1.0016 -0.2005 -1.0130
  450MOL0     C59278   8.681  -0.330   8.958 -0.1569  0.1393 -0.7216
  450MOL0     C59279   8.693  -0.476   8.988 -0.7546 -0.0699 -0.1951
  450MOL0     C59280   8.754  -0.550   8.872  0.6191  0.0306  0.1002
  450MOL0     C59281   8.803  -0.686   8.903  0.2299  0.1952  0.2668
  450MOL0     C59282   8.711  -0.772   8.987 -0.3090 -0.8167  0.6942
  450MOL0     C59283   8.760  -0.920   9.000 -0.0376  0.3547 -0.0629
  450MOL0     C59284   8.643  -1.020   9.047  0.8038 -0.4868  0.7328
  450MOL0     N59285   8.575  -0.952   9.152 -0.4942 -0.1685 -1.1948
  450MOL0     C59286   8.453  -0.883   9.146  0.3408 -0.7927  0.6029
  450MOL0     C59287   8.420  -0.860   9.278  0.9305  0.4771 -0.0510
  450MOL0     C59288   8.293  -0.785   9.334 -0.5512 -0.4287 -0.3806
  450MOL0     C59289   8.228  -0.689   9.237 -0.0140  0.6628  0.3195
  450MOL0     C59290   8.099  -0.638   9.300 -0.4096 -0.5339 -0.4509
  450MOL0     C59291   8.033  -0.530   9.221  0.2127 -0.7545 -0.2524
  450MOL0     O59292   7.950  -0.451   9.314 -0.2555  0.4123  0.1006
  450MOL0     C59293   7.813  -0.485   9.329 -0.3681  0.4304 -0.3886
  450MOL0     C59294   7.740  -0.588   9.260 -0.3887 -0.8954  0.1837
  450MOL0     C59295   7.602  -0.598   9.281 -0.4577 -1.0586 -0.2024
  450MOL0     C59296   7.528  -0.508   9.359 -0.1929 -0.6249  0.1282
  450MOL0     C59297   7.381  -0.534   9.360  1.1267  0.0772  0.7899
  450MOL0     O59298   7.315  -0.593   9.248 -0.4130 -0.0251 -0.7980
  450MOL0     C59299   7.182  -0.605   9.232  1.5408  0.4432  0.2879
  450MOL0     C59300   7.076  -0.554   9.311 -0.6948  0.9749 -0.5152
  450MOL0     C59301   6.947  -0.541   9.263  0.6597  0.3537 -0.6157
  450MOL0     C59302   6.908  -0.578   9.137 -0.2451 -0.0220 -0.6521
  450MOL0     O59303   6.768  -0.563   9.108 -0.0353  0.1938  0.5257
  450MOL0     C59304   6.696  -0.446   9.171  0.1841 -0.5125  0.5587
  450MOL0     C59305   6.558  -0.446   9.128  0.4053  0.4309 -0.6823
  450MOL0     C59306   6.461  -0.351   9.198 -0.1552  0.2159 -0.4061
  450MOL0     C59307   6.317  -0.363   9.140 -0.8839 -0.0623  0.0041
  450MOL0     C59308   6.224  -0.291   9.229 -0.3694 -0.2791 -0.7118
  450MOL0     C59309   6.079  -0.341   9.211  0.2994 -0.1094 -0.2454
  450MOL0     C59310   5.979  -0.258   9.287 -0.7567  0.1100 -1.0986
  450MOL0     C59311   6.001  -0.279   9.437  0.4578 -0.0498 -0.3072
  450MOL0    Cl59312   5.852  -0.215   9.512 -0.2012 -0.0695  0.2990
  450MOL0     C59313   7.004  -0.637   9.056  0.1927 -0.4143  0.6865
  450MOL0     C59314   7.138  -0.645   9.103 -0.2204 -0.4892 -0.3428
  450MOL0     O59315   7.325  -0.498   9.463  0.2833  0.3112 -0.1766
  450MOL0     C59316   7.596  -0.395   9.428 -1.3294 -0.3090 -0.5686
  450MOL0     C59317   7.737  -0.398   9.411 -0.3536 -0.5906 -0.4047
  450MOL0     N59318   8.513  -0.926   9.354 -0.3391  0.3535  0.6230
  450MOL0     N59319   8.608  -0.982   9.285 -0.0611  0.6393 -0.2146
  450MOL0     C59320   8.431   0.062   9.094 -0.1628  0.1223 -0.4752
  450MOL0     C59321   8.321   0.129   9.148 -0.5066  0.1159  0.1977
  450MOL0     C59322   7.893   0.201   9.274  0.3476 -0.3179 -0.2459
  450MOL0     C59323   7.888   0.208   9.417  0.5173  0.0675  0.8860
  450MOL0     C59324   7.777   0.264   9.483 -0.8656  0.1432  0.4917
  450MOL0     C59325   7.680   0.337   9.416  0.3031 -0.2776  0.2300
  450MOL0     O59326   7.570   0.392   9.483 -0.1298  0.0453 -0.5665
  450MOL0     C59327   7.459   0.303   9.468  0.0808  0.1963 -0.0841
  450MOL0     C59328   7.334   0.365   9.543 -0.3791  0.3507  0.8228
  450MOL0     C59329   7.341   0.359   9.693  0.0246 -0.7893  0.1560
  450MOL0     C59330   7.200   0.413   9.744  0.0928  0.1651 -0.4787
  450MOL0     C59331   7.100   0.306   9.704  0.3141 -0.1148 -0.1302
  450MOL0     C59332   7.030   0.206   9.691 -0.2618  0.6271 -0.3561
  450MOL0     C59333   7.683   0.336   9.276 -0.3396 -0.1455  0.1059
  450MOL0     C59334   7.786   0.268   9.203 -0.0858  0.5441 -0.2920
  450MOL0     H59335   8.150  -0.138   9.256  0.3592  0.3571  0.2526
  450MOL0     H59336   8.345  -0.256   9.165 -1.4313 -0.3660  1.6753
  450MOL0     H59337   8.486  -0.331   9.046  0.5971  0.4133 -0.8337
  450MOL0     H59338   8.611  -0.301   9.154 -3.8556 -0.2944  0.7671
  450MOL0     H59339   8.775  -0.278   8.979  0.4786 -1.2521  0.0744
  450MOL0     H59340   8.655  -0.316   8.853 -2.2767 -1.2434 -0.4413
  450MOL0     H59341   8.599  -0.521   9.021  0.1174  0.2324  3.0480
  450MOL0     H59342   8.765  -0.476   9.071  0.5667 -0.9381 -1.2979
  450MOL0     H59343   8.678  -0.554   8.794  0.2713  0.8179  0.3870
  450MOL0     H59344   8.843  -0.493   8.842  0.9748  0.2401  1.4660
  450MOL0     H59345   8.892  -0.661   8.961  0.8476 -1.5864  0.1519
  450MOL0     H59346   8.836  -0.743   8.815 -1.0268  1.2734 -0.9530
  450MOL0     H59347   8.615  -0.772   8.934 -0.4187  1.7679  0.7663
  450MOL0     H59348   8.699  -0.716   9.080  0.4886  2.7963 -1.1994
  450MOL0     H59349   8.795  -0.954   8.902 -0.4048 -2.3575  0.6621
  450MOL0     H59350   8.846  -0.921   9.068 -0.1549 -2.5205  0.1518
  450MOL0     H59351   8.689  -1.115   9.079  1.1669 -1.6032 -2.6756
  450MOL0     H59352   8.573  -1.033   8.964 -0.7864  2.5293  1.4976
  450MOL0     H59353   8.393  -0.860   9.059  1.7671  2.7137  0.3892
  450MOL0     H59354   8.321  -0.717   9.414  1.0972 -0.2048 -1.0981
  450MOL0     H59355   8.218  -0.856   9.371 -0.8710  0.4949  0.7835
  450MOL0     H59356   8.209  -0.738   9.141  1.7399  0.4228  0.0625
  450MOL0     H59357   8.296  -0.604   9.226  0.2418  0.4750  0.4225
  450MOL0     H59358   8.034  -0.721   9.329 -1.6677  0.7398  0.5087
  450MOL0     H59359   8.141  -0.595   9.391  0.7566 -0.4793 -0.9995
  450MOL0     H59360   7.987  -0.569   9.130 -0.7472  0.0728 -0.1390
  450MOL0     H59361   8.103  -0.455   9.185 -1.1012 -0.1899 -1.7571
  450MOL0     H59362   7.775  -0.678   9.210 -1.1618 -1.9065  1.3897
  450MOL0     H59363   7.560  -0.685   9.230  2.6556 -1.9821 -1.4601
  450MOL0     H59364   7.095  -0.510   9.408 -1.0004  0.3813 -0.1819
  450MOL0     H59365   6.873  -0.512   9.336  0.0900 -2.0942 -0.1356
  450MOL0     H59366   6.751  -0.362   9.128 -0.3164 -1.1484 -1.4560
  450MOL0     H59367   6.698  -0.438   9.280 -2.7629  1.9541  0.5825
  450MOL0     H59368   6.524  -0.550   9.141  1.4716  0.1484  0.0279
  450MOL0     H59369   6.553  -0.414   9.024  0.7324  2.5798 -0.0749
  450MOL0     H59370   6.500  -0.250   9.184  0.6661  0.3261  2.0829
  450MOL0     H59371   6.481  -0.375   9.303  1.5344 -3.8369 -1.4342
  450MOL0     H59372   6.314  -0.320   9.039  1.7919  1.4172  0.4407
  450MOL0     H59373   6.294  -0.470   9.139 -0.4693 -0.1776 -1.9166
  450MOL0     H59374   6.230  -0.185   9.203  0.6656 -0.4189 -1.0787
  450MOL0     H59375   6.253  -0.305   9.333 -3.2895  2.3315  0.6148
  450MOL0     H59376   6.084  -0.444   9.247  0.7717  0.3875  1.2136
  450MOL0     H59377   6.055  -0.346   9.105 -3.6450 -0.1558  0.4805
  450MOL0     H59378   5.987  -0.151   9.266  0.2762 -0.2586 -2.7361
  450MOL0     H59379   5.886  -0.306   9.256 -0.0333 -1.6760 -0.6331
  450MOL0     H59380   6.087  -0.223   9.475 -0.2403 -0.6104  2.2922
  450MOL0     H59381   6.024  -0.385   9.452 -2.0422 -0.4752  1.1280
  450MOL0     H59382   6.969  -0.675   8.961  1.3447  2.1686 -0.8691
  450MOL0     H59383   7.214  -0.678   9.032 -0.1831 -3.2667  0.8549
  450MOL0     H59384   7.549  -0.316   9.485  2.4921  0.6375  1.6184
  450MOL0     H59385   7.795  -0.318   9.456  0.2566 -0.5884 -1.1613
  450MOL0     H59386   8.513   0.116   9.048  2.4880 -2.6877  0.6093
  450MOL0     H59387   8.308   0.237   9.144 -0.7254  0.1192  0.8719
  450MOL0     H59388   7.968   0.154   9.468  1.3214 -0.2052 -0.6077
  450MOL0     H59389   7.782   0.258   9.591  1.4568  0.6122  0.4579
  450MOL0     H59390   7.481   0.197   9.481  0.8153  0.3358 -0.1421
  450MOL0     H59391   7.426   0.302   9.364 -2.1957 -0.1821  0.5910
  450MOL0     H59392   7.334   0.467   9.506 -2.4222 -0.1737 -0.7902
  450MOL0     H59393   7.245   0.320   9.498 -1.3803  1.0153  2.0713
  450MOL0     H59394   7.424   0.424   9.722  0.9797 -0.9694 -2.0007
  450MOL0     H59395   7.360   0.260   9.736 -1.0051  0.1448  2.9911
  450MOL0     H59396   7.194   0.421   9.853 -0.0615  0.2910 -0.4960
  450MOL0     H59397   7.190   0.515   9.705  0.8505 -0.2112 -1.7169
  450MOL0     H59398   6.971   0.121   9.662 -1.5839  1.2278  0.4705
  450MOL0     H59399   7.613   0.396   9.219 -1.6870 -1.0512  0.7353
  450MOL0     H59400   7.781   0.279   9.095 -0.2897  2.4225 -0.1274
  451MOL0     O59401   7.852  10.399   3.314 -0.4209 -0.4221  0.0248
  451MOL0     C59402   7.867  10.517   3.340  0.0239  0.3834 -0.1275
  451MOL0     O59403   7.772  10.613   3.354 -0.0868 -0.4442 -0.8262
  451MOL0     C59404   7.636  10.580   3.346 -0.8126 -0.3892 -0.0676
  451MOL0     C59405   7.555  10.660   3.413 -0.5181 -0.8558 -0.0684
  451MOL0     C59406   7.414  10.632   3.421  0.2403  1.3688 -0.0458
  451MOL0     C59407   7.364  10.516   3.360  0.2523  0.9417 -0.3835
  451MOL0     O59408   7.234  10.468   3.355  0.5198 -0.1463  0.3340
  451MOL0     C59409   7.130  10.568   3.380  1.2875 -0.0640 -0.0903
  451MOL0     C59410   7.006  10.482   3.361  0.2258 -0.6785 -0.7236
  451MOL0     C59411   6.889  10.564   3.421 -0.4218 -0.0120 -0.4764
  451MOL0     C59412   6.754  10.504   3.392 -0.2623  0.7085 -0.3192
  451MOL0     C59413   6.642  10.604   3.437 -0.1337  0.5585  0.1823
  451MOL0     C59414   6.500  10.555   3.416 -0.0150  0.0373 -0.6168
  451MOL0     C59415   6.400  10.631   3.515  0.2340 -0.6417  0.5904
  451MOL0     C59416   6.253  10.596   3.477  0.0652 -0.3271 -0.4088
  451MOL0     N59417   6.221  10.451   3.461  0.0748  0.7212 -0.1378
  451MOL0     C59418   6.244  10.383   3.344 -0.0292 -0.1861 -0.0278
  451MOL0     C59419   6.170  10.275   3.339  0.3687  0.2890 -0.1910
  451MOL0     C59420   6.177  10.147   3.251 -0.9562  0.2307 -0.8881
  451MOL0     C59421   6.051  10.076   3.207 -0.1276  0.4420  0.5559
  451MOL0     C59422   5.940  10.169   3.158  0.0353 -0.2007  0.3140
  451MOL0     C59423   5.816  10.088   3.119  0.8368 -0.8118 -0.6904
  451MOL0     O59424   5.723  10.196   3.099  0.0907  0.0186 -0.1253
  451MOL0     C59425   5.597  10.167   3.130  0.4669  0.1345  0.2189
  451MOL0     C59426   5.485  10.183   3.048 -0.5504 -0.2839  0.1058
  451MOL0     C59427   5.351  10.142   3.081 -0.5889 -0.1041  0.2160
  451MOL0     C59428   5.322  10.085   3.199 -0.1263  1.2484  0.4332
  451MOL0     C59429   5.188  10.031   3.229 -0.0939  0.2101  0.0009
  451MOL0     O59430   5.075  10.084   3.169 -0.5672 -0.1851 -0.4304
  451MOL0     C59431   4.954  10.033   3.216 -0.1448 -0.3719 -0.1032
  451MOL0     C59432   4.911  10.053   3.344 -0.8082  0.5863  0.4776
  451MOL0     C59433   4.785  10.012   3.386 -0.0003  0.3584  0.6125
  451MOL0     C59434   4.700   9.962   3.286  0.0391  0.1486  0.5209
  451MOL0     O59435   4.563   9.954   3.314  0.3936 -0.0830  0.0319
  451MOL0     C59436   4.511   9.860   3.404  0.9673  0.4628  0.1505
  451MOL0     C59437   4.364   9.871   3.428 -0.0554 -0.7997 -0.8700
  451MOL0     C59438   4.309   9.757   3.522  0.6650  0.9957 -0.5813
  451MOL0     C59439   4.168   9.808   3.537 -1.5882  0.6106 -1.1116
  451MOL0     C59440   4.082   9.708   3.616 -0.2448  1.0055 -0.9572
  451MOL0     C59441   3.936   9.752   3.654  0.7580  0.2651 -0.9389
  451MOL0     C59442   3.880   9.653   3.760 -0.1256 -1.0037 -0.1925
  451MOL0     C59443   3.728   9.668   3.761 -0.3201 -0.6661 -0.4379
  451MOL0    Cl59444   3.658   9.528   3.846 -0.2447  0.0881  0.2671
  451MOL0     C59445   4.738   9.950   3.156  0.4326  0.0610  1.2963
  451MOL0     C59446   4.869   9.983   3.111  0.8690 -0.8458  0.1670
  451MOL0     O59447   5.184   9.943   3.315 -0.2116  0.4196 -0.7027
  451MOL0     C59448   5.434  10.071   3.286 -0.4859  1.4009 -0.2170
  451MOL0     C59449   5.562  10.114   3.253  0.1575 -0.4874 -0.2708
  451MOL0     N59450   6.098  10.277   3.456  0.3061  0.2970  0.2185
  451MOL0     N59451   6.129  10.378   3.531 -0.4625  0.4598 -0.4109
  451MOL0     C59452   7.447  10.445   3.275 -0.6536  0.3217  0.4298
  451MOL0     C59453   7.579  10.475   3.268 -1.3452 -0.5677 -1.0012
  451MOL0     C59454   7.996  10.572   3.391  0.5100 -0.1370  0.5047
  451MOL0     C59455   8.096  10.483   3.420 -0.9851 -0.2153 -0.1781
  451MOL0     C59456   8.232  10.534   3.435  0.4004 -0.2839  0.0726
  451MOL0     C59457   8.257  10.670   3.448 -0.8158  0.3097 -0.3033
  451MOL0     O59458   8.375  10.725   3.490 -0.3539 -0.2129 -0.0607
  451MOL0     C59459   8.454  10.652   3.594  0.4798  0.2081 -0.6108
  451MOL0     C59460   8.596  10.722   3.603 -0.0922  0.0558 -0.1414
  451MOL0     C59461   8.649  10.675   3.744 -0.1922 -0.3681 -0.5753
  451MOL0     C59462   8.780  10.740   3.757 -1.1717  0.5504  0.6630
  451MOL0     C59463   8.846  10.682   3.871  0.3941 -1.0813 -0.4870
  451MOL0     C59464   8.888  10.629   3.964 -1.2288  0.0990 -0.6408
  451MOL0     C59465   8.152  10.758   3.432 -0.0324 -0.1247  0.3311
  451MOL0     C59466   8.024  10.710   3.393  0.5468  0.5443 -0.0791
  451MOL0     H59467   7.595  10.749   3.460 -1.0181 -0.5021 -0.3003
  451MOL0     H59468   7.346  10.684   3.487  1.3999  2.5685  0.2527
  451MOL0     H59469   7.126  10.651   3.309  2.0913 -0.1720 -0.2743
  451MOL0     H59470   7.139  10.608   3.481  1.4823 -0.9870  0.2712
  451MOL0     H59471   7.003  10.386   3.414 -0.7789 -0.1036  0.2985
  451MOL0     H59472   6.988  10.460   3.256  2.0772  0.0433 -1.2381
  451MOL0     H59473   6.886  10.663   3.375  1.7773  0.6778  0.7485
  451MOL0     H59474   6.890  10.577   3.530 -0.4686  2.2095 -0.7056
  451MOL0     H59475   6.734  10.489   3.285 -1.1312 -0.6433  0.0205
  451MOL0     H59476   6.728  10.414   3.448 -3.0743  0.0998 -2.3410
  451MOL0     H59477   6.650  10.690   3.370 -0.0666  0.4149  0.0045
  451MOL0     H59478   6.669  10.634   3.539  4.4936  2.9239 -1.4335
  451MOL0     H59479   6.484  10.450   3.439 -0.1011 -0.0953 -1.2719
  451MOL0     H59480   6.455  10.570   3.318  0.1959 -1.0682 -0.8889
  451MOL0     H59481   6.426  10.619   3.621 -1.4319  0.3996  1.1583
  451MOL0     H59482   6.398  10.739   3.499  0.1684 -0.8778 -1.1732
  451MOL0     H59483   6.220  10.657   3.393 -0.7246  1.9017  1.4214
  451MOL0     H59484   6.195  10.638   3.560  0.7582  2.7709 -1.3586
  451MOL0     H59485   6.328  10.410   3.281 -0.2470  1.3835  0.3087
  451MOL0     H59486   6.240  10.076   3.307  0.1732  2.9925  1.6394
  451MOL0     H59487   6.240  10.162   3.163  2.9708  1.2087  1.8289
  451MOL0     H59488   6.008  10.009   3.282 -0.5178  1.6317  1.4305
  451MOL0     H59489   6.081  10.010   3.125  0.4537 -0.3932  1.4258
  451MOL0     H59490   5.911  10.236   3.240 -1.2836 -1.0522  0.5754
  451MOL0     H59491   5.979  10.216   3.067  0.3551 -2.0889 -0.5787
  451MOL0     H59492   5.786  10.011   3.191  0.7341  0.0608  0.2280
  451MOL0     H59493   5.827  10.040   3.022 -1.1236  0.1559 -1.4345
  451MOL0     H59494   5.502  10.223   2.949 -0.6122 -1.0124 -0.2014
  451MOL0     H59495   5.272  10.166   3.011  1.4495 -1.5851 -2.7637
  451MOL0     H59496   4.973  10.113   3.409  0.5572  0.6078 -0.8055
  451MOL0     H59497   4.753  10.029   3.488  0.8876 -1.3788  1.2129
  451MOL0     H59498   4.563   9.866   3.501 -0.9629  1.4032  1.1979
  451MOL0     H59499   4.534   9.763   3.361 -1.7002 -0.6338  0.9911
  451MOL0     H59500   4.318   9.867   3.329  2.4106  3.1195 -2.3866
  451MOL0     H59501   4.343   9.964   3.481 -2.9843 -0.8892 -1.7178
  451MOL0     H59502   4.362   9.756   3.618  1.8182  2.2552 -1.1562
  451MOL0     H59503   4.302   9.663   3.467 -0.8212 -0.3557  1.7779
  451MOL0     H59504   4.166   9.908   3.580  0.3405 -0.2455  1.2012
  451MOL0     H59505   4.133   9.822   3.434  0.9094 -1.7763 -2.4474
  451MOL0     H59506   4.129   9.687   3.712 -2.4759 -1.9221 -0.3393
  451MOL0     H59507   4.082   9.608   3.573  0.4025  1.2450 -1.5219
  451MOL0     H59508   3.878   9.744   3.561 -3.1943 -0.5798  1.3380
  451MOL0     H59509   3.929   9.855   3.689  0.2521  0.2196 -0.8863
  451MOL0     H59510   3.905   9.549   3.736 -2.0528 -1.2419 -1.4180
  451MOL0     H59511   3.914   9.679   3.860 -0.5598  0.5967 -0.4347
  451MOL0     H59512   3.686   9.684   3.661  1.3459  0.0879 -1.0512
  451MOL0     H59513   3.715   9.757   3.823 -0.0522 -1.7482  1.2446
  451MOL0     H59514   4.670   9.927   3.074 -1.7441  0.8188  2.7982
  451MOL0     H59515   4.878   9.964   3.004  0.8442 -1.7402  0.3137
  451MOL0     H59516   5.424  10.027   3.385  0.5431 -1.7490 -1.3980
  451MOL0     H59517   5.648  10.103   3.320  1.9081  2.9617 -1.6793
  451MOL0     H59518   7.406  10.365   3.213 -1.3898  0.4702  0.7204
  451MOL0     H59519   7.653  10.417   3.213  1.7483  1.4652  0.6720
  451MOL0     H59520   8.076  10.377   3.408 -2.5178 -0.3160  2.3722
  451MOL0     H59521   8.315  10.465   3.439  0.3496 -0.4903 -1.6151
  451MOL0     H59522   8.453  10.543   3.594 -0.6844  0.2061 -0.3537
  451MOL0     H59523   8.399  10.678   3.685  1.4641 -1.4849  0.5175
  451MOL0     H59524   8.657  10.682   3.521 -1.3264 -0.9778 -0.6018
  451MOL0     H59525   8.586  10.831   3.600  2.2420  0.3231  0.0144
  451MOL0     H59526   8.658  10.566   3.750 -1.4133 -0.4735 -0.2406
  451MOL0     H59527   8.580  10.709   3.822 -0.0600 -1.1307 -0.1159
  451MOL0     H59528   8.847  10.719   3.674  4.0240 -2.2487  4.8966
  451MOL0     H59529   8.772  10.848   3.772  1.2266  1.0464 -1.0137
  451MOL0     H59530   8.925  10.581   4.053 -3.1265 -2.7678 -1.2532
  451MOL0     H59531   8.174  10.861   3.455 -0.1077 -0.3953  1.7082
  451MOL0     H59532   7.948  10.788   3.390 -0.1418 -0.0810  0.7563
  452MOL0     O59533   7.374   9.033   3.142  0.0329 -0.5257 -0.2411
  452MOL0     C59534   7.396   9.159   3.138  0.1037 -0.1252 -0.4518
  452MOL0     O59535   7.515   9.223   3.140  0.6788 -0.7077  0.3973
  452MOL0     C59536   7.632   9.154   3.156  1.2864  0.1511 -0.5156
  452MOL0     C59537   7.743   9.235   3.120 -0.1720  1.0125  0.0605
  452MOL0     C59538   7.873   9.189   3.153  0.4627  0.0162  0.2267
  452MOL0     C59539   7.896   9.076   3.230  0.3925 -0.7184 -0.0495
  452MOL0     O59540   8.023   9.033   3.272  0.1266  0.1978  0.0669
  452MOL0     C59541   8.138   9.115   3.246 -0.6476  0.1281 -0.3295
  452MOL0     C59542   8.257   9.037   3.286 -0.6828  0.4216  0.3054
  452MOL0     C59543   8.311   9.059   3.428 -0.0419 -0.5319  0.6343
  452MOL0     C59544   8.454   9.107   3.448 -0.0959 -0.2727  0.4747
  452MOL0     C59545   8.490   9.251   3.418  0.6525  0.4473 -0.0751
  452MOL0     C59546   8.644   9.280   3.413  1.1171 -0.2792 -0.5911
  452MOL0     C59547   8.656   9.433   3.436  0.9363 -0.0646  0.1934
  452MOL0     C59548   8.794   9.465   3.411  0.9304 -0.3724  0.7087
  452MOL0     N59549   8.828   9.608   3.404  0.2958 -0.1725  1.1480
  452MOL0     C59550   8.897   9.667   3.509 -0.9559  0.0339 -0.6074
  452MOL0     C59551   8.856   9.797   3.496  0.0114 -0.2309 -0.8692
  452MOL0     C59552   8.885   9.894   3.608 -0.4224  0.2359 -0.3287
  452MOL0     C59553   8.761   9.917   3.705 -0.5319  0.7934  0.5743
  452MOL0     C59554   8.718   9.790   3.795  0.4052  0.0233  0.1031
  452MOL0     C59555   8.596   9.716   3.752 -0.2794 -1.3041  0.3740
  452MOL0     O59556   8.594   9.586   3.818  0.1528  0.1903 -0.1887
  452MOL0     C59557   8.485   9.499   3.802  0.1569 -0.1757 -0.1233
  452MOL0     C59558   8.489   9.380   3.879 -0.2091  0.6695 -0.1167
  452MOL0     C59559   8.399   9.275   3.862  0.0109  0.3248 -0.0480
  452MOL0     C59560   8.295   9.290   3.772 -0.0891  0.0880  0.1961
  452MOL0     C59561   8.196   9.185   3.776 -0.1909  0.0454 -0.4781
  452MOL0     O59562   8.066   9.230   3.766  0.0652 -0.3110  0.2091
  452MOL0     C59563   7.961   9.143   3.752  0.4655  0.8607  0.8724
  452MOL0     C59564   7.961   9.055   3.646 -0.1586  0.2190  1.0054
  452MOL0     C59565   7.847   8.975   3.614  0.7530 -1.0969 -0.6323
  452MOL0     C59566   7.736   8.981   3.700  0.0248 -0.0502  0.0389
  452MOL0     O59567   7.618   8.920   3.657  0.2522  0.6901 -0.9630
  452MOL0     C59568   7.559   8.821   3.739  0.1468 -0.0607  0.7290
  452MOL0     C59569   7.633   8.690   3.725  0.2814  0.3796  0.3718
  452MOL0     C59570   7.620   8.626   3.590  0.0514  0.0625  0.6685
  452MOL0     C59571   7.669   8.483   3.603  0.2380  1.1009 -0.5681
  452MOL0     C59572   7.667   8.392   3.478 -0.6356 -0.4311  0.1177
  452MOL0     C59573   7.622   8.242   3.491  0.1053 -0.3961  0.7394
  452MOL0     C59574   7.724   8.173   3.569 -0.0280 -0.0708  1.3743
  452MOL0     C59575   7.738   8.030   3.529  0.2154  0.8421  0.9210
  452MOL0    Cl59576   7.577   7.940   3.526 -0.1480  0.4788  0.4215
  452MOL0     C59577   7.740   9.076   3.802 -0.1016  0.5545 -0.0460
  452MOL0     C59578   7.855   9.151   3.831 -0.1232 -0.7476 -0.4269
  452MOL0     O59579   8.227   9.068   3.785 -0.0652 -0.3893 -0.3315
  452MOL0     C59580   8.290   9.406   3.693 -0.0333  1.2061  0.1522
  452MOL0     C59581   8.384   9.509   3.708  0.1281 -0.0058  0.5511
  452MOL0     N59582   8.785   9.817   3.383 -0.4269 -0.2544 -0.3357
  452MOL0     N59583   8.764   9.705   3.328 -0.3998  0.3074  0.6162
  452MOL0     C59584   7.779   9.001   3.274 -0.2210  0.2103 -0.0060
  452MOL0     C59585   7.651   9.039   3.238 -0.1731 -0.2166 -0.4021
  452MOL0     C59586   7.278   9.241   3.140  0.1421 -0.3285 -1.0113
  452MOL0     C59587   7.153   9.181   3.107  0.8192 -0.3211  0.3210
  452MOL0     C59588   7.040   9.264   3.104 -0.0261  1.2249  0.4129
  452MOL0     C59589   7.044   9.400   3.145 -0.3691 -0.3799  0.4855
  452MOL0     O59590   6.937   9.486   3.135 -0.2050  0.5460 -0.8775
  452MOL0     C59591   6.837   9.484   3.031 -0.9445 -0.1867 -0.4896
  452MOL0     C59592   6.713   9.528   3.094  0.2298 -0.1321  0.6021
  452MOL0     C59593   6.604   9.527   2.984 -0.3863  0.2973 -0.1911
  452MOL0     C59594   6.469   9.567   3.036  0.1782 -0.2819 -0.4264
  452MOL0     C59595   6.408   9.467   3.131  0.0427  0.2143 -0.6456
  452MOL0     C59596   6.375   9.379   3.205  0.9616  0.0942 -0.4313
  452MOL0     C59597   7.170   9.448   3.192 -0.3537  0.1450 -0.0800
  452MOL0     C59598   7.284   9.374   3.183  0.0515  0.8794 -0.5865
  452MOL0     H59599   7.741   9.334   3.077 -1.7723  0.3237 -1.5637
  452MOL0     H59600   7.954   9.256   3.125 -0.5448  0.3898 -1.9430
  452MOL0     H59601   8.137   9.206   3.307  0.8255  0.3698 -0.6302
  452MOL0     H59602   8.142   9.144   3.141 -2.5550  1.4337 -0.0971
  452MOL0     H59603   8.340   9.055   3.217 -1.1597 -0.7074 -0.5958
  452MOL0     H59604   8.233   8.932   3.266 -0.1243  0.1612  0.9678
  452MOL0     H59605   8.284   8.983   3.502  0.6223 -1.2656  0.1413
  452MOL0     H59606   8.256   9.146   3.467  0.2027  1.2688 -2.6502
  452MOL0     H59607   8.465   9.097   3.557  1.5246 -1.1740  0.2721
  452MOL0     H59608   8.524   9.039   3.397  0.4156 -1.7790  2.9975
  452MOL0     H59609   8.446   9.313   3.496  1.5384  1.3535 -0.2723
  452MOL0     H59610   8.448   9.287   3.323  1.2241  0.8353 -0.1874
  452MOL0     H59611   8.673   9.255   3.310  1.5456 -2.5145  0.0194
  452MOL0     H59612   8.700   9.228   3.491  0.2796  1.7033  1.4259
  452MOL0     H59613   8.596   9.483   3.359 -0.8817  0.8905  2.1359
  452MOL0     H59614   8.626   9.463   3.537  1.0918  0.4640  0.0875
  452MOL0     H59615   8.837   9.421   3.320  0.4039 -0.2988  0.4153
  452MOL0     H59616   8.852   9.428   3.496  0.5903 -1.1087  0.6337
  452MOL0     H59617   8.942   9.630   3.600 -0.5826  0.5376 -0.5789
  452MOL0     H59618   8.930   9.982   3.561  0.3790 -0.4223 -0.8317
  452MOL0     H59619   8.967   9.863   3.674  0.5177 -1.8252 -2.3385
  452MOL0     H59620   8.671   9.953   3.654  0.1129 -1.0373 -2.0615
  452MOL0     H59621   8.793   9.996   3.772 -2.0387  2.6218 -0.7315
  452MOL0     H59622   8.805   9.724   3.782 -1.4265 -2.3313 -0.9142
  452MOL0     H59623   8.700   9.824   3.897 -1.0539  1.2616 -0.5188
  452MOL0     H59624   8.613   9.702   3.644  2.0045  3.2636 -0.1017
  452MOL0     H59625   8.503   9.774   3.750  0.1680 -0.5658 -1.4259
  452MOL0     H59626   8.566   9.359   3.952 -0.6755 -3.9026 -0.6454
  452MOL0     H59627   8.405   9.184   3.921 -0.5884  0.4245  0.1845
  452MOL0     H59628   8.048   9.051   3.580 -0.4386  4.0791  0.1236
  452MOL0     H59629   7.843   8.922   3.519  0.8670 -0.5550 -0.9416
  452MOL0     H59630   7.457   8.804   3.702  0.3471  0.0332  0.1206
  452MOL0     H59631   7.557   8.850   3.844  1.5773 -0.9640  1.0342
  452MOL0     H59632   7.592   8.610   3.787 -0.7363 -0.2640 -1.0934
  452MOL0     H59633   7.738   8.698   3.757  1.1212 -0.7776 -1.8080
  452MOL0     H59634   7.679   8.685   3.520  1.3274 -0.5653  1.1784
  452MOL0     H59635   7.516   8.632   3.558  0.3739 -3.1258 -1.4111
  452MOL0     H59636   7.767   8.475   3.650 -0.7948  4.3701  2.6323
  452MOL0     H59637   7.612   8.438   3.684  3.2194  1.4587  1.9142
  452MOL0     H59638   7.765   8.400   3.430 -1.4883 -0.1562 -1.6525
  452MOL0     H59639   7.598   8.437   3.406 -0.9444  1.2273  1.3732
  452MOL0     H59640   7.625   8.200   3.390  0.6179  2.7297 -0.6823
  452MOL0     H59641   7.525   8.235   3.541 -0.2584 -0.1492  0.0937
  452MOL0     H59642   7.825   8.214   3.562  0.7553 -1.9603  0.8022
  452MOL0     H59643   7.691   8.164   3.673 -1.6391 -0.2409  0.8685
  452MOL0     H59644   7.806   7.978   3.597  0.7256  0.7785  0.3709
  452MOL0     H59645   7.777   8.035   3.427 -1.9639 -1.2722 -0.0965
  452MOL0     H59646   7.654   9.099   3.863  1.5723  0.3777  2.5250
  452MOL0     H59647   7.859   9.217   3.917 -0.2981 -1.3443  0.0470
  452MOL0     H59648   8.199   9.432   3.641  1.4133  4.2427 -1.1384
  452MOL0     H59649   8.388   9.596   3.643 -1.1460  0.2830  0.8369
  452MOL0     H59650   7.794   8.918   3.341 -2.6485  0.1998  0.6135
  452MOL0     H59651   7.568   8.985   3.281 -0.1599 -0.5866 -0.8369
  452MOL0     H59652   7.152   9.077   3.075 -0.3478 -0.1632 -0.1966
  452MOL0     H59653   6.949   9.219   3.064  0.4688  0.4025  0.1800
  452MOL0     H59654   6.837   9.385   2.983  1.0667  0.6165 -2.3323
  452MOL0     H59655   6.874   9.548   2.950  0.8232  0.7500  0.9845
  452MOL0     H59656   6.688   9.454   3.170  0.0357 -2.5975 -1.7560
  452MOL0     H59657   6.725   9.627   3.141 -1.1053  0.9925 -1.2787
  452MOL0     H59658   6.598   9.423   2.951 -0.2455  0.2204  0.0275
  452MOL0     H59659   6.624   9.593   2.899 -1.1675  2.7872  1.4504
  452MOL0     H59660   6.480   9.662   3.089 -0.7591 -0.0522 -0.6287
  452MOL0     H59661   6.393   9.578   2.958  0.5325 -2.9591 -1.2623
  452MOL0     H59662   6.325   9.304   3.261  2.0523 -0.6867 -0.4571
  452MOL0     H59663   7.172   9.554   3.214  2.3395  0.5582 -1.7682
  452MOL0     H59664   7.383   9.413   3.207 -0.2689  2.9942 -2.3679
  453MOL0     O59665  10.372   7.120   7.655 -0.1834  0.7209 -0.1786
  453MOL0     C59666  10.445   7.119   7.754 -1.0576 -0.4343 -0.3066
  453MOL0     O59667  10.398   7.107   7.886  0.2306 -0.7441  0.1800
  453MOL0     C59668  10.267   7.097   7.921 -0.6960 -0.4011  0.7194
  453MOL0     C59669  10.168   7.177   7.863  0.4399 -0.5823 -0.2923
  453MOL0     C59670  10.031   7.157   7.885  0.8633  0.7156 -0.3173
  453MOL0     C59671   9.990   7.076   7.982 -0.0226  0.1821 -0.2790
  453MOL0     O59672   9.850   7.067   8.005 -0.1614 -0.2101  0.0616
  453MOL0     C59673   9.801   6.970   8.097  0.7366 -0.5244  0.3242
  453MOL0     C59674   9.652   6.981   8.118 -0.8687  0.5916  0.8961
  453MOL0     C59675   9.614   7.092   8.213  0.1568 -0.2545  0.6869
  453MOL0     C59676   9.464   7.088   8.240  0.3690 -0.0771  0.0315
  453MOL0     C59677   9.427   7.192   8.346  0.4575 -0.1509  0.4525
  453MOL0     C59678   9.271   7.198   8.360 -0.7320 -0.3241  0.3542
  453MOL0     C59679   9.229   7.272   8.494  1.0572 -0.8952  0.5431
  453MOL0     C59680   9.078   7.269   8.518  1.3187 -0.3379 -0.5864
  453MOL0     N59681   9.045   7.335   8.642 -1.0891 -0.1285 -0.0698
  453MOL0     C59682   8.911   7.334   8.691 -1.2216  0.5719 -0.2142
  453MOL0     C59683   8.901   7.433   8.778 -0.0949  0.5417 -0.9595
  453MOL0     C59684   8.789   7.463   8.877  0.4427 -0.1379  0.8182
  453MOL0     C59685   8.744   7.605   8.865  0.2701 -0.5666 -0.3384
  453MOL0     C59686   8.618   7.634   8.953 -0.1150 -1.4089 -0.3637
  453MOL0     C59687   8.498   7.542   8.937 -0.5845  0.3283  0.1596
  453MOL0     O59688   8.387   7.612   8.987 -0.3024 -0.4807  0.3284
  453MOL0     C59689   8.311   7.694   8.908  0.8339  0.6346  0.2105
  453MOL0     C59690   8.328   7.702   8.768  0.0247  0.0787 -0.0278
  453MOL0     C59691   8.239   7.770   8.683  0.1026 -0.2565  0.2534
  453MOL0     C59692   8.135   7.842   8.742  0.5103 -0.6349  0.0289
  453MOL0     C59693   8.046   7.933   8.659  0.6335  0.2462 -1.0348
  453MOL0     O59694   8.103   7.981   8.548 -0.0195  0.2755  0.1429
  453MOL0     C59695   8.051   8.090   8.478  0.0816 -0.5537  0.4463
  453MOL0     C59696   8.081   8.102   8.345  0.0348 -0.8841  0.4955
  453MOL0     C59697   8.038   8.216   8.270  0.3438 -0.0923 -0.6689
  453MOL0     C59698   7.970   8.322   8.329  1.5967 -0.4503 -0.4328
  453MOL0     O59699   7.924   8.430   8.256 -0.2882  0.5174 -0.0228
  453MOL0     C59700   7.844   8.533   8.314  0.6615 -0.3514  0.4691
  453MOL0     C59701   7.796   8.619   8.200 -0.1115  0.3274  0.3856
  453MOL0     C59702   7.714   8.744   8.243 -0.4389  0.6780  1.0511
  453MOL0     C59703   7.640   8.798   8.118 -0.0610  0.5098  0.1493
  453MOL0     C59704   7.580   8.932   8.136  0.6308 -0.6459 -0.3670
  453MOL0     C59705   7.440   8.933   8.068  0.1111 -0.0152 -0.3839
  453MOL0     C59706   7.370   9.071   8.064 -0.4616  0.3047 -0.4055
  453MOL0     C59707   7.241   9.076   7.975 -0.1029 -0.6657 -0.5028
  453MOL0    Cl59708   7.122   8.956   8.020 -0.1341  0.6357 -0.1836
  453MOL0     C59709   7.950   8.305   8.466 -0.3964 -0.1122  0.9940
  453MOL0     C59710   7.987   8.195   8.540  0.5404 -0.4326  0.4127
  453MOL0     O59711   7.935   7.965   8.706 -0.3786 -0.1166  0.3078
  453MOL0     C59712   8.103   7.826   8.885 -0.6352 -0.8731 -0.4859
  453MOL0     C59713   8.196   7.752   8.971 -0.6817  0.2978  0.0969
  453MOL0     N59714   9.026   7.493   8.780  1.3548 -0.1544 -0.0976
  453MOL0     N59715   9.111   7.439   8.696  0.1246 -0.5729  0.7928
  453MOL0     C59716  10.085   6.989   8.040  0.0465  0.1599 -0.1415
  453MOL0     C59717  10.219   6.989   8.000 -0.6875 -0.0240 -0.3418
  453MOL0     C59718  10.586   7.116   7.735  0.5617  0.1909  0.7498
  453MOL0     C59719  10.673   7.092   7.842  0.5676  0.5279  0.1441
  453MOL0     C59720  10.815   7.081   7.818  0.7533  0.0994 -0.2287
  453MOL0     C59721  10.865   7.092   7.688 -0.8300 -0.1067 -0.1552
  453MOL0     O59722  10.996   7.068   7.652 -0.0252 -0.3913  0.2183
  453MOL0     C59723  11.089   7.027   7.756 -0.0555  0.0898  0.1071
  453MOL0     C59724  11.144   7.141   7.850  0.3967 -1.2094  0.1833
  453MOL0     C59725  11.240   7.093   7.965 -0.3308 -0.6172 -0.2261
  453MOL0     C59726  11.203   7.154   8.105  0.2625  0.5673  0.4197
  453MOL0     C59727  11.214   7.303   8.102  0.4260 -0.0775  0.8927
  453MOL0     C59728  11.219   7.423   8.111 -0.5036 -0.4185 -0.4235
  453MOL0     C59729  10.779   7.123   7.589  0.2866 -0.0479 -0.2044
  453MOL0     C59730  10.642   7.133   7.612 -0.2142  0.2093  0.1291
  453MOL0     H59731  10.203   7.245   7.787  0.8231 -2.4044 -1.8349
  453MOL0     H59732   9.951   7.216   7.842  0.1841 -0.2202 -0.3756
  453MOL0     H59733   9.850   6.982   8.194  1.9163 -4.5769  0.4067
  453MOL0     H59734   9.810   6.872   8.049 -0.1922  0.4645 -2.0110
  453MOL0     H59735   9.600   6.890   8.151  0.7475 -0.4535  0.6793
  453MOL0     H59736   9.610   7.000   8.019 -0.8362  1.0949  0.9766
  453MOL0     H59737   9.639   7.193   8.178  1.4100  0.3544  3.1365
  453MOL0     H59738   9.666   7.070   8.306 -0.6843  1.9214  1.7439
  453MOL0     H59739   9.416   7.114   8.145  1.4201 -2.0650 -1.1177
  453MOL0     H59740   9.429   6.989   8.271  1.4679 -0.3125  0.5542
  453MOL0     H59741   9.468   7.286   8.309  2.7786 -1.5493 -0.8046
  453MOL0     H59742   9.478   7.174   8.441  2.7902 -2.8104 -1.1507
  453MOL0     H59743   9.234   7.094   8.362  1.1862 -1.0229  1.3875
  453MOL0     H59744   9.230   7.247   8.271 -1.2880 -1.9009 -0.3068
  453MOL0     H59745   9.279   7.231   8.581 -0.0826  0.2921  1.8053
  453MOL0     H59746   9.265   7.375   8.483  1.1951 -0.9110  0.8705
  453MOL0     H59747   9.036   7.168   8.514 -1.7299  0.7273  0.8195
  453MOL0     H59748   9.025   7.323   8.439  0.4519 -2.8309 -1.7866
  453MOL0     H59749   8.826   7.273   8.660 -2.7057  1.6293  1.5054
  453MOL0     H59750   8.814   7.429   8.977  3.9234  2.2226  0.9325
  453MOL0     H59751   8.701   7.408   8.845 -0.7194  1.2446  1.5323
  453MOL0     H59752   8.728   7.634   8.760 -0.5783 -2.0355 -0.6480
  453MOL0     H59753   8.826   7.676   8.880 -1.6794  1.5780  0.8788
  453MOL0     H59754   8.641   7.620   9.059 -3.1757 -0.5814  0.5257
  453MOL0     H59755   8.587   7.735   8.927  0.2068 -0.5689  2.1871
  453MOL0     H59756   8.510   7.449   8.992  1.5545  1.8476  2.5241
  453MOL0     H59757   8.485   7.509   8.833  0.7313 -2.1246  0.7156
  453MOL0     H59758   8.415   7.661   8.717  1.1546 -0.0817  1.9240
  453MOL0     H59759   8.254   7.759   8.576  2.1313  2.5049  0.1408
  453MOL0     H59760   8.130   8.019   8.295 -1.8536 -1.3551 -0.6796
  453MOL0     H59761   8.073   8.229   8.168  0.7786  1.4418 -0.3513
  453MOL0     H59762   7.890   8.601   8.386 -0.5366  2.7701 -1.4890
  453MOL0     H59763   7.752   8.489   8.352 -0.0673  0.1326 -0.6633
  453MOL0     H59764   7.731   8.553   8.142 -0.2370 -0.3333  1.2521
  453MOL0     H59765   7.880   8.658   8.140  1.4602  1.4011  3.0965
  453MOL0     H59766   7.777   8.823   8.283  0.3597 -0.6176  2.4501
  453MOL0     H59767   7.641   8.707   8.316 -2.8562  0.8120 -1.1455
  453MOL0     H59768   7.705   8.799   8.030 -3.4156 -4.3042 -2.8476
  453MOL0     H59769   7.562   8.726   8.093 -1.1704  0.4096  3.4232
  453MOL0     H59770   7.627   9.013   8.078  1.2961 -0.3529  0.5647
  453MOL0     H59771   7.567   8.957   8.241 -1.5668  0.1348 -0.7686
  453MOL0     H59772   7.367   8.869   8.119 -0.3836 -0.3938 -1.5312
  453MOL0     H59773   7.451   8.897   7.965  0.1346  0.8647 -0.6985
  453MOL0     H59774   7.344   9.106   8.164 -1.5815  2.3335 -1.3462
  453MOL0     H59775   7.440   9.140   8.017 -1.0919  2.6493  1.8810
  453MOL0     H59776   7.270   9.058   7.871 -3.3509  1.0840 -1.8625
  453MOL0     H59777   7.196   9.175   7.982  2.0391  0.2805  1.6399
  453MOL0     H59778   7.887   8.374   8.522 -0.1952  0.0594  1.0103
  453MOL0     H59779   7.945   8.192   8.640  2.4637 -2.7123  1.2423
  453MOL0     H59780   8.004   7.862   8.910 -0.6174 -1.6853  0.8422
  453MOL0     H59781   8.173   7.740   9.077 -5.1610  2.6068 -0.3941
  453MOL0     H59782  10.060   6.902   8.100  1.4150 -1.4467 -1.7614
  453MOL0     H59783  10.289   6.918   8.044 -1.4503 -1.1211 -0.8474
  453MOL0     H59784  10.633   7.078   7.942 -0.0621 -0.6262 -0.2468
  453MOL0     H59785  10.871   7.066   7.910  1.2049  0.9793 -0.3526
  453MOL0     H59786  11.172   6.980   7.703 -1.2371 -3.0411  0.7956
  453MOL0     H59787  11.045   6.944   7.814  0.9374  0.2646  1.1429
  453MOL0     H59788  11.204   7.215   7.797 -1.2895  0.0718  0.0064
  453MOL0     H59789  11.057   7.199   7.884  0.3497 -1.5033  0.5763
  453MOL0     H59790  11.341   7.123   7.934 -0.9061 -0.9045 -2.5382
  453MOL0     H59791  11.233   6.984   7.969 -2.0420 -0.5815 -1.3265
  453MOL0     H59792  11.102   7.124   8.135  1.0391 -2.0523  0.6868
  453MOL0     H59793  11.271   7.120   8.184  3.8710  2.7435 -1.4966
  453MOL0     H59794  11.215   7.528   8.128 -2.0821  0.4807 -4.8855
  453MOL0     H59795  10.824   7.142   7.492  3.5175  1.5006  1.4263
  453MOL0     H59796  10.585   7.154   7.522 -0.4111 -3.1723 -0.6635
  454MOL0     O59797   7.213   5.564   6.643  0.7436 -0.0331 -0.2854
  454MOL0     C59798   7.159   5.647   6.719 -0.0650  0.5657 -0.1534
  454MOL0     O59799   7.033   5.655   6.761 -1.0590  0.6453 -0.2695
  454MOL0     C59800   6.949   5.569   6.693 -0.4783  0.0833  0.2077
  454MOL0     C59801   6.848   5.513   6.773  0.3427 -0.0715  0.6109
  454MOL0     C59802   6.736   5.453   6.714  0.4133 -0.0622  0.1163
  454MOL0     C59803   6.729   5.435   6.573  0.1780  0.2933  0.6061
  454MOL0     O59804   6.633   5.350   6.515  0.1304  0.0333  0.0672
  454MOL0     C59805   6.492   5.375   6.546 -1.5655  0.2809  0.7347
  454MOL0     C59806   6.456   5.512   6.488  0.1830 -0.3221 -0.7253
  454MOL0     C59807   6.317   5.544   6.524  0.2727  0.1335 -0.0203
  454MOL0     C59808   6.275   5.679   6.461  0.3739  0.5907 -0.7566
  454MOL0     C59809   6.134   5.710   6.507 -0.0827 -0.0425 -0.1668
  454MOL0     C59810   6.045   5.587   6.473  0.2998 -0.1874  0.0927
  454MOL0     C59811   5.898   5.636   6.464  0.1247 -0.6071 -0.4257
  454MOL0     C59812   5.796   5.532   6.416 -0.4718  0.3740 -0.1529
  454MOL0     N59813   5.664   5.562   6.447  0.7959 -0.6700  0.1351
  454MOL0     C59814   5.591   5.505   6.551 -0.1423  0.9302 -0.2183
  454MOL0     C59815   5.461   5.540   6.523 -0.2747 -0.0516 -0.7267
  454MOL0     C59816   5.337   5.499   6.599  0.1002 -0.0248  0.0335
  454MOL0     C59817   5.216   5.590   6.578  0.9158 -0.7384  0.0425
  454MOL0     C59818   5.108   5.557   6.685  0.0168 -0.4593  0.1515
  454MOL0     C59819   4.988   5.657   6.670  0.4734  0.3962  0.6799
  454MOL0     O59820   4.894   5.632   6.776 -0.0925 -0.5181 -0.1846
  454MOL0     C59821   4.762   5.658   6.747  0.4791 -0.2208 -0.1412
  454MOL0     C59822   4.718   5.769   6.678  0.1241 -0.5690  0.4600
  454MOL0     C59823   4.579   5.787   6.644  0.2697 -0.8938 -0.0440
  454MOL0     C59824   4.482   5.704   6.705  0.0564 -0.4646 -0.8379
  454MOL0     C59825   4.338   5.719   6.665 -1.1965 -0.5736 -0.0991
  454MOL0     O59826   4.249   5.702   6.767  0.6477  0.1070 -0.4419
  454MOL0     C59827   4.115   5.727   6.757  0.5355 -0.1951 -0.3799
  454MOL0     C59828   4.040   5.683   6.863 -0.7977  0.2934  0.0252
  454MOL0     C59829   3.896   5.692   6.854 -0.2585 -0.1687 -0.2770
  454MOL0     C59830   3.831   5.759   6.749  0.2005  0.5475 -0.1833
  454MOL0     O59831   3.700   5.790   6.729 -0.1598 -0.8921 -0.1349
  454MOL0     C59832   3.609   5.702   6.795 -0.0493  0.6319  0.4231
  454MOL0     C59833   3.466   5.743   6.759 -0.1077  0.8514  0.0259
  454MOL0     C59834   3.363   5.648   6.820  0.0326 -0.2408 -0.0608
  454MOL0     C59835   3.220   5.697   6.769 -0.1789  0.0679 -0.1782
  454MOL0     C59836   3.104   5.652   6.864 -0.3223 -0.2904  0.4704
  454MOL0     C59837   2.962   5.700   6.804 -0.4130 -0.7787 -0.2390
  454MOL0     C59838   2.844   5.708   6.906 -0.6511 -0.7415  0.5524
  454MOL0     C59839   2.706   5.698   6.838  0.6553  0.1374 -0.5756
  454MOL0    Cl59840   2.581   5.774   6.940 -0.6012  0.2136 -0.0544
  454MOL0     C59841   3.914   5.818   6.657 -0.1154 -0.0143 -0.3702
  454MOL0     C59842   4.054   5.808   6.653 -0.1853  0.1765 -0.2372
  454MOL0     O59843   4.314   5.746   6.546 -0.3751 -0.0720  0.1730
  454MOL0     C59844   4.528   5.603   6.792  0.1710  0.8941 -0.5154
  454MOL0     C59845   4.668   5.573   6.805  0.2115 -0.1588  0.0738
  454MOL0     N59846   5.468   5.617   6.408  0.5992 -0.1109 -0.3445
  454MOL0     N59847   5.592   5.638   6.362  0.8382  0.3472  0.2998
  454MOL0     C59848   6.834   5.493   6.499 -0.0533 -0.7270 -0.1737
  454MOL0     C59849   6.941   5.564   6.556 -0.1336 -0.2929 -0.2549
  454MOL0     C59850   7.264   5.738   6.775 -0.4860 -0.1571  0.5139
  454MOL0     C59851   7.381   5.737   6.709 -0.5146 -0.8526  0.3651
  454MOL0     C59852   7.483   5.823   6.756 -0.3932  0.1853 -0.4530
  454MOL0     C59853   7.479   5.893   6.875  0.1348 -0.1510  0.5772
  454MOL0     O59854   7.591   5.965   6.911  0.2610 -0.6342 -0.1820
  454MOL0     C59855   7.605   5.983   7.051 -0.7824  0.1524 -1.4051
  454MOL0     C59856   7.753   6.034   7.077  0.4778  0.0400  0.0831
  454MOL0     C59857   7.853   5.944   6.999  0.0892 -1.0070 -0.8664
  454MOL0     C59858   7.920   5.831   7.085  0.2483 -0.5642  0.1281
  454MOL0     C59859   7.820   5.743   7.138 -0.6021  0.2996  0.8507
  454MOL0     C59860   7.728   5.674   7.181 -1.0910  0.0443  0.0587
  454MOL0     C59861   7.342   5.899   6.941 -0.0455  0.6812  0.1894
  454MOL0     C59862   7.235   5.823   6.886  0.3813 -0.0199 -0.4015
  454MOL0     H59863   6.853   5.521   6.882 -2.3334 -0.7860  0.8647
  454MOL0     H59864   6.662   5.419   6.785 -0.3816  0.8682 -0.2438
  454MOL0     H59865   6.477   5.369   6.654  0.1150 -1.5113  0.9242
  454MOL0     H59866   6.445   5.291   6.493 -2.8281  1.3679  0.0955
  454MOL0     H59867   6.482   5.519   6.382 -0.1217  1.3578 -0.7285
  454MOL0     H59868   6.523   5.587   6.532 -1.5301 -0.6906  2.8721
  454MOL0     H59869   6.305   5.546   6.633  1.0499 -0.3088  0.0835
  454MOL0     H59870   6.255   5.463   6.486 -0.5125  1.0952 -0.8457
  454MOL0     H59871   6.350   5.755   6.482  0.2639  0.9848 -1.7596
  454MOL0     H59872   6.261   5.663   6.354  1.3176 -0.5119 -0.7386
  454MOL0     H59873   6.111   5.803   6.455  2.5955  0.1436 -1.1763
  454MOL0     H59874   6.132   5.726   6.616  1.6687  4.2416 -0.5618
  454MOL0     H59875   6.065   5.502   6.539 -1.2343 -0.3536  0.3823
  454MOL0     H59876   6.079   5.548   6.376 -1.0658 -2.7871  0.5749
  454MOL0     H59877   5.860   5.665   6.562 -4.2001 -0.3849 -1.9594
  454MOL0     H59878   5.882   5.718   6.393 -2.1041 -0.4164  0.2297
  454MOL0     H59879   5.809   5.441   6.475 -1.9165  0.9128  1.0726
  454MOL0     H59880   5.808   5.505   6.311 -2.3046 -0.2674 -0.2302
  454MOL0     H59881   5.632   5.430   6.617 -0.0541  0.0445 -1.2389
  454MOL0     H59882   5.351   5.495   6.707 -1.6146 -0.0036  0.2887
  454MOL0     H59883   5.319   5.396   6.566  0.7014  0.4763 -1.9928
  454MOL0     H59884   5.183   5.568   6.476 -0.5682 -0.8064  0.5215
  454MOL0     H59885   5.243   5.696   6.581 -0.5607 -0.2462 -1.7990
  454MOL0     H59886   5.077   5.453   6.670  0.9884 -0.5339 -1.5429
  454MOL0     H59887   5.161   5.562   6.780  2.7053  2.7389 -1.2972
  454MOL0     H59888   4.952   5.628   6.571  3.1688 -0.3610 -0.1636
  454MOL0     H59889   5.027   5.758   6.665  1.2587  0.0319 -1.8175
  454MOL0     H59890   4.790   5.840   6.638 -1.1199  1.0386  0.9879
  454MOL0     H59891   4.552   5.864   6.573 -2.3755 -1.5327  0.1535
  454MOL0     H59892   4.091   5.637   6.947  0.7454  1.2931 -0.3381
  454MOL0     H59893   3.837   5.642   6.930 -1.2239  1.2420 -0.0551
  454MOL0     H59894   3.615   5.721   6.903 -3.4146  0.2458  0.7977
  454MOL0     H59895   3.634   5.597   6.776 -0.6326  0.3828  0.9927
  454MOL0     H59896   3.463   5.747   6.650  1.5789  1.4305 -0.0200
  454MOL0     H59897   3.445   5.845   6.795  0.3402  1.8847 -2.4653
  454MOL0     H59898   3.373   5.654   6.929 -3.9947 -0.4839  0.4908
  454MOL0     H59899   3.377   5.546   6.783  0.6254  0.3976 -1.6837
  454MOL0     H59900   3.218   5.807   6.765 -0.5312  0.0346 -1.0829
  454MOL0     H59901   3.197   5.674   6.665 -2.5170  0.8834  0.1091
  454MOL0     H59902   3.113   5.702   6.961  1.2628  2.5456 -0.9972
  454MOL0     H59903   3.095   5.544   6.880 -2.3717 -0.1783  0.2500
  454MOL0     H59904   2.938   5.629   6.724  1.8660 -3.4737  1.2899
  454MOL0     H59905   2.974   5.800   6.761  0.9122 -0.1732  1.4366
  454MOL0     H59906   2.843   5.631   6.984 -2.3212  0.3258  1.6457
  454MOL0     H59907   2.846   5.810   6.946  1.4982 -0.8375  0.8373
  454MOL0     H59908   2.672   5.595   6.825  1.2880 -0.4066  1.5505
  454MOL0     H59909   2.710   5.752   6.743  0.4891 -1.1784 -1.3492
  454MOL0     H59910   3.866   5.874   6.577  0.2977  1.3910  0.3242
  454MOL0     H59911   4.095   5.862   6.569 -1.7447  0.9442 -0.5355
  454MOL0     H59912   4.457   5.545   6.851  2.0873  0.5296  1.6143
  454MOL0     H59913   4.707   5.492   6.866  5.1192  2.6477  1.1235
  454MOL0     H59914   6.830   5.490   6.391  2.3689  3.9044 -0.6763
  454MOL0     H59915   7.014   5.609   6.489 -1.2497  1.2448 -0.4761
  454MOL0     H59916   7.401   5.677   6.621 -2.7216  0.5110 -1.1602
  454MOL0     H59917   7.580   5.820   6.709 -0.3254 -0.9377 -0.2689
  454MOL0     H59918   7.586   5.886   7.098 -1.8142 -0.0582 -2.1945
  454MOL0     H59919   7.544   6.063   7.094 -0.0406 -0.2991  0.6046
  454MOL0     H59920   7.776   6.136   7.045  2.5738  0.7416  3.3302
  454MOL0     H59921   7.761   6.032   7.186 -2.5811  0.9058  0.4055
  454MOL0     H59922   7.936   6.010   6.970 -0.8382  0.6537  0.0908
  454MOL0     H59923   7.799   5.892   6.920 -1.8563 -0.4183  0.0036
  454MOL0     H59924   7.998   5.785   7.023  0.2041  0.0143 -0.3776
  454MOL0     H59925   7.987   5.861   7.166  1.3058 -2.8764  0.1842
  454MOL0     H59926   7.648   5.615   7.220 -2.3182  0.6735 -1.4005
  454MOL0     H59927   7.330   5.963   7.028  2.6411  2.7604 -0.8476
  454MOL0     H59928   7.142   5.824   6.941  1.0029 -2.1538  0.8189
  455MOL0     O59929   1.739   7.421   7.493  0.5388 -0.2852 -0.3924
  455MOL0     C59930   1.757   7.461   7.611  0.5411  0.4539 -0.0072
  455MOL0     O59931   1.661   7.461   7.710 -0.2175  0.2160  0.4118
  455MOL0     C59932   1.539   7.419   7.673 -0.7771 -0.4966 -0.5007
  455MOL0     C59933   1.485   7.317   7.736  0.0864  0.2739 -0.6516
  455MOL0     C59934   1.363   7.262   7.691 -0.0794 -0.0484  0.1409
  455MOL0     C59935   1.288   7.335   7.596 -0.8611  0.4921 -1.1687
  455MOL0     O59936   1.172   7.296   7.544  0.5667  0.4978 -0.0233
  455MOL0     C59937   1.095   7.197   7.616 -0.0166  0.4144  0.0557
  455MOL0     C59938   1.125   7.057   7.562  0.3838 -0.1383 -0.3194
  455MOL0     C59939   1.047   6.961   7.664  0.8080  0.5706 -0.2487
  455MOL0     C59940   1.010   6.838   7.580  1.0772 -1.0363 -0.2054
  455MOL0     C59941   0.922   6.731   7.654 -0.2917 -0.2460 -0.8284
  455MOL0     C59942   0.985   6.690   7.796 -0.6008 -0.6762  0.1430
  455MOL0     C59943   0.909   6.574   7.854 -0.6668 -0.3480  0.1019
  455MOL0     C59944   0.767   6.597   7.893  0.3356 -0.7649  0.0335
  455MOL0     N59945   0.721   6.517   8.011  0.5620 -1.0396  0.7728
  455MOL0     C59946   0.653   6.399   8.001  0.8326  0.1853 -0.1428
  455MOL0     C59947   0.598   6.369   8.122  0.1690 -0.4271  0.3343
  455MOL0     C59948   0.527   6.248   8.161  0.4316  1.0927 -0.7551
  455MOL0     C59949   0.407   6.238   8.069  0.6696  0.3227 -0.1369
  455MOL0     C59950   0.300   6.333   8.102  0.3225 -0.4667  0.9601
  455MOL0     C59951   0.193   6.333   7.991 -0.1677 -0.1046 -0.0564
  455MOL0     O59952   0.150   6.196   7.993  1.0061 -0.2036 -0.4845
  455MOL0     C59953   0.017   6.176   7.960 -0.3416  0.2798 -0.1287
  455MOL0     C59954  -0.069   6.268   7.901 -0.5869 -0.0328 -0.6295
  455MOL0     C59955  -0.195   6.234   7.856 -0.6056 -0.7254 -0.6396
  455MOL0     C59956  -0.254   6.109   7.894 -0.2584 -1.6604 -0.2776
  455MOL0     C59957  -0.395   6.083   7.854  0.8034  0.2362 -0.7646
  455MOL0     O59958  -0.463   5.985   7.916 -0.6808 -0.1962  0.2147
  455MOL0     C59959  -0.599   5.954   7.885 -0.8884 -0.0925  0.3052
  455MOL0     C59960  -0.641   5.939   7.756  0.2748 -0.6970  0.0306
  455MOL0     C59961  -0.776   5.922   7.726 -0.6446 -0.3183 -0.9120
  455MOL0     C59962  -0.874   5.918   7.822  0.2110  0.5740 -0.4148
  455MOL0     O59963  -0.997   5.901   7.772  0.8049  0.0372 -0.3661
  455MOL0     C59964  -1.109   5.885   7.868  0.5141  0.1956 -0.4207
  455MOL0     C59965  -1.231   5.870   7.780 -0.1694 -0.5011  0.5031
  455MOL0     C59966  -1.356   5.833   7.854 -0.1448 -1.2563  0.3388
  455MOL0     C59967  -1.478   5.864   7.767  0.2774  0.2803 -0.1605
  455MOL0     C59968  -1.610   5.820   7.839 -0.5793  0.5316 -0.4213
  455MOL0     C59969  -1.730   5.888   7.773  0.4406  0.3199 -0.7164
  455MOL0     C59970  -1.742   5.860   7.621 -0.9267 -0.8983  0.1086
  455MOL0     C59971  -1.886   5.845   7.584 -0.0950  0.0868 -0.0454
  455MOL0    Cl59972  -1.989   5.997   7.579 -0.0025 -0.3225  0.2993
  455MOL0     C59973  -0.830   5.937   7.959  0.0180  0.1840  0.1801
  455MOL0     C59974  -0.696   5.959   7.991 -0.5629 -0.4046  0.5931
  455MOL0     O59975  -0.439   6.152   7.762  0.4571  0.4006  0.1775
  455MOL0     C59976  -0.176   6.016   7.963 -0.4055  0.1625 -0.5098
  455MOL0     C59977  -0.039   6.047   7.992 -0.8320 -0.1836  0.6815
  455MOL0     N59978   0.622   6.485   8.196  0.1888 -0.0574  0.2800
  455MOL0     N59979   0.683   6.573   8.130 -0.7768 -1.3884  0.2289
  455MOL0     C59980   1.334   7.457   7.535 -0.4891  0.1656 -0.3363
  455MOL0     C59981   1.460   7.496   7.582  0.0755 -0.1229  0.0132
  455MOL0     C59982   1.896   7.514   7.627  0.8722  0.1112 -0.3050
  455MOL0     C59983   1.977   7.530   7.507  0.0302  0.3685  0.5937
  455MOL0     C59984   2.106   7.581   7.504  0.2293  0.0811  0.3183
  455MOL0     C59985   2.159   7.631   7.621 -0.4311 -0.0081 -0.3795
  455MOL0     O59986   2.287   7.685   7.603  0.4729  0.2997 -0.6091
  455MOL0     C59987   2.328   7.769   7.708  0.5374 -0.4890  0.5476
  455MOL0     C59988   2.474   7.823   7.677 -0.4075 -0.0158 -0.0650
  455MOL0     C59989   2.537   7.886   7.794 -0.4029 -0.5717 -0.0344
  455MOL0     C59990   2.692   7.865   7.797 -0.2460  0.4275  0.4130
  455MOL0     C59991   2.763   7.921   7.915  0.2069 -0.2349  0.2145
  455MOL0     C59992   2.803   7.969   8.017 -0.8056 -0.1513  0.5378
  455MOL0     C59993   2.085   7.616   7.749 -0.3483  0.5106  0.8773
  455MOL0     C59994   1.958   7.555   7.748 -0.0303 -0.5994 -0.0464
  455MOL0     H59995   1.539   7.272   7.818 -0.9778  1.0068  0.4964
  455MOL0     H59996   1.314   7.182   7.746 -1.7836  0.2478 -0.8765
  455MOL0     H59997   0.993   7.219   7.583 -0.1311 -0.6590 -0.3419
  455MOL0     H59998   1.117   7.198   7.723 -2.5719 -0.7649  0.6595
  455MOL0     H59999   1.231   7.032   7.573 -0.4630 -3.1696  3.2185
  455MOL0     H60000   1.094   7.042   7.459 -0.2383 -0.0107 -0.1527
  455MOL0     H60001   0.960   7.010   7.710  0.6071 -0.2215  0.2355
  455MOL0     H60002   1.116   6.927   7.741  0.8675 -1.5302 -1.1703
  455MOL0     H60003   0.965   6.864   7.484 -1.8171  2.4854  1.8663
  455MOL0     H60004   1.101   6.785   7.548  0.1547 -2.0669 -1.2059
  455MOL0     H60005   0.924   6.640   7.594  4.0440 -1.6147  1.0310
  455MOL0     H60006   0.818   6.757   7.673 -0.4793 -1.0487 -0.7407
  455MOL0     H60007   0.982   6.779   7.860 -0.6206 -1.1778  0.8522
  455MOL0     H60008   1.090   6.666   7.775 -1.4197 -2.0169 -3.0346
  455MOL0     H60009   0.910   6.494   7.780  0.8941 -1.4282  1.2189
  455MOL0     H60010   0.970   6.542   7.939 -0.1386  2.5174  0.8944
  455MOL0     H60011   0.704   6.585   7.804  1.2913 -1.5136 -0.5677
  455MOL0     H60012   0.763   6.702   7.923 -1.3329 -1.2572  1.7340
  455MOL0     H60013   0.650   6.325   7.922 -3.1245  1.6752 -1.6649
  455MOL0     H60014   0.501   6.266   8.266  1.1478 -0.3564 -0.3068
  455MOL0     H60015   0.596   6.163   8.162  0.2933  0.9849 -0.2333
  455MOL0     H60016   0.362   6.138   8.067  1.6903 -0.3561  3.2931
  455MOL0     H60017   0.437   6.259   7.966  0.4997  2.9286  0.2898
  455MOL0     H60018   0.257   6.309   8.200 -0.7586 -2.0611  0.1380
  455MOL0     H60019   0.352   6.430   8.104  0.2146 -0.4061  0.8945
  455MOL0     H60020   0.230   6.358   7.891  0.4633  0.6217  0.3463
  455MOL0     H60021   0.121   6.411   8.017  0.7751  0.6444  0.3590
  455MOL0     H60022  -0.028   6.366   7.877  1.7477 -0.9718 -0.7094
  455MOL0     H60023  -0.252   6.310   7.805  0.8103  0.6176 -0.3180
  455MOL0     H60024  -0.575   5.943   7.670  0.4532 -0.2175  0.1880
  455MOL0     H60025  -0.807   5.904   7.624 -0.5014 -0.7365 -0.8836
  455MOL0     H60026  -1.119   5.974   7.930  1.4709 -0.0077  0.0344
  455MOL0     H60027  -1.090   5.799   7.933  0.6452  1.0228  0.6581
  455MOL0     H60028  -1.216   5.794   7.702  1.3446 -1.7403  1.9220
  455MOL0     H60029  -1.242   5.965   7.728 -0.1900 -0.5907  0.3442
  455MOL0     H60030  -1.353   5.898   7.943  0.3975  1.7527 -1.7379
  455MOL0     H60031  -1.348   5.730   7.889 -0.5143 -1.6736 -0.7814
  455MOL0     H60032  -1.478   5.971   7.748 -3.2847  0.8865  2.2059
  455MOL0     H60033  -1.463   5.800   7.680  0.5800  1.7785 -1.2456
  455MOL0     H60034  -1.604   5.833   7.947  0.0361  0.9325 -0.4994
  455MOL0     H60035  -1.614   5.711   7.825 -0.1607  0.1772  1.7850
  455MOL0     H60036  -1.712   5.995   7.785  0.7997  0.2736 -0.8485
  455MOL0     H60037  -1.821   5.854   7.824  2.5849 -1.5502  2.1357
  455MOL0     H60038  -1.698   5.940   7.561  1.3165 -1.7833  0.4414
  455MOL0     H60039  -1.682   5.774   7.591 -1.9767 -1.6707  0.1960
  455MOL0     H60040  -1.947   5.781   7.648  0.8599  1.0360  1.9080
  455MOL0     H60041  -1.883   5.799   7.485 -1.0709  2.0614 -1.0526
  455MOL0     H60042  -0.903   5.932   8.039  2.0785 -3.9297  2.0656
  455MOL0     H60043  -0.661   5.974   8.093 -1.7417 -0.2552  0.9910
  455MOL0     H60044  -0.222   5.920   7.983 -2.6772  1.5805  1.4577
  455MOL0     H60045   0.022   5.969   8.035 -0.7611 -0.3408  0.3031
  455MOL0     H60046   1.284   7.524   7.465  1.2632 -0.4933 -2.3322
  455MOL0     H60047   1.510   7.585   7.545  0.2711 -0.6137 -0.9356
  455MOL0     H60048   1.931   7.508   7.412 -0.0827  0.3243  0.6581
  455MOL0     H60049   2.154   7.610   7.411 -3.3389  1.6775 -1.1860
  455MOL0     H60050   2.323   7.728   7.809 -3.5022  3.4156  2.2884
  455MOL0     H60051   2.261   7.854   7.724  1.3291  0.0064  1.3295
  455MOL0     H60052   2.535   7.737   7.647  1.7167  1.3987  0.0014
  455MOL0     H60053   2.481   7.895   7.595  3.5010  0.9191  0.8681
  455MOL0     H60054   2.486   7.841   7.879 -1.2794  1.9242  0.8487
  455MOL0     H60055   2.507   7.990   7.781  1.2780 -0.1562 -0.8897
  455MOL0     H60056   2.713   7.758   7.801 -2.8989 -0.2925 -1.5377
  455MOL0     H60057   2.747   7.904   7.711  1.0261  1.5135  1.6706
  455MOL0     H60058   2.823   8.025   8.107 -1.9177  0.8109  0.2108
  455MOL0     H60059   2.123   7.644   7.847  0.4404 -0.3182  0.8214
  455MOL0     H60060   1.902   7.534   7.838 -3.5117  1.8877 -1.3842
  456MOL0     O60061   5.224   4.665   0.997  0.2336 -0.7177 -0.2005
  456MOL0     C60062   5.242   4.759   1.083  0.8171 -1.3632 -0.4267
  456MOL0     O60063   5.155   4.854   1.105 -0.0631  0.4593 -0.3422
  456MOL0     C60064   5.028   4.846   1.075  0.0010  0.3387 -0.2641
  456MOL0     C60065   4.950   4.731   1.090  0.4797 -0.2591  0.0279
  456MOL0     C60066   4.814   4.724   1.068  0.4119 -0.6999 -0.2115
  456MOL0     C60067   4.745   4.845   1.038  1.1598  1.3199 -0.4674
  456MOL0     O60068   4.610   4.863   1.025 -0.5911 -0.1270  0.1842
  456MOL0     C60069   4.521   4.785   1.098 -0.3008  0.3420 -0.3541
  456MOL0     C60070   4.394   4.860   1.125 -0.2692 -0.1004 -0.1147
  456MOL0     C60071   4.289   4.843   1.020  0.5039 -0.2327 -0.0620
  456MOL0     C60072   4.174   4.950   1.035 -0.1653  0.3405 -0.2429
  456MOL0     C60073   4.196   5.070   0.944 -0.4930  0.4039 -0.0873
  456MOL0     C60074   4.124   5.193   1.001  0.3730  0.2840 -1.0603
  456MOL0     C60075   4.213   5.299   1.071 -0.0722 -0.8874  0.3705
  456MOL0     C60076   4.155   5.437   1.081  0.2342  0.5243 -0.2429
  456MOL0     N60077   4.092   5.479   0.961 -0.5746  0.3166  0.4473
  456MOL0     C60078   3.956   5.516   0.934 -0.1470 -0.5052  0.3680
  456MOL0     C60079   3.963   5.580   0.813 -0.7019  0.5728  0.5383
  456MOL0     C60080   3.852   5.609   0.714  0.1650 -0.0760  0.2686
  456MOL0     C60081   3.760   5.483   0.679  0.2443 -0.8970  0.3312
  456MOL0     C60082   3.616   5.528   0.674  0.7719 -0.3115 -0.2200
  456MOL0     C60083   3.505   5.427   0.642  0.1455  0.2912 -0.2617
  456MOL0     O60084   3.445   5.374   0.759  0.0230  0.5805  0.2715
  456MOL0     C60085   3.374   5.261   0.728  0.2604  0.3111 -0.3810
  456MOL0     C60086   3.377   5.160   0.835  0.0824 -0.9598 -0.1841
  456MOL0     C60087   3.295   5.052   0.822  0.3233  0.0962 -0.5380
  456MOL0     C60088   3.232   5.015   0.705  0.2457 -0.1925  0.5736
  456MOL0     C60089   3.170   4.878   0.680  0.1083 -0.2038  0.2286
  456MOL0     O60090   3.110   4.862   0.559 -0.3596 -0.3817  0.6724
  456MOL0     C60091   3.048   4.745   0.538 -0.0423 -0.0253 -0.3777
  456MOL0     C60092   3.114   4.622   0.532 -0.0565  0.1047  0.4788
  456MOL0     C60093   3.044   4.517   0.478  0.6351  0.5449 -0.2254
  456MOL0     C60094   2.908   4.525   0.440  0.6211 -0.2502 -0.5037
  456MOL0     O60095   2.843   4.414   0.384 -0.7565 -0.0743 -0.1766
  456MOL0     C60096   2.710   4.408   0.338 -0.3765 -0.8117 -0.2852
  456MOL0     C60097   2.616   4.417   0.461  0.0265  0.1172 -0.0680
  456MOL0     C60098   2.546   4.284   0.501  0.2689  0.0317 -0.2480
  456MOL0     C60099   2.469   4.293   0.629  0.6438 -0.6136  0.3074
  456MOL0     C60100   2.386   4.179   0.659  0.2449 -0.2193  0.2957
  456MOL0     C60101   2.323   4.190   0.797 -0.5347  0.0813 -0.5992
  456MOL0     C60102   2.241   4.063   0.819  1.4702  0.6141 -0.1250
  456MOL0     C60103   2.145   4.068   0.944  0.4803 -0.0985  0.3598
  456MOL0    Cl60104   2.036   4.208   0.926  0.1427  0.3238  0.5506
  456MOL0     C60105   2.842   4.646   0.454 -0.6704  0.1552 -0.1202
  456MOL0     C60106   2.921   4.752   0.499 -0.3881 -0.7266  0.0844
  456MOL0     O60107   3.177   4.791   0.766  0.0587  0.5707  0.3406
  456MOL0     C60108   3.220   5.118   0.607 -0.2133 -0.9802  0.0864
  456MOL0     C60109   3.289   5.243   0.618  0.1649  0.8173 -1.9778
  456MOL0     N60110   4.095   5.594   0.778 -0.1819 -0.5548 -0.3785
  456MOL0     N60111   4.172   5.534   0.860  0.1206  0.3822  0.4769
  456MOL0     C60112   4.819   4.966   1.030 -0.0064 -0.3138  0.1701
  456MOL0     C60113   4.959   4.965   1.046  0.6169 -0.4074 -0.3168
  456MOL0     C60114   5.360   4.771   1.174 -0.4148 -0.2466  0.5658
  456MOL0     C60115   5.390   4.888   1.248  0.1835  0.9983  0.2519
  456MOL0     C60116   5.519   4.899   1.313 -0.7845  0.1740 -0.3580
  456MOL0     C60117   5.614   4.801   1.311  0.1317 -0.8901  1.2695
  456MOL0     O60118   5.731   4.788   1.389 -0.3734 -0.3241  0.3761
  456MOL0     C60119   5.782   4.909   1.438  0.2332  0.7318 -0.6303
  456MOL0     C60120   5.915   4.876   1.482  1.0434  0.1908 -0.2542
  456MOL0     C60121   6.007   4.998   1.521  0.1802  0.7725 -0.6043
  456MOL0     C60122   6.143   4.932   1.545 -0.0404  0.4397 -0.5382
  456MOL0     C60123   6.226   5.027   1.605  0.2078  0.0490  0.4662
  456MOL0     C60124   6.310   5.104   1.660  0.7998 -0.3904 -0.4728
  456MOL0     C60125   5.573   4.688   1.239  0.0908 -0.5094 -0.2345
  456MOL0     C60126   5.448   4.664   1.178 -0.7376 -0.0638  0.1836
  456MOL0     H60127   4.999   4.636   1.109  0.9343 -0.4884 -2.0590
  456MOL0     H60128   4.768   4.626   1.068  0.0027 -0.5119 -0.5694
  456MOL0     H60129   4.574   4.751   1.187  0.3846  2.6495  0.1776
  456MOL0     H60130   4.493   4.705   1.029 -0.2479  0.9529 -1.1006
  456MOL0     H60131   4.424   4.964   1.141  1.2351 -0.1744 -2.0903
  456MOL0     H60132   4.358   4.833   1.225 -1.1127  1.4327  0.0327
  456MOL0     H60133   4.249   4.742   1.032  2.1471 -0.7549  1.3142
  456MOL0     H60134   4.331   4.854   0.919 -1.9757 -0.4742 -1.1945
  456MOL0     H60135   4.082   4.899   1.007 -1.6136  1.2981  2.4387
  456MOL0     H60136   4.152   4.979   1.138 -1.9327 -0.9770 -0.2025
  456MOL0     H60137   4.159   5.064   0.841  1.0312  4.2674 -1.0472
  456MOL0     H60138   4.302   5.095   0.933 -0.6758  0.6557 -1.3940
  456MOL0     H60139   4.053   5.173   1.082  1.5190 -0.0087 -0.0923
  456MOL0     H60140   4.059   5.236   0.925  1.4788  0.8552 -1.7070
  456MOL0     H60141   4.229   5.268   1.175  1.9946  0.7877  0.6340
  456MOL0     H60142   4.305   5.307   1.011  1.1542  0.9984  2.3239
  456MOL0     H60143   4.239   5.501   1.107  1.0746 -0.3372 -0.7435
  456MOL0     H60144   4.084   5.423   1.163  0.8012  0.6328  0.2699
  456MOL0     H60145   3.866   5.493   0.990 -1.4953  1.3532 -0.9522
  456MOL0     H60146   3.899   5.649   0.624 -0.1901 -3.3972 -1.5909
  456MOL0     H60147   3.789   5.692   0.747 -0.0657 -0.6604  1.3641
  456MOL0     H60148   3.776   5.405   0.754 -1.5534 -0.5823  1.1096
  456MOL0     H60149   3.797   5.441   0.585  2.7023  0.7469  0.4764
  456MOL0     H60150   3.586   5.576   0.768  1.2074 -2.2039  0.9216
  456MOL0     H60151   3.606   5.601   0.593  0.3783  0.6213  0.6446
  456MOL0     H60152   3.537   5.347   0.575 -0.9337  1.1881 -1.9148
  456MOL0     H60153   3.427   5.482   0.589 -0.1210 -1.4954 -1.8280
  456MOL0     H60154   3.444   5.176   0.920  3.0494 -2.7539 -2.0208
  456MOL0     H60155   3.296   4.983   0.906  0.0167  1.6934  0.8366
  456MOL0     H60156   3.215   4.616   0.570 -0.1290  0.4220  0.7304
  456MOL0     H60157   3.097   4.426   0.451  0.7012  0.9375 -1.4988
  456MOL0     H60158   2.683   4.333   0.263 -2.0382  0.1153 -0.6687
  456MOL0     H60159   2.695   4.507   0.292  0.6402  0.4959  2.0229
  456MOL0     H60160   2.533   4.487   0.447  0.2170  0.2677 -0.4403
  456MOL0     H60161   2.674   4.458   0.544 -1.9426 -0.1491  1.5151
  456MOL0     H60162   2.626   4.209   0.509  1.7855  1.6590  0.5720
  456MOL0     H60163   2.467   4.262   0.429  0.0509 -0.8530  0.2420
  456MOL0     H60164   2.546   4.293   0.706  0.6046  1.7689  0.4152
  456MOL0     H60165   2.418   4.390   0.636  2.3262  0.4076 -0.8815
  456MOL0     H60166   2.429   4.079   0.649  0.9075  0.1079 -0.2082
  456MOL0     H60167   2.307   4.183   0.584 -0.4785 -1.5702  0.9402
  456MOL0     H60168   2.262   4.280   0.805 -3.0238 -1.5551  0.3793
  456MOL0     H60169   2.401   4.190   0.873 -0.4311  0.3928 -0.7070
  456MOL0     H60170   2.168   4.051   0.739 -0.3909 -1.5687  1.7748
  456MOL0     H60171   2.303   3.975   0.838 -0.6805 -0.6412  1.4525
  456MOL0     H60172   2.214   4.092   1.025 -0.6547  2.8768  0.5707
  456MOL0     H60173   2.100   3.970   0.959  0.4871 -0.3941 -1.3894
  456MOL0     H60174   2.740   4.671   0.427 -1.2967 -1.7506  0.2649
  456MOL0     H60175   2.884   4.852   0.481  0.6590 -0.0259  1.6572
  456MOL0     H60176   3.161   5.087   0.521 -3.0061 -1.5193  2.0394
  456MOL0     H60177   3.285   5.320   0.542 -3.1810  1.0104 -1.7589
  456MOL0     H60178   4.768   5.052   0.990  0.5114  1.1153  2.3769
  456MOL0     H60179   5.009   5.062   1.040 -1.6643  0.8102 -0.7965
  456MOL0     H60180   5.316   4.967   1.249 -2.6150 -1.4063 -0.3955
  456MOL0     H60181   5.549   4.989   1.367  0.9568 -0.2781 -0.5025
  456MOL0     H60182   5.713   4.950   1.512 -0.4153  1.6047 -1.6869
  456MOL0     H60183   5.800   4.981   1.357 -1.8853 -1.6179 -3.3993
  456MOL0     H60184   5.915   4.795   1.556 -1.0847  0.9400  0.6224
  456MOL0     H60185   5.959   4.840   1.388 -1.3186 -2.2946 -0.5214
  456MOL0     H60186   5.964   5.044   1.611  0.8930 -0.9910  0.6663
  456MOL0     H60187   6.012   5.066   1.435  3.0616 -0.7135 -1.7403
  456MOL0     H60188   6.135   4.849   1.616 -0.4039 -0.6381 -1.8017
  456MOL0     H60189   6.197   4.893   1.458  1.5809  0.3746  0.4621
  456MOL0     H60190   6.401   5.151   1.692 -1.6088  2.8585  2.4094
  456MOL0     H60191   5.640   4.603   1.229  0.5598 -0.6362  2.9958
  456MOL0     H60192   5.432   4.563   1.143  2.2330  0.0671 -1.9815
  457MOL0     O60193   1.562   4.107   8.316  0.4189 -0.4856  0.0153
  457MOL0     C60194   1.661   4.039   8.325 -0.3829  0.0775 -0.0532
  457MOL0     O60195   1.697   3.963   8.436 -1.1157  1.5747 -0.5731
  457MOL0     C60196   1.630   3.952   8.560 -0.4646  0.3766 -0.2120
  457MOL0     C60197   1.708   3.924   8.673  0.3639  0.6709 -0.2446
  457MOL0     C60198   1.651   3.907   8.804 -1.4255  0.6748 -0.3551
  457MOL0     C60199   1.518   3.920   8.820 -0.1447 -0.7278  0.7488
  457MOL0     O60200   1.453   3.901   8.931  0.0054 -0.5881 -0.0059
  457MOL0     C60201   1.444   4.003   9.027 -0.2765 -1.3135  0.4242
  457MOL0     C60202   1.320   3.992   9.121 -0.2158 -0.3233  0.5995
  457MOL0     C60203   1.194   3.998   9.039 -0.3349  0.5992 -0.3775
  457MOL0     C60204   1.158   4.140   8.975  0.6304 -0.3571  0.0811
  457MOL0     C60205   1.021   4.135   8.908 -0.8975 -0.3961  0.3415
  457MOL0     C60206   0.991   4.274   8.844  0.4526  0.0729  0.6204
  457MOL0     C60207   0.840   4.279   8.795  0.9867  0.7676 -0.1385
  457MOL0     C60208   0.794   4.169   8.694  0.5707  0.0493  0.6968
  457MOL0     N60209   0.657   4.173   8.631 -0.2396 -0.4553 -0.4587
  457MOL0     C60210   0.569   4.278   8.625  0.1884 -0.1236 -0.1357
  457MOL0     C60211   0.481   4.231   8.537 -0.9680 -0.4007  0.2535
  457MOL0     C60212   0.365   4.322   8.500  0.4978  0.3473 -0.2702
  457MOL0     C60213   0.229   4.242   8.487 -0.1239  0.4457 -0.4645
  457MOL0     C60214   0.157   4.198   8.616  0.2885 -0.0782 -0.0145
  457MOL0     C60215   0.182   4.060   8.668 -0.1929  0.4428 -0.6153
  457MOL0     O60216   0.121   4.035   8.799  0.0649 -0.1411 -0.2528
  457MOL0     C60217  -0.007   3.984   8.800 -0.3401  0.2482 -0.5811
  457MOL0     C60218  -0.108   3.999   8.705  0.0368 -0.5843 -1.1043
  457MOL0     C60219  -0.237   3.974   8.738  0.5266 -0.4394 -1.0891
  457MOL0     C60220  -0.279   3.923   8.862 -0.0546 -0.8378  0.2884
  457MOL0     C60221  -0.424   3.903   8.886 -0.1261 -0.2749 -0.3951
  457MOL0     O60222  -0.514   3.949   8.793  0.1130  0.0146  1.1418
  457MOL0     C60223  -0.636   3.991   8.836  0.1480  0.2201  0.2200
  457MOL0     C60224  -0.728   3.904   8.885 -0.0748  0.5257 -0.1988
  457MOL0     C60225  -0.858   3.952   8.936 -0.0023 -0.0200 -0.0968
  457MOL0     C60226  -0.888   4.092   8.930 -0.6704 -0.0982  0.5730
  457MOL0     O60227  -1.009   4.138   8.978  0.8478  0.1108 -0.0983
  457MOL0     C60228  -1.039   4.280   8.979 -0.4109  0.0035 -0.8932
  457MOL0     C60229  -1.172   4.329   9.033  0.2167 -0.2700  0.3844
  457MOL0     C60230  -1.172   4.479   9.015 -1.2837 -0.9238 -0.7449
  457MOL0     C60231  -1.306   4.527   9.058  0.4108 -1.0742 -0.6124
  457MOL0     C60232  -1.303   4.688   9.043 -0.2662 -0.4607  1.2377
  457MOL0     C60233  -1.327   4.739   8.897 -0.3721  0.5838  0.1356
  457MOL0     C60234  -1.456   4.692   8.826 -0.6102 -0.4575 -0.0013
  457MOL0     C60235  -1.579   4.773   8.872 -0.8084  0.2022 -0.0348
  457MOL0    Cl60236  -1.567   4.956   8.841  0.1987  0.2640 -0.2380
  457MOL0     C60237  -0.782   4.172   8.883  0.7833 -0.1411  1.2267
  457MOL0     C60238  -0.662   4.131   8.839 -0.7570  0.7258 -0.2644
  457MOL0     O60239  -0.445   3.866   9.001  0.7391  0.1049 -0.2324
  457MOL0     C60240  -0.175   3.897   8.955  0.7183  0.0898  1.3515
  457MOL0     C60241  -0.041   3.923   8.930  0.8071  0.2376  0.3507
  457MOL0     N60242   0.515   4.105   8.488 -0.0568  0.5767 -0.3229
  457MOL0     N60243   0.621   4.072   8.551  0.0404 -0.2767 -0.6297
  457MOL0     C60244   1.434   3.963   8.715 -0.5795 -0.6735  0.7068
  457MOL0     C60245   1.491   3.974   8.580 -0.0641  0.4556  0.1704
  457MOL0     C60246   1.751   4.047   8.208 -0.0133 -0.3999  0.4542
  457MOL0     C60247   1.879   3.997   8.216 -1.0918  0.2347 -0.7891
  457MOL0     C60248   1.964   3.993   8.100  0.3032  0.8680 -0.6233
  457MOL0     C60249   1.914   4.031   7.974 -0.3514 -0.3463  0.9313
  457MOL0     O60250   1.994   4.008   7.860 -0.2831  0.4708 -0.2326
  457MOL0     C60251   2.004   4.113   7.767 -0.0886  0.7048  0.2230
  457MOL0     C60252   1.978   4.067   7.623 -0.1116 -0.1885 -0.1159
  457MOL0     C60253   1.847   4.000   7.611  0.4079 -0.8667  0.8707
  457MOL0     C60254   1.829   3.935   7.468 -0.4627  0.3359 -0.4748
  457MOL0     C60255   1.710   3.849   7.451 -0.2551 -0.2309 -0.2142
  457MOL0     C60256   1.619   3.774   7.432  1.1026 -1.0418 -0.9194
  457MOL0     C60257   1.786   4.079   7.968  0.1490  0.1299 -0.0409
  457MOL0     C60258   1.703   4.098   8.084  0.7680  0.4560  0.3882
  457MOL0     H60259   1.810   3.892   8.655 -0.6669 -2.2646 -1.3451
  457MOL0     H60260   1.712   3.863   8.882 -1.0868 -0.3707 -1.1760
  457MOL0     H60261   1.436   4.093   8.966  2.6251 -0.5908  0.9652
  457MOL0     H60262   1.537   4.021   9.082 -0.7595 -0.5754  1.0148
  457MOL0     H60263   1.325   4.067   9.200 -2.1335  0.1235  0.3539
  457MOL0     H60264   1.320   3.889   9.160  0.1685 -2.0852 -3.5766
  457MOL0     H60265   1.109   3.959   9.095 -0.9761 -1.2797 -2.4975
  457MOL0     H60266   1.198   3.926   8.957 -1.2636 -0.5535  0.5487
  457MOL0     H60267   1.151   4.217   9.053  0.6419 -0.6703  0.3945
  457MOL0     H60268   1.233   4.174   8.904  0.4401 -2.8150 -1.4164
  457MOL0     H60269   0.944   4.122   8.985 -1.4876  2.4476  0.3385
  457MOL0     H60270   1.013   4.053   8.836 -0.0976 -1.6095  1.5776
  457MOL0     H60271   1.052   4.295   8.756 -3.6097 -3.2105 -3.5018
  457MOL0     H60272   1.007   4.345   8.926  0.6958 -0.9555  1.4848
  457MOL0     H60273   0.775   4.252   8.880  1.2320 -0.2085 -0.2414
  457MOL0     H60274   0.821   4.378   8.755  0.1419 -0.3276 -2.6612
  457MOL0     H60275   0.817   4.067   8.724  2.5605  0.7590  1.7760
  457MOL0     H60276   0.862   4.181   8.608  1.3161  0.5874  1.3486
  457MOL0     H60277   0.582   4.380   8.658  1.9605  0.9054 -3.5505
  457MOL0     H60278   0.395   4.352   8.400  0.5955  0.2927 -0.2566
  457MOL0     H60279   0.365   4.408   8.568  1.3632 -0.4968  0.8435
  457MOL0     H60280   0.246   4.151   8.429 -1.6084  0.5350 -1.0915
  457MOL0     H60281   0.162   4.307   8.429 -2.0482 -0.2475  0.8804
  457MOL0     H60282   0.195   4.265   8.694  1.2252 -1.6420  0.9338
  457MOL0     H60283   0.049   4.215   8.614  0.2137 -0.5852 -0.2509
  457MOL0     H60284   0.290   4.050   8.678  0.0816  3.9508  1.6305
  457MOL0     H60285   0.143   3.985   8.599 -0.9151  1.4547 -1.3494
  457MOL0     H60286  -0.078   4.042   8.610 -0.9834  0.6441 -0.8940
  457MOL0     H60287  -0.309   4.003   8.663 -1.3691 -6.3301 -2.0478
  457MOL0     H60288  -0.703   3.799   8.897  0.9078  0.9290  1.7110
  457MOL0     H60289  -0.927   3.897   8.999 -0.2596  1.6660  1.1914
  457MOL0     H60290  -1.021   4.318   8.878  0.6083  1.4900 -0.1924
  457MOL0     H60291  -0.961   4.333   9.034 -2.3139  0.3157  1.7090
  457MOL0     H60292  -1.190   4.309   9.138  0.4379  0.3496  0.5473
  457MOL0     H60293  -1.255   4.296   8.970 -0.3995  0.4648  0.8023
  457MOL0     H60294  -1.150   4.516   8.914 -1.2864 -0.5677 -0.6166
  457MOL0     H60295  -1.095   4.515   9.085 -2.5233 -1.3691  0.8896
  457MOL0     H60296  -1.390   4.477   9.009 -0.3708  0.3195 -0.7722
  457MOL0     H60297  -1.319   4.511   9.165 -2.6615 -1.1793 -0.9080
  457MOL0     H60298  -1.203   4.730   9.051 -1.0414  1.6953  0.2591
  457MOL0     H60299  -1.363   4.725   9.126 -1.0094  2.0922 -0.3293
  457MOL0     H60300  -1.244   4.702   8.836  1.5669  0.7938  2.5421
  457MOL0     H60301  -1.324   4.847   8.883  1.5808  0.8492  2.1334
  457MOL0     H60302  -1.438   4.718   8.721  2.2676 -0.6907  0.3511
  457MOL0     H60303  -1.474   4.585   8.836 -1.5536 -0.0774  3.6861
  457MOL0     H60304  -1.602   4.745   8.975  3.9440  1.9917  1.8266
  457MOL0     H60305  -1.672   4.743   8.823 -0.0545  2.6746 -3.2734
  457MOL0     H60306  -0.788   4.280   8.868  1.2254 -0.4765 -1.8791
  457MOL0     H60307  -0.581   4.198   8.814 -1.1381  0.7241 -1.5882
  457MOL0     H60308  -0.204   3.853   9.050 -0.7452  0.9999  1.3471
  457MOL0     H60309   0.042   3.904   8.998  1.6503 -1.2994 -1.0263
  457MOL0     H60310   1.329   3.980   8.737 -0.0106  3.0638  1.1262
  457MOL0     H60311   1.422   4.017   8.508  0.3356 -0.5518 -0.8435
  457MOL0     H60312   1.919   3.957   8.308 -2.9359 -1.6180 -0.7395
  457MOL0     H60313   2.061   3.944   8.111  0.2729  1.3680  3.3101
  457MOL0     H60314   2.107   4.150   7.776 -0.5838  2.1302  0.2598
  457MOL0     H60315   1.946   4.200   7.797 -0.5971  0.7727 -0.9084
  457MOL0     H60316   1.979   4.153   7.555  0.6746 -0.7055 -0.7732
  457MOL0     H60317   2.058   3.995   7.607 -0.0795 -0.3498  0.7452
  457MOL0     H60318   1.768   4.072   7.632 -0.7737 -1.7261 -0.4945
  457MOL0     H60319   1.828   3.922   7.686 -0.7361 -2.5992 -1.1245
  457MOL0     H60320   1.822   4.017   7.395 -2.1888  1.7320  1.1416
  457MOL0     H60321   1.917   3.876   7.444  0.0485  0.1837  1.6202
  457MOL0     H60322   1.533   3.714   7.409 -1.7603  0.8028  3.5901
  457MOL0     H60323   1.741   4.110   7.875 -0.8112 -1.9872 -0.3430
  457MOL0     H60324   1.604   4.142   8.076  1.0868  0.9285 -1.4315
  458MOL0     O60325   2.350   0.678   2.121 -0.1136  0.5492  0.8723
  458MOL0     C60326   2.414   0.582   2.172  0.2840  0.6124 -0.1693
  458MOL0     O60327   2.366   0.507   2.285  0.2664 -0.4692  1.2287
  458MOL0     C60328   2.246   0.533   2.349 -0.3405 -0.2087  0.1251
  458MOL0     C60329   2.193   0.417   2.403 -0.5374  0.5040  0.2005
  458MOL0     C60330   2.069   0.414   2.450 -0.4921  0.1464  0.6122
  458MOL0     C60331   1.993   0.530   2.469  0.3172  0.3172  0.6697
  458MOL0     O60332   1.867   0.515   2.517 -0.3452  1.0817 -0.5388
  458MOL0     C60333   1.785   0.624   2.575  0.3706 -0.6387 -0.6104
  458MOL0     C60334   1.650   0.560   2.566  0.2140 -0.7367 -0.3907
  458MOL0     C60335   1.542   0.653   2.618  1.0058 -0.0428  0.0874
  458MOL0     C60336   1.527   0.789   2.549  0.1575  0.2091  0.0848
  458MOL0     C60337   1.427   0.881   2.623 -0.1715 -0.0387  1.3251
  458MOL0     C60338   1.276   0.858   2.607 -0.1299 -0.2128  1.2749
  458MOL0     C60339   1.190   0.939   2.699 -0.1123  0.8093  1.0587
  458MOL0     C60340   1.166   1.086   2.665 -0.3147 -0.7578  0.7364
  458MOL0     N60341   1.043   1.095   2.587  0.0156  0.7396  0.6493
  458MOL0     C60342   0.950   1.200   2.587 -0.2810  0.6294  0.0983
  458MOL0     C60343   0.887   1.185   2.467  0.7460  0.1849 -0.1107
  458MOL0     C60344   0.769   1.265   2.410 -1.6027  0.7483  0.5822
  458MOL0     C60345   0.767   1.414   2.452  0.0441 -0.0748  0.0442
  458MOL0     C60346   0.629   1.474   2.442  0.3283 -0.8975  0.6584
  458MOL0     C60347   0.601   1.628   2.479 -0.5386  0.1529  0.4279
  458MOL0     O60348   0.635   1.652   2.614  0.0341  0.1378 -0.4068
  458MOL0     C60349   0.621   1.773   2.677  0.5767  0.3791 -0.0639
  458MOL0     C60350   0.652   1.762   2.812 -0.3952  0.0644 -0.4976
  458MOL0     C60351   0.628   1.877   2.889  0.5970 -0.2468  0.5597
  458MOL0     C60352   0.601   1.999   2.826 -0.0455  0.3361  0.1206
  458MOL0     C60353   0.577   2.123   2.909 -1.0295  0.4925  0.1790
  458MOL0     O60354   0.520   2.231   2.857 -0.0625  0.3984  0.6213
  458MOL0     C60355   0.480   2.349   2.923  0.6989  0.3374 -0.3308
  458MOL0     C60356   0.524   2.394   3.049 -0.3453 -0.7202  0.0366
  458MOL0     C60357   0.488   2.521   3.094  0.5525 -0.4612  0.1705
  458MOL0     C60358   0.392   2.596   3.015  0.2973  0.2719  0.4318
  458MOL0     O60359   0.365   2.723   3.062  0.0883 -0.6053 -0.3356
  458MOL0     C60360   0.302   2.808   2.969  0.8233 -0.9743 -0.0046
  458MOL0     C60361   0.248   2.925   3.061  0.4165 -0.0578 -0.5672
  458MOL0     C60362   0.137   2.882   3.156 -0.0197  0.5838  0.2849
  458MOL0     C60363   0.056   2.999   3.197  0.3559 -0.2918  0.1332
  458MOL0     C60364  -0.059   2.978   3.292 -0.3222  1.2630  0.4606
  458MOL0     C60365  -0.102   3.110   3.339  0.2207 -0.3614  0.4851
  458MOL0     C60366  -0.222   3.095   3.432  0.7223 -0.3660 -0.1648
  458MOL0     C60367  -0.317   3.206   3.417  0.2712  0.5608 -0.9578
  458MOL0    Cl60368  -0.466   3.193   3.525 -0.2337  0.5896  0.1890
  458MOL0     C60369   0.335   2.545   2.899 -0.2959  0.1765  0.1188
  458MOL0     C60370   0.381   2.426   2.855  1.1437 -0.5754  0.3188
  458MOL0     O60371   0.614   2.117   3.025 -0.1068 -0.3927 -0.7517
  458MOL0     C60372   0.568   2.003   2.688 -0.2434 -0.1560  0.1461
  458MOL0     C60373   0.582   1.889   2.612 -0.0378  0.2616 -0.2247
  458MOL0     N60374   0.935   1.073   2.403  0.5058 -0.5277 -0.9150
  458MOL0     N60375   1.033   1.029   2.469  0.1949 -0.3021 -0.0707
  458MOL0     C60376   2.047   0.650   2.420  0.1107 -0.3622  0.3700
  458MOL0     C60377   2.171   0.652   2.355 -0.4595  0.2698 -0.3252
  458MOL0     C60378   2.537   0.544   2.097  0.2908 -0.7024  0.4474
  458MOL0     C60379   2.609   0.422   2.125  0.1929  0.1235 -1.1702
  458MOL0     C60380   2.724   0.395   2.052  0.2233 -0.7229 -0.6280
  458MOL0     C60381   2.755   0.475   1.939  0.3181  0.6416  0.7439
  458MOL0     O60382   2.859   0.425   1.864 -0.4349 -0.6584  0.3936
  458MOL0     C60383   2.884   0.490   1.742 -0.9940  0.0258  0.4175
  458MOL0     C60384   2.967   0.412   1.643 -0.2797 -0.3368  0.7945
  458MOL0     C60385   3.115   0.411   1.682  0.8243  0.6135 -0.2933
  458MOL0     C60386   3.142   0.299   1.784  0.5991 -0.0398 -0.8809
  458MOL0     C60387   3.290   0.301   1.798  0.3249  0.6682 -0.3417
  458MOL0     C60388   3.416   0.301   1.803  0.0446  0.1449  0.1962
  458MOL0     C60389   2.687   0.593   1.912  0.9475  0.5024 -0.8611
  458MOL0     C60390   2.576   0.622   1.987 -0.6297 -0.2178 -0.6405
  458MOL0     H60391   2.246   0.324   2.388  2.3122  2.1423 -0.6916
  458MOL0     H60392   2.020   0.323   2.484  0.8916 -1.5338 -1.5531
  458MOL0     H60393   1.806   0.718   2.522  0.9178 -0.5171 -0.1853
  458MOL0     H60394   1.815   0.645   2.678 -1.3716 -0.5435 -0.0915
  458MOL0     H60395   1.633   0.464   2.616 -0.9836 -1.0677 -1.3716
  458MOL0     H60396   1.630   0.544   2.460 -0.1943 -0.6231 -0.3329
  458MOL0     H60397   1.545   0.671   2.726 -0.5550 -3.4779  0.8416
  458MOL0     H60398   1.449   0.597   2.606  1.1725 -0.0915 -1.1639
  458MOL0     H60399   1.625   0.837   2.542  0.5830 -0.3470  1.8441
  458MOL0     H60400   1.498   0.778   2.444 -3.4853 -2.2659  1.1559
  458MOL0     H60401   1.458   0.984   2.600  2.5978 -0.4301  2.8989
  458MOL0     H60402   1.457   0.863   2.727 -1.0268 -0.2550  1.5424
  458MOL0     H60403   1.249   0.754   2.628  0.0341  0.1460  3.5887
  458MOL0     H60404   1.246   0.873   2.503 -0.3026 -0.9176  1.2168
  458MOL0     H60405   1.100   0.881   2.719 -1.7296  2.3046 -1.4057
  458MOL0     H60406   1.243   0.947   2.795  2.2308  0.1855 -0.1025
  458MOL0     H60407   1.253   1.120   2.608 -0.2558  0.4782  1.5425
  458MOL0     H60408   1.144   1.136   2.759  2.6821  0.6133  0.8277
  458MOL0     H60409   0.932   1.283   2.654  1.6640  1.1826 -0.0154
  458MOL0     H60410   0.677   1.214   2.441 -1.4238 -0.8374 -1.3368
  458MOL0     H60411   0.763   1.254   2.302  2.9911  0.8550  0.1404
  458MOL0     H60412   0.833   1.462   2.380  1.3058 -1.1323  0.4497
  458MOL0     H60413   0.815   1.423   2.550  0.7203 -0.2468 -0.2699
  458MOL0     H60414   0.594   1.464   2.339  0.8412  1.0844  0.2387
  458MOL0     H60415   0.563   1.412   2.503 -0.7471 -1.0818 -0.6583
  458MOL0     H60416   0.499   1.656   2.452 -0.7708 -0.0182  1.1248
  458MOL0     H60417   0.670   1.690   2.422  2.2514 -2.0826  1.1564
  458MOL0     H60418   0.687   1.664   2.842 -2.5717 -1.2328 -1.8922
  458MOL0     H60419   0.643   1.873   2.996 -3.3507  0.9571  1.3187
  458MOL0     H60420   0.607   2.346   3.100  0.0778 -1.7378 -1.5379
  458MOL0     H60421   0.525   2.570   3.184 -0.8260 -1.8544  1.5577
  458MOL0     H60422   0.208   2.776   2.924 -1.2054 -1.1204  3.9236
  458MOL0     H60423   0.369   2.839   2.888  0.1650 -1.9506 -0.9477
  458MOL0     H60424   0.214   3.014   3.007 -4.2328 -0.8046  0.7806
  458MOL0     H60425   0.328   2.968   3.123 -0.3767  1.3853 -0.5096
  458MOL0     H60426   0.178   2.835   3.246 -0.3315 -3.0910 -1.3214
  458MOL0     H60427   0.069   2.808   3.113  0.5045 -0.4012  1.1141
  458MOL0     H60428   0.118   3.080   3.237  2.2166 -2.2727  1.4864
  458MOL0     H60429   0.019   3.043   3.104  0.2494  1.7459  1.0861
  458MOL0     H60430  -0.025   2.930   3.384 -0.1166  0.1179 -0.2042
  458MOL0     H60431  -0.143   2.921   3.252 -1.5756  0.8898  3.3429
  458MOL0     H60432  -0.127   3.171   3.252 -1.8550 -2.3253 -0.4156
  458MOL0     H60433  -0.018   3.157   3.391  1.5055  0.1545 -1.9149
  458MOL0     H60434  -0.279   3.005   3.406 -0.5447  0.3083  0.1964
  458MOL0     H60435  -0.180   3.095   3.533  2.9009 -0.2314 -1.0026
  458MOL0     H60436  -0.356   3.210   3.315 -1.2123  1.9016 -0.3928
  458MOL0     H60437  -0.270   3.302   3.440 -0.9695  1.4372 -1.9270
  458MOL0     H60438   0.271   2.601   2.831 -0.0602 -1.2867 -1.3683
  458MOL0     H60439   0.348   2.387   2.759  1.3360 -0.8452  0.3588
  458MOL0     H60440   0.527   2.094   2.646 -2.2900 -0.7000  0.8741
  458MOL0     H60441   0.546   1.888   2.509  0.9738  1.0916 -0.6046
  458MOL0     H60442   1.990   0.742   2.422 -1.7137 -1.4570  0.4811
  458MOL0     H60443   2.218   0.740   2.312  2.9247  0.0253  2.4066
  458MOL0     H60444   2.564   0.355   2.198 -0.0291  1.7111  0.1957
  458MOL0     H60445   2.770   0.298   2.063  0.9586 -0.2756  0.4127
  458MOL0     H60446   2.945   0.580   1.755  4.2167 -3.2630  1.5521
  458MOL0     H60447   2.792   0.508   1.684 -1.7012 -0.7401  1.2638
  458MOL0     H60448   2.925   0.314   1.621 -3.5300  0.2707  3.4881
  458MOL0     H60449   2.965   0.464   1.547  0.1926 -0.2002  0.8535
  458MOL0     H60450   3.147   0.506   1.725  0.8919 -0.1006  1.3272
  458MOL0     H60451   3.169   0.395   1.589 -0.2581  2.1090 -1.2154
  458MOL0     H60452   3.104   0.321   1.885  1.1262  1.0275 -0.8944
  458MOL0     H60453   3.100   0.204   1.751  2.5139 -1.3107  0.1417
  458MOL0     H60454   3.522   0.313   1.812  0.4537  0.5442 -3.4884
  458MOL0     H60455   2.724   0.654   1.830  0.8643 -0.7583 -1.8631
  458MOL0     H60456   2.521   0.713   1.966 -1.2277 -0.3555  0.2826
  459MOL0     O60457   8.897   4.305   3.130  0.1115 -0.1166 -0.2535
  459MOL0     C60458   8.902   4.400   3.045 -0.5670  0.0582  0.1203
  459MOL0     O60459   8.824   4.510   3.047  0.3134  0.9070 -0.0969
  459MOL0     C60460   8.712   4.525   3.127  0.6758  0.4713  0.3577
  459MOL0     C60461   8.661   4.452   3.236  0.7270  0.0137  0.5836
  459MOL0     C60462   8.537   4.497   3.297 -0.8150  0.2870  0.1118
  459MOL0     C60463   8.467   4.621   3.256 -0.3000  0.8888 -0.2658
  459MOL0     O60464   8.351   4.663   3.314  0.3571 -0.8784  0.6784
  459MOL0     C60465   8.339   4.647   3.451  0.4221  0.2607 -1.1475
  459MOL0     C60466   8.216   4.707   3.514 -0.5475 -0.3898 -0.3186
  459MOL0     C60467   8.194   4.672   3.664  0.6398 -0.3751  0.0135
  459MOL0     C60468   8.069   4.737   3.729  0.5666 -0.0754 -0.1690
  459MOL0     C60469   8.060   4.695   3.881 -0.2077 -0.7702 -0.3011
  459MOL0     C60470   7.908   4.714   3.926 -0.0506  0.0847  0.0896
  459MOL0     C60471   7.832   4.589   3.889  0.2430  0.1122 -0.0071
  459MOL0     C60472   7.684   4.590   3.915  0.2358  0.6512 -0.3768
  459MOL0     N60473   7.644   4.632   4.057  0.2336 -0.4244  0.7480
  459MOL0     C60474   7.612   4.760   4.096  0.1014  0.1979  1.1975
  459MOL0     C60475   7.556   4.744   4.221 -0.6092 -0.2200  0.3722
  459MOL0     C60476   7.508   4.877   4.290  0.2784 -0.4301  0.1528
  459MOL0     C60477   7.407   4.838   4.407  0.6987 -0.2358  0.3983
  459MOL0     C60478   7.348   4.966   4.476  0.1250 -0.1517 -1.0185
  459MOL0     C60479   7.253   4.938   4.588  0.3472  0.8058 -1.2973
  459MOL0     O60480   7.125   4.896   4.540  0.4382 -0.2422  0.6399
  459MOL0     C60481   7.026   4.882   4.632 -0.4820 -0.4684  0.0110
  459MOL0     C60482   7.044   4.881   4.777 -0.0442  0.6827  0.1471
  459MOL0     C60483   6.927   4.857   4.852 -0.1656 -0.0804 -0.4224
  459MOL0     C60484   6.798   4.849   4.795 -0.4716  0.0527  0.0005
  459MOL0     C60485   6.675   4.832   4.874 -0.8146  0.1674  0.8452
  459MOL0     O60486   6.578   4.735   4.839  0.4522 -0.7169 -0.8885
  459MOL0     C60487   6.458   4.733   4.906  0.7840  0.8641  0.5489
  459MOL0     C60488   6.416   4.613   4.962  0.1310 -0.5487  0.6659
  459MOL0     C60489   6.283   4.595   5.007 -0.4449 -0.1168  0.3036
  459MOL0     C60490   6.199   4.699   5.009 -0.5461 -1.7289  0.1365
  459MOL0     O60491   6.080   4.687   5.074  0.4122  0.2723 -0.1016
  459MOL0     C60492   5.992   4.805   5.083 -0.5345  0.1352 -0.5141
  459MOL0     C60493   5.852   4.752   5.112  1.3088 -0.8145 -0.1382
  459MOL0     C60494   5.827   4.719   5.260  0.6072 -0.0272 -0.5357
  459MOL0     C60495   5.694   4.651   5.271  0.3165  0.1554 -0.3422
  459MOL0     C60496   5.643   4.638   5.412  0.5462  0.9910  0.4864
  459MOL0     C60497   5.497   4.570   5.408  0.1464 -0.7982 -0.1836
  459MOL0     C60498   5.390   4.629   5.500 -0.1130 -0.5987  0.8827
  459MOL0     C60499   5.360   4.558   5.629 -0.2196 -0.5239  0.3821
  459MOL0    Cl60500   5.242   4.636   5.738 -0.4028 -0.3988 -0.3912
  459MOL0     C60501   6.239   4.821   4.952 -0.1116 -0.7509  0.5308
  459MOL0     C60502   6.369   4.837   4.898 -0.6253 -0.3437  0.2709
  459MOL0     O60503   6.682   4.898   4.979 -0.4532 -0.9405 -0.2299
  459MOL0     C60504   6.787   4.854   4.657 -0.3985  0.4411  0.9510
  459MOL0     C60505   6.895   4.877   4.575 -0.4514 -0.1777 -0.7246
  459MOL0     N60506   7.559   4.609   4.266 -0.9734  0.1708  0.4782
  459MOL0     N60507   7.607   4.547   4.159 -0.5575 -0.5138 -0.8214
  459MOL0     C60508   8.513   4.687   3.139  0.7473  0.9356 -0.0991
  459MOL0     C60509   8.635   4.641   3.079  0.3707  0.0364 -0.1943
  459MOL0     C60510   8.987   4.378   2.924 -0.1892 -0.3140  0.5993
  459MOL0     C60511   9.092   4.284   2.928  0.0727 -0.6268  0.7583
  459MOL0     C60512   9.176   4.264   2.817  0.3023 -1.5461 -0.6174
  459MOL0     C60513   9.160   4.340   2.699 -0.5698  0.5659 -0.6754
  459MOL0     O60514   9.239   4.319   2.586 -0.4425 -0.8038 -0.6184
  459MOL0     C60515   9.373   4.269   2.600  0.3532  0.8829 -0.7871
  459MOL0     C60516   9.465   4.316   2.488  0.5017 -0.3072  1.1262
  459MOL0     C60517   9.446   4.477   2.447  0.2670  0.1058  0.5549
  459MOL0     C60518   9.587   4.544   2.398  0.6357 -0.0145  0.3984
  459MOL0     C60519   9.624   4.491   2.267 -1.2193 -1.1984 -0.2676
  459MOL0     C60520   9.665   4.452   2.159  0.0890  0.0405 -0.3099
  459MOL0     C60521   9.061   4.437   2.701 -0.2776 -1.0987  0.2840
  459MOL0     C60522   8.973   4.454   2.804 -0.4417  0.0882  0.4888
  459MOL0     H60523   8.721   4.373   3.280  1.3854  1.9222  3.4001
  459MOL0     H60524   8.516   4.432   3.381  0.7695  0.2605  0.5288
  459MOL0     H60525   8.436   4.686   3.485 -1.0666  3.0786  0.1789
  459MOL0     H60526   8.326   4.540   3.465 -0.8885  0.5658  0.1270
  459MOL0     H60527   8.130   4.673   3.455  0.0728 -0.3782 -1.2580
  459MOL0     H60528   8.222   4.817   3.509  0.9057 -0.3082  1.9289
  459MOL0     H60529   8.289   4.676   3.719  1.1577  2.5479 -0.8986
  459MOL0     H60530   8.162   4.568   3.657 -1.4986  0.2591 -0.3833
  459MOL0     H60531   8.057   4.845   3.725  0.3596 -0.0481  0.9094
  459MOL0     H60532   7.987   4.690   3.674 -0.0229 -0.8434  1.3160
  459MOL0     H60533   8.116   4.771   3.937 -0.2618 -1.7174  1.0836
  459MOL0     H60534   8.104   4.599   3.907 -0.8029 -0.9430  0.1167
  459MOL0     H60535   7.867   4.804   3.879 -0.0217  0.1843  0.2529
  459MOL0     H60536   7.901   4.740   4.032 -3.9605  4.0964 -0.8663
  459MOL0     H60537   7.852   4.561   3.786  0.0522 -2.1723  0.5140
  459MOL0     H60538   7.877   4.509   3.948  2.5256 -0.2947 -2.1703
  459MOL0     H60539   7.644   4.493   3.883  2.2874  0.0455 -1.2491
  459MOL0     H60540   7.638   4.659   3.843 -3.8168 -2.6347 -1.3529
  459MOL0     H60541   7.636   4.848   4.037  0.2370 -1.7775 -1.9308
  459MOL0     H60542   7.461   4.937   4.212 -0.1395 -0.5194  0.3349
  459MOL0     H60543   7.600   4.925   4.324 -1.5282  2.4282  1.3980
  459MOL0     H60544   7.462   4.769   4.472 -0.6282 -0.7280  1.0180
  459MOL0     H60545   7.330   4.779   4.357  0.9836 -2.5998  2.4988
  459MOL0     H60546   7.430   5.029   4.512  1.0454 -1.8586 -0.0093
  459MOL0     H60547   7.303   5.034   4.403  0.0084  2.3799  1.2613
  459MOL0     H60548   7.251   5.022   4.657 -3.1097 -0.4744  0.4064
  459MOL0     H60549   7.295   4.858   4.649 -2.0403  0.3421 -0.1157
  459MOL0     H60550   7.144   4.895   4.817  1.6993 -0.6110 -3.3141
  459MOL0     H60551   6.935   4.860   4.960  1.0936 -4.3082 -0.2110
  459MOL0     H60552   6.479   4.525   4.967  0.9503  0.0669  1.4301
  459MOL0     H60553   6.249   4.500   5.048 -0.5615  0.2955  1.1904
  459MOL0     H60554   5.988   4.858   4.988 -2.3825 -1.7619 -1.5775
  459MOL0     H60555   6.022   4.884   5.152  1.4594 -2.6766  2.0885
  459MOL0     H60556   5.836   4.658   5.059  2.8268 -0.4586 -1.3083
  459MOL0     H60557   5.774   4.826   5.091  2.1909  1.0427  2.5472
  459MOL0     H60558   5.820   4.798   5.336 -4.6946 -2.7118  2.3390
  459MOL0     H60559   5.903   4.654   5.305  2.4639  2.2133 -0.1863
  459MOL0     H60560   5.628   4.710   5.207  2.3415 -0.4712 -3.2337
  459MOL0     H60561   5.700   4.552   5.226 -0.5183 -1.1039  2.1903
  459MOL0     H60562   5.640   4.740   5.452  1.6599  2.6166 -3.1638
  459MOL0     H60563   5.714   4.573   5.463 -0.1577 -0.0015  0.2319
  459MOL0     H60564   5.511   4.462   5.402 -1.1239 -0.9737 -6.4319
  459MOL0     H60565   5.461   4.585   5.306  0.2709  1.5269  0.0532
  459MOL0     H60566   5.419   4.732   5.522 -0.5518  0.2785 -2.1692
  459MOL0     H60567   5.302   4.630   5.434  0.6896 -1.9005 -0.2669
  459MOL0     H60568   5.447   4.542   5.693 -0.4345 -3.6088  0.0214
  459MOL0     H60569   5.322   4.458   5.609  0.1731 -0.3876 -1.1659
  459MOL0     H60570   6.172   4.902   4.923 -0.3678 -1.7553 -2.0074
  459MOL0     H60571   6.385   4.932   4.848 -1.3788  0.4484  1.4724
  459MOL0     H60572   6.694   4.834   4.605  0.8096 -1.0216 -0.7858
  459MOL0     H60573   6.893   4.912   4.472  4.1662  1.6838 -0.4010
  459MOL0     H60574   8.454   4.772   3.103 -0.8646  0.1799  0.6375
  459MOL0     H60575   8.680   4.695   2.997  1.7682 -1.1204 -0.2064
  459MOL0     H60576   9.099   4.232   3.023  1.9306 -0.1814  0.8986
  459MOL0     H60577   9.249   4.185   2.810  0.3329 -1.3678 -3.6798
  459MOL0     H60578   9.369   4.160   2.598  2.6714  0.7424 -2.6861
  459MOL0     H60579   9.416   4.301   2.695  2.3511 -2.0881 -0.5413
  459MOL0     H60580   9.569   4.285   2.504  0.9396  0.3810 -0.2000
  459MOL0     H60581   9.433   4.259   2.400 -1.1030  1.7167  0.2910
  459MOL0     H60582   9.408   4.531   2.535 -1.1232  1.4151 -0.8015
  459MOL0     H60583   9.364   4.487   2.377 -3.1452  0.3257  4.2159
  459MOL0     H60584   9.575   4.652   2.388  0.3842  0.0729  1.5301
  459MOL0     H60585   9.655   4.534   2.483  2.1002  2.1315 -0.4272
  459MOL0     H60586   9.710   4.403   2.075  1.5319 -2.6353  1.8918
  459MOL0     H60587   9.051   4.499   2.612  4.9383  0.6428  0.6098
  459MOL0     H60588   8.900   4.533   2.794 -0.4236 -0.0398 -0.9643
  460MOL0     O60589   4.135   0.936   3.111  1.1428 -0.1716  0.4879
  460MOL0     C60590   4.154   1.012   3.204 -0.1724  0.2365 -0.3784
  460MOL0     O60591   4.061   1.081   3.277  0.3018  0.1595  0.1805
  460MOL0     C60592   3.922   1.056   3.268  0.2310  0.1307 -0.0511
  460MOL0     C60593   3.853   1.174   3.317 -0.0108  0.0063 -0.1370
  460MOL0     C60594   3.714   1.167   3.311 -0.3508 -0.3392  0.0848
  460MOL0     C60595   3.647   1.061   3.268  0.4372  1.0420  0.5440
  460MOL0     O60596   3.512   1.049   3.262 -0.2483 -0.5474  0.5369
  460MOL0     C60597   3.430   1.107   3.377  0.3954 -0.6646  0.2991
  460MOL0     C60598   3.302   1.033   3.379  0.0682  0.4867 -0.1366
  460MOL0     C60599   3.218   1.062   3.500  0.1073  0.1659  0.6202
  460MOL0     C60600   3.078   1.016   3.485  0.4829  0.7263  0.0732
  460MOL0     C60601   2.990   1.045   3.604  0.7334 -1.8100  0.0272
  460MOL0     C60602   2.836   1.017   3.587 -0.4191 -0.1633  0.6666
  460MOL0     C60603   2.806   0.870   3.572  0.0433  0.5562 -0.4126
  460MOL0     C60604   2.663   0.839   3.619 -0.3281 -0.4174  0.0148
  460MOL0     N60605   2.614   0.707   3.587  0.6861  0.0605  0.1801
  460MOL0     C60606   2.552   0.658   3.471  0.3674 -0.1897 -0.8155
  460MOL0     C60607   2.525   0.530   3.501  0.2080 -0.1788 -0.3777
  460MOL0     C60608   2.435   0.439   3.415 -0.7731 -0.6331  0.2118
  460MOL0     C60609   2.297   0.505   3.400 -0.2706 -0.3204  0.0628
  460MOL0     C60610   2.195   0.414   3.336  0.8643 -0.1906  0.0269
  460MOL0     C60611   2.065   0.480   3.301 -0.2339 -0.0974  0.2156
  460MOL0     O60612   2.021   0.551   3.421 -0.0233  0.0751  0.9466
  460MOL0     C60613   1.889   0.582   3.431 -0.2741 -0.9500 -0.7861
  460MOL0     C60614   1.793   0.554   3.335 -1.5238 -0.3185 -0.2603
  460MOL0     C60615   1.660   0.576   3.354 -0.1483  0.2481 -0.3068
  460MOL0     C60616   1.615   0.628   3.486  0.7625 -0.5462  0.5245
  460MOL0     C60617   1.464   0.642   3.507 -0.3882 -0.0643 -0.0029
  460MOL0     O60618   1.369   0.603   3.420 -0.3510  0.2044  0.7480
  460MOL0     C60619   1.236   0.625   3.452  0.0301  0.1266  0.1723
  460MOL0     C60620   1.153   0.673   3.344 -0.4824  0.4911 -1.1611
  460MOL0     C60621   1.017   0.694   3.361 -0.0540  0.4470  0.1004
  460MOL0     C60622   0.958   0.686   3.486  0.5720 -0.1590 -0.5115
  460MOL0     O60623   0.824   0.716   3.518  0.4339  0.2146 -1.0864
  460MOL0     C60624   0.740   0.789   3.432 -0.3368  0.3901  0.3847
  460MOL0     C60625   0.616   0.844   3.507 -0.7406 -0.1031 -0.5025
  460MOL0     C60626   0.523   0.898   3.404  0.1954 -0.3340 -0.5817
  460MOL0     C60627   0.411   0.974   3.468 -0.8643  1.1768 -0.0122
  460MOL0     C60628   0.268   0.932   3.408 -0.1347  0.2174 -0.1807
  460MOL0     C60629   0.157   1.027   3.442  0.1239 -0.5101 -0.3628
  460MOL0     C60630   0.025   1.006   3.368  0.4463 -0.4473 -0.1756
  460MOL0     C60631  -0.076   1.119   3.391  0.5409 -0.1272  1.1880
  460MOL0    Cl60632  -0.236   1.064   3.361 -0.1692  0.3387 -0.1224
  460MOL0     C60633   1.038   0.634   3.590 -0.1953  0.1939 -0.6690
  460MOL0     C60634   1.167   0.592   3.574  1.3265  0.2950 -0.2209
  460MOL0     O60635   1.448   0.714   3.604 -0.2586  0.7683  0.6342
  460MOL0     C60636   1.707   0.670   3.583  0.2229  0.1768  0.8155
  460MOL0     C60637   1.850   0.649   3.549 -0.4943 -0.4024 -0.0702
  460MOL0     N60638   2.564   0.506   3.626  1.4074 -0.0099 -0.1831
  460MOL0     N60639   2.606   0.608   3.680  0.3674 -0.4702  1.1212
  460MOL0     C60640   3.713   0.950   3.220  0.3413 -0.0225  0.4524
  460MOL0     C60641   3.850   0.946   3.215 -0.7332 -0.2759 -0.0888
  460MOL0     C60642   4.298   1.045   3.234 -0.6577  0.6153  0.8282
  460MOL0     C60643   4.330   1.138   3.337  0.5415  0.3222 -0.1183
  460MOL0     C60644   4.462   1.189   3.347  0.7824  0.0315 -1.3986
  460MOL0     C60645   4.565   1.140   3.262  0.0453  0.0760 -0.6454
  460MOL0     O60646   4.703   1.178   3.259  0.6836  0.1471 -0.2741
  460MOL0     C60647   4.741   1.296   3.328  0.1646 -0.6896  0.2230
  460MOL0     C60648   4.889   1.315   3.295  0.0499 -0.2995  0.1588
  460MOL0     C60649   4.936   1.441   3.366  0.6349  0.8897 -0.7607
  460MOL0     C60650   5.084   1.460   3.335  1.1105  0.9001  0.1910
  460MOL0     C60651   5.124   1.467   3.193 -0.4083  0.5840 -1.2404
  460MOL0     C60652   5.147   1.471   3.074  0.0574 -0.7080 -1.0026
  460MOL0     C60653   4.531   1.042   3.169  0.5629  1.1191  0.7207
  460MOL0     C60654   4.403   0.994   3.155  0.3433 -0.5925 -0.0767
  460MOL0     H60655   3.887   1.263   3.368 -3.6369 -0.0938  2.9707
  460MOL0     H60656   3.657   1.250   3.351 -0.2611  0.3847 -1.2088
  460MOL0     H60657   3.413   1.215   3.373 -1.4829 -0.6183  4.2928
  460MOL0     H60658   3.487   1.078   3.466 -0.2860  0.2546  1.0562
  460MOL0     H60659   3.328   0.927   3.381  3.0951  0.9097 -4.0231
  460MOL0     H60660   3.261   1.041   3.278  2.2782  0.3921 -1.1125
  460MOL0     H60661   3.213   1.170   3.514  2.4603  0.6199 -1.4173
  460MOL0     H60662   3.265   1.021   3.590  0.7379  3.0246  1.6786
  460MOL0     H60663   3.043   1.065   3.394  0.1040  0.2992 -0.0141
  460MOL0     H60664   3.080   0.908   3.464  2.1038  0.7758 -0.1727
  460MOL0     H60665   3.009   1.150   3.628  3.0513 -1.1789 -3.7480
  460MOL0     H60666   3.028   0.996   3.695 -0.4415  1.2854  2.3592
  460MOL0     H60667   2.794   1.073   3.503  2.6062 -0.7502 -1.3858
  460MOL0     H60668   2.787   1.047   3.680 -3.2969 -0.3207 -0.6823
  460MOL0     H60669   2.823   0.826   3.473  0.1381  0.0832 -0.1881
  460MOL0     H60670   2.870   0.812   3.640  1.7293 -0.1670 -2.4905
  460MOL0     H60671   2.593   0.915   3.584  0.7144  0.5551  0.0073
  460MOL0     H60672   2.670   0.856   3.727 -0.8912 -0.5912  0.0877
  460MOL0     H60673   2.528   0.707   3.377 -0.1378  1.8924  0.3423
  460MOL0     H60674   2.416   0.346   3.469 -0.5969  0.4478  2.2195
  460MOL0     H60675   2.486   0.422   3.320  0.2940 -0.1402  0.6824
  460MOL0     H60676   2.311   0.598   3.343 -0.6626  0.7252  1.5979
  460MOL0     H60677   2.276   0.526   3.505 -1.1737  1.2872 -0.3948
  460MOL0     H60678   2.231   0.385   3.237 -0.9425  3.5575 -1.9481
  460MOL0     H60679   2.166   0.332   3.403 -3.2823  0.1346 -1.0732
  460MOL0     H60680   1.998   0.401   3.264 -1.2002  0.5716  0.4792
  460MOL0     H60681   2.088   0.559   3.228 -0.1197 -0.5064 -0.1915
  460MOL0     H60682   1.818   0.508   3.240 -0.3649 -1.5320  0.5939
  460MOL0     H60683   1.588   0.546   3.278  0.8824  0.9794 -1.6098
  460MOL0     H60684   1.194   0.708   3.250 -1.3999  0.7718 -1.4676
  460MOL0     H60685   0.960   0.745   3.285 -2.0605 -0.3704  0.9665
  460MOL0     H60686   0.716   0.733   3.341  3.2836 -1.3193  0.3188
  460MOL0     H60687   0.796   0.877   3.398 -1.7737  1.6070  1.0108
  460MOL0     H60688   0.653   0.923   3.573  2.2565  0.1813 -2.3673
  460MOL0     H60689   0.557   0.775   3.568 -1.1731  0.9856  0.3541
  460MOL0     H60690   0.479   0.820   3.341  0.7385 -0.6455 -0.5764
  460MOL0     H60691   0.588   0.957   3.338 -0.3902 -1.2738 -2.0402
  460MOL0     H60692   0.410   0.952   3.575 -2.3589 -1.0988 -0.4013
  460MOL0     H60693   0.431   1.080   3.453  0.4684  1.1187  1.1865
  460MOL0     H60694   0.237   0.834   3.445 -1.3823  1.1800  1.4514
  460MOL0     H60695   0.283   0.945   3.300 -0.9885  3.4725 -0.0112
  460MOL0     H60696   0.199   1.122   3.408  0.3600 -0.3652  0.3059
  460MOL0     H60697   0.142   1.034   3.550  0.8562  0.1813 -0.3052
  460MOL0     H60698   0.043   0.994   3.260 -0.9357 -0.6089 -0.4018
  460MOL0     H60699  -0.011   0.913   3.411 -1.5911 -0.3538 -1.5060
  460MOL0     H60700  -0.043   1.209   3.341  2.1478 -0.7529  1.0745
  460MOL0     H60701  -0.083   1.153   3.495 -2.0591  2.4180  0.3090
  460MOL0     H60702   0.994   0.625   3.689  3.5141  0.5621  1.1879
  460MOL0     H60703   1.227   0.551   3.655  0.9256 -1.8129 -0.9475
  460MOL0     H60704   1.682   0.715   3.678 -1.6724 -1.0844  0.9666
  460MOL0     H60705   1.927   0.672   3.622  0.1095  0.0109 -0.8156
  460MOL0     H60706   3.648   0.872   3.181  0.5106  0.3735 -0.6566
  460MOL0     H60707   3.914   0.869   3.174  2.6525  1.8281  0.8288
  460MOL0     H60708   4.255   1.184   3.401  1.2942 -2.4729  3.0917
  460MOL0     H60709   4.488   1.264   3.421 -5.4668 -1.1965  2.8798
  460MOL0     H60710   4.725   1.277   3.435 -3.6126  2.2345  0.3824
  460MOL0     H60711   4.683   1.382   3.292 -1.4302 -2.0330 -0.5472
  460MOL0     H60712   4.955   1.234   3.329 -1.4390 -3.0548 -2.9979
  460MOL0     H60713   4.892   1.323   3.186 -1.8238 -0.5905  0.0638
  460MOL0     H60714   4.919   1.444   3.474 -2.7404  2.2052 -1.2086
  460MOL0     H60715   4.879   1.524   3.325 -0.0778  1.2302  0.8229
  460MOL0     H60716   5.114   1.557   3.376 -3.0949  3.1868 -1.4733
  460MOL0     H60717   5.131   1.369   3.374 -0.8565 -1.0160 -1.6142
  460MOL0     H60718   5.157   1.464   2.967 -0.3314  0.9508 -1.1812
  460MOL0     H60719   4.611   1.002   3.107 -1.6757 -0.4055 -1.3573
  460MOL0     H60720   4.375   0.918   3.083 -0.8609  0.7517 -1.0803
  461MOL0     O60721   4.550   8.807   2.266  0.0419  0.0169 -0.5078
  461MOL0     C60722   4.487   8.914   2.265  1.1200  0.2309  0.0016
  461MOL0     O60723   4.351   8.918   2.265  0.3845  0.1970  0.2743
  461MOL0     C60724   4.288   8.795   2.276  0.2648  1.0722  0.1643
  461MOL0     C60725   4.309   8.685   2.194 -0.4668  0.1284 -0.4235
  461MOL0     C60726   4.234   8.574   2.223  0.8376 -0.8556 -0.2538
  461MOL0     C60727   4.129   8.556   2.310  1.1737 -0.0273  1.5011
  461MOL0     O60728   4.063   8.436   2.300 -0.1139  0.2034 -0.0007
  461MOL0     C60729   3.982   8.398   2.420  0.7095 -0.5706 -0.7948
  461MOL0     C60730   3.957   8.249   2.418  0.1693 -0.4170  0.6018
  461MOL0     C60731   4.073   8.161   2.477  0.1532 -0.1180 -0.1066
  461MOL0     C60732   4.038   8.015   2.469  0.1657 -0.5825  0.6597
  461MOL0     C60733   4.159   7.933   2.503  0.0659  0.3569 -0.0008
  461MOL0     C60734   4.114   7.789   2.472  0.5786 -0.3407  0.4505
  461MOL0     C60735   4.229   7.687   2.510  0.4342  0.8274  1.2007
  461MOL0     C60736   4.184   7.536   2.478  0.1925  0.3785  0.7345
  461MOL0     N60737   4.136   7.523   2.334 -0.9560  0.3424  0.0689
  461MOL0     C60738   4.018   7.538   2.279  0.8920  0.4913  0.5619
  461MOL0     C60739   4.031   7.504   2.146  0.5658 -0.6729  0.8704
  461MOL0     C60740   3.921   7.491   2.041 -0.1745  0.9667 -0.5364
  461MOL0     C60741   3.857   7.628   2.029  0.1241 -1.1399  0.1774
  461MOL0     C60742   3.699   7.623   1.990 -0.3216 -0.5636 -0.6126
  461MOL0     C60743   3.657   7.765   1.935  0.0905 -0.1204  0.7315
  461MOL0     O60744   3.529   7.753   1.864  0.0134 -0.8571  0.8222
  461MOL0     C60745   3.444   7.860   1.885  0.6615 -0.1406 -0.2992
  461MOL0     C60746   3.315   7.833   1.837  0.1555 -0.0405  0.1433
  461MOL0     C60747   3.212   7.935   1.837 -0.3486  0.5684 -0.2432
  461MOL0     C60748   3.243   8.056   1.900 -0.4048  0.1649  0.3564
  461MOL0     C60749   3.138   8.158   1.916  0.1057 -0.7467  0.8432
  461MOL0     O60750   3.177   8.281   1.949  0.4472 -0.5997 -0.0095
  461MOL0     C60751   3.093   8.394   1.932 -0.8934 -0.7962 -0.0134
  461MOL0     C60752   3.160   8.517   1.912 -0.1798  0.6441  0.2462
  461MOL0     C60753   3.092   8.642   1.903  0.7747 -0.6269 -0.2984
  461MOL0     C60754   2.954   8.648   1.906  0.1126  0.7879  1.1043
  461MOL0     O60755   2.886   8.766   1.888 -0.6778 -0.0418 -0.2674
  461MOL0     C60756   2.765   8.778   1.960 -0.8697  0.2831  0.8197
  461MOL0     C60757   2.728   8.924   1.938 -0.5067  0.1805  0.2764
  461MOL0     C60758   2.617   8.963   2.034  0.0422  1.0324  0.7538
  461MOL0     C60759   2.593   9.106   2.021  0.9356 -0.6009  0.2681
  461MOL0     C60760   2.487   9.154   2.109  1.1591 -1.0253 -0.2820
  461MOL0     C60761   2.474   9.312   2.105 -0.0098 -0.4299  0.1342
  461MOL0     C60762   2.366   9.365   2.204 -0.5991 -0.4437 -0.8437
  461MOL0     C60763   2.226   9.313   2.170  0.1740 -0.1730 -0.1511
  461MOL0    Cl60764   2.126   9.336   2.320 -0.1337  0.1747 -0.1718
  461MOL0     C60765   2.888   8.521   1.921 -0.0716 -0.7302 -0.3676
  461MOL0     C60766   2.953   8.397   1.944  0.6327 -0.9804 -0.4573
  461MOL0     O60767   3.023   8.128   1.885 -0.4901 -0.2211 -0.2842
  461MOL0     C60768   3.375   8.078   1.946 -0.5303 -0.9479 -0.5187
  461MOL0     C60769   3.466   7.990   1.941 -0.1113  0.2133  0.3587
  461MOL0     N60770   4.169   7.479   2.125  0.1749  0.1841  0.5537
  461MOL0     N60771   4.235   7.493   2.234  0.3950 -0.0669 -0.0013
  461MOL0     C60772   4.100   8.660   2.384 -0.1427  0.1065 -0.3336
  461MOL0     C60773   4.174   8.782   2.362  0.7329 -0.3851 -0.2388
  461MOL0     C60774   4.563   9.034   2.254 -0.4141  0.1477 -0.7578
  461MOL0     C60775   4.706   9.026   2.242 -0.4421 -0.3404 -0.2131
  461MOL0     C60776   4.785   9.144   2.212  0.1337 -0.4272  0.0128
  461MOL0     C60777   4.724   9.272   2.211 -0.0996 -0.8010 -0.1039
  461MOL0     O60778   4.798   9.395   2.190 -0.1520 -0.3429  0.0626
  461MOL0     C60779   4.934   9.404   2.217  0.8720  0.7329  0.6677
  461MOL0     C60780   4.966   9.503   2.329 -0.0364 -0.5787  1.2547
  461MOL0     C60781   4.881   9.488   2.454  0.4556 -0.8504 -0.4815
  461MOL0     C60782   4.915   9.586   2.571 -0.1425  0.1945 -0.6017
  461MOL0     C60783   5.026   9.537   2.656  0.9242 -0.1831 -0.2424
  461MOL0     C60784   5.110   9.505   2.733 -0.5365  0.2029 -1.0083
  461MOL0     C60785   4.582   9.278   2.231 -1.4515 -0.1321 -0.0797
  461MOL0     C60786   4.506   9.159   2.245  1.1294 -1.3024 -0.0735
  461MOL0     H60787   4.382   8.680   2.114  0.9183 -1.7489  0.8661
  461MOL0     H60788   4.245   8.491   2.154  0.5902 -1.7715  0.7852
  461MOL0     H60789   3.889   8.454   2.425  1.8666  1.6111 -2.1043
  461MOL0     H60790   4.024   8.421   2.518 -1.2293  0.5955 -0.1979
  461MOL0     H60791   3.951   8.212   2.316  0.1548 -2.2521  1.2445
  461MOL0     H60792   3.859   8.246   2.467 -0.0497 -0.1657  0.1836
  461MOL0     H60793   4.089   8.197   2.579  1.3907  0.0941 -0.3612
  461MOL0     H60794   4.163   8.173   2.417 -1.0139 -0.6637 -2.0462
  461MOL0     H60795   3.952   7.999   2.534  1.3572 -1.4370  2.0647
  461MOL0     H60796   4.008   7.995   2.365 -0.0200 -0.8453  0.7632
  461MOL0     H60797   4.175   7.953   2.610 -0.0771  1.0625 -0.1051
  461MOL0     H60798   4.246   7.964   2.445  1.2446 -1.7012  0.5918
  461MOL0     H60799   4.105   7.798   2.363 -0.1933  0.5495  0.5780
  461MOL0     H60800   4.014   7.759   2.503 -0.0665 -1.1103 -2.0958
  461MOL0     H60801   4.321   7.709   2.454  0.0096  1.1563  0.6287
  461MOL0     H60802   4.249   7.690   2.617 -0.6301 -0.9288  1.4964
  461MOL0     H60803   4.095   7.498   2.530 -0.2686 -2.7100 -1.9449
  461MOL0     H60804   4.271   7.472   2.498  0.9548  1.4339  0.8852
  461MOL0     H60805   3.931   7.576   2.331  1.7231  4.2686 -0.4514
  461MOL0     H60806   3.850   7.411   2.064  1.0008  0.5292  1.8934
  461MOL0     H60807   3.958   7.460   1.943 -0.4746 -1.4539  0.0675
  461MOL0     H60808   3.921   7.686   1.962  0.0405 -1.1889  0.0538
  461MOL0     H60809   3.854   7.682   2.123  0.3671 -0.9706  0.0889
  461MOL0     H60810   3.685   7.539   1.920 -0.2018 -1.9002  0.9045
  461MOL0     H60811   3.641   7.596   2.079  1.6730 -2.9664  0.0618
  461MOL0     H60812   3.746   7.789   1.876  0.8853  1.6760  2.5308
  461MOL0     H60813   3.649   7.829   2.024  0.5222  1.7000 -0.4810
  461MOL0     H60814   3.305   7.731   1.802 -1.1060 -0.0037  0.3152
  461MOL0     H60815   3.118   7.896   1.799  1.0319 -2.9373 -0.4303
  461MOL0     H60816   3.267   8.520   1.896 -0.3569 -0.2701 -1.3432
  461MOL0     H60817   3.148   8.735   1.900 -1.6702  0.9540  0.1357
  461MOL0     H60818   2.795   8.764   2.065 -0.4496 -2.0876  0.4516
  461MOL0     H60819   2.683   8.713   1.927  0.5670 -0.8186 -0.6792
  461MOL0     H60820   2.704   8.940   1.833 -1.4854 -2.2775  0.0549
  461MOL0     H60821   2.822   8.976   1.960  1.7923 -3.3911 -0.3063
  461MOL0     H60822   2.650   8.933   2.134  0.2450 -1.3388  0.0373
  461MOL0     H60823   2.535   8.894   2.015  2.0642 -1.1699 -0.5365
  461MOL0     H60824   2.689   9.157   2.034 -0.3232  1.6992  1.1583
  461MOL0     H60825   2.553   9.140   1.925 -1.4439 -0.6305  1.1745
  461MOL0     H60826   2.506   9.130   2.214  0.8167  1.6395  0.4519
  461MOL0     H60827   2.394   9.110   2.071  0.4364  0.6343 -0.5604
  461MOL0     H60828   2.439   9.340   2.005 -1.0478  0.5341  0.7398
  461MOL0     H60829   2.562   9.373   2.129  0.6139 -1.4990  0.6236
  461MOL0     H60830   2.401   9.347   2.306 -0.2736  2.0577 -0.4636
  461MOL0     H60831   2.367   9.474   2.202  1.2607 -0.4323 -0.9132
  461MOL0     H60832   2.220   9.209   2.134 -0.4095  0.6902 -2.7763
  461MOL0     H60833   2.179   9.376   2.094 -0.2744  2.2460  2.0014
  461MOL0     H60834   2.780   8.522   1.922 -0.0978  0.8812 -1.1756
  461MOL0     H60835   2.900   8.305   1.970 -1.8696  0.5007  0.0816
  461MOL0     H60836   3.387   8.171   2.001 -3.1434 -0.0939 -1.2372
  461MOL0     H60837   3.559   8.021   1.987 -0.5561  1.6273  0.3376
  461MOL0     H60838   4.019   8.681   2.454  2.3317  1.4998  2.3401
  461MOL0     H60839   4.151   8.863   2.431 -1.6759  0.5497 -2.0210
  461MOL0     H60840   4.752   8.930   2.265 -0.0791  0.2464  1.7041
  461MOL0     H60841   4.889   9.128   2.185 -0.0609 -0.6009 -0.6680
  461MOL0     H60842   4.988   9.428   2.125 -2.1721  5.0558 -0.2788
  461MOL0     H60843   4.974   9.308   2.253  0.9655  0.9548  1.1674
  461MOL0     H60844   5.072   9.505   2.358  0.1467 -2.9522  0.9525
  461MOL0     H60845   4.943   9.605   2.296 -0.9539 -0.6952  1.5237
  461MOL0     H60846   4.879   9.387   2.496 -3.8402 -0.1644  1.5151
  461MOL0     H60847   4.780   9.499   2.412  0.4759  0.6226 -0.2102
  461MOL0     H60848   4.940   9.686   2.534 -0.5731 -0.0297 -1.5171
  461MOL0     H60849   4.824   9.606   2.628 -1.0800  3.8948 -3.0163
  461MOL0     H60850   5.183   9.481   2.808 -0.3378  1.4783 -0.7662
  461MOL0     H60851   4.555   9.382   2.237  0.0585  0.2354  1.0957
  461MOL0     H60852   4.397   9.164   2.249  1.1448 -0.1173 -0.8275
  462MOL0     O60853   7.707   4.006  11.061 -0.2178 -0.6373  0.1378
  462MOL0     C60854   7.660   4.115  11.107 -0.3424  0.2430 -0.0878
  462MOL0     O60855   7.731   4.215  11.155  0.2608 -0.4029 -0.3620
  462MOL0     C60856   7.866   4.206  11.150  0.2871  1.5337  0.6048
  462MOL0     C60857   7.917   4.282  11.051 -0.4360  0.6192 -0.3769
  462MOL0     C60858   8.060   4.299  11.048  0.3235  0.0447 -0.3817
  462MOL0     C60859   8.139   4.216  11.132 -0.3544 -0.1982  0.3893
  462MOL0     O60860   8.274   4.230  11.092 -0.1977  0.1556 -0.2543
  462MOL0     C60861   8.373   4.189  11.193 -0.6461 -0.2877 -1.0018
  462MOL0     C60862   8.507   4.185  11.121  0.2503  0.8265 -0.3162
  462MOL0     C60863   8.625   4.201  11.215 -0.2137 -0.6570  0.5793
  462MOL0     C60864   8.761   4.210  11.143 -0.6241 -0.2913  0.4787
  462MOL0     C60865   8.881   4.212  11.236 -0.6414 -0.2874  0.2229
  462MOL0     C60866   9.010   4.193  11.150 -0.2105  0.2311  0.6730
  462MOL0     C60867   9.137   4.183  11.234 -0.8953 -0.2045  0.4310
  462MOL0     C60868   9.266   4.123  11.168  0.0924  0.6690 -0.7207
  462MOL0     N60869   9.239   3.990  11.110  0.3521 -0.0414 -0.2441
  462MOL0     C60870   9.295   3.949  10.994  0.1310 -0.4821  0.1819
  462MOL0     C60871   9.242   3.830  10.958  0.6101  0.0138 -0.7367
  462MOL0     C60872   9.271   3.740  10.843 -0.1287  0.4046  0.2630
  462MOL0     C60873   9.155   3.668  10.770 -0.3658 -0.0057 -0.6397
  462MOL0     C60874   9.060   3.764  10.685  0.4728  0.5790  0.7106
  462MOL0     C60875   8.946   3.692  10.623 -0.4284  0.8789 -0.5249
  462MOL0     O60876   8.972   3.568  10.559  0.1683  0.2967  0.9525
  462MOL0     C60877   8.867   3.502  10.490 -0.4098 -0.4009  0.0051
  462MOL0     C60878   8.901   3.423  10.383  0.2596 -0.5763  0.3196
  462MOL0     C60879   8.801   3.363  10.314 -0.4729  0.8561  0.1771
  462MOL0     C60880   8.668   3.384  10.335  0.0373 -0.7666 -0.3965
  462MOL0     C60881   8.562   3.323  10.265  0.4732  0.2625 -0.5997
  462MOL0     O60882   8.443   3.397  10.267  0.4365 -0.1658  0.4525
  462MOL0     C60883   8.347   3.400  10.159  0.0735  1.2354 -0.0290
  462MOL0     C60884   8.378   3.353  10.032 -0.4631 -0.1413  0.2904
  462MOL0     C60885   8.277   3.357   9.934  0.2050 -0.2470 -0.3115
  462MOL0     C60886   8.144   3.403   9.954  1.2142 -0.5420 -0.3007
  462MOL0     O60887   8.046   3.414   9.850 -0.1258 -0.4963 -0.6786
  462MOL0     C60888   8.094   3.423   9.714  0.0807  0.9643 -0.2231
  462MOL0     C60889   7.968   3.470   9.644  0.9375 -0.0541 -0.0007
  462MOL0     C60890   7.991   3.468   9.490  0.5733  0.3073  0.2128
  462MOL0     C60891   7.858   3.480   9.409 -0.8860 -0.2384 -0.3519
  462MOL0     C60892   7.879   3.472   9.254 -0.1967  0.2417 -0.8968
  462MOL0     C60893   7.750   3.513   9.183 -0.2353  0.0963 -0.3058
  462MOL0     C60894   7.788   3.567   9.048 -0.3720 -0.3498  0.2900
  462MOL0     C60895   7.669   3.568   8.951 -0.4566 -0.2377 -0.3143
  462MOL0    Cl60896   7.604   3.412   8.931  0.2081  0.1039  0.3235
  462MOL0     C60897   8.112   3.441  10.086  0.4800  0.1135 -0.8596
  462MOL0     C60898   8.218   3.439  10.189  0.2636  0.1807 -0.6529
  462MOL0     O60899   8.572   3.213  10.215  0.3170 -0.5357 -0.4491
  462MOL0     C60900   8.630   3.452  10.453 -0.4785 -0.1292 -0.9543
  462MOL0     C60901   8.736   3.510  10.526 -0.1490  0.2153  0.3911
  462MOL0     N60902   9.137   3.804  11.055 -0.0151  0.0345  0.1350
  462MOL0     N60903   9.134   3.900  11.135 -0.3118 -0.7099  0.1316
  462MOL0     C60904   8.084   4.133  11.233 -0.5154 -0.4189  0.3562
  462MOL0     C60905   7.943   4.131  11.239 -0.3217 -0.1995  0.0638
  462MOL0     C60906   7.517   4.130  11.112  1.0735  0.7127  0.1440
  462MOL0     C60907   7.456   4.243  11.169  0.2122 -0.2063  0.1233
  462MOL0     C60908   7.314   4.251  11.178  0.2221 -0.4224  0.2730
  462MOL0     C60909   7.233   4.162  11.116  1.1359 -0.4984  0.4166
  462MOL0     O60910   7.103   4.169  11.119 -0.4487  0.6772 -0.5800
  462MOL0     C60911   7.036   4.130  11.235 -0.4128 -0.2567 -0.1476
  462MOL0     C60912   6.983   3.977  11.251  0.8073 -0.2282 -0.4860
  462MOL0     C60913   6.913   3.943  11.128  0.1618  0.4707  0.4310
  462MOL0     C60914   6.911   3.791  11.114  0.0138 -0.1341  0.0359
  462MOL0     C60915   6.855   3.749  10.982  0.1337  0.3580 -0.7314
  462MOL0     C60916   6.799   3.704  10.878  0.6042 -0.1489  0.4537
  462MOL0     C60917   7.289   4.054  11.051  0.1482  0.1367  0.0024
  462MOL0     C60918   7.428   4.044  11.041  0.8569  0.2969  0.0824
  462MOL0     H60919   7.858   4.353  10.994 -1.1695 -0.2079 -0.6723
  462MOL0     H60920   8.097   4.369  10.974  3.4035  0.5792  1.5177
  462MOL0     H60921   8.357   4.095  11.245  0.7005 -0.5877 -1.0915
  462MOL0     H60922   8.378   4.269  11.268  2.1045 -0.6345 -0.7084
  462MOL0     H60923   8.506   4.271  11.053  1.0098 -0.3061 -1.8221
  462MOL0     H60924   8.509   4.090  11.067 -2.2815 -1.3596  3.0425
  462MOL0     H60925   8.618   4.121  11.290  1.4657 -0.0226  1.4710
  462MOL0     H60926   8.608   4.298  11.261 -3.3412 -0.1765 -1.3528
  462MOL0     H60927   8.763   4.114  11.091  1.3779 -1.2867  2.2341
  462MOL0     H60928   8.763   4.291  11.069 -3.6565 -0.1977  0.3575
  462MOL0     H60929   8.868   4.150  11.325 -0.7227  1.2784  1.3399
  462MOL0     H60930   8.904   4.307  11.285 -2.0761 -0.2828  0.9266
  462MOL0     H60931   9.026   4.276  11.081  0.2075  0.4562  1.0336
  462MOL0     H60932   8.992   4.100  11.094 -0.8590  0.6413  0.1846
  462MOL0     H60933   9.171   4.285  11.255  0.9414 -0.9319  1.2400
  462MOL0     H60934   9.116   4.129  11.327 -1.3494  2.8608  2.2712
  462MOL0     H60935   9.351   4.132  11.236 -0.7273 -0.7702  0.5522
  462MOL0     H60936   9.280   4.186  11.080 -0.3691  3.4265  1.0631
  462MOL0     H60937   9.377   4.009  10.956 -1.2071  1.5358  0.2859
  462MOL0     H60938   9.327   3.657  10.887  0.9852  1.0158  0.0350
  462MOL0     H60939   9.335   3.787  10.768 -1.1505  1.5240  0.0683
  462MOL0     H60940   9.087   3.625  10.844  0.1806  2.4686  1.4504
  462MOL0     H60941   9.204   3.598  10.702  1.4794 -0.6530  1.2628
  462MOL0     H60942   9.027   3.850  10.744  0.4951  1.4257 -0.4541
  462MOL0     H60943   9.130   3.802  10.610 -1.7780 -0.9460 -2.4119
  462MOL0     H60944   8.889   3.757  10.555  0.9447  2.4034 -0.2918
  462MOL0     H60945   8.875   3.675  10.704 -0.5850  0.5041 -0.7370
  462MOL0     H60946   9.004   3.407  10.350  0.4214 -0.0938  0.5862
  462MOL0     H60947   8.827   3.301  10.229 -0.0954  1.4457 -0.1455
  462MOL0     H60948   8.475   3.313  10.004 -0.0435  0.2389  1.1537
  462MOL0     H60949   8.302   3.322   9.835 -0.7573  0.4130 -0.8001
  462MOL0     H60950   8.113   3.322   9.677 -0.1945  1.4916 -1.8503
  462MOL0     H60951   8.179   3.492   9.712  2.2765 -1.3292  2.9436
  462MOL0     H60952   7.945   3.569   9.687  2.3556 -0.3386  1.5154
  462MOL0     H60953   7.882   3.406   9.667 -1.1144  2.8250  0.9209
  462MOL0     H60954   8.040   3.372   9.470  1.2836 -0.4293  4.5631
  462MOL0     H60955   8.060   3.550   9.471  0.3980  0.6911  1.1940
  462MOL0     H60956   7.785   3.402   9.432 -2.7183  1.1531 -1.1990
  462MOL0     H60957   7.819   3.580   9.433  0.6752  0.6968 -1.5561
  462MOL0     H60958   7.905   3.368   9.235  2.8416 -0.1870  3.8846
  462MOL0     H60959   7.971   3.524   9.226  1.2520 -0.5124  2.1135
  462MOL0     H60960   7.686   3.582   9.238 -0.9290 -0.2382 -0.6879
  462MOL0     H60961   7.683   3.429   9.161 -0.7094 -0.2587  2.1173
  462MOL0     H60962   7.825   3.669   9.062  1.3627 -0.6411 -1.6229
  462MOL0     H60963   7.873   3.523   8.993 -0.3142  1.4914 -1.2023
  462MOL0     H60964   7.710   3.613   8.860 -0.3945  3.5692  1.4017
  462MOL0     H60965   7.591   3.636   8.987  0.7202  1.6838 -1.2101
  462MOL0     H60966   8.011   3.464  10.120  1.2038  0.1892  1.3772
  462MOL0     H60967   8.205   3.468  10.292  1.6187  2.1190 -0.9770
  462MOL0     H60968   8.527   3.457  10.484  0.0267  0.3274  0.7530
  462MOL0     H60969   8.707   3.570  10.611 -0.9769  0.7134 -0.2269
  462MOL0     H60970   8.138   4.063  11.294 -0.6639 -1.2668 -0.4529
  462MOL0     H60971   7.884   4.072  11.308 -0.4205 -1.6921 -1.2377
  462MOL0     H60972   7.509   4.328  11.210 -1.0255  0.5982  0.1124
  462MOL0     H60973   7.269   4.334  11.232 -0.0260  0.7379 -1.6407
  462MOL0     H60974   6.949   4.197  11.240 -0.9250 -0.6214 -2.8270
  462MOL0     H60975   7.096   4.150  11.324  2.0019 -4.7064 -0.4893
  462MOL0     H60976   7.068   3.914  11.278  0.3449 -1.2758 -1.4120
  462MOL0     H60977   6.912   3.967  11.333  1.8151  0.1472  0.4645
  462MOL0     H60978   6.964   3.979  11.038 -0.5757 -0.9391 -0.6134
  462MOL0     H60979   6.811   3.982  11.126  0.1660  0.5408 -2.0903
  462MOL0     H60980   7.015   3.759  11.111  0.3822  1.0854 -1.4525
  462MOL0     H60981   6.868   3.744  11.203 -0.1681 -0.8475 -0.4249
  462MOL0     H60982   6.766   3.671  10.782 -3.3921  2.1981  0.7745
  462MOL0     H60983   7.215   3.980  11.022 -1.5678  0.1874  3.6440
  462MOL0     H60984   7.479   3.956  11.002  0.3155 -1.3732  2.8913
  463MOL0     O60985   9.193   4.384   1.438 -0.2386 -1.0498  0.0216
  463MOL0     C60986   9.283   4.350   1.367 -0.5080  0.6380  0.1307
  463MOL0     O60987   9.282   4.262   1.260  0.2602 -0.5267 -0.4027
  463MOL0     C60988   9.163   4.235   1.198  0.1446 -0.0777  0.4039
  463MOL0     C60989   9.167   4.190   1.066 -0.3513  0.3024 -0.0130
  463MOL0     C60990   9.052   4.141   1.000 -0.2077 -0.4491  1.0069
  463MOL0     C60991   8.929   4.144   1.058  0.2437 -0.6740  0.9547
  463MOL0     O60992   8.821   4.108   0.985  0.4034 -0.0792 -0.6625
  463MOL0     C60993   8.703   4.183   0.984 -0.1647  0.2059 -0.5607
  463MOL0     C60994   8.599   4.119   1.084 -0.2237  0.5862  0.4374
  463MOL0     C60995   8.519   3.998   1.028 -0.7345 -0.0445 -0.1581
  463MOL0     C60996   8.588   3.875   1.000 -0.6539 -0.0961  0.7905
  463MOL0     C60997   8.495   3.759   0.976  0.5299  0.4794  0.5158
  463MOL0     C60998   8.401   3.776   0.852 -0.5162 -0.1125  0.8470
  463MOL0     C60999   8.317   3.654   0.827  0.3286  0.7537  0.9534
  463MOL0     C61000   8.208   3.644   0.932 -0.0660 -0.8044 -0.1500
  463MOL0     N61001   8.102   3.557   0.893 -0.2290 -0.3142 -0.5470
  463MOL0     C61002   8.045   3.536   0.768  0.5825  0.5642 -0.1690
  463MOL0     C61003   7.932   3.455   0.794 -0.3671  0.8254 -0.3943
  463MOL0     C61004   7.838   3.400   0.694 -0.1112 -0.7558 -0.0437
  463MOL0     C61005   7.846   3.253   0.669 -0.8679  0.5009 -0.2136
  463MOL0     C61006   7.767   3.226   0.546 -0.1895 -0.2842 -0.8799
  463MOL0     C61007   7.613   3.208   0.574 -0.4434  0.2258 -1.8171
  463MOL0     O61008   7.531   3.204   0.462 -0.4835  0.1879 -0.5149
  463MOL0     C61009   7.393   3.193   0.477 -0.4121 -0.4446 -0.3975
  463MOL0     C61010   7.321   3.280   0.569  0.6532 -0.3673 -0.4154
  463MOL0     C61011   7.183   3.272   0.571 -0.4160 -0.2694  0.4011
  463MOL0     C61012   7.116   3.179   0.497 -0.1041  0.1897 -0.0653
  463MOL0     C61013   6.969   3.170   0.525 -0.9462 -0.2016 -0.3738
  463MOL0     O61014   6.896   3.092   0.442  0.1420 -0.7793 -0.4802
  463MOL0     C61015   6.762   3.070   0.457  0.0987 -0.6864  0.0176
  463MOL0     C61016   6.707   2.942   0.485  0.6060 -0.5918 -1.0522
  463MOL0     C61017   6.567   2.929   0.478  0.0261  0.6127 -0.1645
  463MOL0     C61018   6.481   3.042   0.446  0.3084 -0.0237  0.3339
  463MOL0     O61019   6.346   3.032   0.440  0.0774 -1.2589 -0.2019
  463MOL0     C61020   6.275   2.948   0.529 -0.5975  0.6553  0.6252
  463MOL0     C61021   6.142   3.004   0.580 -0.0010  0.3583 -0.9889
  463MOL0     C61022   6.039   2.999   0.465  0.0294 -0.6200 -0.2698
  463MOL0     C61023   5.908   2.941   0.529  0.9189  0.7737 -0.3128
  463MOL0     C61024   5.806   2.909   0.418 -0.0310  0.0744  1.2194
  463MOL0     C61025   5.672   2.881   0.473  0.3777  0.0024 -0.2870
  463MOL0     C61026   5.551   2.870   0.375 -0.9194  0.1797  0.0004
  463MOL0     C61027   5.412   2.861   0.442  0.1678  0.0957 -0.5411
  463MOL0    Cl61028   5.394   2.731   0.560  0.2727  0.0931 -0.0087
  463MOL0     C61029   6.538   3.166   0.422  0.6878 -0.3659 -0.2924
  463MOL0     C61030   6.678   3.176   0.419  0.2768 -0.5304 -0.4937
  463MOL0     O61031   6.923   3.224   0.622 -0.5181 -0.2602 -0.4500
  463MOL0     C61032   7.189   3.078   0.427  0.8618 -0.3012  1.1137
  463MOL0     C61033   7.329   3.090   0.410 -0.4474  1.1901  0.3822
  463MOL0     N61034   7.943   3.418   0.927 -0.5170  0.2178 -0.4536
  463MOL0     N61035   8.039   3.482   0.979 -0.1124  0.5870  0.6799
  463MOL0     C61036   8.916   4.198   1.188  0.0696 -0.1747 -0.2428
  463MOL0     C61037   9.033   4.242   1.258 -0.5052 -0.8245 -0.4567
  463MOL0     C61038   9.417   4.420   1.394 -0.1443  0.1211  0.3084
  463MOL0     C61039   9.536   4.377   1.333 -0.0359  0.4279 -0.1635
  463MOL0     C61040   9.654   4.442   1.349  0.0804  0.5956  0.4918
  463MOL0     C61041   9.656   4.552   1.430  0.3128 -1.1486  0.0818
  463MOL0     O61042   9.779   4.619   1.427  0.0692 -0.1475  1.2620
  463MOL0     C61043   9.782   4.748   1.495 -0.1394  0.1246  0.1194
  463MOL0     C61044   9.917   4.822   1.490 -1.0285  0.0892  0.0813
  463MOL0     C61045  10.039   4.733   1.529  0.3645 -0.2040 -0.1104
  463MOL0     C61046  10.173   4.813   1.540 -0.6760 -0.1295  0.0663
  463MOL0     C61047  10.179   4.905   1.657 -0.6481 -0.6423  0.1320
  463MOL0     C61048  10.169   4.967   1.759 -0.2444 -0.0517 -0.5232
  463MOL0     C61049   9.546   4.591   1.505  0.4380  0.2730 -0.9681
  463MOL0     C61050   9.426   4.528   1.477  0.3897  0.6685 -0.2930
  463MOL0     H61051   9.257   4.190   1.006  0.9411 -0.9048  1.8396
  463MOL0     H61052   9.059   4.103   0.898  1.2952  2.1615  0.0282
  463MOL0     H61053   8.654   4.187   0.886 -0.0583  5.5933 -0.6940
  463MOL0     H61054   8.720   4.289   1.004 -1.2855  0.2266  0.4411
  463MOL0     H61055   8.530   4.202   1.101 -0.6662  0.3078  0.0317
  463MOL0     H61056   8.640   4.083   1.179  0.8269  0.2582 -0.1211
  463MOL0     H61057   8.458   4.043   0.949  0.2843  2.9326  0.6528
  463MOL0     H61058   8.446   3.968   1.104 -1.4099  0.0699 -0.7449
  463MOL0     H61059   8.658   3.893   0.917 -0.2523  2.0960  1.5324
  463MOL0     H61060   8.647   3.846   1.087 -1.3780 -0.1054  1.2784
  463MOL0     H61061   8.441   3.740   1.069  0.5369  2.6245  1.0026
  463MOL0     H61062   8.550   3.665   0.964 -0.3269  0.0979 -0.5540
  463MOL0     H61063   8.476   3.795   0.775 -0.7019 -0.3515  0.6008
  463MOL0     H61064   8.337   3.864   0.856  0.0625  0.4185 -0.7024
  463MOL0     H61065   8.270   3.653   0.728 -0.0671 -1.0791  1.1272
  463MOL0     H61066   8.373   3.560   0.818 -0.2509  0.1675  2.8471
  463MOL0     H61067   8.174   3.740   0.972 -0.5917 -1.6735  1.5583
  463MOL0     H61068   8.250   3.594   1.020 -0.6115  0.1419  0.6708
  463MOL0     H61069   8.086   3.573   0.675  2.6070  0.0538  0.4650
  463MOL0     H61070   7.876   3.446   0.602  0.1343 -4.7791 -2.1910
  463MOL0     H61071   7.732   3.427   0.701  0.2704  0.8288 -0.0148
  463MOL0     H61072   7.792   3.208   0.753 -0.5498 -4.3939 -2.3357
  463MOL0     H61073   7.952   3.228   0.666  0.0383  3.8743 -3.5762
  463MOL0     H61074   7.791   3.301   0.469  0.5444  0.9326  0.4808
  463MOL0     H61075   7.813   3.139   0.499 -0.3910 -0.7373 -0.2477
  463MOL0     H61076   7.588   3.298   0.630 -0.4761  0.1489 -1.7099
  463MOL0     H61077   7.589   3.124   0.639  0.7917  3.0964  2.8644
  463MOL0     H61078   7.372   3.353   0.632  1.4306 -3.8531  3.4175
  463MOL0     H61079   7.133   3.347   0.631 -4.3338  0.6282 -3.4994
  463MOL0     H61080   6.772   2.864   0.524 -0.9193  1.4983  7.6549
  463MOL0     H61081   6.509   2.838   0.492 -2.5844  1.7521 -2.5210
  463MOL0     H61082   6.332   2.934   0.621  1.1481 -0.0770 -0.5195
  463MOL0     H61083   6.261   2.845   0.497  1.0727  0.8050 -0.7217
  463MOL0     H61084   6.169   3.101   0.624  2.5699 -0.9283  0.5212
  463MOL0     H61085   6.106   2.939   0.660  0.6182 -0.4317 -1.3365
  463MOL0     H61086   6.066   2.916   0.399  1.1177  2.2581 -3.8046
  463MOL0     H61087   6.035   3.095   0.412 -3.2878 -0.7154 -0.3573
  463MOL0     H61088   5.932   2.843   0.571  4.0429  1.5481 -0.0152
  463MOL0     H61089   5.866   3.011   0.603  0.7998 -0.2236  0.5820
  463MOL0     H61090   5.836   2.821   0.361  2.1167  0.8859  1.0406
  463MOL0     H61091   5.795   2.992   0.348 -0.5394  0.9913  2.3583
  463MOL0     H61092   5.637   2.954   0.547  0.0246 -0.3445 -0.1093
  463MOL0     H61093   5.670   2.792   0.535 -1.8423  1.2342  1.5926
  463MOL0     H61094   5.551   2.960   0.311 -0.6197 -1.4360 -2.4121
  463MOL0     H61095   5.556   2.783   0.309  1.9624  0.0913  0.2372
  463MOL0     H61096   5.342   2.840   0.361 -2.0775 -3.0179  1.9234
  463MOL0     H61097   5.387   2.954   0.494  2.3234  0.5157 -0.1585
  463MOL0     H61098   6.473   3.249   0.395  1.3210 -0.0777 -0.9496
  463MOL0     H61099   6.713   3.278   0.408 -0.1410 -0.3683 -0.3228
  463MOL0     H61100   7.127   3.003   0.379  1.7461  0.2869 -1.0722
  463MOL0     H61101   7.387   3.020   0.351 -2.2436  0.5147 -0.6854
  463MOL0     H61102   8.816   4.211   1.227 -1.1801 -2.2137 -2.4629
  463MOL0     H61103   9.011   4.275   1.359  2.2832 -1.1050  0.3240
  463MOL0     H61104   9.530   4.282   1.281  0.0134  0.0613  0.4948
  463MOL0     H61105   9.739   4.407   1.291 -3.0285 -2.1592 -2.8997
  463MOL0     H61106   9.754   4.724   1.598  1.1839  1.3217  0.7891
  463MOL0     H61107   9.705   4.812   1.452  1.3232  0.9510 -1.4039
  463MOL0     H61108   9.925   4.855   1.386  0.9063  2.1018  0.8025
  463MOL0     H61109   9.920   4.915   1.548  2.2585  0.8120 -1.0034
  463MOL0     H61110  10.062   4.657   1.453  1.2130  1.8136 -1.9850
  463MOL0     H61111  10.006   4.677   1.617 -1.3750 -0.6877 -1.0245
  463MOL0     H61112  10.262   4.748   1.535  0.6148  1.3054  2.3397
  463MOL0     H61113  10.189   4.886   1.461  2.3826 -0.2672  0.4203
  463MOL0     H61114  10.165   5.016   1.854 -1.9601 -0.0440 -0.5646
  463MOL0     H61115   9.549   4.662   1.587 -3.4173 -0.8489  0.4058
  463MOL0     H61116   9.330   4.560   1.516 -0.4515 -1.0397 -0.8806
  464MOL0     O61117   4.015   3.621   7.784 -0.3724  0.0698 -0.3654
  464MOL0     C61118   4.060   3.741   7.786  0.4332  0.2187  1.0016
  464MOL0     O61119   3.984   3.859   7.770 -0.4725  0.2071  0.3727
  464MOL0     C61120   3.851   3.860   7.760  0.1944 -0.4376  0.1454
  464MOL0     C61121   3.777   3.759   7.697  0.2251  0.3503  0.7048
  464MOL0     C61122   3.638   3.761   7.705 -0.0801 -0.4517 -0.9078
  464MOL0     C61123   3.567   3.863   7.766 -0.2885 -0.0357 -0.8459
  464MOL0     O61124   3.425   3.851   7.749  0.2996  0.3900  0.9720
  464MOL0     C61125   3.359   3.971   7.799  1.0785 -0.2920  0.6672
  464MOL0     C61126   3.212   3.984   7.743  0.7146 -0.0929  0.2727
  464MOL0     C61127   3.098   3.910   7.815  0.3801 -0.3904 -0.2030
  464MOL0     C61128   2.960   3.968   7.768  0.0829 -0.1934 -0.6825
  464MOL0     C61129   2.921   3.992   7.628 -0.7856  1.3915  0.1209
  464MOL0     C61130   2.785   4.064   7.599  0.6467  0.1664  0.0596
  464MOL0     C61131   2.781   4.120   7.456 -0.0711 -0.0487 -0.9141
  464MOL0     C61132   2.692   4.251   7.440  0.5841  0.0535  0.4165
  464MOL0     N61133   2.657   4.271   7.294  0.2402 -0.7138  0.3673
  464MOL0     C61134   2.738   4.314   7.192  0.3716 -0.4677  0.4628
  464MOL0     C61135   2.658   4.324   7.087 -0.4005  0.2366  1.2981
  464MOL0     C61136   2.717   4.343   6.944  0.1043  0.3977  0.8553
  464MOL0     C61137   2.664   4.255   6.836 -0.0496  0.4190  0.3263
  464MOL0     C61138   2.700   4.107   6.874  0.3767  1.1078  0.3283
  464MOL0     C61139   2.847   4.067   6.867  0.0268  1.0406 -0.0413
  464MOL0     O61140   2.886   4.082   6.733 -0.3371  0.1193 -0.1538
  464MOL0     C61141   3.020   4.057   6.704  0.3956  0.9796 -0.4330
  464MOL0     C61142   3.105   3.984   6.795  0.4978  0.3006  0.8560
  464MOL0     C61143   3.245   3.954   6.759  0.3505 -0.3968  0.0852
  464MOL0     C61144   3.295   3.982   6.628  0.9476 -0.5824 -0.2480
  464MOL0     C61145   3.437   3.953   6.587  0.2388  0.0595 -0.1940
  464MOL0     O61146   3.460   3.982   6.456  0.8086  0.7908 -0.4762
  464MOL0     C61147   3.589   3.975   6.416  0.7301 -0.0793 -0.6666
  464MOL0     C61148   3.653   3.855   6.409  1.1501  0.5421 -1.5002
  464MOL0     C61149   3.790   3.849   6.370  0.2572  0.8782  0.1268
  464MOL0     C61150   3.859   3.966   6.336 -0.0693 -0.3198 -0.1397
  464MOL0     O61151   3.988   3.963   6.292 -0.2054  0.3331  0.6834
  464MOL0     C61152   4.027   3.855   6.205 -0.2838 -0.0577 -0.7482
  464MOL0     C61153   4.158   3.904   6.133 -0.0804 -0.0830 -0.0135
  464MOL0     C61154   4.213   3.793   6.036 -0.3808 -0.8620  0.1866
  464MOL0     C61155   4.356   3.823   5.986 -0.0687  1.0534  0.2820
  464MOL0     C61156   4.438   3.695   5.970  1.3282 -0.1149  0.5761
  464MOL0     C61157   4.586   3.721   5.955 -0.2980 -0.0844 -0.2201
  464MOL0     C61158   4.657   3.742   6.090 -0.1780 -0.7725  0.1928
  464MOL0     C61159   4.805   3.774   6.054 -0.1527  0.3300  0.1135
  464MOL0    Cl61160   4.828   3.946   6.040 -0.0632 -0.2621  0.2892
  464MOL0     C61161   3.796   4.091   6.359  0.2135 -0.0279  0.0842
  464MOL0     C61162   3.665   4.094   6.395 -0.1112 -0.8074  0.1000
  464MOL0     O61163   3.510   3.901   6.670 -0.2484 -0.7434  1.1320
  464MOL0     C61164   3.201   4.056   6.536  0.4401  0.3651 -0.0623
  464MOL0     C61165   3.064   4.088   6.577 -0.2048 -0.0285 -0.4536
  464MOL0     N61166   2.530   4.306   7.124  0.4570  0.4669  0.2114
  464MOL0     N61167   2.533   4.260   7.243  0.5337  1.0424  1.3748
  464MOL0     C61168   3.643   3.957   7.839  0.6494 -0.4265  0.9490
  464MOL0     C61169   3.782   3.955   7.836  0.4655  0.2293  0.5884
  464MOL0     C61170   4.208   3.747   7.784 -0.6558 -0.2720 -0.1628
  464MOL0     C61171   4.276   3.858   7.728 -0.7202  0.4192 -0.1288
  464MOL0     C61172   4.418   3.855   7.724 -0.1692  0.4533 -0.2779
  464MOL0     C61173   4.491   3.748   7.780 -0.8907  0.4076  0.5544
  464MOL0     O61174   4.629   3.765   7.778  0.4586  0.5667 -0.1527
  464MOL0     C61175   4.717   3.645   7.793 -0.7620  0.4817  0.2316
  464MOL0     C61176   4.862   3.692   7.779  0.0967 -0.7702 -0.7814
  464MOL0     C61177   4.967   3.596   7.737 -0.1253 -0.5507  0.4489
  464MOL0     C61178   5.089   3.659   7.694 -0.1302 -0.1066  0.6122
  464MOL0     C61179   5.200   3.560   7.687  0.6018 -0.0123  1.0796
  464MOL0     C61180   5.295   3.484   7.686 -0.1660  0.2219  0.1020
  464MOL0     C61181   4.422   3.638   7.833  0.0288 -0.2602  0.6896
  464MOL0     C61182   4.283   3.633   7.818 -0.5808 -0.7009 -0.2308
  464MOL0     H61183   3.832   3.677   7.651  1.2358  0.7213  1.2131
  464MOL0     H61184   3.591   3.677   7.655 -1.4838  1.0782 -2.2752
  464MOL0     H61185   3.419   4.057   7.766  0.9074 -1.0631 -1.8995
  464MOL0     H61186   3.355   3.963   7.908 -0.6703  1.1507  0.7491
  464MOL0     H61187   3.202   3.979   7.634 -2.8842  0.2665  0.4549
  464MOL0     H61188   3.190   4.091   7.745 -0.5945 -0.2667 -1.6262
  464MOL0     H61189   3.117   3.922   7.922 -1.3300  2.4238 -0.1073
  464MOL0     H61190   3.104   3.804   7.791 -0.7635 -0.2173 -1.3741
  464MOL0     H61191   2.883   3.918   7.827 -0.0685  0.2620 -0.4885
  464MOL0     H61192   2.955   4.061   7.826  0.4825 -0.1123 -0.7762
  464MOL0     H61193   2.925   3.896   7.575  0.0026  1.3695  0.2169
  464MOL0     H61194   3.001   4.051   7.583  0.2575  0.4833  0.7528
  464MOL0     H61195   2.755   4.128   7.683  0.8953 -1.0766  1.1150
  464MOL0     H61196   2.707   3.988   7.602  0.6465  0.2005  1.5049
  464MOL0     H61197   2.881   4.152   7.425  0.3681  0.9984  1.3940
  464MOL0     H61198   2.741   4.039   7.394  0.8211 -0.4776 -0.9325
  464MOL0     H61199   2.737   4.338   7.488 -0.0094  0.4759  0.2147
  464MOL0     H61200   2.597   4.220   7.485  1.0421 -1.5171  0.3578
  464MOL0     H61201   2.845   4.322   7.179  0.0394 -0.2582 -3.1931
  464MOL0     H61202   2.826   4.337   6.952  0.5530  5.0691  1.2514
  464MOL0     H61203   2.684   4.443   6.913  0.8287 -0.4291 -3.1437
  464MOL0     H61204   2.690   4.299   6.740  2.0375  0.8850  1.0492
  464MOL0     H61205   2.554   4.256   6.839 -0.1876  0.1604 -2.2455
  464MOL0     H61206   2.672   4.088   6.978  5.7804  1.5354  2.1671
  464MOL0     H61207   2.639   4.043   6.810  1.2574  1.0618 -0.4894
  464MOL0     H61208   2.852   3.960   6.890  0.9778  0.6575 -1.7787
  464MOL0     H61209   2.905   4.130   6.934 -1.5088  2.0833  0.3569
  464MOL0     H61210   3.072   3.943   6.890  0.5077  0.5382  0.9646
  464MOL0     H61211   3.294   3.890   6.832 -2.9495 -0.2436  2.6970
  464MOL0     H61212   3.599   3.763   6.429 -0.0876  1.5118 -0.1703
  464MOL0     H61213   3.840   3.753   6.363 -1.0099  0.2686 -1.0453
  464MOL0     H61214   3.948   3.841   6.131  1.7682 -0.4134 -2.9665
  464MOL0     H61215   4.053   3.777   6.278 -0.1367  3.1920  3.0537
  464MOL0     H61216   4.234   3.937   6.204  2.6116  0.2204 -2.8374
  464MOL0     H61217   4.134   3.994   6.075 -1.4967  0.3980  1.2580
  464MOL0     H61218   4.139   3.776   5.957  0.0394  0.5541 -0.5532
  464MOL0     H61219   4.227   3.699   6.089 -0.2978 -1.5646 -1.0590
  464MOL0     H61220   4.375   3.869   5.888 -0.1507 -1.8644 -1.2054
  464MOL0     H61221   4.405   3.889   6.059 -0.2300 -0.6759  2.0177
  464MOL0     H61222   4.406   3.654   5.874  0.6609  2.0233 -0.1738
  464MOL0     H61223   4.412   3.620   6.045 -2.5678 -1.3207 -1.7110
  464MOL0     H61224   4.595   3.815   5.899 -0.1997 -0.7934 -1.4302
  464MOL0     H61225   4.638   3.644   5.897  0.0042 -0.9391  1.1279
  464MOL0     H61226   4.610   3.825   6.144 -0.2769 -0.4991 -0.3043
  464MOL0     H61227   4.654   3.655   6.155 -0.6665 -1.2898 -0.5103
  464MOL0     H61228   4.826   3.709   5.969  0.7506 -0.3409  0.8335
  464MOL0     H61229   4.866   3.744   6.140 -2.2608 -2.4603  0.7818
  464MOL0     H61230   3.861   4.178   6.353 -1.6017  1.2999 -1.2956
  464MOL0     H61231   3.613   4.187   6.415  1.8936 -0.3142  4.0656
  464MOL0     H61232   3.222   4.081   6.432  0.0882 -0.5560 -0.3708
  464MOL0     H61233   2.995   4.151   6.522  0.2799  1.2841  0.3958
  464MOL0     H61234   3.610   4.045   7.894 -1.8923  0.3094 -1.5180
  464MOL0     H61235   3.849   4.029   7.877 -0.8263  1.1218  1.1855
  464MOL0     H61236   4.227   3.937   7.672  0.5001  0.1586 -1.6370
  464MOL0     H61237   4.480   3.929   7.677  0.8692 -0.5677 -0.5706
  464MOL0     H61238   4.697   3.578   7.709  1.1429  1.5485 -1.1458
  464MOL0     H61239   4.698   3.593   7.887 -0.8678 -2.7379 -1.4403
  464MOL0     H61240   4.865   3.779   7.713  3.8703 -1.6848 -2.0922
  464MOL0     H61241   4.899   3.715   7.879  1.9711 -0.2322 -1.5500
  464MOL0     H61242   4.921   3.536   7.658 -1.1257  3.6332 -2.5039
  464MOL0     H61243   4.985   3.527   7.820 -0.0285  3.4832  4.1250
  464MOL0     H61244   5.081   3.707   7.596  0.1258 -1.0369  0.1269
  464MOL0     H61245   5.105   3.743   7.762 -1.0116  1.3503 -0.8882
  464MOL0     H61246   5.378   3.417   7.680  1.3331  1.5196  3.4665
  464MOL0     H61247   4.475   3.551   7.871 -2.7412 -2.0919  0.6948
  464MOL0     H61248   4.234   3.545   7.859 -0.2876 -0.1298  1.4086
  465MOL0     O61249   0.539   0.955   7.045 -0.0251 -0.6968 -0.0439
  465MOL0     C61250   0.466   1.031   6.979  0.7538 -0.2328 -0.1207
  465MOL0     O61251   0.499   1.129   6.891 -0.8350  0.2074  0.4132
  465MOL0     C61252   0.623   1.153   6.844 -0.3157 -0.0159  1.2025
  465MOL0     C61253   0.661   1.145   6.703 -0.5050  0.7514  0.5578
  465MOL0     C61254   0.797   1.164   6.666  0.4691  0.0386 -0.1946
  465MOL0     C61255   0.900   1.180   6.764  1.3776  0.2718  0.0916
  465MOL0     O61256   1.034   1.214   6.741  0.1423  0.3973 -0.0838
  465MOL0     C61257   1.081   1.208   6.605  0.3359  0.0582  0.1701
  465MOL0     C61258   1.236   1.211   6.614  0.3168 -0.2305 -0.6976
  465MOL0     C61259   1.302   1.190   6.470 -0.3983 -0.5123 -0.5739
  465MOL0     C61260   1.452   1.196   6.482  1.1389  0.1038  0.0091
  465MOL0     C61261   1.529   1.208   6.351  0.3226 -0.2904 -0.0164
  465MOL0     C61262   1.596   1.348   6.333  0.9656 -0.3464 -0.4846
  465MOL0     C61263   1.640   1.379   6.192  0.4148  0.6005 -0.1072
  465MOL0     C61264   1.720   1.501   6.157  0.0442  0.6219 -0.5952
  465MOL0     N61265   1.651   1.632   6.171  0.3813 -0.3874 -0.0061
  465MOL0     C61266   1.704   1.753   6.131 -1.6383 -0.8003  0.9984
  465MOL0     C61267   1.615   1.845   6.155 -0.2200  0.5195  0.5517
  465MOL0     C61268   1.645   1.996   6.139 -0.7986 -0.7111 -0.4288
  465MOL0     C61269   1.664   2.048   5.997 -0.1986 -0.2631  0.4841
  465MOL0     C61270   1.542   2.021   5.896 -0.4290 -0.0124 -0.2245
  465MOL0     C61271   1.543   2.114   5.779 -0.1651 -0.1170 -0.2607
  465MOL0     O61272   1.440   2.075   5.686  0.0749 -0.5695 -0.1212
  465MOL0     C61273   1.323   2.146   5.667  0.0430 -0.1017 -0.0090
  465MOL0     C61274   1.269   2.243   5.750 -0.4605 -0.0510  0.1740
  465MOL0     C61275   1.160   2.316   5.716  0.2854  0.1396 -0.8573
  465MOL0     C61276   1.089   2.275   5.599 -0.6005  0.4385 -0.7546
  465MOL0     C61277   0.960   2.336   5.564  0.4501  0.3031 -0.4095
  465MOL0     O61278   0.883   2.277   5.470 -0.8511 -0.0871 -0.1560
  465MOL0     C61279   0.754   2.329   5.454  0.4875 -0.9319  0.2505
  465MOL0     C61280   0.657   2.279   5.542 -0.8573  0.2984 -0.6318
  465MOL0     C61281   0.523   2.314   5.529 -0.5903  0.3384  0.4362
  465MOL0     C61282   0.488   2.410   5.426  0.5323  0.2175 -1.0225
  465MOL0     O61283   0.347   2.429   5.402 -0.1273 -0.0589 -0.4751
  465MOL0     C61284   0.287   2.505   5.506 -0.1083  0.2583  0.8188
  465MOL0     C61285   0.142   2.535   5.472 -0.9256 -0.8918 -0.5903
  465MOL0     C61286   0.060   2.429   5.540  1.4122 -0.5444  0.1997
  465MOL0     C61287  -0.086   2.419   5.482  0.1145 -0.1568 -0.9283
  465MOL0     C61288  -0.163   2.537   5.525 -0.1498  0.1718 -1.0144
  465MOL0     C61289  -0.304   2.502   5.466 -0.4856 -0.5307  0.1945
  465MOL0     C61290  -0.421   2.573   5.543 -0.0003  0.2656  0.4860
  465MOL0     C61291  -0.552   2.579   5.463 -1.0169 -0.2990 -0.1054
  465MOL0    Cl61292  -0.539   2.711   5.339  0.0612  0.0313  0.0743
  465MOL0     C61293   0.578   2.461   5.338  0.8121 -0.8280  0.3887
  465MOL0     C61294   0.714   2.421   5.349 -0.1556  1.2325  0.6353
  465MOL0     O61295   0.920   2.425   5.634  0.6310  0.0453  0.4111
  465MOL0     C61296   1.137   2.168   5.517 -1.6698  0.6230 -0.7329
  465MOL0     C61297   1.256   2.109   5.553 -0.6147 -0.5277 -0.0488
  465MOL0     N61298   1.495   1.781   6.185  0.1888 -0.8283  0.5584
  465MOL0     N61299   1.524   1.658   6.207 -0.3331 -0.2945 -0.2012
  465MOL0     C61300   0.859   1.175   6.899 -0.1485 -0.3349  0.5675
  465MOL0     C61301   0.730   1.160   6.937 -0.3068  0.5390 -0.3598
  465MOL0     C61302   0.321   1.027   7.017  0.3473 -0.2210 -0.0016
  465MOL0     C61303   0.218   1.071   6.927  0.1037 -0.2881 -0.4194
  465MOL0     C61304   0.083   1.081   6.982 -1.0000 -0.6287 -0.2410
  465MOL0     C61305   0.051   1.037   7.104 -0.4545 -0.3903  0.0312
  465MOL0     O61306  -0.085   1.049   7.126  0.3610 -0.5416  0.0152
  465MOL0     C61307  -0.141   0.975   7.239  0.4455  0.2456 -0.0693
  465MOL0     C61308  -0.194   1.076   7.340 -0.8449 -0.5167  0.0189
  465MOL0     C61309  -0.229   1.001   7.472  0.0848 -0.2280  0.4199
  465MOL0     C61310  -0.358   0.912   7.447 -0.2802 -0.0971 -0.0620
  465MOL0     C61311  -0.392   0.841   7.574 -0.7079 -0.4857 -1.0149
  465MOL0     C61312  -0.417   0.787   7.677 -0.1213  0.4422 -0.6941
  465MOL0     C61313   0.149   0.985   7.187 -0.1645 -0.6524  0.6240
  465MOL0     C61314   0.282   0.971   7.142 -0.2782  0.2065 -0.5213
  465MOL0     H61315   0.582   1.121   6.633  0.6855  1.0701 -0.9256
  465MOL0     H61316   0.825   1.164   6.561  3.3670  0.8836  0.4954
  465MOL0     H61317   1.041   1.291   6.547 -2.6105 -1.1795  0.2848
  465MOL0     H61318   1.041   1.117   6.560  0.5400  0.3906 -0.6950
  465MOL0     H61319   1.275   1.137   6.684  2.0648 -0.4572 -1.8361
  465MOL0     H61320   1.259   1.301   6.671  1.6316 -3.4366  4.5031
  465MOL0     H61321   1.273   1.268   6.399  0.7907 -0.9894 -1.6181
  465MOL0     H61322   1.274   1.091   6.435 -5.3323  0.1992  0.5762
  465MOL0     H61323   1.488   1.264   6.560 -0.5770 -1.5166  2.3796
  465MOL0     H61324   1.485   1.098   6.519  3.3176  0.2092 -1.4906
  465MOL0     H61325   1.456   1.209   6.269  1.1987 -1.9707 -0.8631
  465MOL0     H61326   1.598   1.125   6.336 -1.2938 -1.5551 -0.6943
  465MOL0     H61327   1.686   1.366   6.393 -1.1977  3.7394  1.9459
  465MOL0     H61328   1.529   1.423   6.376 -0.0440  0.3074 -3.0521
  465MOL0     H61329   1.710   1.299   6.165 -0.4912 -0.0118 -0.6692
  465MOL0     H61330   1.553   1.383   6.126  1.0761  0.1927 -1.0390
  465MOL0     H61331   1.767   1.485   6.060 -1.6605 -1.5208 -1.1543
  465MOL0     H61332   1.802   1.500   6.228 -1.2801 -1.1050  1.0298
  465MOL0     H61333   1.807   1.774   6.103 -1.6877 -0.8260  0.7966
  465MOL0     H61334   1.728   2.030   6.201 -0.2963  1.0221 -1.9736
  465MOL0     H61335   1.554   2.046   6.173  0.3827  0.1413  1.6353
  465MOL0     H61336   1.750   1.987   5.970  0.4121 -0.8633  3.3623
  465MOL0     H61337   1.692   2.154   6.003  0.3172 -0.1094 -2.9959
  465MOL0     H61338   1.554   1.926   5.843 -0.2162  0.1432 -0.4580
  465MOL0     H61339   1.444   2.035   5.942 -0.4859  0.6018 -0.5169
  465MOL0     H61340   1.641   2.094   5.735  1.1160 -1.0627  2.7454
  465MOL0     H61341   1.529   2.214   5.822 -0.8383 -0.5547  0.5758
  465MOL0     H61342   1.314   2.276   5.843 -2.5524  2.6946  0.3279
  465MOL0     H61343   1.129   2.397   5.782 -0.3389 -1.9543  1.6197
  465MOL0     H61344   0.676   2.208   5.622 -0.5118 -0.4244 -1.3312
  465MOL0     H61345   0.446   2.259   5.582 -1.5556  1.3277  0.0977
  465MOL0     H61346   0.343   2.598   5.518 -1.3983  0.8363  2.6943
  465MOL0     H61347   0.298   2.447   5.598 -0.6281 -1.0995  0.0562
  465MOL0     H61348   0.142   2.539   5.363  3.2096 -2.3558 -0.8136
  465MOL0     H61349   0.107   2.629   5.515 -1.3805 -0.1793 -2.4170
  465MOL0     H61350   0.062   2.459   5.645 -0.4708 -0.7341  0.3298
  465MOL0     H61351   0.112   2.332   5.537 -0.6990 -1.7527  0.4327
  465MOL0     H61352  -0.073   2.422   5.373 -1.7050 -3.6517 -1.3970
  465MOL0     H61353  -0.133   2.324   5.511 -0.7751  1.0495  1.8738
  465MOL0     H61354  -0.128   2.637   5.498 -0.5153  0.6062  0.0874
  465MOL0     H61355  -0.181   2.538   5.633 -2.5213 -0.2937 -1.3421
  465MOL0     H61356  -0.321   2.394   5.458  0.1435 -0.7636  1.5498
  465MOL0     H61357  -0.306   2.530   5.360 -0.3065  1.1753  0.6089
  465MOL0     H61358  -0.438   2.510   5.631  2.0076  0.9557  1.4237
  465MOL0     H61359  -0.389   2.672   5.575 -0.7577  0.7061 -0.0924
  465MOL0     H61360  -0.630   2.599   5.537 -0.5098 -0.5878  0.5218
  465MOL0     H61361  -0.569   2.486   5.407  1.9271 -3.6959  3.9878
  465MOL0     H61362   0.539   2.519   5.254  0.5908 -0.2500  0.8872
  465MOL0     H61363   0.775   2.449   5.263 -0.0092 -0.4996  0.1434
  465MOL0     H61364   1.084   2.132   5.429 -0.0405 -0.0852 -1.4618
  465MOL0     H61365   1.309   2.033   5.495  0.2349  1.0315 -1.4182
  465MOL0     H61366   0.944   1.183   6.966  2.4183  1.5185 -2.5541
  465MOL0     H61367   0.725   1.150   7.045  1.0795 -1.5514 -0.4366
  465MOL0     H61368   0.238   1.077   6.820 -2.8118 -3.5912 -1.3413
  465MOL0     H61369   0.010   1.128   6.917  1.4225  1.8915 -1.3273
  465MOL0     H61370  -0.071   0.911   7.292  0.5697  0.2436 -0.2333
  465MOL0     H61371  -0.225   0.911   7.211 -1.2203  2.5613 -0.6929
  465MOL0     H61372  -0.122   1.153   7.369 -0.1212  0.0901 -3.0023
  465MOL0     H61373  -0.279   1.133   7.303 -1.0439 -0.9770 -0.2397
  465MOL0     H61374  -0.240   1.077   7.551 -1.5022  1.4173 -1.3003
  465MOL0     H61375  -0.148   0.934   7.502  1.1923  0.1361 -1.5809
  465MOL0     H61376  -0.446   0.969   7.415 -1.4792 -2.0304 -0.3581
  465MOL0     H61377  -0.332   0.838   7.371 -1.0172 -3.1980  2.4930
  465MOL0     H61378  -0.456   0.724   7.755  0.2014 -2.5734 -2.8117
  465MOL0     H61379   0.121   0.952   7.286 -2.6676 -4.2001 -1.0709
  465MOL0     H61380   0.354   0.924   7.209 -0.8625  0.6559  0.4516
  466MOL0     O61381   2.753   7.693   4.775 -0.0229  0.1212 -0.5614
  466MOL0     C61382   2.687   7.797   4.805  0.2745  0.4540 -0.6109
  466MOL0     O61383   2.740   7.919   4.838 -0.0153  0.6738  0.2047
  466MOL0     C61384   2.872   7.926   4.876 -1.0082 -0.3800 -1.0705
  466MOL0     C61385   2.938   8.039   4.850 -0.6321 -0.5523  0.1448
  466MOL0     C61386   3.066   8.082   4.887 -0.0786  0.3837 -0.5718
  466MOL0     C61387   3.149   7.982   4.935  0.4897  0.3629 -0.0907
  466MOL0     O61388   3.280   7.993   4.966 -0.4180 -0.4312  0.4287
  466MOL0     C61389   3.354   8.118   4.943  0.6949 -0.0051  0.5694
  466MOL0     C61390   3.498   8.093   4.977  0.6284 -0.1888 -0.2836
  466MOL0     C61391   3.586   8.217   4.981 -0.0344  0.4364 -0.4000
  466MOL0     C61392   3.734   8.191   5.008 -0.0649 -0.6553 -0.6756
  466MOL0     C61393   3.820   8.319   4.990  0.3422  0.0754  0.4481
  466MOL0     C61394   3.964   8.291   5.049 -0.1739 -0.1835 -0.5713
  466MOL0     C61395   4.055   8.407   5.008 -0.7948 -0.5989 -1.0571
  466MOL0     C61396   4.194   8.365   5.060  0.6752  0.1835 -0.5743
  466MOL0     N61397   4.288   8.468   5.024  0.4181 -0.4161  0.9626
  466MOL0     C61398   4.287   8.602   5.053  0.0642  0.5398 -0.6068
  466MOL0     C61399   4.405   8.658   5.009  0.5101 -0.8654 -0.4071
  466MOL0     C61400   4.434   8.803   5.013 -0.6002  0.2098  0.1964
  466MOL0     C61401   4.438   8.863   4.866  0.5166 -0.2729 -1.2866
  466MOL0     C61402   4.354   8.986   4.840  0.4471 -0.0596  0.1297
  466MOL0     C61403   4.206   8.937   4.816  1.3132 -0.4907 -0.1872
  466MOL0     O61404   4.135   8.873   4.924 -0.4853  0.6714 -0.0833
  466MOL0     C61405   3.998   8.845   4.909 -0.7631 -0.4718  0.9998
  466MOL0     C61406   3.919   8.855   4.785  0.0687 -0.5997  0.6282
  466MOL0     C61407   3.777   8.836   4.789  0.3310 -0.4778  0.1128
  466MOL0     C61408   3.710   8.806   4.905  0.0325  0.8509 -0.3750
  466MOL0     C61409   3.564   8.775   4.903  1.1355 -0.2323  0.0172
  466MOL0     O61410   3.508   8.758   5.028  0.1890 -0.3954 -0.1319
  466MOL0     C61411   3.384   8.701   5.032 -0.3298 -0.5041  0.3309
  466MOL0     C61412   3.368   8.563   5.041  0.4970  0.2462  0.9850
  466MOL0     C61413   3.231   8.511   5.051  0.4149  0.3031 -0.0628
  466MOL0     C61414   3.110   8.584   5.057 -0.1273  0.2235  0.6809
  466MOL0     O61415   2.981   8.533   5.087 -0.3780  0.3135 -0.7154
  466MOL0     C61416   2.946   8.431   4.989 -0.1051 -0.3360 -0.1158
  466MOL0     C61417   2.821   8.350   5.027  0.9322 -0.4256 -0.0347
  466MOL0     C61418   2.702   8.437   5.057 -0.2000  0.4204  0.2093
  466MOL0     C61419   2.577   8.365   5.032 -0.1871  0.3240 -0.2930
  466MOL0     C61420   2.469   8.429   5.120  0.3054  0.5814  1.3834
  466MOL0     C61421   2.338   8.354   5.083  0.1065 -0.2809  0.8414
  466MOL0     C61422   2.311   8.223   5.161  0.8314  0.5762  0.5530
  466MOL0     C61423   2.167   8.169   5.156  0.2183  0.1845  0.3160
  466MOL0    Cl61424   2.127   8.136   4.986  0.1299 -0.0079  0.5466
  466MOL0     C61425   3.127   8.715   5.052  0.2808 -0.1803  0.1239
  466MOL0     C61426   3.258   8.775   5.038  0.2437 -0.1988  0.2218
  466MOL0     O61427   3.497   8.789   4.796 -0.1276  0.4917  0.4094
  466MOL0     C61428   3.789   8.793   5.023 -0.0569  0.3061  0.1118
  466MOL0     C61429   3.926   8.807   5.031 -0.6693  0.0576  0.1669
  466MOL0     N61430   4.482   8.555   4.967 -0.3442 -0.7074 -0.2102
  466MOL0     N61431   4.412   8.449   4.964 -0.0192  0.8456  0.0715
  466MOL0     C61432   3.096   7.851   4.963  0.2086  0.2048  0.2265
  466MOL0     C61433   2.957   7.827   4.934 -0.2024  0.3156 -0.4839
  466MOL0     C61434   2.542   7.777   4.810 -0.0037 -0.0877 -0.2054
  466MOL0     C61435   2.484   7.643   4.819 -0.6088 -0.1325 -0.7059
  466MOL0     C61436   2.346   7.629   4.830 -0.1482 -0.4943 -0.1744
  466MOL0     C61437   2.257   7.737   4.843 -0.2911 -0.5680  0.0117
  466MOL0     O61438   2.125   7.741   4.881  0.2534 -0.1905  0.1509
  466MOL0     C61439   2.068   7.621   4.938  0.6326  1.0096  0.3841
  466MOL0     C61440   1.919   7.640   4.978 -0.1437  0.1664  0.2225
  466MOL0     C61441   1.905   7.706   5.116  0.6195  0.6370  0.3269
  466MOL0     C61442   1.957   7.849   5.126  0.0701  0.3342 -0.3651
  466MOL0     C61443   1.888   7.941   5.038  0.3549  0.3532 -0.2847
  466MOL0     C61444   1.823   8.026   4.988  0.7522 -0.1325 -0.5614
  466MOL0     C61445   2.318   7.860   4.840  0.3570 -0.3244  1.2211
  466MOL0     C61446   2.453   7.892   4.820 -0.5143  0.1276  0.0626
  466MOL0     H61447   2.877   8.110   4.796 -0.6090 -1.1359 -0.6609
  466MOL0     H61448   3.102   8.184   4.876 -0.4643  0.7966  1.5611
  466MOL0     H61449   3.314   8.195   5.010  2.5110  0.8696  0.7285
  466MOL0     H61450   3.340   8.149   4.839 -0.1001 -1.1370  0.3286
  466MOL0     H61451   3.527   8.021   4.900 -2.5003 -2.0022  0.0574
  466MOL0     H61452   3.502   8.044   5.075 -0.4973  1.5879  0.7036
  466MOL0     H61453   3.545   8.284   5.057 -1.8655  0.9004 -1.7171
  466MOL0     H61454   3.577   8.282   4.893  0.2041  1.1657  0.1029
  466MOL0     H61455   3.744   8.159   5.112  0.5149 -0.9109 -0.8070
  466MOL0     H61456   3.770   8.111   4.942  2.1332 -1.9242  1.8689
  466MOL0     H61457   3.768   8.408   5.028 -1.2017  0.5391 -2.4250
  466MOL0     H61458   3.824   8.344   4.883  0.6562  4.2793  1.2821
  466MOL0     H61459   4.005   8.201   5.003 -1.0763 -0.3906 -0.9875
  466MOL0     H61460   3.952   8.276   5.157 -3.5064  1.9751 -0.4975
  466MOL0     H61461   4.049   8.444   4.906  1.0316 -0.1789 -1.0440
  466MOL0     H61462   4.026   8.495   5.067  0.0090  0.5734 -2.3492
  466MOL0     H61463   4.219   8.272   5.008 -0.8712 -0.2290 -0.6276
  466MOL0     H61464   4.195   8.335   5.165  4.3272 -1.0652 -0.8172
  466MOL0     H61465   4.197   8.645   5.095  0.3763 -1.4533  2.4441
  466MOL0     H61466   4.529   8.821   5.064 -0.7525  1.1160  0.1868
  466MOL0     H61467   4.355   8.852   5.072 -1.9900 -1.6919 -0.0044
  466MOL0     H61468   4.413   8.778   4.801  0.5639 -0.0469 -1.6013
  466MOL0     H61469   4.545   8.877   4.846  1.8307 -5.0610  0.8260
  466MOL0     H61470   4.370   9.065   4.913  2.8975 -2.0124  1.8827
  466MOL0     H61471   4.379   9.024   4.740  0.5195 -0.9321 -0.1988
  466MOL0     H61472   4.211   8.867   4.731  1.4291 -1.6365  0.7372
  466MOL0     H61473   4.146   9.023   4.785 -2.8931 -2.9888  0.2434
  466MOL0     H61474   3.951   8.891   4.688 -1.4469  2.0602  1.0054
  466MOL0     H61475   3.722   8.853   4.697 -2.9290  1.0911  2.1719
  466MOL0     H61476   3.460   8.506   5.044  0.5730  0.3796  1.2350
  466MOL0     H61477   3.211   8.405   5.066 -4.3408  1.1342  0.9864
  466MOL0     H61478   3.028   8.363   4.964 -1.1864 -1.4883 -0.6294
  466MOL0     H61479   2.915   8.493   4.904 -3.3996 -0.7734  0.6224
  466MOL0     H61480   2.850   8.300   5.121 -0.5108 -2.8724 -0.7998
  466MOL0     H61481   2.794   8.270   4.957  1.5552  1.9854 -3.2402
  466MOL0     H61482   2.703   8.516   4.981 -2.7738 -1.4582 -1.9907
  466MOL0     H61483   2.716   8.484   5.155 -1.8324 -0.5822  0.9635
  466MOL0     H61484   2.549   8.380   4.927  1.4696 -0.7411 -0.9264
  466MOL0     H61485   2.580   8.256   5.043  1.8465  0.0438 -2.7199
  466MOL0     H61486   2.457   8.534   5.092 -0.2105 -0.2961 -2.2640
  466MOL0     H61487   2.490   8.422   5.227 -0.1415 -0.3906  1.4192
  466MOL0     H61488   2.330   8.342   4.975 -0.2065  1.3555  0.6615
  466MOL0     H61489   2.253   8.418   5.107 -1.3752 -1.1632 -1.7297
  466MOL0     H61490   2.369   8.142   5.117  1.2430  1.0021  0.3058
  466MOL0     H61491   2.339   8.240   5.266  0.4774  0.5971  0.6441
  466MOL0     H61492   2.092   8.237   5.199 -2.1863 -1.2882 -1.3606
  466MOL0     H61493   2.164   8.070   5.202 -2.6606  0.0231 -0.0194
  466MOL0     H61494   3.043   8.781   5.067  0.8098  0.2088  1.5683
  466MOL0     H61495   3.269   8.883   5.040 -2.4136  0.1438  1.3402
  466MOL0     H61496   3.728   8.765   5.108  1.4750 -0.8871  0.8849
  466MOL0     H61497   3.985   8.811   5.122 -0.6408  0.6248  0.1235
  466MOL0     H61498   3.174   7.789   5.004  0.6304  0.5846  0.0047
  466MOL0     H61499   2.918   7.726   4.940  1.2484 -0.4366 -2.6517
  466MOL0     H61500   2.543   7.555   4.841 -0.4236  0.5646  1.8517
  466MOL0     H61501   2.294   7.534   4.835 -1.1177 -0.0723 -1.5704
  466MOL0     H61502   2.133   7.576   5.014 -0.2086  1.8168  1.6315
  466MOL0     H61503   2.075   7.549   4.856 -1.4459  2.3442 -1.0664
  466MOL0     H61504   1.872   7.690   4.893  0.2184 -1.3785 -0.9251
  466MOL0     H61505   1.869   7.543   4.981  2.3574 -1.2926 -1.1664
  466MOL0     H61506   1.951   7.633   5.184 -2.4704 -1.1447  0.6985
  466MOL0     H61507   1.802   7.700   5.152  0.3041 -2.8295 -0.7925
  466MOL0     H61508   1.937   7.895   5.223  0.5963  0.7763 -0.4600
  466MOL0     H61509   2.063   7.861   5.104  0.4567  0.1696  1.2802
  466MOL0     H61510   1.781   8.111   4.939  1.7305  1.5850  1.4316
  466MOL0     H61511   2.248   7.943   4.847  1.9498  1.2489 -0.4579
  466MOL0     H61512   2.494   7.992   4.821  0.5383 -0.2505  3.1298
  467MOL0     O61513   3.195   1.333   1.354 -0.7826  0.4700 -0.0831
  467MOL0     C61514   3.205   1.379   1.243 -0.2590  0.0383 -0.5150
  467MOL0     O61515   3.109   1.426   1.158  0.2123  0.6199  0.1191
  467MOL0     C61516   2.986   1.431   1.221  0.5273 -0.3892 -0.8375
  467MOL0     C61517   2.897   1.338   1.178 -0.1071 -0.1470  0.4758
  467MOL0     C61518   2.765   1.340   1.235 -0.1324 -0.3029 -0.0329
  467MOL0     C61519   2.726   1.441   1.318 -0.8717  0.4096  0.6405
  467MOL0     O61520   2.601   1.432   1.368 -0.8827 -0.6053  0.4702
  467MOL0     C61521   2.556   1.555   1.426  0.1830  0.4133  0.0703
  467MOL0     C61522   2.404   1.533   1.466  0.2765  0.2122  0.0956
  467MOL0     C61523   2.302   1.532   1.342  0.0516  0.2816 -0.8861
  467MOL0     C61524   2.159   1.506   1.383 -0.4340 -0.0338 -0.7040
  467MOL0     C61525   2.096   1.616   1.466 -0.1263 -0.4937  0.8409
  467MOL0     C61526   1.945   1.604   1.480  0.4927 -0.0172  0.7312
  467MOL0     C61527   1.881   1.736   1.528 -0.5404  0.7829 -0.1836
  467MOL0     C61528   1.917   1.784   1.666  0.2429  0.1508  0.2902
  467MOL0     N61529   1.826   1.894   1.702  0.0537 -0.1038  0.1459
  467MOL0     C61530   1.691   1.902   1.730 -0.4541  0.1768  0.0989
  467MOL0     C61531   1.662   2.024   1.771  0.1852  1.0157  0.4763
  467MOL0     C61532   1.530   2.086   1.828 -0.6319  0.3950 -1.1767
  467MOL0     C61533   1.552   2.188   1.939  0.3822  0.0345 -0.0580
  467MOL0     C61534   1.432   2.257   2.001 -0.4560 -0.1406 -0.4522
  467MOL0     C61535   1.469   2.300   2.137  0.1131 -0.2848 -0.2148
  467MOL0     O61536   1.440   2.436   2.167  0.9095  0.5569  0.0166
  467MOL0     C61537   1.308   2.481   2.195  0.9414  0.6497  0.3323
  467MOL0     C61538   1.298   2.617   2.216  0.2593 -0.7865  1.1601
  467MOL0     C61539   1.176   2.673   2.241 -0.0520 -0.4171  0.3724
  467MOL0     C61540   1.062   2.599   2.232 -0.1986 -0.1152  0.4870
  467MOL0     C61541   0.935   2.666   2.263  0.4516 -0.4638 -0.3252
  467MOL0     O61542   0.830   2.586   2.295 -0.0606 -0.3197  0.9376
  467MOL0     C61543   0.719   2.627   2.361  0.3838 -0.1125 -0.3686
  467MOL0     C61544   0.642   2.740   2.333 -0.0775 -0.8182 -0.0970
  467MOL0     C61545   0.527   2.766   2.414  0.4279  0.2868 -0.6655
  467MOL0     C61546   0.496   2.672   2.522  0.7667  0.4385  0.0114
  467MOL0     O61547   0.389   2.695   2.606  0.1124 -0.4899 -0.4748
  467MOL0     C61548   0.255   2.698   2.551  0.3718 -0.0017  0.5925
  467MOL0     C61549   0.209   2.554   2.531  0.6336  0.2797 -0.0998
  467MOL0     C61550   0.075   2.540   2.463 -0.0928 -1.0155 -0.4984
  467MOL0     C61551   0.045   2.392   2.438 -0.1724 -0.3703 -0.0163
  467MOL0     C61552  -0.105   2.363   2.445 -0.1680  0.4105 -0.0226
  467MOL0     C61553  -0.173   2.418   2.325  0.9611  1.1199 -1.1704
  467MOL0     C61554  -0.331   2.403   2.334 -0.2055  0.3433 -0.0361
  467MOL0     C61555  -0.393   2.396   2.196 -0.1497 -0.7677  0.0909
  467MOL0    Cl61556  -0.341   2.536   2.089  0.1767  0.0051 -0.1521
  467MOL0     C61557   0.584   2.567   2.548  0.4467 -0.0344  0.4779
  467MOL0     C61558   0.690   2.542   2.467 -1.1663  0.6620 -0.1995
  467MOL0     O61559   0.931   2.787   2.263  0.1670 -0.2102 -0.2452
  467MOL0     C61560   1.064   2.465   2.195 -0.9344 -0.7161 -1.3254
  467MOL0     C61561   1.189   2.402   2.183  0.8228 -0.0295 -0.9183
  467MOL0     N61562   1.776   2.095   1.756  0.0083 -0.2141 -0.2275
  467MOL0     N61563   1.876   2.021   1.716  0.2550 -0.5028  0.4900
  467MOL0     C61564   2.820   1.531   1.350 -0.1828  0.3030 -0.6146
  467MOL0     C61565   2.950   1.531   1.309 -0.3507  0.2945  0.0926
  467MOL0     C61566   3.341   1.406   1.191  0.3764  0.5432 -0.3253
  467MOL0     C61567   3.366   1.407   1.052 -0.3320 -0.3635  0.2539
  467MOL0     C61568   3.495   1.424   0.994 -0.7866  0.1951  0.5010
  467MOL0     C61569   3.609   1.437   1.084  0.5408  0.1100  0.5904
  467MOL0     O61570   3.732   1.460   1.032  0.3131  0.3527 -0.3127
  467MOL0     C61571   3.840   1.475   1.121 -0.4837  0.2981 -0.1317
  467MOL0     C61572   3.959   1.536   1.046 -0.5497  0.2783 -0.2029
  467MOL0     C61573   4.036   1.436   0.954 -0.0708  0.9468 -0.6875
  467MOL0     C61574   4.129   1.507   0.851  0.1126  0.2547 -0.3119
  467MOL0     C61575   4.198   1.620   0.912 -0.7824  0.6254 -0.0351
  467MOL0     C61576   4.264   1.701   0.971  0.4802 -0.1380  0.6811
  467MOL0     C61577   3.578   1.420   1.226  0.0600 -0.2117  0.2960
  467MOL0     C61578   3.451   1.410   1.278 -0.3611 -0.5215 -0.7440
  467MOL0     H61579   2.929   1.265   1.104 -0.9240  0.8377 -0.8839
  467MOL0     H61580   2.686   1.271   1.206 -0.7907  1.6597 -3.4444
  467MOL0     H61581   2.567   1.646   1.366  0.4410 -0.6213 -1.5035
  467MOL0     H61582   2.592   1.580   1.526  0.3584  3.5812 -0.6607
  467MOL0     H61583   2.391   1.617   1.534  1.0881  0.7367 -0.3851
  467MOL0     H61584   2.394   1.438   1.519  1.5575 -0.5667 -0.9813
  467MOL0     H61585   2.323   1.455   1.268 -1.5955 -1.4825  0.3903
  467MOL0     H61586   2.313   1.631   1.297 -0.8438  0.1211 -1.4712
  467MOL0     H61587   2.099   1.491   1.292  0.2135  4.5606 -2.1265
  467MOL0     H61588   2.141   1.418   1.446 -1.1938  1.0972  0.7034
  467MOL0     H61589   2.114   1.712   1.416 -0.4205 -1.0460 -0.3777
  467MOL0     H61590   2.138   1.611   1.567  0.8613 -1.7266  0.4074
  467MOL0     H61591   1.909   1.521   1.541  1.7156 -0.5704  0.7252
  467MOL0     H61592   1.908   1.583   1.379  1.4569  0.9102  0.1718
  467MOL0     H61593   1.888   1.812   1.450 -3.8974  4.8149  2.9011
  467MOL0     H61594   1.775   1.711   1.541 -0.1353 -2.4834 -2.0698
  467MOL0     H61595   2.024   1.804   1.667  0.5038 -0.9362 -1.8440
  467MOL0     H61596   1.901   1.700   1.734  3.8700 -0.3463  0.7222
  467MOL0     H61597   1.623   1.817   1.738 -1.3950  0.9023  0.0480
  467MOL0     H61598   1.456   2.017   1.870 -0.1217  0.4438 -0.1600
  467MOL0     H61599   1.493   2.153   1.750 -1.6202  0.2389 -0.8575
  467MOL0     H61600   1.620   2.263   1.898  1.8213 -1.2585 -0.1585
  467MOL0     H61601   1.602   2.131   2.018 -0.4003  1.6818  1.6829
  467MOL0     H61602   1.410   2.353   1.955 -0.1822 -0.0499 -0.3974
  467MOL0     H61603   1.338   2.201   2.011 -0.3529 -0.5292 -1.5410
  467MOL0     H61604   1.578   2.293   2.151  0.2346 -3.2532 -1.9087
  467MOL0     H61605   1.414   2.238   2.208 -0.0365 -0.0351 -0.1138
  467MOL0     H61606   1.385   2.682   2.220  1.7367 -2.6677  0.6075
  467MOL0     H61607   1.167   2.778   2.268 -0.9989  0.1854 -1.9736
  467MOL0     H61608   0.668   2.812   2.256  1.0840 -0.3823  0.6631
  467MOL0     H61609   0.469   2.856   2.398  0.2621  0.3568  0.2965
  467MOL0     H61610   0.241   2.762   2.463 -3.0152 -0.9823  0.2648
  467MOL0     H61611   0.194   2.753   2.623  1.1162  1.8541 -0.1250
  467MOL0     H61612   0.204   2.496   2.624 -1.8261 -0.2938 -0.5185
  467MOL0     H61613   0.280   2.493   2.475  3.5796  0.8581  2.6601
  467MOL0     H61614   0.068   2.601   2.372 -1.6401  0.3522  0.4720
  467MOL0     H61615  -0.004   2.582   2.526 -1.4158 -1.3550 -1.8693
  467MOL0     H61616   0.082   2.354   2.342  0.3637  2.9368 -1.2301
  467MOL0     H61617   0.104   2.335   2.511 -0.6429 -0.1021  0.5714
  467MOL0     H61618  -0.152   2.402   2.536 -3.6402 -2.3201 -0.4282
  467MOL0     H61619  -0.128   2.256   2.447  1.5714  0.0172  1.2519
  467MOL0     H61620  -0.143   2.355   2.240 -0.8515 -1.7643  0.2058
  467MOL0     H61621  -0.144   2.521   2.299  2.1114  0.8114 -1.1739
  467MOL0     H61622  -0.347   2.307   2.383  2.7219  0.0002  0.4030
  467MOL0     H61623  -0.379   2.485   2.387 -1.9152 -0.6902  0.1009
  467MOL0     H61624  -0.502   2.407   2.189  0.1557  1.9076 -2.8448
  467MOL0     H61625  -0.369   2.306   2.138 -1.0304  1.0333 -3.3703
  467MOL0     H61626   0.551   2.506   2.630  1.6915  3.2162  3.6783
  467MOL0     H61627   0.761   2.464   2.495 -3.3208 -2.7670 -3.2710
  467MOL0     H61628   0.971   2.410   2.193 -1.0604 -0.5394 -4.4449
  467MOL0     H61629   1.189   2.294   2.180  1.5036 -0.1317  1.1357
  467MOL0     H61630   2.792   1.607   1.422 -0.0637 -1.2309  1.1296
  467MOL0     H61631   3.020   1.614   1.309 -0.4959  0.4299 -0.7979
  467MOL0     H61632   3.279   1.379   0.993 -2.2915  0.0612  2.7487
  467MOL0     H61633   3.525   1.436   0.890  1.1443 -0.3587  0.9464
  467MOL0     H61634   3.863   1.382   1.174 -1.2497  1.1264  1.7529
  467MOL0     H61635   3.830   1.544   1.206  3.5026 -0.7918  1.4835
  467MOL0     H61636   3.927   1.621   0.984  0.2616  2.4144  2.1496
  467MOL0     H61637   4.020   1.585   1.122 -0.3902  1.8069 -1.2497
  467MOL0     H61638   3.965   1.370   0.903  2.8189 -1.5753 -1.7880
  467MOL0     H61639   4.090   1.363   1.015 -1.1531 -1.1512 -2.1288
  467MOL0     H61640   4.203   1.441   0.806 -0.3075  1.0507 -2.2340
  467MOL0     H61641   4.084   1.556   0.764  2.9086  2.5057 -0.6296
  467MOL0     H61642   4.325   1.781   1.008 -0.1692  0.2201  1.0027
  467MOL0     H61643   3.665   1.416   1.291  1.1365  1.8125 -0.9261
  467MOL0     H61644   3.424   1.418   1.383 -1.4395 -0.2767 -1.0270
  468MOL0     O61645   1.281   6.298   7.247  0.2528  0.3604  0.7132
  468MOL0     C61646   1.281   6.413   7.293  0.2797  0.1018 -0.4531
  468MOL0     O61647   1.172   6.495   7.284  0.4149 -0.0885 -0.9384
  468MOL0     C61648   1.057   6.476   7.222  1.3143 -0.9217 -0.0994
  468MOL0     C61649   1.034   6.400   7.111  0.2389  0.0311  0.2630
  468MOL0     C61650   0.901   6.374   7.064 -0.6112 -0.2652  0.3230
  468MOL0     C61651   0.793   6.438   7.120 -0.2075 -0.3866  0.2146
  468MOL0     O61652   0.666   6.395   7.080 -0.7920 -0.4266 -0.7431
  468MOL0     C61653   0.549   6.466   7.091  0.0738 -0.1607 -0.2853
  468MOL0     C61654   0.446   6.388   7.009 -0.1184  0.3133 -0.4938
  468MOL0     C61655   0.331   6.481   6.965  0.2799  0.3041  0.1871
  468MOL0     C61656   0.239   6.520   7.087 -0.9259  0.2533  0.3236
  468MOL0     C61657   0.096   6.558   7.027  0.2062 -0.0483 -0.5200
  468MOL0     C61658   0.001   6.570   7.146 -0.6685  0.9626 -0.1594
  468MOL0     C61659  -0.151   6.598   7.117 -0.6046 -0.1058  0.0420
  468MOL0     C61660  -0.206   6.527   6.992 -0.2464 -0.2136  0.1423
  468MOL0     N61661  -0.346   6.554   6.966  0.1782  0.5526 -0.3286
  468MOL0     C61662  -0.451   6.544   7.057 -0.3578 -0.4784 -0.7979
  468MOL0     C61663  -0.563   6.542   6.975 -0.5155  0.4304  0.0431
  468MOL0     C61664  -0.699   6.525   7.019 -0.1289 -0.1428  0.1486
  468MOL0     C61665  -0.755   6.386   6.992 -0.3506  0.4691  0.3858
  468MOL0     C61666  -0.842   6.329   7.100 -0.5279  0.5028 -0.6031
  468MOL0     C61667  -0.910   6.193   7.067  0.2918 -0.1802  0.3591
  468MOL0     O61668  -0.975   6.218   6.936 -0.1667  0.4453 -0.4356
  468MOL0     C61669  -1.079   6.134   6.896  0.1422  0.6358  0.5792
  468MOL0     C61670  -1.168   6.184   6.801 -0.4104  0.4440 -0.5539
  468MOL0     C61671  -1.268   6.101   6.752 -0.9786 -0.2102  0.4719
  468MOL0     C61672  -1.292   5.971   6.800  0.2986  0.2358 -0.1566
  468MOL0     C61673  -1.395   5.889   6.740  0.5580 -0.4583  0.0792
  468MOL0     O61674  -1.461   5.947   6.629  0.2056  0.6291 -0.3394
  468MOL0     C61675  -1.569   5.884   6.575 -0.4968  1.1312  0.2134
  468MOL0     C61676  -1.657   5.975   6.519  1.3896 -0.1159  0.4263
  468MOL0     C61677  -1.779   5.923   6.454  0.3590 -0.9293  0.1828
  468MOL0     C61678  -1.798   5.787   6.436  0.1149 -0.3957  0.0844
  468MOL0     O61679  -1.912   5.735   6.385  0.0072  0.5630 -0.7705
  468MOL0     C61680  -2.008   5.822   6.324  1.4810  0.2890  0.1329
  468MOL0     C61681  -2.133   5.748   6.266 -0.1572 -0.0494  0.4940
  468MOL0     C61682  -2.244   5.846   6.229  0.4842 -0.1332  0.2378
  468MOL0     C61683  -2.302   5.909   6.357  0.5264  0.1837  0.1325
  468MOL0     C61684  -2.422   5.997   6.352 -0.3480  0.1164  0.4654
  468MOL0     C61685  -2.535   5.943   6.268 -0.9204 -0.1665  0.5297
  468MOL0     C61686  -2.658   6.032   6.276 -0.1294  0.3491 -0.6090
  468MOL0     C61687  -2.780   5.984   6.199  0.1947  0.9032 -0.0564
  468MOL0    Cl61688  -2.730   5.982   6.026 -0.3513  0.4659  0.0494
  468MOL0     C61689  -1.706   5.698   6.500  0.8749 -1.0707  0.1821
  468MOL0     C61690  -1.596   5.744   6.566  0.1669  0.3568 -0.7401
  468MOL0     O61691  -1.415   5.780   6.785  0.5013 -0.6216  0.6616
  468MOL0     C61692  -1.215   5.923   6.909  0.0871 -0.4454 -0.1579
  468MOL0     C61693  -1.109   6.005   6.950 -0.5097  0.2662  0.4346
  468MOL0     N61694  -0.520   6.554   6.845  0.1141  0.5940  0.3244
  468MOL0     N61695  -0.399   6.568   6.840  1.0975 -0.0132 -0.3837
  468MOL0     C61696   0.827   6.524   7.224  0.1675 -0.4520  0.3453
  468MOL0     C61697   0.949   6.543   7.275 -0.2005  1.1378  0.1158
  468MOL0     C61698   1.395   6.454   7.376 -0.0978  0.0618 -0.0187
  468MOL0     C61699   1.393   6.578   7.429  0.8271 -0.2570  0.3320
  468MOL0     C61700   1.497   6.626   7.505 -0.7156  0.5501  0.0985
  468MOL0     C61701   1.603   6.541   7.544 -0.3882 -0.1083  1.0348
  468MOL0     O61702   1.720   6.575   7.605 -0.2605 -0.2160  0.7697
  468MOL0     C61703   1.719   6.709   7.661  0.1387 -0.4741  0.2589
  468MOL0     C61704   1.852   6.725   7.733  0.0375 -0.5206  0.1025
  468MOL0     C61705   1.866   6.855   7.814 -0.0468  0.1563 -0.4503
  468MOL0     C61706   1.776   6.862   7.942  0.4790  0.6656  1.0138
  468MOL0     C61707   1.636   6.904   7.919 -0.1592  0.7205  0.3208
  468MOL0     C61708   1.521   6.937   7.915 -0.5308  0.7588 -0.5637
  468MOL0     C61709   1.599   6.407   7.501 -0.5095  0.0955 -1.2097
  468MOL0     C61710   1.501   6.362   7.414  0.1207  0.0046 -0.2833
  468MOL0     H61711   1.108   6.337   7.063 -0.9385 -0.5289 -0.8883
  468MOL0     H61712   0.884   6.296   6.989  2.0232 -0.7851  0.1751
  468MOL0     H61713   0.558   6.566   7.048  0.9558 -1.5811 -3.7494
  468MOL0     H61714   0.512   6.487   7.192  0.4984 -1.7627  0.2351
  468MOL0     H61715   0.415   6.300   7.067  2.4177  0.1517  0.7327
  468MOL0     H61716   0.496   6.348   6.920  0.0442 -2.0359  0.5699
  468MOL0     H61717   0.275   6.420   6.894 -0.6874  0.7931  0.5177
  468MOL0     H61718   0.358   6.566   6.902 -0.3599  0.7261  0.4721
  468MOL0     H61719   0.229   6.427   7.145  0.4504 -0.3950 -0.4438
  468MOL0     H61720   0.271   6.602   7.151 -3.1593  0.5804  1.1078
  468MOL0     H61721   0.066   6.481   6.956 -0.8623 -1.0466  0.9592
  468MOL0     H61722   0.088   6.659   6.986  0.2128  0.7314  1.2969
  468MOL0     H61723   0.031   6.645   7.219  0.7223 -0.2532  0.5535
  468MOL0     H61724   0.021   6.486   7.213 -3.1261  0.4852  0.0891
  468MOL0     H61725  -0.203   6.559   7.204 -0.7738  1.9445  0.9318
  468MOL0     H61726  -0.172   6.706   7.120 -1.4146 -0.2633  0.0290
  468MOL0     H61727  -0.191   6.420   7.010 -0.8717 -0.3408 -0.1139
  468MOL0     H61728  -0.151   6.552   6.901  0.6181  2.4254  1.2662
  468MOL0     H61729  -0.451   6.539   7.165  1.1660 -0.2078 -0.7716
  468MOL0     H61730  -0.753   6.603   6.963  2.2224  0.7195 -1.0692
  468MOL0     H61731  -0.712   6.547   7.125 -5.0133  1.5430 -0.5434
  468MOL0     H61732  -0.673   6.316   6.975  0.2958  1.1676  0.5873
  468MOL0     H61733  -0.802   6.395   6.894  1.1214  0.4941 -0.3408
  468MOL0     H61734  -0.784   6.321   7.192 -1.3819  1.6994  0.0675
  468MOL0     H61735  -0.922   6.401   7.123 -0.7288  0.8499 -2.2273
  468MOL0     H61736  -0.990   6.170   7.139 -0.0362  0.0658  0.0744
  468MOL0     H61737  -0.842   6.108   7.075 -0.9274 -1.1021  1.4491
  468MOL0     H61738  -1.146   6.283   6.763  0.4068  0.8676  0.9391
  468MOL0     H61739  -1.339   6.145   6.682 -1.9393 -1.1469  0.8349
  468MOL0     H61740  -1.644   6.082   6.502 -1.3915 -0.0698 -2.3230
  468MOL0     H61741  -1.845   5.988   6.397 -1.0341 -3.7178 -1.6043
  468MOL0     H61742  -1.970   5.879   6.239 -2.4652  1.8318 -0.8234
  468MOL0     H61743  -2.043   5.883   6.408 -1.6856  1.4708 -1.8853
  468MOL0     H61744  -2.170   5.676   6.340 -1.5098  0.1381  0.0226
  468MOL0     H61745  -2.122   5.695   6.170 -3.1230 -0.2674  0.1666
  468MOL0     H61746  -2.315   5.777   6.183  2.0193 -1.2985 -0.4907
  468MOL0     H61747  -2.214   5.923   6.158  1.6969 -3.1623 -2.8238
  468MOL0     H61748  -2.320   5.826   6.426  0.9042 -0.8581 -0.9852
  468MOL0     H61749  -2.232   5.973   6.412 -0.6741  0.1555  1.7911
  468MOL0     H61750  -2.394   6.091   6.304 -2.1616  0.0226 -0.8878
  468MOL0     H61751  -2.465   6.021   6.450 -0.6870 -0.5496  0.4850
  468MOL0     H61752  -2.574   5.844   6.292 -0.1556 -1.3167 -2.4895
  468MOL0     H61753  -2.500   5.934   6.164 -4.0704 -0.5767 -0.5952
  468MOL0     H61754  -2.692   6.039   6.380  0.8719  1.8800 -0.3496
  468MOL0     H61755  -2.626   6.131   6.242  0.1133 -0.0549 -1.5984
  468MOL0     H61756  -2.865   6.051   6.219 -0.6770 -0.9495  3.2060
  468MOL0     H61757  -2.808   5.886   6.238  1.2194 -1.7020 -5.1518
  468MOL0     H61758  -1.722   5.590   6.502 -2.2134 -0.7415 -1.1914
  468MOL0     H61759  -1.530   5.670   6.610  3.0853  1.6719 -2.6174
  468MOL0     H61760  -1.230   5.825   6.954 -4.7303 -0.8125 -1.9826
  468MOL0     H61761  -1.050   5.959   7.028 -1.6541 -3.0751 -0.5237
  468MOL0     H61762   0.737   6.579   7.250 -1.4773 -1.5166 -2.5828
  468MOL0     H61763   0.954   6.611   7.359  0.6655  1.1911  0.0286
  468MOL0     H61764   1.322   6.652   7.393 -0.8243 -1.2677  1.3385
  468MOL0     H61765   1.515   6.732   7.523 -2.0753  0.8986 -0.4808
  468MOL0     H61766   1.634   6.718   7.729  0.7013 -2.8743  1.3796
  468MOL0     H61767   1.714   6.787   7.584 -0.8084  0.4893  1.2686
  468MOL0     H61768   1.872   6.639   7.798  0.0809 -0.8023 -0.2773
  468MOL0     H61769   1.927   6.726   7.654  0.3023  2.1458  0.3059
  468MOL0     H61770   1.846   6.935   7.742 -0.6539 -0.5556 -1.0886
  468MOL0     H61771   1.965   6.864   7.860  0.3415  1.0304 -1.4029
  468MOL0     H61772   1.780   6.770   8.000  0.6073 -0.7383 -1.0994
  468MOL0     H61773   1.822   6.938   8.006  0.9437  1.3655 -0.1146
  468MOL0     H61774   1.418   6.965   7.927 -0.8542  0.2766 -2.0217
  468MOL0     H61775   1.670   6.339   7.546 -3.6387 -2.7292 -0.1833
  468MOL0     H61776   1.498   6.261   7.374  3.4418  0.4312 -1.9437
  469MOL0     O61777   3.648  10.566   6.319  0.2729  0.0938  0.0719
  469MOL0     C61778   3.736  10.524   6.389  0.1576  0.0300  0.1941
  469MOL0     O61779   3.724  10.484   6.521 -0.3571  0.0029  0.0986
  469MOL0     C61780   3.609  10.500   6.593  0.1224 -0.9796  0.0328
  469MOL0     C61781   3.607  10.614   6.666  0.9087 -0.0401  0.7414
  469MOL0     C61782   3.500  10.636   6.755  0.6975  0.1281 -0.1541
  469MOL0     C61783   3.391  10.550   6.768  0.7260 -0.2794 -0.8671
  469MOL0     O61784   3.279  10.588   6.843 -0.3960 -0.4153 -0.5197
  469MOL0     C61785   3.157  10.509   6.843 -0.0721 -0.1029  0.0542
  469MOL0     C61786   3.048  10.604   6.891  1.4360  0.6850 -0.0139
  469MOL0     C61787   2.902  10.544   6.878  0.4088 -0.5925 -0.7063
  469MOL0     C61788   2.802  10.643   6.955  0.0089 -0.3805  0.9178
  469MOL0     C61789   2.687  10.561   6.995  0.3225  0.2422 -0.8539
  469MOL0     C61790   2.584  10.641   7.061  0.4364 -0.6639 -0.3952
  469MOL0     C61791   2.449  10.564   7.066  0.9639  1.3168 -0.1995
  469MOL0     C61792   2.340  10.667   7.096 -0.4218 -0.0507 -0.6847
  469MOL0     N61793   2.217  10.609   7.147  0.0197 -0.0340 -0.4601
  469MOL0     C61794   2.132  10.527   7.075 -0.3442  0.3527 -0.5578
  469MOL0     C61795   2.020  10.509   7.151 -0.2103  0.5041  0.7674
  469MOL0     C61796   1.911  10.418   7.104  0.1547 -0.7725 -0.2554
  469MOL0     C61797   1.781  10.493   7.068  0.1500 -0.0299 -0.2643
  469MOL0     C61798   1.705  10.420   6.959  0.1194 -0.3040  0.6498
  469MOL0     C61799   1.594  10.493   6.901  0.8656 -0.0265  0.4317
  469MOL0     O61800   1.497  10.525   6.995 -0.0909 -0.2847 -0.5857
  469MOL0     C61801   1.376  10.584   6.960 -0.0167  0.5455  0.8537
  469MOL0     C61802   1.283  10.604   7.060 -0.8176 -0.7425 -0.7409
  469MOL0     C61803   1.167  10.678   7.040  0.2009  0.4063  0.7813
  469MOL0     C61804   1.137  10.709   6.904  0.2323  0.7512  0.1607
  469MOL0     C61805   1.000  10.761   6.867  0.0155 -0.1885 -0.0042
  469MOL0     O61806   0.959  10.740   6.743  0.6640  0.3748  0.6019
  469MOL0     C61807   0.840  10.803   6.696 -0.8407 -1.1784  0.0637
  469MOL0     C61808   0.817  10.942   6.692 -0.3218  1.2281 -0.1495
  469MOL0     C61809   0.712  10.992   6.618  0.8873 -0.7998 -0.1145
  469MOL0     C61810   0.605  10.908   6.563  0.4344 -0.1417 -0.7110
  469MOL0     O61811   0.491  10.955   6.504 -0.0275 -0.0501  0.3291
  469MOL0     C61812   0.492  11.093   6.471  0.7182  0.0534 -0.2126
  469MOL0     C61813   0.369  11.101   6.383 -0.1719  0.4967  0.1939
  469MOL0     C61814   0.370  11.232   6.304  0.6387 -0.8138  1.4282
  469MOL0     C61815   0.262  11.243   6.200  0.1195  0.5393 -0.2133
  469MOL0     C61816   0.264  11.363   6.128  0.3859 -0.3164  0.6670
  469MOL0     C61817   0.145  11.383   6.034  0.6062 -0.7658  0.1304
  469MOL0     C61818   0.140  11.512   5.955 -0.3848  0.0381  0.4343
  469MOL0     C61819   0.013  11.553   5.878  0.2384 -0.7186 -0.5547
  469MOL0    Cl61820  -0.105  11.601   6.009 -0.2613 -0.3366 -0.0361
  469MOL0     C61821   0.617  10.772   6.595 -0.4735  0.0161 -0.0921
  469MOL0     C61822   0.737  10.722   6.655  0.2328 -0.5179  0.3225
  469MOL0     O61823   0.941  10.825   6.953 -0.4195 -0.1072  0.4105
  469MOL0     C61824   1.226  10.670   6.807  0.4227  0.5893 -0.4024
  469MOL0     C61825   1.345  10.617   6.827 -0.5341 -0.4458  0.1463
  469MOL0     N61826   2.042  10.572   7.274  1.4300  0.1647 -0.3380
  469MOL0     N61827   2.152  10.631   7.269 -0.1939 -1.2477 -0.4486
  469MOL0     C61828   3.397  10.443   6.684  0.0476  0.7010 -0.9997
  469MOL0     C61829   3.506  10.410   6.601 -0.0103 -0.8871  0.4551
  469MOL0     C61830   3.870  10.517   6.330 -0.1389 -0.7504  0.6367
  469MOL0     C61831   3.975  10.456   6.402 -0.1353  1.6793 -0.2359
  469MOL0     C61832   4.099  10.444   6.346 -0.3646 -0.1101 -0.8025
  469MOL0     C61833   4.124  10.506   6.225 -0.2504 -0.2889  0.1026
  469MOL0     O61834   4.255  10.511   6.173 -0.3857 -0.3432  0.3396
  469MOL0     C61835   4.351  10.572   6.264 -0.2683 -0.0143  0.1239
  469MOL0     C61836   4.465  10.637   6.184 -0.4861 -0.3247  0.3176
  469MOL0     C61837   4.577  10.684   6.282 -0.2362  0.3257  0.5366
  469MOL0     C61838   4.549  10.796   6.382 -0.2044 -0.2674 -0.4866
  469MOL0     C61839   4.640  10.796   6.488  0.4463 -0.0364 -0.3461
  469MOL0     C61840   4.716  10.799   6.581  0.5221 -0.4501 -0.1249
  469MOL0     C61841   4.023  10.571   6.149 -0.2234 -0.3295  0.2193
  469MOL0     C61842   3.900  10.574   6.206 -0.1907 -0.3062  0.2817
  469MOL0     H61843   3.686  10.685   6.647  1.5608 -0.6960  0.9540
  469MOL0     H61844   3.485  10.730   6.809 -1.4747 -0.5751  0.5577
  469MOL0     H61845   3.157  10.425   6.913  1.4572 -0.2090 -0.0565
  469MOL0     H61846   3.133  10.458   6.749 -1.1515  0.0451  0.2366
  469MOL0     H61847   3.054  10.700   6.840 -0.0547  1.8131  1.8237
  469MOL0     H61848   3.067  10.625   6.997  2.5197  0.6984 -0.1960
  469MOL0     H61849   2.903  10.448   6.931 -1.5165  0.2744  1.0421
  469MOL0     H61850   2.867  10.542   6.774 -0.2743  1.1864 -0.5460
  469MOL0     H61851   2.836  10.691   7.048 -2.7929  0.0485  1.8316
  469MOL0     H61852   2.765  10.719   6.886  1.3430 -1.7575 -1.4020
  469MOL0     H61853   2.718  10.487   7.069  0.8233 -0.9926 -2.2388
  469MOL0     H61854   2.645  10.509   6.908  1.0389 -0.5310 -0.7511
  469MOL0     H61855   2.558  10.728   7.000 -1.4822 -0.1952  0.9815
  469MOL0     H61856   2.622  10.664   7.161 -3.6633 -0.4463  1.3039
  469MOL0     H61857   2.424  10.517   6.971  1.0089  2.7492 -0.9361
  469MOL0     H61858   2.450  10.487   7.144  1.5535  2.0056  0.4842
  469MOL0     H61859   2.331  10.727   7.005  0.8200  1.1880 -0.0276
  469MOL0     H61860   2.376  10.732   7.176 -1.8039  0.0219 -0.0932
  469MOL0     H61861   2.151  10.501   6.971 -0.2668 -1.6011 -0.0900
  469MOL0     H61862   1.888  10.356   7.192 -1.8093  2.0571  1.3767
  469MOL0     H61863   1.951  10.357   7.022  1.5048 -2.8272  1.7875
  469MOL0     H61864   1.815  10.589   7.027  3.0412 -1.3781 -1.3046
  469MOL0     H61865   1.713  10.513   7.151 -0.9484 -3.0102 -0.3582
  469MOL0     H61866   1.762  10.380   6.874 -2.6585  1.8314 -2.4903
  469MOL0     H61867   1.658  10.335   7.010 -0.6892 -1.0586 -1.2562
  469MOL0     H61868   1.557  10.440   6.812 -0.7972 -1.3219  1.8127
  469MOL0     H61869   1.627  10.584   6.851 -0.7703  0.1174 -0.4866
  469MOL0     H61870   1.308  10.564   7.158  1.0505  0.3326 -0.7434
  469MOL0     H61871   1.105  10.721   7.118 -1.5060 -0.5950  0.0533
  469MOL0     H61872   0.879  11.008   6.751 -1.1456 -0.6899  3.1127
  469MOL0     H61873   0.690  11.098   6.622  0.7844 -0.8364  0.2944
  469MOL0     H61874   0.591  11.118   6.431  1.2345  2.6799  2.4034
  469MOL0     H61875   0.470  11.164   6.551  0.8929 -0.1250 -0.0052
  469MOL0     H61876   0.279  11.093   6.446 -1.5705 -2.5806 -1.9504
  469MOL0     H61877   0.384  11.011   6.323 -1.1038 -0.5733  1.4987
  469MOL0     H61878   0.462  11.242   6.245 -0.6395 -0.0459 -0.5432
  469MOL0     H61879   0.365  11.320   6.368 -2.9564 -1.7644  2.7247
  469MOL0     H61880   0.261  11.153   6.138 -2.1520  0.1790  0.2522
  469MOL0     H61881   0.168  11.236   6.254 -0.3087 -3.6650 -1.2029
  469MOL0     H61882   0.354  11.371   6.067  0.0782 -1.0423  0.0911
  469MOL0     H61883   0.274  11.444   6.200  3.7021  0.5855 -0.6498
  469MOL0     H61884   0.051  11.381   6.091 -0.5974  0.3262 -1.6882
  469MOL0     H61885   0.126  11.296   5.970 -1.6970 -1.9091  2.1777
  469MOL0     H61886   0.173  11.591   6.023  2.3733  0.6364 -1.4303
  469MOL0     H61887   0.221  11.510   5.881 -2.4068  1.2315 -1.9352
  469MOL0     H61888  -0.027  11.476   5.812  0.8844 -4.5208  3.1155
  469MOL0     H61889   0.030  11.650   5.830 -0.6576  1.7084  3.4965
  469MOL0     H61890   0.545  10.697   6.563 -0.8058 -0.0344  0.7526
  469MOL0     H61891   0.749  10.615   6.670 -0.0412 -0.2867  2.4166
  469MOL0     H61892   1.193  10.680   6.704  0.6417  0.3009 -0.4996
  469MOL0     H61893   1.404  10.602   6.738 -2.1961  0.2940 -1.1328
  469MOL0     H61894   3.318  10.369   6.676 -0.4054  1.0812 -0.1318
  469MOL0     H61895   3.507  10.328   6.530 -0.1060  0.6780 -1.4384
  469MOL0     H61896   3.959  10.400   6.493  2.7440 -1.4730 -1.4441
  469MOL0     H61897   4.177  10.401   6.408  0.8232  4.9040  1.7116
  469MOL0     H61898   4.382  10.498   6.338 -1.6705 -0.0575  0.6998
  469MOL0     H61899   4.301  10.641   6.333  0.8143  0.7559  0.1588
  469MOL0     H61900   4.505  10.565   6.112 -0.0314  0.7482 -0.5316
  469MOL0     H61901   4.432  10.725   6.129 -1.5546 -1.2166 -0.5276
  469MOL0     H61902   4.656  10.720   6.216  0.8638 -0.1195  1.5785
  469MOL0     H61903   4.623  10.593   6.321 -1.1268 -1.3031 -1.9604
  469MOL0     H61904   4.554  10.894   6.334  0.9416  0.8359  1.7390
  469MOL0     H61905   4.452  10.778   6.429  1.3784  0.2526  3.3252
  469MOL0     H61906   4.776  10.801   6.670  0.5763 -0.9611 -0.1515
  469MOL0     H61907   4.053  10.612   6.053 -0.5754 -0.3268  0.1081
  469MOL0     H61908   3.821  10.623   6.150 -1.8533  0.5478  3.2034
  470MOL0     O61909   7.927   7.545   7.926  0.4318 -0.4281  0.1471
  470MOL0     C61910   7.960   7.553   7.807 -0.3121  0.7978  0.8903
  470MOL0     O61911   7.881   7.527   7.701 -0.2453  0.1300 -0.2446
  470MOL0     C61912   7.745   7.483   7.715  0.5438  0.4822  0.5109
  470MOL0     C61913   7.693   7.402   7.606  0.9545 -0.1842  0.0817
  470MOL0     C61914   7.568   7.347   7.617  0.2289 -0.3921  0.7926
  470MOL0     C61915   7.485   7.374   7.727  0.2590 -0.2348 -0.4058
  470MOL0     O61916   7.358   7.334   7.748  0.1560 -0.4045  0.4979
  470MOL0     C61917   7.291   7.262   7.647  0.6678  0.1680  0.2561
  470MOL0     C61918   7.152   7.217   7.699 -0.3459 -0.6667 -1.0163
  470MOL0     C61919   7.057   7.328   7.700 -0.3712 -0.3555  0.1993
  470MOL0     C61920   6.908   7.286   7.730  0.5257 -0.6880 -0.2427
  470MOL0     C61921   6.808   7.392   7.767 -0.3157 -0.1917 -0.8231
  470MOL0     C61922   6.837   7.459   7.901 -0.0139 -0.3791  0.1179
  470MOL0     C61923   6.734   7.550   7.956  0.7833 -0.3870  0.4996
  470MOL0     C61924   6.611   7.576   7.864 -0.4091 -0.0471 -0.6906
  470MOL0     N61925   6.508   7.647   7.940  0.4053 -0.3188 -0.1202
  470MOL0     C61926   6.510   7.774   7.985 -0.0798  0.0915 -0.8528
  470MOL0     C61927   6.413   7.774   8.079  0.7817  0.2436  0.1052
  470MOL0     C61928   6.396   7.878   8.190  0.1980 -0.6229 -0.6346
  470MOL0     C61929   6.448   7.822   8.320 -0.1430 -0.2335  0.3825
  470MOL0     C61930   6.433   7.928   8.428  0.3674 -0.2905 -0.8577
  470MOL0     C61931   6.292   7.979   8.477 -0.2077 -0.4008 -0.0159
  470MOL0     O61932   6.236   8.063   8.374 -0.0809 -0.9708 -0.9969
  470MOL0     C61933   6.100   8.067   8.360 -0.0988 -0.2259 -0.0502
  470MOL0     C61934   6.008   8.016   8.448  0.4556 -1.2621 -1.1403
  470MOL0     C61935   5.872   8.030   8.424  0.3586  0.1580 -0.9043
  470MOL0     C61936   5.824   8.089   8.306  0.2645 -0.8764 -0.8460
  470MOL0     C61937   5.679   8.121   8.294 -0.9987  0.5431  1.1309
  470MOL0     O61938   5.654   8.160   8.167 -0.4226 -0.2684 -0.1567
  470MOL0     C61939   5.527   8.188   8.136  0.0431 -0.6940  0.1930
  470MOL0     C61940   5.449   8.098   8.063  0.4977  0.3095  0.6951
  470MOL0     C61941   5.317   8.127   8.034 -0.6820 -0.5104  0.1159
  470MOL0     C61942   5.259   8.248   8.086  0.2048  0.1655 -0.2251
  470MOL0     O61943   5.138   8.291   8.048  0.0746  0.3417  0.4159
  470MOL0     C61944   5.027   8.208   8.048  0.2171 -0.0980  0.5474
  470MOL0     C61945   4.979   8.182   8.198 -0.3362  0.4703  0.5511
  470MOL0     C61946   4.845   8.110   8.195  0.8058 -0.1697 -0.1266
  470MOL0     C61947   4.784   8.080   8.330  0.9104  1.0248 -0.0158
  470MOL0     C61948   4.643   8.044   8.309  0.8657 -0.3853  0.5845
  470MOL0     C61949   4.595   7.947   8.417  0.8002 -0.0175  0.4441
  470MOL0     C61950   4.440   7.926   8.420 -0.0322 -0.1133  0.5809
  470MOL0     C61951   4.389   7.859   8.286 -0.4735 -1.2314  0.2224
  470MOL0    Cl61952   4.370   7.978   8.154  0.0606 -0.1573  0.1032
  470MOL0     C61953   5.339   8.328   8.171  0.6570  0.2675  0.4836
  470MOL0     C61954   5.470   8.301   8.185  1.1080 -0.2044 -0.3910
  470MOL0     O61955   5.601   8.125   8.391  0.3376  0.0549  0.2702
  470MOL0     C61956   5.913   8.142   8.213  0.1349 -0.4056  1.0534
  470MOL0     C61957   6.051   8.138   8.248  0.2876 -0.3730 -0.4675
  470MOL0     N61958   6.349   7.652   8.096  0.4127 -0.3425  0.3531
  470MOL0     N61959   6.411   7.579   8.010 -0.0404 -0.0088 -0.1506
  470MOL0     C61960   7.541   7.440   7.834 -0.0018 -0.0997 -0.1401
  470MOL0     C61961   7.665   7.501   7.827 -0.4830  0.1415  1.2526
  470MOL0     C61962   8.100   7.596   7.783  0.5973 -0.4768  0.0822
  470MOL0     C61963   8.200   7.577   7.882  1.0205 -0.3267  0.2756
  470MOL0     C61964   8.327   7.618   7.854 -0.5012  0.0056  0.8994
  470MOL0     C61965   8.360   7.681   7.730  0.3769  0.8642  0.6234
  470MOL0     O61966   8.483   7.726   7.701  0.0095 -0.0190 -0.4396
  470MOL0     C61967   8.504   7.826   7.597  0.7119  0.4127 -0.3415
  470MOL0     C61968   8.621   7.909   7.636  0.3733 -0.0809  0.1924
  470MOL0     C61969   8.648   8.014   7.526 -0.5565 -0.0091  0.2382
  470MOL0     C61970   8.739   8.134   7.567 -0.4447  0.8558  0.4674
  470MOL0     C61971   8.866   8.088   7.623  0.4061  0.0984  0.4321
  470MOL0     C61972   8.954   8.063   7.695 -0.1142  0.3001 -0.1359
  470MOL0     C61973   8.256   7.688   7.631 -0.4044 -0.5990  0.2956
  470MOL0     C61974   8.127   7.651   7.657 -0.5901  0.0167  0.0737
  470MOL0     H61975   7.756   7.389   7.518  2.0921 -0.6596  0.9403
  470MOL0     H61976   7.532   7.276   7.543 -1.9588  1.2627  0.1542
  470MOL0     H61977   7.348   7.174   7.615 -0.7042 -1.5704  2.3011
  470MOL0     H61978   7.283   7.333   7.565  1.7710  3.7164  2.9643
  470MOL0     H61979   7.169   7.182   7.801 -0.0775 -2.1428 -1.5506
  470MOL0     H61980   7.105   7.136   7.643  1.7081 -1.8352 -1.1377
  470MOL0     H61981   7.058   7.371   7.600 -0.9215  0.0578  0.3613
  470MOL0     H61982   7.098   7.400   7.773 -0.5103 -0.6386  0.5620
  470MOL0     H61983   6.865   7.248   7.637 -0.3657 -0.4733  0.0709
  470MOL0     H61984   6.906   7.208   7.806 -2.8086 -0.0429  0.4948
  470MOL0     H61985   6.708   7.350   7.778 -0.4351  0.2694 -0.0648
  470MOL0     H61986   6.803   7.471   7.692  1.4806  0.3295 -0.4445
  470MOL0     H61987   6.935   7.506   7.889  0.5055 -1.7236 -1.2446
  470MOL0     H61988   6.852   7.386   7.982  2.5967 -0.5523 -0.4225
  470MOL0     H61989   6.704   7.510   8.054 -1.5369  1.0419  0.4499
  470MOL0     H61990   6.774   7.649   7.980 -0.5757  0.2082  0.4364
  470MOL0     H61991   6.571   7.481   7.826 -4.1638  0.1853  2.0828
  470MOL0     H61992   6.645   7.632   7.776 -0.9958  1.3647 -0.0585
  470MOL0     H61993   6.584   7.850   7.963 -0.3212  0.4353 -0.4994
  470MOL0     H61994   6.289   7.898   8.200  0.3896 -0.5734  2.7837
  470MOL0     H61995   6.438   7.977   8.173 -3.3145  0.9242 -1.0537
  470MOL0     H61996   6.551   7.790   8.307 -0.0550  0.9124 -2.5304
  470MOL0     H61997   6.400   7.729   8.353  1.0099 -1.8467 -2.2075
  470MOL0     H61998   6.479   7.900   8.523  0.6396  0.7113 -0.6842
  470MOL0     H61999   6.487   8.018   8.397 -1.1281 -0.0747 -3.1187
  470MOL0     H62000   6.310   8.043   8.564  2.4721 -3.3592  1.7975
  470MOL0     H62001   6.216   7.902   8.496 -0.0506 -0.4138  0.5724
  470MOL0     H62002   6.029   7.970   8.544 -2.0893 -1.8026 -0.7701
  470MOL0     H62003   5.804   8.016   8.507  1.2124 -2.4629 -0.5407
  470MOL0     H62004   5.503   8.011   8.028  0.8558  0.8992 -0.2790
  470MOL0     H62005   5.274   8.065   7.956  2.7063 -0.7627 -1.7143
  470MOL0     H62006   5.040   8.115   7.991  0.0983  2.1377 -3.5290
  470MOL0     H62007   4.950   8.259   7.989 -0.2892 -0.2796  1.0466
  470MOL0     H62008   4.956   8.275   8.251 -1.0465  0.3419  0.4779
  470MOL0     H62009   5.053   8.123   8.252 -0.3365 -1.7300 -1.7133
  470MOL0     H62010   4.843   8.015   8.140 -2.3492 -0.2583 -0.0382
  470MOL0     H62011   4.783   8.177   8.135  0.7819 -0.6064 -0.5991
  470MOL0     H62012   4.838   7.991   8.365 -0.3080  0.4659  0.5102
  470MOL0     H62013   4.801   8.164   8.397 -1.4990  2.4579 -1.1062
  470MOL0     H62014   4.632   7.994   8.212 -0.4724  0.0621  0.4852
  470MOL0     H62015   4.592   8.140   8.301  0.0905 -0.9261 -1.9011
  470MOL0     H62016   4.619   7.981   8.518  1.1220  4.0992 -0.8168
  470MOL0     H62017   4.638   7.848   8.401 -1.1660 -0.9003  0.2639
  470MOL0     H62018   4.417   7.861   8.505  0.3665 -1.0149  0.0096
  470MOL0     H62019   4.367   8.007   8.433 -1.8518 -1.3715 -1.0807
  470MOL0     H62020   4.291   7.812   8.298 -2.2478  1.7874 -1.1594
  470MOL0     H62021   4.456   7.780   8.254 -0.5159 -1.6804  1.1951
  470MOL0     H62022   5.303   8.411   8.231  1.3892 -1.2485  3.1841
  470MOL0     H62023   5.531   8.371   8.241  0.0352 -0.3510  1.0003
  470MOL0     H62024   5.879   8.184   8.119  1.3202  1.7799  1.5387
  470MOL0     H62025   6.124   8.191   8.187  0.7147  0.0781  0.4134
  470MOL0     H62026   7.475   7.468   7.915 -1.7171 -1.4159 -1.0303
  470MOL0     H62027   7.694   7.557   7.916 -2.3314 -0.8994  2.5787
  470MOL0     H62028   8.167   7.531   7.974 -1.6412 -2.7183 -1.6725
  470MOL0     H62029   8.403   7.611   7.931 -0.6448 -1.5070  0.9304
  470MOL0     H62030   8.417   7.891   7.589 -0.8648 -1.7848 -2.8268
  470MOL0     H62031   8.519   7.764   7.508 -0.5737 -3.5499  1.9564
  470MOL0     H62032   8.606   7.946   7.738  0.5037 -3.9358  1.8083
  470MOL0     H62033   8.707   7.841   7.638  0.1897 -0.3086  0.9607
  470MOL0     H62034   8.554   8.059   7.494 -0.1115  0.3807 -0.5427
  470MOL0     H62035   8.685   7.958   7.440 -0.8430 -0.4413  0.3892
  470MOL0     H62036   8.757   8.209   7.489 -1.8036  1.6612  0.8995
  470MOL0     H62037   8.692   8.200   7.641 -2.0375  0.3105 -0.0084
  470MOL0     H62038   9.026   8.020   7.762  0.0751  2.0308  0.8323
  470MOL0     H62039   8.278   7.726   7.532 -1.1379 -3.6978 -1.1995
  470MOL0     H62040   8.043   7.670   7.590  1.0717 -2.1541 -2.8281
  471MOL0     O62041   9.584   3.397   6.187  0.3017  0.2506  0.0870
  471MOL0     C62042   9.662   3.462   6.117  0.1287  0.2833  0.0682
  471MOL0     O62043   9.684   3.442   5.980 -0.4110  0.4052 -0.0105
  471MOL0     C62044   9.597   3.362   5.906  0.1113  0.9204  0.2891
  471MOL0     C62045   9.469   3.317   5.940  0.8982  0.0163 -0.4859
  471MOL0     C62046   9.398   3.239   5.850 -0.0374  0.3899 -0.2822
  471MOL0     C62047   9.455   3.196   5.727 -0.4689 -0.4156 -0.5474
  471MOL0     O62048   9.373   3.127   5.652  0.0952  0.8248 -0.3659
  471MOL0     C62049   9.423   3.052   5.535  0.1877 -1.2676 -1.0623
  471MOL0     C62050   9.324   2.944   5.500  0.6404  0.0400 -0.2383
  471MOL0     C62051   9.183   3.006   5.468  0.8853  0.1448 -0.8712
  471MOL0     C62052   9.062   2.908   5.468 -0.1059  0.2858  0.3621
  471MOL0     C62053   8.930   2.983   5.454 -0.4300  0.3605  0.5942
  471MOL0     C62054   8.828   2.887   5.422  0.4363  0.2577  0.6132
  471MOL0     C62055   8.686   2.950   5.434  0.4706 -0.4757  0.2971
  471MOL0     C62056   8.586   2.875   5.340  0.3617 -1.0229 -0.4927
  471MOL0     N62057   8.446   2.909   5.379  0.5528  0.7370  0.5515
  471MOL0     C62058   8.382   2.837   5.468  0.5964  0.7599  0.0762
  471MOL0     C62059   8.258   2.883   5.477  0.1181 -1.0078  0.1222
  471MOL0     C62060   8.159   2.846   5.591 -1.0402 -0.0295 -0.2222
  471MOL0     C62061   8.040   2.762   5.539 -0.4538  0.3130  0.3988
  471MOL0     C62062   8.063   2.612   5.519  0.3581  0.5665 -0.3123
  471MOL0     C62063   7.947   2.529   5.477 -0.5132 -0.3340  0.3342
  471MOL0     O62064   7.859   2.543   5.582 -0.1383  0.2393  0.4129
  471MOL0     C62065   7.724   2.558   5.566  0.0908 -0.6110  0.2960
  471MOL0     C62066   7.655   2.607   5.450  0.9272 -0.2098  0.4305
  471MOL0     C62067   7.515   2.606   5.436  1.3928 -1.0450 -0.3928
  471MOL0     C62068   7.445   2.583   5.559  0.3051  0.2652 -0.2011
  471MOL0     C62069   7.295   2.596   5.564  0.6688 -0.6700 -0.2081
  471MOL0     O62070   7.235   2.615   5.443  0.0771 -0.9068 -0.0946
  471MOL0     C62071   7.099   2.593   5.431  0.2035 -0.0376  0.0729
  471MOL0     C62072   7.014   2.511   5.515  0.1418 -0.5447  0.6893
  471MOL0     C62073   6.879   2.486   5.474  0.6017  0.5323 -0.5056
  471MOL0     C62074   6.827   2.534   5.355  0.3869 -0.0505 -0.5621
  471MOL0     O62075   6.700   2.510   5.297 -0.0726 -0.2064 -0.0047
  471MOL0     C62076   6.623   2.418   5.376  0.8972  0.2359  0.7578
  471MOL0     C62077   6.493   2.388   5.307  0.4128 -0.2224 -0.2348
  471MOL0     C62078   6.389   2.495   5.335 -0.1968  0.2594 -0.0279
  471MOL0     C62079   6.412   2.630   5.257  0.6167  0.6819  0.5173
  471MOL0     C62080   6.295   2.732   5.251 -0.4588  1.3185 -0.2597
  471MOL0     C62081   6.242   2.754   5.388  0.6189  0.7026 -0.2498
  471MOL0     C62082   6.337   2.840   5.464  0.3655  0.1267 -0.8173
  471MOL0     C62083   6.282   2.911   5.591  0.2643 -0.1871 -0.6400
  471MOL0    Cl62084   6.414   3.004   5.658 -0.4243  0.2928 -0.1925
  471MOL0     C62085   6.906   2.622   5.284  0.0381 -0.3856  0.2433
  471MOL0     C62086   7.036   2.658   5.323 -0.4144  0.4986  0.6681
  471MOL0     O62087   7.242   2.599   5.671  0.6659  0.4268 -0.7642
  471MOL0     C62088   7.512   2.539   5.671 -0.2297 -0.5625  1.0115
  471MOL0     C62089   7.647   2.516   5.675  0.0836 -0.0128 -0.4829
  471MOL0     N62090   8.252   2.983   5.385 -0.1089  0.0816  0.1386
  471MOL0     N62091   8.366   3.008   5.322  0.3058 -0.2986 -0.7945
  471MOL0     C62092   9.577   3.244   5.683 -0.6820  0.4786 -0.0358
  471MOL0     C62093   9.651   3.318   5.778  0.4934  0.1835 -0.8471
  471MOL0     C62094   9.756   3.556   6.182 -0.4257  0.1853 -0.5189
  471MOL0     C62095   9.738   3.604   6.311 -0.0220 -0.0120 -0.0888
  471MOL0     C62096   9.832   3.685   6.377 -0.3580  0.3117  0.2184
  471MOL0     C62097   9.950   3.723   6.309  0.6415 -0.2143 -1.0383
  471MOL0     O62098  10.031   3.798   6.382 -0.3721  0.3635 -0.1646
  471MOL0     C62099  10.167   3.821   6.343 -0.4179  0.7644 -0.4764
  471MOL0     C62100  10.210   3.967   6.318  0.6052 -0.7613 -0.8286
  471MOL0     C62101  10.350   4.005   6.373 -0.8746 -0.1561 -0.1160
  471MOL0     C62102  10.460   3.999   6.263 -0.0891  0.0046 -0.1475
  471MOL0     C62103  10.477   3.866   6.199  1.2357 -0.7141 -0.2681
  471MOL0     C62104  10.501   3.765   6.141  0.0005 -0.0979 -0.0984
  471MOL0     C62105   9.969   3.688   6.179  0.8282  0.1396 -0.0042
  471MOL0     C62106   9.876   3.603   6.116  0.2202 -0.4997 -0.0616
  471MOL0     H62107   9.418   3.352   6.029  1.2897 -0.6826  0.0210
  471MOL0     H62108   9.300   3.200   5.872 -0.2138 -0.5014 -2.4049
  471MOL0     H62109   9.524   3.012   5.553  0.2967 -0.2475  0.9857
  471MOL0     H62110   9.426   3.125   5.454 -2.5727 -2.9868 -2.8748
  471MOL0     H62111   9.313   2.881   5.590 -2.0928 -0.4204 -0.8039
  471MOL0     H62112   9.376   2.893   5.418  4.3251 -0.7185  2.3120
  471MOL0     H62113   9.194   3.054   5.371 -0.4821 -0.0805 -1.1586
  471MOL0     H62114   9.160   3.073   5.552  0.9248  0.6253 -1.2422
  471MOL0     H62115   9.081   2.842   5.383  2.1358 -0.2783  1.2485
  471MOL0     H62116   9.058   2.847   5.559  0.9101  2.1474  1.7147
  471MOL0     H62117   8.935   3.060   5.376 -1.3315  2.1623  2.2072
  471MOL0     H62118   8.905   3.036   5.547 -4.0913 -0.6182  0.3107
  471MOL0     H62119   8.831   2.796   5.483  1.9259 -0.2370 -0.1335
  471MOL0     H62120   8.857   2.864   5.319  2.4071 -0.8312  1.3524
  471MOL0     H62121   8.650   2.944   5.537 -0.4419 -1.6295 -0.0659
  471MOL0     H62122   8.674   3.056   5.410  0.8504  0.0210  2.2161
  471MOL0     H62123   8.600   2.766   5.348  2.2009 -0.7624  0.4912
  471MOL0     H62124   8.609   2.904   5.237  0.2858  0.7573 -0.0437
  471MOL0     H62125   8.421   2.751   5.521 -0.7757  1.4638  2.3966
  471MOL0     H62126   8.111   2.935   5.634 -0.3385  0.6318 -0.7828
  471MOL0     H62127   8.197   2.792   5.678 -0.1432  0.5153 -0.2661
  471MOL0     H62128   8.008   2.804   5.444  0.5635  0.0883 -0.0651
  471MOL0     H62129   7.963   2.780   5.614 -1.2493  1.0824 -0.5786
  471MOL0     H62130   8.147   2.606   5.450  1.1837 -0.3452  0.7362
  471MOL0     H62131   8.093   2.576   5.618  2.2802 -1.5518 -1.5512
  471MOL0     H62132   7.974   2.426   5.453 -1.9996 -0.3246 -1.6112
  471MOL0     H62133   7.905   2.568   5.384  0.4486  0.8847  0.3876
  471MOL0     H62134   7.715   2.635   5.364 -0.0693  0.7549  0.0323
  471MOL0     H62135   7.469   2.623   5.339  0.4223 -2.6430 -0.2548
  471MOL0     H62136   7.050   2.456   5.601 -2.4960 -4.8267 -0.5982
  471MOL0     H62137   6.817   2.428   5.542  1.0705  1.7285  1.0359
  471MOL0     H62138   6.611   2.461   5.476 -1.1437  1.8527 -0.1023
  471MOL0     H62139   6.680   2.325   5.378 -2.0960 -1.8116 -0.4994
  471MOL0     H62140   6.464   2.292   5.352  1.3145 -0.2191  0.3951
  471MOL0     H62141   6.503   2.376   5.199 -1.3289  1.5909 -0.6451
  471MOL0     H62142   6.370   2.508   5.442 -4.6504  0.3739 -0.6332
  471MOL0     H62143   6.295   2.459   5.291 -0.9775 -0.0015  1.7545
  471MOL0     H62144   6.498   2.679   5.305  2.8814 -0.2062 -2.3332
  471MOL0     H62145   6.457   2.614   5.159 -2.4122  1.3815 -1.0986
  471MOL0     H62146   6.210   2.699   5.191  0.7102 -2.3783 -0.1180
  471MOL0     H62147   6.335   2.828   5.216 -1.3755  1.3462 -1.2970
  471MOL0     H62148   6.226   2.656   5.433 -1.0228  0.2568 -1.6985
  471MOL0     H62149   6.142   2.797   5.379  0.1335 -0.4104 -0.2746
  471MOL0     H62150   6.416   2.782   5.514 -0.8266  0.1134  1.1975
  471MOL0     H62151   6.373   2.915   5.393  2.0839 -0.0815 -0.2303
  471MOL0     H62152   6.247   2.843   5.669  0.4385  2.1277  1.5762
  471MOL0     H62153   6.194   2.968   5.561  0.6112 -0.2293 -1.7930
  471MOL0     H62154   6.857   2.673   5.202 -0.5068 -2.5721 -0.8822
  471MOL0     H62155   7.103   2.726   5.271  0.7767 -3.3920 -3.5377
  471MOL0     H62156   7.458   2.509   5.761  2.6750 -1.4221  2.5979
  471MOL0     H62157   7.699   2.469   5.757  0.9638 -0.5583 -1.3267
  471MOL0     H62158   9.621   3.213   5.589 -2.0672 -2.6888  0.2475
  471MOL0     H62159   9.749   3.344   5.737 -0.5696 -0.2785 -3.9928
  471MOL0     H62160   9.643   3.580   6.357  0.2427 -0.5994  0.1648
  471MOL0     H62161   9.826   3.690   6.485 -0.5546  1.9293  0.1541
  471MOL0     H62162  10.196   3.753   6.262  0.0594 -0.3974  0.6331
  471MOL0     H62163  10.221   3.793   6.434 -1.9721 -0.1682  0.2127
  471MOL0     H62164  10.196   3.999   6.215  3.8370  2.6850 -0.4040
  471MOL0     H62165  10.144   4.039   6.367 -0.1916 -0.0289 -2.8982
  471MOL0     H62166  10.382   3.941   6.455  2.9537  1.6644  0.0236
  471MOL0     H62167  10.361   4.112   6.397 -2.3574  0.1237 -0.5817
  471MOL0     H62168  10.439   4.069   6.182  0.5169  1.3241  0.7961
  471MOL0     H62169  10.556   4.035   6.301 -1.1713  3.6142 -0.5322
  471MOL0     H62170  10.539   3.679   6.091  0.5711 -0.5158  1.0250
  471MOL0     H62171  10.060   3.718   6.128  1.9188  2.3478  2.9268
  471MOL0     H62172   9.885   3.576   6.011 -1.1009  1.8930 -0.8769
  472MOL0     O62173   3.989   8.747   8.593 -0.1387 -0.3840  0.6019
  472MOL0     C62174   4.012   8.630   8.578 -0.3651 -0.4146  0.1685
  472MOL0     O62175   4.134   8.571   8.599  0.1213 -0.0843  0.6848
  472MOL0     C62176   4.215   8.627   8.691  0.6802  0.0921  0.6821
  472MOL0     C62177   4.184   8.680   8.810 -0.1923  0.3423 -0.0765
  472MOL0     C62178   4.277   8.752   8.892  0.6855 -0.1504 -0.8302
  472MOL0     C62179   4.408   8.775   8.839 -0.0134 -0.3983  0.3292
  472MOL0     O62180   4.509   8.850   8.895 -0.0132  0.4212 -0.7997
  472MOL0     C62181   4.525   8.874   9.040  0.8089 -0.1475 -0.4343
  472MOL0     C62182   4.651   8.963   9.047 -0.6793 -1.0031 -0.1597
  472MOL0     C62183   4.666   9.016   9.195  0.4089 -0.6770 -0.5015
  472MOL0     C62184   4.781   9.125   9.217  0.5127  0.3497  0.1330
  472MOL0     C62185   4.790   9.245   9.111 -0.1542  0.2812 -0.7094
  472MOL0     C62186   4.661   9.330   9.089 -0.3731  0.9718  0.4616
  472MOL0     C62187   4.624   9.405   9.211  0.9896 -0.5834 -0.7040
  472MOL0     C62188   4.488   9.447   9.219  0.6999  0.0524 -0.1118
  472MOL0     N62189   4.385   9.345   9.213 -0.0486 -0.1123 -0.2639
  472MOL0     C62190   4.281   9.335   9.110 -0.6728  0.3235 -0.6339
  472MOL0     C62191   4.209   9.238   9.162 -0.7778 -0.1907 -0.1074
  472MOL0     C62192   4.087   9.176   9.098 -1.8593  0.2182 -0.2354
  472MOL0     C62193   4.139   9.069   8.999  0.2770  0.4095 -0.5966
  472MOL0     C62194   4.040   8.965   8.949  0.4620  0.4985 -0.8055
  472MOL0     C62195   3.983   8.867   9.057  0.2074 -0.3318 -0.7280
  472MOL0     O62196   3.884   8.942   9.125  0.2105  0.3375  0.2312
  472MOL0     C62197   3.757   8.903   9.112 -0.3658  0.0612 -0.6041
  472MOL0     C62198   3.668   8.967   9.037 -0.7748 -0.4284  0.8968
  472MOL0     C62199   3.537   8.929   9.031 -0.0382 -0.0721 -0.3411
  472MOL0     C62200   3.489   8.820   9.099  0.0329 -0.0420 -0.5053
  472MOL0     C62201   3.350   8.772   9.089 -0.2882 -0.1773  0.3145
  472MOL0     O62202   3.311   8.662   9.155 -0.5053 -0.2349  0.7509
  472MOL0     C62203   3.200   8.591   9.115  0.2991 -0.9567 -0.1627
  472MOL0     C62204   3.146   8.598   8.990 -0.3615  0.1751 -0.7354
  472MOL0     C62205   3.022   8.543   8.969  0.1270 -0.0537 -1.0061
  472MOL0     C62206   2.963   8.458   9.064 -0.2244  0.9224 -0.0463
  472MOL0     O62207   2.838   8.414   9.035  0.2873  0.1826 -0.4478
  472MOL0     C62208   2.762   8.304   9.097 -0.2835  0.2995  1.2203
  472MOL0     C62209   2.679   8.356   9.223 -0.7313  0.1806  0.9534
  472MOL0     C62210   2.571   8.253   9.257 -0.2457 -0.3868 -0.0085
  472MOL0     C62211   2.453   8.318   9.337 -0.3653  0.4035 -0.1118
  472MOL0     C62212   2.328   8.232   9.318 -1.1009  1.1645  0.1401
  472MOL0     C62213   2.328   8.080   9.366 -0.2964  0.4223 -0.3202
  472MOL0     C62214   2.187   8.020   9.353  0.4106 -0.9694  1.0471
  472MOL0     C62215   2.164   7.897   9.435 -0.1520  0.1040 -0.0316
  472MOL0    Cl62216   1.999   7.819   9.416  0.2375 -0.6518  0.6346
  472MOL0     C62217   3.031   8.422   9.175 -0.1739  0.2813 -0.4647
  472MOL0     C62218   3.149   8.495   9.205 -0.3993  0.1879 -0.2225
  472MOL0     O62219   3.280   8.833   9.006  0.2886  0.0918 -0.2928
  472MOL0     C62220   3.580   8.750   9.181 -0.8042  0.4728  0.0773
  472MOL0     C62221   3.711   8.784   9.177  0.0500 -0.2354 -0.4068
  472MOL0     N62222   4.259   9.200   9.286  0.1869  0.6992 -0.1721
  472MOL0     N62223   4.363   9.265   9.319 -0.2443 -0.2218 -0.3803
  472MOL0     C62224   4.442   8.720   8.718 -0.0582 -0.6630 -0.2275
  472MOL0     C62225   4.351   8.645   8.647  1.1614 -0.2166 -0.7779
  472MOL0     C62226   3.908   8.538   8.535  0.7313 -0.2598 -0.1484
  472MOL0     C62227   3.797   8.591   8.472  1.0937  1.2902 -0.6781
  472MOL0     C62228   3.695   8.503   8.431 -0.5607 -0.1324 -0.2131
  472MOL0     C62229   3.708   8.364   8.445 -0.1571  0.0391 -0.2867
  472MOL0     O62230   3.616   8.274   8.401 -0.2690 -0.0557  0.4308
  472MOL0     C62231   3.480   8.316   8.366 -0.8161  0.3685  0.2641
  472MOL0     C62232   3.398   8.192   8.331 -0.2165 -0.0728 -0.2121
  472MOL0     C62233   3.262   8.231   8.268 -0.4499 -0.1139  0.1561
  472MOL0     C62234   3.148   8.128   8.279 -0.4462  0.6400 -0.3333
  472MOL0     C62235   3.182   8.013   8.197  0.0384  0.5155  0.0707
  472MOL0     C62236   3.197   7.913   8.129  0.5648 -0.1376 -0.3712
  472MOL0     C62237   3.819   8.313   8.511 -1.2556  0.5708 -0.9417
  472MOL0     C62238   3.920   8.398   8.552  0.0868  0.3334 -1.1236
  472MOL0     H62239   4.080   8.682   8.843 -0.0590  2.2929  0.3464
  472MOL0     H62240   4.245   8.771   8.994  1.2044  0.1467 -0.7185
  472MOL0     H62241   4.539   8.773   9.078  2.7424 -0.4424 -1.7953
  472MOL0     H62242   4.437   8.918   9.089  0.5397 -2.4964  1.3915
  472MOL0     H62243   4.634   9.042   8.973 -1.1680 -0.8419  0.1255
  472MOL0     H62244   4.741   8.904   9.027 -1.2470 -1.6068 -0.9903
  472MOL0     H62245   4.675   8.933   9.267 -4.9543 -0.5456  0.7848
  472MOL0     H62246   4.573   9.071   9.210  1.1279  1.0175 -1.9004
  472MOL0     H62247   4.765   9.166   9.318 -3.0058 -0.8382  0.1855
  472MOL0     H62248   4.877   9.072   9.211  0.5213 -0.0318  2.4940
  472MOL0     H62249   4.823   9.205   9.015  0.0840  3.2527 -1.9538
  472MOL0     H62250   4.871   9.313   9.141 -2.1176  2.4239 -0.0099
  472MOL0     H62251   4.581   9.261   9.059 -0.1999  1.5682 -1.5290
  472MOL0     H62252   4.676   9.389   8.999  3.1624 -2.3696 -1.4568
  472MOL0     H62253   4.629   9.338   9.298  0.6012  0.4161  0.1193
  472MOL0     H62254   4.694   9.488   9.224 -0.3175  0.4025  0.3294
  472MOL0     H62255   4.476   9.517   9.135 -1.6579 -1.0316 -0.7508
  472MOL0     H62256   4.461   9.509   9.304 -0.3025  0.7891 -0.9506
  472MOL0     H62257   4.280   9.385   9.013 -0.7851  0.4782 -0.5528
  472MOL0     H62258   4.018   9.251   9.058 -2.8111  0.7202  2.1778
  472MOL0     H62259   4.029   9.124   9.176 -0.3236 -2.1801 -0.5725
  472MOL0     H62260   4.225   9.015   9.040 -2.0509 -1.2420  2.4781
  472MOL0     H62261   4.191   9.122   8.918  3.4542  1.2588  1.7888
  472MOL0     H62262   3.960   9.022   8.901 -0.6225 -0.8967 -0.7112
  472MOL0     H62263   4.071   8.916   8.856  1.8905  1.0432 -0.6377
  472MOL0     H62264   4.070   8.845   9.119  2.1579 -0.4049 -3.3449
  472MOL0     H62265   3.948   8.773   9.015 -2.7110  0.4379 -0.2756
  472MOL0     H62266   3.699   9.054   8.980  0.6724 -0.2908  1.8450
  472MOL0     H62267   3.470   8.987   8.968  0.5199 -1.7671 -2.6370
  472MOL0     H62268   3.185   8.659   8.909 -1.6530  2.3471  0.1855
  472MOL0     H62269   2.968   8.563   8.876  1.7395  1.0479 -1.7476
  472MOL0     H62270   2.838   8.229   9.122 -0.0059  0.5881  1.2348
  472MOL0     H62271   2.690   8.258   9.028 -0.9633 -1.7369  3.1438
  472MOL0     H62272   2.638   8.456   9.201 -1.1999 -0.6276 -2.3675
  472MOL0     H62273   2.753   8.364   9.303  3.2948 -0.6935 -2.3519
  472MOL0     H62274   2.620   8.180   9.321 -1.6718  0.3846  2.0748
  472MOL0     H62275   2.531   8.202   9.169  0.4640 -1.2041  0.1385
  472MOL0     H62276   2.471   8.315   9.444 -1.3403  2.6281  0.1700
  472MOL0     H62277   2.439   8.421   9.302 -3.5663 -0.2165 -1.0237
  472MOL0     H62278   2.312   8.226   9.209  0.9720  0.0729 -0.1455
  472MOL0     H62279   2.257   8.287   9.380 -1.6050  1.1228 -0.3878
  472MOL0     H62280   2.356   8.085   9.471  0.4633  3.3877 -0.5627
  472MOL0     H62281   2.403   8.022   9.311  0.1814 -0.5075  1.2609
  472MOL0     H62282   2.111   8.090   9.390 -1.8236 -1.6957 -1.8345
  472MOL0     H62283   2.166   7.999   9.248  0.5401  1.7653  0.4025
  472MOL0     H62284   2.164   7.932   9.539 -4.0211  2.6488 -0.7125
  472MOL0     H62285   2.245   7.824   9.432  0.0535  0.0469  3.2563
  472MOL0     H62286   3.013   8.339   9.243  0.1090  0.9636  0.4496
  472MOL0     H62287   3.210   8.474   9.292 -0.3996 -0.9697 -0.4793
  472MOL0     H62288   3.564   8.659   9.239 -1.7472 -0.1224 -1.0766
  472MOL0     H62289   3.794   8.731   9.222  2.1275  1.7727 -1.6753
  472MOL0     H62290   4.539   8.728   8.670  1.0952 -3.6983  1.3784
  472MOL0     H62291   4.380   8.620   8.546  3.9330 -0.3644 -0.0384
  472MOL0     H62292   3.782   8.698   8.483 -0.1317  0.9300  1.9801
  472MOL0     H62293   3.608   8.547   8.383  1.9300  2.7424 -2.5352
  472MOL0     H62294   3.482   8.392   8.288 -4.1844 -1.3337 -1.7313
  472MOL0     H62295   3.448   8.356   8.462 -1.1857  0.4755  0.0975
  472MOL0     H62296   3.461   8.156   8.250 -0.1935  1.9008 -1.1299
  472MOL0     H62297   3.390   8.124   8.416  2.5880 -0.3677 -0.1038
  472MOL0     H62298   3.282   8.253   8.163 -1.9987  0.9413  0.0591
  472MOL0     H62299   3.230   8.323   8.316  3.0684  2.1437 -1.4112
  472MOL0     H62300   3.128   8.111   8.385  0.9790  0.3806 -0.0908
  472MOL0     H62301   3.058   8.158   8.225 -1.4082  0.9737  1.3904
  472MOL0     H62302   3.224   7.828   8.070  2.8900  1.3739 -1.6853
  472MOL0     H62303   3.830   8.205   8.519 -0.8436  0.6780  0.1189
  472MOL0     H62304   4.011   8.372   8.605  0.2616  4.2953  0.9475
  473MOL0     O62305  11.226   1.536   3.224 -0.1488  0.2165  0.0631
  473MOL0     C62306  11.262   1.641   3.171  0.5828  0.6647 -0.0791
  473MOL0     O62307  11.179   1.733   3.107 -0.1551 -0.0286 -0.5829
  473MOL0     C62308  11.047   1.715   3.072 -1.1435 -1.0537 -0.6949
  473MOL0     C62309  10.960   1.665   3.160  1.1513 -0.2478 -0.2385
  473MOL0     C62310  10.819   1.645   3.129 -0.2220 -0.1731  0.8962
  473MOL0     C62311  10.773   1.687   3.002  0.5643  0.0647  0.0019
  473MOL0     O62312  10.645   1.669   2.973 -0.2767  0.6562 -0.4829
  473MOL0     C62313  10.601   1.693   2.841  0.0842  0.1589 -0.0027
  473MOL0     C62314  10.461   1.639   2.844  0.0794 -0.1540  0.4502
  473MOL0     C62315  10.357   1.709   2.931  0.3356  0.3580  0.6887
  473MOL0     C62316  10.226   1.627   2.941  0.3005  0.3628 -0.0794
  473MOL0     C62317  10.111   1.702   3.016  0.0171  0.3793 -1.0707
  473MOL0     C62318   9.983   1.613   3.032 -0.1649 -0.5724  0.0469
  473MOL0     C62319   9.853   1.693   3.080 -0.4790 -0.7812 -0.1939
  473MOL0     C62320   9.730   1.616   3.039  0.0563  0.1442  0.8811
  473MOL0     N62321   9.616   1.707   3.058  0.4279  0.6768  0.3337
  473MOL0     C62322   9.560   1.731   3.176  0.7124  0.5587  0.2935
  473MOL0     C62323   9.466   1.819   3.145  0.3607 -0.6008  0.2095
  473MOL0     C62324   9.393   1.901   3.236  1.2009 -1.9108  1.1538
  473MOL0     C62325   9.240   1.859   3.244 -0.4775  0.4519 -0.2230
  473MOL0     C62326   9.180   1.873   3.093 -0.0668 -0.0518  0.2978
  473MOL0     C62327   9.029   1.827   3.086  0.0187  0.1322 -0.0874
  473MOL0     O62328   8.935   1.882   3.182  0.2744 -0.2458  0.6818
  473MOL0     C62329   8.798   1.852   3.190  0.2243 -0.6166 -0.1259
  473MOL0     C62330   8.742   1.784   3.083  0.4543 -0.4152 -0.1319
  473MOL0     C62331   8.608   1.756   3.093  1.0404  0.1452  0.0404
  473MOL0     C62332   8.528   1.793   3.195  0.2664 -1.7756  0.1092
  473MOL0     C62333   8.382   1.768   3.198  0.1834  0.2355  0.5486
  473MOL0     O62334   8.320   1.777   3.318 -0.0742 -0.9898 -0.2910
  473MOL0     C62335   8.184   1.743   3.333 -0.1900  0.6256  0.4086
  473MOL0     C62336   8.109   1.627   3.291 -1.0839 -0.2105 -0.5346
  473MOL0     C62337   7.983   1.596   3.338 -0.5245 -0.2842 -0.0308
  473MOL0     C62338   7.916   1.688   3.431 -0.6714  0.4072  0.4899
  473MOL0     O62339   7.791   1.664   3.487 -0.2179 -0.4239 -0.0667
  473MOL0     C62340   7.692   1.629   3.385 -0.1256 -0.4739  0.2934
  473MOL0     C62341   7.565   1.595   3.459  0.4653 -0.4009  0.5617
  473MOL0     C62342   7.564   1.444   3.489 -0.1580 -0.1874 -1.1296
  473MOL0     C62343   7.426   1.376   3.485 -0.2469  0.1493 -0.5163
  473MOL0     C62344   7.434   1.235   3.564 -0.1281 -0.4507  0.5457
  473MOL0     C62345   7.289   1.202   3.615  0.0231 -0.5017  0.2541
  473MOL0     C62346   7.296   1.059   3.674 -0.4299  1.0075 -0.1803
  473MOL0     C62347   7.166   0.999   3.735  0.0478 -0.3765  0.9816
  473MOL0    Cl62348   7.081   1.124   3.822 -0.7514  0.1458  0.3858
  473MOL0     C62349   7.992   1.803   3.467 -1.1081 -0.0896  0.0099
  473MOL0     C62350   8.122   1.826   3.428 -0.2889  0.2028  0.5298
  473MOL0     O62351   8.327   1.718   3.098  0.1675 -0.0800  0.5632
  473MOL0     C62352   8.585   1.861   3.302  0.1249  0.8726  0.1920
  473MOL0     C62353   8.719   1.882   3.307  0.0148  0.3664 -0.2846
  473MOL0     N62354   9.472   1.847   3.014  0.6971 -0.0270 -0.6884
  473MOL0     N62355   9.562   1.780   2.960  0.2523 -0.2975  0.3216
  473MOL0     C62356  10.860   1.757   2.922  0.0480  0.6216  0.0981
  473MOL0     C62357  10.993   1.757   2.948 -0.8159 -0.6673 -0.5797
  473MOL0     C62358  11.391   1.686   3.221  0.3120 -0.7991 -0.0222
  473MOL0     C62359  11.419   1.827   3.205 -0.4249 -0.1295  0.1595
  473MOL0     C62360  11.551   1.873   3.263  0.6855  1.2224 -0.0436
  473MOL0     C62361  11.629   1.785   3.345  0.0004  0.1257  0.6421
  473MOL0     O62362  11.724   1.841   3.428  0.1709 -0.1208  0.9646
  473MOL0     C62363  11.840   1.773   3.492  1.2461 -0.0736  1.0651
  473MOL0     C62364  11.963   1.756   3.405 -0.5530 -0.3488 -0.5218
  473MOL0     C62365  12.082   1.693   3.467 -0.1303  0.4524  0.9600
  473MOL0     C62366  12.147   1.787   3.556  0.2934  0.6462  0.9150
  473MOL0     C62367  12.258   1.719   3.634 -0.0769 -0.0928 -0.4090
  473MOL0     C62368  12.343   1.660   3.704 -0.0316 -0.1495 -0.6587
  473MOL0     C62369  11.592   1.649   3.353 -0.8372 -0.4238  0.2138
  473MOL0     C62370  11.479   1.601   3.290 -0.3789  0.0858 -0.3849
  473MOL0     H62371  10.979   1.645   3.265  0.8346  1.3353  0.1590
  473MOL0     H62372  10.744   1.599   3.192 -0.6537 -2.5720 -1.2059
  473MOL0     H62373  10.654   1.623   2.775  1.8194 -1.7552  3.1468
  473MOL0     H62374  10.605   1.799   2.818  3.3286 -0.5565 -3.9440
  473MOL0     H62375  10.461   1.534   2.875 -2.9044 -0.5220 -0.4482
  473MOL0     H62376  10.426   1.629   2.741 -0.3948  0.9820  0.4860
  473MOL0     H62377  10.338   1.806   2.884  1.0207 -0.6827 -1.9127
  473MOL0     H62378  10.397   1.729   3.031 -1.6585  1.4255  1.3447
  473MOL0     H62379  10.195   1.592   2.842 -0.4452  1.5757 -0.2963
  473MOL0     H62380  10.233   1.536   3.001 -1.7094  0.5309  0.4908
  473MOL0     H62381  10.090   1.794   2.961  1.1431  1.0480 -0.4252
  473MOL0     H62382  10.145   1.733   3.115 -2.5411 -0.0182  0.0054
  473MOL0     H62383  10.016   1.522   3.083  0.7191  0.1804  0.8656
  473MOL0     H62384   9.955   1.577   2.933 -0.7089 -1.6580  0.5864
  473MOL0     H62385   9.852   1.715   3.188 -2.7351 -0.3027 -0.2645
  473MOL0     H62386   9.857   1.794   3.037 -0.5720 -0.1690  1.1599
  473MOL0     H62387   9.715   1.522   3.093 -2.4791  1.7231  3.2197
  473MOL0     H62388   9.737   1.596   2.932 -7.8606  3.9520 -1.1305
  473MOL0     H62389   9.576   1.684   3.272  1.1712  0.5503  0.2171
  473MOL0     H62390   9.390   2.006   3.206  3.1426 -2.2547 -0.3625
  473MOL0     H62391   9.440   1.902   3.335  2.1914  2.3089  0.8297
  473MOL0     H62392   9.188   1.923   3.316  0.2047  3.4255 -2.2474
  473MOL0     H62393   9.229   1.756   3.282  2.6868  1.2151  3.3406
  473MOL0     H62394   9.188   1.977   3.060 -2.9053  0.8133  1.9489
  473MOL0     H62395   9.231   1.806   3.024  1.4932 -1.5839  2.7560
  473MOL0     H62396   9.015   1.720   3.105  1.6307  0.2149  1.9267
  473MOL0     H62397   8.999   1.852   2.984 -1.0490 -1.3618 -0.1755
  473MOL0     H62398   8.795   1.738   3.000 -2.0351 -1.5245 -1.2219
  473MOL0     H62399   8.561   1.693   3.018  0.3999  0.5727  0.0780
  473MOL0     H62400   8.161   1.561   3.222 -1.5272 -0.2356 -0.8528
  473MOL0     H62401   7.949   1.496   3.312 -0.8273 -0.0131 -0.7048
  473MOL0     H62402   7.714   1.545   3.319 -0.3966 -1.1064  0.9986
  473MOL0     H62403   7.652   1.710   3.324 -1.8884  1.5560  3.8188
  473MOL0     H62404   7.474   1.612   3.401  0.1523 -1.7841  0.6223
  473MOL0     H62405   7.560   1.655   3.551 -0.4138  2.0959 -1.0087
  473MOL0     H62406   7.616   1.441   3.585  3.6632  0.9019 -2.9358
  473MOL0     H62407   7.621   1.392   3.412 -0.1448 -2.6076  0.4122
  473MOL0     H62408   7.359   1.445   3.536 -1.0725  0.8919 -2.4824
  473MOL0     H62409   7.403   1.374   3.378 -0.0946  1.6097 -0.5950
  473MOL0     H62410   7.499   1.263   3.648  0.9258 -0.7454 -0.1555
  473MOL0     H62411   7.472   1.152   3.504 -2.0492 -1.0243  0.0402
  473MOL0     H62412   7.224   1.207   3.527  1.4192  0.1618 -0.7652
  473MOL0     H62413   7.259   1.273   3.692 -0.8938 -1.2895  0.6609
  473MOL0     H62414   7.324   0.989   3.595 -0.0852 -1.1889  1.7902
  473MOL0     H62415   7.380   1.055   3.744 -0.4883  1.6989 -0.0626
  473MOL0     H62416   7.184   0.910   3.795 -1.3517  0.0748  2.1227
  473MOL0     H62417   7.103   0.963   3.653 -1.6383  3.6313  0.2751
  473MOL0     H62418   7.946   1.863   3.545 -0.3893 -1.4213  1.5332
  473MOL0     H62419   8.177   1.909   3.471  1.6227  0.4033 -2.0464
  473MOL0     H62420   8.521   1.906   3.377 -0.2184  3.8223 -1.7027
  473MOL0     H62421   8.767   1.919   3.397  1.3959 -1.0381 -0.3956
  473MOL0     H62422  10.829   1.795   2.825  0.3514  3.2725  0.9465
  473MOL0     H62423  11.060   1.787   2.868  0.1653  1.0121  0.7855
  473MOL0     H62424  11.357   1.904   3.160  1.8553  0.4505 -2.2126
  473MOL0     H62425  11.576   1.978   3.267  2.7303  0.8100 -0.8031
  473MOL0     H62426  11.797   1.678   3.526  0.7550  0.4887  2.0497
  473MOL0     H62427  11.857   1.834   3.581  0.7766 -0.8942  1.7270
  473MOL0     H62428  11.932   1.690   3.323  0.1888 -0.9616 -0.3173
  473MOL0     H62429  11.988   1.855   3.364 -1.4441  1.3759  2.7914
  473MOL0     H62430  12.156   1.662   3.393 -0.8119  2.6432 -0.7273
  473MOL0     H62431  12.045   1.607   3.524 -2.6970  1.2933  0.6605
  473MOL0     H62432  12.182   1.878   3.506  0.8498 -0.0309  0.0301
  473MOL0     H62433  12.080   1.817   3.637 -1.1079 -2.7860  1.2155
  473MOL0     H62434  12.430   1.627   3.757  0.6074 -0.6412 -1.9783
  473MOL0     H62435  11.664   1.587   3.407 -0.4626  0.8567  1.2458
  473MOL0     H62436  11.461   1.495   3.303  2.5385 -0.5586 -0.9946
  474MOL0     O62437  10.666   9.705   1.903 -1.0697  0.4344 -0.2075
  474MOL0     C62438  10.753   9.785   1.927 -1.0157  0.3381  0.4134
  474MOL0     O62439  10.739   9.899   2.005  0.1389 -0.1969 -0.1474
  474MOL0     C62440  10.611   9.945   2.016  0.1132 -0.8164  0.0571
  474MOL0     C62441  10.519   9.958   1.913 -0.7426 -0.1609 -0.4492
  474MOL0     C62442  10.399  10.025   1.923 -0.4771 -0.6738 -0.5331
  474MOL0     C62443  10.365  10.086   2.038 -0.0457 -0.0687  0.5536
  474MOL0     O62444  10.247  10.148   2.043  0.0657  0.6048 -0.7653
  474MOL0     C62445  10.201  10.224   2.163 -0.2054  0.5877 -0.0527
  474MOL0     C62446  10.151  10.127   2.271 -0.3011  0.1401  0.3060
  474MOL0     C62447  10.107  10.212   2.395  0.0451 -0.0454  0.7768
  474MOL0     C62448   9.952  10.237   2.393 -0.2218 -0.3780 -0.0508
  474MOL0     C62449   9.905  10.298   2.528 -0.1429 -0.3398 -0.1137
  474MOL0     C62450   9.756  10.338   2.529  0.2840 -0.1856  0.2514
  474MOL0     C62451   9.713  10.359   2.676 -0.6285 -0.6242 -0.0605
  474MOL0     C62452   9.587  10.441   2.689 -1.1045  0.8479  0.3031
  474MOL0     N62453   9.508  10.376   2.788  0.7177  0.5143  0.6080
  474MOL0     C62454   9.514  10.393   2.921 -0.0893  0.4123 -0.7893
  474MOL0     C62455   9.435  10.292   2.977 -0.2819  0.2540  0.7917
  474MOL0     C62456   9.411  10.261   3.125 -0.1750  0.0157  0.1548
  474MOL0     C62457   9.285  10.330   3.184  0.4197  0.3030 -0.4372
  474MOL0     C62458   9.287  10.479   3.217 -0.0424  0.4317  0.0289
  474MOL0     C62459   9.147  10.532   3.270  0.3136 -0.3125  0.0982
  474MOL0     O62460   9.104  10.467   3.391 -0.0245 -0.4096  0.5752
  474MOL0     C62461   8.978  10.414   3.388 -0.3025 -0.4253  0.0820
  474MOL0     C62462   8.952  10.280   3.365  0.1583  0.0829 -0.1506
  474MOL0     C62463   8.827  10.227   3.354 -0.1436 -0.3292  0.2913
  474MOL0     C62464   8.715  10.305   3.365 -0.5587 -0.1583 -0.2015
  474MOL0     C62465   8.578  10.252   3.345  0.8329  0.3076 -0.9326
  474MOL0     O62466   8.559  10.120   3.325  0.0002  0.0865  0.6425
  474MOL0     C62467   8.445  10.063   3.355  0.7794  0.8404 -0.3207
  474MOL0     C62468   8.436   9.949   3.435 -0.6193  0.0969 -0.2575
  474MOL0     C62469   8.318   9.890   3.446  0.5393 -0.4036 -0.6699
  474MOL0     C62470   8.199   9.933   3.390  0.1738  0.5637  0.0610
  474MOL0     O62471   8.091   9.868   3.443  0.2573 -0.1249 -0.0153
  474MOL0     C62472   7.960   9.895   3.395 -0.0087  0.2869 -0.2983
  474MOL0     C62473   7.894  10.003   3.477 -0.1862  0.1218  0.6416
  474MOL0     C62474   7.750   9.971   3.492 -0.1105  0.2711  0.4952
  474MOL0     C62475   7.682  10.088   3.560 -0.4895  0.6850  0.3926
  474MOL0     C62476   7.531  10.061   3.571 -0.0547 -0.3806 -0.3802
  474MOL0     C62477   7.465  10.168   3.666  0.3981  0.5959  0.0719
  474MOL0     C62478   7.313  10.183   3.638  0.5604 -0.8086 -0.7311
  474MOL0     C62479   7.245  10.253   3.758 -0.9417  0.2539  0.1277
  474MOL0    Cl62480   7.079  10.283   3.738  0.4827  0.3903  0.1267
  474MOL0     C62481   8.205  10.046   3.322  0.1495  0.0378  0.1111
  474MOL0     C62482   8.325  10.108   3.291 -0.0823 -0.1218  0.3553
  474MOL0     O62483   8.487  10.335   3.366 -0.3607  0.6787 -0.0250
  474MOL0     C62484   8.741  10.434   3.408  0.3755 -0.2509  0.5274
  474MOL0     C62485   8.864  10.490   3.416 -0.3572  0.1836 -0.0771
  474MOL0     N62486   9.378  10.222   2.872  0.4921  0.7474 -0.4923
  474MOL0     N62487   9.428  10.270   2.760 -0.1069  0.0183  0.0929
  474MOL0     C62488  10.453  10.080   2.143  1.4893  0.7816  0.5026
  474MOL0     C62489  10.576  10.008   2.131  0.6228 -0.0260  0.3457
  474MOL0     C62490  10.889   9.751   1.887  0.1208 -0.3607  0.0803
  474MOL0     C62491  10.996   9.849   1.892 -0.4461 -0.7791  0.4824
  474MOL0     C62492  11.122   9.811   1.844  0.4605  0.7280 -0.7484
  474MOL0     C62493  11.148   9.677   1.797  0.3863 -0.5312 -1.3035
  474MOL0     O62494  11.277   9.650   1.764  0.3472  0.0618  0.5382
  474MOL0     C62495  11.309   9.550   1.661 -0.1447 -0.0616 -0.5786
  474MOL0     C62496  11.242   9.587   1.531  0.1317 -0.4680  0.5664
  474MOL0     C62497  11.237   9.454   1.446 -0.9140  0.0387 -0.0235
  474MOL0     C62498  11.171   9.473   1.316  0.0364  0.4864  1.0109
  474MOL0     C62499  11.236   9.561   1.213  0.8162  0.3668  0.2138
  474MOL0     C62500  11.293   9.629   1.130 -0.1186 -0.3359 -0.4908
  474MOL0     C62501  11.044   9.580   1.789 -0.1593 -1.0772  0.6673
  474MOL0     C62502  10.918   9.625   1.829  0.7143  0.4098 -0.4517
  474MOL0     H62503  10.549   9.920   1.816  1.9535 -0.0395  0.2543
  474MOL0     H62504  10.323  10.021   1.846  0.5172  2.0474 -1.7530
  474MOL0     H62505  10.121  10.291   2.131 -0.5910  1.4733  2.5100
  474MOL0     H62506  10.275  10.297   2.198  2.0373 -0.7955 -1.5791
  474MOL0     H62507  10.234  10.069   2.311 -0.6874 -1.4262 -1.0339
  474MOL0     H62508  10.074  10.055   2.241 -1.4841  0.0391  3.2602
  474MOL0     H62509  10.163  10.305   2.389  1.8270 -1.1040  0.2164
  474MOL0     H62510  10.134  10.161   2.488  1.4660 -0.6102  0.0923
  474MOL0     H62511   9.922  10.311   2.318 -0.0514 -1.6161 -1.3931
  474MOL0     H62512   9.891  10.148   2.378 -2.1962  0.7678  0.8126
  474MOL0     H62513   9.966  10.387   2.549  1.2726 -1.1009 -0.8642
  474MOL0     H62514   9.921  10.224   2.606  1.3415 -1.4945 -1.4488
  474MOL0     H62515   9.698  10.253   2.493 -3.4135  1.9405  0.6534
  474MOL0     H62516   9.744  10.433   2.476 -1.0492 -1.2167 -1.4248
  474MOL0     H62517   9.697  10.257   2.711  1.5261 -2.5269 -3.8725
  474MOL0     H62518   9.791  10.407   2.735 -1.1641  1.7765 -1.2035
  474MOL0     H62519   9.536  10.446   2.592  0.1128 -2.0956 -0.5883
  474MOL0     H62520   9.609  10.539   2.733 -0.7107  0.7010  0.4351
  474MOL0     H62521   9.576  10.468   2.969 -0.1272  1.0610 -1.7367
  474MOL0     H62522   9.502  10.287   3.179  1.1570 -0.6584 -1.6663
  474MOL0     H62523   9.391  10.153   3.131 -3.3905  0.5152  0.0324
  474MOL0     H62524   9.259  10.291   3.283  3.2766  2.1424  1.1677
  474MOL0     H62525   9.196  10.318   3.121  1.1840 -0.8079 -1.3336
  474MOL0     H62526   9.365  10.498   3.291  0.7713 -1.6872 -0.1954
  474MOL0     H62527   9.310  10.539   3.128 -0.0673  1.7929  0.9147
  474MOL0     H62528   9.076  10.531   3.187  1.5634  2.3815 -1.1271
  474MOL0     H62529   9.160  10.639   3.291  0.4594 -0.5788  1.4666
  474MOL0     H62530   9.032  10.214   3.334 -0.5881 -0.5507 -0.7574
  474MOL0     H62531   8.807  10.121   3.346 -1.4305 -0.2684  2.1020
  474MOL0     H62532   8.526   9.907   3.479  0.4481  2.7878  0.3255
  474MOL0     H62533   8.307   9.802   3.508  2.2764 -0.9063 -1.0146
  474MOL0     H62534   7.901   9.805   3.418 -1.1286  0.8921 -0.7158
  474MOL0     H62535   7.949   9.907   3.287  2.2888 -2.0026 -0.8867
  474MOL0     H62536   7.891  10.097   3.421 -0.5113  0.5694  1.3986
  474MOL0     H62537   7.941  10.020   3.574 -0.3124  1.7461  0.4532
  474MOL0     H62538   7.740   9.881   3.553  0.2507  0.1755  0.4188
  474MOL0     H62539   7.706   9.950   3.394  0.0341  0.0333  0.4797
  474MOL0     H62540   7.727  10.103   3.658  1.6306  0.6686 -0.5208
  474MOL0     H62541   7.700  10.183   3.508 -1.3216  0.2493 -0.7315
  474MOL0     H62542   7.511   9.967   3.623 -0.8209  0.8549  1.7080
  474MOL0     H62543   7.485  10.062   3.472 -1.1445  0.3208  0.1191
  474MOL0     H62544   7.512  10.267   3.655 -0.7183  1.3141  1.4966
  474MOL0     H62545   7.492  10.155   3.771 -0.5531  0.0761  0.2572
  474MOL0     H62546   7.290  10.227   3.540 -3.5147 -1.8924 -0.4506
  474MOL0     H62547   7.260  10.088   3.639 -0.8327 -0.1251  2.4232
  474MOL0     H62548   7.292  10.351   3.775 -0.8083  0.5158 -1.6047
  474MOL0     H62549   7.261  10.198   3.851  3.2215  1.3164  0.2481
  474MOL0     H62550   8.119  10.079   3.264  1.1984  1.1950 -0.8483
  474MOL0     H62551   8.321  10.199   3.233  0.7476  0.0611  0.5797
  474MOL0     H62552   8.653  10.498   3.418 -1.0671 -1.7735 -1.5579
  474MOL0     H62553   8.869  10.594   3.447 -1.5947 -0.0054  0.8314
  474MOL0     H62554  10.434  10.127   2.239 -0.8397 -1.1051  1.0635
  474MOL0     H62555  10.645   9.994   2.213  1.1030 -0.2225 -0.0840
  474MOL0     H62556  10.971   9.953   1.913 -3.6822 -1.1747 -0.7721
  474MOL0     H62557  11.204   9.881   1.833  3.0408 -1.9155  0.5451
  474MOL0     H62558  11.279   9.453   1.704 -0.7727  0.4626  0.2008
  474MOL0     H62559  11.415   9.542   1.638 -0.2884 -3.2267 -0.6352
  474MOL0     H62560  11.139   9.625   1.535 -0.1377 -1.1723  4.0805
  474MOL0     H62561  11.303   9.657   1.474 -0.2992 -0.5550 -0.0172
  474MOL0     H62562  11.187   9.368   1.494 -2.3492 -0.1392 -1.7252
  474MOL0     H62563  11.340   9.420   1.433 -1.2531 -2.4602  2.6188
  474MOL0     H62564  11.163   9.372   1.274 -1.0561  0.4715  1.2126
  474MOL0     H62565  11.067   9.502   1.332  0.1072  0.5154  1.4301
  474MOL0     H62566  11.349   9.688   1.061 -1.8847  2.6854  0.4499
  474MOL0     H62567  11.049   9.485   1.737 -2.9199 -0.8446 -0.2109
  474MOL0     H62568  10.836   9.558   1.804 -0.7594  0.4285  3.5879
  475MOL0     O62569   8.673   8.744   6.537 -0.5869  0.0013  0.0548
  475MOL0     C62570   8.681   8.849   6.475 -0.2280 -0.3883  0.7342
  475MOL0     O62571   8.577   8.925   6.422 -0.6477 -0.0730  0.0305
  475MOL0     C62572   8.456   8.862   6.415 -0.4544  0.5745 -0.0903
  475MOL0     C62573   8.437   8.758   6.325  0.0399  1.0757  0.2790
  475MOL0     C62574   8.317   8.683   6.324 -0.2100  0.0424 -0.4719
  475MOL0     C62575   8.209   8.716   6.406 -0.7338 -0.9764 -0.7936
  475MOL0     O62576   8.084   8.673   6.388 -0.8416  0.6664 -0.3647
  475MOL0     C62577   8.063   8.529   6.375 -0.1945  1.0022 -0.0780
  475MOL0     C62578   7.921   8.495   6.334 -0.7187  0.3004 -0.0905
  475MOL0     C62579   7.899   8.542   6.185  0.0362  0.3573 -0.3091
  475MOL0     C62580   7.761   8.516   6.133 -0.1861  0.4394  0.0746
  475MOL0     C62581   7.762   8.535   5.981 -0.5588 -0.1258  0.2716
  475MOL0     C62582   7.652   8.464   5.896 -0.3651 -0.2132 -0.2441
  475MOL0     C62583   7.660   8.315   5.883 -0.1064  0.0864 -0.0866
  475MOL0     C62584   7.543   8.235   5.831  0.8476  0.3269  0.4271
  475MOL0     N62585   7.573   8.096   5.825 -0.0851 -0.7271  0.1640
  475MOL0     C62586   7.617   8.042   5.708  0.5816  0.5225  0.1970
  475MOL0     C62587   7.581   7.917   5.723  0.1439  1.0097  0.1444
  475MOL0     C62588   7.603   7.803   5.627 -0.2554  0.1399 -0.3156
  475MOL0     C62589   7.733   7.827   5.550  0.2421 -0.8333  0.1584
  475MOL0     C62590   7.782   7.704   5.482 -0.7660  0.5156  0.3014
  475MOL0     C62591   7.914   7.722   5.409 -0.4368  0.3101 -0.7032
  475MOL0     O62592   8.018   7.723   5.500  1.2112 -0.0650  0.1372
  475MOL0     C62593   8.146   7.733   5.459  0.6266 -0.6400  0.6457
  475MOL0     C62594   8.179   7.767   5.322 -0.0802 -0.6011 -0.3597
  475MOL0     C62595   8.321   7.781   5.276  0.5734 -1.1087 -0.1267
  475MOL0     C62596   8.424   7.748   5.360 -0.0185  0.2669 -0.4957
  475MOL0     C62597   8.564   7.730   5.308  0.2344 -0.0611  0.5078
  475MOL0     O62598   8.584   7.803   5.193 -0.6789 -0.4216  0.1828
  475MOL0     C62599   8.695   7.764   5.122 -0.2702 -0.2017 -0.5402
  475MOL0     C62600   8.827   7.799   5.157 -0.9632  1.2056 -0.3455
  475MOL0     C62601   8.934   7.761   5.082 -0.0532  0.6978  0.0395
  475MOL0     C62602   8.914   7.690   4.964 -0.2712 -0.8286 -0.8176
  475MOL0     O62603   9.013   7.646   4.884  0.2258 -0.3856  0.8406
  475MOL0     C62604   9.151   7.676   4.928 -0.1359  0.2396  0.4087
  475MOL0     C62605   9.246   7.658   4.820 -0.4277 -0.5141 -0.1712
  475MOL0     C62606   9.385   7.643   4.865  0.4493  0.1486 -1.2696
  475MOL0     C62607   9.475   7.611   4.742 -0.0979  0.2708  0.3854
  475MOL0     C62608   9.624   7.622   4.765 -0.1523 -0.2483  0.6761
  475MOL0     C62609   9.699   7.628   4.626 -0.7133 -0.2885 -0.7420
  475MOL0     C62610   9.838   7.570   4.633 -0.4229 -0.2939  0.9481
  475MOL0     C62611   9.945   7.627   4.539  0.9721 -0.0907  0.6521
  475MOL0    Cl62612   9.888   7.602   4.367  0.2542  0.1419  0.2569
  475MOL0     C62613   8.783   7.640   4.940 -0.0583  0.4447 -0.2142
  475MOL0     C62614   8.673   7.682   5.015  0.1749  0.5959 -0.5701
  475MOL0     O62615   8.653   7.668   5.360 -0.4118 -0.3089 -0.3306
  475MOL0     C62616   8.385   7.713   5.495 -0.3595  0.3586 -0.1579
  475MOL0     C62617   8.254   7.702   5.542 -0.2024  0.0591 -0.4680
  475MOL0     N62618   7.527   7.894   5.849 -0.5264  0.1757 -0.2232
  475MOL0     N62619   7.532   8.000   5.916 -0.3269  0.4556  0.4376
  475MOL0     C62620   8.229   8.820   6.497  0.4513 -0.0715 -0.3924
  475MOL0     C62621   8.346   8.888   6.499 -0.6273 -0.0762 -0.1551
  475MOL0     C62622   8.819   8.896   6.434  0.3310 -0.3270 -0.0711
  475MOL0     C62623   8.933   8.812   6.460  0.4825 -1.1562 -0.6405
  475MOL0     C62624   9.056   8.860   6.411 -0.3558 -0.5419  0.0859
  475MOL0     C62625   9.072   8.988   6.361  0.4405 -0.0070  0.3395
  475MOL0     O62626   9.202   9.017   6.336 -0.1234 -0.3490 -0.1848
  475MOL0     C62627   9.252   9.154   6.368  0.3022 -0.5599  0.3580
  475MOL0     C62628   9.400   9.139   6.330  0.0481  0.0890  0.7570
  475MOL0     C62629   9.488   9.262   6.366 -0.7770 -0.0001 -0.4841
  475MOL0     C62630   9.503   9.292   6.518 -0.5233  0.3833 -0.2161
  475MOL0     C62631   9.644   9.335   6.545 -0.4522 -0.3978 -0.6426
  475MOL0     C62632   9.753   9.385   6.570 -0.1107 -0.7822 -0.4559
  475MOL0     C62633   8.964   9.078   6.348 -0.1421 -0.4407  0.2110
  475MOL0     C62634   8.835   9.033   6.389 -0.2859 -0.9694  0.3840
  475MOL0     H62635   8.507   8.729   6.248 -1.1350 -1.7361  0.1719
  475MOL0     H62636   8.299   8.617   6.240 -2.3936 -3.6857  2.5893
  475MOL0     H62637   8.077   8.491   6.477  1.7541 -0.6785 -0.8949
  475MOL0     H62638   8.140   8.484   6.311  2.4472  3.9237  0.8146
  475MOL0     H62639   7.852   8.539   6.407 -2.6172 -1.4493 -0.7330
  475MOL0     H62640   7.903   8.387   6.327 -4.8898  0.6730  1.7935
  475MOL0     H62641   7.973   8.489   6.125  0.0012  0.8083 -0.7569
  475MOL0     H62642   7.922   8.649   6.177  0.4888  0.2459 -0.5583
  475MOL0     H62643   7.732   8.414   6.160  0.0679  0.1907 -0.5569
  475MOL0     H62644   7.694   8.590   6.177  0.6856 -0.1660  2.5475
  475MOL0     H62645   7.856   8.514   5.930 -1.1649 -0.1567 -0.8772
  475MOL0     H62646   7.744   8.642   5.963 -0.3850 -0.2469 -0.6795
  475MOL0     H62647   7.661   8.509   5.797  1.3570  1.2957  0.5298
  475MOL0     H62648   7.561   8.500   5.944 -0.1925  0.1207 -0.1565
  475MOL0     H62649   7.746   8.305   5.816  0.3428  2.2576  0.0980
  475MOL0     H62650   7.684   8.278   5.984  0.1720 -1.0992 -0.5617
  475MOL0     H62651   7.509   8.272   5.733 -1.0517  0.1702  0.9825
  475MOL0     H62652   7.453   8.235   5.893 -1.1571  0.9722 -2.2497
  475MOL0     H62653   7.668   8.082   5.620  0.9821 -1.0879 -0.3374
  475MOL0     H62654   7.524   7.787   5.553 -0.3019  0.3476 -0.3135
  475MOL0     H62655   7.593   7.712   5.685 -1.3061 -1.0342 -2.2344
  475MOL0     H62656   7.804   7.860   5.625 -1.4847 -2.1578  2.5070
  475MOL0     H62657   7.727   7.912   5.481  1.0756 -0.3379  0.6928
  475MOL0     H62658   7.794   7.615   5.545  2.2322  1.0218  0.6116
  475MOL0     H62659   7.713   7.663   5.409 -0.3439 -1.6789  1.0799
  475MOL0     H62660   7.903   7.816   5.354 -0.3519 -0.1056 -1.4445
  475MOL0     H62661   7.927   7.638   5.341 -1.3115  0.0926 -0.6165
  475MOL0     H62662   8.101   7.787   5.249  2.8452  2.4320 -2.9771
  475MOL0     H62663   8.342   7.816   5.176  0.8431 -1.0143 -0.0386
  475MOL0     H62664   8.852   7.862   5.242  4.9563 -2.3238  1.1297
  475MOL0     H62665   9.027   7.802   5.118 -0.6450  0.1554  2.3159
  475MOL0     H62666   9.180   7.613   5.013 -2.0803  0.9965  1.7035
  475MOL0     H62667   9.166   7.779   4.965  2.4422  0.1429 -0.1590
  475MOL0     H62668   9.246   7.744   4.753  2.9936 -0.8769 -0.8517
  475MOL0     H62669   9.220   7.567   4.764 -0.3433 -1.7279  1.6776
  475MOL0     H62670   9.388   7.555   4.930 -0.5161  1.9323  1.3579
  475MOL0     H62671   9.419   7.731   4.921 -2.5697 -0.0986  1.1664
  475MOL0     H62672   9.459   7.510   4.704 -2.3405  0.6044  0.2941
  475MOL0     H62673   9.452   7.682   4.662  0.2305  1.0061  0.9312
  475MOL0     H62674   9.656   7.537   4.825 -1.2230 -0.0576  1.5450
  475MOL0     H62675   9.644   7.722   4.805 -1.1474  1.4240 -2.6383
  475MOL0     H62676   9.710   7.732   4.595 -1.2827 -0.0068 -0.0369
  475MOL0     H62677   9.636   7.573   4.556 -1.4663  0.5852 -0.7861
  475MOL0     H62678   9.880   7.595   4.731 -0.9241 -0.4310  1.2013
  475MOL0     H62679   9.835   7.462   4.619 -1.1004  0.1159 -3.2849
  475MOL0     H62680  10.038   7.571   4.554  1.2212 -0.2228 -1.1963
  475MOL0     H62681   9.955   7.735   4.549 -1.4260  0.0790  2.3553
  475MOL0     H62682   8.771   7.579   4.851  1.4851 -0.7003  0.3057
  475MOL0     H62683   8.572   7.655   4.984 -1.4831  2.5512  2.6316
  475MOL0     H62684   8.464   7.681   5.562 -0.3277 -2.2139 -1.3261
  475MOL0     H62685   8.232   7.677   5.645 -2.1414  0.1303 -0.8205
  475MOL0     H62686   8.150   8.864   6.557  1.4164  1.6869 -0.3565
  475MOL0     H62687   8.372   8.961   6.575 -3.7152 -1.3041  2.2811
  475MOL0     H62688   8.921   8.715   6.506 -1.0282 -0.1164  1.3213
  475MOL0     H62689   9.145   8.798   6.419 -0.1407 -0.1650  0.7662
  475MOL0     H62690   9.229   9.173   6.473  0.2327 -0.1605  0.2724
  475MOL0     H62691   9.200   9.234   6.316 -0.9562 -0.3588  1.8416
  475MOL0     H62692   9.439   9.057   6.389  0.5121  1.0927  1.8736
  475MOL0     H62693   9.408   9.126   6.221 -1.4113  2.5773  0.2505
  475MOL0     H62694   9.460   9.360   6.327  3.5292  1.9094  0.6967
  475MOL0     H62695   9.590   9.235   6.336 -0.5319 -2.9898  2.4828
  475MOL0     H62696   9.430   9.365   6.553 -0.2406  0.5420  0.0480
  475MOL0     H62697   9.497   9.205   6.584  3.5139  0.4885  0.5739
  475MOL0     H62698   9.843   9.436   6.600 -2.3913  2.0165  2.1809
  475MOL0     H62699   8.979   9.180   6.317 -2.8580 -0.5436 -1.8437
  475MOL0     H62700   8.745   9.094   6.379 -0.5015 -1.4129 -0.5026
  476MOL0     O62701   0.439   1.667   4.747 -0.2620 -0.3066  0.2005
  476MOL0     C62702   0.519   1.700   4.828 -0.6151 -0.6135  0.4613
  476MOL0     O62703   0.485   1.766   4.939  0.2383 -0.0192 -0.0578
  476MOL0     C62704   0.371   1.842   4.941  0.0196  0.3993  0.1831
  476MOL0     C62705   0.269   1.817   5.039  0.4324  0.6411  0.4866
  476MOL0     C62706   0.150   1.892   5.038 -0.7908  0.1078  0.6144
  476MOL0     C62707   0.115   1.978   4.927 -0.6753  0.6536  0.1023
  476MOL0     O62708  -0.014   2.042   4.937 -0.7308  0.0816 -0.5329
  476MOL0     C62709  -0.085   2.017   4.814 -0.3198 -0.3233  0.3009
  476MOL0     C62710  -0.134   1.877   4.793 -0.2248  0.6983  0.3541
  476MOL0     C62711  -0.200   1.798   4.902 -0.2655 -0.2956  0.2081
  476MOL0     C62712  -0.334   1.857   4.948 -0.3054  0.3933 -0.5088
  476MOL0     C62713  -0.410   1.771   5.049 -0.0076  0.4093  0.7051
  476MOL0     C62714  -0.559   1.802   5.042  0.0436 -0.2528 -0.2784
  476MOL0     C62715  -0.597   1.950   5.066 -0.7123  0.6080  0.8544
  476MOL0     C62716  -0.750   1.977   5.068  0.3568 -0.1372  1.0634
  476MOL0     N62717  -0.784   2.122   5.072  0.2140 -0.3086 -0.0775
  476MOL0     C62718  -0.761   2.218   5.173  0.9031  0.0800 -0.2930
  476MOL0     C62719  -0.786   2.340   5.109  0.7068 -0.2131 -0.4169
  476MOL0     C62720  -0.781   2.479   5.161  0.1536 -0.0956  0.1031
  476MOL0     C62721  -0.917   2.540   5.125  0.6256  0.2750  0.6992
  476MOL0     C62722  -0.928   2.677   5.182 -0.3628 -0.5850 -0.7171
  476MOL0     C62723  -1.052   2.741   5.132  0.1935  0.3278 -0.2213
  476MOL0     O62724  -1.165   2.697   5.205 -0.5687 -0.3862 -1.1228
  476MOL0     C62725  -1.286   2.733   5.149 -0.2375  0.4820  0.4451
  476MOL0     C62726  -1.398   2.675   5.202 -0.2283 -0.0174  0.0995
  476MOL0     C62727  -1.523   2.705   5.140 -0.2966 -0.3559  0.4980
  476MOL0     C62728  -1.539   2.806   5.045  0.7532  0.2110  0.2237
  476MOL0     C62729  -1.680   2.841   5.018  0.6893 -0.4999 -0.1819
  476MOL0     O62730  -1.778   2.750   5.039  0.2100  0.0147 -0.5980
  476MOL0     C62731  -1.904   2.797   5.008 -0.4904 -1.5721  0.7036
  476MOL0     C62732  -1.964   2.881   5.102 -1.1148 -1.3564 -0.0410
  476MOL0     C62733  -2.101   2.912   5.075  0.9285  0.0265 -0.1209
  476MOL0     C62734  -2.171   2.866   4.966 -0.0854 -0.0379  0.6708
  476MOL0     O62735  -2.307   2.895   4.932 -0.7506 -0.3027 -0.7111
  476MOL0     C62736  -2.410   2.912   5.031  0.0907  0.7421  0.7578
  476MOL0     C62737  -2.555   2.915   4.968  0.0238 -0.5226 -0.2655
  476MOL0     C62738  -2.583   2.768   4.928 -0.2052 -0.1003  0.3214
  476MOL0     C62739  -2.725   2.724   4.904  0.1536  0.7986  0.0340
  476MOL0     C62740  -2.804   2.732   5.029  1.2299 -0.6464  0.5150
  476MOL0     C62741  -2.946   2.676   5.027  0.6142 -0.4606 -0.3481
  476MOL0     C62742  -3.011   2.627   5.161 -0.1790 -0.0493 -0.2585
  476MOL0     C62743  -2.955   2.492   5.227  1.3271  0.0453 -0.2990
  476MOL0    Cl62744  -2.952   2.360   5.111  0.2209 -0.0053  0.7655
  476MOL0     C62745  -2.109   2.783   4.872 -0.2223 -1.2620 -0.2622
  476MOL0     C62746  -1.979   2.748   4.898 -0.3036 -0.3094 -0.6191
  476MOL0     O62747  -1.697   2.961   4.977  0.4841  0.5129  0.3017
  476MOL0     C62748  -1.425   2.875   5.010  0.5593 -0.6894 -0.4954
  476MOL0     C62749  -1.302   2.839   5.054  0.4881  0.6118 -0.0136
  476MOL0     N62750  -0.822   2.305   4.982  0.2820  0.1534  0.1633
  476MOL0     N62751  -0.825   2.183   4.964 -0.3033 -0.0279  0.2479
  476MOL0     C62752   0.216   2.005   4.836  0.0668  0.4057 -0.4035
  476MOL0     C62753   0.341   1.940   4.847 -0.0314  1.0185  0.0696
  476MOL0     C62754   0.649   1.633   4.824 -0.4806 -0.6433  0.5069
  476MOL0     C62755   0.716   1.569   4.713  0.0890 -0.1972 -0.1817
  476MOL0     C62756   0.842   1.520   4.718 -0.1353  0.2541  0.2912
  476MOL0     C62757   0.915   1.524   4.834  0.5649 -0.0840  0.4079
  476MOL0     O62758   1.042   1.477   4.828  0.2157  0.3639  0.4418
  476MOL0     C62759   1.113   1.444   4.947  0.5772 -0.4944  0.0441
  476MOL0     C62760   1.242   1.360   4.926  0.0563 -0.2510 -0.1824
  476MOL0     C62761   1.224   1.206   4.908  0.5214 -0.5521 -1.0259
  476MOL0     C62762   1.340   1.148   4.832  0.5557  0.5308  0.8429
  476MOL0     C62763   1.346   0.995   4.835 -0.4321 -0.3355 -0.9201
  476MOL0     C62764   1.359   0.880   4.848 -0.4589  0.0853 -1.1448
  476MOL0     C62765   0.858   1.583   4.951  0.4043  0.1725 -0.6356
  476MOL0     C62766   0.730   1.639   4.942  0.1991  0.2812 -0.2999
  476MOL0     H62767   0.276   1.736   5.110 -0.2930 -2.8374 -3.0498
  476MOL0     H62768   0.076   1.885   5.118  0.1270 -0.9157  1.4081
  476MOL0     H62769  -0.024   2.060   4.735 -0.6356  1.5393  1.0181
  476MOL0     H62770  -0.174   2.081   4.807 -0.7615 -0.4886  3.1331
  476MOL0     H62771  -0.053   1.809   4.765 -0.0172  1.4654 -0.9554
  476MOL0     H62772  -0.200   1.869   4.707 -3.4811  0.0430  2.6985
  476MOL0     H62773  -0.133   1.796   4.988  0.1745 -0.6203 -0.1428
  476MOL0     H62774  -0.215   1.701   4.855  1.6278  1.1518 -3.8079
  476MOL0     H62775  -0.323   1.958   4.990 -2.1776  1.6540 -2.7884
  476MOL0     H62776  -0.395   1.874   4.859  0.4214  2.9779 -0.5920
  476MOL0     H62777  -0.372   1.785   5.151  2.4400 -4.2326  0.7139
  476MOL0     H62778  -0.389   1.666   5.028  4.2781  1.0700  0.6897
  476MOL0     H62779  -0.615   1.743   5.116 -1.2191 -3.0935 -3.2308
  476MOL0     H62780  -0.593   1.775   4.942 -0.7607  0.6722 -0.2719
  476MOL0     H62781  -0.553   1.984   5.160  0.8154  1.6257 -0.1925
  476MOL0     H62782  -0.555   2.012   4.986  1.6143  0.0245  1.5546
  476MOL0     H62783  -0.794   1.933   5.158 -1.5738  2.1773  1.3376
  476MOL0     H62784  -0.804   1.925   4.988 -2.8318  1.0236  2.2958
  476MOL0     H62785  -0.721   2.197   5.271  0.0313  1.6706  0.4524
  476MOL0     H62786  -0.701   2.529   5.106 -0.0119 -0.8689 -0.8738
  476MOL0     H62787  -0.764   2.489   5.269 -1.1553  0.4129  0.2801
  476MOL0     H62788  -0.997   2.477   5.167  0.5478 -0.5956 -0.6619
  476MOL0     H62789  -0.930   2.535   5.016  0.2390 -1.0538  0.7859
  476MOL0     H62790  -0.935   2.674   5.291 -4.2673 -2.4589 -0.8412
  476MOL0     H62791  -0.841   2.735   5.151  0.5592 -1.7975 -0.4788
  476MOL0     H62792  -1.064   2.728   5.024  0.9399 -0.0111 -0.2652
  476MOL0     H62793  -1.043   2.849   5.151  2.0925  0.4221 -1.4901
  476MOL0     H62794  -1.383   2.602   5.281  0.6228  0.7825  0.6891
  476MOL0     H62795  -1.607   2.649   5.180 -1.3799 -0.5830 -1.9380
  476MOL0     H62796  -1.923   2.914   5.197 -1.0559  1.5428 -0.9809
  476MOL0     H62797  -2.151   2.968   5.153 -1.2387  3.6215 -3.6654
  476MOL0     H62798  -2.384   3.007   5.079 -1.7508  0.1831  3.0305
  476MOL0     H62799  -2.402   2.829   5.101 -1.1719 -1.1339 -1.2047
  476MOL0     H62800  -2.563   2.973   4.875 -0.6450  0.2536  0.2624
  476MOL0     H62801  -2.625   2.962   5.038 -0.5135 -0.7505 -0.6440
  476MOL0     H62802  -2.538   2.694   4.995 -0.5331 -0.0369  0.6120
  476MOL0     H62803  -2.522   2.752   4.838  1.0235 -1.3164  1.3323
  476MOL0     H62804  -2.753   2.791   4.823  2.7408  0.9150 -0.8664
  476MOL0     H62805  -2.739   2.625   4.858 -1.2246  0.1281  1.7783
  476MOL0     H62806  -2.810   2.836   5.062 -1.7599 -0.4940 -0.2139
  476MOL0     H62807  -2.749   2.673   5.103  0.7657 -0.3348  1.1224
  476MOL0     H62808  -2.944   2.587   4.964 -0.3979 -2.0113  1.6872
  476MOL0     H62809  -3.017   2.751   4.991 -0.8452 -0.2694  2.6129
  476MOL0     H62810  -3.003   2.705   5.237  3.3207 -2.5860  2.2727
  476MOL0     H62811  -3.119   2.612   5.146 -0.2364 -0.7132  0.7658
  476MOL0     H62812  -3.021   2.458   5.307  1.8250 -0.9069 -0.2795
  476MOL0     H62813  -2.857   2.499   5.274  1.5482 -1.1871 -0.5628
  476MOL0     H62814  -2.161   2.747   4.783 -0.6142 -1.0745 -0.1097
  476MOL0     H62815  -1.937   2.679   4.824 -1.3982 -0.1210 -1.4373
  476MOL0     H62816  -1.436   2.956   4.938 -0.0407 -0.3477 -0.0283
  476MOL0     H62817  -1.215   2.900   5.030 -1.5308  2.7571 -2.6226
  476MOL0     H62818   0.195   2.076   4.757 -1.1418 -0.1246 -0.5772
  476MOL0     H62819   0.422   1.963   4.778 -2.0369  1.2083 -2.3565
  476MOL0     H62820   0.660   1.562   4.620 -0.9547  0.4850  0.3811
  476MOL0     H62821   0.879   1.482   4.623  3.4778 -0.0978  1.6952
  476MOL0     H62822   1.058   1.388   5.023 -0.3650 -2.2153 -1.8142
  476MOL0     H62823   1.145   1.540   4.988  2.2471 -0.7394 -0.5973
  476MOL0     H62824   1.302   1.392   4.841 -0.9382  0.1053 -0.7636
  476MOL0     H62825   1.304   1.373   5.015  0.0630  1.2728 -0.3883
  476MOL0     H62826   1.129   1.185   4.857 -0.5521 -0.3464  0.7807
  476MOL0     H62827   1.225   1.161   5.008  0.1661 -0.2805 -0.8988
  476MOL0     H62828   1.340   1.184   4.729 -0.3064 -1.6718  0.0075
  476MOL0     H62829   1.437   1.186   4.864  0.5631  1.3043 -0.0673
  476MOL0     H62830   1.385   0.777   4.865 -0.3485  0.4812  1.5242
  476MOL0     H62831   0.912   1.594   5.044  2.1931  1.1425 -1.7257
  476MOL0     H62832   0.689   1.688   5.030  0.1810  0.6090 -0.4926
  477MOL0     O62833   4.151   8.767   5.320  0.2343 -0.5174  0.8151
  477MOL0     C62834   4.181   8.873   5.380 -0.1446 -1.3666 -0.2338
  477MOL0     O62835   4.085   8.957   5.439  0.1307  0.7757  0.4160
  477MOL0     C62836   3.953   8.917   5.438 -1.0517  0.4159 -0.1516
  477MOL0     C62837   3.860   8.982   5.349 -0.6350  0.6746  0.0406
  477MOL0     C62838   3.730   8.938   5.348  0.5054  0.8161 -0.2438
  477MOL0     C62839   3.689   8.836   5.436 -0.4520 -0.1834 -0.6532
  477MOL0     O62840   3.566   8.778   5.441 -0.2207  0.5869 -0.3196
  477MOL0     C62841   3.464   8.842   5.372  0.3124  0.0005 -0.1643
  477MOL0     C62842   3.329   8.797   5.421  0.0388 -0.6239 -0.9321
  477MOL0     C62843   3.218   8.904   5.397 -0.2286  0.2065  0.0270
  477MOL0     C62844   3.077   8.838   5.420  0.9120 -1.3879  0.8871
  477MOL0     C62845   2.976   8.950   5.379  0.0572  1.1075  0.0872
  477MOL0     C62846   2.826   8.907   5.393  0.0968  0.8909 -0.6876
  477MOL0     C62847   2.786   8.829   5.261  0.2502  0.3429  0.0389
  477MOL0     C62848   2.637   8.790   5.253 -0.0030 -0.4385  0.4265
  477MOL0     N62849   2.557   8.911   5.238  0.1550 -0.2908 -0.5558
  477MOL0     C62850   2.461   8.953   5.322 -0.1956  0.1478  0.2979
  477MOL0     C62851   2.393   9.045   5.255  0.1900 -0.3198 -0.0900
  477MOL0     C62852   2.273   9.118   5.310  0.4432 -0.3314  0.3438
  477MOL0     C62853   2.130   9.080   5.251 -0.0616 -0.3361  0.1144
  477MOL0     C62854   2.090   8.937   5.259  0.2416 -0.3117  0.0589
  477MOL0     C62855   1.971   8.887   5.176 -0.6910 -0.4817 -0.3094
  477MOL0     O62856   1.961   8.748   5.207 -0.2051  0.7288  0.6404
  477MOL0     C62857   1.852   8.676   5.173 -0.0014  0.1597 -0.7861
  477MOL0     C62858   1.732   8.734   5.131 -0.8440  0.8614  0.0877
  477MOL0     C62859   1.631   8.657   5.079  0.2256 -0.0220  0.7835
  477MOL0     C62860   1.647   8.519   5.067  1.0295  1.0328 -0.0579
  477MOL0     C62861   1.555   8.438   4.990  0.3485  0.1693  0.8324
  477MOL0     O62862   1.489   8.497   4.888  0.6290 -0.0572  0.3016
  477MOL0     C62863   1.367   8.439   4.842 -0.0295 -0.2909 -0.2400
  477MOL0     C62864   1.358   8.338   4.742  0.4138 -0.2572 -0.3083
  477MOL0     C62865   1.245   8.273   4.699  0.5109 -0.8259 -0.0689
  477MOL0     C62866   1.121   8.324   4.761  0.3232  0.7095 -0.3920
  477MOL0     O62867   0.993   8.288   4.739 -0.7900  0.2356 -0.2522
  477MOL0     C62868   0.974   8.230   4.607  0.2693  0.2448 -0.1230
  477MOL0     C62869   0.826   8.242   4.596  0.0763  0.9178  0.9247
  477MOL0     C62870   0.785   8.381   4.550 -0.0200  0.4642 -0.5570
  477MOL0     C62871   0.639   8.427   4.567  0.5523  0.0491 -0.9642
  477MOL0     C62872   0.541   8.322   4.517  0.2979  0.0252 -0.4618
  477MOL0     C62873   0.394   8.363   4.546 -0.4204 -0.0073 -0.4036
  477MOL0     C62874   0.291   8.242   4.527  0.3768 -0.3050 -0.4704
  477MOL0     C62875   0.149   8.274   4.583 -0.5893 -0.0340 -0.3356
  477MOL0    Cl62876   0.092   8.417   4.480  0.6397  0.2616  0.3112
  477MOL0     C62877   1.127   8.417   4.865  0.5646  0.2649  0.2301
  477MOL0     C62878   1.252   8.465   4.910  0.2682 -0.1960  0.0457
  477MOL0     O62879   1.545   8.320   5.016  0.2135  0.6039  0.1054
  477MOL0     C62880   1.759   8.457   5.117  0.0062 -0.2218  1.6856
  477MOL0     C62881   1.862   8.537   5.168  0.5791  0.7024 -0.5429
  477MOL0     N62882   2.456   9.071   5.131 -0.7053 -0.0771  0.4193
  477MOL0     N62883   2.552   8.983   5.125 -0.4073 -0.1363  0.3478
  477MOL0     C62884   3.777   8.793   5.534  0.0971 -0.7996 -0.6259
  477MOL0     C62885   3.914   8.826   5.535 -0.0909  0.2976  0.7083
  477MOL0     C62886   4.319   8.912   5.386  0.2278  0.7589  0.8797
  477MOL0     C62887   4.373   9.030   5.432  0.7568 -0.4143  0.8369
  477MOL0     C62888   4.514   9.038   5.432  0.0264  0.6480  0.0978
  477MOL0     C62889   4.602   8.929   5.400 -0.1522 -0.7124 -0.5211
  477MOL0     O62890   4.738   8.948   5.420 -0.3372 -0.3464  0.2462
  477MOL0     C62891   4.818   8.916   5.301 -0.4556  0.6843 -0.3566
  477MOL0     C62892   4.937   9.009   5.289 -0.6111  0.4121 -0.8773
  477MOL0     C62893   5.036   8.949   5.182  0.0563  0.0589 -0.5158
  477MOL0     C62894   4.980   8.975   5.044 -0.3584  0.0323  0.3525
  477MOL0     C62895   5.019   9.107   4.991 -1.3357  0.3482 -0.9655
  477MOL0     C62896   5.066   9.219   4.969 -0.0786 -0.6442  0.1065
  477MOL0     C62897   4.548   8.813   5.352  0.5127 -0.8717 -1.3228
  477MOL0     C62898   4.408   8.810   5.343 -0.0997  0.4436 -0.2621
  477MOL0     H62899   3.894   9.057   5.279  0.2014 -0.1164 -0.4355
  477MOL0     H62900   3.672   8.975   5.264 -1.4254 -1.0731  0.1570
  477MOL0     H62901   3.484   8.815   5.268  0.5259  0.5499 -0.2670
  477MOL0     H62902   3.459   8.951   5.375 -1.6025 -0.0276  3.5889
  477MOL0     H62903   3.328   8.788   5.530  0.3268  0.1834 -0.8595
  477MOL0     H62904   3.316   8.700   5.372  1.0906 -0.5297 -1.4174
  477MOL0     H62905   3.228   8.960   5.303  1.7226 -0.2584 -0.0883
  477MOL0     H62906   3.233   8.979   5.474  3.1831 -1.6801  1.4496
  477MOL0     H62907   3.070   8.747   5.359 -1.6971  0.4732 -1.8793
  477MOL0     H62908   3.065   8.818   5.527  1.4289  3.8339  2.1793
  477MOL0     H62909   2.985   8.983   5.275 -3.2765 -0.9958 -1.0287
  477MOL0     H62910   2.996   9.032   5.449  0.4556 -0.1645  1.5156
  477MOL0     H62911   2.762   8.995   5.404  0.9611  1.5722 -1.0123
  477MOL0     H62912   2.809   8.846   5.482  3.3528  0.0532 -0.5173
  477MOL0     H62913   2.807   8.891   5.174  0.1178 -0.1531 -0.3538
  477MOL0     H62914   2.836   8.734   5.241 -0.7634 -0.2369  0.1872
  477MOL0     H62915   2.598   8.735   5.338  1.9207  1.4685  2.7151
  477MOL0     H62916   2.618   8.740   5.158  0.8502  0.4425 -0.2352
  477MOL0     H62917   2.432   8.910   5.418 -0.7424 -1.5804 -0.6078
  477MOL0     H62918   2.283   9.227   5.316 -0.5562 -0.1631 -0.7935
  477MOL0     H62919   2.271   9.083   5.414  3.7457  1.1590  1.0413
  477MOL0     H62920   2.141   9.092   5.142  1.4957 -0.7178  0.2056
  477MOL0     H62921   2.051   9.150   5.279  0.6575  0.9747 -0.9674
  477MOL0     H62922   2.179   8.877   5.240  0.7187  0.9506 -1.9974
  477MOL0     H62923   2.067   8.922   5.365  0.8384  1.7358  0.5322
  477MOL0     H62924   2.014   8.908   5.078  0.1466  0.6288  0.2753
  477MOL0     H62925   1.880   8.945   5.195 -0.3481  0.2971 -0.9817
  477MOL0     H62926   1.722   8.842   5.127  0.0967  0.9351 -0.7388
  477MOL0     H62927   1.548   8.708   5.031  0.4997 -0.6295 -0.3948
  477MOL0     H62928   1.452   8.302   4.700  0.6612  0.1894 -0.1399
  477MOL0     H62929   1.259   8.191   4.628  3.3323  0.5984 -1.3100
  477MOL0     H62930   1.021   8.131   4.606  3.3676  1.6223 -0.9980
  477MOL0     H62931   1.013   8.290   4.525 -0.6566  0.9835 -0.0364
  477MOL0     H62932   0.781   8.206   4.689 -1.0954 -0.8509 -0.2645
  477MOL0     H62933   0.802   8.169   4.518  1.1044  0.2048  1.2456
  477MOL0     H62934   0.811   8.391   4.444  0.1601  2.3631 -0.3644
  477MOL0     H62935   0.841   8.454   4.610 -1.1607  0.9781 -0.1054
  477MOL0     H62936   0.624   8.425   4.675  1.5561 -0.1042 -0.8245
  477MOL0     H62937   0.612   8.525   4.525 -2.5274 -1.1963 -2.2349
  477MOL0     H62938   0.561   8.227   4.566 -5.7243 -1.1887  0.4257
  477MOL0     H62939   0.552   8.309   4.409 -0.2092  2.4218 -0.8681
  477MOL0     H62940   0.370   8.448   4.482  3.8940  3.0687  1.5922
  477MOL0     H62941   0.384   8.405   4.647  2.6356 -2.5394  1.1382
  477MOL0     H62942   0.285   8.227   4.419 -1.1508  2.5466 -0.8764
  477MOL0     H62943   0.331   8.154   4.577 -0.1334  0.6985  1.8158
  477MOL0     H62944   0.162   8.284   4.691  1.0203  0.2979 -0.5357
  477MOL0     H62945   0.093   8.183   4.557  0.2814 -0.8603  0.6055
  477MOL0     H62946   1.035   8.443   4.917 -0.5465 -2.0698 -0.4429
  477MOL0     H62947   1.249   8.521   5.003  0.9728  0.4588 -0.3146
  477MOL0     H62948   1.774   8.350   5.105  1.2104 -0.0368  1.4959
  477MOL0     H62949   1.955   8.501   5.213 -1.4998 -1.5243  2.3973
  477MOL0     H62950   3.738   8.717   5.601  0.8135  0.8019  1.7297
  477MOL0     H62951   3.981   8.790   5.613 -0.8239 -0.0429  1.1996
  477MOL0     H62952   4.310   9.112   5.465  0.6764 -0.8394  1.7855
  477MOL0     H62953   4.571   9.129   5.447  0.4472  0.3158  0.5734
  477MOL0     H62954   4.757   8.931   5.212 -1.0736  2.1206  0.2738
  477MOL0     H62955   4.843   8.809   5.302 -1.2304  0.3835  3.3629
  477MOL0     H62956   4.914   9.113   5.263 -0.5125  0.8223  0.6110
  477MOL0     H62957   4.995   9.020   5.380  1.6980  2.0530 -2.4300
  477MOL0     H62958   5.055   8.843   5.201 -2.4992 -0.2618  0.5810
  477MOL0     H62959   5.130   8.999   5.207  0.2133 -0.5786  0.1911
  477MOL0     H62960   5.031   8.899   4.984  3.4005 -0.6127  3.9630
  477MOL0     H62961   4.871   8.976   5.030 -0.4882 -0.8797  1.1714
  477MOL0     H62962   5.100   9.317   4.942 -0.8326  0.5441  3.0629
  477MOL0     H62963   4.620   8.734   5.332  2.4626  1.2508 -3.4311
  477MOL0     H62964   4.379   8.714   5.304 -1.1946  0.3190  0.7942
  478MOL0     O62965   9.675   4.538  10.345 -1.0934  0.4867  0.0881
  478MOL0     C62966   9.763   4.600  10.288  0.0641 -0.0477  0.9284
  478MOL0     O62967   9.737   4.715  10.216  0.9349 -0.5416 -0.2609
  478MOL0     C62968   9.612   4.765  10.220 -0.2509  0.0350 -0.1878
  478MOL0     C62969   9.525   4.725  10.117  0.5325 -0.2555  0.5780
  478MOL0     C62970   9.389   4.761  10.117 -0.4297  0.0546 -0.0378
  478MOL0     C62971   9.343   4.846  10.214 -0.1268  0.1106 -0.0067
  478MOL0     O62972   9.211   4.901  10.216  0.2204 -0.2253 -0.9017
  478MOL0     C62973   9.117   4.862  10.119 -0.2531  0.1240  0.6316
  478MOL0     C62974   8.984   4.928  10.139 -0.0126 -1.0368  0.3653
  478MOL0     C62975   8.870   4.842  10.079 -0.5691 -0.4469 -0.4991
  478MOL0     C62976   8.725   4.871  10.132  0.5014 -0.8857  0.6686
  478MOL0     C62977   8.636   4.777  10.055 -0.1688  0.1617 -0.3351
  478MOL0     C62978   8.507   4.767  10.135 -0.1235  0.2901 -0.8906
  478MOL0     C62979   8.419   4.902  10.132  0.4310 -0.0519  0.5102
  478MOL0     C62980   8.334   4.924  10.010  0.1236 -0.3752  0.1757
  478MOL0     N62981   8.232   5.024  10.036 -0.0171  0.4606 -0.2331
  478MOL0     C62982   8.238   5.130  10.131  0.3031  0.6435  0.0064
  478MOL0     C62983   8.123   5.201  10.106 -0.2963 -0.3837  0.0533
  478MOL0     C62984   8.077   5.324  10.188  0.8276  1.0714 -0.3813
  478MOL0     C62985   7.987   5.287  10.305  0.9809  0.0952 -0.4842
  478MOL0     C62986   7.935   5.414  10.378 -0.4403 -0.0446  1.4116
  478MOL0     C62987   7.839   5.385  10.491 -0.0798 -0.4997 -0.2841
  478MOL0     O62988   7.780   5.503  10.544 -0.6405 -0.0660 -0.3323
  478MOL0     C62989   7.662   5.550  10.508 -0.3134 -0.5130  0.0441
  478MOL0     C62990   7.595   5.510  10.392  0.6510  0.0308 -0.2131
  478MOL0     C62991   7.463   5.544  10.362  1.1315 -0.2335  0.0896
  478MOL0     C62992   7.390   5.618  10.455 -0.1776  0.3536 -1.0495
  478MOL0     C62993   7.241   5.643  10.445 -0.0738  1.2106  0.3646
  478MOL0     O62994   7.177   5.556  10.359 -0.2498 -0.1914 -0.3441
  478MOL0     C62995   7.046   5.575  10.346 -0.9493 -0.8355  0.0930
  478MOL0     C62996   7.001   5.671  10.264 -0.2777 -0.4138  0.0449
  478MOL0     C62997   6.872   5.714  10.275 -0.6857  0.2410  0.0893
  478MOL0     C62998   6.785   5.647  10.363  0.4394 -0.0318  0.5403
  478MOL0     O62999   6.659   5.700  10.381 -0.5459 -0.1604 -0.3511
  478MOL0     C63000   6.556   5.641  10.458  0.7970  0.1307 -0.4543
  478MOL0     C63001   6.431   5.737  10.458 -0.3069  0.6575 -0.6210
  478MOL0     C63002   6.339   5.719  10.579  0.3450  0.4693  1.5326
  478MOL0     C63003   6.224   5.821  10.567  0.5963  0.7340 -0.1520
  478MOL0     C63004   6.123   5.804  10.679  0.0605  0.4931  1.3001
  478MOL0     C63005   6.044   5.672  10.644 -0.0362  0.5884 -0.6774
  478MOL0     C63006   5.919   5.661  10.741 -0.6392  0.1941  0.3182
  478MOL0     C63007   5.801   5.759  10.700 -0.3182  0.5969  0.8771
  478MOL0    Cl63008   5.689   5.722  10.825  0.1387 -0.0746  0.0126
  478MOL0     C63009   6.827   5.535  10.437  0.8332  0.7990  0.4415
  478MOL0     C63010   6.962   5.503  10.430  0.0714  0.2466  0.1193
  478MOL0     O63011   7.188   5.729  10.518 -0.8121  0.3163 -0.2976
  478MOL0     C63012   7.457   5.674  10.568 -0.5049 -0.1335 -0.8960
  478MOL0     C63013   7.586   5.640  10.594 -0.4090 -0.4328  0.7559
  478MOL0     N63014   8.068   5.160   9.989 -0.1799  0.2906 -0.6348
  478MOL0     N63015   8.134   5.056   9.947  0.9537  0.1452 -0.2662
  478MOL0     C63016   9.430   4.888  10.317 -0.9370 -0.3135  0.4743
  478MOL0     C63017   9.566   4.848  10.322 -0.3341  0.3651 -0.6164
  478MOL0     C63018   9.902   4.536  10.279 -0.0531 -0.9378 -0.5353
  478MOL0     C63019   9.941   4.448  10.378  0.2092  0.4439 -0.1162
  478MOL0     C63020  10.068   4.385  10.365  0.4902  0.3814 -0.4605
  478MOL0     C63021  10.153   4.415  10.255 -0.5269 -0.6562  0.0365
  478MOL0     O63022  10.268   4.340  10.235 -0.5057  0.3477 -0.2967
  478MOL0     C63023  10.339   4.359  10.115 -0.0200 -0.0830 -0.4568
  478MOL0     C63024  10.450   4.467  10.122  0.6117 -0.2192 -0.3725
  478MOL0     C63025  10.521   4.493   9.985 -0.4566 -1.2114 -0.0641
  478MOL0     C63026  10.580   4.638   9.979  0.0535  0.0570 -0.2036
  478MOL0     C63027  10.475   4.722   9.927  0.1263  0.1915 -0.2004
  478MOL0     C63028  10.378   4.774   9.876  0.2855 -0.1399 -0.5300
  478MOL0     C63029  10.116   4.524  10.167  1.1804  0.0050  1.3214
  478MOL0     C63030   9.989   4.585  10.184  0.7314  0.3674 -0.6299
  478MOL0     H63031   9.560   4.652  10.046  0.3902  0.1149  0.1237
  478MOL0     H63032   9.341   4.722  10.028 -0.6831  2.0063 -0.8062
  478MOL0     H63033   9.109   4.753  10.119  0.1855  0.0346 -1.7393
  478MOL0     H63034   9.148   4.896  10.019 -2.1771  0.6321  0.1567
  478MOL0     H63035   8.983   5.028  10.095  1.3802 -1.4677 -0.7372
  478MOL0     H63036   8.959   4.945  10.244  3.8272 -0.6429  1.3725
  478MOL0     H63037   8.898   4.736  10.087  0.3729 -0.2002 -0.3744
  478MOL0     H63038   8.876   4.864   9.972 -2.4712 -1.0276 -0.7560
  478MOL0     H63039   8.726   4.852  10.240 -0.1755 -0.1204  0.8244
  478MOL0     H63040   8.696   4.976  10.121 -0.2763 -0.6555  3.9411
  478MOL0     H63041   8.675   4.675  10.045  1.1550  0.4287  1.5579
  478MOL0     H63042   8.617   4.814   9.954  1.7339 -0.0674 -0.8200
  478MOL0     H63043   8.536   4.755  10.240  0.8956  2.1040 -0.9338
  478MOL0     H63044   8.457   4.676  10.100 -0.1836  0.3674 -1.0052
  478MOL0     H63045   8.360   4.909  10.224  0.4294 -1.5062  0.6388
  478MOL0     H63046   8.487   4.988  10.140  1.7402 -0.9998 -0.0573
  478MOL0     H63047   8.295   4.832   9.967  3.5898 -1.3738 -1.2232
  478MOL0     H63048   8.392   4.965   9.927  0.5660  0.6273  0.9539
  478MOL0     H63049   8.306   5.131  10.216 -0.7670 -1.0811  0.9364
  478MOL0     H63050   8.027   5.395  10.121  1.9601  1.4840 -0.8097
  478MOL0     H63051   8.166   5.377  10.223  0.1607  0.1956  2.9703
  478MOL0     H63052   8.031   5.218  10.378 -0.9852  1.0107  1.7159
  478MOL0     H63053   7.907   5.227  10.261 -0.1845 -0.3208  1.9847
  478MOL0     H63054   8.018   5.473  10.418 -0.6825  1.3688 -0.0947
  478MOL0     H63055   7.897   5.485  10.304  2.7958 -0.6760 -1.1014
  478MOL0     H63056   7.893   5.333  10.570 -2.0234 -3.6299 -0.8387
  478MOL0     H63057   7.758   5.316  10.468 -1.3462  1.2058 -1.1646
  478MOL0     H63058   7.642   5.449  10.315  2.8686 -1.5611  2.2167
  478MOL0     H63059   7.418   5.513  10.268 -1.6578  3.2837  0.0277
  478MOL0     H63060   7.068   5.729  10.202 -2.5754  0.9112 -1.3124
  478MOL0     H63061   6.846   5.807  10.225  0.3120 -0.6824 -2.2718
  478MOL0     H63062   6.592   5.620  10.560  0.2568 -2.0979 -0.6727
  478MOL0     H63063   6.531   5.542  10.421  0.4238 -0.5449  1.4655
  478MOL0     H63064   6.374   5.733  10.364  2.2219 -2.8672 -2.2525
  478MOL0     H63065   6.476   5.836  10.455  2.4025 -0.3147  2.3530
  478MOL0     H63066   6.396   5.739  10.670 -0.5197  1.1470  1.9379
  478MOL0     H63067   6.310   5.614  10.593 -0.2457  0.6953  2.0066
  478MOL0     H63068   6.271   5.920  10.572  2.5591 -0.1490 -0.5202
  478MOL0     H63069   6.172   5.817  10.470  0.6257 -2.8236 -0.1308
  478MOL0     H63070   6.055   5.888  10.697 -0.8980  0.1622 -0.6149
  478MOL0     H63071   6.177   5.782  10.772 -1.1291  1.6511  2.2983
  478MOL0     H63072   6.101   5.582  10.670  1.8948  2.0874  0.4540
  478MOL0     H63073   6.000   5.682  10.544 -1.6224  1.6878  0.0912
  478MOL0     H63074   5.868   5.565  10.726 -1.4945  0.1634  2.9585
  478MOL0     H63075   5.951   5.674  10.844  0.5477 -1.3057  0.1698
  478MOL0     H63076   5.766   5.724  10.602 -0.6662 -1.4092  1.6717
  478MOL0     H63077   5.820   5.867  10.693 -1.5483  0.8492  1.1309
  478MOL0     H63078   6.760   5.478  10.501  1.2708 -1.6215 -1.1282
  478MOL0     H63079   6.997   5.425  10.498 -0.0252 -1.0364 -1.2587
  478MOL0     H63080   7.401   5.735  10.637 -0.9580 -0.2701 -1.1341
  478MOL0     H63081   7.622   5.691  10.682 -1.7258  0.6780  0.6931
  478MOL0     H63082   9.391   4.960  10.388 -1.9993  0.5011 -0.8844
  478MOL0     H63083   9.632   4.879  10.402 -1.3947  0.5065  0.2292
  478MOL0     H63084   9.876   4.423  10.461 -1.4949  3.9136 -0.2296
  478MOL0     H63085  10.096   4.318  10.446 -1.0426 -2.1858 -1.9183
  478MOL0     H63086  10.266   4.368  10.035  0.5910 -0.7515 -1.1036
  478MOL0     H63087  10.390   4.264  10.096  0.6363 -0.1672  1.4786
  478MOL0     H63088  10.396   4.561  10.138 -1.3367 -1.1588 -1.2207
  478MOL0     H63089  10.526   4.444  10.198 -0.4349 -0.4597  0.6272
  478MOL0     H63090  10.462   4.483   9.893 -0.0006  3.0091 -1.0142
  478MOL0     H63091  10.602   4.419   9.977 -0.0004 -0.8916  1.4024
  478MOL0     H63092  10.618   4.671  10.076 -0.4429  2.7706 -0.8579
  478MOL0     H63093  10.669   4.646   9.917  0.4117 -1.4341  0.0625
  478MOL0     H63094  10.288   4.823   9.847 -0.0364  0.9193  1.9934
  478MOL0     H63095  10.173   4.574  10.090 -0.3219  1.5981  1.1757
  478MOL0     H63096   9.958   4.666  10.118  3.7402  1.8318 -0.3956
  479MOL0     O63097   6.866   7.654   9.101 -0.6104 -0.1766 -0.1102
  479MOL0     C63098   6.869   7.534   9.101 -0.0405  0.2221  0.0760
  479MOL0     O63099   6.770   7.455   9.160 -0.3300 -0.5044  0.0373
  479MOL0     C63100   6.640   7.501   9.153  0.8098  1.3066 -0.3461
  479MOL0     C63101   6.582   7.598   9.239 -0.6546 -0.9429 -0.3064
  479MOL0     C63102   6.454   7.648   9.228  0.5581 -0.6254  0.2628
  479MOL0     C63103   6.383   7.615   9.111  0.9608 -0.4306  0.0541
  479MOL0     O63104   6.267   7.678   9.077  0.3235 -0.1548  0.5761
  479MOL0     C63105   6.162   7.701   9.178  1.6193 -0.2015  0.7257
  479MOL0     C63106   6.031   7.750   9.107  0.7575  1.1321 -0.0091
  479MOL0     C63107   5.903   7.739   9.185  0.1005  0.3693 -0.0045
  479MOL0     C63108   5.791   7.766   9.094 -0.1951 -1.3303 -0.9415
  479MOL0     C63109   5.664   7.727   9.156 -0.2264  0.3972  0.7808
  479MOL0     C63110   5.545   7.746   9.058 -0.2190 -0.5281  0.1498
  479MOL0     C63111   5.404   7.692   9.099  0.7602  0.5715  0.0992
  479MOL0     C63112   5.351   7.771   9.221  0.0883 -0.3947  0.6836
  479MOL0     N63113   5.218   7.724   9.268  0.0456 -0.6544 -0.7045
  479MOL0     C63114   5.202   7.621   9.358  0.2518 -0.0653  1.0585
  479MOL0     C63115   5.069   7.618   9.377 -0.7143  0.0803  0.1546
  479MOL0     C63116   4.990   7.517   9.450  0.0657  0.3319  0.4374
  479MOL0     C63117   4.940   7.404   9.360  0.5572  0.5978 -0.6704
  479MOL0     C63118   4.842   7.315   9.426  0.0401  1.1062  1.0446
  479MOL0     C63119   4.709   7.378   9.455 -0.6109  0.0799 -0.5984
  479MOL0     O63120   4.651   7.434   9.345  0.3278  0.9905 -0.2429
  479MOL0     C63121   4.516   7.437   9.349 -0.1375 -0.6205  0.1927
  479MOL0     C63122   4.433   7.420   9.464 -0.0497  0.1523  0.1498
  479MOL0     C63123   4.292   7.433   9.459 -0.5464 -0.2382 -0.6231
  479MOL0     C63124   4.221   7.449   9.341  0.1596 -0.2750  0.4745
  479MOL0     C63125   4.078   7.466   9.324 -0.2461 -0.1086  0.3700
  479MOL0     O63126   4.026   7.509   9.205  0.2272 -0.5943 -0.0074
  479MOL0     C63127   3.892   7.503   9.174 -0.3013 -0.5726 -0.7550
  479MOL0     C63128   3.835   7.384   9.124  0.0392 -0.7600 -0.4904
  479MOL0     C63129   3.695   7.381   9.098  0.2365  0.4186 -0.8564
  479MOL0     C63130   3.613   7.491   9.130 -1.1081  0.2431 -0.0156
  479MOL0     O63131   3.482   7.488   9.110  0.0015 -0.3331 -0.4240
  479MOL0     C63132   3.391   7.383   9.151  0.0721 -0.1181 -0.6323
  479MOL0     C63133   3.260   7.399   9.075  0.3268 -0.2926  0.0477
  479MOL0     C63134   3.181   7.276   9.105  0.6275 -0.0505 -0.0173
  479MOL0     C63135   3.060   7.282   9.022 -1.1388  0.4365  0.3205
  479MOL0     C63136   2.991   7.145   8.989 -0.3858  0.1399  0.4132
  479MOL0     C63137   3.064   7.062   8.883 -0.6344  0.0641  0.4242
  479MOL0     C63138   3.010   6.914   8.861  0.4761  0.4295 -0.0083
  479MOL0     C63139   3.083   6.816   8.761  1.0077  0.8342 -0.5867
  479MOL0    Cl63140   2.953   6.674   8.739 -0.5243  0.5320 -0.3516
  479MOL0     C63141   3.675   7.608   9.167 -0.1670  0.3042  0.4989
  479MOL0     C63142   3.812   7.611   9.206  0.1248 -1.2547 -0.1512
  479MOL0     O63143   4.010   7.443   9.421 -0.3232 -0.3475 -0.6009
  479MOL0     C63144   4.303   7.462   9.227  0.1554 -0.4767  0.3068
  479MOL0     C63145   4.444   7.462   9.230 -0.5368  0.1488  0.1028
  479MOL0     N63146   5.006   7.720   9.302 -0.4394 -0.1982  0.1551
  479MOL0     N63147   5.100   7.780   9.233 -0.4839 -0.1232 -0.3450
  479MOL0     C63148   6.437   7.518   9.023 -0.1114 -0.5334 -0.1616
  479MOL0     C63149   6.562   7.458   9.047 -0.0354  0.2177 -0.1156
  479MOL0     C63150   6.990   7.466   9.060 -0.5270  0.9832  0.0289
  479MOL0     C63151   7.105   7.530   9.029 -0.4168  0.3115 -0.0361
  479MOL0     C63152   7.220   7.454   9.008 -0.6832 -0.1415  0.7427
  479MOL0     C63153   7.226   7.309   9.011 -0.4100 -0.6493  0.1502
  479MOL0     O63154   7.338   7.237   8.992 -0.0699 -0.6552  0.4405
  479MOL0     C63155   7.461   7.307   8.976  0.1509 -1.2384 -0.0026
  479MOL0     C63156   7.573   7.204   8.970  0.4059  0.0785  0.1720
  479MOL0     C63157   7.569   7.116   8.838  0.3196 -0.1440  0.2880
  479MOL0     C63158   7.698   7.051   8.808  1.4685  0.8552  0.4685
  479MOL0     C63159   7.674   6.983   8.680  0.1672 -0.1863 -0.0940
  479MOL0     C63160   7.652   6.921   8.576  0.4698 -0.6346  0.4906
  479MOL0     C63161   7.110   7.247   9.033 -0.1201 -0.2277 -0.0742
  479MOL0     C63162   6.991   7.320   9.062  0.3856 -0.7435 -0.1877
  479MOL0     H63163   6.639   7.648   9.317  0.1565  0.9900 -2.0667
  479MOL0     H63164   6.409   7.716   9.299  1.2337 -0.9187  0.9880
  479MOL0     H63165   6.175   7.780   9.253  0.9913  0.7748 -0.1710
  479MOL0     H63166   6.147   7.603   9.226  0.5112 -0.8327 -0.8427
  479MOL0     H63167   6.021   7.699   9.011  1.9970  1.3815 -0.2940
  479MOL0     H63168   6.043   7.852   9.068 -0.8196  0.7356 -1.6985
  479MOL0     H63169   5.918   7.801   9.274 -1.0203  1.9703 -0.8844
  479MOL0     H63170   5.900   7.633   9.212 -0.0635  1.0185  2.9073
  479MOL0     H63171   5.790   7.874   9.081  1.5112 -0.9757  1.1355
  479MOL0     H63172   5.802   7.718   8.997  0.1944  0.4433 -1.8025
  479MOL0     H63173   5.642   7.771   9.254  2.5762 -0.4566  1.9067
  479MOL0     H63174   5.682   7.622   9.181  3.3976  0.5566 -0.5355
  479MOL0     H63175   5.571   7.702   8.961 -2.7146  1.6318 -1.6694
  479MOL0     H63176   5.525   7.853   9.052  0.7402 -0.3194  0.5427
  479MOL0     H63177   5.332   7.710   9.018  0.0647  4.4081  1.3866
  479MOL0     H63178   5.413   7.585   9.118  3.4477  0.4678 -1.2975
  479MOL0     H63179   5.344   7.877   9.196  0.5854 -0.0780  1.8251
  479MOL0     H63180   5.422   7.750   9.302  0.1317 -2.5620  0.1479
  479MOL0     H63181   5.274   7.551   9.399  1.4752  1.7848  2.2682
  479MOL0     H63182   4.909   7.573   9.498 -1.1018 -0.1466 -0.9195
  479MOL0     H63183   5.046   7.475   9.535 -2.6821 -1.6753  1.3985
  479MOL0     H63184   5.018   7.336   9.326 -2.4241 -3.8845  0.5699
  479MOL0     H63185   4.890   7.443   9.270 -0.9167 -1.0430 -0.6176
  479MOL0     H63186   4.828   7.231   9.358 -2.7310  0.9044  1.7616
  479MOL0     H63187   4.881   7.274   9.520 -0.6805  1.5624  1.5622
  479MOL0     H63188   4.702   7.445   9.540 -1.0548 -2.2350  1.3071
  479MOL0     H63189   4.649   7.294   9.491 -0.0865 -0.1099 -0.1457
  479MOL0     H63190   4.470   7.396   9.563  0.8071  1.7999  0.2735
  479MOL0     H63191   4.239   7.407   9.550  1.4060 -3.7107 -0.3179
  479MOL0     H63192   3.896   7.299   9.094 -1.3226 -0.6543 -4.1328
  479MOL0     H63193   3.649   7.290   9.061 -1.6714  2.3492 -3.6994
  479MOL0     H63194   3.378   7.384   9.260 -1.0772  0.5620 -0.7636
  479MOL0     H63195   3.430   7.282   9.138  0.2625 -0.3940  1.6380
  479MOL0     H63196   3.285   7.397   8.968  2.2662  2.4595  0.3447
  479MOL0     H63197   3.215   7.495   9.103  1.5633  0.3872 -0.2078
  479MOL0     H63198   3.153   7.271   9.211 -1.7651 -0.8814 -0.6330
  479MOL0     H63199   3.235   7.182   9.092  3.9472  1.3526  2.1570
  479MOL0     H63200   2.984   7.343   9.071 -1.6097  1.5483 -1.7018
  479MOL0     H63201   3.075   7.341   8.931  2.2609 -1.4453 -0.5153
  479MOL0     H63202   2.893   7.172   8.948 -0.4561  3.4353  2.3375
  479MOL0     H63203   2.989   7.089   9.082 -0.0367  0.6760  0.7508
  479MOL0     H63204   3.173   7.053   8.892 -0.3509  1.4495 -1.1930
  479MOL0     H63205   3.048   7.115   8.790  3.6519  1.9048  0.5089
  479MOL0     H63206   3.016   6.860   8.956  0.9725 -1.3574 -1.0057
  479MOL0     H63207   2.902   6.919   8.841 -0.3562 -0.7387  3.4945
  479MOL0     H63208   3.173   6.773   8.805  1.8846  1.7225 -1.4758
  479MOL0     H63209   3.110   6.859   8.664 -2.0241  1.1162 -1.4121
  479MOL0     H63210   3.616   7.697   9.187  0.9191  0.5838  2.8279
  479MOL0     H63211   3.854   7.701   9.250 -0.1418 -1.0553 -0.2986
  479MOL0     H63212   4.253   7.477   9.132  1.3997  3.3356  0.0605
  479MOL0     H63213   4.501   7.484   9.140 -0.2192  1.7325  0.6537
  479MOL0     H63214   6.377   7.501   8.934  0.1352  0.7647 -0.6015
  479MOL0     H63215   6.612   7.380   8.990  0.2426 -0.6447  1.2348
  479MOL0     H63216   7.115   7.638   9.023 -0.0883  0.2295 -1.1703
  479MOL0     H63217   7.307   7.496   8.957 -0.1750 -2.8532 -0.8519
  479MOL0     H63218   7.478   7.376   9.059  1.0082  0.6585 -1.6928
  479MOL0     H63219   7.461   7.375   8.891 -0.3915 -2.2807 -0.8762
  479MOL0     H63220   7.656   7.275   8.967 -0.4050  1.0904  1.0210
  479MOL0     H63221   7.583   7.136   9.055  2.2811 -0.3224 -0.3402
  479MOL0     H63222   7.548   7.184   8.755 -0.2871  0.9404  1.3029
  479MOL0     H63223   7.489   7.042   8.839 -1.3451  1.5363  3.2572
  479MOL0     H63224   7.776   7.127   8.799  2.2047  0.1678  0.8423
  479MOL0     H63225   7.726   6.981   8.888 -3.1068 -0.4990  1.2116
  479MOL0     H63226   7.646   6.861   8.487 -2.9973 -0.0792  0.2061
  479MOL0     H63227   7.115   7.138   9.029  1.5631 -0.2065  0.6680
  479MOL0     H63228   6.904   7.259   9.083  0.1877 -0.7930 -1.1140
  480MOL0     O63229   2.605   3.127   4.527  0.3487 -0.1582 -0.2577
  480MOL0     C63230   2.666   3.197   4.449 -0.1727  0.2301  0.0296
  480MOL0     O63231   2.626   3.315   4.401  0.2269 -0.3061 -0.7465
  480MOL0     C63232   2.503   3.370   4.453  0.0647  0.6122  0.6301
  480MOL0     C63233   2.426   3.448   4.359  0.6548  0.3869  0.7767
  480MOL0     C63234   2.304   3.515   4.391 -0.4113  0.2320  0.7648
  480MOL0     C63235   2.256   3.505   4.529 -0.4817 -0.7019 -0.4295
  480MOL0     O63236   2.140   3.571   4.568  0.1827 -0.4474  0.2832
  480MOL0     C63237   2.044   3.487   4.625  0.1631  0.6769  0.4001
  480MOL0     C63238   2.030   3.524   4.774 -1.0328  0.1231 -0.0847
  480MOL0     C63239   1.924   3.633   4.798 -0.0773  0.3367 -0.5246
  480MOL0     C63240   1.894   3.629   4.951 -0.6070  0.6875  1.3878
  480MOL0     C63241   1.774   3.715   5.002 -0.2430  1.2585  0.1665
  480MOL0     C63242   1.729   3.655   5.128  0.3132  0.6010  0.0908
  480MOL0     C63243   1.596   3.706   5.180 -0.5710 -0.0138 -0.4036
  480MOL0     C63244   1.474   3.670   5.103  0.2126  0.3243  0.7066
  480MOL0     N63245   1.354   3.681   5.185  0.5962 -0.3580 -0.4040
  480MOL0     C63246   1.273   3.787   5.192 -0.5818 -0.0262  0.2385
  480MOL0     C63247   1.165   3.746   5.263 -0.2120  0.0646 -0.4211
  480MOL0     C63248   1.041   3.815   5.312 -0.3022  0.8812 -0.0447
  480MOL0     C63249   1.063   3.903   5.431 -0.1537 -0.4454  0.1573
  480MOL0     C63250   1.102   3.811   5.557  0.0441 -0.4357 -0.8560
  480MOL0     C63251   0.986   3.719   5.610  0.1198  0.2817  0.4595
  480MOL0     O63252   0.903   3.802   5.688 -0.3605 -0.1271 -0.7858
  480MOL0     C63253   0.776   3.747   5.708 -0.2032 -0.2264 -1.1919
  480MOL0     C63254   0.690   3.840   5.758 -0.2780 -0.5251  0.0833
  480MOL0     C63255   0.554   3.812   5.784 -0.3537  0.0240  1.3376
  480MOL0     C63256   0.511   3.679   5.754  0.8643 -0.5748 -0.2102
  480MOL0     C63257   0.365   3.647   5.776 -0.1283 -0.1539  0.0577
  480MOL0     O63258   0.287   3.759   5.823  0.5904 -0.1082  0.2780
  480MOL0     C63259   0.149   3.740   5.818  0.7143  0.7919  0.6460
  480MOL0     C63260   0.077   3.709   5.933 -0.6545 -0.2217  0.2942
  480MOL0     C63261  -0.062   3.700   5.933  0.4904  0.3391 -0.1710
  480MOL0     C63262  -0.137   3.740   5.812  0.7003  0.2500 -0.4899
  480MOL0     O63263  -0.275   3.724   5.832  0.4496 -0.4044  0.2254
  480MOL0     C63264  -0.353   3.779   5.732  0.0783 -0.1731 -0.4950
  480MOL0     C63265  -0.495   3.730   5.756  0.0509  0.2590  0.7559
  480MOL0     C63266  -0.596   3.793   5.660 -0.0818  0.6381  0.2259
  480MOL0     C63267  -0.746   3.761   5.690  0.0410 -0.2187  0.6394
  480MOL0     C63268  -0.845   3.818   5.576  0.2971 -0.7171 -1.2183
  480MOL0     C63269  -0.904   3.948   5.618  0.6814  0.1357  0.4916
  480MOL0     C63270  -0.949   4.041   5.502 -0.6976 -1.2402  0.0412
  480MOL0     C63271  -1.048   4.149   5.541  0.7708  1.2038  0.5417
  480MOL0    Cl63272  -0.972   4.278   5.630  0.1940  0.1343 -0.2343
  480MOL0     C63273  -0.066   3.776   5.697 -0.2774 -0.0523  1.2729
  480MOL0     C63274   0.077   3.768   5.698 -0.0765  0.5579 -0.2022
  480MOL0     O63275   0.324   3.533   5.767 -0.2071 -0.5824  0.0734
  480MOL0     C63276   0.600   3.585   5.705  0.2320 -0.1573 -0.3450
  480MOL0     C63277   0.730   3.618   5.680 -0.0638  0.2900  0.2245
  480MOL0     N63278   1.192   3.616   5.312  0.0649  0.5562  0.4115
  480MOL0     N63279   1.302   3.574   5.255  0.2513 -0.5008 -0.4353
  480MOL0     C63280   2.335   3.429   4.618  0.5616  0.1932  0.3731
  480MOL0     C63281   2.456   3.365   4.584  0.0635  0.3620 -0.5744
  480MOL0     C63282   2.802   3.149   4.412  0.4192  0.4719 -0.9598
  480MOL0     C63283   2.829   3.011   4.413 -0.3501  0.5848 -0.0482
  480MOL0     C63284   2.951   2.962   4.367 -0.6466 -0.1117 -0.2710
  480MOL0     C63285   3.052   3.057   4.333  0.4322  0.1107 -0.2413
  480MOL0     O63286   3.177   3.024   4.288  0.3299  0.1927 -0.4302
  480MOL0     C63287   3.221   2.886   4.317  0.0021 -0.8883  0.3910
  480MOL0     C63288   3.384   2.874   4.303  0.9491  0.0166  0.3264
  480MOL0     C63289   3.421   2.869   4.156 -0.0159  0.0891  0.6925
  480MOL0     C63290   3.568   2.829   4.140 -0.1396 -0.4716 -0.2909
  480MOL0     C63291   3.583   2.802   3.993 -0.2549 -0.2183 -0.3394
  480MOL0     C63292   3.601   2.771   3.879  0.3505 -0.0506  0.8558
  480MOL0     C63293   3.023   3.195   4.322 -0.4125 -0.3310 -0.0895
  480MOL0     C63294   2.899   3.239   4.366  0.3914 -0.8900  0.2030
  480MOL0     H63295   2.458   3.470   4.258 -0.8378  0.0213  0.1820
  480MOL0     H63296   2.265   3.573   4.309  1.6122  0.2703 -0.2516
  480MOL0     H63297   2.062   3.381   4.607  0.1550  0.6041  0.8010
  480MOL0     H63298   1.957   3.513   4.563  0.6497  0.1315 -0.5228
  480MOL0     H63299   2.123   3.566   4.814 -0.8554 -0.6157  0.3052
  480MOL0     H63300   2.018   3.430   4.829 -0.2508  0.0860  0.0402
  480MOL0     H63301   1.840   3.616   4.730  0.3333  0.7330 -1.1426
  480MOL0     H63302   1.960   3.735   4.779 -4.7111  2.3834  0.2677
  480MOL0     H63303   1.879   3.524   4.976 -0.5434  0.0170 -1.1433
  480MOL0     H63304   1.986   3.656   5.005  1.0170  1.5931 -1.6130
  480MOL0     H63305   1.699   3.709   4.922  1.5751  0.8388 -1.5925
  480MOL0     H63306   1.813   3.816   5.010  1.6699  0.5337  0.5345
  480MOL0     H63307   1.807   3.665   5.204  2.1017  0.3742 -1.6213
  480MOL0     H63308   1.722   3.546   5.125  0.1321  0.4604  2.8539
  480MOL0     H63309   1.587   3.669   5.282  0.4451  2.7214  0.7701
  480MOL0     H63310   1.603   3.815   5.194  1.3540 -0.2548  0.8276
  480MOL0     H63311   1.494   3.567   5.075 -0.5312  0.2221  0.5263
  480MOL0     H63312   1.468   3.733   5.014  1.2615  1.5338  1.4384
  480MOL0     H63313   1.281   3.885   5.146 -2.5535  0.2926  0.4713
  480MOL0     H63314   0.958   3.746   5.329 -1.1678  2.1927  1.2779
  480MOL0     H63315   1.006   3.882   5.233  2.2114  1.9686 -0.3381
  480MOL0     H63316   0.980   3.968   5.459  0.9422  1.0274  0.1361
  480MOL0     H63317   1.149   3.968   5.412  0.6783 -1.5678 -0.0209
  480MOL0     H63318   1.182   3.742   5.526 -1.3975 -2.7696  0.3185
  480MOL0     H63319   1.148   3.870   5.637 -1.1451 -1.4310  0.5967
  480MOL0     H63320   1.024   3.638   5.672  1.2867  0.2539 -0.2477
  480MOL0     H63321   0.931   3.673   5.527  1.6557 -2.7095  0.9890
  480MOL0     H63322   0.734   3.935   5.787 -1.4736 -0.8009  3.2186
  480MOL0     H63323   0.494   3.894   5.821 -0.4423  0.5012  0.1754
  480MOL0     H63324   0.125   3.682   6.027  0.6452  0.4381 -0.1436
  480MOL0     H63325  -0.115   3.677   6.024  0.4909  2.8437  0.5525
  480MOL0     H63326  -0.317   3.742   5.635 -0.4432 -3.2130  0.3563
  480MOL0     H63327  -0.358   3.888   5.724 -3.2160 -0.2085 -0.2478
  480MOL0     H63328  -0.529   3.756   5.856 -1.8291  3.1532 -0.4872
  480MOL0     H63329  -0.505   3.621   5.753  2.1239 -0.0119  2.3082
  480MOL0     H63330  -0.581   3.757   5.558 -3.5628  0.8481 -0.4892
  480MOL0     H63331  -0.585   3.901   5.659 -0.8838  0.8631  3.7403
  480MOL0     H63332  -0.766   3.656   5.709  0.2706  0.0856  2.7522
  480MOL0     H63333  -0.766   3.815   5.783  2.7040  3.5665 -0.7460
  480MOL0     H63334  -0.930   3.752   5.556  0.0210 -1.4505  1.9117
  480MOL0     H63335  -0.787   3.838   5.485  1.2125 -0.2759 -0.5571
  480MOL0     H63336  -0.837   4.003   5.685  0.1019  0.4051  0.8526
  480MOL0     H63337  -0.989   3.917   5.679  1.7688  0.6615  2.3279
  480MOL0     H63338  -0.855   4.093   5.480 -0.3655 -2.0272 -0.4557
  480MOL0     H63339  -0.984   3.994   5.410 -2.0914 -2.5834  1.2056
  480MOL0     H63340  -1.127   4.096   5.596 -1.8060  2.0086 -2.1201
  480MOL0     H63341  -1.095   4.208   5.462  1.0930  1.9488  0.8987
  480MOL0     H63342  -0.113   3.811   5.606  2.9820  2.5895  0.3856
  480MOL0     H63343   0.136   3.814   5.620 -0.8435 -2.2360 -2.5875
  480MOL0     H63344   0.560   3.486   5.685 -1.5269 -0.4117  3.5725
  480MOL0     H63345   0.805   3.546   5.649  2.2935  3.2138 -1.3843
  480MOL0     H63346   2.318   3.421   4.725  0.3758  3.2448  0.6498
  480MOL0     H63347   2.514   3.321   4.664 -2.7724  0.9113  1.9864
  480MOL0     H63348   2.760   2.941   4.460 -0.5287  1.8791  1.6966
  480MOL0     H63349   2.983   2.859   4.355  2.6165  0.7221  0.2989
  480MOL0     H63350   3.159   2.822   4.254  0.0979 -1.1222  0.5336
  480MOL0     H63351   3.202   2.869   4.423 -1.0796  1.0669  0.5741
  480MOL0     H63352   3.427   2.963   4.350 -2.5510  1.1287  1.7921
  480MOL0     H63353   3.396   2.777   4.352 -2.4140 -1.1862 -0.9070
  480MOL0     H63354   3.401   2.967   4.113  0.8755  0.2774  0.6958
  480MOL0     H63355   3.369   2.789   4.102  1.0791  0.0799 -0.3923
  480MOL0     H63356   3.625   2.914   4.179 -0.5768  0.6456 -1.9708
  480MOL0     H63357   3.590   2.735   4.193 -0.6764 -1.2678 -1.4345
  480MOL0     H63358   3.612   2.750   3.774 -2.1500  0.7657  0.3524
  480MOL0     H63359   3.097   3.269   4.293 -0.6642 -0.3079 -0.6924
  480MOL0     H63360   2.879   3.345   4.354 -1.2404 -1.3632 -1.9040
  481MOL0     O63361   0.059   5.151   7.637  0.3781  0.2755  0.2875
  481MOL0     C63362   0.123   5.096   7.550  0.0717 -0.5822  0.4066
  481MOL0     O63363   0.090   5.095   7.416  0.1780  0.1629 -0.4350
  481MOL0     C63364  -0.014   5.178   7.379 -0.3923 -0.0621 -1.1935
  481MOL0     C63365  -0.146   5.140   7.368  0.2533 -0.1823 -0.4243
  481MOL0     C63366  -0.251   5.223   7.325 -0.0556 -0.9621  0.2039
  481MOL0     C63367  -0.222   5.350   7.291 -0.5060  0.2136  0.4790
  481MOL0     O63368  -0.319   5.438   7.244  0.3814  0.9839 -0.6194
  481MOL0     C63369  -0.298   5.560   7.177  0.1447  0.7021  0.4804
  481MOL0     C63370  -0.427   5.611   7.127 -0.7202  0.5764 -0.3951
  481MOL0     C63371  -0.494   5.519   7.020 -0.4615 -0.6329 -1.3618
  481MOL0     C63372  -0.647   5.563   7.009  0.4515  1.0854  0.3631
  481MOL0     C63373  -0.697   5.473   6.895  0.7429 -0.1664  0.0379
  481MOL0     C63374  -0.858   5.476   6.881 -0.7279 -1.2061 -0.1246
  481MOL0     C63375  -0.891   5.583   6.775 -0.0739  0.6204  0.0749
  481MOL0     C63376  -1.042   5.613   6.768 -0.7877  0.0977  0.2774
  481MOL0     N63377  -1.127   5.497   6.742  0.3795  0.4372 -0.7248
  481MOL0     C63378  -1.207   5.426   6.830  0.2291 -0.1590 -0.4476
  481MOL0     C63379  -1.256   5.322   6.757  0.2234  0.4802 -0.2415
  481MOL0     C63380  -1.354   5.218   6.801  0.6659  0.0166 -0.0567
  481MOL0     C63381  -1.501   5.245   6.779 -0.4781 -0.1761 -0.0879
  481MOL0     C63382  -1.582   5.125   6.805 -0.1450 -0.8348  0.3099
  481MOL0     C63383  -1.732   5.152   6.796  0.2080  0.4025  0.1066
  481MOL0     O63384  -1.786   5.218   6.911 -0.1312 -0.3254  0.0056
  481MOL0     C63385  -1.920   5.212   6.936 -0.0258  0.0454  0.6427
  481MOL0     C63386  -1.944   5.235   7.064 -0.0290  0.3857 -0.5503
  481MOL0     C63387  -2.070   5.243   7.112  0.2530 -0.1225  0.7091
  481MOL0     C63388  -2.186   5.211   7.034 -0.1138  0.1350 -0.0300
  481MOL0     C63389  -2.327   5.213   7.087 -0.9596  0.0985 -0.1444
  481MOL0     O63390  -2.428   5.187   6.995  0.3941 -0.6700  0.0096
  481MOL0     C63391  -2.552   5.206   7.054 -0.9322  0.2744  0.1963
  481MOL0     C63392  -2.630   5.105   7.106  0.0159  1.0694  0.8039
  481MOL0     C63393  -2.756   5.130   7.168 -0.2675  1.4136 -0.0899
  481MOL0     C63394  -2.814   5.255   7.177  0.4583 -0.0679  0.9647
  481MOL0     O63395  -2.938   5.261   7.245 -0.1816  0.1598  0.0413
  481MOL0     C63396  -2.978   5.397   7.258  0.4339  0.2811  0.5174
  481MOL0     C63397  -3.072   5.409   7.379 -0.4861 -0.2614  0.2079
  481MOL0     C63398  -3.197   5.318   7.344 -0.6114 -0.1881  0.4353
  481MOL0     C63399  -3.315   5.400   7.291  0.3976  0.3317  0.1209
  481MOL0     C63400  -3.423   5.314   7.223  0.5770 -0.5087  0.6171
  481MOL0     C63401  -3.382   5.264   7.085 -0.5814 -0.7140  0.2102
  481MOL0     C63402  -3.487   5.167   7.034 -0.5490  0.3530  0.5413
  481MOL0     C63403  -3.434   5.097   6.917 -0.6274  0.2833  0.7463
  481MOL0    Cl63404  -3.572   5.000   6.861 -0.0174  0.1706 -0.0789
  481MOL0     C63405  -2.740   5.360   7.119 -0.2306 -0.3129  0.7030
  481MOL0     C63406  -2.611   5.334   7.059 -0.1480  0.5566  0.1966
  481MOL0     O63407  -2.340   5.240   7.207 -0.3010  0.3305  0.3439
  481MOL0     C63408  -2.150   5.161   6.902  0.3239 -0.5460  0.2289
  481MOL0     C63409  -2.019   5.158   6.854  0.4010  0.3157  0.9973
  481MOL0     N63410  -1.202   5.331   6.634  0.2534  0.6182 -0.0825
  481MOL0     N63411  -1.118   5.429   6.624  0.5836 -0.3911 -0.1510
  481MOL0     C63412  -0.086   5.402   7.292 -0.3916  0.7377 -0.5086
  481MOL0     C63413   0.016   5.316   7.346  0.3719  1.7554  0.0519
  481MOL0     C63414   0.231   5.005   7.594  0.3028 -0.4057  0.3927
  481MOL0     C63415   0.222   4.939   7.720  0.4278 -0.0747  0.7051
  481MOL0     C63416   0.320   4.842   7.758 -0.1723 -0.8723  0.5541
  481MOL0     C63417   0.421   4.795   7.681 -0.2888  0.9299  0.2379
  481MOL0     O63418   0.487   4.687   7.737  0.6449 -0.1541  0.1870
  481MOL0     C63419   0.592   4.630   7.667 -0.6889 -0.9492  0.3786
  481MOL0     C63420   0.714   4.719   7.695 -1.3362  0.0557 -0.2848
  481MOL0     C63421   0.734   4.733   7.852 -0.7994 -0.2049 -0.5747
  481MOL0     C63422   0.738   4.877   7.874  0.5837  0.1138  0.1705
  481MOL0     C63423   0.723   4.900   8.020 -1.2711  0.0717  0.3788
  481MOL0     C63424   0.709   4.902   8.138 -0.8891  0.5175  0.5385
  481MOL0     C63425   0.425   4.858   7.552  0.0322 -0.0639 -0.3567
  481MOL0     C63426   0.337   4.963   7.512 -0.2015 -0.1001 -0.0365
  481MOL0     H63427  -0.174   5.037   7.386  0.9054 -0.3458 -0.3415
  481MOL0     H63428  -0.351   5.183   7.333 -0.7324  0.3329 -1.3088
  481MOL0     H63429  -0.240   5.542   7.086 -0.3200 -0.0669  0.3227
  481MOL0     H63430  -0.253   5.628   7.249 -0.7285 -0.4963  2.2302
  481MOL0     H63431  -0.416   5.708   7.078 -2.9599  2.2890  2.2331
  481MOL0     H63432  -0.486   5.620   7.218 -1.3373 -3.1854 -0.2602
  481MOL0     H63433  -0.490   5.412   7.041 -0.9774 -0.8823 -2.4741
  481MOL0     H63434  -0.443   5.528   6.924  0.1415  1.0641 -0.9253
  481MOL0     H63435  -0.715   5.546   7.093  0.1004  1.5981  0.1869
  481MOL0     H63436  -0.665   5.669   6.990 -4.8903  1.0063  3.1269
  481MOL0     H63437  -0.671   5.370   6.919 -0.9398 -0.8485 -0.8654
  481MOL0     H63438  -0.655   5.509   6.801  0.8303  2.7754  1.1050
  481MOL0     H63439  -0.898   5.501   6.979 -0.7615  0.6466 -0.5796
  481MOL0     H63440  -0.904   5.381   6.851  1.3922 -2.3268  0.0003
  481MOL0     H63441  -0.846   5.682   6.792 -4.6783  2.6401  2.0774
  481MOL0     H63442  -0.860   5.549   6.676  0.3492  0.8501  0.1238
  481MOL0     H63443  -1.059   5.683   6.686  2.2209  0.3111 -0.2974
  481MOL0     H63444  -1.074   5.665   6.858  1.1305  2.3435 -0.2263
  481MOL0     H63445  -1.236   5.441   6.933 -1.9164 -1.1028 -0.8466
  481MOL0     H63446  -1.337   5.190   6.906 -2.2581 -2.2485 -0.0721
  481MOL0     H63447  -1.321   5.132   6.743  0.8064 -0.2465  0.4080
  481MOL0     H63448  -1.511   5.277   6.674 -0.5208 -0.0223 -0.0374
  481MOL0     H63449  -1.528   5.329   6.844 -0.7005  2.0149 -2.8196
  481MOL0     H63450  -1.559   5.049   6.729 -3.3159  0.2965 -1.9664
  481MOL0     H63451  -1.564   5.087   6.906 -0.8382  0.2984  0.8724
  481MOL0     H63452  -1.781   5.054   6.790  1.5255 -0.2326 -0.8712
  481MOL0     H63453  -1.752   5.220   6.712 -5.6469 -2.6546 -1.5315
  481MOL0     H63454  -1.862   5.262   7.130  0.5564 -3.1950  0.4146
  481MOL0     H63455  -2.087   5.279   7.213 -1.3340 -2.5740  1.4262
  481MOL0     H63456  -2.581   5.009   7.103 -3.3011 -0.7420  0.5537
  481MOL0     H63457  -2.808   5.044   7.209 -2.0510  2.7716  0.6323
  481MOL0     H63458  -3.024   5.427   7.163  3.6378  0.0353 -1.2360
  481MOL0     H63459  -2.896   5.467   7.278  0.0605  0.3960  1.7044
  481MOL0     H63460  -3.107   5.512   7.389  0.2129  0.0870 -0.7060
  481MOL0     H63461  -3.031   5.378   7.475 -0.6469  0.2723  0.4547
  481MOL0     H63462  -3.227   5.252   7.425  1.7701 -1.1439  0.6109
  481MOL0     H63463  -3.166   5.248   7.267 -3.3504 -1.0753  0.0149
  481MOL0     H63464  -3.356   5.454   7.377  1.9222  0.4814  0.7971
  481MOL0     H63465  -3.276   5.468   7.214  0.3108  1.2737  0.8838
  481MOL0     H63466  -3.511   5.375   7.200  1.7108  1.3439  1.0503
  481MOL0     H63467  -3.446   5.230   7.290 -1.9307 -2.6410 -2.5742
  481MOL0     H63468  -3.292   5.201   7.088  1.5008  1.8023 -3.0146
  481MOL0     H63469  -3.353   5.340   7.012 -2.7083 -0.4769 -0.4422
  481MOL0     H63470  -3.496   5.083   7.103 -1.8336  1.4641  1.8004
  481MOL0     H63471  -3.583   5.216   7.017  0.5145  1.2505 -4.5260
  481MOL0     H63472  -3.347   5.035   6.941 -0.8712 -0.5681 -0.4993
  481MOL0     H63473  -3.410   5.174   6.844  2.9862  0.3770  1.8530
  481MOL0     H63474  -2.773   5.463   7.112  0.6963 -0.1239 -2.2153
  481MOL0     H63475  -2.556   5.416   7.014 -1.0595 -0.3450 -2.7919
  481MOL0     H63476  -2.232   5.130   6.838  1.0788 -0.3365 -0.8547
  481MOL0     H63477  -1.987   5.141   6.751 -1.6619 -0.6333  0.4647
  481MOL0     H63478  -0.049   5.500   7.264  2.2857  0.2241  0.9436
  481MOL0     H63479   0.124   5.331   7.339  0.5385  0.2980 -1.0758
  481MOL0     H63480   0.150   4.962   7.797 -0.4972 -1.7444  0.3737
  481MOL0     H63481   0.310   4.795   7.856  0.4830 -0.7587  0.6776
  481MOL0     H63482   0.572   4.630   7.559  3.0582 -1.4362 -0.4679
  481MOL0     H63483   0.607   4.525   7.692 -2.5075 -1.1385  0.8052
  481MOL0     H63484   0.802   4.674   7.648 -0.6139  0.9052  0.2078
  481MOL0     H63485   0.710   4.819   7.651  1.1431  0.0409 -0.7189
  481MOL0     H63486   0.832   4.701   7.889 -0.0938  2.0970 -0.3041
  481MOL0     H63487   0.668   4.681   7.922  0.2941 -1.2497 -0.2829
  481MOL0     H63488   0.834   4.906   7.829  1.4499 -3.0295 -0.2728
  481MOL0     H63489   0.653   4.924   7.824  0.0641  2.3124  2.8576
  481MOL0     H63490   0.706   4.901   8.245 -1.4404 -1.5284  0.5355
  481MOL0     H63491   0.504   4.834   7.481  1.1268 -1.3184  1.1830
  481MOL0     H63492   0.338   5.020   7.420  0.9109 -1.8708 -1.1603
  482MOL0     O63493  11.104   7.862   8.489 -0.6494  0.3507 -0.3714
  482MOL0     C63494  11.142   7.745   8.485  0.5444 -0.0038 -0.4529
  482MOL0     O63495  11.059   7.634   8.492 -0.0586 -0.0496 -0.4980
  482MOL0     C63496  10.928   7.646   8.532  1.0042 -0.8314 -0.0048
  482MOL0     C63497  10.897   7.567   8.647 -0.5539  0.1565 -0.3559
  482MOL0     C63498  10.763   7.569   8.691 -0.4104 -0.6864  0.2515
  482MOL0     C63499  10.657   7.621   8.617  0.4668  0.3295  0.4475
  482MOL0     O63500  10.523   7.585   8.661 -0.0395  0.3162  0.1093
  482MOL0     C63501  10.408   7.613   8.585  0.1540  0.0576 -0.5214
  482MOL0     C63502  10.336   7.746   8.631  0.7326 -0.2364 -0.3301
  482MOL0     C63503  10.378   7.887   8.585 -0.2875  0.0442 -0.6018
  482MOL0     C63504  10.256   7.978   8.585  0.5430  0.4933  0.8437
  482MOL0     C63505  10.146   7.954   8.478  0.9393  0.1351 -0.5699
  482MOL0     C63506  10.065   8.080   8.451 -0.1079 -0.4069  0.2021
  482MOL0     C63507   9.951   8.050   8.348 -0.2560 -0.2874 -0.3535
  482MOL0     C63508   9.848   8.158   8.339  0.3909  0.2029 -0.6923
  482MOL0     N63509   9.773   8.168   8.464  0.0325 -0.4529 -0.2409
  482MOL0     C63510   9.756   8.289   8.534  0.3780  0.2887 -1.0986
  482MOL0     C63511   9.701   8.242   8.647 -0.1092 -0.2837 -0.0842
  482MOL0     C63512   9.691   8.324   8.769 -0.5890  0.2435 -1.3143
  482MOL0     C63513   9.536   8.313   8.798 -0.2869 -0.4848  0.0252
  482MOL0     C63514   9.495   8.382   8.927  0.0869 -0.4371 -0.3458
  482MOL0     C63515   9.334   8.369   8.940  0.1341  0.5035  0.1104
  482MOL0     O63516   9.283   8.425   9.068 -0.2990  0.3098 -0.4055
  482MOL0     C63517   9.207   8.539   9.055  0.0860  0.6567  1.2051
  482MOL0     C63518   9.234   8.628   8.951 -0.1758 -0.6159 -0.3131
  482MOL0     C63519   9.167   8.750   8.960 -0.6344 -0.1243 -0.8973
  482MOL0     C63520   9.070   8.781   9.063  0.3356 -0.7795  0.2665
  482MOL0     C63521   9.012   8.924   9.068 -0.2415 -0.0822 -0.2375
  482MOL0     O63522   8.905   8.945   9.157  0.3944  0.2027 -0.3383
  482MOL0     C63523   8.820   9.053   9.140 -0.0864 -0.1495  0.7658
  482MOL0     C63524   8.827   9.142   9.235 -0.1140 -0.2356  0.2372
  482MOL0     C63525   8.752   9.260   9.224  0.6194  0.1144  0.4354
  482MOL0     C63526   8.662   9.280   9.116 -0.3153  0.6425 -0.7647
  482MOL0     O63527   8.593   9.391   9.108  0.1476 -0.0989 -0.1229
  482MOL0     C63528   8.465   9.379   9.040  0.5618 -0.3080 -0.7710
  482MOL0     C63529   8.370   9.479   9.109 -0.6634  0.1485  0.7150
  482MOL0     C63530   8.233   9.503   9.039  0.2882  0.2457 -0.1710
  482MOL0     C63531   8.144   9.589   9.125  0.4381 -0.4012 -0.5948
  482MOL0     C63532   8.016   9.627   9.053 -0.0525 -0.6233  0.6098
  482MOL0     C63533   7.924   9.720   9.140  0.1757 -0.2112 -0.3028
  482MOL0     C63534   7.785   9.748   9.082 -0.0940  0.6485 -0.0559
  482MOL0     C63535   7.694   9.835   9.172 -0.6224  1.4819  0.1200
  482MOL0    Cl63536   7.766   9.994   9.202  0.2168  0.6279 -0.4034
  482MOL0     C63537   8.663   9.174   9.015 -0.4219  0.5085 -0.0076
  482MOL0     C63538   8.738   9.064   9.029 -0.4634 -0.5197 -0.0406
  482MOL0     O63539   9.046   9.001   8.976 -0.2735  0.3029 -0.3289
  482MOL0     C63540   9.040   8.681   9.160  1.2852 -0.5893  1.5108
  482MOL0     C63541   9.106   8.556   9.158  0.4831  0.5717  0.1801
  482MOL0     N63542   9.686   8.110   8.649 -1.0775  0.9205  0.3572
  482MOL0     N63543   9.724   8.059   8.537 -0.2400 -0.0903  0.5480
  482MOL0     C63544  10.689   7.692   8.497 -0.0893 -0.6586 -1.3800
  482MOL0     C63545  10.826   7.697   8.452  0.9413 -0.0526 -0.2850
  482MOL0     C63546  11.288   7.723   8.482 -0.1738  0.6976 -0.4428
  482MOL0     C63547  11.335   7.600   8.439  0.1233 -0.6049  0.5682
  482MOL0     C63548  11.465   7.582   8.413  0.6366  0.2686 -0.8727
  482MOL0     C63549  11.562   7.681   8.441  0.0481 -0.0119  0.0057
  482MOL0     O63550  11.692   7.650   8.414 -0.4452  0.4415  0.4632
  482MOL0     C63551  11.790   7.739   8.478 -1.1735  0.4615 -0.7874
  482MOL0     C63552  11.922   7.700   8.410  0.4201 -0.2083 -0.4289
  482MOL0     C63553  12.034   7.801   8.445 -0.1845 -0.6821 -0.2807
  482MOL0     C63554  12.165   7.776   8.367 -0.5774 -0.2924  0.4021
  482MOL0     C63555  12.255   7.896   8.391 -0.2777  0.4453 -0.4835
  482MOL0     C63556  12.322   8.000   8.400 -1.1417  0.2731  0.0574
  482MOL0     C63557  11.513   7.812   8.482  0.5029 -0.0752 -0.2544
  482MOL0     C63558  11.380   7.827   8.504  0.4505  0.3848  0.0443
  482MOL0     H63559  10.976   7.511   8.696 -1.4722 -1.0333 -0.1930
  482MOL0     H63560  10.742   7.513   8.781  0.1853  0.8862  1.4039
  482MOL0     H63561  10.345   7.531   8.622 -0.0053  0.9903  1.4008
  482MOL0     H63562  10.423   7.590   8.479 -1.5867 -2.5082 -0.3168
  482MOL0     H63563  10.336   7.744   8.740 -0.6254 -1.2835 -0.3240
  482MOL0     H63564  10.228   7.731   8.620  0.4388  0.2276  1.6355
  482MOL0     H63565  10.417   7.871   8.484  0.5268 -0.1627 -0.2589
  482MOL0     H63566  10.460   7.934   8.639  0.0370  1.1889 -2.0223
  482MOL0     H63567  10.205   7.957   8.680  1.7436  0.0352  1.4063
  482MOL0     H63568  10.305   8.076   8.577  4.3855 -1.3843 -1.3772
  482MOL0     H63569  10.083   7.870   8.509  3.6077 -1.2749  1.4515
  482MOL0     H63570  10.197   7.924   8.386  3.7802  0.0487  0.9162
  482MOL0     H63571  10.113   8.173   8.417 -4.3702  1.2366 -1.9713
  482MOL0     H63572  10.026   8.118   8.546 -0.0568  2.9801 -0.9875
  482MOL0     H63573   9.993   8.031   8.248 -0.6346  0.8576 -0.7487
  482MOL0     H63574   9.901   7.958   8.377 -1.0489  0.5902  1.1790
  482MOL0     H63575   9.780   8.125   8.260  1.1842 -0.0227 -1.2908
  482MOL0     H63576   9.904   8.249   8.311  1.3928  1.4976  4.4275
  482MOL0     H63577   9.782   8.390   8.506 -3.7543  1.1245 -2.7410
  482MOL0     H63578   9.731   8.426   8.763 -1.2263  0.5713 -0.2520
  482MOL0     H63579   9.749   8.271   8.845 -0.7406  0.3740 -1.1046
  482MOL0     H63580   9.511   8.207   8.808 -1.4773 -0.2438 -0.1847
  482MOL0     H63581   9.481   8.364   8.718 -1.0129  0.0151  0.8264
  482MOL0     H63582   9.538   8.326   9.011 -2.5378 -1.0191  0.7126
  482MOL0     H63583   9.515   8.488   8.942 -0.6968 -0.4254  0.7465
  482MOL0     H63584   9.310   8.265   8.963 -1.5542  1.0336  0.8377
  482MOL0     H63585   9.272   8.394   8.853 -1.4482 -0.2631  0.9933
  482MOL0     H63586   9.310   8.607   8.877 -1.8052 -1.1688 -1.9097
  482MOL0     H63587   9.195   8.816   8.878 -0.0979 -1.2299 -1.6286
  482MOL0     H63588   8.899   9.127   9.315  0.3758 -0.6992 -0.2858
  482MOL0     H63589   8.742   9.343   9.293 -0.7182  0.1077  0.2764
  482MOL0     H63590   8.427   9.278   9.055  1.6695 -0.7471 -0.8256
  482MOL0     H63591   8.462   9.404   8.934 -1.3606  5.1653  0.2245
  482MOL0     H63592   8.435   9.566   9.107 -2.4288  1.5559  1.7014
  482MOL0     H63593   8.344   9.447   9.211 -1.3840 -0.3522  0.3804
  482MOL0     H63594   8.172   9.415   9.020  1.4368 -0.3830 -1.1177
  482MOL0     H63595   8.241   9.552   8.941 -1.1487  0.3400 -0.2577
  482MOL0     H63596   8.120   9.531   9.215  1.3985 -1.5206 -1.0477
  482MOL0     H63597   8.204   9.679   9.144 -0.7237  0.1863  0.4754
  482MOL0     H63598   7.956   9.546   9.011  0.0320  0.0164 -0.7960
  482MOL0     H63599   8.041   9.683   8.962  2.2356 -0.1224  1.4924
  482MOL0     H63600   7.975   9.816   9.143  0.3383 -0.2618 -1.1730
  482MOL0     H63601   7.910   9.685   9.243 -0.9777  1.1219  0.0278
  482MOL0     H63602   7.800   9.788   8.981  1.2462 -2.3635 -1.1652
  482MOL0     H63603   7.734   9.653   9.061 -0.7520  1.0599 -0.3518
  482MOL0     H63604   7.681   9.783   9.268  2.3587 -0.8302 -0.5623
  482MOL0     H63605   7.600   9.824   9.118  1.5066  0.2452 -3.7835
  482MOL0     H63606   8.590   9.178   8.935 -1.4798 -0.1517  0.8883
  482MOL0     H63607   8.734   8.998   8.943 -0.0627 -1.2564  0.4938
  482MOL0     H63608   8.960   8.695   9.233 -1.3302  1.7894 -1.4952
  482MOL0     H63609   9.084   8.486   9.238  0.8847  0.1228 -0.1051
  482MOL0     H63610  10.623   7.747   8.431 -2.3507 -0.0431  1.1755
  482MOL0     H63611  10.852   7.753   8.363  1.4312  2.2698  1.2054
  482MOL0     H63612  11.267   7.516   8.428  0.7659 -0.9656 -0.8398
  482MOL0     H63613  11.493   7.481   8.387  0.7045  0.3671 -1.1922
  482MOL0     H63614  11.799   7.711   8.584  0.0949  0.1298 -0.9594
  482MOL0     H63615  11.771   7.845   8.462 -1.0517  0.9292  1.7425
  482MOL0     H63616  11.947   7.597   8.435 -0.1767 -0.2122  0.1651
  482MOL0     H63617  11.913   7.704   8.301  0.0466 -0.4377 -0.4067
  482MOL0     H63618  12.052   7.808   8.553  1.8840  0.9792 -0.6672
  482MOL0     H63619  11.996   7.901   8.418  2.2245  0.3880  0.0616
  482MOL0     H63620  12.212   7.686   8.407 -1.0767 -1.5229 -1.6611
  482MOL0     H63621  12.145   7.747   8.264  0.2826  0.9365 -0.1357
  482MOL0     H63622  12.367   8.097   8.392  1.1066 -0.6819  0.3921
  482MOL0     H63623  11.584   7.895   8.482  1.5276 -0.8936 -1.9206
  482MOL0     H63624  11.345   7.929   8.513  4.3184  1.6373  3.3935
  483MOL0     O63625   3.620   6.073   7.298  0.6819 -0.1686 -0.1149
  483MOL0     C63626   3.661   6.037   7.190  0.2631 -0.1503  0.3773
  483MOL0     O63627   3.577   5.997   7.081 -0.5077  0.4227  0.5134
  483MOL0     C63628   3.449   6.028   7.095  0.5739  0.5972  0.0354
  483MOL0     C63629   3.403   6.165   7.102  0.9677 -1.1005  0.0020
  483MOL0     C63630   3.261   6.174   7.113 -0.0239  0.5773  0.2619
  483MOL0     C63631   3.172   6.071   7.136 -0.6015 -0.5285  0.1864
  483MOL0     O63632   3.038   6.110   7.148 -0.5143 -0.7617  0.1190
  483MOL0     C63633   2.930   6.011   7.155 -0.5597  0.3769  0.1918
  483MOL0     C63634   2.793   6.060   7.102 -0.7029  0.5047 -0.2392
  483MOL0     C63635   2.767   6.208   7.133  1.3287 -0.5350 -0.3708
  483MOL0     C63636   2.614   6.245   7.119  0.7955  0.4098 -0.2430
  483MOL0     C63637   2.554   6.240   6.986  0.4236 -0.2471 -0.0392
  483MOL0     C63638   2.484   6.367   6.936 -0.0620 -1.1029 -0.4628
  483MOL0     C63639   2.422   6.355   6.798  0.3829 -0.2508 -0.3353
  483MOL0     C63640   2.358   6.489   6.763  0.4832 -0.2204  0.7835
  483MOL0     N63641   2.282   6.487   6.639  0.2005 -0.1626 -0.3455
  483MOL0     C63642   2.319   6.504   6.511  0.2096 -0.6510 -0.1401
  483MOL0     C63643   2.206   6.511   6.436  0.7049 -0.7055  0.0252
  483MOL0     C63644   2.210   6.507   6.289 -0.1044  0.3245  0.6500
  483MOL0     C63645   2.236   6.639   6.226  0.0111  0.8158 -0.3955
  483MOL0     C63646   2.234   6.622   6.069  0.0378 -0.4760 -0.0376
  483MOL0     C63647   2.264   6.744   5.977 -0.1117  0.2227  0.3217
  483MOL0     O63648   2.293   6.694   5.841 -0.7106 -1.0048 -0.8133
  483MOL0     C63649   2.425   6.707   5.803  0.5120  0.3250 -0.5926
  483MOL0     C63650   2.451   6.689   5.668  0.2369  0.6950 -0.3784
  483MOL0     C63651   2.582   6.671   5.610  0.5469 -0.5308 -0.6208
  483MOL0     C63652   2.694   6.703   5.695  0.5139  0.6183  0.2491
  483MOL0     C63653   2.835   6.704   5.632  0.1725  0.1319 -0.2414
  483MOL0     O63654   2.939   6.703   5.726  0.4521 -0.5141 -0.0043
  483MOL0     C63655   3.062   6.672   5.676  0.6452  0.5251 -0.5934
  483MOL0     C63656   3.161   6.734   5.756  0.1655 -0.0664  0.3405
  483MOL0     C63657   3.294   6.721   5.741 -0.3340  0.5797 -0.0705
  483MOL0     C63658   3.329   6.653   5.621 -0.2975  0.6105 -0.8319
  483MOL0     O63659   3.457   6.654   5.573 -0.0897  0.2578 -0.5010
  483MOL0     C63660   3.558   6.700   5.675 -0.5364  0.3560  0.2621
  483MOL0     C63661   3.696   6.655   5.623 -0.3004 -0.3445  0.2149
  483MOL0     C63662   3.731   6.705   5.488 -0.6478  0.7225 -0.0095
  483MOL0     C63663   3.865   6.632   5.442  0.4198 -0.2015  0.2096
  483MOL0     C63664   3.924   6.706   5.314 -0.2653  0.5666 -0.8972
  483MOL0     C63665   4.068   6.666   5.281  0.0205 -0.8452  0.5718
  483MOL0     C63666   4.110   6.772   5.174 -0.4196  0.5160  0.1334
  483MOL0     C63667   4.268   6.768   5.147  0.9160  0.0830 -0.6485
  483MOL0    Cl63668   4.363   6.815   5.287  0.0832 -0.2866 -0.0759
  483MOL0     C63669   3.240   6.590   5.537 -0.4551  0.0394 -0.1774
  483MOL0     C63670   3.100   6.600   5.559 -0.1254  0.7048  0.1484
  483MOL0     O63671   2.838   6.715   5.505  0.8952  0.3512 -0.2440
  483MOL0     C63672   2.665   6.732   5.833  0.3930  0.1601  0.2317
  483MOL0     C63673   2.532   6.739   5.887  0.3070 -0.2767 -0.8989
  483MOL0     N63674   2.099   6.501   6.522  0.4874 -1.8816  0.4212
  483MOL0     N63675   2.148   6.507   6.639  0.3212  0.5119 -0.2789
  483MOL0     C63676   3.222   5.942   7.129  0.3462 -0.4433 -0.3329
  483MOL0     C63677   3.359   5.921   7.116 -0.1645  0.2171  0.2525
  483MOL0     C63678   3.802   6.021   7.176 -0.1516  0.1655  0.4754
  483MOL0     C63679   3.884   6.036   7.286 -0.3659  0.2862  0.1225
  483MOL0     C63680   4.027   6.019   7.284 -0.3522  0.0992 -0.6152
  483MOL0     C63681   4.083   5.987   7.166 -0.1927 -1.0077 -0.6396
  483MOL0     O63682   4.218   5.960   7.167 -0.6259  0.0993  0.0383
  483MOL0     C63683   4.280   5.910   7.048  0.5962  1.1057  0.1734
  483MOL0     C63684   4.431   5.893   7.068  0.7174  0.7981 -0.2450
  483MOL0     C63685   4.485   6.032   7.104  1.3297 -0.2288  0.0204
  483MOL0     C63686   4.638   6.031   7.140 -0.3229  1.1073 -0.0283
  483MOL0     C63687   4.723   6.016   7.026 -0.0281 -0.5806 -0.8437
  483MOL0     C63688   4.788   6.001   6.921  0.9368  0.7484  0.2756
  483MOL0     C63689   4.003   5.966   7.051 -0.4011  0.4982  0.3139
  483MOL0     C63690   3.862   5.984   7.060  0.4279 -0.2614 -0.9152
  483MOL0     H63691   3.464   6.253   7.081  1.0655 -1.0172  0.6201
  483MOL0     H63692   3.214   6.272   7.104 -0.8048  0.1813 -0.0743
  483MOL0     H63693   2.915   6.015   7.263  1.5799  0.0471  0.5495
  483MOL0     H63694   2.955   5.910   7.120 -1.7639  0.4783 -1.0680
  483MOL0     H63695   2.721   5.987   7.139  0.8010 -0.7923  0.2397
  483MOL0     H63696   2.781   6.051   6.994 -1.4258  0.8734 -0.1964
  483MOL0     H63697   2.826   6.269   7.065 -0.9970 -1.8714 -3.9041
  483MOL0     H63698   2.793   6.226   7.237  1.6806  0.3129 -0.6003
  483MOL0     H63699   2.548   6.175   7.170  1.5646 -0.8063 -0.8786
  483MOL0     H63700   2.597   6.346   7.158  1.7170  0.1838  0.8248
  483MOL0     H63701   2.484   6.156   6.976 -0.5763  0.3212  1.7779
  483MOL0     H63702   2.627   6.215   6.908  1.4692  0.6505  0.6366
  483MOL0     H63703   2.551   6.452   6.945 -1.6694  0.0401  1.7534
  483MOL0     H63704   2.411   6.384   7.016  2.3105  0.5055  1.4882
  483MOL0     H63705   2.499   6.323   6.728 -0.4086 -1.1570 -0.8197
  483MOL0     H63706   2.344   6.278   6.793 -1.2849  1.2653  0.7916
  483MOL0     H63707   2.438   6.561   6.744 -2.7725  2.7898 -3.4275
  483MOL0     H63708   2.285   6.529   6.835 -0.7694 -0.8648 -0.0778
  483MOL0     H63709   2.416   6.506   6.461  0.3399  2.1601  0.0719
  483MOL0     H63710   2.111   6.483   6.250  1.3086 -1.5589 -2.1831
  483MOL0     H63711   2.282   6.437   6.244 -0.1728  0.8713 -0.3405
  483MOL0     H63712   2.334   6.681   6.247  1.0224 -1.3764 -0.5249
  483MOL0     H63713   2.163   6.714   6.259  1.1559  2.0790 -0.6677
  483MOL0     H63714   2.316   6.554   6.044  1.1787  1.2663 -1.3216
  483MOL0     H63715   2.141   6.572   6.041 -0.3659 -0.1523  0.6983
  483MOL0     H63716   2.343   6.807   6.018  2.7016 -2.8351  0.0319
  483MOL0     H63717   2.177   6.809   5.971 -0.7138 -0.4040  1.7113
  483MOL0     H63718   2.369   6.665   5.601  0.8694 -4.8152  0.3404
  483MOL0     H63719   2.590   6.647   5.505  0.7888 -2.0421 -0.2882
  483MOL0     H63720   3.118   6.775   5.847 -1.3154  0.1267 -0.4158
  483MOL0     H63721   3.363   6.760   5.814  0.2793 -1.0743  0.2523
  483MOL0     H63722   3.546   6.640   5.766 -0.0740  1.9565  1.4066
  483MOL0     H63723   3.562   6.806   5.698  0.1967  0.6340 -1.0340
  483MOL0     H63724   3.703   6.546   5.628  0.4819 -0.2562  1.8014
  483MOL0     H63725   3.758   6.704   5.699 -0.5622  0.3527 -0.0070
  483MOL0     H63726   3.738   6.813   5.474  2.2814  0.5132 -0.7698
  483MOL0     H63727   3.656   6.669   5.416 -0.7120 -0.5671  0.6574
  483MOL0     H63728   3.929   6.631   5.530 -0.4077  0.5443  0.8406
  483MOL0     H63729   3.849   6.527   5.414  2.9846  0.0545 -2.7289
  483MOL0     H63730   3.916   6.813   5.335 -3.2036  0.7789 -2.5893
  483MOL0     H63731   3.859   6.687   5.228 -0.6913 -0.8237 -0.3051
  483MOL0     H63732   4.061   6.563   5.246 -0.7941 -0.2843 -1.0425
  483MOL0     H63733   4.133   6.676   5.368 -1.8966  1.2721  1.8708
  483MOL0     H63734   4.054   6.745   5.084 -0.5460  0.5708  0.1970
  483MOL0     H63735   4.087   6.872   5.209  1.9488  1.2164 -0.1401
  483MOL0     H63736   4.287   6.835   5.063 -1.9795  0.8525 -0.7889
  483MOL0     H63737   4.290   6.669   5.107 -2.3169 -0.8730 -0.3253
  483MOL0     H63738   3.274   6.550   5.442  2.2704  0.5079  0.5265
  483MOL0     H63739   3.036   6.542   5.493 -0.5672 -0.1155  1.2521
  483MOL0     H63740   2.742   6.770   5.899  1.6543 -0.5157 -0.8015
  483MOL0     H63741   2.533   6.775   5.990  2.4710 -1.5871 -0.4054
  483MOL0     H63742   3.166   5.851   7.147  0.3696 -0.2620  0.7743
  483MOL0     H63743   3.401   5.821   7.119 -2.2248 -0.7070  0.6236
  483MOL0     H63744   3.853   6.052   7.389  1.6092 -0.2115  0.8374
  483MOL0     H63745   4.085   6.038   7.374  1.5391 -0.7613 -1.6093
  483MOL0     H63746   4.251   5.970   6.961 -0.2148  3.5275  1.9958
  483MOL0     H63747   4.242   5.810   7.023  0.3933  1.1284  0.3919
  483MOL0     H63748   4.436   5.822   7.151  1.3827 -0.2982 -1.1880
  483MOL0     H63749   4.486   5.860   6.978  0.3852 -0.4190 -0.0222
  483MOL0     H63750   4.437   6.071   7.193  0.3468  1.6005 -1.2453
  483MOL0     H63751   4.452   6.107   7.031  0.3766 -1.4325 -0.8249
  483MOL0     H63752   4.650   6.137   7.167 -0.4773  1.8947 -2.7442
  483MOL0     H63753   4.673   5.966   7.221 -2.6854  1.1515  1.1276
  483MOL0     H63754   4.851   5.990   6.835  6.3326  1.3587  3.7097
  483MOL0     H63755   4.042   5.931   6.957  0.6269  3.1567 -0.3456
  483MOL0     H63756   3.796   5.963   6.976 -0.2748 -2.0574  0.0319
  484MOL0     O63757   6.842   6.864   0.070 -0.2251 -0.1942 -0.5526
  484MOL0     C63758   6.885   6.864   0.191  0.8276  0.2646  0.7137
  484MOL0     O63759   6.811   6.870   0.304  0.0948  0.0875  0.3891
  484MOL0     C63760   6.671   6.873   0.296 -0.0187  0.5427 -0.5014
  484MOL0     C63761   6.610   6.968   0.362  0.2913 -0.1611  0.0866
  484MOL0     C63762   6.473   6.991   0.344  0.4979  1.2977  0.0513
  484MOL0     C63763   6.402   6.902   0.262  1.3059  1.4196 -0.7106
  484MOL0     O63764   6.261   6.923   0.278  0.0609  0.0543  0.5677
  484MOL0     C63765   6.190   6.900   0.157  0.2120 -0.1135  0.0984
  484MOL0     C63766   6.039   6.929   0.159  0.5040  0.1883 -0.5273
  484MOL0     C63767   5.972   6.957   0.018  0.2020  0.3539  0.9004
  484MOL0     C63768   5.830   6.975   0.034  0.4456 -0.0897  0.0980
  484MOL0     C63769   5.747   6.935  -0.094 -0.4498  0.0307 -0.2652
  484MOL0     C63770   5.606   6.994  -0.094 -0.5228  0.1292  0.3641
  484MOL0     C63771   5.515   6.883  -0.042 -0.3389 -0.0690  1.1525
  484MOL0     C63772   5.366   6.931  -0.031 -0.1848 -0.4714 -0.2166
  484MOL0     N63773   5.353   7.033   0.073 -0.3521 -0.0899  0.2678
  484MOL0     C63774   5.328   7.159   0.049 -0.3358  0.1705 -0.1136
  484MOL0     C63775   5.326   7.217   0.167 -0.3290 -0.2060 -0.0759
  484MOL0     C63776   5.295   7.355   0.206  0.4875 -0.1959 -0.3408
  484MOL0     C63777   5.153   7.412   0.155 -0.7093  0.0798  0.5686
  484MOL0     C63778   5.154   7.471   0.014  0.4491 -0.5209  0.4646
  484MOL0     C63779   5.037   7.560  -0.011 -0.0274  0.0393 -0.4612
  484MOL0     O63780   5.016   7.654   0.097 -0.3529 -0.6777  0.0790
  484MOL0     C63781   4.889   7.707   0.122  0.1026 -0.5009  0.4400
  484MOL0     C63782   4.770   7.693   0.046 -0.9075  0.3332  0.5291
  484MOL0     C63783   4.649   7.721   0.097 -0.3969 -0.1496  0.7857
  484MOL0     C63784   4.634   7.750   0.239 -0.4417 -0.0824  0.4246
  484MOL0     C63785   4.506   7.761   0.294 -0.6846 -0.6774  0.5578
  484MOL0     O63786   4.401   7.762   0.206  0.1491  0.2583  0.4243
  484MOL0     C63787   4.276   7.708   0.233 -0.0778 -0.0398 -0.2086
  484MOL0     C63788   4.179   7.729   0.132 -1.2801  0.5638  0.7733
  484MOL0     C63789   4.047   7.684   0.150 -0.3796  0.9070  0.3657
  484MOL0     C63790   4.014   7.607   0.256 -0.0900  0.8268  1.1016
  484MOL0     O63791   3.890   7.548   0.279 -0.0787 -0.4040  0.2986
  484MOL0     C63792   3.773   7.588   0.207  0.2430  0.4320  0.0526
  484MOL0     C63793   3.656   7.506   0.256 -0.0048  0.1444 -0.4146
  484MOL0     C63794   3.540   7.556   0.167  0.6354  1.3117 -0.7524
  484MOL0     C63795   3.412   7.484   0.226  0.3524 -1.0058  0.0030
  484MOL0     C63796   3.287   7.528   0.152 -0.1339  0.0636  0.2531
  484MOL0     C63797   3.156   7.452   0.207  0.5247  0.3946 -0.3011
  484MOL0     C63798   3.016   7.518   0.190 -0.2826  0.1772  0.1526
  484MOL0     C63799   2.957   7.537   0.058  0.8665  0.7046 -0.4175
  484MOL0    Cl63800   2.786   7.558   0.074  0.4170 -0.0497 -0.1696
  484MOL0     C63801   4.106   7.592   0.352 -0.2640 -0.0630 -0.3540
  484MOL0     C63802   4.231   7.643   0.343 -0.0360 -0.2682  0.0982
  484MOL0     O63803   4.495   7.757   0.415  0.3993  0.8543 -0.1111
  484MOL0     C63804   4.749   7.780   0.313 -0.0177  0.7984 -0.0225
  484MOL0     C63805   4.871   7.743   0.254 -0.5709 -0.1698  0.1451
  484MOL0     N63806   5.355   7.117   0.264 -0.5201 -0.1652 -0.0336
  484MOL0     N63807   5.383   7.010   0.207 -0.6874  0.2786  0.5606
  484MOL0     C63808   6.463   6.790   0.202 -0.7956 -0.0372  0.4098
  484MOL0     C63809   6.598   6.774   0.223  0.5231 -0.4023 -0.0383
  484MOL0     C63810   7.032   6.881   0.225  0.1002 -0.2734 -0.1088
  484MOL0     C63811   7.128   6.895   0.123  0.9196  0.3580 -0.1561
  484MOL0     C63812   7.259   6.909   0.150 -0.0953  0.0400 -0.3859
  484MOL0     C63813   7.306   6.910   0.277 -0.4016 -0.0474 -0.1269
  484MOL0     O63814   7.438   6.920   0.304  0.5629  0.7030 -0.4182
  484MOL0     C63815   7.537   6.886   0.213 -0.5903 -0.5810  0.2294
  484MOL0     C63816   7.655   6.859   0.301  0.1930 -0.4372 -0.1922
  484MOL0     C63817   7.773   6.804   0.228  0.5360  0.1949 -0.1258
  484MOL0     C63818   7.888   6.787   0.333 -1.0470  0.9338 -0.4014
  484MOL0     C63819   7.901   6.664   0.420 -0.4888 -0.3300 -0.5202
  484MOL0     C63820   7.913   6.563   0.495  0.6389  0.5183 -0.7758
  484MOL0     C63821   7.219   6.891   0.385 -0.6581 -0.5788 -0.2800
  484MOL0     C63822   7.085   6.883   0.357 -0.7539  1.0852  0.0002
  484MOL0     H63823   6.675   7.038   0.414  1.1419 -1.1415  0.3649
  484MOL0     H63824   6.414   7.072   0.384  0.3933  2.8610 -2.9977
  484MOL0     H63825   6.203   6.798   0.120  2.1206  0.7073 -1.7392
  484MOL0     H63826   6.243   6.961   0.083  0.9281 -1.4965 -0.5760
  484MOL0     H63827   6.017   7.013   0.225  2.6714 -0.0729  0.5849
  484MOL0     H63828   5.984   6.844   0.201  1.0473  0.9379  1.8372
  484MOL0     H63829   5.997   6.864  -0.032 -2.1500 -0.1500  0.5269
  484MOL0     H63830   6.014   7.039  -0.041 -0.1008 -0.7962 -0.9809
  484MOL0     H63831   5.785   6.917   0.115 -0.1296 -2.4698 -1.8070
  484MOL0     H63832   5.816   7.079   0.065  1.3421  0.1021 -0.0872
  484MOL0     H63833   5.747   6.826  -0.102  3.2282 -0.3712  2.6437
  484MOL0     H63834   5.799   6.967  -0.186 -3.3958  2.6314 -1.1826
  484MOL0     H63835   5.574   7.023  -0.194  0.5016 -1.8406 -0.5941
  484MOL0     H63836   5.601   7.080  -0.027  4.2470 -0.0792  1.3320
  484MOL0     H63837   5.521   6.793  -0.104  3.6260  1.3925 -0.9734
  484MOL0     H63838   5.547   6.852   0.058 -1.9149 -0.4135  1.5785
  484MOL0     H63839   5.303   6.845  -0.008 -3.0152  1.9099  1.8599
  484MOL0     H63840   5.336   6.971  -0.128  1.5323  0.7545 -0.2736
  484MOL0     H63841   5.306   7.206  -0.046  0.7182 -0.8714 -0.9054
  484MOL0     H63842   5.364   7.421   0.153  2.3348 -1.3230  0.5892
  484MOL0     H63843   5.311   7.371   0.313  0.5856 -3.0318  0.1475
  484MOL0     H63844   5.130   7.484   0.234  0.2712 -1.4193  2.2820
  484MOL0     H63845   5.067   7.345   0.170 -0.7232  0.0495  0.3521
  484MOL0     H63846   5.246   7.527  -0.003 -0.6922  0.5986 -2.8076
  484MOL0     H63847   5.146   7.393  -0.062 -0.1479  0.0681 -0.0949
  484MOL0     H63848   4.959   7.484  -0.017  0.6777 -0.5922 -2.1843
  484MOL0     H63849   5.060   7.609  -0.106  0.3924 -3.0120 -2.0511
  484MOL0     H63850   4.785   7.660  -0.056  0.5603  1.2385  0.4159
  484MOL0     H63851   4.559   7.720   0.036 -1.1024 -0.6342  1.8047
  484MOL0     H63852   4.203   7.791   0.046  2.9796 -0.6276  0.8913
  484MOL0     H63853   3.978   7.692   0.066  1.4729  2.7218 -1.0634
  484MOL0     H63854   3.785   7.579   0.099 -2.1460 -1.6298 -0.1323
  484MOL0     H63855   3.763   7.694   0.228  2.0201  0.6096  0.1840
  484MOL0     H63856   3.651   7.526   0.364  4.4151  1.4547 -0.2799
  484MOL0     H63857   3.673   7.400   0.235 -1.4539  0.0461 -1.2313
  484MOL0     H63858   3.551   7.528   0.062  0.5075  1.3726 -0.7827
  484MOL0     H63859   3.526   7.664   0.168  1.1927  1.3893 -1.0403
  484MOL0     H63860   3.417   7.375   0.217  0.2255 -1.3728  3.4151
  484MOL0     H63861   3.399   7.501   0.333 -0.0495 -3.3084  0.3796
  484MOL0     H63862   3.300   7.496   0.048 -2.0528  0.2894 -0.0833
  484MOL0     H63863   3.267   7.632   0.178  0.4573  0.5392 -1.0775
  484MOL0     H63864   3.162   7.452   0.316 -0.7343 -0.3569 -0.2193
  484MOL0     H63865   3.159   7.348   0.172  0.3132  0.3535 -0.1946
  484MOL0     H63866   2.947   7.454   0.245 -1.4625  0.1009 -1.3479
  484MOL0     H63867   3.029   7.620   0.228 -0.9375 -0.5372  2.3971
  484MOL0     H63868   2.974   7.448  -0.004 -2.8492 -1.2770  1.0772
  484MOL0     H63869   3.004   7.624   0.011 -0.1289  0.5815 -1.6945
  484MOL0     H63870   4.084   7.546   0.448 -0.9404  0.3625 -0.2987
  484MOL0     H63871   4.308   7.631   0.419  1.9631 -0.7287 -1.8766
  484MOL0     H63872   4.744   7.818   0.415 -1.3818 -2.7578  1.4103
  484MOL0     H63873   4.960   7.727   0.314  0.5253 -1.9031 -1.7938
  484MOL0     H63874   6.409   6.713   0.149 -3.1596  1.4757  0.4449
  484MOL0     H63875   6.648   6.678   0.209  0.5447 -1.0205  3.4294
  484MOL0     H63876   7.089   6.911   0.023  0.7481  0.6404 -0.0445
  484MOL0     H63877   7.327   6.933   0.068 -1.0508 -2.0374 -1.8809
  484MOL0     H63878   7.553   6.966   0.140  0.0807  0.2689  1.2648
  484MOL0     H63879   7.506   6.790   0.171  0.7008 -1.0169  0.2052
  484MOL0     H63880   7.683   6.951   0.352  1.0960 -1.2239  0.7833
  484MOL0     H63881   7.620   6.790   0.379  0.5647 -0.8280 -0.3651
  484MOL0     H63882   7.805   6.873   0.150  1.4914  0.7777  0.7540
  484MOL0     H63883   7.759   6.706   0.182 -0.4786  0.3488 -0.1647
  484MOL0     H63884   7.987   6.784   0.286  0.8817 -1.0179  3.3095
  484MOL0     H63885   7.887   6.872   0.401 -0.3464 -1.5706  3.0429
  484MOL0     H63886   7.928   6.478   0.558  3.4842  1.5372  0.0709
  484MOL0     H63887   7.258   6.866   0.483 -0.0273  2.2499  0.2716
  484MOL0     H63888   7.018   6.862   0.440 -0.6778  2.3037  0.3967
  485MOL0     O63889  10.528   3.043   1.554  0.1733 -0.1318  0.9189
  485MOL0     C63890  10.456   2.950   1.534 -0.3949  0.5811  0.2365
  485MOL0     O63891  10.498   2.826   1.519  0.0682 -1.0346  0.1750
  485MOL0     C63892  10.623   2.794   1.552 -0.6911  0.6458 -0.1493
  485MOL0     C63893  10.659   2.734   1.678 -0.5984  0.0070 -0.6697
  485MOL0     C63894  10.792   2.690   1.698  0.3394  0.1539 -0.4708
  485MOL0     C63895  10.895   2.713   1.598  0.4095 -0.0613 -0.3203
  485MOL0     O63896  11.018   2.669   1.614 -0.2341  0.0472 -0.5330
  485MOL0     C63897  11.113   2.767   1.677  0.3552  0.0045  0.7773
  485MOL0     C63898  11.243   2.710   1.654 -1.1573 -0.4038  0.6031
  485MOL0     C63899  11.369   2.814   1.623  1.2204 -0.3136 -0.2461
  485MOL0     C63900  11.499   2.739   1.600 -1.4913  1.5272  0.3881
  485MOL0     C63901  11.586   2.735   1.738  0.1369 -0.3052  0.7395
  485MOL0     C63902  11.676   2.872   1.757  0.0077  0.3842 -0.7864
  485MOL0     C63903  11.737   2.888   1.897 -0.2840 -0.8855  0.5735
  485MOL0     C63904  11.654   2.871   2.026  0.4546 -0.2828 -0.3260
  485MOL0     N63905  11.526   2.932   2.005  0.2358 -0.1596  0.2167
  485MOL0     C63906  11.512   3.067   2.031 -0.0476  1.2285  0.4719
  485MOL0     C63907  11.376   3.080   2.029 -0.1232 -0.9459 -0.5494
  485MOL0     C63908  11.309   3.219   2.027  0.8655  0.2581 -0.3844
  485MOL0     C63909  11.283   3.281   2.166 -0.3937 -0.0219  0.3393
  485MOL0     C63910  11.265   3.193   2.285 -0.0776  1.0003 -0.5497
  485MOL0     C63911  11.166   3.078   2.271  0.1153 -0.1406 -0.0526
  485MOL0     O63912  11.081   3.081   2.387 -0.1581 -0.1199  0.6327
  485MOL0     C63913  10.971   3.003   2.397 -0.1781  0.0350  0.2407
  485MOL0     C63914  10.947   2.897   2.309 -0.0535  0.7427  0.5828
  485MOL0     C63915  10.843   2.814   2.325 -0.0236  0.0702 -0.7239
  485MOL0     C63916  10.746   2.834   2.425 -0.2362 -0.2495 -0.3708
  485MOL0     C63917  10.637   2.735   2.441  0.1062  0.5465  0.8972
  485MOL0     O63918  10.544   2.755   2.536 -0.6827 -0.2362 -0.6765
  485MOL0     C63919  10.427   2.690   2.518 -1.0708  0.7265 -0.6897
  485MOL0     C63920  10.405   2.587   2.616  0.9214  0.2774  0.1171
  485MOL0     C63921  10.284   2.515   2.607  0.4840  0.0115 -0.0200
  485MOL0     C63922  10.195   2.539   2.501 -0.1647 -0.2120  0.2022
  485MOL0     O63923  10.086   2.464   2.464 -0.3803  0.2027  0.8391
  485MOL0     C63924  10.111   2.326   2.465  0.5748  0.1756 -0.1994
  485MOL0     C63925   9.976   2.265   2.413 -0.0682 -0.8602  0.4641
  485MOL0     C63926   9.975   2.117   2.400  0.0958  0.1330  0.0961
  485MOL0     C63927   9.865   2.064   2.307 -0.0151  0.0149  0.8069
  485MOL0     C63928   9.725   2.059   2.377 -0.5945 -0.1368  0.8916
  485MOL0     C63929   9.623   2.015   2.274  1.5673  0.7732  0.3997
  485MOL0     C63930   9.474   2.025   2.319  0.0017 -0.4957 -0.1483
  485MOL0     C63931   9.376   1.987   2.202 -0.1702  0.1316  0.3278
  485MOL0    Cl63932   9.322   2.126   2.087 -0.0633 -0.6698 -0.3115
  485MOL0     C63933  10.217   2.651   2.415  0.4211  0.6956  0.3110
  485MOL0     C63934  10.338   2.731   2.423 -0.0280 -0.3202 -0.9709
  485MOL0     O63935  10.639   2.636   2.367 -0.3122 -0.1277  0.1192
  485MOL0     C63936  10.768   2.938   2.520  0.6723 -0.0683  0.1189
  485MOL0     C63937  10.875   3.021   2.506 -1.2274 -0.3641 -0.1718
  485MOL0     N63938  11.313   2.960   1.999  0.5891  0.8200 -0.0445
  485MOL0     N63939  11.400   2.873   2.002  0.6190  1.2163 -0.1000
  485MOL0     C63940  10.859   2.781   1.485 -1.4422  0.1370 -0.1762
  485MOL0     C63941  10.726   2.807   1.460 -0.1976 -0.8495 -0.0097
  485MOL0     C63942  10.305   2.970   1.562  0.8066 -0.4278  0.5909
  485MOL0     C63943  10.217   2.864   1.544  1.0792 -0.1081  0.1427
  485MOL0     C63944  10.084   2.882   1.582  0.0287 -0.3522  0.2875
  485MOL0     C63945  10.046   3.002   1.639  0.7680 -1.1075 -0.8087
  485MOL0     O63946   9.918   3.026   1.694 -0.4386 -0.0469 -0.2261
  485MOL0     C63947   9.801   2.948   1.660 -0.3430 -0.1970 -0.4371
  485MOL0     C63948   9.684   3.032   1.616  0.1315 -0.9560  0.0874
  485MOL0     C63949   9.724   3.166   1.551  0.5095  0.1922 -1.2183
  485MOL0     C63950   9.596   3.229   1.495 -0.1818 -0.1593 -0.0924
  485MOL0     C63951   9.623   3.354   1.438  0.8495 -0.6614 -0.2399
  485MOL0     C63952   9.654   3.454   1.381 -0.0466 -0.1143  0.4969
  485MOL0     C63953  10.133   3.112   1.639  1.0711 -0.5977  0.2650
  485MOL0     C63954  10.262   3.098   1.601  0.4404 -0.0049  0.4406
  485MOL0     H63955  10.588   2.715   1.757 -2.9889 -1.1942 -2.9741
  485MOL0     H63956  10.809   2.632   1.789 -0.1863  2.1321  0.9692
  485MOL0     H63957  11.099   2.797   1.781 -0.6176  1.2780  0.3083
  485MOL0     H63958  11.097   2.868   1.637  0.4522  1.2733  3.7093
  485MOL0     H63959  11.237   2.638   1.572  0.2632 -1.4008  1.3224
  485MOL0     H63960  11.274   2.641   1.733  2.3167 -0.4216 -0.6069
  485MOL0     H63961  11.366   2.867   1.718 -1.0003  0.3120 -0.5972
  485MOL0     H63962  11.346   2.882   1.540 -1.2107  0.1409  0.6980
  485MOL0     H63963  11.490   2.636   1.565 -1.1558  1.4974  0.3871
  485MOL0     H63964  11.556   2.801   1.530  0.1904  1.3324  1.5425
  485MOL0     H63965  11.653   2.649   1.741  2.1629  1.0895 -1.3777
  485MOL0     H63966  11.520   2.716   1.824  1.6877  0.6454  2.2134
  485MOL0     H63967  11.606   2.955   1.746 -1.5071 -0.5136  1.3094
  485MOL0     H63968  11.756   2.884   1.684  0.5335  1.4522 -0.0653
  485MOL0     H63969  11.810   2.806   1.894  3.3774  2.1437 -1.4085
  485MOL0     H63970  11.799   2.978   1.901 -0.6756 -0.6355  1.1330
  485MOL0     H63971  11.701   2.908   2.118 -0.0181  0.9764 -0.5777
  485MOL0     H63972  11.641   2.762   2.032  2.4867 -0.7625 -2.9751
  485MOL0     H63973  11.593   3.139   2.035  0.4941  0.7016 -0.6981
  485MOL0     H63974  11.212   3.207   1.978 -0.6674  0.5694  2.3552
  485MOL0     H63975  11.366   3.294   1.971 -0.0980  2.1352  1.0302
  485MOL0     H63976  11.204   3.357   2.156  0.0125  0.6413  1.9387
  485MOL0     H63977  11.370   3.345   2.180 -1.2611  0.8133  2.3807
  485MOL0     H63978  11.365   3.149   2.293 -0.4881 -0.0247 -0.8661
  485MOL0     H63979  11.238   3.248   2.376 -3.3391 -0.9052 -0.1941
  485MOL0     H63980  11.212   2.980   2.255  1.0154  0.6590 -3.0180
  485MOL0     H63981  11.121   3.104   2.175  0.6177  2.3118  0.2939
  485MOL0     H63982  10.999   2.865   2.219 -1.5784  2.0805 -0.8558
  485MOL0     H63983  10.824   2.731   2.258 -3.3159 -0.5292  0.7471
  485MOL0     H63984  10.483   2.561   2.686  1.5059  2.6595  0.4431
  485MOL0     H63985  10.264   2.435   2.679 -2.5587 -0.0215 -0.7971
  485MOL0     H63986  10.142   2.285   2.562 -1.3179  0.5264  0.5907
  485MOL0     H63987  10.188   2.297   2.393 -0.7861 -0.0524 -1.6225
  485MOL0     H63988   9.969   2.316   2.317  0.5079  1.9348  1.8085
  485MOL0     H63989   9.885   2.285   2.470 -0.1334  0.7216 -0.1652
  485MOL0     H63990   9.984   2.071   2.499 -0.2271  0.4287  0.2637
  485MOL0     H63991  10.068   2.095   2.347 -0.7865 -1.4908 -0.8503
  485MOL0     H63992   9.854   2.122   2.215 -1.8017 -1.3852  0.0732
  485MOL0     H63993   9.899   1.964   2.280 -0.2139  0.5482 -1.7188
  485MOL0     H63994   9.700   2.157   2.419  0.3005  0.4002  0.2176
  485MOL0     H63995   9.728   1.993   2.464  0.0720  0.5044  1.3618
  485MOL0     H63996   9.648   1.912   2.247 -3.2115 -0.7156  0.6487
  485MOL0     H63997   9.641   2.074   2.184  1.3912 -0.1115 -0.2367
  485MOL0     H63998   9.459   1.963   2.408  2.1891  4.0650  3.8458
  485MOL0     H63999   9.454   2.127   2.351  2.4328  0.2367 -0.7617
  485MOL0     H64000   9.285   1.949   2.249 -1.4916  0.9594 -1.4370
  485MOL0     H64001   9.423   1.902   2.152  1.5725 -0.0681  2.1745
  485MOL0     H64002  10.132   2.673   2.351 -0.5729 -0.1325  1.3059
  485MOL0     H64003  10.370   2.816   2.363  0.5982  0.6574  0.6975
  485MOL0     H64004  10.708   2.953   2.609  1.7853  1.1735  0.6981
  485MOL0     H64005  10.898   3.099   2.578 -3.1716  0.4664 -0.3917
  485MOL0     H64006  10.941   2.800   1.416 -0.4158 -4.1130 -0.4380
  485MOL0     H64007  10.711   2.859   1.366  2.4982  1.4553  0.6997
  485MOL0     H64008  10.258   2.776   1.496 -0.6678 -0.2237 -1.1977
  485MOL0     H64009  10.016   2.799   1.599 -3.0440  2.2562  1.8343
  485MOL0     H64010   9.756   2.886   1.738  0.7049 -1.1515 -0.5559
  485MOL0     H64011   9.829   2.884   1.576 -1.6271 -1.8004  0.2940
  485MOL0     H64012   9.628   2.972   1.543 -2.3745 -1.5234  2.3128
  485MOL0     H64013   9.626   3.048   1.707  0.8179 -3.4560  1.0502
  485MOL0     H64014   9.776   3.137   1.459 -3.1326 -5.3274 -2.0100
  485MOL0     H64015   9.775   3.238   1.615 -1.4194  0.2244  0.3803
  485MOL0     H64016   9.542   3.161   1.428  1.2656 -3.1055  1.5525
  485MOL0     H64017   9.528   3.254   1.577  1.4980 -0.2832  1.3901
  485MOL0     H64018   9.671   3.552   1.342 -0.8927 -0.6712 -1.3866
  485MOL0     H64019  10.108   3.210   1.677  0.2954 -1.3315  1.7347
  485MOL0     H64020  10.337   3.176   1.611  0.7737 -0.2337 -0.2126
  486MOL0     O64021   9.872   9.756   0.324 -0.0380  0.9243  0.1629
  486MOL0     C64022   9.863   9.675   0.225  0.4454 -0.5613  0.2544
  486MOL0     O64023   9.750   9.644   0.160  0.0767 -0.1452  0.5061
  486MOL0     C64024   9.632   9.709   0.190 -0.4464  0.5369 -0.4212
  486MOL0     C64025   9.577   9.705   0.320 -0.2552  0.4192  1.2402
  486MOL0     C64026   9.453   9.771   0.335 -0.4099  0.2852 -0.1626
  486MOL0     C64027   9.380   9.835   0.229 -0.0871 -0.5042  0.6690
  486MOL0     O64028   9.257   9.881   0.240  0.4563 -0.4075  0.3049
  486MOL0     C64029   9.236   9.971   0.348 -0.3541  0.1204 -0.3029
  486MOL0     C64030   9.093  10.025   0.340 -0.0087 -0.3652 -1.1760
  486MOL0     C64031   8.984   9.925   0.330 -0.1922  0.7624  0.8368
  486MOL0     C64032   8.982   9.809   0.433  0.5120 -0.6275 -0.1450
  486MOL0     C64033   8.856   9.721   0.443 -0.4436  0.6355 -0.0727
  486MOL0     C64034   8.725   9.802   0.473 -1.4649  0.0395 -0.2482
  486MOL0     C64035   8.606   9.716   0.515  0.1223 -0.1499 -0.2408
  486MOL0     C64036   8.518   9.664   0.398  0.3762  0.6620  0.0810
  486MOL0     N64037   8.388   9.597   0.431  0.1247  0.0577 -0.9007
  486MOL0     C64038   8.334   9.600   0.562 -0.0480  0.6202  0.0085
  486MOL0     C64039   8.218   9.546   0.547 -0.0242 -0.5553  0.4188
  486MOL0     C64040   8.106   9.509   0.632  1.2208  0.5315 -0.0565
  486MOL0     C64041   8.032   9.385   0.579  0.3602  0.2219  0.3966
  486MOL0     C64042   7.934   9.321   0.688 -0.1559  0.4353 -0.2688
  486MOL0     C64043   7.858   9.200   0.648  0.8237 -0.0937  0.5430
  486MOL0     O64044   7.773   9.227   0.530 -0.0826  0.4567  0.3289
  486MOL0     C64045   7.651   9.167   0.538  0.7518 -0.5533  0.8147
  486MOL0     C64046   7.605   9.074   0.441 -0.7665  0.2381 -0.2971
  486MOL0     C64047   7.474   9.026   0.429 -0.5641 -0.0608 -0.3528
  486MOL0     C64048   7.371   9.086   0.513 -0.3167 -0.5266 -0.6430
  486MOL0     C64049   7.232   9.043   0.488  1.3547  0.7827  0.2169
  486MOL0     O64050   7.198   8.948   0.399  0.2968  0.7672  0.8893
  486MOL0     C64051   7.073   8.896   0.383 -0.4134  0.4761 -0.3920
  486MOL0     C64052   7.048   8.836   0.258  0.1860  0.0764 -0.7538
  486MOL0     C64053   6.918   8.783   0.241  0.0106  0.2266  0.8574
  486MOL0     C64054   6.824   8.794   0.336 -0.8780  0.6893  0.2858
  486MOL0     O64055   6.701   8.746   0.294 -0.3508  0.0921  0.6659
  486MOL0     C64056   6.604   8.714   0.393  0.3392  0.0077  0.2783
  486MOL0     C64057   6.479   8.654   0.331  0.2149  0.0504  0.9803
  486MOL0     C64058   6.424   8.532   0.397  0.0774  0.1443 -0.2029
  486MOL0     C64059   6.278   8.495   0.355  0.1178 -0.3234 -0.9881
  486MOL0     C64060   6.236   8.366   0.419  1.0575 -0.6784 -0.6903
  486MOL0     C64061   6.192   8.382   0.567 -0.1053 -0.1658  0.4798
  486MOL0     C64062   6.150   8.241   0.611 -0.4650 -0.0112  0.1957
  486MOL0     C64063   6.119   8.246   0.760 -0.1995 -0.1313  0.6059
  486MOL0    Cl64064   6.091   8.084   0.817 -0.1207  0.1507 -0.2848
  486MOL0     C64065   6.853   8.840   0.461  0.2243  0.1304 -0.9853
  486MOL0     C64066   6.975   8.884   0.488 -0.2380  0.0423  0.0756
  486MOL0     O64067   7.151   9.104   0.561 -1.2264 -0.6743 -0.1270
  486MOL0     C64068   7.412   9.185   0.603 -0.5162 -0.0441  0.7595
  486MOL0     C64069   7.552   9.216   0.626  0.0524 -0.6268  0.1297
  486MOL0     N64070   8.198   9.527   0.408  0.2614  0.3838  0.6773
  486MOL0     N64071   8.303   9.553   0.339  0.4157  0.0721  0.0811
  486MOL0     C64072   9.426   9.824   0.101  0.0326 -0.0253  0.3115
  486MOL0     C64073   9.561   9.778   0.086 -0.6255 -0.0902  0.0965
  486MOL0     C64074   9.997   9.620   0.182 -0.2373  0.2409 -1.3800
  486MOL0     C64075  10.119   9.640   0.249  0.3693 -0.7486 -0.0799
  486MOL0     C64076  10.239   9.594   0.202  0.7654 -0.9118 -0.9021
  486MOL0     C64077  10.241   9.530   0.077 -1.0957  1.0880 -0.3528
  486MOL0     O64078  10.364   9.491   0.033 -0.1780  0.3340  0.2784
  486MOL0     C64079  10.371   9.363  -0.027  0.5319  0.2812 -1.0438
  486MOL0     C64080  10.491   9.282   0.029  0.6406  0.2955 -0.2740
  486MOL0     C64081  10.518   9.291   0.184 -0.1692  0.2988  0.6560
  486MOL0     C64082  10.649   9.211   0.222  0.0942  0.2566 -0.0778
  486MOL0     C64083  10.774   9.271   0.168  1.2627  0.2545 -0.6492
  486MOL0     C64084  10.876   9.323   0.128 -0.0261 -1.5417 -0.4204
  486MOL0     C64085  10.128   9.526   0.005  0.0075  0.5259  0.4213
  486MOL0     C64086  10.006   9.550   0.068 -0.9970  0.0269  0.7374
  486MOL0     H64087   9.631   9.664   0.404  2.5301 -0.0831 -0.6686
  486MOL0     H64088   9.412   9.751   0.433 -0.8482 -0.6524 -0.5221
  486MOL0     H64089   9.316  10.045   0.342  2.8117 -2.9555  0.8285
  486MOL0     H64090   9.241   9.924   0.447 -0.8770  0.9314  0.1218
  486MOL0     H64091   9.076  10.098   0.260 -0.3373  1.1040  0.1812
  486MOL0     H64092   9.079  10.079   0.434  0.2297 -0.0824 -1.2983
  486MOL0     H64093   8.973   9.885   0.229 -1.6583 -0.9696  1.6369
  486MOL0     H64094   8.895   9.989   0.338  0.3025  1.4535  0.8963
  486MOL0     H64095   9.057   9.735   0.406 -0.7176 -1.5453 -1.1358
  486MOL0     H64096   9.009   9.843   0.534  0.1605 -1.6526  0.3059
  486MOL0     H64097   8.869   9.655   0.530  0.1239  3.6043  2.2786
  486MOL0     H64098   8.839   9.677   0.345  0.8828 -0.1061  0.0094
  486MOL0     H64099   8.688   9.863   0.389 -1.7501  1.5823  0.9635
  486MOL0     H64100   8.752   9.868   0.555  3.2786 -2.0247  0.2020
  486MOL0     H64101   8.636   9.635   0.581 -1.0908 -0.0293  0.4828
  486MOL0     H64102   8.543   9.793   0.561  0.7048  0.9152 -1.1480
  486MOL0     H64103   8.580   9.594   0.340 -0.3566 -0.6808  0.8699
  486MOL0     H64104   8.480   9.742   0.332  0.7726 -0.2077 -1.2221
  486MOL0     H64105   8.377   9.641   0.654 -0.1925  0.4580  0.1497
  486MOL0     H64106   8.029   9.587   0.642 -2.3941 -2.4062 -2.0436
  486MOL0     H64107   8.139   9.488   0.734  2.3503  2.1292 -0.0460
  486MOL0     H64108   8.105   9.313   0.541  0.4724 -0.2813  1.5293
  486MOL0     H64109   7.961   9.416   0.502  0.8558  1.3365  0.3677
  486MOL0     H64110   8.001   9.291   0.769  0.5694  2.3331 -0.1240
  486MOL0     H64111   7.865   9.399   0.723  1.0987  0.6359  1.9299
  486MOL0     H64112   7.807   9.161   0.737  0.0707  2.7505  1.4585
  486MOL0     H64113   7.925   9.127   0.603 -3.3158 -3.8083 -0.3288
  486MOL0     H64114   7.682   9.037   0.375  2.5867  1.6161  2.4991
  486MOL0     H64115   7.453   8.956   0.349  1.1489  0.5545 -1.3715
  486MOL0     H64116   7.124   8.843   0.180 -0.6253 -0.4360 -1.6116
  486MOL0     H64117   6.876   8.745   0.148  0.4231 -0.6912  1.0422
  486MOL0     H64118   6.579   8.801   0.454 -0.4288 -0.4460  0.6119
  486MOL0     H64119   6.644   8.633   0.455 -1.4433 -0.4881  0.8303
  486MOL0     H64120   6.508   8.639   0.226 -0.2206  2.2968  0.4727
  486MOL0     H64121   6.401   8.731   0.324  0.7940  0.5827  0.1786
  486MOL0     H64122   6.403   8.561   0.501 -1.3718  1.8642 -0.9294
  486MOL0     H64123   6.493   8.447   0.393  0.9957  0.7579  1.4973
  486MOL0     H64124   6.206   8.570   0.390 -1.6171 -1.4878 -1.9136
  486MOL0     H64125   6.268   8.492   0.246  0.2884 -2.3291 -0.9886
  486MOL0     H64126   6.317   8.294   0.409  3.1851  1.1221  2.0193
  486MOL0     H64127   6.150   8.319   0.369  0.0856  1.3127 -0.9805
  486MOL0     H64128   6.103   8.445   0.577 -1.4317 -2.2090  3.0789
  486MOL0     H64129   6.278   8.421   0.622  0.3511 -2.1027  1.2307
  486MOL0     H64130   6.072   8.212   0.540 -0.2331  5.7810 -3.1543
  486MOL0     H64131   6.242   8.183   0.600 -0.4235  0.2530 -1.0349
  486MOL0     H64132   6.039   8.321   0.773 -0.0854  0.3595 -1.2664
  486MOL0     H64133   6.208   8.280   0.813  1.4665 -3.3895  0.0985
  486MOL0     H64134   6.782   8.832   0.543  2.1482  2.0276  1.0125
  486MOL0     H64135   6.989   8.917   0.590  0.5405  1.0159 -0.3215
  486MOL0     H64136   7.327   9.225   0.658 -1.0966 -1.0886  0.6498
  486MOL0     H64137   7.566   9.300   0.692  0.3258  0.3434 -1.1330
  486MOL0     H64138   9.374   9.862   0.013 -0.5771  1.9342  1.4518
  486MOL0     H64139   9.613   9.791  -0.008  0.7462  1.8296  1.0494
  486MOL0     H64140  10.119   9.682   0.349  1.7344 -0.6964 -0.0840
  486MOL0     H64141  10.325   9.629   0.258 -0.6831 -0.0918  0.9147
  486MOL0     H64142  10.371   9.364  -0.136  1.5625  2.5159 -1.0923
  486MOL0     H64143  10.284   9.307   0.009  1.4471  0.6785  2.1017
  486MOL0     H64144  10.476   9.176   0.005 -1.0141 -0.1113  2.2277
  486MOL0     H64145  10.577   9.317  -0.029 -1.4746  1.1918 -3.0992
  486MOL0     H64146  10.429   9.246   0.231 -1.0128  2.3171  1.0819
  486MOL0     H64147  10.520   9.392   0.225  1.7922  0.3947  0.3887
  486MOL0     H64148  10.653   9.224   0.330  2.1520 -0.5249 -0.0156
  486MOL0     H64149  10.628   9.106   0.198 -0.1453 -0.1669  1.8583
  486MOL0     H64150  10.968   9.366   0.092  0.0554 -0.4119  1.0711
  486MOL0     H64151  10.133   9.490  -0.097  0.1411  2.2667 -0.2231
  486MOL0     H64152   9.927   9.527  -0.004 -0.0084 -1.4700  0.0867
  487MOL0     O64153   4.889   2.222   5.572  0.3807 -0.3671 -0.3194
  487MOL0     C64154   4.933   2.333   5.608  0.5213 -0.0475  0.3101
  487MOL0     O64155   4.859   2.422   5.672  0.2513  0.1477  1.1136
  487MOL0     C64156   4.744   2.386   5.722  0.2387 -0.0897 -0.1480
  487MOL0     C64157   4.635   2.366   5.626  0.1720 -0.1899 -0.2046
  487MOL0     C64158   4.516   2.313   5.667 -1.1666  0.1342  0.0289
  487MOL0     C64159   4.504   2.275   5.806 -0.2554 -0.0115 -0.4615
  487MOL0     O64160   4.390   2.222   5.852 -0.2917 -0.6880  0.2964
  487MOL0     C64161   4.270   2.303   5.811 -0.7267  0.1697  0.6487
  487MOL0     C64162   4.145   2.240   5.873  0.4983 -0.7828  0.3197
  487MOL0     C64163   4.027   2.344   5.881 -0.7361  0.0527 -0.0628
  487MOL0     C64164   3.904   2.286   5.973  0.1683  0.6490  0.4403
  487MOL0     C64165   3.777   2.382   5.966 -0.3154  0.3258 -0.7052
  487MOL0     C64166   3.701   2.391   6.099 -0.2846 -0.0015  0.0949
  487MOL0     C64167   3.639   2.252   6.125  0.0423  0.3495  0.4184
  487MOL0     C64168   3.618   2.232   6.277 -0.3900 -0.5373 -0.3924
  487MOL0     N64169   3.730   2.160   6.351 -0.0964 -0.6173  0.0416
  487MOL0     C64170   3.794   2.054   6.297  0.3900  0.8133 -0.2711
  487MOL0     C64171   3.880   2.018   6.394 -0.7320  0.4064 -0.8418
  487MOL0     C64172   3.979   1.901   6.404 -0.6981  0.3873 -0.1883
  487MOL0     C64173   4.109   1.945   6.325  0.5216  0.4269  0.1764
  487MOL0     C64174   4.199   1.812   6.308 -0.3965 -0.5152 -0.1966
  487MOL0     C64175   4.341   1.841   6.239 -0.2434  0.2343 -0.1558
  487MOL0     O64176   4.426   1.903   6.341 -0.6736  0.1452 -0.1442
  487MOL0     C64177   4.543   1.973   6.308  0.0034  0.0235  0.7424
  487MOL0     C64178   4.605   1.978   6.182 -1.3093  0.5887 -0.0421
  487MOL0     C64179   4.716   2.059   6.158  0.3322 -0.1477  0.0545
  487MOL0     C64180   4.760   2.143   6.259  0.1064  0.1413 -0.2842
  487MOL0     C64181   4.889   2.231   6.255 -0.6658  0.3858 -1.0516
  487MOL0     O64182   4.946   2.241   6.132  0.6725 -0.5469 -0.3557
  487MOL0     C64183   5.079   2.284   6.108 -0.5000  0.5897 -0.5304
  487MOL0     C64184   5.186   2.288   6.200 -0.0223 -0.3514 -0.2035
  487MOL0     C64185   5.303   2.355   6.163  0.3132 -0.3612  0.2804
  487MOL0     C64186   5.326   2.400   6.036  0.3525  0.2546 -0.4495
  487MOL0     O64187   5.443   2.458   6.018  0.0345  0.5082  0.4961
  487MOL0     C64188   5.462   2.525   5.894 -0.3283 -0.1241  0.3273
  487MOL0     C64189   5.595   2.607   5.887 -0.2829 -0.3825 -0.9498
  487MOL0     C64190   5.644   2.675   6.010  0.6292 -0.8341 -0.5209
  487MOL0     C64191   5.779   2.733   5.986 -0.6557  0.0638  0.6745
  487MOL0     C64192   5.897   2.649   5.949 -0.0806 -0.2719  0.8562
  487MOL0     C64193   6.020   2.744   5.970 -0.6564  0.1795  0.2827
  487MOL0     C64194   6.142   2.657   5.941 -0.4642 -0.9835  0.2720
  487MOL0     C64195   6.188   2.583   6.065  1.0431  0.7342 -0.1396
  487MOL0    Cl64196   6.343   2.509   6.012 -0.0062 -0.2388 -0.1799
  487MOL0     C64197   5.223   2.391   5.951  0.1974  0.4099 -0.0843
  487MOL0     C64198   5.100   2.321   5.974 -0.7821  0.1356  0.2468
  487MOL0     O64199   4.940   2.274   6.359 -0.1698 -0.2541 -0.5302
  487MOL0     C64200   4.697   2.152   6.377 -0.0929 -0.2803  0.3069
  487MOL0     C64201   4.597   2.068   6.397 -0.0079  0.0600 -0.9127
  487MOL0     N64202   3.863   2.111   6.500 -0.5208 -0.2310  0.5996
  487MOL0     N64203   3.775   2.192   6.472  0.6498  0.0993 -0.4535
  487MOL0     C64204   4.600   2.294   5.896  0.3108  0.1367 -0.7447
  487MOL0     C64205   4.719   2.354   5.858 -0.8090  0.6678  0.1567
  487MOL0     C64206   5.066   2.373   5.565 -0.6848 -1.0621 -0.0870
  487MOL0     C64207   5.111   2.507   5.575 -0.1504 -0.1309  0.4880
  487MOL0     C64208   5.238   2.541   5.525  0.4215 -0.6239  0.8825
  487MOL0     C64209   5.327   2.441   5.487  0.4564  1.0743  0.1848
  487MOL0     O64210   5.452   2.473   5.466  0.1848 -0.1431  0.3747
  487MOL0     C64211   5.490   2.490   5.331  0.4043 -0.0834  0.1579
  487MOL0     C64212   5.651   2.484   5.335  0.3871 -0.3370 -0.4837
  487MOL0     C64213   5.706   2.608   5.411 -0.1228  0.1489  1.1363
  487MOL0     C64214   5.861   2.628   5.392  0.5475  0.1352  0.2575
  487MOL0     C64215   5.908   2.720   5.499 -0.3999  0.8466 -0.4573
  487MOL0     C64216   5.918   2.812   5.578  1.0332  0.8404 -0.1496
  487MOL0     C64217   5.283   2.308   5.476  0.3824 -0.5252 -0.4443
  487MOL0     C64218   5.155   2.272   5.511  0.1220  0.6285 -0.8857
  487MOL0     H64219   4.651   2.387   5.521 -0.0908  1.1353 -0.0047
  487MOL0     H64220   4.438   2.308   5.592  1.2548 -0.7879 -2.6320
  487MOL0     H64221   4.260   2.313   5.703 -0.1691 -0.1259  0.5673
  487MOL0     H64222   4.284   2.404   5.852  0.6106  0.2238  0.1143
  487MOL0     H64223   4.181   2.211   5.972  1.3177 -1.2881 -0.1143
  487MOL0     H64224   4.103   2.147   5.834 -1.2196  0.0459  0.0972
  487MOL0     H64225   3.995   2.359   5.778  1.8097 -0.1453 -0.9413
  487MOL0     H64226   4.075   2.428   5.932 -1.8390 -0.4929  1.9951
  487MOL0     H64227   3.871   2.184   5.952  1.6835  0.5730 -1.9319
  487MOL0     H64228   3.940   2.275   6.076  0.7356 -0.8193  0.1129
  487MOL0     H64229   3.715   2.350   5.882  1.8831 -0.7589 -1.9846
  487MOL0     H64230   3.803   2.484   5.937 -0.5042 -0.1509 -2.6675
  487MOL0     H64231   3.617   2.460   6.094 -1.6019 -1.6244 -1.3820
  487MOL0     H64232   3.768   2.425   6.179  0.0787 -0.4338 -0.0221
  487MOL0     H64233   3.538   2.253   6.082 -1.8786 -0.3997  4.4906
  487MOL0     H64234   3.696   2.165   6.091  0.0402  0.1866  0.8348
  487MOL0     H64235   3.531   2.166   6.285  0.1673 -1.0753  1.6320
  487MOL0     H64236   3.594   2.328   6.323  1.8077  0.3863 -1.0338
  487MOL0     H64237   3.785   1.999   6.204  2.0725  0.5787 -0.3264
  487MOL0     H64238   3.950   1.805   6.360  3.4229 -1.4075  0.5629
  487MOL0     H64239   4.001   1.878   6.508 -0.4083  0.6044 -0.2001
  487MOL0     H64240   4.153   2.020   6.391 -0.2280  0.6501  0.4361
  487MOL0     H64241   4.084   1.992   6.229  1.2666 -0.7348 -0.6048
  487MOL0     H64242   4.206   1.757   6.402  1.4514 -1.3000 -0.7338
  487MOL0     H64243   4.145   1.745   6.239  1.0901  1.2111 -3.2355
  487MOL0     H64244   4.328   1.900   6.148  0.4750  1.1913  0.3410
  487MOL0     H64245   4.384   1.752   6.193  1.0968 -0.8749  2.9631
  487MOL0     H64246   4.589   1.911   6.099  0.5122 -0.1421  0.1412
  487MOL0     H64247   4.771   2.050   6.065 -0.4126  0.6499 -0.4799
  487MOL0     H64248   5.179   2.248   6.301 -0.5173  4.9853  2.2310
  487MOL0     H64249   5.376   2.363   6.243 -1.3295 -5.1718  2.6681
  487MOL0     H64250   5.378   2.595   5.889  0.0080  0.3083  0.6562
  487MOL0     H64251   5.466   2.456   5.810  0.6857  2.4874 -1.9042
  487MOL0     H64252   5.571   2.686   5.816 -0.6139 -0.6081 -1.0943
  487MOL0     H64253   5.674   2.546   5.842  0.7035 -0.5106  0.8586
  487MOL0     H64254   5.649   2.596   6.086 -1.6338  1.5057  2.3307
  487MOL0     H64255   5.562   2.737   6.049 -0.0983 -0.6731 -2.2222
  487MOL0     H64256   5.771   2.811   5.909 -3.0148 -1.0921 -0.3551
  487MOL0     H64257   5.812   2.794   6.071  3.3275  1.5516 -1.6540
  487MOL0     H64258   5.898   2.611   5.847  1.8150 -0.9928  1.1013
  487MOL0     H64259   5.895   2.554   6.003  3.5314 -2.7773 -2.8233
  487MOL0     H64260   6.024   2.772   6.076  2.7203  0.2527  0.2255
  487MOL0     H64261   6.012   2.835   5.910 -2.0990  0.0082  0.1642
  487MOL0     H64262   6.119   2.591   5.858  0.0083  0.4166 -1.0167
  487MOL0     H64263   6.222   2.724   5.906  0.7486 -2.0023  1.0026
  487MOL0     H64264   6.117   2.510   6.102  1.2321  1.0062  0.7929
  487MOL0     H64265   6.209   2.658   6.142  2.9118  0.6995 -0.5451
  487MOL0     H64266   5.234   2.428   5.849 -0.3650 -0.7803 -0.6035
  487MOL0     H64267   5.015   2.314   5.906 -0.6192 -2.4246  0.2012
  487MOL0     H64268   4.727   2.226   6.451  1.9028  0.2110 -0.9181
  487MOL0     H64269   4.537   2.079   6.487 -2.5615 -1.1751 -2.3613
  487MOL0     H64270   4.589   2.268   6.001  2.8902 -0.4901 -0.5642
  487MOL0     H64271   4.802   2.359   5.927  2.6680 -3.4593 -3.1699
  487MOL0     H64272   5.045   2.583   5.615 -0.4157 -0.6569  1.0619
  487MOL0     H64273   5.259   2.648   5.518  1.0836 -0.7421  1.0418
  487MOL0     H64274   5.453   2.582   5.285  2.0005  1.0000  0.9685
  487MOL0     H64275   5.462   2.406   5.267  0.3572  2.5143 -3.5468
  487MOL0     H64276   5.676   2.385   5.373 -0.6864 -1.5228 -2.6469
  487MOL0     H64277   5.690   2.488   5.233  0.7520 -1.9462 -0.4254
  487MOL0     H64278   5.666   2.606   5.513 -0.1745  1.0586  1.1440
  487MOL0     H64279   5.653   2.692   5.364  0.6830 -1.4773 -3.0674
  487MOL0     H64280   5.921   2.537   5.395 -1.1950 -1.0488  0.7553
  487MOL0     H64281   5.880   2.669   5.292 -1.7018 -3.0457 -1.6824
  487MOL0     H64282   5.919   2.901   5.637 -1.5726 -0.4538  2.0710
  487MOL0     H64283   5.360   2.247   5.431  0.1448  0.9489 -3.0850
  487MOL0     H64284   5.131   2.167   5.518 -0.2695  0.8338  2.8402
  488MOL0     O64285   3.416   3.599   5.728  0.2975  0.1332  0.0113
  488MOL0     C64286   3.397   3.533   5.628  0.5673 -0.2443 -0.3837
  488MOL0     O64287   3.278   3.491   5.584 -0.2456 -1.0446  0.4574
  488MOL0     C64288   3.171   3.504   5.666  0.0190 -0.3519 -0.3547
  488MOL0     C64289   3.086   3.617   5.658  0.2241 -0.3616  0.1665
  488MOL0     C64290   2.973   3.637   5.739  0.0770  0.0349  0.0539
  488MOL0     C64291   2.932   3.528   5.822  0.4814  0.2714  0.0657
  488MOL0     O64292   2.811   3.519   5.890  0.3684  0.7986 -0.3938
  488MOL0     C64293   2.707   3.614   5.876 -0.2198 -0.4239  0.3831
  488MOL0     C64294   2.609   3.569   5.978  0.4954 -0.5345  0.0921
  488MOL0     C64295   2.480   3.645   5.960  0.0241 -0.9667 -0.6214
  488MOL0     C64296   2.366   3.601   6.052 -0.1499  0.0955 -0.0305
  488MOL0     C64297   2.245   3.687   6.033  0.3818  0.0040  0.0715
  488MOL0     C64298   2.118   3.595   6.070 -0.1529 -0.2349 -0.1632
  488MOL0     C64299   1.985   3.660   6.030  0.3041  0.8509 -0.3653
  488MOL0     C64300   1.955   3.766   6.137  0.6629  0.3378  0.7394
  488MOL0     N64301   1.829   3.835   6.092 -0.3199  0.5153 -0.6582
  488MOL0     C64302   1.829   3.922   5.990  0.5824  0.0625 -0.7521
  488MOL0     C64303   1.699   3.956   5.982  0.4410  0.1756  0.6265
  488MOL0     C64304   1.637   4.057   5.892 -0.0127 -0.4064 -0.4041
  488MOL0     C64305   1.600   4.190   5.964  0.0312 -0.2004  0.0349
  488MOL0     C64306   1.495   4.277   5.892  0.6178 -1.0805 -0.1624
  488MOL0     C64307   1.350   4.223   5.885  0.5236  1.0618 -0.3010
  488MOL0     O64308   1.277   4.286   5.993 -0.3976 -0.1753  0.1892
  488MOL0     C64309   1.148   4.257   6.017 -0.1912 -0.2802  0.4676
  488MOL0     C64310   1.070   4.344   6.091 -0.0076 -0.0843 -0.3807
  488MOL0     C64311   0.939   4.314   6.130  0.5206  1.0349  0.7125
  488MOL0     C64312   0.877   4.195   6.083 -0.3743  0.0882  0.0385
  488MOL0     C64313   0.749   4.145   6.125 -0.1273 -0.1038 -0.0292
  488MOL0     O64314   0.712   4.023   6.067  0.3283 -0.3484  0.1888
  488MOL0     C64315   0.585   3.988   6.114 -0.0060  0.1623  0.2345
  488MOL0     C64316   0.567   3.909   6.227 -0.5089 -0.5946  0.3365
  488MOL0     C64317   0.437   3.867   6.261  0.5534 -0.1505  0.2529
  488MOL0     C64318   0.325   3.909   6.187 -0.3287  0.3351 -0.3487
  488MOL0     O64319   0.199   3.874   6.233 -0.2511  0.6018 -0.5401
  488MOL0     C64320   0.120   3.980   6.291 -0.7482  0.2813  0.5628
  488MOL0     C64321  -0.030   3.943   6.318 -0.0139 -0.0884 -0.3895
  488MOL0     C64322  -0.114   3.947   6.191  0.0211 -0.5936 -0.0620
  488MOL0     C64323  -0.270   3.921   6.225  0.2101 -0.1492  0.3974
  488MOL0     C64324  -0.346   3.969   6.108 -0.7302 -0.4871  0.1844
  488MOL0     C64325  -0.384   4.120   6.135 -0.2280  0.4755 -0.4504
  488MOL0     C64326  -0.493   4.172   6.037 -0.2218  0.1486 -0.7297
  488MOL0     C64327  -0.437   4.186   5.901 -0.9950 -0.1716  0.2354
  488MOL0    Cl64328  -0.542   4.280   5.794 -0.1646 -0.2202 -0.2497
  488MOL0     C64329   0.336   3.987   6.070 -0.0246  0.6391  0.2271
  488MOL0     C64330   0.469   4.028   6.031  0.3532 -0.9227 -0.3595
  488MOL0     O64331   0.683   4.218   6.201  0.1674 -0.0379 -0.4344
  488MOL0     C64332   0.962   4.104   6.012 -0.0841  0.3121 -0.1064
  488MOL0     C64333   1.090   4.140   5.972  0.4745 -0.2549  0.3869
  488MOL0     N64334   1.635   3.903   6.086 -0.0600 -0.0726  0.3239
  488MOL0     N64335   1.709   3.823   6.146 -1.0673 -0.5631 -0.1234
  488MOL0     C64336   3.017   3.424   5.840  0.0377  0.6471 -0.5748
  488MOL0     C64337   3.137   3.403   5.759  0.8286 -0.5382 -0.1090
  488MOL0     C64338   3.518   3.475   5.560  0.3855  0.0165 -0.3170
  488MOL0     C64339   3.497   3.412   5.432 -0.7916  0.6565  0.9101
  488MOL0     C64340   3.611   3.359   5.371 -0.4972  0.2894  0.1831
  488MOL0     C64341   3.737   3.371   5.420  0.2492 -0.3722  0.0779
  488MOL0     O64342   3.831   3.344   5.323  0.0962  0.0537  0.1051
  488MOL0     C64343   3.964   3.398   5.337  0.9008 -0.5157 -0.0995
  488MOL0     C64344   4.053   3.326   5.236 -0.2367  0.5662  0.1309
  488MOL0     C64345   4.186   3.405   5.210 -0.2462 -0.3760 -0.1530
  488MOL0     C64346   4.301   3.336   5.124 -0.1270 -0.5972 -0.0481
  488MOL0     C64347   4.257   3.296   4.993 -0.2481  0.4941  0.5548
  488MOL0     C64348   4.249   3.248   4.880 -0.1640 -0.9530 -0.2905
  488MOL0     C64349   3.757   3.439   5.543 -0.1683  0.8577 -0.0673
  488MOL0     C64350   3.648   3.487   5.612  0.4467 -0.8786  0.4492
  488MOL0     H64351   3.090   3.699   5.588  0.4956  1.9559  2.7348
  488MOL0     H64352   2.900   3.717   5.726 -0.0497  0.0669  0.8870
  488MOL0     H64353   2.669   3.611   5.774 -2.6258 -0.0953  1.1999
  488MOL0     H64354   2.755   3.710   5.894  1.6615 -1.1694 -0.3816
  488MOL0     H64355   2.639   3.580   6.083  2.4522 -1.1093 -0.3635
  488MOL0     H64356   2.589   3.464   5.955 -1.8806  0.0732 -0.9081
  488MOL0     H64357   2.455   3.627   5.855 -0.2174 -1.7332 -0.4308
  488MOL0     H64358   2.508   3.750   5.975  0.6825 -1.3117  0.7321
  488MOL0     H64359   2.350   3.494   6.032  4.6911 -0.6767 -1.0706
  488MOL0     H64360   2.396   3.602   6.157  2.3566  0.8972 -0.6877
  488MOL0     H64361   2.239   3.730   5.933 -0.3542  1.5027  0.7115
  488MOL0     H64362   2.233   3.777   6.094 -1.1037  0.2085 -0.4763
  488MOL0     H64363   2.132   3.574   6.176  2.0635  1.0893 -0.1386
  488MOL0     H64364   2.123   3.506   6.006 -2.5354 -1.1856  0.8246
  488MOL0     H64365   1.995   3.695   5.927  0.8406  0.3519 -0.4890
  488MOL0     H64366   1.906   3.585   6.036 -2.0654  3.2290  0.0605
  488MOL0     H64367   2.040   3.835   6.146 -0.7902  2.0087  2.4331
  488MOL0     H64368   1.932   3.714   6.231 -1.4867 -2.0616 -0.9685
  488MOL0     H64369   1.909   3.981   5.946 -0.6895  4.2063  1.9676
  488MOL0     H64370   1.546   4.011   5.853 -0.1215 -0.5035 -0.0484
  488MOL0     H64371   1.694   4.076   5.801 -0.1770 -2.2671 -0.9338
  488MOL0     H64372   1.691   4.248   5.979  1.2788 -1.3960 -2.2990
  488MOL0     H64373   1.562   4.164   6.063  1.7934 -2.5449  0.1848
  488MOL0     H64374   1.493   4.370   5.950  4.6302  0.6401 -2.4046
  488MOL0     H64375   1.531   4.294   5.790 -1.0051 -3.3853 -1.2155
  488MOL0     H64376   1.353   4.114   5.889  2.4092  0.9794 -2.0661
  488MOL0     H64377   1.293   4.256   5.797  0.3742 -1.0528 -1.0610
  488MOL0     H64378   1.118   4.425   6.145 -1.5029 -0.6074  1.8535
  488MOL0     H64379   0.889   4.377   6.203  0.0881  1.6222 -0.0633
  488MOL0     H64380   0.651   3.879   6.288  1.9529  2.3221 -1.3464
  488MOL0     H64381   0.426   3.804   6.348  2.0754 -0.0045  0.5859
  488MOL0     H64382   0.128   4.066   6.224 -0.1341  1.1431  1.6963
  488MOL0     H64383   0.167   4.025   6.380 -0.7707  0.9809  0.2262
  488MOL0     H64384  -0.082   4.007   6.390 -0.4404 -0.4480 -0.3748
  488MOL0     H64385  -0.035   3.840   6.357  2.1018 -1.0696 -2.4487
  488MOL0     H64386  -0.068   3.871   6.127  0.5784 -0.9764  0.7768
  488MOL0     H64387  -0.097   4.048   6.152 -1.3546 -1.1670 -2.3745
  488MOL0     H64388  -0.279   3.812   6.227 -0.4934 -0.4559 -4.7569
  488MOL0     H64389  -0.293   3.972   6.319  0.3893  0.6387  0.0244
  488MOL0     H64390  -0.433   3.903   6.103  0.3840 -1.8938 -1.8093
  488MOL0     H64391  -0.280   3.975   6.021 -2.6535  2.6473 -1.2353
  488MOL0     H64392  -0.297   4.187   6.134 -0.6249  1.0382  0.9137
  488MOL0     H64393  -0.417   4.123   6.239  0.6032  0.9771 -0.1980
  488MOL0     H64394  -0.576   4.101   6.028  0.6673 -0.8633 -1.1538
  488MOL0     H64395  -0.534   4.270   6.064  0.5029  0.1018  0.6164
  488MOL0     H64396  -0.413   4.086   5.863 -0.2111  0.0071  0.2303
  488MOL0     H64397  -0.346   4.246   5.913 -1.2690 -0.2563  3.7589
  488MOL0     H64398   0.245   4.026   6.028 -0.8270 -0.6449  0.7138
  488MOL0     H64399   0.484   4.094   5.946  0.2706  1.5537  1.4082
  488MOL0     H64400   0.935   4.003   5.985  0.1896  0.2039  0.0135
  488MOL0     H64401   1.150   4.067   5.917 -0.9269 -1.5800  0.5348
  488MOL0     H64402   2.968   3.352   5.905 -1.5197 -0.8240 -3.1844
  488MOL0     H64403   3.213   3.327   5.779  1.7285  0.4946  0.5349
  488MOL0     H64404   3.407   3.395   5.376  0.2608  1.0511 -0.9778
  488MOL0     H64405   3.601   3.319   5.271 -3.0343  4.4653 -1.5176
  488MOL0     H64406   4.002   3.391   5.439 -0.8458 -0.8618  0.5653
  488MOL0     H64407   3.946   3.504   5.314 -0.8924 -1.1129 -1.7762
  488MOL0     H64408   4.069   3.225   5.276 -0.6561  1.3410  2.3851
  488MOL0     H64409   3.998   3.312   5.142  1.0627  2.7243 -1.0325
  488MOL0     H64410   4.214   3.443   5.309 -2.2838  3.0873 -0.7495
  488MOL0     H64411   4.135   3.485   5.155 -0.6871  1.7942  3.1422
  488MOL0     H64412   4.380   3.412   5.114 -2.2611  1.9284  0.9143
  488MOL0     H64413   4.338   3.246   5.175 -0.9963 -1.2234 -0.5124
  488MOL0     H64414   4.228   3.199   4.787 -0.0973 -2.4550  0.4478
  488MOL0     H64415   3.853   3.453   5.593  0.1830 -2.7317  0.5419
  488MOL0     H64416   3.654   3.546   5.702 -4.7014 -1.6769  1.6422
  489MOL0     O64417   0.607   0.233   9.522 -0.4110 -0.4619 -0.2603
  489MOL0     C64418   0.610   0.334   9.447 -0.3582  0.0089 -0.5952
  489MOL0     O64419   0.562   0.343   9.323 -0.0072 -0.5767 -0.1772
  489MOL0     C64420   0.487   0.251   9.275 -0.1559  0.4774  0.9867
  489MOL0     C64421   0.354   0.237   9.306  0.1985  0.1312  0.3985
  489MOL0     C64422   0.266   0.139   9.258 -0.0907 -0.0489 -0.0457
  489MOL0     C64423   0.317   0.042   9.173 -0.5940 -0.6320 -0.1460
  489MOL0     O64424   0.233  -0.055   9.135 -0.5667 -0.0177  0.5526
  489MOL0     C64425   0.269  -0.154   9.037  0.0835 -0.7620  0.0270
  489MOL0     C64426   0.249  -0.120   8.893 -0.8399 -0.0020 -0.7411
  489MOL0     C64427   0.213  -0.237   8.798 -0.7862  0.5024  0.0383
  489MOL0     C64428   0.113  -0.196   8.685 -0.0179  0.4289  1.4273
  489MOL0     C64429   0.064  -0.315   8.595  0.5892 -0.3164  0.0452
  489MOL0     C64430  -0.019  -0.263   8.476 -0.3527  0.5625  0.3906
  489MOL0     C64431  -0.030  -0.385   8.378 -0.7449 -0.2192  0.1790
  489MOL0     C64432  -0.140  -0.386   8.271 -0.3732 -0.0407 -0.1558
  489MOL0     N64433  -0.109  -0.319   8.145  0.1549 -0.5638  0.2630
  489MOL0     C64434  -0.175  -0.209   8.095 -0.4187  0.1760 -0.2533
  489MOL0     C64435  -0.111  -0.198   7.977  0.2733  0.0679 -0.7943
  489MOL0     C64436  -0.141  -0.099   7.881 -0.3474  0.3415  0.4606
  489MOL0     C64437  -0.284  -0.111   7.826 -0.0594  0.0032 -0.3484
  489MOL0     C64438  -0.321  -0.007   7.721  0.8850  0.4281 -0.8649
  489MOL0     C64439  -0.458  -0.034   7.662  0.8226  0.2864  0.6416
  489MOL0     O64440  -0.530   0.082   7.606 -0.1315 -0.3812 -0.0780
  489MOL0     C64441  -0.642   0.123   7.682 -0.3836  0.0150  0.4496
  489MOL0     C64442  -0.755   0.161   7.615 -0.4302 -0.4547  0.5226
  489MOL0     C64443  -0.859   0.217   7.681  0.2499  0.3389 -0.7697
  489MOL0     C64444  -0.861   0.235   7.823 -0.2810  0.4335 -0.0893
  489MOL0     C64445  -0.978   0.293   7.885  0.6403  0.2676  0.0208
  489MOL0     O64446  -1.094   0.256   7.830  0.4903 -0.1244  0.2803
  489MOL0     C64447  -1.206   0.272   7.902  0.3739 -0.0464  0.6143
  489MOL0     C64448  -1.320   0.297   7.832  0.7873  0.3880  0.2753
  489MOL0     C64449  -1.444   0.301   7.893 -0.4939  0.2341 -0.2621
  489MOL0     C64450  -1.459   0.277   8.030  0.1045  0.6764  0.4796
  489MOL0     O64451  -1.587   0.279   8.074 -0.5096 -0.4994 -0.0180
  489MOL0     C64452  -1.669   0.175   8.033  0.1071 -0.0024 -0.1296
  489MOL0     C64453  -1.789   0.229   7.955  0.3270 -0.2292  0.1264
  489MOL0     C64454  -1.889   0.290   8.055  0.8926  0.5203 -0.5375
  489MOL0     C64455  -2.025   0.330   7.982  0.2726  0.7155 -0.4129
  489MOL0     C64456  -2.112   0.411   8.081 -0.1112 -0.6728  0.0817
  489MOL0     C64457  -2.236   0.461   8.012  0.1736  0.1499  0.2380
  489MOL0     C64458  -2.328   0.356   7.956 -0.0119 -0.4938  0.0670
  489MOL0     C64459  -2.395   0.273   8.066  0.1642  0.4239  0.5221
  489MOL0    Cl64460  -2.509   0.152   8.012  0.1075  0.1535  0.2802
  489MOL0     C64461  -1.347   0.261   8.103 -0.1630  0.4965  0.2027
  489MOL0     C64462  -1.224   0.246   8.043  0.0113  0.1075  0.4582
  489MOL0     O64463  -0.967   0.375   7.974  0.2119  0.0810 -0.5909
  489MOL0     C64464  -0.744   0.193   7.897  0.6612 -0.8759  0.2189
  489MOL0     C64465  -0.641   0.130   7.825  1.1204  0.5836  0.1770
  489MOL0     N64466  -0.031  -0.297   7.943 -0.6258  0.2714  0.6070
  489MOL0     N64467  -0.023  -0.370   8.054  0.5423  0.8426 -0.3868
  489MOL0     C64468   0.449   0.060   9.133 -0.4356 -0.0329 -0.5364
  489MOL0     C64469   0.534   0.161   9.179 -0.1930  0.3060  0.6891
  489MOL0     C64470   0.681   0.445   9.498 -0.3320  0.2465 -0.1528
  489MOL0     C64471   0.702   0.561   9.425 -0.3573 -0.0094  0.8377
  489MOL0     C64472   0.765   0.682   9.478  0.0964  1.0504 -0.1204
  489MOL0     C64473   0.828   0.676   9.598  1.1843 -0.4320 -0.7913
  489MOL0     O64474   0.879   0.793   9.642  0.0599 -0.1747 -0.5203
  489MOL0     C64475   0.945   0.810   9.769  0.0784  0.0420 -0.3529
  489MOL0     C64476   1.104   0.821   9.767  0.8290 -0.3020 -0.0668
  489MOL0     C64477   1.157   0.796   9.909 -0.5124 -0.7123  0.4980
  489MOL0     C64478   1.308   0.801   9.933 -1.2415  0.3954 -0.5214
  489MOL0     C64479   1.386   0.863   9.827  1.0659 -0.3002 -0.6015
  489MOL0     C64480   1.457   0.926   9.759  0.0863 -0.1899  0.2181
  489MOL0     C64481   0.829   0.548   9.665  0.1163  0.5878 -0.2585
  489MOL0     C64482   0.748   0.438   9.620  0.2795 -1.3325  0.2116
  489MOL0     H64483   0.316   0.317   9.369  0.3891 -0.0378  0.7309
  489MOL0     H64484   0.160   0.147   9.280 -0.0924  0.6905 -0.2767
  489MOL0     H64485   0.206  -0.243   9.044 -0.4731 -0.2192  3.2324
  489MOL0     H64486   0.373  -0.184   9.048 -0.7277 -4.4726 -1.0039
  489MOL0     H64487   0.339  -0.076   8.850 -1.6489  0.5991 -1.8666
  489MOL0     H64488   0.171  -0.044   8.888 -0.9260 -0.1025 -0.9455
  489MOL0     H64489   0.163  -0.316   8.855  1.2805 -2.6865 -2.1982
  489MOL0     H64490   0.300  -0.287   8.753 -2.7491 -0.2467 -3.1868
  489MOL0     H64491   0.020  -0.157   8.728 -1.2280 -2.1646  1.4090
  489MOL0     H64492   0.154  -0.126   8.612 -2.2781  1.2765  0.8644
  489MOL0     H64493  -0.008  -0.372   8.655 -0.6278 -1.3890 -2.2906
  489MOL0     H64494   0.147  -0.381   8.567  1.4395  0.1889  1.2438
  489MOL0     H64495   0.031  -0.182   8.421  1.8267 -1.6083 -1.0094
  489MOL0     H64496  -0.114  -0.227   8.518 -2.0327 -1.8345 -1.0799
  489MOL0     H64497   0.062  -0.390   8.319 -0.0633 -2.7934  1.3138
  489MOL0     H64498  -0.041  -0.482   8.427  0.7703 -0.5479 -0.0672
  489MOL0     H64499  -0.237  -0.351   8.308 -0.7084  1.5813 -2.3699
  489MOL0     H64500  -0.136  -0.492   8.243 -1.0549 -0.5514  1.5080
  489MOL0     H64501  -0.261  -0.153   8.130  0.9469  2.9582 -1.0786
  489MOL0     H64502  -0.070  -0.115   7.799  0.1664 -1.5248  1.2092
  489MOL0     H64503  -0.134  -0.001   7.929 -2.3806 -0.6366  3.0271
  489MOL0     H64504  -0.345  -0.103   7.916  0.1696  3.3759 -0.3597
  489MOL0     H64505  -0.292  -0.211   7.782  1.7157  0.3640 -1.6076
  489MOL0     H64506  -0.311   0.096   7.755 -2.2389  1.0786 -1.6127
  489MOL0     H64507  -0.243  -0.014   7.645  2.4420  0.5877  0.6427
  489MOL0     H64508  -0.527  -0.090   7.726 -0.3083 -2.1716 -2.4745
  489MOL0     H64509  -0.445  -0.100   7.576  1.5968  0.4329  0.6407
  489MOL0     H64510  -0.746   0.166   7.506 -1.7512 -0.5825  0.4003
  489MOL0     H64511  -0.946   0.245   7.621 -0.6289 -0.3506  0.1508
  489MOL0     H64512  -1.307   0.311   7.725 -0.8507 -1.5026 -0.2310
  489MOL0     H64513  -1.535   0.322   7.838 -0.6676  0.1789  0.0065
  489MOL0     H64514  -1.700   0.125   8.125  2.1621  1.4578  1.4845
  489MOL0     H64515  -1.620   0.102   7.968  0.4837  1.1670 -1.1893
  489MOL0     H64516  -1.835   0.138   7.914 -1.4352 -0.8900  3.2057
  489MOL0     H64517  -1.761   0.304   7.881  0.9390  1.0929  1.6368
  489MOL0     H64518  -1.858   0.390   8.087  0.1596  0.8648 -0.8826
  489MOL0     H64519  -1.909   0.229   8.144  2.7215 -1.2539 -1.2511
  489MOL0     H64520  -2.003   0.374   7.885  1.2503 -1.2928 -1.1620
  489MOL0     H64521  -2.077   0.234   7.971 -0.0272  0.9149 -0.7542
  489MOL0     H64522  -2.064   0.504   8.115 -0.0218 -0.9928  0.8299
  489MOL0     H64523  -2.139   0.347   8.165 -0.6837 -3.6828 -2.2481
  489MOL0     H64524  -2.200   0.517   7.925 -0.7824 -1.1912 -1.0696
  489MOL0     H64525  -2.299   0.535   8.063  0.7892  1.8003 -1.2844
  489MOL0     H64526  -2.397   0.411   7.892  1.3845  0.2108 -0.8768
  489MOL0     H64527  -2.274   0.287   7.891 -1.9942 -1.9874 -0.1140
  489MOL0     H64528  -2.450   0.336   8.136  0.3179  1.1023  0.0511
  489MOL0     H64529  -2.323   0.210   8.118 -0.2063 -3.8241 -3.4373
  489MOL0     H64530  -1.362   0.243   8.209  0.1845  1.1513  0.3689
  489MOL0     H64531  -1.137   0.216   8.101  0.2375  1.8563  1.0940
  489MOL0     H64532  -0.743   0.215   8.004  0.7739  1.4026 -0.1872
  489MOL0     H64533  -0.553   0.094   7.877  2.0576 -2.0162 -2.8382
  489MOL0     H64534   0.476   0.007   9.043 -3.1725 -1.0097 -0.8794
  489MOL0     H64535   0.636   0.173   9.143 -1.0468 -1.9291 -3.1357
  489MOL0     H64536   0.659   0.577   9.326  1.5972  0.9290  0.0826
  489MOL0     H64537   0.756   0.777   9.428 -2.8261  0.5474 -0.7282
  489MOL0     H64538   0.920   0.730   9.840 -0.7488  1.1045  0.5736
  489MOL0     H64539   0.895   0.895   9.816  2.2352  0.9716  0.4173
  489MOL0     H64540   1.143   0.749   9.695 -1.6701  1.2253 -3.1840
  489MOL0     H64541   1.129   0.921   9.733  1.8348 -0.3362  0.5389
  489MOL0     H64542   1.116   0.704   9.951 -1.1702 -0.3567  0.6594
  489MOL0     H64543   1.125   0.878   9.974  2.0401  1.6371 -0.9854
  489MOL0     H64544   1.313   0.855  10.029 -0.7576  2.5083 -1.6614
  489MOL0     H64545   1.350   0.701   9.942 -0.4116  0.6129 -1.7582
  489MOL0     H64546   1.530   0.979   9.700 -0.0674  1.0152  1.0624
  489MOL0     H64547   0.861   0.537   9.768 -2.1059 -0.4834  0.3811
  489MOL0     H64548   0.743   0.351   9.684  1.3393 -1.2238  0.4621
  490MOL0     O64549   9.231   6.774   8.102 -0.3791 -0.7513 -1.2163
  490MOL0     C64550   9.197   6.747   7.992  0.1137 -0.5571 -0.4950
  490MOL0     O64551   9.069   6.729   7.956 -0.7187  0.6774 -0.0509
  490MOL0     C64552   8.974   6.716   8.053 -0.8034  0.1941  0.7485
  490MOL0     C64553   8.929   6.580   8.082  0.0927 -0.0675  0.3669
  490MOL0     C64554   8.818   6.561   8.167 -0.4345 -0.0897  0.2983
  490MOL0     C64555   8.754   6.671   8.220 -0.4756 -0.0815  0.0993
  490MOL0     O64556   8.644   6.638   8.288  0.4727 -0.5014  1.3247
  490MOL0     C64557   8.555   6.750   8.329 -1.1322 -0.8289 -0.6130
  490MOL0     C64558   8.411   6.709   8.359 -0.6766 -0.1602  1.0836
  490MOL0     C64559   8.341   6.805   8.447  0.4256  0.7932 -0.7995
  490MOL0     C64560   8.208   6.744   8.505  0.3525 -0.3547 -0.2608
  490MOL0     C64561   8.128   6.847   8.590  0.6649 -0.7330 -0.3726
  490MOL0     C64562   8.122   6.981   8.515  0.1703  0.7366 -1.0387
  490MOL0     C64563   8.013   7.073   8.585 -0.0602  0.5164  0.9032
  490MOL0     C64564   8.019   7.210   8.510 -0.0888 -0.0516 -0.1603
  490MOL0     N64565   7.924   7.298   8.575  0.5850 -0.8373  0.1405
  490MOL0     C64566   7.956   7.412   8.644 -0.4077  0.4946 -0.3157
  490MOL0     C64567   7.838   7.465   8.687  0.5380  0.4277 -0.9715
  490MOL0     C64568   7.817   7.596   8.764  0.8693  0.7122  1.0741
  490MOL0     C64569   7.670   7.599   8.822 -0.3288 -0.0433  0.2535
  490MOL0     C64570   7.586   7.662   8.711  0.4343 -0.4964  0.4251
  490MOL0     C64571   7.600   7.813   8.709  0.4810 -0.2531 -0.3820
  490MOL0     O64572   7.535   7.878   8.603  0.5397 -0.2780  0.6761
  490MOL0     C64573   7.548   8.017   8.598 -0.2353  0.2528 -0.0728
  490MOL0     C64574   7.481   8.081   8.496  0.6966 -0.6995 -0.7924
  490MOL0     C64575   7.477   8.220   8.485  0.5806 -1.1481  0.1440
  490MOL0     C64576   7.546   8.296   8.581 -0.0550 -0.1275  1.0109
  490MOL0     C64577   7.525   8.443   8.572  0.5596 -0.1228  0.4820
  490MOL0     O64578   7.412   8.497   8.524  0.4700 -0.0365  0.2024
  490MOL0     C64579   7.375   8.623   8.559 -0.6152  0.1948 -0.0327
  490MOL0     C64580   7.342   8.717   8.463  0.0507  0.0603 -0.0346
  490MOL0     C64581   7.312   8.844   8.503  0.3252 -0.1226 -1.3342
  490MOL0     C64582   7.289   8.887   8.643  0.3945  1.2710 -0.2323
  490MOL0     O64583   7.235   9.009   8.677  0.5568 -0.7056  0.4655
  490MOL0     C64584   7.290   9.058   8.800 -0.0804 -0.7966  0.7253
  490MOL0     C64585   7.248   9.208   8.813  0.4683 -0.3208  0.0390
  490MOL0     C64586   7.107   9.233   8.890 -0.5348  0.7232  0.2234
  490MOL0     C64587   7.052   9.369   8.844  0.3340 -0.3270 -0.2209
  490MOL0     C64588   6.910   9.391   8.900  0.1433 -0.8366 -0.1879
  490MOL0     C64589   6.862   9.508   8.807  0.4945  0.3027  0.7533
  490MOL0     C64590   6.721   9.561   8.833  0.8821 -0.0659  0.2474
  490MOL0     C64591   6.681   9.654   8.717  0.4871  0.4732  0.8644
  490MOL0    Cl64592   6.540   9.742   8.757  0.5802  0.0382 -0.2439
  490MOL0     C64593   7.319   8.787   8.744 -0.6515  0.2821 -0.3447
  490MOL0     C64594   7.368   8.657   8.697  0.3382  0.8764 -0.2141
  490MOL0     O64595   7.617   8.509   8.613 -0.3017 -0.5535  0.5035
  490MOL0     C64596   7.612   8.230   8.685  0.4772  0.2141  0.6913
  490MOL0     C64597   7.615   8.092   8.691  0.2235 -1.2078 -0.4400
  490MOL0     N64598   7.740   7.386   8.643 -1.1299 -0.3770  0.2590
  490MOL0     N64599   7.789   7.286   8.573 -0.1208  0.3413 -0.2116
  490MOL0     C64600   8.802   6.805   8.198  0.6686 -0.3789  0.1808
  490MOL0     C64601   8.903   6.822   8.108  0.1940 -0.0037  0.0957
  490MOL0     C64602   9.299   6.749   7.887 -0.3843  0.4562 -0.1032
  490MOL0     C64603   9.265   6.732   7.754  0.2041 -0.2678  0.7465
  490MOL0     C64604   9.358   6.737   7.645  0.4054 -1.1228 -0.9927
  490MOL0     C64605   9.495   6.747   7.682 -0.2070 -0.2045  1.0067
  490MOL0     O64606   9.598   6.727   7.593 -0.8433  0.4446 -0.9694
  490MOL0     C64607   9.598   6.607   7.517 -0.4336  0.4741 -0.0376
  490MOL0     C64608   9.577   6.648   7.368  0.3405 -1.0219 -0.9072
  490MOL0     C64609   9.716   6.663   7.293 -0.7536 -0.2036  0.1957
  490MOL0     C64610   9.699   6.707   7.147  0.9836  0.3040 -0.8017
  490MOL0     C64611   9.603   6.612   7.080 -0.5137  0.2501 -0.5240
  490MOL0     C64612   9.531   6.531   7.032  0.9479  0.2370 -0.1832
  490MOL0     C64613   9.525   6.760   7.810 -0.5718  0.2242 -0.2347
  490MOL0     C64614   9.431   6.780   7.913 -0.8275  0.7873  0.4518
  490MOL0     H64615   8.963   6.486   8.039 -0.7672 -1.2142  2.0879
  490MOL0     H64616   8.779   6.460   8.180 -0.8581 -0.2680 -1.9648
  490MOL0     H64617   8.551   6.829   8.253 -2.3434 -1.8277 -1.6433
  490MOL0     H64618   8.599   6.802   8.414 -0.9537  2.6210 -2.6200
  490MOL0     H64619   8.416   6.617   8.417  1.3245 -0.7018  0.1190
  490MOL0     H64620   8.357   6.693   8.265  1.3301  1.7567 -0.5205
  490MOL0     H64621   8.317   6.886   8.379 -1.1373  1.3326  0.3262
  490MOL0     H64622   8.398   6.839   8.534  1.3713 -3.6195  0.5733
  490MOL0     H64623   8.137   6.723   8.424 -0.1037  0.5394 -0.0972
  490MOL0     H64624   8.225   6.650   8.558  0.2859  0.5479  1.4396
  490MOL0     H64625   8.166   6.868   8.691 -0.8011 -1.6342  0.4002
  490MOL0     H64626   8.028   6.807   8.609 -0.0189  1.7878  2.1107
  490MOL0     H64627   8.103   6.964   8.408  0.4110  2.3436 -1.3549
  490MOL0     H64628   8.219   7.032   8.520 -0.4115  1.7522  2.4542
  490MOL0     H64629   7.915   7.025   8.583 -0.1165  0.6474 -0.2290
  490MOL0     H64630   8.044   7.082   8.690  1.0252 -2.4791  0.9506
  490MOL0     H64631   7.993   7.193   8.405  1.4986 -1.9234 -0.2930
  490MOL0     H64632   8.124   7.229   8.530  0.1086 -0.3288 -0.9009
  490MOL0     H64633   8.051   7.456   8.673  1.5334 -1.3890 -3.2641
  490MOL0     H64634   7.853   7.685   8.711  0.9990 -1.3456 -2.6404
  490MOL0     H64635   7.889   7.581   8.844  2.5489  0.3169 -0.4335
  490MOL0     H64636   7.678   7.669   8.905 -1.6097 -0.9973  1.2233
  490MOL0     H64637   7.640   7.502   8.862  2.4533 -1.5943 -1.0814
  490MOL0     H64638   7.609   7.618   8.613  1.7406  1.5082 -0.2327
  490MOL0     H64639   7.480   7.646   8.732 -0.1113 -0.5503 -2.0317
  490MOL0     H64640   7.707   7.834   8.700  0.4290 -0.3901 -1.5039
  490MOL0     H64641   7.563   7.858   8.802  0.0770 -1.5078  0.0806
  490MOL0     H64642   7.419   8.016   8.434 -1.4626  0.6492 -0.1713
  490MOL0     H64643   7.410   8.252   8.406 -0.8319 -1.4307  1.1989
  490MOL0     H64644   7.351   8.680   8.361 -0.5252  3.3019 -1.4022
  490MOL0     H64645   7.292   8.916   8.423  1.1681  2.6125  0.7597
  490MOL0     H64646   7.398   9.062   8.783 -0.2678 -0.8366 -0.5433
  490MOL0     H64647   7.258   9.005   8.890 -0.1287 -1.3881  0.3624
  490MOL0     H64648   7.252   9.262   8.717  1.4391  1.1358  0.8537
  490MOL0     H64649   7.311   9.259   8.886  2.6814 -0.6444 -1.5391
  490MOL0     H64650   7.121   9.239   8.998 -6.1888 -1.5624  1.4393
  490MOL0     H64651   7.031   9.156   8.873 -0.6131  1.3052 -2.4652
  490MOL0     H64652   7.120   9.451   8.869  0.2584 -0.7470  1.5501
  490MOL0     H64653   7.059   9.363   8.735 -1.2295  1.0877 -0.4413
  490MOL0     H64654   6.909   9.427   9.004  1.7846 -1.1561 -0.0355
  490MOL0     H64655   6.850   9.300   8.894 -0.0742 -0.7870  0.9871
  490MOL0     H64656   6.878   9.492   8.700 -1.7780 -0.1190  0.4316
  490MOL0     H64657   6.929   9.595   8.816  2.1232 -0.7761 -0.2523
  490MOL0     H64658   6.650   9.478   8.826  1.2409 -0.5832  2.1415
  490MOL0     H64659   6.707   9.615   8.927 -3.7010 -3.0035  1.6146
  490MOL0     H64660   6.659   9.591   8.630  0.6744  0.9941  0.4398
  490MOL0     H64661   6.760   9.722   8.684 -0.2085  2.2541  2.6764
  490MOL0     H64662   7.295   8.803   8.848 -1.5564 -0.6551 -0.3904
  490MOL0     H64663   7.377   8.570   8.761 -3.2550  0.7587  0.3706
  490MOL0     H64664   7.670   8.295   8.750 -0.1371  2.4656 -0.8838
  490MOL0     H64665   7.683   8.055   8.768 -0.2404  1.5876  1.4676
  490MOL0     H64666   8.754   6.891   8.245  0.8487 -1.2313  1.9634
  490MOL0     H64667   8.945   6.918   8.079  0.3472  0.3667  1.4911
  490MOL0     H64668   9.159   6.714   7.745  0.0814 -0.3295  2.0356
  490MOL0     H64669   9.342   6.726   7.538  0.1967 -0.2686 -1.0588
  490MOL0     H64670   9.515   6.540   7.540 -1.5936  1.0276 -2.3461
  490MOL0     H64671   9.690   6.554   7.545 -0.1571  0.4266 -0.9772
  490MOL0     H64672   9.515   6.579   7.310  2.0902  0.5135 -4.9245
  490MOL0     H64673   9.527   6.745   7.367 -0.4409 -1.4040 -0.2557
  490MOL0     H64674   9.768   6.567   7.283 -2.3221 -0.9899 -0.7744
  490MOL0     H64675   9.778   6.740   7.340 -2.6471 -0.3207  3.1496
  490MOL0     H64676   9.670   6.812   7.151  2.2476  0.6428  1.1327
  490MOL0     H64677   9.795   6.712   7.095  1.8255  0.3767  0.7080
  490MOL0     H64678   9.471   6.446   7.009 -0.6419  1.1999  0.2679
  490MOL0     H64679   9.631   6.764   7.832 -0.1204 -0.2774 -2.0799
  490MOL0     H64680   9.468   6.783   8.015  1.1963  1.5278 -0.2507
  491MOL0     O64681  10.039  11.254  10.490  0.4796 -0.2884 -0.2587
  491MOL0     C64682  10.040  11.228  10.369  0.7851 -1.4431  0.7242
  491MOL0     O64683   9.927  11.172  10.307 -0.1480 -0.0290  0.8206
  491MOL0     C64684   9.811  11.186  10.374  0.5817 -0.4515  0.1886
  491MOL0     C64685   9.759  11.080  10.444 -0.5908  0.2974 -0.7076
  491MOL0     C64686   9.638  11.087  10.508 -0.1285 -0.6796  0.3317
  491MOL0     C64687   9.570  11.203  10.521 -0.2795 -0.7301 -0.4574
  491MOL0     O64688   9.450  11.195  10.588  0.0034  1.0497 -0.4663
  491MOL0     C64689   9.383  11.326  10.604 -0.2544  0.2935 -0.2029
  491MOL0     C64690   9.245  11.310  10.672  0.3204 -0.2182  0.2152
  491MOL0     C64691   9.148  11.226  10.589  0.2822 -0.1372  0.3181
  491MOL0     C64692   8.996  11.256  10.603 -0.4207 -0.0005  0.0522
  491MOL0     C64693   8.906  11.135  10.548 -0.1721 -0.2202 -0.0928
  491MOL0     C64694   8.761  11.182  10.555 -0.4807 -0.3481  0.1081
  491MOL0     C64695   8.658  11.081  10.505 -0.7680 -0.1900  0.6526
  491MOL0     C64696   8.514  11.128  10.553 -0.8504  0.7330  0.2129
  491MOL0     N64697   8.401  11.071  10.472  0.6732 -0.3496 -1.2929
  491MOL0     C64698   8.294  11.140  10.432  0.6063 -0.0815  0.6860
  491MOL0     C64699   8.210  11.056  10.369 -0.4020 -0.2428  0.7210
  491MOL0     C64700   8.086  11.097  10.292  0.0523  0.6319  0.5147
  491MOL0     C64701   7.967  11.058  10.376  0.4863  0.3763 -0.3425
  491MOL0     C64702   7.956  11.125  10.515 -0.0783  0.4537 -0.4271
  491MOL0     C64703   7.828  11.078  10.590  0.1630 -0.4286 -0.0654
  491MOL0     O64704   7.705  11.107  10.515 -0.2094  0.8366  0.3171
  491MOL0     C64705   7.581  11.098  10.574  0.2200 -0.4508 -0.5203
  491MOL0     C64706   7.475  11.083  10.484  0.5355  0.0292 -0.2895
  491MOL0     C64707   7.342  11.047  10.529 -0.0195  0.3766 -0.1353
  491MOL0     C64708   7.320  11.039  10.670  0.2479  0.1565  0.3495
  491MOL0     C64709   7.180  11.004  10.723  0.1573  0.0355 -0.6149
  491MOL0     O64710   7.080  10.999  10.637  0.4072  0.3473  0.2757
  491MOL0     C64711   6.957  10.962  10.685 -0.2110  0.6268 -0.9635
  491MOL0     C64712   6.930  10.830  10.726  0.5648  0.3142 -0.3831
  491MOL0     C64713   6.810  10.792  10.791  1.1541 -0.4321 -0.6608
  491MOL0     C64714   6.707  10.888  10.812  0.6814  0.5010 -0.6291
  491MOL0     O64715   6.595  10.851  10.890  0.8088  0.5532 -0.1949
  491MOL0     C64716   6.537  10.719  10.887  0.0007 -0.6133 -0.3305
  491MOL0     C64717   6.459  10.704  10.749 -0.4668 -0.3213 -0.4980
  491MOL0     C64718   6.314  10.759  10.768 -0.9874  0.7093 -0.0316
  491MOL0     C64719   6.222  10.661  10.824  0.2619 -0.2562  0.1667
  491MOL0     C64720   6.201  10.540  10.725 -1.3663 -0.3224 -0.1525
  491MOL0     C64721   6.058  10.513  10.686 -0.7266  0.2331  0.3786
  491MOL0     C64722   6.025  10.382  10.604 -0.0011  0.3370 -0.1013
  491MOL0     C64723   6.043  10.260  10.685 -0.3034 -0.1300  0.4645
  491MOL0    Cl64724   5.919  10.282  10.826 -0.0360 -0.2563  0.6339
  491MOL0     C64725   6.746  11.021  10.787  0.0331 -0.5537 -1.1128
  491MOL0     C64726   6.866  11.057  10.721  0.7568 -0.7658 -0.2001
  491MOL0     O64727   7.177  10.989  10.848 -0.3114 -0.0160  0.1319
  491MOL0     C64728   7.427  11.068  10.760 -0.4628 -0.7553 -0.7616
  491MOL0     C64729   7.562  11.090  10.715  0.0132  0.8740  0.6616
  491MOL0     N64730   8.272  10.932  10.385 -0.7585  0.8909  0.6057
  491MOL0     N64731   8.382  10.941  10.443  0.5486  1.1313  0.6441
  491MOL0     C64732   9.618  11.317  10.446 -0.6576 -0.8133  0.8059
  491MOL0     C64733   9.737  11.305  10.371  0.2005  0.9268 -0.4955
  491MOL0     C64734  10.159  11.221  10.286 -0.1768 -0.2046 -0.3593
  491MOL0     C64735  10.289  11.235  10.339  0.1263  0.0401 -0.2608
  491MOL0     C64736  10.393  11.248  10.249  0.1892  0.4233  0.0589
  491MOL0     C64737  10.380  11.240  10.113 -0.1352 -0.3016 -0.8086
  491MOL0     O64738  10.487  11.232  10.026  0.2791 -0.3861  0.2595
  491MOL0     C64739  10.581  11.343  10.025 -1.1069  0.7105 -1.0361
  491MOL0     C64740  10.521  11.476  10.025 -0.5370  0.2477  0.2003
  491MOL0     C64741  10.611  11.576  10.099 -0.2380 -0.3568 -0.2464
  491MOL0     C64742  10.745  11.591  10.030 -0.1813 -0.2130 -0.3787
  491MOL0     C64743  10.743  11.697   9.924  0.8786 -0.3487 -0.4429
  491MOL0     C64744  10.735  11.782   9.837 -0.8170  0.6391  0.1122
  491MOL0     C64745  10.253  11.213  10.063  0.2307 -0.0882 -0.0046
  491MOL0     C64746  10.146  11.209  10.150  0.4577  0.7776  0.5222
  491MOL0     H64747   9.813  10.986  10.445  0.5320  0.9292 -0.9563
  491MOL0     H64748   9.598  11.004  10.565  0.5104  0.0411  1.8690
  491MOL0     H64749   9.373  11.364  10.502  7.2624  1.0604 -1.2518
  491MOL0     H64750   9.444  11.395  10.663  0.4537 -1.0802  0.7380
  491MOL0     H64751   9.196  11.408  10.672 -0.9997 -0.8198 -1.2821
  491MOL0     H64752   9.258  11.278  10.776  0.9895  0.5227  0.3715
  491MOL0     H64753   9.159  11.120  10.612  1.2630 -0.4195 -1.3318
  491MOL0     H64754   9.164  11.234  10.482 -0.3571 -0.3551  0.1969
  491MOL0     H64755   8.974  11.258  10.710  2.1220 -2.0199  0.7185
  491MOL0     H64756   8.977  11.347  10.545  2.4096  1.3394  1.0185
  491MOL0     H64757   8.920  11.046  10.611 -2.4641  1.7252  3.5093
  491MOL0     H64758   8.930  11.109  10.444  0.6996 -0.5435  0.1760
  491MOL0     H64759   8.746  11.275  10.500 -1.2128 -2.7541 -4.1757
  491MOL0     H64760   8.749  11.207  10.661  0.3713  2.3114 -0.3510
  491MOL0     H64761   8.653  11.097  10.397 -2.3435 -1.9996  0.4001
  491MOL0     H64762   8.666  10.975  10.528 -4.0519 -0.6475  0.1089
  491MOL0     H64763   8.510  11.237  10.548 -3.3919  0.7564  1.3648
  491MOL0     H64764   8.496  11.103  10.658 -0.5090  0.1841  0.1469
  491MOL0     H64765   8.293  11.248  10.423  0.4565  0.0027  1.5870
  491MOL0     H64766   8.085  11.047  10.195 -0.0833  0.5859  0.5394
  491MOL0     H64767   8.074  11.203  10.267 -0.1379  0.2935 -0.9322
  491MOL0     H64768   7.983  10.954  10.407 -1.2531  0.3948  0.7731
  491MOL0     H64769   7.877  11.070  10.315 -0.4113 -0.4391  0.7718
  491MOL0     H64770   8.044  11.107  10.577 -2.0512  1.4514  2.9646
  491MOL0     H64771   7.950  11.231  10.491  0.1603  0.7261  0.6544
  491MOL0     H64772   7.827  11.132  10.685 -0.4191 -0.2245 -0.1812
  491MOL0     H64773   7.826  10.970  10.607 -0.2001 -0.3126  0.6597
  491MOL0     H64774   7.512  11.095  10.383  1.5024 -0.3497  0.0058
  491MOL0     H64775   7.257  11.022  10.467 -0.2889 -0.8991  0.7110
  491MOL0     H64776   7.001  10.751  10.702 -0.2769 -0.2281 -1.1167
  491MOL0     H64777   6.797  10.690  10.824 -1.3786 -0.5396 -1.7292
  491MOL0     H64778   6.467  10.694  10.967 -0.7975  0.4103 -0.6811
  491MOL0     H64779   6.617  10.644  10.896  0.7719  0.2245 -0.0959
  491MOL0     H64780   6.460  10.597  10.728 -0.2527 -0.5583  0.6882
  491MOL0     H64781   6.509  10.766  10.673  1.1090 -4.0571 -2.8173
  491MOL0     H64782   6.279  10.795  10.671 -1.3889  0.1997 -0.0805
  491MOL0     H64783   6.321  10.844  10.836  2.3771  0.7661 -0.2739
  491MOL0     H64784   6.246  10.634  10.927 -0.1607  1.2393  0.6911
  491MOL0     H64785   6.122  10.706  10.832 -0.9097 -2.5369 -0.8918
  491MOL0     H64786   6.264  10.456  10.757  0.1290  1.8603  3.1251
  491MOL0     H64787   6.256  10.573  10.636 -2.2398  1.5110 -0.0529
  491MOL0     H64788   6.047  10.597  10.617  0.0724  0.7846  0.9148
  491MOL0     H64789   5.980  10.535  10.760 -0.4302  0.0235  0.7588
  491MOL0     H64790   5.926  10.382  10.558 -0.4398  0.0720  0.8143
  491MOL0     H64791   6.089  10.382  10.516 -1.6125 -0.8190 -1.3311
  491MOL0     H64792   6.145  10.256  10.724 -0.7744  0.1693  1.8154
  491MOL0     H64793   6.014  10.175  10.624 -0.3314  0.4829 -0.3862
  491MOL0     H64794   6.683  11.098  10.831 -1.4954 -1.9424 -0.7727
  491MOL0     H64795   6.891  11.159  10.694  0.3114 -0.6052  0.0030
  491MOL0     H64796   7.416  11.058  10.868  2.4144 -2.7444 -0.5411
  491MOL0     H64797   7.638  11.106  10.791  0.8410 -1.9531  0.5360
  491MOL0     H64798   9.576  11.417  10.444  0.4655 -0.2543  2.9127
  491MOL0     H64799   9.789  11.387  10.322 -1.5277  1.3965 -1.6083
  491MOL0     H64800  10.298  11.250  10.446 -3.0065  2.3343 -0.1760
  491MOL0     H64801  10.493  11.273  10.284 -0.5986  1.2265  1.9271
  491MOL0     H64802  10.645  11.333   9.937  0.6776  1.6148  0.1132
  491MOL0     H64803  10.637  11.326  10.117 -1.4698 -1.3027 -1.1435
  491MOL0     H64804  10.498  11.504   9.922 -3.5036 -1.8967  0.1389
  491MOL0     H64805  10.426  11.482  10.080 -0.1066 -1.2462  1.1825
  491MOL0     H64806  10.621  11.543  10.203 -1.5028  0.4508  0.1444
  491MOL0     H64807  10.557  11.671  10.098  0.3550 -0.0045 -1.4892
  491MOL0     H64808  10.824  11.623  10.100 -0.2580  0.1156 -0.4392
  491MOL0     H64809  10.771  11.494   9.987 -1.1641 -0.4159 -0.5332
  491MOL0     H64810  10.729  11.850   9.754 -1.9051  1.0848  0.5352
  491MOL0     H64811  10.235  11.201   9.957 -1.2176 -1.8082  0.3905
  491MOL0     H64812  10.045  11.205  10.109  0.0818  0.2084  1.4739
  492MOL0     O64813   7.334   4.813   2.961  0.0194 -0.5514  1.2953
  492MOL0     C64814   7.328   4.713   3.025 -0.1769 -0.4986  0.2197
  492MOL0     O64815   7.429   4.618   3.023  0.4753  0.0692 -0.0185
  492MOL0     C64816   7.538   4.628   2.944 -0.4696 -0.0235 -0.0063
  492MOL0     C64817   7.652   4.616   3.022  0.4340  0.3617  0.1545
  492MOL0     C64818   7.777   4.636   2.954  0.3303  0.8640 -0.6374
  492MOL0     C64819   7.783   4.682   2.820 -0.3257 -0.7043 -0.7758
  492MOL0     O64820   7.910   4.705   2.772 -0.5993 -0.0138 -0.0317
  492MOL0     C64821   7.950   4.652   2.642 -0.4034  0.3265  0.7507
  492MOL0     C64822   8.053   4.752   2.599  0.0276 -0.1183 -0.0799
  492MOL0     C64823   8.127   4.719   2.469  0.1666  0.0399 -0.9115
  492MOL0     C64824   8.041   4.749   2.345 -0.5985  0.1110  0.2433
  492MOL0     C64825   8.103   4.698   2.210  0.0390  0.4884 -0.2478
  492MOL0     C64826   7.994   4.708   2.099  0.3182  0.0401 -0.6474
  492MOL0     C64827   8.034   4.634   1.970 -0.0861  0.0837  0.5403
  492MOL0     C64828   7.940   4.651   1.853  0.4751 -0.0320 -0.2314
  492MOL0     N64829   7.797   4.608   1.882  0.0096  0.5579 -0.4873
  492MOL0     C64830   7.752   4.482   1.919  0.6009 -0.0232 -0.2735
  492MOL0     C64831   7.618   4.497   1.941 -0.8259 -0.3423 -0.5613
  492MOL0     C64832   7.532   4.386   1.987  0.0921  0.1314 -0.1156
  492MOL0     C64833   7.378   4.423   1.989 -0.2893 -0.6139  0.9444
  492MOL0     C64834   7.326   4.437   1.843 -0.4949 -0.2882  0.5092
  492MOL0     C64835   7.181   4.488   1.817 -1.3817 -0.7176  0.2078
  492MOL0     O64836   7.131   4.446   1.687 -0.9323  0.1658 -0.5789
  492MOL0     C64837   7.040   4.525   1.616  0.7333 -0.2549  0.6022
  492MOL0     C64838   6.950   4.618   1.675  0.7737 -0.1946 -0.0385
  492MOL0     C64839   6.850   4.680   1.595 -0.4948  0.3211 -0.0359
  492MOL0     C64840   6.825   4.646   1.461  0.4076  0.1585 -0.1568
  492MOL0     C64841   6.698   4.704   1.395  0.7465  0.2650  1.0364
  492MOL0     O64842   6.657   4.640   1.285 -0.3679  0.2248  0.3234
  492MOL0     C64843   6.554   4.686   1.204 -0.1721  0.4192 -1.1221
  492MOL0     C64844   6.435   4.743   1.256 -0.8042  0.3147 -0.0412
  492MOL0     C64845   6.334   4.787   1.170 -0.2575  0.2649 -0.0969
  492MOL0     C64846   6.353   4.775   1.031 -1.3411  0.8128  0.2725
  492MOL0     O64847   6.258   4.837   0.955 -0.3103 -0.7007  0.9412
  492MOL0     C64848   6.230   4.795   0.821  0.7517 -0.1344  0.3944
  492MOL0     C64849   6.160   4.663   0.815  0.9710 -0.3040 -0.5790
  492MOL0     C64850   6.012   4.678   0.868 -0.3337 -0.2798  0.1511
  492MOL0     C64851   5.915   4.783   0.810  0.0631 -1.1845 -0.0440
  492MOL0     C64852   5.770   4.756   0.842 -0.3756 -0.3735  0.9045
  492MOL0     C64853   5.723   4.643   0.742 -0.2495 -0.1776 -0.1264
  492MOL0     C64854   5.581   4.587   0.764  0.0913 -0.5124  0.1995
  492MOL0     C64855   5.477   4.699   0.778 -0.5468  0.0323  0.2423
  492MOL0    Cl64856   5.495   4.806   0.640  0.0116  0.2541 -0.6690
  492MOL0     C64857   6.474   4.709   0.978  0.4173 -0.4605  0.4839
  492MOL0     C64858   6.570   4.681   1.065  0.1686  0.3546  0.3734
  492MOL0     O64859   6.642   4.806   1.443 -0.0665  0.8094 -0.4176
  492MOL0     C64860   6.908   4.553   1.401  0.0684 -0.4752 -0.3654
  492MOL0     C64861   7.012   4.491   1.478 -0.4913  0.5380 -0.1799
  492MOL0     N64862   7.587   4.632   1.935 -0.1154  0.1177  0.0557
  492MOL0     N64863   7.686   4.697   1.898 -0.5560  0.2598 -0.4774
  492MOL0     C64864   7.665   4.688   2.741  0.5118 -0.9142  0.6555
  492MOL0     C64865   7.543   4.671   2.811 -0.4880  0.4648  0.5248
  492MOL0     C64866   7.206   4.697   3.106 -0.0546 -0.5999  0.1694
  492MOL0     C64867   7.109   4.793   3.119 -1.0985 -0.2011 -0.9447
  492MOL0     C64868   7.001   4.784   3.208  0.2850 -0.1656  1.5763
  492MOL0     C64869   6.983   4.666   3.276 -0.9180 -0.0315  0.2069
  492MOL0     O64870   6.871   4.633   3.348  0.0643 -0.2367 -0.1335
  492MOL0     C64871   6.889   4.658   3.486 -0.3571 -0.1126 -0.4615
  492MOL0     C64872   6.883   4.804   3.524  0.7327 -0.5511 -0.1592
  492MOL0     C64873   6.822   4.801   3.670 -0.5229  0.1190  0.3888
  492MOL0     C64874   6.822   4.949   3.722 -0.0281  0.2065  0.4073
  492MOL0     C64875   6.763   4.924   3.851  0.8243 -0.4181 -0.1611
  492MOL0     C64876   6.713   4.889   3.960 -0.1467 -0.0865 -0.2456
  492MOL0     C64877   7.087   4.574   3.274 -0.4851 -0.9114 -0.0150
  492MOL0     C64878   7.200   4.585   3.188 -0.0026 -0.0751 -0.1718
  492MOL0     H64879   7.645   4.583   3.126  0.7537  0.6826  0.2806
  492MOL0     H64880   7.862   4.616   3.018  1.4361  0.1559 -2.2481
  492MOL0     H64881   7.865   4.646   2.574  0.4397  0.0370 -0.3052
  492MOL0     H64882   7.991   4.551   2.628 -0.3380  0.6513 -1.9478
  492MOL0     H64883   8.130   4.759   2.676  0.7805  0.5930 -0.8896
  492MOL0     H64884   7.997   4.845   2.589 -0.9550 -0.7927 -1.0969
  492MOL0     H64885   8.165   4.616   2.473  2.3171  0.8319  2.3971
  492MOL0     H64886   8.220   4.775   2.474 -0.2850  0.7206  0.1652
  492MOL0     H64887   7.939   4.712   2.355 -0.6452 -0.5734 -2.1833
  492MOL0     H64888   8.021   4.856   2.335 -2.6464 -0.3384 -1.1221
  492MOL0     H64889   8.119   4.591   2.226 -2.4002  0.1870  0.5615
  492MOL0     H64890   8.194   4.755   2.190  0.7211 -1.1766 -2.1238
  492MOL0     H64891   7.954   4.808   2.080  2.7459  0.9261 -1.6711
  492MOL0     H64892   7.914   4.646   2.140 -0.4802  2.9617  2.6572
  492MOL0     H64893   8.138   4.652   1.940  1.0869 -0.3755  3.8882
  492MOL0     H64894   8.021   4.528   1.991 -1.9416 -0.0679 -1.1352
  492MOL0     H64895   7.972   4.580   1.776 -0.2152 -0.3827 -0.1976
  492MOL0     H64896   7.937   4.756   1.820  2.5945  0.9288  2.2808
  492MOL0     H64897   7.807   4.389   1.928  1.7524  0.7620  1.3416
  492MOL0     H64898   7.559   4.355   2.088 -0.1752  1.4662  0.3853
  492MOL0     H64899   7.551   4.304   1.917  0.2658 -0.6911  0.8692
  492MOL0     H64900   7.371   4.519   2.040 -0.4281  0.4813 -1.0340
  492MOL0     H64901   7.326   4.346   2.045 -2.8076  0.4865  0.2410
  492MOL0     H64902   7.394   4.503   1.789  1.3709 -2.0935  0.5425
  492MOL0     H64903   7.337   4.338   1.798  0.6971  0.7501 -1.6025
  492MOL0     H64904   7.194   4.596   1.826 -2.6526 -0.3765 -1.6125
  492MOL0     H64905   7.116   4.442   1.892  1.1661  0.8008  3.6653
  492MOL0     H64906   6.955   4.638   1.781 -1.3941 -0.6318  0.2009
  492MOL0     H64907   6.782   4.753   1.640  0.6705  3.2604 -2.6098
  492MOL0     H64908   6.418   4.758   1.362 -0.2636 -0.6618  0.1939
  492MOL0     H64909   6.239   4.826   1.205 -0.7417 -1.5794  0.7363
  492MOL0     H64910   6.329   4.781   0.778  1.3066  0.2347  1.4912
  492MOL0     H64911   6.178   4.864   0.754  4.5069  2.0280 -0.6125
  492MOL0     H64912   6.216   4.590   0.874 -1.5757 -2.4389 -0.6391
  492MOL0     H64913   6.151   4.619   0.715  0.3649  0.2218 -0.7664
  492MOL0     H64914   6.030   4.685   0.976 -1.0447 -3.9691  0.6472
  492MOL0     H64915   5.969   4.580   0.849 -1.1939  0.5517 -2.6137
  492MOL0     H64916   5.933   4.878   0.862 -0.5523  0.2468 -2.3125
  492MOL0     H64917   5.925   4.789   0.702  1.5066 -0.9954  0.0805
  492MOL0     H64918   5.718   4.846   0.808 -1.3730 -0.8720  1.0883
  492MOL0     H64919   5.759   4.736   0.949 -0.9385  2.7609  1.5266
  492MOL0     H64920   5.789   4.556   0.753  0.2479  0.3038  0.8553
  492MOL0     H64921   5.743   4.667   0.637 -0.7061 -3.1391 -0.9735
  492MOL0     H64922   5.556   4.514   0.687 -0.8804 -1.8397  1.6861
  492MOL0     H64923   5.580   4.535   0.861  1.7453 -0.2407  0.3891
  492MOL0     H64924   5.505   4.744   0.874 -0.3983 -1.2117  0.8062
  492MOL0     H64925   5.377   4.653   0.781 -0.1812 -0.7833  0.3291
  492MOL0     H64926   6.495   4.712   0.872 -1.2126 -0.3332  0.1370
  492MOL0     H64927   6.671   4.656   1.033  0.2288  0.3631  0.5557
  492MOL0     H64928   6.886   4.529   1.298 -0.4531  1.5690 -0.7784
  492MOL0     H64929   7.071   4.408   1.439 -1.4349 -0.9226  1.3627
  492MOL0     H64930   7.665   4.712   2.635  1.8014 -1.7489  0.4515
  492MOL0     H64931   7.448   4.694   2.764 -1.0965 -0.4933  1.2604
  492MOL0     H64932   7.117   4.883   3.059 -1.6000 -0.3462 -1.2419
  492MOL0     H64933   6.914   4.847   3.219 -1.1446 -1.3523 -1.6345
  492MOL0     H64934   6.981   4.615   3.527 -0.1163  0.7296 -0.0950
  492MOL0     H64935   6.803   4.604   3.527 -1.1177  0.4509 -1.2452
  492MOL0     H64936   6.978   4.855   3.506  1.0169 -0.7506  0.7098
  492MOL0     H64937   6.814   4.853   3.456 -0.2630 -0.6623  0.7396
  492MOL0     H64938   6.882   4.734   3.731  1.2603 -1.8981 -3.2421
  492MOL0     H64939   6.717   4.770   3.670 -0.3699 -0.5495 -1.7766
  492MOL0     H64940   6.924   4.988   3.733  0.3622 -1.1671  2.1610
  492MOL0     H64941   6.767   5.024   3.665 -0.7502  0.3420  1.2566
  492MOL0     H64942   6.649   4.848   4.035 -1.8795  1.8327 -0.5694
  492MOL0     H64943   7.090   4.487   3.337 -0.4918 -0.8509  0.0689
  492MOL0     H64944   7.281   4.514   3.188  0.5240  0.5146 -0.0011
  493MOL0     O64945   3.148   3.651   6.600  0.1131  0.0739  0.3203
  493MOL0     C64946   3.191   3.583   6.696 -0.6886  0.5729  0.1960
  493MOL0     O64947   3.118   3.553   6.810  0.4200 -0.1408  0.2264
  493MOL0     C64948   2.986   3.559   6.804  0.4416 -0.1919  0.2285
  493MOL0     C64949   2.922   3.438   6.839  1.1265 -0.2123 -0.7868
  493MOL0     C64950   2.778   3.418   6.839 -0.0674 -0.6436 -0.7899
  493MOL0     C64951   2.705   3.527   6.803  0.8617  0.8444  0.1711
  493MOL0     O64952   2.571   3.519   6.804 -0.3639 -0.0714  0.1029
  493MOL0     C64953   2.521   3.442   6.698 -0.3321 -0.4118 -1.1688
  493MOL0     C64954   2.410   3.354   6.761  0.1563 -0.0237  0.4660
  493MOL0     C64955   2.294   3.449   6.811 -0.0599  0.2601  0.6003
  493MOL0     C64956   2.192   3.359   6.877 -0.2378  0.3594 -0.5062
  493MOL0     C64957   2.050   3.420   6.874  0.2740 -0.4410 -0.3581
  493MOL0     C64958   2.028   3.503   7.004 -0.1822 -0.8119 -0.2988
  493MOL0     C64959   1.893   3.572   7.005 -0.3187  0.3351  0.8807
  493MOL0     C64960   1.773   3.466   6.977 -0.5735  0.7721  0.7925
  493MOL0     N64961   1.638   3.541   6.986  0.2141  0.9369  0.1322
  493MOL0     C64962   1.568   3.583   6.875 -0.4171  0.1050 -0.3283
  493MOL0     C64963   1.476   3.669   6.923  0.1444  0.4990  0.8726
  493MOL0     C64964   1.389   3.760   6.839  0.2468  0.1466 -0.2711
  493MOL0     C64965   1.245   3.763   6.895  1.0259  0.0779  0.5720
  493MOL0     C64966   1.160   3.872   6.830 -1.3534 -0.7633  0.4852
  493MOL0     C64967   1.009   3.863   6.866 -0.5297 -0.5632  0.0608
  493MOL0     O64968   0.990   3.934   6.990  0.1393 -0.2358 -0.7802
  493MOL0     C64969   0.869   3.950   7.057  0.1676  0.2579  1.0731
  493MOL0     C64970   0.860   4.021   7.179 -0.5466  0.3371 -0.0900
  493MOL0     C64971   0.728   4.042   7.240  1.3987 -0.1268  0.6451
  493MOL0     C64972   0.612   3.993   7.175 -0.0894  0.2292  0.6985
  493MOL0     C64973   0.482   4.010   7.232 -0.0152 -0.7507  0.4874
  493MOL0     O64974   0.378   3.938   7.171 -0.0269 -0.9471 -0.2279
  493MOL0     C64975   0.252   3.964   7.214  0.5192  0.2287 -1.5805
  493MOL0     C64976   0.154   3.945   7.131 -0.4079  0.2431  0.5211
  493MOL0     C64977   0.015   3.957   7.169  0.2139 -0.0651  0.4184
  493MOL0     C64978  -0.025   3.975   7.296 -0.1592 -0.9637  0.6559
  493MOL0     O64979  -0.152   4.016   7.335  0.1983  0.3314  0.2069
  493MOL0     C64980  -0.227   3.896   7.372  0.6222 -0.2485 -1.4669
  493MOL0     C64981  -0.309   3.930   7.496  0.8567 -0.1983 -0.6878
  493MOL0     C64982  -0.406   3.822   7.539  0.4854 -0.0904  0.4788
  493MOL0     C64983  -0.540   3.858   7.491  0.1707  0.2757 -0.3407
  493MOL0     C64984  -0.658   3.760   7.529 -0.3694  0.4362 -0.0896
  493MOL0     C64985  -0.789   3.775   7.461  0.4733 -0.2957 -0.7816
  493MOL0     C64986  -0.897   3.714   7.548 -0.6720  0.4300  0.7586
  493MOL0     C64987  -0.937   3.791   7.684 -0.5014  0.1497  1.0012
  493MOL0    Cl64988  -1.086   3.709   7.764 -0.1807 -0.0003  0.4508
  493MOL0     C64989   0.080   3.980   7.392 -0.0792  0.2725  0.6486
  493MOL0     C64990   0.212   3.967   7.353 -0.0068 -0.1010  0.5152
  493MOL0     O64991   0.461   4.104   7.312  0.7102  0.3152  0.7184
  493MOL0     C64992   0.627   3.935   7.048  0.4820  0.0238 -0.1865
  493MOL0     C64993   0.750   3.914   6.996 -0.8130  0.7498 -0.2783
  493MOL0     N64994   1.491   3.681   7.060  0.3460 -0.4693  0.0984
  493MOL0     N64995   1.584   3.602   7.095  0.0051 -0.1741 -1.0298
  493MOL0     C64996   2.759   3.651   6.776 -1.2913  0.5310  1.1892
  493MOL0     C64997   2.901   3.665   6.770 -0.7275 -0.3319  1.4315
  493MOL0     C64998   3.347   3.562   6.709  0.0889 -0.2156 -0.1673
  493MOL0     C64999   3.418   3.568   6.586 -0.8115  0.3950  0.3277
  493MOL0     C65000   3.556   3.554   6.588 -0.3021  1.1730  0.2481
  493MOL0     C65001   3.623   3.548   6.708 -0.2202  0.5111  0.1043
  493MOL0     O65002   3.758   3.531   6.718  0.0063  0.0225  0.4123
  493MOL0     C65003   3.842   3.634   6.666 -0.0771 -0.7935 -0.1403
  493MOL0     C65004   3.989   3.621   6.692  0.0922 -0.6537 -0.7218
  493MOL0     C65005   4.056   3.750   6.640 -0.0765  1.0328  0.2197
  493MOL0     C65006   4.202   3.757   6.657 -0.7734  0.0573  0.0118
  493MOL0     C65007   4.267   3.657   6.563 -0.8137  0.1511 -0.0195
  493MOL0     C65008   4.318   3.576   6.481  0.6421 -0.3876 -0.3542
  493MOL0     C65009   3.552   3.560   6.830  0.0877  1.0664  0.0173
  493MOL0     C65010   3.410   3.555   6.831 -0.1205  0.0522 -0.1576
  493MOL0     H65011   2.993   3.366   6.880  3.7017  1.8056 -1.4269
  493MOL0     H65012   2.739   3.321   6.870 -0.4067  0.4476  2.5916
  493MOL0     H65013   2.589   3.371   6.650  2.8723  0.0062  2.3195
  493MOL0     H65014   2.486   3.503   6.614 -0.1343  1.7711  0.2573
  493MOL0     H65015   2.451   3.289   6.839 -0.6366 -0.5314  0.4736
  493MOL0     H65016   2.380   3.282   6.684  0.7368 -1.5537  1.6276
  493MOL0     H65017   2.261   3.491   6.716  1.8289  1.4079  0.3894
  493MOL0     H65018   2.332   3.522   6.883 -0.3356  1.4935 -0.4835
  493MOL0     H65019   2.177   3.260   6.833  0.6055 -1.3467  2.7187
  493MOL0     H65020   2.228   3.342   6.979 -1.1829  0.5847 -0.1260
  493MOL0     H65021   1.976   3.340   6.864 -0.2981  0.0744 -0.2731
  493MOL0     H65022   2.042   3.488   6.789 -2.7505  0.2916  0.4034
  493MOL0     H65023   2.098   3.587   7.007 -1.3582  0.1796  0.2803
  493MOL0     H65024   2.054   3.451   7.097  3.6052  3.3467  1.3715
  493MOL0     H65025   1.880   3.631   7.096 -0.4517 -0.1121  1.1523
  493MOL0     H65026   1.897   3.637   6.917 -0.0625  0.4559  0.9825
  493MOL0     H65027   1.763   3.383   7.048 -2.5187  1.9550  2.0113
  493MOL0     H65028   1.791   3.424   6.878  1.0101  1.2953  0.8231
  493MOL0     H65029   1.599   3.568   6.772  0.5766 -0.6970  0.0725
  493MOL0     H65030   1.384   3.719   6.738 -0.1456 -0.5293  0.0157
  493MOL0     H65031   1.429   3.861   6.825 -2.9883  1.5724 -0.1420
  493MOL0     H65032   1.249   3.779   7.003  0.2981  2.2245  0.3122
  493MOL0     H65033   1.195   3.667   6.877 -1.6087  1.4754 -0.0789
  493MOL0     H65034   1.198   3.967   6.870  0.1745 -1.4017  0.5842
  493MOL0     H65035   1.176   3.862   6.722  0.3036 -0.1878  0.6502
  493MOL0     H65036   0.978   3.758   6.878 -3.7304  0.4245  1.6973
  493MOL0     H65037   0.966   3.916   6.781  1.9002  0.9939 -0.2937
  493MOL0     H65038   0.950   4.070   7.212 -0.4834  2.3415 -2.8619
  493MOL0     H65039   0.722   4.093   7.336 -2.0979  0.9244  0.0021
  493MOL0     H65040   0.175   3.933   7.025 -0.7390  1.3889  0.3156
  493MOL0     H65041  -0.054   3.954   7.085  1.4595  2.9942 -0.8804
  493MOL0     H65042  -0.161   3.813   7.397  0.0938 -1.3902 -3.6356
  493MOL0     H65043  -0.290   3.866   7.288 -1.7841  3.1268 -1.0838
  493MOL0     H65044  -0.362   4.025   7.505 -0.9662 -0.8590 -3.3606
  493MOL0     H65045  -0.241   3.940   7.582  0.5332  3.9252 -0.7161
  493MOL0     H65046  -0.403   3.787   7.643  0.8821  0.7228  0.7492
  493MOL0     H65047  -0.370   3.732   7.488  1.2602  2.2207 -3.3547
  493MOL0     H65048  -0.558   3.955   7.537 -1.2558 -0.6062  1.0569
  493MOL0     H65049  -0.531   3.860   7.382  3.6793 -1.1796 -0.2179
  493MOL0     H65050  -0.667   3.759   7.638  0.3948 -2.1854  0.0337
  493MOL0     H65051  -0.638   3.654   7.509  1.8813  0.9546 -0.8388
  493MOL0     H65052  -0.792   3.730   7.361 -0.4112  1.2221 -1.4790
  493MOL0     H65053  -0.804   3.883   7.453  1.1535  0.2588  3.4400
  493MOL0     H65054  -0.986   3.699   7.486  0.0366 -0.6462 -0.0264
  493MOL0     H65055  -0.866   3.614   7.579  0.6669  0.7068  0.3830
  493MOL0     H65056  -0.959   3.897   7.671  0.9695  0.5509  1.6275
  493MOL0     H65057  -0.859   3.790   7.761 -0.3853 -0.1404  0.8816
  493MOL0     H65058   0.061   3.985   7.499  1.8004 -0.4336  1.0681
  493MOL0     H65059   0.277   3.961   7.440 -0.2235 -0.3372  0.6634
  493MOL0     H65060   0.549   3.891   6.988  0.7407  0.3279 -0.7528
  493MOL0     H65061   0.750   3.860   6.902  1.9509 -0.7407  0.4546
  493MOL0     H65062   2.702   3.738   6.746 -3.1673 -1.1792 -0.5473
  493MOL0     H65063   2.951   3.756   6.739  1.9108 -2.5443 -1.5095
  493MOL0     H65064   3.378   3.581   6.486  0.6845  2.4862 -0.0501
  493MOL0     H65065   3.610   3.553   6.494 -0.2979 -1.8516  0.1894
  493MOL0     H65066   3.802   3.726   6.709  1.2419 -0.0443 -0.4835
  493MOL0     H65067   3.835   3.620   6.558  0.6228  0.1720 -0.3276
  493MOL0     H65068   3.993   3.592   6.797 -2.5708 -1.8291 -0.8774
  493MOL0     H65069   4.028   3.534   6.639  1.3856 -1.4474  1.4180
  493MOL0     H65070   4.004   3.835   6.685  0.3696  1.5886 -0.2853
  493MOL0     H65071   4.030   3.763   6.535  0.6510  0.0896 -0.0871
  493MOL0     H65072   4.228   3.861   6.635 -1.7289  0.9091  2.5617
  493MOL0     H65073   4.228   3.744   6.763 -2.2085 -1.6125  0.2003
  493MOL0     H65074   4.370   3.512   6.412  1.2708 -3.5536  2.7819
  493MOL0     H65075   3.614   3.555   6.919  0.8736  0.7322 -0.5341
  493MOL0     H65076   3.345   3.555   6.918 -2.6907 -1.1909 -1.9563
  494MOL0     O65077   2.565  11.162   3.942  0.4257 -0.3924  0.3181
  494MOL0     C65078   2.552  11.267   3.874  0.0678  0.7990  0.5687
  494MOL0     O65079   2.425  11.300   3.823  0.3384 -0.7093 -0.0052
  494MOL0     C65080   2.311  11.222   3.820 -0.9444 -0.1790  0.2473
  494MOL0     C65081   2.268  11.145   3.933  0.1537  0.0273  0.6650
  494MOL0     C65082   2.141  11.086   3.931 -0.4267 -0.1464  0.3400
  494MOL0     C65083   2.076  11.075   3.814  1.1659 -0.2840 -0.0024
  494MOL0     O65084   1.969  10.991   3.816 -0.2741 -0.1500 -0.0685
  494MOL0     C65085   1.848  11.021   3.743 -0.3131  0.0068  1.0586
  494MOL0     C65086   1.735  11.067   3.837 -0.5329  0.0680  0.0213
  494MOL0     C65087   1.647  10.959   3.901 -0.8364  0.3795 -0.7397
  494MOL0     C65088   1.532  11.024   3.975  0.1962  0.3110 -0.1534
  494MOL0     C65089   1.436  10.912   4.013 -0.0114 -0.3579 -0.4949
  494MOL0     C65090   1.303  10.970   4.059  0.9636  0.1236 -0.4227
  494MOL0     C65091   1.216  10.870   4.137 -0.1693 -0.2987  0.1120
  494MOL0     C65092   1.136  10.938   4.256 -0.2247  1.4575  0.0386
  494MOL0     N65093   1.047  11.046   4.201 -0.5357  0.1537  0.1027
  494MOL0     C65094   0.917  11.050   4.157  0.5799 -0.4500 -0.2977
  494MOL0     C65095   0.883  11.180   4.127 -0.6485  0.0911  0.0809
  494MOL0     C65096   0.752  11.223   4.068  0.4178  0.1486 -0.0993
  494MOL0     C65097   0.644  11.268   4.167 -0.2690 -0.2302 -0.1852
  494MOL0     C65098   0.682  11.413   4.213 -0.2378 -0.9036 -0.3287
  494MOL0     C65099   0.562  11.492   4.258  0.2514 -0.0120 -0.0316
  494MOL0     O65100   0.489  11.544   4.147  0.1714  0.0087  0.0000
  494MOL0     C65101   0.359  11.588   4.160 -0.4466  0.5540  1.0937
  494MOL0     C65102   0.298  11.617   4.035 -1.1614  0.2471  0.1731
  494MOL0     C65103   0.177  11.677   4.032  0.5908  0.3398 -0.3533
  494MOL0     C65104   0.118  11.721   4.153  0.6902  0.2701 -0.1868
  494MOL0     C65105  -0.011  11.789   4.157  0.3007  0.3866 -0.6678
  494MOL0     O65106  -0.083  11.774   4.273  0.7512  0.3751 -0.1902
  494MOL0     C65107  -0.221  11.800   4.274 -0.5392 -0.4358 -0.5432
  494MOL0     C65108  -0.262  11.910   4.356 -0.1966  0.1690  0.6470
  494MOL0     C65109  -0.409  11.934   4.362 -0.0191 -0.1532  0.4254
  494MOL0     C65110  -0.497  11.851   4.296  0.2620  0.1714  0.8397
  494MOL0     O65111  -0.637  11.856   4.303  0.2825  0.8050 -0.4886
  494MOL0     C65112  -0.706  11.984   4.309 -0.0816  0.4520  0.6075
  494MOL0     C65113  -0.764  12.040   4.180 -0.4019 -0.2818  0.2111
  494MOL0     C65114  -0.661  12.037   4.064 -0.8429 -0.0438  0.4983
  494MOL0     C65115  -0.683  12.119   3.944  0.9894  0.0541 -0.1015
  494MOL0     C65116  -0.598  12.077   3.824  0.6004  0.2089 -0.5232
  494MOL0     C65117  -0.624  12.177   3.712 -0.2994  0.6535  0.4740
  494MOL0     C65118  -0.526  12.160   3.590 -0.0959  0.7654  0.3644
  494MOL0     C65119  -0.586  12.211   3.457  0.4980  0.1118  0.2574
  494MOL0    Cl65120  -0.657  12.371   3.465  0.2529  0.0414 -0.0250
  494MOL0     C65121  -0.447  11.737   4.226  0.6454  0.1225  0.6521
  494MOL0     C65122  -0.311  11.714   4.210  0.8295 -1.0173  0.4623
  494MOL0     O65123  -0.055  11.835   4.054 -0.3687 -0.3791  0.2755
  494MOL0     C65124   0.178  11.687   4.272 -0.2622  0.6059  0.1969
  494MOL0     C65125   0.295  11.613   4.279  0.2919 -0.6728 -0.1516
  494MOL0     N65126   0.990  11.258   4.172  0.0471  0.2083 -0.7116
  494MOL0     N65127   1.087  11.181   4.220 -1.1136  0.1550  0.4720
  494MOL0     C65128   2.126  11.137   3.697  1.1277 -0.1592 -0.3088
  494MOL0     C65129   2.239  11.205   3.701 -0.8975  0.3479 -0.8787
  494MOL0     C65130   2.677  11.331   3.824  0.3056  0.1779  0.0180
  494MOL0     C65131   2.666  11.443   3.744 -0.2121 -0.3007 -0.1844
  494MOL0     C65132   2.785  11.513   3.712 -0.2281 -0.5000 -0.0898
  494MOL0     C65133   2.902  11.464   3.736 -0.3364  0.2512  0.0145
  494MOL0     O65134   3.004  11.545   3.694 -0.3603 -0.0227 -0.7277
  494MOL0     C65135   3.137  11.489   3.685  1.6461 -0.3890 -0.8999
  494MOL0     C65136   3.161  11.385   3.570 -0.2001  0.2193  0.0807
  494MOL0     C65137   3.304  11.402   3.503  0.7981  0.7476 -0.1214
  494MOL0     C65138   3.413  11.359   3.600  0.2593  0.2367  0.5077
  494MOL0     C65139   3.541  11.411   3.561 -0.4593  0.1730 -0.2253
  494MOL0     C65140   3.654  11.447   3.528 -1.1356  0.0071 -0.6813
  494MOL0     C65141   2.911  11.340   3.799 -0.5730  0.4137  0.1465
  494MOL0     C65142   2.802  11.275   3.844  0.3147 -0.8360 -0.0097
  494MOL0     H65143   2.316  11.155   4.029 -0.3600 -2.1653  1.2125
  494MOL0     H65144   2.104  11.049   4.026  0.2273 -1.0427  0.2640
  494MOL0     H65145   1.823  10.922   3.702 -0.1063  1.4668 -3.0967
  494MOL0     H65146   1.857  11.092   3.660 -2.2514 -2.3386 -1.3738
  494MOL0     H65147   1.682  11.141   3.778  0.5049  2.9570  2.4242
  494MOL0     H65148   1.783  11.117   3.922  3.1222 -0.3353 -1.5875
  494MOL0     H65149   1.711  10.902   3.970 -1.3076  0.3763 -0.3011
  494MOL0     H65150   1.610  10.885   3.830  1.0157 -2.1686  0.7754
  494MOL0     H65151   1.567  11.082   4.061 -1.7499  0.0003  0.9161
  494MOL0     H65152   1.477  11.096   3.913 -1.3859  1.1019  2.0231
  494MOL0     H65153   1.476  10.859   4.100 -2.4982 -1.0549  0.2933
  494MOL0     H65154   1.415  10.856   3.922 -1.8927  0.2104 -0.4573
  494MOL0     H65155   1.251  11.020   3.976 -1.0389  0.3726  0.9158
  494MOL0     H65156   1.319  11.057   4.123 -0.8656 -0.7597  1.3266
  494MOL0     H65157   1.148  10.822   4.066 -0.7875 -0.2296  0.6547
  494MOL0     H65158   1.290  10.800   4.177 -0.6308 -0.3680  0.8537
  494MOL0     H65159   1.197  10.964   4.342 -1.0969  0.7015  0.9077
  494MOL0     H65160   1.069  10.859   4.292  0.9742  0.8165  0.9240
  494MOL0     H65161   0.854  10.963   4.139 -1.7576  0.5349  2.4269
  494MOL0     H65162   0.712  11.142   4.008 -2.7783  0.2170  1.6646
  494MOL0     H65163   0.773  11.302   3.995  0.5530 -1.2981 -1.6624
  494MOL0     H65164   0.633  11.192   4.244  0.2109 -0.3081 -0.1878
  494MOL0     H65165   0.549  11.273   4.113 -0.7560 -3.2383  0.2274
  494MOL0     H65166   0.759  11.408   4.291  0.1353  4.7016  0.0970
  494MOL0     H65167   0.738  11.478   4.145 -3.8813 -0.1998 -2.9319
  494MOL0     H65168   0.591  11.580   4.316  2.2999  0.0743 -1.1004
  494MOL0     H65169   0.497  11.432   4.322 -2.3290  1.6715 -0.9035
  494MOL0     H65170   0.345  11.602   3.938 -3.3151  1.5443 -1.1577
  494MOL0     H65171   0.133  11.697   3.935  1.5499  0.4281 -0.7749
  494MOL0     H65172  -0.191  11.974   4.407 -0.6259  0.6360  0.6700
  494MOL0     H65173  -0.448  12.011   4.427 -2.3123 -0.5689 -0.3838
  494MOL0     H65174  -0.631  12.058   4.341  0.2660 -0.0766  1.0364
  494MOL0     H65175  -0.787  11.985   4.383 -2.8406  0.2450 -2.2135
  494MOL0     H65176  -0.788  12.144   4.203  1.5197 -0.0252  1.2458
  494MOL0     H65177  -0.853  11.982   4.152 -0.0881 -1.8672  2.2416
  494MOL0     H65178  -0.633  11.934   4.040 -4.1768 -0.5647 -1.7942
  494MOL0     H65179  -0.565  12.070   4.104  1.0813 -0.8431 -3.0369
  494MOL0     H65180  -0.787  12.104   3.913  1.5413 -0.6229 -1.7294
  494MOL0     H65181  -0.662  12.224   3.963 -1.4671 -0.0914  5.4010
  494MOL0     H65182  -0.622  11.978   3.784 -1.8726 -0.0413  1.3131
  494MOL0     H65183  -0.494  12.084   3.857  0.9449  0.1359 -1.5651
  494MOL0     H65184  -0.608  12.279   3.747  2.1915  0.2864  0.5895
  494MOL0     H65185  -0.727  12.171   3.675 -0.3204  2.2048  0.1921
  494MOL0     H65186  -0.438  12.225   3.605  0.0809  0.1519  2.2820
  494MOL0     H65187  -0.496  12.056   3.578  2.2252  1.2283  1.5036
  494MOL0     H65188  -0.666  12.137   3.439  2.8339 -2.7737  0.9393
  494MOL0     H65189  -0.511  12.209   3.377 -0.9415 -2.1063 -1.1583
  494MOL0     H65190  -0.521  11.664   4.194  0.9812 -1.3564  3.0534
  494MOL0     H65191  -0.272  11.631   4.152  2.7991  1.1352 -1.5219
  494MOL0     H65192   0.134  11.707   4.370  0.7106 -4.5374  1.9818
  494MOL0     H65193   0.336  11.584   4.375  3.4379  3.2619 -0.0160
  494MOL0     H65194   2.066  11.137   3.606  0.2020  3.2390  0.1456
  494MOL0     H65195   2.269  11.262   3.614  1.4823  2.3646  1.1226
  494MOL0     H65196   2.571  11.491   3.724  0.5597  1.6182  0.4434
  494MOL0     H65197   2.772  11.611   3.668  3.4115 -0.1718 -0.6957
  494MOL0     H65198   3.168  11.453   3.784 -0.8042  1.0141  0.4884
  494MOL0     H65199   3.201  11.572   3.656  2.0886 -0.4433 -0.1206
  494MOL0     H65200   3.155  11.284   3.614  0.0356 -0.2831 -1.0215
  494MOL0     H65201   3.080  11.402   3.499  0.0971  2.3109  0.1918
  494MOL0     H65202   3.313  11.509   3.486 -2.1081  0.7957 -2.0591
  494MOL0     H65203   3.308  11.350   3.407  0.0590 -1.7620  1.1051
  494MOL0     H65204   3.407  11.397   3.703 -0.9195 -0.0216  0.5495
  494MOL0     H65205   3.418  11.250   3.606  1.8850  0.2878  0.4876
  494MOL0     H65206   3.755  11.459   3.493 -0.8426 -2.1801 -0.7586
  494MOL0     H65207   3.009  11.296   3.813  0.3689  2.2665 -0.3118
  494MOL0     H65208   2.800  11.172   3.878 -3.0024 -1.1175 -0.6322
  495MOL0     O65209   1.428   0.777   7.106 -0.3141  0.5204 -0.4568
  495MOL0     C65210   1.478   0.807   7.212  0.6503  0.7655  0.4569
  495MOL0     O65211   1.407   0.834   7.330 -0.2215  0.1146 -0.3710
  495MOL0     C65212   1.272   0.826   7.340  0.2792 -0.6424  0.3845
  495MOL0     C65213   1.213   0.897   7.444  0.2996 -0.1276  0.0824
  495MOL0     C65214   1.068   0.904   7.446 -0.3859  0.5110 -1.2617
  495MOL0     C65215   0.987   0.821   7.372  1.0829  0.2150  0.1157
  495MOL0     O65216   0.849   0.810   7.370 -0.4182  0.7518 -0.5637
  495MOL0     C65217   0.772   0.920   7.420 -0.3340 -0.4199 -0.2277
  495MOL0     C65218   0.628   0.905   7.385  0.2127  0.6107  1.0691
  495MOL0     C65219   0.560   0.816   7.497  0.3517  0.6202  0.3527
  495MOL0     C65220   0.420   0.772   7.451  0.0346  0.5574 -0.1789
  495MOL0     C65221   0.342   0.697   7.561 -0.0373  0.2778  0.6356
  495MOL0     C65222   0.203   0.676   7.490  0.7283 -0.1263 -1.2301
  495MOL0     C65223   0.109   0.618   7.593  0.2619 -0.7877 -0.1548
  495MOL0     C65224  -0.022   0.600   7.504 -0.4288  0.1725  0.5411
  495MOL0     N65225  -0.124   0.538   7.591  0.6831 -0.2614 -0.2330
  495MOL0     C65226  -0.174   0.597   7.707  0.1534 -0.4398  0.8467
  495MOL0     C65227  -0.258   0.508   7.763  0.3539 -0.3161  0.2408
  495MOL0     C65228  -0.348   0.520   7.885 -0.2199 -0.7303  0.1083
  495MOL0     C65229  -0.323   0.407   7.968 -0.1997  0.7750 -0.0511
  495MOL0     C65230  -0.362   0.417   8.121  0.3430  0.2952  0.0976
  495MOL0     C65231  -0.506   0.399   8.138  0.0974  0.2144 -0.1538
  495MOL0     O65232  -0.541   0.382   8.276  0.4581 -0.0265  0.1218
  495MOL0     C65233  -0.661   0.338   8.310  0.5593  0.1008  1.0821
  495MOL0     C65234  -0.783   0.353   8.240  0.9211 -0.1322  0.3884
  495MOL0     C65235  -0.907   0.300   8.293 -0.2198 -0.5903  0.0856
  495MOL0     C65236  -0.908   0.239   8.410  0.1640 -0.1819  0.2178
  495MOL0     C65237  -1.042   0.192   8.476  0.5965  0.4493  0.3813
  495MOL0     O65238  -1.033   0.133   8.599  0.3837  0.2334 -0.0763
  495MOL0     C65239  -1.142   0.068   8.662  0.0893 -0.2848 -0.9504
  495MOL0     C65240  -1.108   0.014   8.795  0.1473  0.0101 -0.2350
  495MOL0     C65241  -1.210  -0.050   8.874 -0.8636 -0.3356 -0.3553
  495MOL0     C65242  -1.348  -0.043   8.840 -0.4249  0.5577  0.3259
  495MOL0     O65243  -1.422  -0.123   8.921  0.2818 -0.4449 -0.3348
  495MOL0     C65244  -1.561  -0.123   8.917  0.1606  0.2557  0.1343
  495MOL0     C65245  -1.586  -0.221   9.039  0.9149  0.3538 -1.8344
  495MOL0     C65246  -1.727  -0.196   9.104  0.3378 -0.3409  0.2881
  495MOL0     C65247  -1.840  -0.237   9.003 -0.1803  0.4552 -0.6220
  495MOL0     C65248  -1.965  -0.275   9.084  0.1525 -0.5808 -0.3958
  495MOL0     C65249  -2.060  -0.155   9.109 -0.7573  0.0824 -0.5250
  495MOL0     C65250  -2.189  -0.192   9.191 -0.1351 -0.4362 -0.9217
  495MOL0     C65251  -2.291  -0.074   9.174 -0.1526  0.2425  0.0983
  495MOL0    Cl65252  -2.421  -0.078   9.307  0.1403  0.2565  0.2070
  495MOL0     C65253  -1.380   0.021   8.722  0.3215  0.3615  0.1210
  495MOL0     C65254  -1.280   0.077   8.639  1.3537 -0.0911 -0.4908
  495MOL0     O65255  -1.149   0.215   8.412 -0.4806 -0.1575  0.0662
  495MOL0     C65256  -0.791   0.230   8.480  0.3547  0.8036  0.4193
  495MOL0     C65257  -0.664   0.265   8.425  0.6190 -0.3816 -0.5014
  495MOL0     N65258  -0.259   0.394   7.679 -0.7729 -0.5236  0.3694
  495MOL0     N65259  -0.181   0.409   7.574 -0.3787  0.0750  0.4468
  495MOL0     C65260   1.050   0.725   7.289  0.6039  0.6528 -1.5704
  495MOL0     C65261   1.188   0.731   7.271  0.5325 -0.4558  0.1612
  495MOL0     C65262   1.623   0.835   7.229  1.1686 -0.0800  0.8774
  495MOL0     C65263   1.694   0.853   7.102 -0.3321 -0.9261  0.1285
  495MOL0     C65264   1.832   0.891   7.098 -0.4821  1.1203  0.8244
  495MOL0     C65265   1.905   0.885   7.211 -1.4032  0.5867 -0.1201
  495MOL0     O65266   2.040   0.891   7.204  0.4931  0.2591 -0.1354
  495MOL0     C65267   2.098   0.944   7.326 -1.0556  0.4657 -0.5430
  495MOL0     C65268   2.248   0.966   7.310  0.5583 -0.5623 -0.1702
  495MOL0     C65269   2.325   1.007   7.440  0.3443 -0.9436  0.1799
  495MOL0     C65270   2.475   1.032   7.414  0.2628 -0.3117 -0.0375
  495MOL0     C65271   2.552   1.103   7.517  0.0873 -0.4449  0.3274
  495MOL0     C65272   2.618   1.154   7.606  0.4957  0.9010  0.6230
  495MOL0     C65273   1.834   0.866   7.330 -0.1657 -0.3345  0.3147
  495MOL0     C65274   1.694   0.847   7.346 -0.8953  0.3447  0.1652
  495MOL0     H65275   1.273   0.971   7.497 -0.6729  0.4428  0.4038
  495MOL0     H65276   1.021   0.967   7.520 -0.1075 -1.4640  0.6984
  495MOL0     H65277   0.808   1.003   7.359 -4.0546 -0.5618 -2.9905
  495MOL0     H65278   0.785   0.929   7.528 -2.6212 -2.2353  0.2910
  495MOL0     H65279   0.624   0.850   7.290  0.9203 -0.6136  1.7145
  495MOL0     H65280   0.565   0.994   7.377 -2.0019 -0.9263  0.3256
  495MOL0     H65281   0.558   0.877   7.587 -0.4657  1.9244 -0.5214
  495MOL0     H65282   0.629   0.735   7.522  2.3111  2.0453 -0.1652
  495MOL0     H65283   0.358   0.861   7.439 -1.0555 -0.1288  0.1433
  495MOL0     H65284   0.427   0.718   7.356 -1.2299 -2.4347  1.2955
  495MOL0     H65285   0.336   0.758   7.652  0.4329 -0.5647  1.2417
  495MOL0     H65286   0.391   0.603   7.589 -1.4712 -0.0206  2.2719
  495MOL0     H65287   0.207   0.613   7.401 -1.7598  1.3158 -2.4886
  495MOL0     H65288   0.170   0.772   7.449 -1.6072  1.6181  3.8473
  495MOL0     H65289   0.142   0.522   7.634 -0.4500  0.0391  2.5786
  495MOL0     H65290   0.098   0.683   7.680  2.4678 -1.9956  1.1290
  495MOL0     H65291  -0.009   0.540   7.413  0.0927  0.1413  0.6350
  495MOL0     H65292  -0.051   0.693   7.453  1.2473 -0.3320 -1.4920
  495MOL0     H65293  -0.134   0.691   7.743 -0.6561  0.1056  0.3436
  495MOL0     H65294  -0.453   0.526   7.853 -0.7078  0.6497  1.7976
  495MOL0     H65295  -0.314   0.613   7.931  1.1237 -0.9040 -0.4857
  495MOL0     H65296  -0.216   0.382   7.971  0.5094  2.5359 -4.1046
  495MOL0     H65297  -0.376   0.319   7.930 -1.5573  1.5124  0.0938
  495MOL0     H65298  -0.317   0.333   8.174 -1.4095 -0.9458 -0.2991
  495MOL0     H65299  -0.330   0.511   8.168 -1.1537  0.8547  0.0850
  495MOL0     H65300  -0.546   0.315   8.080 -1.9867  0.7724  0.3834
  495MOL0     H65301  -0.553   0.490   8.100 -2.5793 -0.6145  0.9170
  495MOL0     H65302  -0.806   0.418   8.155 -0.5510  0.4593  1.2171
  495MOL0     H65303  -0.995   0.319   8.233  0.7500 -0.9420 -1.5070
  495MOL0     H65304  -1.005   0.022   8.828  0.2863  1.1081 -0.8541
  495MOL0     H65305  -1.180  -0.098   8.966  3.6041 -2.0458 -2.3937
  495MOL0     H65306  -1.604  -0.137   8.817 -1.0937  3.4637  0.0935
  495MOL0     H65307  -1.595  -0.030   8.963  0.7376 -0.1601  1.4356
  495MOL0     H65308  -1.514  -0.187   9.115 -0.5885 -1.8564  0.7673
  495MOL0     H65309  -1.573  -0.327   9.014 -1.8710  0.2753 -3.2381
  495MOL0     H65310  -1.739  -0.089   9.126  2.9071 -0.2393  1.6895
  495MOL0     H65311  -1.734  -0.258   9.194  2.9522 -1.7294 -0.3630
  495MOL0     H65312  -1.860  -0.158   8.931 -2.0159 -0.1844 -0.8679
  495MOL0     H65313  -1.806  -0.324   8.946 -0.2304  0.0145 -0.0005
  495MOL0     H65314  -1.930  -0.311   9.181 -0.3422  1.7672  0.7141
  495MOL0     H65315  -2.032  -0.354   9.047 -2.2754  0.5110  1.3621
  495MOL0     H65316  -2.086  -0.109   9.013  1.5830  0.9324 -0.8086
  495MOL0     H65317  -2.007  -0.080   9.169  0.5711 -0.2053 -1.3033
  495MOL0     H65318  -2.247  -0.279   9.158 -1.5506 -0.1030  0.5473
  495MOL0     H65319  -2.174  -0.199   9.300  4.2791 -0.3953 -1.3535
  495MOL0     H65320  -2.342  -0.080   9.078 -0.3219  0.5098  0.1696
  495MOL0     H65321  -2.246   0.026   9.185 -2.3804  1.1859  1.3087
  495MOL0     H65322  -1.486   0.025   8.700  0.4472 -0.4736 -0.7163
  495MOL0     H65323  -1.315   0.148   8.564  1.5330 -1.6527 -2.1231
  495MOL0     H65324  -0.789   0.180   8.577 -2.6235 -1.4200 -0.5169
  495MOL0     H65325  -0.574   0.255   8.486  0.6132 -1.5077 -0.6684
  495MOL0     H65326   0.985   0.659   7.232  1.4519  0.2528 -2.0829
  495MOL0     H65327   1.225   0.661   7.197 -2.0274  0.6067 -2.3240
  495MOL0     H65328   1.643   0.834   7.008  1.3533  1.1974 -1.3167
  495MOL0     H65329   1.892   0.907   7.009 -2.1431 -1.5862 -0.9362
  495MOL0     H65330   2.089   0.875   7.411  1.8945 -1.0697 -1.3530
  495MOL0     H65331   2.044   1.036   7.351 -1.2377  0.2601 -0.1656
  495MOL0     H65332   2.289   0.870   7.280  0.4715 -0.3663 -0.9436
  495MOL0     H65333   2.258   1.039   7.229 -1.6956 -0.4454 -0.4156
  495MOL0     H65334   2.313   0.938   7.524 -0.8139 -0.1158  0.7085
  495MOL0     H65335   2.284   1.106   7.460 -1.1484 -1.1712 -1.4779
  495MOL0     H65336   2.528   0.943   7.376  3.9866  2.4716 -2.0639
  495MOL0     H65337   2.483   1.095   7.325 -1.6772 -0.7295 -0.5452
  495MOL0     H65338   2.656   1.219   7.682  0.0813 -0.6982  2.2932
  495MOL0     H65339   1.876   0.872   7.431 -1.4976  2.2905  0.7817
  495MOL0     H65340   1.651   0.834   7.444  0.3947  2.3202  1.0478
  496MOL0     O65341   3.720   9.868   6.004 -0.7604  0.7564 -0.0918
  496MOL0     C65342   3.770   9.824   5.899 -0.0333  0.1379 -0.2338
  496MOL0     O65343   3.706   9.798   5.784 -0.0782 -0.2690  0.2110
  496MOL0     C65344   3.569   9.821   5.781 -0.2540 -0.1839  0.1736
  496MOL0     C65345   3.530   9.917   5.690  0.7060  0.5763 -0.1757
  496MOL0     C65346   3.397   9.953   5.685  0.1084 -0.2000 -0.6497
  496MOL0     C65347   3.296   9.896   5.763 -0.1979  0.1553 -0.1446
  496MOL0     O65348   3.167   9.944   5.775 -0.1639  0.1871  0.1286
  496MOL0     C65349   3.125  10.076   5.756  0.1438  0.9142 -0.0080
  496MOL0     C65350   3.076  10.132   5.893 -0.0980 -0.1152  1.2827
  496MOL0     C65351   2.928  10.096   5.915  0.2514  0.6539  0.1738
  496MOL0     C65352   2.853  10.195   5.999  0.3817 -0.2115  0.2859
  496MOL0     C65353   2.706  10.209   5.995 -0.2356  1.3901 -0.9636
  496MOL0     C65354   2.614  10.100   6.044  0.5880 -0.9317  0.1169
  496MOL0     C65355   2.468  10.162   6.032  0.3214 -0.2923 -0.0850
  496MOL0     C65356   2.359  10.060   6.053  0.5809 -0.9201  0.1406
  496MOL0     N65357   2.229  10.119   6.092 -0.9025 -0.4271  0.4503
  496MOL0     C65358   2.192  10.113   6.215 -0.0977  0.3255  0.0312
  496MOL0     C65359   2.058  10.148   6.200 -0.5960  0.6041  0.2877
  496MOL0     C65360   1.968  10.144   6.314  0.4624 -0.1727 -0.0291
  496MOL0     C65361   1.820  10.125   6.272  0.3318  0.2033  0.3853
  496MOL0     C65362   1.790   9.984   6.236 -0.2889 -0.3193  0.2537
  496MOL0     C65363   1.648   9.950   6.225  0.1962  0.0346  0.5551
  496MOL0     O65364   1.598   9.998   6.101  0.1669  0.1010 -0.0245
  496MOL0     C65365   1.463   9.999   6.076  0.1087  0.2418 -0.6243
  496MOL0     C65366   1.419  10.100   5.990 -0.6358 -1.3687  0.1907
  496MOL0     C65367   1.281  10.104   5.956  0.3117 -0.5554  0.0917
  496MOL0     C65368   1.185  10.020   6.015 -0.4712 -0.2330 -0.0437
  496MOL0     C65369   1.039  10.044   5.995  0.1974  0.0655  0.7059
  496MOL0     O65370   0.959   9.945   6.045 -0.2088 -0.6671 -0.3220
  496MOL0     C65371   0.823   9.973   6.058  0.0398  0.0152 -0.8360
  496MOL0     C65372   0.760  10.036   6.168  0.6017  0.3152  0.4090
  496MOL0     C65373   0.615  10.053   6.174 -0.4669  0.4933 -0.5670
  496MOL0     C65374   0.534  10.026   6.067  0.2540 -0.2757  0.6577
  496MOL0     O65375   0.396  10.036   6.070  0.8248  0.6781  0.2339
  496MOL0     C65376   0.339  10.138   6.150  0.1954  0.1078  0.6337
  496MOL0     C65377   0.186  10.140   6.146 -1.2097 -0.0408  0.2555
  496MOL0     C65378   0.141   9.999   6.190  0.9274 -0.1527 -0.0557
  496MOL0     C65379  -0.012  10.010   6.211  0.1223 -0.0785  0.0550
  496MOL0     C65380  -0.071   9.873   6.247  0.8002 -0.2019 -0.3511
  496MOL0     C65381  -0.230   9.889   6.231  0.2969  0.0448  0.1331
  496MOL0     C65382  -0.319   9.752   6.251  0.2002  0.5990  0.4316
  496MOL0     C65383  -0.314   9.658   6.132 -0.7026 -0.8397  0.0780
  496MOL0    Cl65384  -0.417   9.731   5.995  0.2744 -0.5415  0.1589
  496MOL0     C65385   0.593   9.964   5.957 -0.5744  0.3170 -0.2465
  496MOL0     C65386   0.736   9.941   5.953  0.4240  0.2893  0.1577
  496MOL0     O65387   1.003  10.157   5.954 -0.2481 -0.3349  0.3331
  496MOL0     C65388   1.234   9.927   6.112  0.2432  0.6807  0.4479
  496MOL0     C65389   1.367   9.908   6.133  0.2921  0.0825  0.4331
  496MOL0     N65390   2.030  10.189   6.073 -0.4235  0.0004 -0.7474
  496MOL0     N65391   2.133  10.171   6.005  0.1763  0.2178  0.0602
  496MOL0     C65392   3.337   9.794   5.850 -0.4143 -0.3446 -0.5028
  496MOL0     C65393   3.472   9.755   5.861  0.6985  0.6685  0.4068
  496MOL0     C65394   3.919   9.798   5.903  0.0935 -0.3156  0.5154
  496MOL0     C65395   3.989   9.756   5.787  0.0164 -0.1550 -0.6524
  496MOL0     C65396   4.124   9.740   5.790 -0.1864  0.5928  0.7678
  496MOL0     C65397   4.196   9.762   5.904 -1.2520 -0.5108 -0.6637
  496MOL0     O65398   4.336   9.752   5.902  0.8004  0.1989  0.1890
  496MOL0     C65399   4.391   9.640   5.833 -0.3950  0.2596  0.0212
  496MOL0     C65400   4.542   9.644   5.878 -0.2741  0.6372  0.1713
  496MOL0     C65401   4.607   9.783   5.855  0.7572 -0.5447 -0.3195
  496MOL0     C65402   4.755   9.792   5.888  0.4830 -0.7669  0.6980
  496MOL0     C65403   4.818   9.678   5.949 -1.5133 -1.0334  0.3335
  496MOL0     C65404   4.881   9.581   5.967  0.4358 -0.1519  0.6892
  496MOL0     C65405   4.129   9.792   6.020 -0.8019 -0.1236  0.7429
  496MOL0     C65406   3.994   9.807   6.014 -0.3458  0.1621 -0.1058
  496MOL0     H65407   3.600   9.969   5.625 -0.4529 -1.2702 -3.1249
  496MOL0     H65408   3.379  10.043   5.627  0.9209 -0.1804 -0.8867
  496MOL0     H65409   3.050  10.089   5.677 -0.1924  1.6447  0.4231
  496MOL0     H65410   3.214  10.133   5.729  1.9513 -1.0486  1.5056
  496MOL0     H65411   3.095  10.240   5.898 -0.2775  0.1034 -1.2182
  496MOL0     H65412   3.133  10.089   5.976  0.7092  0.1797  0.8941
  496MOL0     H65413   2.909   9.992   5.945 -1.2426  1.3305  1.7354
  496MOL0     H65414   2.891  10.114   5.814  0.2272  1.4976  0.3292
  496MOL0     H65415   2.886  10.183   6.103 -0.0755  2.5038  0.8432
  496MOL0     H65416   2.886  10.296   5.972 -1.1107 -0.3235 -2.2693
  496MOL0     H65417   2.672  10.234   5.894 -1.9982 -1.6328 -1.2597
  496MOL0     H65418   2.694  10.294   6.063 -0.0896  0.4640  0.2392
  496MOL0     H65419   2.651  10.067   6.142  0.6260 -2.7699 -0.4805
  496MOL0     H65420   2.610  10.021   5.968 -1.7570 -0.7597 -0.0200
  496MOL0     H65421   2.454  10.235   6.113  0.7793  0.3993 -0.6208
  496MOL0     H65422   2.452  10.207   5.934  0.9340  0.3309  0.0966
  496MOL0     H65423   2.385   9.993   6.135 -1.8447 -0.2414  1.5339
  496MOL0     H65424   2.347  10.012   5.955 -2.1952 -0.4451  0.1840
  496MOL0     H65425   2.245  10.082   6.304  2.0697  1.5381 -0.7516
  496MOL0     H65426   1.971  10.237   6.370 -0.1708 -1.6492  2.6084
  496MOL0     H65427   1.998  10.062   6.381  1.4917 -0.1151 -0.3964
  496MOL0     H65428   1.810  10.191   6.185 -0.0946 -1.3490 -0.7916
  496MOL0     H65429   1.753  10.167   6.348 -0.8588 -0.8132 -0.0764
  496MOL0     H65430   1.831   9.964   6.137 -2.2167  0.6857 -0.8166
  496MOL0     H65431   1.833   9.912   6.306 -0.3114 -0.8080 -0.2351
  496MOL0     H65432   1.593  10.002   6.303 -1.2481 -0.9446  0.2399
  496MOL0     H65433   1.644   9.841   6.236  1.4512 -0.0487  0.3774
  496MOL0     H65434   1.489  10.169   5.944 -1.9571 -0.5729 -0.6718
  496MOL0     H65435   1.246  10.176   5.883  3.1868  0.4566 -0.3842
  496MOL0     H65436   0.819  10.063   6.255  1.3940  0.6963 -0.2315
  496MOL0     H65437   0.584  10.113   6.259  1.1620 -2.1328  2.0509
  496MOL0     H65438   0.392  10.231   6.129 -2.3379  1.2030 -1.4399
  496MOL0     H65439   0.350  10.128   6.258 -2.7217 -2.1003  0.8541
  496MOL0     H65440   0.153  10.155   6.043 -2.7379  2.2746  1.0078
  496MOL0     H65441   0.143  10.222   6.204 -1.4424 -0.5696  0.8398
  496MOL0     H65442   0.180   9.957   6.284 -0.7546 -1.4643  0.0984
  496MOL0     H65443   0.165   9.929   6.110  2.7790  1.0565 -0.6079
  496MOL0     H65444  -0.038  10.078   6.293 -1.6463 -4.6801  3.7688
  496MOL0     H65445  -0.063  10.054   6.125 -1.2955  1.3006  1.4997
  496MOL0     H65446  -0.035   9.843   6.346  2.2285  1.5442 -0.2949
  496MOL0     H65447  -0.027   9.798   6.180  1.6101 -0.2046  0.1730
  496MOL0     H65448  -0.241   9.918   6.126  1.6709  1.2357  0.2856
  496MOL0     H65449  -0.277   9.958   6.302 -3.7596  1.5603 -3.5699
  496MOL0     H65450  -0.281   9.692   6.335  1.2601 -1.2936 -1.2985
  496MOL0     H65451  -0.423   9.783   6.263 -0.2972 -0.4189 -1.0059
  496MOL0     H65452  -0.354   9.559   6.152  1.9773 -1.7470  1.4688
  496MOL0     H65453  -0.206   9.654   6.113 -1.1291  1.0678 -3.7693
  496MOL0     H65454   0.518   9.935   5.884  0.5813 -2.5028 -0.4203
  496MOL0     H65455   0.780   9.891   5.867  0.0349  0.5243 -0.1800
  496MOL0     H65456   1.164   9.860   6.160  0.4811 -0.2067 -0.4190
  496MOL0     H65457   1.405   9.840   6.209  2.2888 -1.7681 -2.0409
  496MOL0     H65458   3.259   9.746   5.909 -1.4324  1.3510 -0.3950
  496MOL0     H65459   3.509   9.674   5.924 -1.7244 -1.7037 -1.0130
  496MOL0     H65460   3.939   9.735   5.694  0.0125 -1.6589 -0.3351
  496MOL0     H65461   4.160   9.691   5.700 -1.0086 -0.4206  0.9707
  496MOL0     H65462   4.378   9.655   5.726 -1.6396 -1.1701 -0.0655
  496MOL0     H65463   4.352   9.545   5.871  0.8975  0.3657  1.7221
  496MOL0     H65464   4.552   9.617   5.984  2.1974 -2.4998 -0.6995
  496MOL0     H65465   4.599   9.572   5.818 -0.7330  0.8613 -0.5350
  496MOL0     H65466   4.547   9.851   5.915 -0.1768 -2.3163  0.8670
  496MOL0     H65467   4.585   9.820   5.754  4.9293  2.8388 -0.2572
  496MOL0     H65468   4.810   9.805   5.794  3.7105  2.2407  2.7631
  496MOL0     H65469   4.781   9.886   5.937  4.2585  0.3128 -2.8635
  496MOL0     H65470   4.956   9.505   5.979  1.7116  0.9940  0.1986
  496MOL0     H65471   4.177   9.798   6.117 -0.9929 -0.1313  0.8372
  496MOL0     H65472   3.948   9.822   6.111 -0.6047 -1.3160  0.0193
  497MOL0     O65473  10.103   4.650   7.806 -0.0796 -0.0424  0.6142
  497MOL0     C65474  10.134   4.742   7.735  0.0544  0.3104 -0.4826
  497MOL0     O65475  10.051   4.832   7.675  0.9585 -0.4584  0.4214
  497MOL0     C65476   9.916   4.829   7.705  0.2519  0.4120  0.5598
  497MOL0     C65477   9.878   4.925   7.798 -0.0706 -0.3647 -0.1337
  497MOL0     C65478   9.748   4.935   7.842  0.0140  0.2724  0.3150
  497MOL0     C65479   9.647   4.853   7.781 -0.7977  0.5295 -0.5668
  497MOL0     O65480   9.506   4.866   7.805 -0.0360 -0.9289  0.4169
  497MOL0     C65481   9.467   4.977   7.889  0.5211  0.6270  0.3273
  497MOL0     C65482   9.308   4.980   7.867 -0.5624  0.0332  0.6134
  497MOL0     C65483   9.241   5.075   7.958 -0.1328 -0.5603  0.1539
  497MOL0     C65484   9.090   5.036   7.972  0.2195  0.3222  0.6027
  497MOL0     C65485   9.003   5.155   8.029  0.9596 -0.0406  0.3082
  497MOL0     C65486   8.859   5.104   8.007  0.0641  0.2862  1.1272
  497MOL0     C65487   8.754   5.211   8.003  0.1823  0.1773  0.7313
  497MOL0     C65488   8.626   5.154   7.934 -0.5336  0.0463 -1.3479
  497MOL0     N65489   8.516   5.249   7.937 -0.0426  0.6617 -0.7615
  497MOL0     C65490   8.447   5.298   8.053  0.2751  0.2001  0.3287
  497MOL0     C65491   8.359   5.379   8.004  1.1436 -0.5663 -0.2864
  497MOL0     C65492   8.242   5.448   8.074 -1.4412  0.2100  1.3674
  497MOL0     C65493   8.133   5.344   8.113 -0.0377 -0.6552  0.4301
  497MOL0     C65494   8.023   5.405   8.199  0.5702 -0.1011  0.4232
  497MOL0     C65495   7.935   5.290   8.261  0.0679  0.6918 -0.0506
  497MOL0     O65496   7.862   5.236   8.147  0.1786 -0.2521  0.1597
  497MOL0     C65497   7.728   5.188   8.172 -0.1603 -0.4248 -0.9627
  497MOL0     C65498   7.689   5.080   8.250 -0.6055  0.2201 -0.4908
  497MOL0     C65499   7.564   5.039   8.272 -0.6696  0.4476  0.9521
  497MOL0     C65500   7.463   5.097   8.215 -0.0561  0.3000  1.5860
  497MOL0     C65501   7.323   5.049   8.226 -1.2452  0.8031 -0.3401
  497MOL0     O65502   7.313   4.931   8.299  0.3842 -0.4766  1.0663
  497MOL0     C65503   7.183   4.893   8.326 -0.0046  0.2871 -0.2238
  497MOL0     C65504   7.101   4.844   8.219 -0.8792 -0.5227 -0.0104
  497MOL0     C65505   6.977   4.805   8.244  0.3807  0.1084 -0.3727
  497MOL0     C65506   6.926   4.806   8.376 -0.0478 -0.5144  0.1545
  497MOL0     O65507   6.809   4.752   8.412 -0.1411  0.5416  0.0692
  497MOL0     C65508   6.694   4.755   8.324 -0.2527 -0.2917 -0.4220
  497MOL0     C65509   6.566   4.744   8.410 -0.6634 -0.0736  0.1528
  497MOL0     C65510   6.437   4.752   8.318 -0.0374 -0.0627 -1.2109
  497MOL0     C65511   6.303   4.731   8.400 -0.1364  0.2038 -0.0849
  497MOL0     C65512   6.174   4.711   8.316 -0.0117 -0.2676 -1.1169
  497MOL0     C65513   6.139   4.565   8.277  0.2924  0.2423 -0.1181
  497MOL0     C65514   6.099   4.469   8.394 -0.4285  0.2769  0.1408
  497MOL0     C65515   6.043   4.338   8.343 -0.8982 -0.3841 -0.1655
  497MOL0    Cl65516   5.873   4.376   8.306  0.1815 -0.2099  0.5595
  497MOL0     C65517   7.001   4.857   8.480  0.1241  0.9974  0.2257
  497MOL0     C65518   7.129   4.896   8.452 -0.3997 -0.6892  0.0977
  497MOL0     O65519   7.231   5.116   8.184 -0.4107 -0.5500  0.2034
  497MOL0     C65520   7.493   5.218   8.141  0.4961  0.1811 -0.0578
  497MOL0     C65521   7.626   5.262   8.119  0.4681  0.7421 -0.0476
  497MOL0     N65522   8.366   5.375   7.863 -0.3071  0.1527  0.1157
  497MOL0     N65523   8.464   5.302   7.827  0.8412 -0.1051  0.7939
  497MOL0     C65524   9.683   4.760   7.689  0.2737  0.5481  0.3181
  497MOL0     C65525   9.821   4.748   7.651  0.1898 -0.5114  0.6512
  497MOL0     C65526  10.282   4.769   7.724  0.0233 -0.0110  0.1195
  497MOL0     C65527  10.373   4.671   7.753 -0.6082 -0.2159  0.2125
  497MOL0     C65528  10.508   4.694   7.745 -1.2275  0.5281 -0.2048
  497MOL0     C65529  10.552   4.813   7.679  0.0384  1.1034  0.1016
  497MOL0     O65530  10.671   4.842   7.637  0.0609  0.0691  0.2292
  497MOL0     C65531  10.779   4.748   7.645  0.0804 -0.9508 -0.2365
  497MOL0     C65532  10.907   4.824   7.668  0.6801  0.1386  0.1299
  497MOL0     C65533  11.020   4.716   7.666 -0.2575 -0.7558 -0.0978
  497MOL0     C65534  11.155   4.759   7.735  1.2938 -0.4633  0.2826
  497MOL0     C65535  11.259   4.658   7.733  0.7050  0.3785 -0.7307
  497MOL0     C65536  11.353   4.591   7.747 -0.4816  1.0436  0.3458
  497MOL0     C65537  10.454   4.908   7.638 -0.0906  0.7521 -0.1415
  497MOL0     C65538  10.320   4.895   7.673 -0.3048  0.0732  0.0750
  497MOL0     H65539   9.957   4.983   7.844 -1.1366  0.7050  0.3965
  497MOL0     H65540   9.721   5.014   7.911 -0.4772  1.2897 -0.9879
  497MOL0     H65541   9.506   5.076   7.863 -1.6724  1.0599 -1.6015
  497MOL0     H65542   9.491   4.951   7.993  1.9353  0.3288 -0.0531
  497MOL0     H65543   9.279   4.875   7.878  1.1410 -0.6493 -0.8225
  497MOL0     H65544   9.273   5.005   7.766  0.7686 -3.3722 -0.8656
  497MOL0     H65545   9.260   5.175   7.919 -0.6123  0.1485  1.6700
  497MOL0     H65546   9.298   5.090   8.050 -1.0317  0.6471  0.5391
  497MOL0     H65547   9.052   5.009   7.874 -2.1594 -0.8642  1.7848
  497MOL0     H65548   9.065   4.949   8.034 -1.4341 -1.2922 -2.1334
  497MOL0     H65549   9.019   5.248   7.974  0.4291  1.9397  3.3145
  497MOL0     H65550   9.024   5.160   8.136 -0.0130  0.5050  0.4784
  497MOL0     H65551   8.828   5.022   8.072 -1.7943  1.0718  1.3083
  497MOL0     H65552   8.837   5.058   7.910 -2.3394 -0.0441  1.7614
  497MOL0     H65553   8.735   5.251   8.103 -0.8798 -2.6945  1.7587
  497MOL0     H65554   8.783   5.293   7.937 -0.4845 -2.7711 -3.6721
  497MOL0     H65555   8.590   5.063   7.982  0.8041 -0.4370 -1.1996
  497MOL0     H65556   8.649   5.132   7.829 -0.6041 -0.6399 -1.2234
  497MOL0     H65557   8.457   5.259   8.154 -0.0621 -0.9134 -0.0608
  497MOL0     H65558   8.202   5.521   8.003  0.2259 -0.1481 -0.0125
  497MOL0     H65559   8.275   5.500   8.164  2.4706 -0.6611  0.6113
  497MOL0     H65560   8.170   5.255   8.165 -2.4713 -1.9855  0.0342
  497MOL0     H65561   8.089   5.303   8.022 -0.0976  0.8941 -0.2753
  497MOL0     H65562   8.081   5.449   8.281  0.7866  0.3864  0.0181
  497MOL0     H65563   7.963   5.478   8.144  0.1548 -0.5857  0.2352
  497MOL0     H65564   7.854   5.322   8.327 -2.2630 -1.8034 -1.4816
  497MOL0     H65565   7.990   5.208   8.307  0.7089 -0.2253 -2.3206
  497MOL0     H65566   7.780   5.033   8.287 -0.0549  0.3158 -1.6730
  497MOL0     H65567   7.547   4.951   8.334 -1.0408 -0.0075  0.2213
  497MOL0     H65568   7.134   4.854   8.116 -0.4683 -2.6925 -0.1213
  497MOL0     H65569   6.920   4.778   8.156  1.3266 -2.3035 -0.3358
  497MOL0     H65570   6.709   4.682   8.244  4.9623  2.6890 -2.7016
  497MOL0     H65571   6.689   4.852   8.274 -0.2734 -0.0817 -0.0167
  497MOL0     H65572   6.573   4.812   8.495  0.5979 -1.2783  1.0639
  497MOL0     H65573   6.558   4.645   8.456 -2.5800 -0.3788 -0.7240
  497MOL0     H65574   6.454   4.678   8.239 -2.1934 -0.3974 -1.4271
  497MOL0     H65575   6.428   4.855   8.281 -2.4872  0.7706  1.3370
  497MOL0     H65576   6.306   4.636   8.452 -5.8838 -1.3461 -1.8777
  497MOL0     H65577   6.290   4.813   8.471 -0.2102  0.1149  0.0032
  497MOL0     H65578   6.192   4.771   8.226  0.4350  3.3827  1.1582
  497MOL0     H65579   6.093   4.762   8.369 -0.2014 -2.1097  0.4939
  497MOL0     H65580   6.220   4.520   8.220  0.7984 -0.4623  1.1065
  497MOL0     H65581   6.058   4.578   8.205  0.9743 -1.4828 -1.2622
  497MOL0     H65582   6.188   4.450   8.454 -1.9426 -1.7029  1.8913
  497MOL0     H65583   6.031   4.524   8.460 -1.4803 -0.9926  0.1429
  497MOL0     H65584   6.050   4.262   8.422 -1.1191  2.7007  3.0512
  497MOL0     H65585   6.106   4.307   8.259 -0.9187  1.3534 -0.8513
  497MOL0     H65586   6.975   4.843   8.585  0.7677 -1.4583  0.1154
  497MOL0     H65587   7.207   4.935   8.516  0.3313 -0.0016 -1.1716
  497MOL0     H65588   7.408   5.275   8.106 -1.0632 -0.0535  2.9824
  497MOL0     H65589   7.647   5.341   8.048  0.9489  2.8882  2.2927
  497MOL0     H65590   9.606   4.707   7.634 -1.3213  0.3931  2.5676
  497MOL0     H65591   9.865   4.683   7.576  1.4566 -1.7665  2.3952
  497MOL0     H65592  10.343   4.584   7.810 -3.8126  1.5347  1.3953
  497MOL0     H65593  10.579   4.618   7.775 -0.4090  0.2105 -2.6617
  497MOL0     H65594  10.783   4.695   7.550  0.3983  1.6853 -1.7776
  497MOL0     H65595  10.770   4.677   7.728  1.0870 -2.2135 -1.1619
  497MOL0     H65596  10.923   4.904   7.595 -2.2199  0.7119 -0.0155
  497MOL0     H65597  10.910   4.868   7.768  0.1082 -2.5305  1.4303
  497MOL0     H65598  11.033   4.681   7.563  0.8962 -0.7621  0.0346
  497MOL0     H65599  10.989   4.622   7.713 -0.1304 -1.0553 -0.6059
  497MOL0     H65600  11.189   4.846   7.678 -0.1194 -0.1064 -0.0658
  497MOL0     H65601  11.142   4.798   7.837  0.7315 -1.7328  0.7074
  497MOL0     H65602  11.435   4.523   7.738 -1.9402 -1.0656  1.9537
  497MOL0     H65603  10.484   5.003   7.596 -1.3472  2.3649  2.3734
  497MOL0     H65604  10.263   4.985   7.654 -0.0248  0.1080 -0.6347
  498MOL0     O65605   7.417   1.327   1.191 -0.6115 -0.1765  0.2831
  498MOL0     C65606   7.498   1.323   1.099 -0.3820  0.0248  0.2300
  498MOL0     O65607   7.476   1.265   0.974 -0.4836 -0.3135  1.0674
  498MOL0     C65608   7.356   1.213   0.932  0.4251 -0.1559  0.5555
  498MOL0     C65609   7.348   1.184   0.798 -0.0121  0.1465 -0.3975
  498MOL0     C65610   7.235   1.124   0.737  0.1036 -0.1028  0.4474
  498MOL0     C65611   7.121   1.097   0.810 -0.6388  0.1227 -0.4537
  498MOL0     O65612   7.018   1.042   0.741  0.9219  0.2111 -0.0200
  498MOL0     C65613   6.883   1.096   0.769  0.9544  0.2488  0.0250
  498MOL0     C65614   6.790   0.986   0.840 -1.2345 -0.5971  0.2307
  498MOL0     C65615   6.638   1.009   0.821  0.1272 -0.3100 -0.3449
  498MOL0     C65616   6.590   1.007   0.677 -0.8844 -0.0355 -0.1789
  498MOL0     C65617   6.444   0.970   0.667 -0.6562  0.2206  0.0262
  498MOL0     C65618   6.425   0.820   0.693 -0.6153  0.1784 -0.7835
  498MOL0     C65619   6.302   0.749   0.658  0.8274  0.2501  0.4359
  498MOL0     C65620   6.184   0.761   0.756  0.1894 -0.6271 -0.9726
  498MOL0     N65621   6.196   0.874   0.865 -0.1295  0.3459  0.4214
  498MOL0     C65622   6.262   0.865   0.985 -0.2370  0.7326  0.9802
  498MOL0     C65623   6.260   0.991   1.044  0.8673 -0.3380  0.3308
  498MOL0     C65624   6.302   1.027   1.196  0.0167 -0.1468  0.7466
  498MOL0     C65625   6.341   1.172   1.207 -0.3080  0.5375 -0.7654
  498MOL0     C65626   6.469   1.210   1.132 -0.0225  0.5168  0.0754
  498MOL0     C65627   6.583   1.109   1.163 -0.0177 -0.0039 -0.1387
  498MOL0     O65628   6.711   1.170   1.127  0.0353 -0.2821  0.0769
  498MOL0     C65629   6.805   1.189   1.227 -0.4674 -0.4900  0.1575
  498MOL0     C65630   6.793   1.143   1.359  1.1139  0.3721  0.1249
  498MOL0     C65631   6.899   1.157   1.444  0.0302 -0.9474 -0.1760
  498MOL0     C65632   7.017   1.221   1.407 -0.0832 -0.1699 -0.2625
  498MOL0     C65633   7.125   1.239   1.498 -0.0766  0.2343 -0.3726
  498MOL0     O65634   7.118   1.172   1.617  0.2300  0.0364 -0.4254
  498MOL0     C65635   7.220   1.206   1.709 -0.6518  0.5673 -0.5314
  498MOL0     C65636   7.216   1.335   1.768 -1.2312  0.1491  0.0368
  498MOL0     C65637   7.304   1.374   1.870 -0.3310  0.3693 -1.0993
  498MOL0     C65638   7.384   1.278   1.927 -0.1080 -0.1037 -1.2016
  498MOL0     O65639   7.463   1.314   2.031 -0.3715  0.0006  0.5449
  498MOL0     C65640   7.489   1.219   2.137 -0.1503  0.2871 -0.0650
  498MOL0     C65641   7.388   1.256   2.247 -0.7374  0.1294  1.4933
  498MOL0     C65642   7.409   1.158   2.363  0.6448 -0.3051 -0.1803
  498MOL0     C65643   7.379   1.008   2.334 -0.7547  0.9220  0.5742
  498MOL0     C65644   7.367   0.927   2.461  0.1309 -0.2768 -0.2524
  498MOL0     C65645   7.483   0.949   2.561 -0.2731  0.3648 -0.1375
  498MOL0     C65646   7.471   0.848   2.670 -0.6472 -0.6845 -0.1061
  498MOL0     C65647   7.584   0.853   2.779  0.3981  0.3228 -0.2457
  498MOL0    Cl65648   7.592   0.715   2.890 -0.2998  0.0952 -0.4142
  498MOL0     C65649   7.386   1.153   1.870 -0.4293  0.2042 -0.0343
  498MOL0     C65650   7.309   1.119   1.762 -0.1120  0.2907  0.1090
  498MOL0     O65651   7.224   1.310   1.471  0.3597 -0.3032 -0.3333
  498MOL0     C65652   7.020   1.281   1.286  0.0360  0.9157  0.4053
  498MOL0     C65653   6.923   1.257   1.193  0.3715  1.0411 -0.2352
  498MOL0     N65654   6.167   1.060   0.959  0.3574 -0.3442 -0.2778
  498MOL0     N65655   6.142   0.995   0.852 -0.8368  0.1339  0.2418
  498MOL0     C65656   7.132   1.111   0.948 -0.5065 -0.2608  0.4410
  498MOL0     C65657   7.243   1.170   1.010  0.8965 -0.2157 -0.3459
  498MOL0     C65658   7.626   1.376   1.126 -0.0109  0.1887  0.1978
  498MOL0     C65659   7.654   1.459   1.234 -0.0845  0.6378 -0.0937
  498MOL0     C65660   7.781   1.516   1.262  0.0855 -0.8083 -0.1406
  498MOL0     C65661   7.875   1.477   1.173  0.8116 -0.7968 -0.9752
  498MOL0     O65662   8.002   1.525   1.190 -0.4775 -0.1371 -0.4996
  498MOL0     C65663   8.057   1.513   1.327  0.5839  0.3092  0.6083
  498MOL0     C65664   8.056   1.370   1.391 -0.6688  0.1396 -0.1316
  498MOL0     C65665   8.130   1.352   1.518 -0.5264 -0.9251 -0.5401
  498MOL0     C65666   8.283   1.370   1.504  0.9032 -0.2560 -0.1383
  498MOL0     C65667   8.354   1.346   1.634  0.6915 -0.0787  0.6872
  498MOL0     C65668   8.392   1.326   1.745  0.7473  0.6192  0.3022
  498MOL0     C65669   7.860   1.398   1.068 -0.5891 -0.5893  0.3887
  498MOL0     C65670   7.735   1.347   1.037  0.0002  1.0030 -0.2499
  498MOL0     H65671   7.431   1.215   0.736  1.7681  0.9046  2.1998
  498MOL0     H65672   7.224   1.098   0.632 -1.1862  0.7988  0.3274
  498MOL0     H65673   6.832   1.125   0.677 -2.2706  1.6351  2.0489
  498MOL0     H65674   6.887   1.195   0.817 -2.5750  1.0699 -1.0947
  498MOL0     H65675   6.811   0.975   0.947  2.7042  1.7576 -0.0841
  498MOL0     H65676   6.818   0.886   0.805  3.4094  1.1557 -1.8404
  498MOL0     H65677   6.607   1.102   0.870 -3.0619 -1.1922 -0.5210
  498MOL0     H65678   6.585   0.934   0.881 -0.0501 -0.3057 -0.4963
  498MOL0     H65679   6.610   1.108   0.640  1.5905 -0.5663 -0.5084
  498MOL0     H65680   6.635   0.934   0.609 -0.9349 -0.7519  0.5421
  498MOL0     H65681   6.401   0.996   0.570  0.7770 -0.1081 -0.7409
  498MOL0     H65682   6.387   1.011   0.750 -1.9316  0.8955 -1.1327
  498MOL0     H65683   6.472   0.795   0.788  2.1966  3.5800 -1.0762
  498MOL0     H65684   6.488   0.777   0.614  1.6775  0.7048  0.6731
  498MOL0     H65685   6.269   0.790   0.562  2.7682 -1.0485 -0.8521
  498MOL0     H65686   6.321   0.646   0.626 -2.9569 -0.4534 -0.0448
  498MOL0     H65687   6.177   0.667   0.811  0.9020  0.6747  1.5206
  498MOL0     H65688   6.092   0.770   0.696  1.1100 -0.7591 -2.4480
  498MOL0     H65689   6.310   0.780   1.032 -0.0965  1.3366  1.9817
  498MOL0     H65690   6.382   0.958   1.223 -0.0156 -0.4557  0.0827
  498MOL0     H65691   6.216   1.004   1.260 -0.0559  3.9540  2.4244
  498MOL0     H65692   6.357   1.199   1.312  0.8154 -3.1584  0.1697
  498MOL0     H65693   6.266   1.236   1.160 -0.2903  1.0870 -0.0614
  498MOL0     H65694   6.455   1.226   1.025 -3.0077 -1.0529  0.1491
  498MOL0     H65695   6.499   1.307   1.174 -0.3700 -0.1236  1.8795
  498MOL0     H65696   6.564   1.018   1.105 -0.1313 -0.9945  1.3930
  498MOL0     H65697   6.581   1.069   1.265  0.8359  0.4863  0.0842
  498MOL0     H65698   6.704   1.103   1.406  0.2192  3.6550  1.5438
  498MOL0     H65699   6.886   1.113   1.543  2.4129 -1.2720  0.0526
  498MOL0     H65700   7.142   1.410   1.745 -1.9475 -0.8930 -1.2613
  498MOL0     H65701   7.298   1.474   1.911  1.0193 -0.5051  1.4868
  498MOL0     H65702   7.593   1.233   2.169 -0.7359  2.9126  0.9687
  498MOL0     H65703   7.473   1.117   2.101 -1.2936  0.6136 -0.5232
  498MOL0     H65704   7.287   1.254   2.204 -0.2207 -0.1070  0.2560
  498MOL0     H65705   7.413   1.356   2.284  4.0458  0.7233 -2.3571
  498MOL0     H65706   7.351   1.188   2.451  2.1797 -1.6486  1.3626
  498MOL0     H65707   7.514   1.169   2.391  0.7106  1.1428 -0.9262
  498MOL0     H65708   7.292   0.998   2.269  0.1786  2.7344 -1.0771
  498MOL0     H65709   7.465   0.974   2.275 -1.5341  0.3011 -0.2100
  498MOL0     H65710   7.366   0.820   2.440  1.8352 -1.0408  2.9948
  498MOL0     H65711   7.280   0.969   2.513  1.4234  0.4662  1.4061
  498MOL0     H65712   7.462   1.053   2.588  0.1272  1.3661 -3.2485
  498MOL0     H65713   7.578   0.938   2.508 -0.0137 -1.9934  0.6991
  498MOL0     H65714   7.369   0.854   2.709 -0.7273 -1.9275 -0.0737
  498MOL0     H65715   7.470   0.745   2.632 -3.2195 -0.0079 -2.1866
  498MOL0     H65716   7.570   0.946   2.834 -1.3095  0.9491 -1.6392
  498MOL0     H65717   7.676   0.858   2.719 -0.8478  1.5793 -2.2068
  498MOL0     H65718   7.461   1.082   1.903 -0.1036  1.0604  1.1290
  498MOL0     H65719   7.320   1.018   1.722  0.6759  0.9756 -1.5162
  498MOL0     H65720   7.104   1.345   1.258  0.2477  0.9889  1.1799
  498MOL0     H65721   6.917   1.305   1.096  1.9650 -0.1276 -0.9599
  498MOL0     H65722   7.051   1.077   1.010  0.1705 -0.7403  1.0836
  498MOL0     H65723   7.241   1.188   1.117  0.0439 -0.8970 -0.2309
  498MOL0     H65724   7.565   1.484   1.291 -0.7137 -0.4080 -0.5909
  498MOL0     H65725   7.788   1.596   1.336 -2.2314  3.5677 -4.1249
  498MOL0     H65726   7.986   1.571   1.387  0.7990  0.4536  0.7274
  498MOL0     H65727   8.156   1.559   1.334 -0.0827  1.5450  2.8133
  498MOL0     H65728   7.952   1.346   1.415 -1.2151  3.5892  1.6036
  498MOL0     H65729   8.100   1.290   1.330  3.1006  0.9772  1.1954
  498MOL0     H65730   8.123   1.250   1.555  5.6090 -1.0760  1.3912
  498MOL0     H65731   8.087   1.436   1.573  1.7155  1.2379 -1.8507
  498MOL0     H65732   8.323   1.297   1.433  4.6799 -0.7511  2.2112
  498MOL0     H65733   8.310   1.473   1.479  1.4642  0.3319  2.6321
  498MOL0     H65734   8.401   1.292   1.846  1.4075  0.6876  0.2688
  498MOL0     H65735   7.945   1.379   1.003 -0.6448 -0.6537  0.3339
  498MOL0     H65736   7.726   1.281   0.951 -2.9932  2.4664 -1.1850
  499MOL0     O65737   6.426  10.754   7.991  0.2668  0.7178 -0.8933
  499MOL0     C65738   6.484  10.722   7.891  0.4981 -0.8519  0.0815
  499MOL0     O65739   6.436  10.741   7.761  0.5178 -0.2101  0.1375
  499MOL0     C65740   6.323  10.810   7.753 -0.2667  0.3412 -0.3553
  499MOL0     C65741   6.315  10.943   7.716 -0.4973 -0.3731 -0.7302
  499MOL0     C65742   6.200  11.019   7.690  0.7524  0.3328 -0.1552
  499MOL0     C65743   6.081  10.947   7.694 -0.2510  0.7828 -0.0934
  499MOL0     O65744   5.968  10.999   7.641  0.9509  0.2942  0.1719
  499MOL0     C65745   5.909  11.118   7.694 -0.2635 -0.2925 -0.0255
  499MOL0     C65746   5.841  11.081   7.825 -0.6978  0.5985  0.0385
  499MOL0     C65747   5.729  10.982   7.808 -0.0408  0.5560  0.0346
  499MOL0     C65748   5.665  10.942   7.941  0.0677  0.2616 -0.2302
  499MOL0     C65749   5.578  11.057   7.993  0.5769  0.6661 -0.5489
  499MOL0     C65750   5.473  10.999   8.091  1.6073  0.3663 -0.6616
  499MOL0     C65751   5.430  11.097   8.197  0.9680  0.3426  0.1420
  499MOL0     C65752   5.311  11.169   8.139 -0.1697  0.5688 -0.1593
  499MOL0     N65753   5.262  11.279   8.226 -0.0354 -0.0988  0.9173
  499MOL0     C65754   5.306  11.411   8.219 -0.6549 -0.6081 -0.4740
  499MOL0     C65755   5.257  11.473   8.335 -0.0560 -0.0805  0.1262
  499MOL0     C65756   5.299  11.613   8.404  0.2968 -0.4445 -0.1650
  499MOL0     C65757   5.204  11.713   8.337 -0.4492  0.3608 -0.7039
  499MOL0     C65758   5.209  11.848   8.398 -0.1583 -0.4363 -0.4272
  499MOL0     C65759   5.123  11.862   8.522 -0.0827  0.5955 -0.3667
  499MOL0     O65760   4.997  11.805   8.504 -0.8437 -0.2861  0.6355
  499MOL0     C65761   4.895  11.833   8.583  0.7945  0.2793 -0.4968
  499MOL0     C65762   4.776  11.769   8.546  0.3822  0.2039 -0.1343
  499MOL0     C65763   4.661  11.777   8.619  0.6062 -0.2411  0.0477
  499MOL0     C65764   4.669  11.837   8.748  0.5089  1.2118 -0.4359
  499MOL0     C65765   4.559  11.820   8.842  0.0394  0.9724  0.5548
  499MOL0     O65766   4.566  11.877   8.967  0.3653  0.2347  0.0648
  499MOL0     C65767   4.461  11.866   9.060 -0.6998  0.4327 -0.1338
  499MOL0     C65768   4.334  11.885   9.034 -0.0693 -0.2429  0.8865
  499MOL0     C65769   4.234  11.893   9.134 -0.2794 -0.4388  0.4677
  499MOL0     C65770   4.268  11.867   9.271  0.8453  0.7125  0.1140
  499MOL0     O65771   4.160  11.859   9.362  0.2131  0.0657  0.5001
  499MOL0     C65772   4.181  11.882   9.505 -0.6764  0.6252 -0.5123
  499MOL0     C65773   4.047  11.889   9.583 -0.4639  0.5882 -0.0364
  499MOL0     C65774   4.068  11.854   9.727  1.4001 -0.8385 -0.2064
  499MOL0     C65775   4.179  11.935   9.797 -0.8224 -1.1709 -0.0472
  499MOL0     C65776   4.227  11.888   9.935  0.2060  0.8399  0.2553
  499MOL0     C65777   4.350  11.962   9.981  0.2255 -0.0186  0.9922
  499MOL0     C65778   4.378  11.937  10.129  1.0405  0.5527 -0.3317
  499MOL0     C65779   4.499  12.007  10.177 -0.4684 -0.0423  0.0311
  499MOL0    Cl65780   4.636  11.929  10.085  0.3988  0.1182  0.7463
  499MOL0     C65781   4.411  11.860   9.295 -0.1966  0.9271  0.4863
  499MOL0     C65782   4.503  11.860   9.189  0.3488  0.4590  0.4217
  499MOL0     O65783   4.459  11.761   8.798  0.2715  0.5647  0.4804
  499MOL0     C65784   4.788  11.893   8.798 -0.0345  0.1429  0.3037
  499MOL0     C65785   4.904  11.888   8.719  0.1315 -0.3351  0.4933
  499MOL0     N65786   5.179  11.377   8.389 -0.2125  0.1351  0.0069
  499MOL0     N65787   5.195  11.254   8.342 -0.2169 -0.8768 -0.4486
  499MOL0     C65788   6.083  10.808   7.728  0.4975 -0.1341 -0.1600
  499MOL0     C65789   6.202  10.734   7.761 -0.1351  0.5732  0.3900
  499MOL0     C65790   6.617  10.672   7.904  0.2733 -0.1690  0.4243
  499MOL0     C65791   6.705  10.707   7.804 -0.9610 -0.1641  0.0886
  499MOL0     C65792   6.837  10.657   7.798  0.2095  0.2518 -0.2357
  499MOL0     C65793   6.877  10.564   7.894 -1.1073 -1.0965  0.0893
  499MOL0     O65794   7.008  10.515   7.883 -0.0466  0.3065 -0.4726
  499MOL0     C65795   7.115  10.594   7.938 -0.7608  0.9326  0.8428
  499MOL0     C65796   7.243  10.505   7.932  0.4930  0.4279 -0.5420
  499MOL0     C65797   7.308  10.513   8.071 -0.9430  0.0963  0.6071
  499MOL0     C65798   7.454  10.485   8.066  0.3713 -0.5124 -0.3509
  499MOL0     C65799   7.514  10.511   8.195  0.6698  0.0594  0.1675
  499MOL0     C65800   7.558  10.534   8.307  0.7641  0.1045 -0.7048
  499MOL0     C65801   6.789  10.531   8.003 -0.4362 -0.0621  0.1907
  499MOL0     C65802   6.659  10.586   8.013 -0.0200  0.9932  0.5868
  499MOL0     H65803   6.412  10.990   7.700 -0.8481 -0.2196 -2.5118
  499MOL0     H65804   6.211  11.126   7.684  2.2670  0.3040  1.4086
  499MOL0     H65805   5.829  11.154   7.628 -2.2593 -0.9825  1.9027
  499MOL0     H65806   5.988  11.190   7.715 -2.9550  3.0627 -0.5780
  499MOL0     H65807   5.812  11.177   7.869  0.1133  0.3434  1.1852
  499MOL0     H65808   5.920  11.048   7.893  0.0999  1.8990 -0.2197
  499MOL0     H65809   5.767  10.892   7.761 -0.2429  1.0582 -1.1267
  499MOL0     H65810   5.652  11.019   7.739  0.6874  3.6392  0.7213
  499MOL0     H65811   5.607  10.851   7.919 -0.8163  0.3591  1.5390
  499MOL0     H65812   5.744  10.914   8.011 -0.6345  0.8448  0.8168
  499MOL0     H65813   5.525  11.103   7.910  0.5097  1.0689 -0.2836
  499MOL0     H65814   5.642  11.138   8.030 -0.6195  1.5335 -0.3299
  499MOL0     H65815   5.527  10.921   8.144  0.3916 -0.0746 -0.0368
  499MOL0     H65816   5.384  10.958   8.041  0.6055  0.8672  0.6397
  499MOL0     H65817   5.387  11.037   8.278  0.3772 -1.0174 -1.1269
  499MOL0     H65818   5.520  11.152   8.225  1.7973 -1.5504  1.4406
  499MOL0     H65819   5.229  11.096   8.131  1.2756 -0.9762 -1.9242
  499MOL0     H65820   5.341  11.202   8.039  2.6405 -1.6329 -0.1628
  499MOL0     H65821   5.383  11.449   8.152 -0.7171 -1.7193 -1.1967
  499MOL0     H65822   5.408  11.627   8.400  0.3667 -1.1702 -1.8033
  499MOL0     H65823   5.285  11.609   8.512  1.0010 -3.8642 -0.0950
  499MOL0     H65824   5.099  11.683   8.331  0.1329 -1.6739 -1.2822
  499MOL0     H65825   5.241  11.708   8.235  1.7095  0.2654  0.0298
  499MOL0     H65826   5.308  11.880   8.433 -0.0314 -1.2678  0.0203
  499MOL0     H65827   5.173  11.916   8.321  0.2928 -0.5796 -0.7729
  499MOL0     H65828   5.127  11.971   8.524  2.2537  0.6170 -2.1634
  499MOL0     H65829   5.165  11.817   8.612 -3.5026 -1.5681  0.3337
  499MOL0     H65830   4.771  11.712   8.455  2.4951 -1.2143  0.5704
  499MOL0     H65831   4.567  11.738   8.581  0.4344 -0.1690  0.3960
  499MOL0     H65832   4.296  11.895   8.933 -0.8707 -1.1089  1.0874
  499MOL0     H65833   4.133  11.911   9.098 -1.1004 -5.1850 -0.2351
  499MOL0     H65834   4.226  11.982   9.511 -0.9891  0.7986 -0.9481
  499MOL0     H65835   4.251  11.806   9.539 -0.3105  0.9871 -0.4488
  499MOL0     H65836   3.982  11.817   9.533 -0.6317 -0.0328  1.0496
  499MOL0     H65837   3.999  11.987   9.575 -2.0897 -0.3056 -2.0685
  499MOL0     H65838   4.078  11.745   9.727  3.1816 -0.7978  3.0358
  499MOL0     H65839   3.973  11.873   9.780  2.5842  0.6740  1.4921
  499MOL0     H65840   4.268  11.946   9.734  1.5685  2.0875  3.4431
  499MOL0     H65841   4.141  12.035   9.820  2.2230 -0.1685  1.2542
  499MOL0     H65842   4.247  11.780   9.939 -0.0777  0.8176  2.8404
  499MOL0     H65843   4.146  11.905  10.006 -1.2916  0.2666 -1.2424
  499MOL0     H65844   4.341  12.070   9.965 -0.3271 -0.4015 -1.9259
  499MOL0     H65845   4.432  11.921   9.920 -1.3668  0.7998 -1.8828
  499MOL0     H65846   4.288  11.961  10.187 -0.8072 -1.0304 -2.3994
  499MOL0     H65847   4.394  11.831  10.148 -2.7541  0.0353  0.7591
  499MOL0     H65848   4.507  11.990  10.285 -0.5931 -1.2458 -0.1371
  499MOL0     H65849   4.505  12.109  10.139 -0.8287 -0.3754 -0.9357
  499MOL0     H65850   4.441  11.841   9.398 -1.2516  0.6577  0.7582
  499MOL0     H65851   4.611  11.864   9.205  0.4177 -0.4812  0.2539
  499MOL0     H65852   4.794  11.948   8.892  0.2220  1.9232 -0.7093
  499MOL0     H65853   4.998  11.915   8.767  0.3297  1.3101 -0.7315
  499MOL0     H65854   5.992  10.750   7.735  0.1664  0.4287  0.2020
  499MOL0     H65855   6.202  10.631   7.794  0.6548  0.3189 -0.3712
  499MOL0     H65856   6.666  10.766   7.722  0.2231 -1.4929 -1.5070
  499MOL0     H65857   6.900  10.679   7.713  3.8452 -1.0342  1.9124
  499MOL0     H65858   7.096  10.642   8.034 -1.0900  1.4735  0.5096
  499MOL0     H65859   7.134  10.678   7.871 -0.3779  0.7470  0.7174
  499MOL0     H65860   7.219  10.399   7.926  3.1307 -0.3393  0.9122
  499MOL0     H65861   7.304  10.534   7.846 -0.0745  0.6243 -0.8880
  499MOL0     H65862   7.262  10.449   8.147 -1.3465 -2.3465 -1.5790
  499MOL0     H65863   7.306  10.617   8.104 -0.5101 -0.3912  2.2681
  499MOL0     H65864   7.457  10.377   8.048 -1.9350 -1.0328  1.8777
  499MOL0     H65865   7.497  10.555   7.994 -0.1136  0.4577  0.2786
  499MOL0     H65866   7.576  10.561   8.409 -1.0874  0.4506 -0.4448
  499MOL0     H65867   6.821  10.457   8.076  1.3043  1.4119  1.0316
  499MOL0     H65868   6.584  10.553   8.085  0.3961  0.4254  0.7639
  500MOL0     O65869   9.995   8.077   7.604  0.0376 -0.3931  0.9402
  500MOL0     C65870  10.002   8.095   7.484 -0.2414 -0.6864  0.8689
  500MOL0     O65871   9.918   8.039   7.391  0.1877 -0.0210 -0.2393
  500MOL0     C65872   9.808   7.961   7.427  1.1038  0.1887  0.5590
  500MOL0     C65873   9.804   7.829   7.383  1.2435  0.4084 -0.1627
  500MOL0     C65874   9.689   7.739   7.405 -0.2384 -0.2768 -0.4714
  500MOL0     C65875   9.578   7.794   7.483 -0.0373  0.4466  0.4805
  500MOL0     O65876   9.466   7.714   7.503 -0.2101 -0.3171  0.3042
  500MOL0     C65877   9.409   7.729   7.639 -0.7140 -0.1866  0.3837
  500MOL0     C65878   9.287   7.645   7.653  0.0085  0.4453 -0.0832
  500MOL0     C65879   9.208   7.691   7.770  0.3816  0.1341 -0.2007
  500MOL0     C65880   9.082   7.600   7.794 -0.2924 -0.3290  0.3932
  500MOL0     C65881   8.965   7.680   7.854 -0.5619 -0.0468 -0.1400
  500MOL0     C65882   8.847   7.590   7.862 -0.7134 -0.1278 -0.5101
  500MOL0     C65883   8.740   7.639   7.964  0.4314 -0.5782  0.0892
  500MOL0     C65884   8.719   7.791   7.975 -0.3367  0.3463  0.0519
  500MOL0     N65885   8.602   7.814   8.063 -0.3543  0.5484  0.7826
  500MOL0     C65886   8.605   7.836   8.196  0.1568  0.6980 -0.4477
  500MOL0     C65887   8.481   7.875   8.234 -0.5168 -0.1833  0.3586
  500MOL0     C65888   8.429   7.905   8.373  0.0241  0.3854 -0.8173
  500MOL0     C65889   8.452   8.055   8.391  0.2194  0.2841 -0.0302
  500MOL0     C65890   8.597   8.096   8.400  0.2848  1.0002 -0.9639
  500MOL0     C65891   8.618   8.242   8.392  0.6061 -1.2688  0.3160
  500MOL0     O65892   8.558   8.314   8.500 -0.4506  0.1995  0.4513
  500MOL0     C65893   8.501   8.427   8.460  0.6958  0.4113  0.6478
  500MOL0     C65894   8.569   8.535   8.403  0.0217 -0.6306  0.6053
  500MOL0     C65895   8.504   8.645   8.363 -0.2870 -0.4904  0.9284
  500MOL0     C65896   8.364   8.667   8.386 -0.2023 -0.0281  0.0843
  500MOL0     C65897   8.289   8.788   8.345  0.2047 -0.4802 -0.1427
  500MOL0     O65898   8.158   8.771   8.350  0.3705 -0.3007  0.3267
  500MOL0     C65899   8.089   8.891   8.315  0.1781 -0.2564  0.7368
  500MOL0     C65900   8.040   8.976   8.413  0.0768 -0.6021  0.1664
  500MOL0     C65901   7.958   9.084   8.382  0.2446  0.0967  1.0177
  500MOL0     C65902   7.931   9.113   8.251  0.0646 -0.1705  0.4645
  500MOL0     O65903   7.851   9.225   8.238  0.0790  0.3088  0.0318
  500MOL0     C65904   7.872   9.299   8.127  0.2347 -0.3690 -0.3729
  500MOL0     C65905   7.746   9.378   8.120 -0.5025  0.9826 -1.1642
  500MOL0     C65906   7.747   9.465   7.999  0.1176  0.0881  0.0728
  500MOL0     C65907   7.618   9.543   7.977  0.9081  0.1890 -0.1240
  500MOL0     C65908   7.519   9.458   7.903  0.4991 -0.8940 -1.4141
  500MOL0     C65909   7.379   9.527   7.891  0.3502  0.1526 -0.3644
  500MOL0     C65910   7.270   9.439   7.828 -0.3634 -0.1671 -0.2456
  500MOL0     C65911   7.138   9.446   7.908  0.0385  0.2732 -0.2580
  500MOL0    Cl65912   7.010   9.332   7.834 -0.1551 -0.1485  0.2186
  500MOL0     C65913   7.977   9.030   8.149 -0.3371  0.1709  0.0425
  500MOL0     C65914   8.060   8.930   8.183 -0.5577  0.2253 -0.3217
  500MOL0     O65915   8.348   8.891   8.313 -0.2627  0.3692 -0.4007
  500MOL0     C65916   8.303   8.569   8.467  0.4600 -0.5768  0.4551
  500MOL0     C65917   8.366   8.448   8.494 -0.0041 -0.2020  0.2482
  500MOL0     N65918   8.408   7.885   8.117  0.5143 -1.7491  1.6507
  500MOL0     N65919   8.476   7.852   8.019 -0.2759  0.5340  0.5439
  500MOL0     C65920   9.594   7.921   7.532  1.4059 -0.4130 -0.8973
  500MOL0     C65921   9.704   8.004   7.509 -0.4194  0.3322 -0.6569
  500MOL0     C65922  10.099   8.184   7.419 -0.1675 -0.3523 -0.2851
  500MOL0     C65923  10.141   8.174   7.283  0.7511 -0.0326 -0.5100
  500MOL0     C65924  10.245   8.246   7.234 -0.2039 -0.7606 -0.5783
  500MOL0     C65925  10.331   8.324   7.328 -0.0848  0.3341  1.2721
  500MOL0     O65926  10.432   8.396   7.283 -0.3826  0.0621  0.7419
  500MOL0     C65927  10.475   8.397   7.141 -0.6285  0.1319 -0.0993
  500MOL0     C65928  10.608   8.488   7.130 -1.3411 -0.2933 -0.3861
  500MOL0     C65929  10.729   8.409   7.194  0.0195  0.0996  0.2034
  500MOL0     C65930  10.872   8.468   7.165  1.2293  0.6007 -0.2539
  500MOL0     C65931  10.868   8.602   7.211  0.1503 -0.0448  0.7842
  500MOL0     C65932  10.892   8.721   7.212 -0.0519  0.2877  0.4493
  500MOL0     C65933  10.296   8.330   7.459  0.1237  0.1706  0.4539
  500MOL0     C65934  10.184   8.268   7.500  0.2537  0.2958 -0.2673
  500MOL0     H65935   9.895   7.796   7.333  2.4498 -1.5928  2.9926
  500MOL0     H65936   9.678   7.640   7.363  0.3976 -0.5819  0.0640
  500MOL0     H65937   9.391   7.835   7.657  3.7850  1.1711 -1.7356
  500MOL0     H65938   9.480   7.694   7.713 -4.0069 -3.6291  2.2610
  500MOL0     H65939   9.316   7.539   7.648  0.9871  0.7170 -0.4593
  500MOL0     H65940   9.224   7.675   7.569  0.7589  1.3195 -0.3452
  500MOL0     H65941   9.172   7.794   7.755  1.4323  0.7392  1.2219
  500MOL0     H65942   9.267   7.694   7.861  0.4298 -2.6461 -0.0774
  500MOL0     H65943   9.057   7.563   7.694  0.7012  2.5703 -1.0288
  500MOL0     H65944   9.119   7.518   7.857  0.7500  2.0863  3.1378
  500MOL0     H65945   8.938   7.772   7.801  0.2584  1.7984  2.4215
  500MOL0     H65946   8.995   7.707   7.956 -0.1516 -0.3795 -0.1718
  500MOL0     H65947   8.872   7.484   7.879 -1.4362  0.0934  2.5167
  500MOL0     H65948   8.800   7.598   7.764 -0.2854  2.7943 -0.5564
  500MOL0     H65949   8.643   7.590   7.947 -0.6356  1.3524  0.2683
  500MOL0     H65950   8.778   7.610   8.062  0.5100  5.3855  2.2123
  500MOL0     H65951   8.714   7.827   7.872  3.3938  1.4371  0.1167
  500MOL0     H65952   8.806   7.841   8.018  2.8727 -4.0663 -0.5511
  500MOL0     H65953   8.687   7.829   8.268 -0.8510  0.6612  0.7382
  500MOL0     H65954   8.470   7.847   8.456 -3.6753 -3.1422 -1.1069
  500MOL0     H65955   8.321   7.887   8.379 -0.2833  2.4436  1.4058
  500MOL0     H65956   8.413   8.095   8.485 -1.1614 -0.4109 -0.2922
  500MOL0     H65957   8.403   8.117   8.315 -3.0468 -2.3870 -0.3134
  500MOL0     H65958   8.637   8.057   8.494 -1.5096 -1.5649 -1.1842
  500MOL0     H65959   8.652   8.049   8.318 -3.2682  0.6873 -3.4119
  500MOL0     H65960   8.581   8.273   8.294  0.8648  0.1248  0.6278
  500MOL0     H65961   8.724   8.266   8.377  0.6678 -1.7978 -0.1009
  500MOL0     H65962   8.670   8.530   8.363  0.3690  1.7828  1.0080
  500MOL0     H65963   8.565   8.722   8.317  0.4173 -0.2744  2.1832
  500MOL0     H65964   8.061   8.961   8.518 -0.4341  1.2397  0.5562
  500MOL0     H65965   7.912   9.143   8.461 -1.7439 -1.7529  1.3218
  500MOL0     H65966   7.869   9.236   8.037 -0.5506 -2.1082  0.8189
  500MOL0     H65967   7.967   9.353   8.124 -0.8702  1.6788 -2.6394
  500MOL0     H65968   7.737   9.428   8.217  1.7072 -1.5577  0.4782
  500MOL0     H65969   7.664   9.305   8.115 -0.0675 -0.1218  3.6605
  500MOL0     H65970   7.758   9.395   7.916 -0.8047 -2.4621  1.9944
  500MOL0     H65971   7.830   9.536   8.003  1.1421 -0.9385 -1.8477
  500MOL0     H65972   7.575   9.574   8.073  0.7316  2.6024 -0.9011
  500MOL0     H65973   7.626   9.644   7.934 -1.5096  1.6336  2.4834
  500MOL0     H65974   7.514   9.358   7.947  1.1773 -0.9451 -1.4480
  500MOL0     H65975   7.562   9.442   7.804  1.2514  0.9479 -1.4277
  500MOL0     H65976   7.373   9.620   7.834 -3.1474  0.9452  0.9958
  500MOL0     H65977   7.356   9.566   7.990 -1.1011  1.1170 -1.0447
  500MOL0     H65978   7.250   9.483   7.730  0.7505  2.0721  0.4485
  500MOL0     H65979   7.302   9.335   7.813 -0.9397 -0.6443  1.5113
  500MOL0     H65980   7.100   9.548   7.914  2.5004  1.2393 -0.1298
  500MOL0     H65981   7.163   9.426   8.012 -0.3833 -0.2822 -0.2578
  500MOL0     H65982   7.960   9.055   8.044 -1.3704  0.3513  0.2501
  500MOL0     H65983   8.116   8.877   8.106  3.1339 -2.2091  3.5651
  500MOL0     H65984   8.205   8.590   8.507 -0.2246 -0.9964 -0.9122
  500MOL0     H65985   8.304   8.363   8.523  0.5895 -0.4547  0.7858
  500MOL0     H65986   9.520   7.976   7.591  1.4566  1.5002 -2.4985
  500MOL0     H65987   9.710   8.105   7.547 -1.9228 -0.7244  2.9050
  500MOL0     H65988  10.094   8.109   7.209  1.3762  0.5751 -1.4703
  500MOL0     H65989  10.267   8.242   7.128  2.4752  3.5851 -0.4432
  500MOL0     H65990  10.385   8.431   7.090  0.1800  0.1666 -1.5709
  500MOL0     H65991  10.496   8.298   7.098 -0.9351 -0.7683  1.7077
  500MOL0     H65992  10.627   8.513   7.026  1.2100  0.5899  0.2192
  500MOL0     H65993  10.593   8.584   7.181  1.4332 -0.3478  0.6816
  500MOL0     H65994  10.725   8.308   7.154 -0.4361  0.3416 -0.3643
  500MOL0     H65995  10.716   8.405   7.303  3.3867 -1.2567  0.7076
  500MOL0     H65996  10.958   8.423   7.216  1.3281  1.8142  0.6957
  500MOL0     H65997  10.904   8.463   7.060 -0.0902  1.2583 -0.7143
  500MOL0     H65998  10.925   8.822   7.199  2.6880 -0.7344 -1.4680
  500MOL0     H65999  10.355   8.385   7.532  0.4875  1.1617 -0.5567
  500MOL0     H66000  10.169   8.270   7.608 -0.5511  0.5346 -0.3820
  501MOL0     O66001   6.463   2.749   3.800 -0.2118  0.7070  0.2178
  501MOL0     C66002   6.494   2.657   3.877  1.4113 -0.8797 -0.0971
  501MOL0     O66003   6.402   2.581   3.948  0.3804 -0.0854  0.1997
  501MOL0     C66004   6.269   2.591   3.910  0.3813 -0.0587 -0.0148
  501MOL0     C66005   6.219   2.514   3.804  0.1682 -0.1946  0.0254
  501MOL0     C66006   6.085   2.519   3.762 -1.1235 -0.6081  1.0749
  501MOL0     C66007   5.997   2.611   3.817  0.1417 -0.7963 -0.3519
  501MOL0     O66008   5.863   2.633   3.789  0.8742  0.0352  0.0001
  501MOL0     C66009   5.822   2.621   3.649  0.7314 -0.5017  0.3706
  501MOL0     C66010   5.695   2.715   3.625 -0.3177  0.0027 -0.6677
  501MOL0     C66011   5.572   2.676   3.697 -0.0410  0.3096  0.1059
  501MOL0     C66012   5.453   2.747   3.642  0.3128  0.5518  0.1057
  501MOL0     C66013   5.320   2.715   3.703  0.4990  0.2706 -0.4955
  501MOL0     C66014   5.214   2.809   3.646  0.3091 -0.4082 -1.0088
  501MOL0     C66015   5.072   2.779   3.702  0.0768  0.5873 -0.6049
  501MOL0     C66016   5.016   2.657   3.639  0.5029  0.2125  0.8297
  501MOL0     N66017   4.869   2.662   3.659 -0.4241  0.2778  0.1468
  501MOL0     C66018   4.794   2.653   3.770 -0.2339 -0.3379 -0.7851
  501MOL0     C66019   4.676   2.701   3.727  0.1324  0.3102  0.0544
  501MOL0     C66020   4.562   2.725   3.824  0.7132 -0.4282 -0.2180
  501MOL0     C66021   4.423   2.735   3.761 -0.0657 -0.2559  0.0030
  501MOL0     C66022   4.370   2.621   3.688  0.4236  0.1919  0.8859
  501MOL0     C66023   4.331   2.506   3.767  0.4408  0.7801  0.0832
  501MOL0     O66024   4.205   2.546   3.827 -0.6323 -0.0643 -0.1978
  501MOL0     C66025   4.136   2.454   3.907 -1.1614 -0.0925  0.4367
  501MOL0     C66026   4.180   2.322   3.923  0.8025  0.2949  0.2843
  501MOL0     C66027   4.127   2.250   4.034  0.4186  0.2421  0.4113
  501MOL0     C66028   4.033   2.304   4.122  0.9177  0.4144 -0.3721
  501MOL0     C66029   3.966   2.217   4.231  0.3469  0.3409 -0.5877
  501MOL0     O66030   3.881   2.285   4.322 -1.0234  0.0233  0.7486
  501MOL0     C66031   3.839   2.211   4.429  0.1441 -0.1429  0.2963
  501MOL0     C66032   3.838   2.294   4.544 -0.4844  0.3806 -0.2603
  501MOL0     C66033   3.764   2.257   4.654 -0.2774 -0.0628 -0.1122
  501MOL0     C66034   3.704   2.133   4.657 -0.0519 -0.2819 -0.1900
  501MOL0     O66035   3.653   2.064   4.765 -0.8366 -0.8269  0.0674
  501MOL0     C66036   3.642   2.142   4.884  0.0902 -0.4303  0.0147
  501MOL0     C66037   3.576   2.065   4.993 -0.4072 -0.6229 -0.2442
  501MOL0     C66038   3.431   2.044   4.947 -0.6814  0.2833 -0.3991
  501MOL0     C66039   3.364   1.950   5.043 -0.4634 -0.9834  0.4281
  501MOL0     C66040   3.216   1.971   5.046  0.4854 -0.0748  0.0311
  501MOL0     C66041   3.150   1.875   5.156 -0.4433 -0.2803 -1.1940
  501MOL0     C66042   2.998   1.880   5.166  0.0350  0.8875  0.6058
  501MOL0     C66043   2.918   1.864   5.040  0.0044  0.4525  0.5393
  501MOL0    Cl66044   2.951   1.706   4.967  0.4011 -0.3366  0.3303
  501MOL0     C66045   3.719   2.044   4.548 -0.3970  0.4251  0.0641
  501MOL0     C66046   3.776   2.083   4.431  0.3867 -0.2403 -0.5281
  501MOL0     O66047   3.989   2.095   4.235  0.2616 -0.2496 -0.2986
  501MOL0     C66048   3.969   2.425   4.086  0.4121  0.9295  0.1158
  501MOL0     C66049   4.027   2.501   3.977  0.6828  0.1008 -1.0826
  501MOL0     N66050   4.673   2.720   3.594 -0.1719 -0.9125 -0.8207
  501MOL0     N66051   4.798   2.716   3.556 -0.1907  0.0676  0.2554
  501MOL0     C66052   6.046   2.672   3.932 -0.1234 -0.3087 -1.0485
  501MOL0     C66053   6.176   2.666   3.977 -0.2957 -0.5632 -0.9090
  501MOL0     C66054   6.642   2.643   3.907 -0.1433 -0.1832  0.1404
  501MOL0     C66055   6.676   2.540   4.001 -0.1205 -0.0519  0.0121
  501MOL0     C66056   6.814   2.525   4.025  0.8941  0.2503  0.2553
  501MOL0     C66057   6.908   2.596   3.961 -0.7558  0.5343  0.1680
  501MOL0     O66058   7.045   2.592   3.996  0.7013 -0.5555  0.3109
  501MOL0     C66059   7.078   2.560   4.128  0.9872 -0.1955  0.3390
  501MOL0     C66060   7.226   2.597   4.152  0.5195 -0.0696 -0.3400
  501MOL0     C66061   7.312   2.514   4.061  0.0716 -0.0866  0.3234
  501MOL0     C66062   7.453   2.522   4.108  0.4301 -0.1603  0.0806
  501MOL0     C66063   7.553   2.476   4.010 -0.5116  0.6669  0.6338
  501MOL0     C66064   7.638   2.442   3.923 -0.0693 -0.0693  0.6211
  501MOL0     C66065   6.873   2.687   3.860 -0.0343 -0.0136  0.8485
  501MOL0     C66066   6.738   2.712   3.832 -0.3131  0.6038  0.9407
  501MOL0     H66067   6.270   2.449   3.734  1.1638  2.8042 -2.2039
  501MOL0     H66068   6.047   2.469   3.673  0.5974  1.2106 -0.7709
  501MOL0     H66069   5.800   2.518   3.619  1.2785 -0.3378 -0.6550
  501MOL0     H66070   5.895   2.660   3.578  0.9755  1.2635  1.5491
  501MOL0     H66071   5.680   2.713   3.517 -2.2653  1.9537 -0.5073
  501MOL0     H66072   5.723   2.815   3.658  0.0649 -0.8444  1.7970
  501MOL0     H66073   5.578   2.700   3.803  0.7544 -1.5891  0.5318
  501MOL0     H66074   5.567   2.567   3.691 -1.9062  0.3012  1.0204
  501MOL0     H66075   5.489   2.849   3.657  1.6027  0.3218 -1.2471
  501MOL0     H66076   5.435   2.717   3.538  0.9327  1.1959 -0.1973
  501MOL0     H66077   5.319   2.729   3.812 -1.8632 -0.0669 -0.4167
  501MOL0     H66078   5.299   2.610   3.680  3.2367 -0.2357 -1.0157
  501MOL0     H66079   5.219   2.805   3.536 -0.5163 -1.5274 -1.0173
  501MOL0     H66080   5.242   2.914   3.664 -0.3558 -0.2078 -1.1020
  501MOL0     H66081   5.081   2.774   3.811  2.6535  1.4908 -0.6952
  501MOL0     H66082   5.003   2.856   3.665 -2.1210 -1.1789 -0.3626
  501MOL0     H66083   5.066   2.568   3.679  1.5817  0.6015  0.4046
  501MOL0     H66084   5.049   2.667   3.535  0.0499  4.8770  0.8832
  501MOL0     H66085   4.823   2.615   3.868  0.9355 -0.4668 -1.1684
  501MOL0     H66086   4.597   2.816   3.874  1.5350 -1.2376  0.7230
  501MOL0     H66087   4.561   2.654   3.907 -0.3740 -1.2454 -0.8895
  501MOL0     H66088   4.414   2.821   3.693  2.1234 -0.2208 -0.2944
  501MOL0     H66089   4.356   2.767   3.841 -0.6453  0.8255 -0.8715
  501MOL0     H66090   4.272   2.643   3.645  0.0230 -0.8578  1.2181
  501MOL0     H66091   4.444   2.592   3.613 -0.5043  2.7072 -1.1455
  501MOL0     H66092   4.409   2.473   3.835 -1.4077 -1.8130  1.1290
  501MOL0     H66093   4.309   2.421   3.702 -0.4842  1.1729 -0.1321
  501MOL0     H66094   4.264   2.285   3.865  2.3803  1.7965  1.5028
  501MOL0     H66095   4.168   2.151   4.056 -1.1078 -0.4917  0.1110
  501MOL0     H66096   3.877   2.395   4.534  1.5133 -0.4522 -1.6046
  501MOL0     H66097   3.758   2.326   4.738  0.4215 -0.0382 -0.0789
  501MOL0     H66098   3.579   2.229   4.864  1.3968  0.7029  0.6675
  501MOL0     H66099   3.738   2.181   4.919  0.6785 -0.7892 -1.1467
  501MOL0     H66100   3.574   2.125   5.085 -1.3548 -1.2039  0.1296
  501MOL0     H66101   3.646   1.981   5.005  1.9358  1.2861  0.3432
  501MOL0     H66102   3.434   2.003   4.845  0.6805 -0.0158 -0.2594
  501MOL0     H66103   3.372   2.135   4.952 -2.3208 -0.7609  0.2419
  501MOL0     H66104   3.387   1.845   5.027  0.1468 -0.5803 -1.6400
  501MOL0     H66105   3.400   1.973   5.144 -2.1568 -2.9575  1.5611
  501MOL0     H66106   3.170   1.948   4.950  0.6763  0.3695 -0.1709
  501MOL0     H66107   3.208   2.077   5.070 -2.1527 -0.3180  0.4507
  501MOL0     H66108   3.197   1.900   5.251 -0.5277 -1.9265 -0.6978
  501MOL0     H66109   3.186   1.774   5.134 -0.7461 -0.8509  0.7797
  501MOL0     H66110   2.971   1.791   5.225  0.8877  0.3714  0.2281
  501MOL0     H66111   2.967   1.967   5.225 -0.5537 -1.3228  3.8597
  501MOL0     H66112   2.944   1.945   4.971  2.9500  0.3431  1.3788
  501MOL0     H66113   2.810   1.863   5.060 -0.1858 -1.6618 -0.3549
  501MOL0     H66114   3.676   1.945   4.535  0.3580  0.1208 -0.1633
  501MOL0     H66115   3.798   2.030   4.339  0.1959  0.7532 -1.1688
  501MOL0     H66116   3.882   2.459   4.141  0.4593 -0.8261  1.3668
  501MOL0     H66117   3.991   2.599   3.948 -0.5140 -0.0118 -0.0558
  501MOL0     H66118   5.986   2.734   3.999  1.5720  1.2349 -0.8689
  501MOL0     H66119   6.206   2.716   4.068 -0.5346  0.3286 -1.3103
  501MOL0     H66120   6.595   2.479   4.038 -0.1748 -0.9143 -1.4821
  501MOL0     H66121   6.835   2.458   4.108  1.7186  0.0034 -0.1445
  501MOL0     H66122   7.071   2.453   4.148  2.8876 -0.7167 -1.4274
  501MOL0     H66123   7.011   2.604   4.203  0.8290 -1.0643  0.7150
  501MOL0     H66124   7.236   2.705   4.146 -2.6872  0.3038 -1.1070
  501MOL0     H66125   7.238   2.565   4.256 -0.1281  1.5284  0.2622
  501MOL0     H66126   7.318   2.547   3.957  2.9667 -1.2854 -0.0134
  501MOL0     H66127   7.277   2.412   4.046  0.3116 -0.5182  2.3386
  501MOL0     H66128   7.481   2.624   4.134 -1.3017  0.3908 -0.1200
  501MOL0     H66129   7.455   2.463   4.200 -0.4443  1.1016  0.9397
  501MOL0     H66130   7.712   2.422   3.849 -0.1926  0.1583  0.4325
  501MOL0     H66131   6.935   2.756   3.803  0.3445 -0.4459  0.7252
  501MOL0     H66132   6.694   2.788   3.768 -1.5145  1.5470  2.8181
  502MOL0     O66133   4.731   5.618   2.328  1.0531  0.2565 -0.4321
  502MOL0     C66134   4.789   5.550   2.243 -0.7647 -0.1181 -0.8383
  502MOL0     O66135   4.740   5.456   2.169 -0.7568  0.0540  0.6204
  502MOL0     C66136   4.612   5.421   2.146  0.8159 -0.0873 -0.4154
  502MOL0     C66137   4.591   5.372   2.023  0.7175  0.5094  0.1776
  502MOL0     C66138   4.462   5.344   1.977  0.6029  0.2188 -0.9627
  502MOL0     C66139   4.353   5.351   2.071  0.4507 -0.6236 -0.8242
  502MOL0     O66140   4.223   5.338   2.018  0.1383  0.5669 -0.0371
  502MOL0     C66141   4.207   5.224   1.938 -0.6841  0.2721  0.4398
  502MOL0     C66142   4.063   5.202   1.901  0.5522 -0.2646 -0.4106
  502MOL0     C66143   3.983   5.316   1.855 -0.2629 -0.4638  0.1064
  502MOL0     C66144   3.841   5.281   1.854  1.3894  0.3139  0.4320
  502MOL0     C66145   3.743   5.375   1.794  0.7406  0.2052 -0.1589
  502MOL0     C66146   3.733   5.503   1.871  0.7158 -0.6266  0.5064
  502MOL0     C66147   3.610   5.586   1.834  0.3810 -0.1143  0.5328
  502MOL0     C66148   3.591   5.618   1.691  0.1247  0.0087 -0.0125
  502MOL0     N66149   3.492   5.734   1.699 -0.2338  0.8773 -0.0522
  502MOL0     C66150   3.359   5.704   1.677 -0.1103 -0.7508  0.5444
  502MOL0     C66151   3.310   5.813   1.622  0.2674  0.3440 -0.4240
  502MOL0     C66152   3.174   5.833   1.570 -1.1461  0.1231 -0.7001
  502MOL0     C66153   3.186   5.933   1.449  0.2038 -0.5265 -0.2200
  502MOL0     C66154   3.044   5.958   1.382 -0.2884  0.9809  0.8560
  502MOL0     C66155   3.002   5.836   1.300  0.0375  0.2701 -0.6928
  502MOL0     O66156   2.960   5.737   1.384  0.3157  0.4058 -0.2934
  502MOL0     C66157   2.822   5.727   1.395 -0.2248 -0.0192 -1.0192
  502MOL0     C66158   2.746   5.642   1.312  0.1404  0.7922 -0.3977
  502MOL0     C66159   2.606   5.638   1.306 -0.1950 -0.7358 -0.2155
  502MOL0     C66160   2.534   5.716   1.394  0.1321 -0.0844 -0.7637
  502MOL0     C66161   2.384   5.708   1.397 -0.5633 -0.2301  0.2278
  502MOL0     O66162   2.328   5.627   1.297 -0.2204  0.4379 -0.3814
  502MOL0     C66163   2.193   5.590   1.294 -0.1574  0.3903  0.2334
  502MOL0     C66164   2.094   5.632   1.379 -0.0003 -0.3350 -0.2555
  502MOL0     C66165   1.967   5.572   1.371  0.3067 -0.7457  0.3860
  502MOL0     C66166   1.946   5.469   1.287  0.8508 -0.7139 -0.3589
  502MOL0     O66167   1.828   5.406   1.270  0.7714 -0.1853 -0.0343
  502MOL0     C66168   1.702   5.473   1.280  0.4994 -0.6776  0.6177
  502MOL0     C66169   1.588   5.389   1.225  0.0808  0.0323  0.2353
  502MOL0     C66170   1.463   5.469   1.208  0.9565 -0.2500  0.4325
  502MOL0     C66171   1.334   5.391   1.177  0.4462  0.6142 -1.0943
  502MOL0     C66172   1.224   5.475   1.139  0.4384  0.1493 -0.4168
  502MOL0     C66173   1.078   5.414   1.174 -1.0342  0.4583 -0.5992
  502MOL0     C66174   0.973   5.498   1.100 -0.8498 -0.0552 -0.0896
  502MOL0     C66175   0.834   5.464   1.157  0.1971  0.1707  0.1772
  502MOL0    Cl66176   0.764   5.322   1.054  0.4284 -0.2920 -0.3992
  502MOL0     C66177   2.050   5.435   1.201  0.5878 -0.4411 -0.6367
  502MOL0     C66178   2.175   5.492   1.203 -0.6687  0.2228  0.1236
  502MOL0     O66179   2.328   5.771   1.489 -0.2747  0.5093 -0.4145
  502MOL0     C66180   2.612   5.786   1.488  0.6678 -0.5049 -0.1629
  502MOL0     C66181   2.748   5.804   1.486  0.2533  0.2321  0.0899
  502MOL0     N66182   3.412   5.907   1.605 -0.2762  0.6894  0.0881
  502MOL0     N66183   3.519   5.855   1.648 -0.2874 -0.7175  0.0612
  502MOL0     C66184   4.377   5.386   2.202  0.4825 -0.4679 -0.6407
  502MOL0     C66185   4.502   5.428   2.238 -0.1374 -0.1484 -0.4731
  502MOL0     C66186   4.933   5.585   2.245  0.1855 -0.0186  0.4093
  502MOL0     C66187   5.023   5.481   2.216 -0.1544  0.1692 -0.4403
  502MOL0     C66188   5.161   5.485   2.231  0.8887 -0.4860  1.0882
  502MOL0     C66189   5.206   5.604   2.279  0.0864 -0.7023 -0.2243
  502MOL0     O66190   5.336   5.632   2.300 -0.3811 -0.0954  0.6161
  502MOL0     C66191   5.440   5.528   2.273 -0.4572  0.1844  0.5919
  502MOL0     C66192   5.590   5.571   2.304 -0.2409 -0.6628 -0.1374
  502MOL0     C66193   5.617   5.565   2.452  1.2132  0.1397  0.0200
  502MOL0     C66194   5.758   5.620   2.489 -0.4987 -0.9398  0.0872
  502MOL0     C66195   5.763   5.768   2.483 -0.8187 -0.2952  0.0292
  502MOL0     C66196   5.756   5.885   2.473 -1.4138 -0.2885  0.6573
  502MOL0     C66197   5.126   5.711   2.324  0.0403  0.5588  1.2408
  502MOL0     C66198   4.989   5.702   2.304  0.3286 -1.0071 -0.0454
  502MOL0     H66199   4.678   5.367   1.957  1.0654  1.1354  0.5731
  502MOL0     H66200   4.438   5.330   1.872 -0.8990  1.3250 -0.8063
  502MOL0     H66201   4.248   5.131   1.979 -1.6422 -0.9686 -1.3015
  502MOL0     H66202   4.242   5.249   1.838 -0.7012 -2.7620 -0.4213
  502MOL0     H66203   4.022   5.163   1.995 -0.0218 -0.9635 -0.9358
  502MOL0     H66204   4.047   5.128   1.822  0.6031  0.2829 -0.9352
  502MOL0     H66205   4.010   5.344   1.752  3.5173  0.1854  1.1105
  502MOL0     H66206   4.007   5.397   1.925 -1.2663 -0.1083  0.0591
  502MOL0     H66207   3.833   5.192   1.790  1.5667  1.4125 -1.1697
  502MOL0     H66208   3.811   5.256   1.956  0.4084  0.4052  0.1757
  502MOL0     H66209   3.640   5.337   1.804 -1.0821  3.7416 -2.9317
  502MOL0     H66210   3.752   5.386   1.685  0.6116 -1.0725 -0.3159
  502MOL0     H66211   3.823   5.561   1.846 -0.2365  0.5731 -0.2152
  502MOL0     H66212   3.743   5.485   1.979  2.8586 -0.3910  0.4032
  502MOL0     H66213   3.520   5.535   1.871 -0.0125  1.2640  1.5776
  502MOL0     H66214   3.608   5.680   1.890 -2.1827  0.8149 -0.9272
  502MOL0     H66215   3.545   5.536   1.635 -1.6733  2.2392 -2.0298
  502MOL0     H66216   3.682   5.649   1.638 -0.0417 -2.0138 -1.5963
  502MOL0     H66217   3.307   5.613   1.703 -1.7188  0.5291  2.1061
  502MOL0     H66218   3.120   5.886   1.650 -2.0470 -2.3448  0.4124
  502MOL0     H66219   3.117   5.741   1.560 -2.6142  0.9375 -0.1557
  502MOL0     H66220   3.247   5.884   1.372 -0.7418 -0.1787 -1.2184
  502MOL0     H66221   3.219   6.027   1.493 -4.2033 -0.1865  3.1441
  502MOL0     H66222   2.967   5.985   1.456  2.9287  1.5123  4.2907
  502MOL0     H66223   3.049   6.034   1.304  1.3844 -2.4096 -2.6560
  502MOL0     H66224   3.084   5.795   1.242 -0.8228 -1.9130 -0.4452
  502MOL0     H66225   2.924   5.864   1.228 -1.5336  0.2581  0.9146
  502MOL0     H66226   2.798   5.570   1.249 -1.3381 -1.6501  1.0098
  502MOL0     H66227   2.562   5.579   1.226  0.9422 -1.7097 -0.1500
  502MOL0     H66228   2.087   5.719   1.444 -3.7280  0.7193 -1.7464
  502MOL0     H66229   1.890   5.617   1.434  0.4538  3.8086 -2.2469
  502MOL0     H66230   1.709   5.570   1.231 -0.9227 -1.7102 -1.7780
  502MOL0     H66231   1.677   5.483   1.386 -0.5536 -0.7800  0.3921
  502MOL0     H66232   1.579   5.302   1.290  1.4536 -2.1544 -2.2802
  502MOL0     H66233   1.613   5.362   1.122 -3.0859 -0.9968 -0.3821
  502MOL0     H66234   1.489   5.532   1.123  0.6622 -1.0676 -0.2725
  502MOL0     H66235   1.448   5.525   1.301  0.0279  1.0666 -0.4797
  502MOL0     H66236   1.343   5.315   1.100 -1.2441 -1.1068  0.2996
  502MOL0     H66237   1.309   5.333   1.266  2.6052  1.3458  0.0686
  502MOL0     H66238   1.240   5.501   1.034  2.8266  0.3118 -0.0657
  502MOL0     H66239   1.229   5.574   1.184  0.5328 -1.0495  2.4463
  502MOL0     H66240   1.071   5.435   1.281  0.2569  2.8708 -0.9120
  502MOL0     H66241   1.071   5.306   1.157 -0.4804  0.4088 -0.5282
  502MOL0     H66242   0.983   5.605   1.121 -2.3316  0.3997 -1.4900
  502MOL0     H66243   0.970   5.481   0.992 -3.1649 -1.4768  0.1197
  502MOL0     H66244   0.765   5.548   1.152 -0.4367 -0.2639  1.2045
  502MOL0     H66245   0.845   5.439   1.263  0.9105 -0.9668 -0.1405
  502MOL0     H66246   2.018   5.351   1.140 -0.5033  0.0463 -0.7644
  502MOL0     H66247   2.263   5.459   1.148 -0.0485  0.0550  1.1771
  502MOL0     H66248   2.559   5.848   1.560  1.5359 -2.6862  2.5117
  502MOL0     H66249   2.804   5.853   1.565 -0.4796 -0.1497  0.8605
  502MOL0     H66250   4.297   5.383   2.276 -0.1524  0.8837 -1.2483
  502MOL0     H66251   4.529   5.452   2.340  1.9215  0.7811 -1.1712
  502MOL0     H66252   4.986   5.388   2.172  0.6251  0.0256 -0.7990
  502MOL0     H66253   5.227   5.402   2.209 -0.7476 -1.5851  0.1293
  502MOL0     H66254   5.432   5.507   2.166  0.7302  2.3098  0.0235
  502MOL0     H66255   5.426   5.434   2.328 -1.1425 -0.0138  0.0897
  502MOL0     H66256   5.657   5.509   2.244  0.8748  2.1932 -2.0559
  502MOL0     H66257   5.614   5.672   2.272  2.0515 -1.0328  0.2660
  502MOL0     H66258   5.611   5.465   2.496 -1.2901  0.5495  0.7271
  502MOL0     H66259   5.535   5.613   2.505  0.4676 -2.6427  1.5762
  502MOL0     H66260   5.791   5.601   2.592 -2.3311  0.7355  1.0558
  502MOL0     H66261   5.827   5.568   2.422  2.2247  1.7254  0.6252
  502MOL0     H66262   5.762   5.991   2.460  3.0837 -0.0041  3.1712
  502MOL0     H66263   5.172   5.801   2.363  0.8921  2.0977 -2.8275
  502MOL0     H66264   4.936   5.789   2.341 -0.7289 -1.0808 -1.2712
  503MOL0     O66265   1.383   6.790   2.542 -0.0957  0.1617  0.4298
  503MOL0     C66266   1.423   6.889   2.594 -0.1235  0.3477 -0.6005
  503MOL0     O66267   1.351   6.969   2.682  0.3442  0.2037  0.4645
  503MOL0     C66268   1.221   6.938   2.713 -0.5593 -0.1836 -0.4345
  503MOL0     C66269   1.122   6.916   2.621  0.7307 -1.5728  0.1754
  503MOL0     C66270   0.991   6.889   2.653  1.0341  0.4723  0.1267
  503MOL0     C66271   0.947   6.862   2.777  0.3736  0.3569 -0.5648
  503MOL0     O66272   0.828   6.805   2.815  1.0161  0.3593 -0.1910
  503MOL0     C66273   0.717   6.805   2.713  0.4263 -0.7982  0.0544
  503MOL0     C66274   0.583   6.768   2.778 -0.4995  0.4797 -0.4650
  503MOL0     C66275   0.510   6.673   2.685  0.0543 -0.3555  0.4970
  503MOL0     C66276   0.376   6.620   2.737 -1.0880  0.1563  0.3401
  503MOL0     C66277   0.305   6.528   2.632  0.2233  0.2004 -0.4974
  503MOL0     C66278   0.188   6.446   2.695  0.5412  0.3581  0.7749
  503MOL0     C66279   0.157   6.331   2.597  0.2893  0.4644 -0.5965
  503MOL0     C66280   0.033   6.255   2.639 -0.3164  0.0340  0.7183
  503MOL0     N66281  -0.082   6.316   2.567  0.8296 -0.3082 -0.4938
  503MOL0     C66282  -0.164   6.419   2.611  0.0848  0.2203  0.2815
  503MOL0     C66283  -0.251   6.423   2.502  0.6555 -0.9064 -0.8669
  503MOL0     C66284  -0.364   6.522   2.484 -0.4046  0.8780  0.4127
  503MOL0     C66285  -0.485   6.446   2.427 -0.5443  0.6958  0.3134
  503MOL0     C66286  -0.587   6.549   2.398 -0.0569  0.2179  0.0018
  503MOL0     C66287  -0.718   6.467   2.355  0.3365 -0.1046  0.7807
  503MOL0     O66288  -0.821   6.576   2.339 -0.7476  0.4369  0.5458
  503MOL0     C66289  -0.956   6.549   2.339  0.3953 -0.3861 -0.1235
  503MOL0     C66290  -1.011   6.426   2.378  0.2881  0.0825 -0.8505
  503MOL0     C66291  -1.154   6.428   2.394 -0.8314  1.1991 -0.6124
  503MOL0     C66292  -1.231   6.544   2.364 -0.3949 -0.1714 -0.2160
  503MOL0     C66293  -1.378   6.538   2.365 -0.3240 -0.0338 -0.9958
  503MOL0     O66294  -1.443   6.649   2.328 -0.3695 -0.4973  0.0041
  503MOL0     C66295  -1.573   6.630   2.306  0.5061  0.6917  0.0083
  503MOL0     C66296  -1.668   6.653   2.413  0.0441 -0.3196  0.7907
  503MOL0     C66297  -1.800   6.637   2.396  0.9179 -0.0665  0.1839
  503MOL0     C66298  -1.851   6.619   2.268  0.2087  0.3471  0.0776
  503MOL0     O66299  -1.986   6.615   2.267 -0.3225 -0.6940  0.7181
  503MOL0     C66300  -2.050   6.661   2.153 -0.2494 -0.7350 -0.1055
  503MOL0     C66301  -2.189   6.718   2.192  0.3088  0.7234  0.2621
  503MOL0     C66302  -2.278   6.595   2.223  1.1320  0.1997  0.9254
  503MOL0     C66303  -2.405   6.643   2.303  0.4810 -0.2097 -0.1656
  503MOL0     C66304  -2.487   6.530   2.360 -0.6232 -0.4139 -0.0598
  503MOL0     C66305  -2.576   6.464   2.248 -0.4905  0.4054 -0.7754
  503MOL0     C66306  -2.678   6.363   2.309 -0.0440 -0.6283  0.1044
  503MOL0     C66307  -2.790   6.436   2.386 -0.0026  0.1249 -0.2729
  503MOL0    Cl66308  -2.909   6.514   2.284 -0.0278 -0.4236 -0.6997
  503MOL0     C66309  -1.762   6.599   2.159 -0.4415  0.0233 -1.7205
  503MOL0     C66310  -1.625   6.606   2.173  0.5273  0.4531 -0.2415
  503MOL0     O66311  -1.427   6.424   2.377  0.8281 -0.6398 -0.0051
  503MOL0     C66312  -1.169   6.666   2.331 -0.7145 -0.7534  0.0347
  503MOL0     C66313  -1.033   6.665   2.318 -0.1639 -0.2867  0.0910
  503MOL0     N66314  -0.233   6.316   2.418 -0.0390  0.0824  0.3202
  503MOL0     N66315  -0.125   6.257   2.451  0.6096 -0.9693 -0.5426
  503MOL0     C66316   1.041   6.891   2.877 -0.1976  0.4403 -0.2846
  503MOL0     C66317   1.174   6.927   2.846 -0.0496  0.8090 -0.1328
  503MOL0     C66318   1.559   6.923   2.578  0.6705  0.0545  0.4203
  503MOL0     C66319   1.630   6.858   2.475  0.0968  0.4009 -0.0634
  503MOL0     C66320   1.766   6.883   2.474  0.6025  0.3409  0.8571
  503MOL0     C66321   1.831   6.960   2.565 -0.0652 -1.1591  0.2390
  503MOL0     O66322   1.970   6.969   2.564  0.1613  0.1849 -0.1689
  503MOL0     C66323   2.017   7.102   2.561  0.3481 -0.0229  0.4568
  503MOL0     C66324   2.167   7.116   2.569 -0.4152 -0.4207  0.0081
  503MOL0     C66325   2.226   7.016   2.660 -0.3336 -0.0523 -0.7622
  503MOL0     C66326   2.370   7.043   2.680  0.7916 -0.7182 -1.1473
  503MOL0     C66327   2.408   7.179   2.715  0.1405  0.8170  0.1500
  503MOL0     C66328   2.437   7.292   2.737  0.1907  0.1895 -0.7254
  503MOL0     C66329   1.757   7.014   2.671  0.7101 -0.8279 -0.2352
  503MOL0     C66330   1.624   7.010   2.668  1.2401  0.6164 -0.8229
  503MOL0     H66331   1.136   6.926   2.514  2.6456  0.3839  0.5413
  503MOL0     H66332   0.925   6.883   2.568  1.0308  1.9066  0.0037
  503MOL0     H66333   0.743   6.728   2.640  1.4836 -1.6339  1.2700
  503MOL0     H66334   0.706   6.897   2.655 -1.1257 -0.4074  0.9152
  503MOL0     H66335   0.528   6.857   2.809  0.2183  0.5094  0.7658
  503MOL0     H66336   0.604   6.712   2.869 -2.4422 -1.1843 -0.9710
  503MOL0     H66337   0.582   6.595   2.660  0.3304  0.4769 -1.4907
  503MOL0     H66338   0.499   6.722   2.588 -0.2161  0.2656  0.8352
  503MOL0     H66339   0.397   6.560   2.827  0.2347 -0.9956 -0.6918
  503MOL0     H66340   0.321   6.708   2.770 -0.1137  0.4429  1.2536
  503MOL0     H66341   0.380   6.455   2.603  0.0554 -1.6426  3.1683
  503MOL0     H66342   0.273   6.598   2.554 -2.2353  1.2918  1.3382
  503MOL0     H66343   0.106   6.515   2.719  1.4262  2.1363 -0.9748
  503MOL0     H66344   0.220   6.398   2.787  1.6594 -0.7419 -0.1580
  503MOL0     H66345   0.156   6.370   2.495  0.4430  0.7917 -0.4743
  503MOL0     H66346   0.240   6.262   2.611 -1.7332 -1.6330  2.4228
  503MOL0     H66347   0.035   6.263   2.748  0.4844 -1.2408  0.8263
  503MOL0     H66348   0.037   6.149   2.611 -1.0188  0.2405 -0.2322
  503MOL0     H66349  -0.142   6.493   2.687 -0.9540 -1.1129  1.9441
  503MOL0     H66350  -0.326   6.593   2.410  1.2705 -3.6460 -3.6018
  503MOL0     H66351  -0.383   6.566   2.583 -1.2283 -3.2324  2.3222
  503MOL0     H66352  -0.523   6.382   2.508 -1.1186  1.0170  0.3032
  503MOL0     H66353  -0.472   6.379   2.341 -0.4808 -4.2777  3.7305
  503MOL0     H66354  -0.606   6.626   2.473 -1.4920 -0.3104  0.2222
  503MOL0     H66355  -0.548   6.602   2.311 -0.0514 -3.4093 -2.4301
  503MOL0     H66356  -0.752   6.392   2.426 -1.5963  0.1079  0.1337
  503MOL0     H66357  -0.712   6.422   2.255 -0.1702  2.0132 -0.2751
  503MOL0     H66358  -0.951   6.342   2.410 -2.0247 -0.8772  1.3136
  503MOL0     H66359  -1.203   6.334   2.419  0.8670  0.4895  0.2379
  503MOL0     H66360  -1.637   6.688   2.512  0.6884 -0.8380  0.7833
  503MOL0     H66361  -1.866   6.657   2.479 -0.8883 -1.5519 -0.8233
  503MOL0     H66362  -2.071   6.574   2.091 -1.2688 -1.0825  0.7039
  503MOL0     H66363  -1.993   6.736   2.097 -0.4718  0.5441  1.3089
  503MOL0     H66364  -2.232   6.772   2.107  2.3962 -0.5625 -1.7552
  503MOL0     H66365  -2.183   6.783   2.279 -0.0443  1.3261 -0.1528
  503MOL0     H66366  -2.235   6.525   2.294 -0.9119 -0.8045  1.2717
  503MOL0     H66367  -2.299   6.548   2.126  1.4163 -1.4130  1.6164
  503MOL0     H66368  -2.376   6.699   2.392  2.5500 -2.5412  0.7749
  503MOL0     H66369  -2.464   6.703   2.233  0.6793 -1.0408 -1.0731
  503MOL0     H66370  -2.552   6.574   2.436  0.4206 -2.0751  1.9039
  503MOL0     H66371  -2.417   6.461   2.408  1.4947  2.0792  0.7066
  503MOL0     H66372  -2.516   6.408   2.176 -1.4097 -2.2273  0.3430
  503MOL0     H66373  -2.611   6.545   2.185  0.7771  0.8263 -0.9670
  503MOL0     H66374  -2.734   6.310   2.231 -1.3084 -0.7260  1.0444
  503MOL0     H66375  -2.635   6.288   2.376  1.1948  2.7681  3.5097
  503MOL0     H66376  -2.746   6.508   2.456  0.7475 -0.3277 -0.2665
  503MOL0     H66377  -2.840   6.362   2.449  3.4012 -0.3992  2.0686
  503MOL0     H66378  -1.812   6.578   2.065 -1.8512 -2.7347 -0.4733
  503MOL0     H66379  -1.563   6.597   2.084 -0.2394 -2.0348 -0.6049
  503MOL0     H66380  -1.232   6.752   2.309  0.7931  0.8054  1.5534
  503MOL0     H66381  -0.989   6.761   2.293 -2.0466  0.5217 -0.3555
  503MOL0     H66382   1.022   6.886   2.983  0.9128 -1.6096 -0.1385
  503MOL0     H66383   1.250   6.949   2.920  0.4154 -1.5073  0.1794
  503MOL0     H66384   1.588   6.794   2.398 -0.4733  1.1820 -0.4122
  503MOL0     H66385   1.833   6.832   2.406  1.7680  1.0634  1.4249
  503MOL0     H66386   1.962   7.155   2.640 -1.4581 -1.5339  0.2749
  503MOL0     H66387   1.968   7.149   2.475  0.7527 -2.1735 -1.0224
  503MOL0     H66388   2.217   7.114   2.472  2.2935  1.4587  1.2529
  503MOL0     H66389   2.177   7.219   2.605  0.1715 -0.0902 -1.0596
  503MOL0     H66390   2.222   6.916   2.617 -0.3186  0.6327 -2.4766
  503MOL0     H66391   2.188   7.020   2.762  4.6994 -0.4730  1.4074
  503MOL0     H66392   2.392   6.976   2.764 -1.0406  0.6587  0.5471
  503MOL0     H66393   2.434   7.016   2.596  0.1398  0.6559 -2.1175
  503MOL0     H66394   2.468   7.390   2.767  0.6087 -0.0743 -0.2942
  503MOL0     H66395   1.804   7.054   2.761  2.5402  0.6866 -1.7613
  503MOL0     H66396   1.565   7.058   2.746 -0.0322  0.3584 -1.5858
  504MOL0     O66397   7.032   7.184   1.972  0.2330 -0.0204  0.3740
  504MOL0     C66398   6.991   7.267   1.891 -0.0211  0.0883 -0.6153
  504MOL0     O66399   7.058   7.384   1.849  0.2683  0.6379  0.6764
  504MOL0     C66400   7.187   7.420   1.881 -0.9188  0.1010  0.3636
  504MOL0     C66401   7.266   7.369   1.980  0.3204  0.7892  0.1511
  504MOL0     C66402   7.395   7.421   2.011 -0.6046 -0.7737  0.2393
  504MOL0     C66403   7.428   7.546   1.947  0.3843  0.3987  0.0217
  504MOL0     O66404   7.551   7.596   1.976  0.1833 -0.7076  0.7209
  504MOL0     C66405   7.635   7.644   1.865  0.0930 -0.8358  0.3867
  504MOL0     C66406   7.686   7.536   1.775  0.1148 -0.1329 -0.4404
  504MOL0     C66407   7.800   7.572   1.693  0.3794 -0.2209 -0.0870
  504MOL0     C66408   7.825   7.459   1.592 -0.5785 -0.0012  0.2083
  504MOL0     C66409   7.946   7.493   1.508  0.2576 -1.2576  0.3213
  504MOL0     C66410   7.965   7.427   1.370 -0.6942 -0.6772 -0.2910
  504MOL0     C66411   8.069   7.497   1.283  0.3841  0.4471 -0.8820
  504MOL0     C66412   8.080   7.451   1.137 -0.1467 -1.0452  0.0873
  504MOL0     N66413   7.955   7.462   1.058  0.2932 -0.4327  0.1114
  504MOL0     C66414   7.899   7.358   0.992 -1.4205 -0.9145 -0.2141
  504MOL0     C66415   7.802   7.410   0.917  0.3687 -0.4876  0.2324
  504MOL0     C66416   7.727   7.328   0.814  0.8926  0.6639  0.1137
  504MOL0     C66417   7.575   7.340   0.828  0.5692  0.1678  0.2921
  504MOL0     C66418   7.508   7.271   0.949  0.0230 -0.0028 -0.0395
  504MOL0     C66419   7.361   7.299   0.968 -0.1003 -0.4021 -0.7663
  504MOL0     O66420   7.312   7.213   1.072  0.1999  0.1773 -0.3133
  504MOL0     C66421   7.174   7.193   1.086 -0.4537 -0.2251 -1.1799
  504MOL0     C66422   7.080   7.275   1.024 -0.3772  0.4415 -0.4501
  504MOL0     C66423   6.943   7.245   1.038  0.8676 -0.0808 -1.0663
  504MOL0     C66424   6.895   7.148   1.121  0.9710  0.0822  0.1248
  504MOL0     C66425   6.747   7.127   1.143  0.3228 -0.3924  0.0462
  504MOL0     O66426   6.704   7.026   1.226 -0.0471 -0.0585 -0.8399
  504MOL0     C66427   6.573   7.015   1.259  0.1811  0.3477 -0.6541
  504MOL0     C66428   6.515   7.094   1.360  0.3104 -0.1670 -0.5250
  504MOL0     C66429   6.377   7.084   1.389  0.8335 -0.7145 -0.2355
  504MOL0     C66430   6.297   6.991   1.333  0.4475  0.6696 -0.1346
  504MOL0     O66431   6.167   6.979   1.385 -0.1529  0.7287  0.0856
  504MOL0     C66432   6.133   6.845   1.429  0.8283  0.8132  0.6790
  504MOL0     C66433   6.035   6.848   1.539 -0.6372  0.7636  0.9541
  504MOL0     C66434   5.907   6.927   1.496  0.4484  0.1255 -0.5036
  504MOL0     C66435   5.806   6.911   1.608  0.7541 -0.9405 -0.2722
  504MOL0     C66436   5.668   6.985   1.597 -0.0241 -0.3090 -0.3808
  504MOL0     C66437   5.586   6.976   1.727 -0.0153 -0.1184 -0.5807
  504MOL0     C66438   5.436   7.008   1.714 -0.8227  0.3646 -0.8373
  504MOL0     C66439   5.348   6.957   1.823 -0.2304 -0.7130 -1.1890
  504MOL0    Cl66440   5.407   7.037   1.973 -0.1914 -0.1560  0.3445
  504MOL0     C66441   6.356   6.908   1.236 -0.8266 -0.1475  0.6899
  504MOL0     C66442   6.490   6.920   1.195  0.0365 -0.0983 -0.1369
  504MOL0     O66443   6.677   7.209   1.084 -0.1109 -0.0123  0.1637
  504MOL0     C66444   6.991   7.067   1.185  0.6447 -0.7291  0.0586
  504MOL0     C66445   7.123   7.085   1.166 -0.1524 -0.0417  0.5228
  504MOL0     N66446   7.789   7.548   0.949  0.1178 -0.3396 -0.9499
  504MOL0     N66447   7.886   7.581   1.034 -0.4911  0.1956  0.9840
  504MOL0     C66448   7.344   7.603   1.855 -0.0311 -0.7127 -0.3621
  504MOL0     C66449   7.227   7.535   1.813 -0.2929 -0.5790  0.5515
  504MOL0     C66450   6.847   7.263   1.845 -0.1573 -1.0187 -0.0427
  504MOL0     C66451   6.817   7.328   1.728  0.4396 -0.9216  0.0190
  504MOL0     C66452   6.686   7.328   1.675 -0.1455  0.3557 -0.7478
  504MOL0     C66453   6.590   7.258   1.744 -0.8144 -0.0228 -0.5648
  504MOL0     O66454   6.460   7.264   1.697  0.1679 -0.8191 -0.0927
  504MOL0     C66455   6.353   7.219   1.781  0.9914  0.5790 -0.6785
  504MOL0     C66456   6.229   7.237   1.699 -0.3267  0.0310  0.5647
  504MOL0     C66457   6.114   7.257   1.792  0.5577  0.3663 -0.6409
  504MOL0     C66458   5.997   7.310   1.719 -0.2861 -0.1035 -0.5589
  504MOL0     C66459   5.880   7.310   1.803 -0.7086  0.2921 -0.4066
  504MOL0     C66460   5.780   7.301   1.879 -0.8364  0.2502 -1.5385
  504MOL0     C66461   6.622   7.190   1.858 -0.0504  0.1417  1.1367
  504MOL0     C66462   6.750   7.196   1.907 -0.3381  0.0424 -0.8372
  504MOL0     H66463   7.251   7.278   2.037 -0.0057  1.2380  0.7929
  504MOL0     H66464   7.471   7.392   2.083  0.8868  1.3641 -0.3994
  504MOL0     H66465   7.726   7.685   1.912 -0.3872 -0.1799  0.7622
  504MOL0     H66466   7.589   7.723   1.805 -1.3259 -1.2496  0.9146
  504MOL0     H66467   7.601   7.486   1.728 -1.7635  1.8220  0.7275
  504MOL0     H66468   7.729   7.466   1.847 -0.7625  0.3359  0.5600
  504MOL0     H66469   7.886   7.591   1.757  0.5462 -0.9703 -0.0823
  504MOL0     H66470   7.789   7.661   1.630  1.4094 -1.2144 -1.7242
  504MOL0     H66471   7.855   7.366   1.643  3.1788  2.1222  2.3291
  504MOL0     H66472   7.739   7.432   1.530 -1.3953 -1.9192  2.0542
  504MOL0     H66473   8.040   7.474   1.561  1.7311  0.7627 -1.3656
  504MOL0     H66474   7.939   7.597   1.475 -1.8432 -1.3967  0.1839
  504MOL0     H66475   7.869   7.431   1.317 -0.9509 -0.6062  0.1739
  504MOL0     H66476   7.999   7.327   1.398  0.2939  0.1356  1.6156
  504MOL0     H66477   8.051   7.604   1.293 -0.6132  0.2851 -0.9159
  504MOL0     H66478   8.163   7.458   1.324 -0.4377 -0.3930  0.2956
  504MOL0     H66479   8.117   7.348   1.136 -1.2520 -1.6035  3.2991
  504MOL0     H66480   8.157   7.510   1.087 -1.2878  0.1518 -0.3243
  504MOL0     H66481   7.929   7.254   1.000  0.7228 -0.3003  0.3795
  504MOL0     H66482   7.763   7.224   0.815 -1.0887 -0.1995 -3.2884
  504MOL0     H66483   7.773   7.368   0.723  1.0028  2.8253  1.0731
  504MOL0     H66484   7.541   7.291   0.736 -0.9435  2.8524 -0.6802
  504MOL0     H66485   7.544   7.445   0.825 -0.2790 -0.0971 -1.1961
  504MOL0     H66486   7.528   7.164   0.941 -1.3175 -0.2816  0.1188
  504MOL0     H66487   7.555   7.292   1.046  1.4930 -2.2163 -0.1878
  504MOL0     H66488   7.298   7.280   0.881 -0.7856 -1.2988 -0.1002
  504MOL0     H66489   7.353   7.403   1.002  0.4477 -0.9192  1.0844
  504MOL0     H66490   7.116   7.353   0.957 -0.2288 -0.9750 -2.1036
  504MOL0     H66491   6.866   7.299   0.984 -0.6597  0.9675  1.9211
  504MOL0     H66492   6.572   7.177   1.399  3.1931 -2.7502  1.2275
  504MOL0     H66493   6.347   7.139   1.477  0.2952 -3.2851  1.3124
  504MOL0     H66494   6.224   6.800   1.470  1.1804 -0.0692 -0.9850
  504MOL0     H66495   6.093   6.777   1.354  1.9286 -2.6737  3.0158
  504MOL0     H66496   6.085   6.908   1.615  0.8599  2.8424 -1.5463
  504MOL0     H66497   6.020   6.746   1.576  0.3309  0.4336  0.4744
  504MOL0     H66498   5.866   6.879   1.406 -2.1059 -1.4353  1.3466
  504MOL0     H66499   5.937   7.031   1.487  0.9216  0.0581  0.2068
  504MOL0     H66500   5.787   6.804   1.601 -0.4072 -0.7819  0.2245
  504MOL0     H66501   5.848   6.945   1.703 -2.3998  2.0692  0.2343
  504MOL0     H66502   5.603   6.949   1.517 -2.3445  0.5057  1.0357
  504MOL0     H66503   5.682   7.091   1.572 -0.2356  0.3038  1.8642
  504MOL0     H66504   5.625   7.042   1.805  1.8527 -2.3065  0.4426
  504MOL0     H66505   5.590   6.875   1.768  1.6603  0.6627  1.3622
  504MOL0     H66506   5.422   7.117   1.712  2.8769  1.0133  0.2103
  504MOL0     H66507   5.406   6.967   1.617 -0.1365 -0.9927 -0.5022
  504MOL0     H66508   5.351   6.850   1.844  3.7023 -0.1281  2.6261
  504MOL0     H66509   5.247   6.996   1.808  0.0959  0.5335 -0.3034
  504MOL0     H66510   6.288   6.833   1.195 -1.1775  0.5238  0.0282
  504MOL0     H66511   6.523   6.857   1.113 -1.4982  0.4247 -1.1966
  504MOL0     H66512   6.954   6.992   1.255 -0.8437 -0.3559 -0.2848
  504MOL0     H66513   7.187   7.009   1.210 -0.1865 -0.8702 -0.7925
  504MOL0     H66514   7.366   7.700   1.812 -0.6762  0.8936  2.6879
  504MOL0     H66515   7.161   7.578   1.740 -0.3100  1.5667  1.7516
  504MOL0     H66516   6.892   7.388   1.678  0.2739  0.8012  1.7193
  504MOL0     H66517   6.658   7.377   1.583  0.5238  0.2933 -0.9958
  504MOL0     H66518   6.344   7.278   1.872 -0.7928 -1.3820  0.4933
  504MOL0     H66519   6.371   7.112   1.795  0.4036  0.3789 -1.3775
  504MOL0     H66520   6.237   7.320   1.629  2.3797  0.4670  1.2921
  504MOL0     H66521   6.213   7.144   1.643  2.7405 -0.4727  0.3818
  504MOL0     H66522   6.140   7.328   1.870  2.2818  0.5931 -1.3801
  504MOL0     H66523   6.088   7.160   1.834  1.4057  0.1928 -0.5016
  504MOL0     H66524   6.023   7.413   1.692 -0.3680 -0.7902 -3.6693
  504MOL0     H66525   5.976   7.257   1.626 -1.1490  2.0089 -1.6412
  504MOL0     H66526   5.681   7.298   1.921 -0.8299 -0.2331 -1.5595
  504MOL0     H66527   6.549   7.135   1.917  0.5638  0.9333  2.7258
  504MOL0     H66528   6.789   7.147   1.996 -0.0451 -0.1847 -1.0879
  505MOL0     O66529   4.920   4.816   4.544 -0.3968  0.3181  0.0848
  505MOL0     C66530   5.012   4.826   4.624  0.7266 -0.9358 -0.1397
  505MOL0     O66531   5.002   4.806   4.759  0.1835  0.0293 -0.7149
  505MOL0     C66532   4.888   4.783   4.832  0.1947 -0.3981 -0.1842
  505MOL0     C66533   4.760   4.827   4.804 -0.0089 -0.0051 -0.1593
  505MOL0     C66534   4.650   4.809   4.895  0.2037 -0.4695 -0.6915
  505MOL0     C66535   4.668   4.725   5.003  0.3396  0.8897  0.7961
  505MOL0     O66536   4.568   4.682   5.079 -0.1617 -0.1320 -0.4141
  505MOL0     C66537   4.438   4.660   5.010 -0.2283  0.1559 -0.5840
  505MOL0     C66538   4.365   4.544   5.073  0.7148  0.3181  0.0637
  505MOL0     C66539   4.222   4.547   5.013 -1.1859 -0.7425 -0.2933
  505MOL0     C66540   4.131   4.444   5.083 -0.5141 -0.2243  0.1100
  505MOL0     C66541   3.993   4.518   5.118  0.1541  0.3784  0.4059
  505MOL0     C66542   3.878   4.411   5.138  0.2403  0.3430  0.0892
  505MOL0     C66543   3.748   4.452   5.191 -0.5568  0.0622  0.3538
  505MOL0     C66544   3.672   4.341   5.257 -0.2053  0.8434  0.3743
  505MOL0     N66545   3.527   4.364   5.241 -0.8137 -0.0390  0.1633
  505MOL0     C66546   3.459   4.456   5.300 -0.0794 -0.7234  0.2095
  505MOL0     C66547   3.335   4.431   5.251 -0.7947  0.2932  0.0922
  505MOL0     C66548   3.212   4.504   5.294 -0.3314 -0.0399 -0.3952
  505MOL0     C66549   3.152   4.425   5.405 -0.7151  0.2698 -0.7407
  505MOL0     C66550   3.026   4.502   5.440  0.0392 -0.0930 -0.1266
  505MOL0     C66551   2.954   4.438   5.562  0.3850 -0.3820 -0.7160
  505MOL0     O66552   2.884   4.332   5.500 -0.4993  0.1520 -0.3672
  505MOL0     C66553   2.761   4.313   5.544  0.5868  0.9619 -0.4746
  505MOL0     C66554   2.735   4.271   5.675 -0.0682 -0.5679  0.3405
  505MOL0     C66555   2.604   4.267   5.717 -0.0113  0.2845 -0.2258
  505MOL0     C66556   2.498   4.304   5.636 -0.4071  0.0458  0.0292
  505MOL0     C66557   2.361   4.325   5.694 -0.2475 -0.1972  0.4102
  505MOL0     O66558   2.345   4.310   5.828  0.0112 -0.1816 -0.5409
  505MOL0     C66559   2.211   4.349   5.869 -0.1374  0.1893 -0.3334
  505MOL0     C66560   2.194   4.464   5.940 -0.1384  0.5280 -0.2703
  505MOL0     C66561   2.072   4.505   5.990 -0.3723  0.0759 -0.6855
  505MOL0     C66562   1.963   4.432   5.938  0.0730 -0.1616  0.2825
  505MOL0     O66563   1.837   4.454   5.981  0.7330 -0.3280  0.1947
  505MOL0     C66564   1.807   4.585   6.038  0.6612  0.4341  0.0833
  505MOL0     C66565   1.667   4.595   6.103 -0.4661 -0.0755  0.3426
  505MOL0     C66566   1.640   4.736   6.156 -0.3493  0.3247  0.7593
  505MOL0     C66567   1.500   4.761   6.213  0.3263 -0.1853  0.2397
  505MOL0     C66568   1.380   4.731   6.118  1.0307  0.6103  1.0465
  505MOL0     C66569   1.239   4.743   6.186  0.3243 -0.0363  0.8614
  505MOL0     C66570   1.131   4.715   6.076  1.0416 -0.6893  0.4246
  505MOL0     C66571   0.982   4.720   6.124  0.3324 -0.5254 -0.7131
  505MOL0    Cl66572   0.867   4.682   5.998 -0.5414  0.0731  0.1609
  505MOL0     C66573   1.971   4.312   5.867  0.0828 -0.2532  0.7915
  505MOL0     C66574   2.098   4.269   5.836 -0.3837 -0.2530 -0.0707
  505MOL0     O66575   2.272   4.343   5.610 -0.1543 -0.4900 -0.1938
  505MOL0     C66576   2.517   4.325   5.503 -0.2709 -1.2681 -0.2118
  505MOL0     C66577   2.650   4.341   5.456  0.4888  0.8581 -0.2249
  505MOL0     N66578   3.334   4.321   5.163  0.0090 -0.2030 -0.1193
  505MOL0     N66579   3.455   4.281   5.166 -0.4352  0.2325  0.0412
  505MOL0     C66580   4.791   4.666   5.022  0.1015  0.1645 -0.5405
  505MOL0     C66581   4.900   4.707   4.951  0.4539 -0.0116 -0.1249
  505MOL0     C66582   5.141   4.854   4.565 -0.3513  0.0737 -0.3241
  505MOL0     C66583   5.172   4.861   4.432 -0.2673  0.6577  0.4421
  505MOL0     C66584   5.297   4.912   4.389 -0.2166  0.8928 -0.0033
  505MOL0     C66585   5.391   4.944   4.484 -0.5402  0.1289  0.1760
  505MOL0     O66586   5.515   4.970   4.434 -0.5280  0.2313  0.2545
  505MOL0     C66587   5.620   4.904   4.509 -0.4075 -0.4737 -0.5537
  505MOL0     C66588   5.755   4.926   4.434 -0.6185  0.3739  0.5443
  505MOL0     C66589   5.814   5.076   4.444  1.2682  1.3922 -0.2197
  505MOL0     C66590   5.940   5.091   4.367  0.2429 -0.3526 -0.0851
  505MOL0     C66591   6.021   5.210   4.405 -0.0224 -0.7436  0.5161
  505MOL0     C66592   6.096   5.311   4.419 -0.6384  0.0168 -0.9481
  505MOL0     C66593   5.364   4.935   4.617  0.3766  1.1148  0.0008
  505MOL0     C66594   5.238   4.901   4.653 -0.0342 -0.2873 -1.3351
  505MOL0     H66595   4.745   4.883   4.712 -0.1283 -1.7416 -1.2293
  505MOL0     H66596   4.553   4.854   4.879 -0.2629 -1.1789  0.0914
  505MOL0     H66597   4.459   4.627   4.908  0.0743 -0.0440 -0.4595
  505MOL0     H66598   4.376   4.749   5.024 -3.0203 -1.7118 -0.1890
  505MOL0     H66599   4.347   4.566   5.179 -3.0194  1.4260 -0.6587
  505MOL0     H66600   4.409   4.447   5.048 -0.0916 -0.4220  1.4079
  505MOL0     H66601   4.227   4.526   4.906 -0.1061  0.8365 -0.5928
  505MOL0     H66602   4.176   4.646   5.020 -0.5607 -0.3533 -1.4630
  505MOL0     H66603   4.118   4.366   5.008 -2.4294  0.8585 -0.7771
  505MOL0     H66604   4.177   4.394   5.168  3.1653  0.2720 -1.3808
  505MOL0     H66605   3.965   4.586   5.037  1.1725  1.3118  0.8150
  505MOL0     H66606   4.014   4.570   5.212  3.5208  0.8911 -0.5247
  505MOL0     H66607   3.920   4.340   5.210  2.5822  0.3460 -1.1823
  505MOL0     H66608   3.862   4.353   5.047  0.6333 -0.0159  0.2474
  505MOL0     H66609   3.772   4.525   5.268  0.3713 -2.5880  2.7525
  505MOL0     H66610   3.698   4.483   5.099  2.2751  0.5030 -1.1376
  505MOL0     H66611   3.688   4.340   5.365 -0.2490  1.1794  0.3873
  505MOL0     H66612   3.694   4.246   5.209 -1.5767  0.2205  0.9249
  505MOL0     H66613   3.494   4.531   5.370  1.2168 -0.6628 -0.4595
  505MOL0     H66614   3.141   4.515   5.212 -1.5246  0.3799  0.6642
  505MOL0     H66615   3.243   4.593   5.349  2.1121 -3.4659  4.6689
  505MOL0     H66616   3.225   4.416   5.486 -0.7306  1.5536 -0.5671
  505MOL0     H66617   3.125   4.325   5.369 -0.9602 -0.1349  0.4959
  505MOL0     H66618   3.051   4.604   5.469  0.4699 -0.1002 -0.4625
  505MOL0     H66619   2.958   4.516   5.356 -0.1708  1.0598  0.2137
  505MOL0     H66620   2.890   4.501   5.625 -1.9616 -2.0233 -1.3295
  505MOL0     H66621   3.024   4.396   5.635  1.3250  2.3110  0.0766
  505MOL0     H66622   2.824   4.238   5.729 -2.2674 -2.0741  3.3060
  505MOL0     H66623   2.590   4.258   5.824  1.0513  5.2298  0.5730
  505MOL0     H66624   2.283   4.520   5.969  1.1174 -1.4610 -0.1055
  505MOL0     H66625   2.057   4.599   6.042 -1.0684 -0.7856  0.7299
  505MOL0     H66626   1.841   4.655   5.961  0.6685  1.4354  0.9784
  505MOL0     H66627   1.873   4.605   6.123 -0.1179  1.0855  0.5515
  505MOL0     H66628   1.653   4.523   6.184 -0.6294 -0.3389  0.0828
  505MOL0     H66629   1.590   4.571   6.029  0.2630  0.6445 -0.6682
  505MOL0     H66630   1.662   4.810   6.078 -0.5762 -0.6986 -0.3170
  505MOL0     H66631   1.710   4.760   6.236  0.1684  0.0955  0.3847
  505MOL0     H66632   1.476   4.700   6.301  0.8248 -0.4794  0.1739
  505MOL0     H66633   1.487   4.862   6.252 -0.0499  0.1043 -0.6190
  505MOL0     H66634   1.377   4.631   6.074 -1.2386 -0.0164  2.4252
  505MOL0     H66635   1.379   4.802   6.036 -0.4323 -0.9277 -0.3443
  505MOL0     H66636   1.228   4.847   6.219 -0.8111  0.1577 -0.0870
  505MOL0     H66637   1.231   4.672   6.269 -1.2979  1.9406  2.5033
  505MOL0     H66638   1.136   4.788   5.996  3.7911 -3.3883 -2.1592
  505MOL0     H66639   1.152   4.621   6.024 -0.7345 -1.7134  1.4303
  505MOL0     H66640   0.956   4.825   6.144 -0.7489 -0.7151 -1.0495
  505MOL0     H66641   0.982   4.667   6.219 -3.3192  1.7474  0.8001
  505MOL0     H66642   1.890   4.253   5.826  1.2178 -0.8340 -0.6880
  505MOL0     H66643   2.090   4.187   5.767 -6.9198  1.0086 -1.4354
  505MOL0     H66644   2.433   4.349   5.438 -0.9180 -0.7479  0.7848
  505MOL0     H66645   2.674   4.374   5.356  1.1935 -2.3017 -1.2066
  505MOL0     H66646   4.792   4.611   5.116 -3.7559  0.2328 -0.2913
  505MOL0     H66647   4.996   4.672   4.987  0.8397 -0.4861 -1.5369
  505MOL0     H66648   5.092   4.845   4.360  0.9074  0.5950 -0.8982
  505MOL0     H66649   5.318   4.929   4.284 -0.6808 -0.7251 -0.3853
  505MOL0     H66650   5.601   4.797   4.523  1.9712 -0.7019  2.0007
  505MOL0     H66651   5.627   4.952   4.607  0.8283  0.5397 -1.1072
  505MOL0     H66652   5.833   4.867   4.482 -0.7981 -1.1469 -0.9500
  505MOL0     H66653   5.748   4.887   4.332 -1.0775  0.5337  0.5095
  505MOL0     H66654   5.831   5.097   4.550 -0.5378 -1.2789  0.7158
  505MOL0     H66655   5.738   5.141   4.399 -1.4504 -1.3533  0.0767
  505MOL0     H66656   6.005   5.003   4.375  0.3649 -0.3464 -0.9151
  505MOL0     H66657   5.906   5.114   4.266 -2.7011  1.2044  1.1359
  505MOL0     H66658   6.146   5.402   4.449 -2.5367  0.0888  2.5239
  505MOL0     H66659   5.434   4.962   4.697 -0.1052 -0.5629  1.0324
  505MOL0     H66660   5.213   4.917   4.757  0.5080  0.5830 -1.3354
  506MOL0     O66661   1.739   0.750   1.527 -0.1170  0.4128 -0.1546
  506MOL0     C66662   1.726   0.634   1.565  0.6095  0.1725 -1.2938
  506MOL0     O66663   1.612   0.570   1.589 -0.0403 -0.2209  0.4899
  506MOL0     C66664   1.496   0.625   1.558  0.2809  0.2020  0.2786
  506MOL0     C66665   1.398   0.624   1.659 -0.2386  0.0797  0.3348
  506MOL0     C66666   1.274   0.675   1.634  0.0141 -0.6795 -0.3739
  506MOL0     C66667   1.244   0.747   1.519 -0.0349 -0.0748  0.3306
  506MOL0     O66668   1.123   0.803   1.498  0.5038  0.0370 -0.2886
  506MOL0     C66669   1.050   0.781   1.375  0.7476  0.1091 -0.3053
  506MOL0     C66670   0.947   0.898   1.367 -0.4088 -0.2361 -0.6384
  506MOL0     C66671   0.859   0.928   1.488 -0.1908 -0.6350  1.3321
  506MOL0     C66672   0.741   0.829   1.478 -0.0599 -0.1688 -0.3229
  506MOL0     C66673   0.636   0.846   1.586 -0.1693 -0.9345  0.3434
  506MOL0     C66674   0.565   0.991   1.596  0.3436  0.5038 -0.0297
  506MOL0     C66675   0.515   1.042   1.465 -0.8936 -0.4419 -0.4794
  506MOL0     C66676   0.411   0.947   1.396  0.7938  1.0299 -0.6553
  506MOL0     N66677   0.289   0.958   1.462  0.9665  0.3280  0.4627
  506MOL0     C66678   0.203   1.050   1.426  0.1619 -0.0144  0.3438
  506MOL0     C66679   0.090   1.009   1.498 -0.6173 -0.9386  0.2308
  506MOL0     C66680  -0.044   1.073   1.503  0.7453 -0.2346  0.3883
  506MOL0     C66681  -0.130   1.026   1.384  0.2363  0.3173 -0.2587
  506MOL0     C66682  -0.264   1.097   1.384  0.7945 -0.1602  0.3746
  506MOL0     C66683  -0.375   1.069   1.284 -0.6885 -0.7871 -0.3229
  506MOL0     O66684  -0.470   1.182   1.290  0.3236  0.6118  0.5273
  506MOL0     C66685  -0.575   1.180   1.378 -0.9405  0.3136 -0.2072
  506MOL0     C66686  -0.604   1.083   1.481  0.6737  0.1434  0.3068
  506MOL0     C66687  -0.699   1.113   1.583  0.2346 -0.3377 -0.1066
  506MOL0     C66688  -0.786   1.218   1.571  0.9400  1.2524 -0.0166
  506MOL0     C66689  -0.889   1.249   1.670 -1.5316 -0.2489 -0.3136
  506MOL0     O66690  -0.919   1.138   1.741  0.6041  0.9567 -0.4594
  506MOL0     C66691  -0.996   1.157   1.852  0.3939 -0.6141  0.5336
  506MOL0     C66692  -0.962   1.226   1.973 -0.3655 -0.5482  0.2182
  506MOL0     C66693  -1.057   1.253   2.065  0.2340  0.3959 -1.0719
  506MOL0     C66694  -1.195   1.219   2.057  0.7047  0.6429  1.6554
  506MOL0     O66695  -1.302   1.246   2.148 -0.1104 -0.4450 -0.1126
  506MOL0     C66696  -1.272   1.296   2.270  1.2326  0.1978  0.2601
  506MOL0     C66697  -1.400   1.325   2.350  0.0926 -0.4700 -0.2717
  506MOL0     C66698  -1.478   1.203   2.408 -1.0663  0.4331  0.1886
  506MOL0     C66699  -1.624   1.246   2.434 -1.0153  0.3537  0.5934
  506MOL0     C66700  -1.707   1.124   2.484 -0.6544 -0.6341 -0.5526
  506MOL0     C66701  -1.850   1.172   2.503  0.7402  0.3645  0.5180
  506MOL0     C66702  -1.923   1.047   2.565  0.4595  0.1035 -0.4260
  506MOL0     C66703  -2.074   1.089   2.588 -0.0417  0.7434  0.5455
  506MOL0    Cl66704  -2.156   1.098   2.425  0.1603 -0.4367  0.0272
  506MOL0     C66705  -1.224   1.156   1.930  1.0694  0.0110 -0.4157
  506MOL0     C66706  -1.129   1.120   1.835  0.9676  0.8586  0.1779
  506MOL0     O66707  -0.917   1.370   1.692 -0.3379  0.9069 -0.9265
  506MOL0     C66708  -0.767   1.293   1.459 -0.3654 -0.2165  0.0177
  506MOL0     C66709  -0.656   1.286   1.367  0.7853 -1.1505 -0.3199
  506MOL0     N66710   0.110   0.891   1.566 -0.4893 -0.0542 -0.2296
  506MOL0     N66711   0.234   0.858   1.545  0.5516 -0.2326  0.5477
  506MOL0     C66712   1.342   0.744   1.422 -0.5733  0.0158  0.5743
  506MOL0     C66713   1.469   0.689   1.441  0.2464 -0.3390  0.6516
  506MOL0     C66714   1.842   0.570   1.620 -1.0835 -1.2190 -0.0250
  506MOL0     C66715   1.845   0.437   1.652  0.1094  0.1198  0.0400
  506MOL0     C66716   1.958   0.371   1.699 -0.5522  0.2071  0.5107
  506MOL0     C66717   2.078   0.438   1.715  0.4083  0.4516 -0.0632
  506MOL0     O66718   2.183   0.354   1.768 -1.4288 -0.9604 -0.7784
  506MOL0     C66719   2.289   0.419   1.842  0.0563 -0.2916 -0.3321
  506MOL0     C66720   2.396   0.434   1.742  0.0831  0.6912 -0.0308
  506MOL0     C66721   2.430   0.301   1.657 -0.2502  0.3722 -0.6017
  506MOL0     C66722   2.522   0.216   1.747 -0.1451 -0.1739 -0.5194
  506MOL0     C66723   2.554   0.088   1.683  0.1476 -0.0458 -0.7034
  506MOL0     C66724   2.600  -0.030   1.654 -0.2068  0.5311 -0.5137
  506MOL0     C66725   2.083   0.573   1.681 -0.4542  0.1393 -0.1050
  506MOL0     C66726   1.967   0.636   1.637 -0.6876 -0.6368 -0.8268
  506MOL0     H66727   1.415   0.565   1.748 -3.9841  0.7113  1.6396
  506MOL0     H66728   1.192   0.666   1.704  0.6091  0.9840  0.6045
  506MOL0     H66729   1.007   0.682   1.392  1.4858 -0.0128  1.0545
  506MOL0     H66730   1.109   0.776   1.283  0.0643  0.6964 -0.7875
  506MOL0     H66731   0.886   0.880   1.278  1.9466 -2.0302 -2.0081
  506MOL0     H66732   1.009   0.987   1.352  1.7851 -1.7453 -0.9744
  506MOL0     H66733   0.830   1.033   1.487  0.8869 -0.3260  1.2747
  506MOL0     H66734   0.915   0.908   1.580  1.5306  2.1530  0.9741
  506MOL0     H66735   0.679   0.832   1.388 -0.3851 -1.2003 -0.1437
  506MOL0     H66736   0.782   0.729   1.496  4.1969  1.8800  3.1196
  506MOL0     H66737   0.687   0.849   1.683 -1.0371  3.0695  0.8415
  506MOL0     H66738   0.558   0.769   1.576 -0.2718 -0.7526 -0.3091
  506MOL0     H66739   0.639   1.060   1.636 -0.3377  0.7983  0.7320
  506MOL0     H66740   0.485   0.991   1.671  0.5880 -0.7920  0.2535
  506MOL0     H66741   0.470   1.141   1.479  0.9443  0.7831 -2.4980
  506MOL0     H66742   0.605   1.048   1.404 -1.0017 -1.4310 -0.7502
  506MOL0     H66743   0.442   0.842   1.391  0.4866  0.9697 -1.3185
  506MOL0     H66744   0.390   0.976   1.293 -0.7685  0.5149 -0.5084
  506MOL0     H66745   0.205   1.138   1.363 -2.0367  0.0654  0.3227
  506MOL0     H66746  -0.028   1.181   1.497 -0.5705 -0.0208  0.3243
  506MOL0     H66747  -0.084   1.042   1.600 -0.5099 -2.4169 -0.7466
  506MOL0     H66748  -0.144   0.918   1.396  0.5387  0.5533  3.4322
  506MOL0     H66749  -0.080   1.034   1.287  2.5599 -3.7909  0.3951
  506MOL0     H66750  -0.304   1.079   1.484  1.4602 -0.2407  0.6274
  506MOL0     H66751  -0.242   1.203   1.372  2.6926 -0.5727 -0.0304
  506MOL0     H66752  -0.425   0.974   1.304 -2.9877 -0.7866 -4.7676
  506MOL0     H66753  -0.335   1.057   1.183 -3.0099 -1.1397 -1.2630
  506MOL0     H66754  -0.541   0.997   1.502  1.4087  0.4063 -0.7515
  506MOL0     H66755  -0.713   1.043   1.665 -2.5030 -1.4093 -1.3777
  506MOL0     H66756  -0.863   1.269   1.978 -0.3056 -0.8155  1.6800
  506MOL0     H66757  -1.026   1.303   2.156 -0.6269 -0.6589 -0.1756
  506MOL0     H66758  -1.224   1.392   2.248  0.2952 -0.0866 -4.0298
  506MOL0     H66759  -1.215   1.240   2.344  1.0512  0.1574  0.3691
  506MOL0     H66760  -1.469   1.368   2.277 -1.5138 -1.6532  0.4789
  506MOL0     H66761  -1.374   1.396   2.429 -1.2441 -0.3300  0.0747
  506MOL0     H66762  -1.427   1.168   2.498  0.0281  1.9669  0.1943
  506MOL0     H66763  -1.474   1.120   2.337 -2.0614  1.5550 -1.2574
  506MOL0     H66764  -1.623   1.339   2.491 -2.5080  1.1114 -0.5352
  506MOL0     H66765  -1.658   1.283   2.337  0.5573 -0.0878 -0.1519
  506MOL0     H66766  -1.672   1.104   2.586 -0.2537  4.4660  0.5647
  506MOL0     H66767  -1.694   1.041   2.415  1.2435  1.4913 -2.9341
  506MOL0     H66768  -1.883   1.198   2.402  0.7623  0.9635  0.6614
  506MOL0     H66769  -1.852   1.262   2.566  3.9331  0.4065  0.7133
  506MOL0     H66770  -1.913   0.966   2.492 -0.0408  0.9504 -1.4735
  506MOL0     H66771  -1.884   1.028   2.665  2.2804 -1.1601 -1.3324
  506MOL0     H66772  -2.093   1.186   2.636 -0.3780  0.1459  1.6586
  506MOL0     H66773  -2.118   1.009   2.648 -1.9333  2.6637  1.8928
  506MOL0     H66774  -1.328   1.130   1.909  2.1376 -3.2846 -2.6313
  506MOL0     H66775  -1.152   1.057   1.749  2.5066  1.9147 -1.0690
  506MOL0     H66776  -0.840   1.371   1.442  1.1690  1.5727  1.2380
  506MOL0     H66777  -0.641   1.362   1.291 -0.7550  1.4909  1.8669
  506MOL0     H66778   1.325   0.807   1.335 -1.0047  0.6445  1.0991
  506MOL0     H66779   1.541   0.713   1.364 -1.9247  1.4759 -0.9407
  506MOL0     H66780   1.765   0.369   1.625  0.8020 -0.3079 -0.9817
  506MOL0     H66781   1.953   0.263   1.709  0.9228 -0.1025 -1.4766
  506MOL0     H66782   2.319   0.349   1.920 -2.4166  2.7307  3.7393
  506MOL0     H66783   2.260   0.519   1.878  1.6461  0.0067  0.2050
  506MOL0     H66784   2.353   0.504   1.670 -1.9696 -1.1072 -0.6679
  506MOL0     H66785   2.487   0.477   1.784 -0.2381  1.1933  0.1617
  506MOL0     H66786   2.478   0.336   1.565  1.4507 -1.1485 -0.3512
  506MOL0     H66787   2.341   0.245   1.627  1.3801 -3.2134  0.6702
  506MOL0     H66788   2.612   0.277   1.758  0.9285 -2.1213  3.8021
  506MOL0     H66789   2.464   0.207   1.839  1.6083  0.4041  0.6963
  506MOL0     H66790   2.637  -0.128   1.632 -2.3556  0.1281 -2.7822
  506MOL0     H66791   2.172   0.636   1.681 -0.0340 -0.2938 -3.3020
  506MOL0     H66792   1.972   0.744   1.624  1.0504 -0.9902 -4.0453
  507MOL0     O66793  10.218   8.595   9.033  0.2807  0.3712 -0.1942
  507MOL0     C66794  10.258   8.702   9.089 -0.2776  0.9147  0.0076
  507MOL0     O66795  10.186   8.785   9.154  0.6471 -0.3227  0.1057
  507MOL0     C66796  10.057   8.763   9.153  0.3832 -0.6400  0.5908
  507MOL0     C66797   9.977   8.821   9.056 -1.2619 -0.2446 -0.1236
  507MOL0     C66798   9.840   8.789   9.066  0.5621  0.1187  0.5435
  507MOL0     C66799   9.781   8.720   9.170 -0.6050 -0.5423  0.4661
  507MOL0     O66800   9.653   8.692   9.175  0.2042  1.0682 -1.0577
  507MOL0     C66801   9.579   8.791   9.249  0.6841  0.0249 -0.3835
  507MOL0     C66802   9.437   8.792   9.187  0.8214  0.5377 -0.2002
  507MOL0     C66803   9.341   8.905   9.232  0.3802  0.3484 -0.1660
  507MOL0     C66804   9.345   8.926   9.390  0.0897 -0.5276 -0.5175
  507MOL0     C66805   9.241   9.027   9.431 -1.0333  0.1782  0.3064
  507MOL0     C66806   9.282   9.174   9.405 -0.1316 -0.2213  0.0593
  507MOL0     C66807   9.181   9.282   9.450 -0.5121  0.4266 -0.2849
  507MOL0     C66808   9.143   9.265   9.601 -0.2368 -0.3023  0.7268
  507MOL0     N66809   9.028   9.353   9.628 -0.5880  0.1741  0.0946
  507MOL0     C66810   8.914   9.311   9.694  0.3156 -0.7847  0.1595
  507MOL0     C66811   8.832   9.416   9.678 -0.4194 -0.0082  0.4438
  507MOL0     C66812   8.692   9.425   9.721 -0.2544  0.2143 -0.3587
  507MOL0     C66813   8.586   9.337   9.672  0.2510  0.5588 -0.2668
  507MOL0     C66814   8.496   9.408   9.569  0.4708  0.0937 -0.5923
  507MOL0     C66815   8.408   9.512   9.644 -0.0937 -0.1652 -0.3481
  507MOL0     O66816   8.330   9.587   9.545  1.0865  0.7160 -0.3076
  507MOL0     C66817   8.231   9.674   9.591 -0.5686 -0.2357  0.3869
  507MOL0     C66818   8.152   9.729   9.493 -0.1041 -0.5986  0.4980
  507MOL0     C66819   8.056   9.828   9.522 -1.3411  0.1434 -0.4550
  507MOL0     C66820   8.039   9.869   9.656 -0.2716  0.6475  0.0342
  507MOL0     C66821   7.937   9.976   9.686 -1.0255 -0.1667 -1.0392
  507MOL0     O66822   7.906   9.979   9.826 -0.3309  0.1470 -0.0506
  507MOL0     C66823   7.800  10.062   9.858  0.1331 -0.3617  0.4501
  507MOL0     C66824   7.667  10.030   9.824  1.0547  0.2096  0.0921
  507MOL0     C66825   7.564  10.124   9.858 -0.4951 -0.4437  0.2332
  507MOL0     C66826   7.582  10.240   9.935  0.0088  0.4154 -0.1141
  507MOL0     O66827   7.480  10.325   9.956  0.1600  0.7797 -0.2272
  507MOL0     C66828   7.375  10.275  10.041  0.0717 -0.5450 -0.3709
  507MOL0     C66829   7.253  10.219   9.970  0.0782 -0.0055 -0.2309
  507MOL0     C66830   7.132  10.292  10.013 -0.4286 -0.6740 -0.3595
  507MOL0     C66831   7.009  10.226   9.957 -0.0238 -0.4582 -0.0138
  507MOL0     C66832   6.897  10.326   9.944  0.5234 -0.0264  0.8419
  507MOL0     C66833   6.776  10.245   9.886 -0.2699 -0.6743  0.6968
  507MOL0     C66834   6.662  10.328   9.876  0.1875 -0.5930 -0.0012
  507MOL0     C66835   6.546  10.269   9.793 -0.0087 -0.0443 -0.2199
  507MOL0    Cl66836   6.388  10.354   9.788 -0.2682 -0.1234  0.2470
  507MOL0     C66837   7.722  10.261   9.978 -0.0318 -0.0753  0.0460
  507MOL0     C66838   7.824  10.179   9.925  0.7469  0.4938  0.4169
  507MOL0     O66839   7.887  10.047   9.599  0.7277 -0.4160  0.3698
  507MOL0     C66840   8.108   9.803   9.763 -0.0813 -0.0054 -0.0938
  507MOL0     C66841   8.205   9.701   9.725  1.3505 -0.4845 -0.1927
  507MOL0     N66842   8.905   9.530   9.640  0.2610 -0.5079  0.0077
  507MOL0     N66843   9.025   9.494   9.618 -0.0648  0.2129 -0.2885
  507MOL0     C66844   9.865   8.671   9.270  0.3795  0.0872 -0.3585
  507MOL0     C66845  10.008   8.701   9.264  0.6610  0.7120  0.4081
  507MOL0     C66846  10.396   8.725   9.087 -0.0665  0.0007 -0.0045
  507MOL0     C66847  10.482   8.627   9.033  0.1802  0.3699 -0.4783
  507MOL0     C66848  10.617   8.647   9.040 -0.2159  0.3618 -0.4806
  507MOL0     C66849  10.676   8.767   9.088  0.4589 -0.0723  0.6462
  507MOL0     O66850  10.809   8.785   9.083  0.6460 -0.5082 -0.6136
  507MOL0     C66851  10.873   8.771   8.954 -0.0605  0.5076  1.0214
  507MOL0     C66852  10.878   8.900   8.869 -0.3727 -0.0224 -0.5472
  507MOL0     C66853  10.871   8.861   8.727 -0.5321 -0.0951 -0.1182
  507MOL0     C66854  10.906   8.987   8.635 -0.0244 -0.0015  0.1279
  507MOL0     C66855  11.036   9.063   8.660  0.3734  1.0696 -0.5840
  507MOL0     C66856  11.141   9.124   8.685 -1.3622  0.2421 -0.8695
  507MOL0     C66857  10.592   8.860   9.149  0.0558  0.1454 -0.3584
  507MOL0     C66858  10.452   8.842   9.152  0.8884 -0.7158  0.3527
  507MOL0     H66859  10.021   8.896   8.991  0.5786 -0.6406  0.6212
  507MOL0     H66860   9.773   8.814   8.983 -1.6601  1.9581  2.7497
  507MOL0     H66861   9.615   8.889   9.217 -0.2842  0.5385  0.0449
  507MOL0     H66862   9.587   8.769   9.356 -0.2331  1.6171  0.0509
  507MOL0     H66863   9.404   8.694   9.224 -0.7493  1.9949  2.5967
  507MOL0     H66864   9.446   8.790   9.078 -2.4042  0.5458 -0.5725
  507MOL0     H66865   9.242   8.889   9.188  0.3090 -0.2473  0.2016
  507MOL0     H66866   9.370   8.999   9.185 -0.4342  1.8486  2.1757
  507MOL0     H66867   9.330   8.835   9.448  2.7980 -1.8211 -1.6961
  507MOL0     H66868   9.439   8.971   9.421  0.3334 -0.4017 -1.4099
  507MOL0     H66869   9.229   9.022   9.540 -1.1601  0.4283  0.3044
  507MOL0     H66870   9.144   9.000   9.388 -0.5593 -4.1455  1.4181
  507MOL0     H66871   9.294   9.189   9.298 -0.5137  2.8201  0.3500
  507MOL0     H66872   9.378   9.189   9.456  0.2640 -0.8607 -0.4842
  507MOL0     H66873   9.201   9.389   9.436 -0.7361  0.4953 -0.0761
  507MOL0     H66874   9.089   9.269   9.392 -1.6992 -0.8630  1.7762
  507MOL0     H66875   9.229   9.288   9.664 -1.0403 -0.7617  2.0588
  507MOL0     H66876   9.106   9.163   9.617 -1.5072  0.0663  0.2578
  507MOL0     H66877   8.912   9.214   9.743  1.8624 -1.3456 -0.7933
  507MOL0     H66878   8.666   9.531   9.716  1.0885  0.5650 -0.3590
  507MOL0     H66879   8.684   9.399   9.828 -2.3729 -0.7858 -0.6937
  507MOL0     H66880   8.525   9.295   9.752  2.2127 -3.5561 -0.6329
  507MOL0     H66881   8.639   9.250   9.631 -1.3424 -2.4559  3.4662
  507MOL0     H66882   8.562   9.460   9.499  1.1940  3.3007  2.2281
  507MOL0     H66883   8.426   9.343   9.516 -1.2858  1.4848 -0.0854
  507MOL0     H66884   8.462   9.585   9.704 -2.1528 -0.0648  1.5103
  507MOL0     H66885   8.336   9.467   9.713 -0.9506  1.0530 -0.4137
  507MOL0     H66886   8.191   9.709   9.393 -0.4732  1.1474 -0.0173
  507MOL0     H66887   7.995   9.870   9.443 -0.0622  5.3848  0.9456
  507MOL0     H66888   7.637   9.949   9.759  0.7001  2.5846 -2.9618
  507MOL0     H66889   7.466  10.093   9.825 -0.5753  1.1998 -1.2345
  507MOL0     H66890   7.358  10.357  10.112  0.4370 -0.2614 -0.6068
  507MOL0     H66891   7.406  10.190  10.103 -1.3677  0.2772  1.5826
  507MOL0     H66892   7.253  10.112   9.992  0.7964 -0.0483 -0.4239
  507MOL0     H66893   7.259  10.218   9.861  1.4667  0.7009 -0.1782
  507MOL0     H66894   7.140  10.392   9.970  1.5018 -1.2471 -1.4416
  507MOL0     H66895   7.126  10.287  10.122 -0.2413 -2.7902 -0.4036
  507MOL0     H66896   7.026  10.194   9.854 -2.1920  1.3161 -0.9980
  507MOL0     H66897   6.975  10.136  10.009 -0.8080 -1.9978 -2.9534
  507MOL0     H66898   6.924  10.408   9.877 -0.6130 -0.2212  0.1055
  507MOL0     H66899   6.866  10.365  10.041 -4.6585  0.0545 -0.5507
  507MOL0     H66900   6.744  10.164   9.952 -2.8190 -1.5545 -1.4348
  507MOL0     H66901   6.807  10.198   9.792  1.7196 -0.9399  1.4355
  507MOL0     H66902   6.614  10.328   9.974 -1.1610  0.0578 -0.6398
  507MOL0     H66903   6.689  10.430   9.848  2.1914 -1.1546 -0.2946
  507MOL0     H66904   6.516  10.171   9.831 -0.6094 -0.6759 -2.2093
  507MOL0     H66905   6.586  10.265   9.691  0.9283 -0.9561  0.1578
  507MOL0     H66906   7.749  10.344  10.042  2.0569 -0.7434  0.1003
  507MOL0     H66907   7.929  10.201   9.944  0.6678  1.6569 -0.3883
  507MOL0     H66908   8.082   9.825   9.867  2.8844 -1.0363  0.9732
  507MOL0     H66909   8.261   9.659   9.808  1.7146  2.3722  1.1093
  507MOL0     H66910   9.819   8.619   9.353 -0.5518 -0.8574 -1.4376
  507MOL0     H66911  10.072   8.662   9.342  0.1390 -3.2971 -0.9599
  507MOL0     H66912  10.447   8.533   8.991  0.9386  0.0939 -0.5105
  507MOL0     H66913  10.681   8.566   9.007 -2.5659 -1.7577 -0.0980
  507MOL0     H66914  10.818   8.695   8.898  1.8928  0.4638 -0.9535
  507MOL0     H66915  10.977   8.742   8.964  0.4440  1.0644 -1.7471
  507MOL0     H66916  10.812   8.981   8.900  0.0187  0.1166 -0.0640
  507MOL0     H66917  10.976   8.946   8.887 -1.5277  2.0974  0.6684
  507MOL0     H66918  10.766   8.835   8.710 -1.7754  3.2256  1.5579
  507MOL0     H66919  10.941   8.779   8.709 -0.3607 -0.4313  1.8340
  507MOL0     H66920  10.908   8.962   8.529  2.4134  2.3786 -0.4891
  507MOL0     H66921  10.817   9.050   8.642 -0.0960 -0.0067 -0.6816
  507MOL0     H66922  11.222   9.191   8.704 -1.7065  0.0639  1.5246
  507MOL0     H66923  10.629   8.950   9.198 -0.4054  0.2241 -0.1468
  507MOL0     H66924  10.395   8.915   9.208 -1.8846 -1.8894 -0.7656
  508MOL0     O66925   3.548   7.708   2.385 -0.1012  0.8148 -0.4269
  508MOL0     C66926   3.630   7.714   2.477 -0.0727  0.2849 -0.0095
  508MOL0     O66927   3.673   7.822   2.542  0.6853 -0.3888 -0.5854
  508MOL0     C66928   3.629   7.937   2.487  0.5611  0.2511  0.6275
  508MOL0     C66929   3.689   7.992   2.374 -0.4434  0.4720 -0.1732
  508MOL0     C66930   3.649   8.109   2.318 -0.6819  0.2229  0.0805
  508MOL0     C66931   3.536   8.175   2.380 -0.7532  1.1157  1.3193
  508MOL0     O66932   3.469   8.282   2.332  0.5689 -0.6581  1.0413
  508MOL0     C66933   3.533   8.365   2.229 -0.1289 -0.0716 -0.2578
  508MOL0     C66934   3.429   8.472   2.188 -0.7585 -0.1806 -0.4633
  508MOL0     C66935   3.410   8.564   2.302 -0.1919 -0.1759 -0.9442
  508MOL0     C66936   3.307   8.673   2.279 -0.7294  0.2212  0.0202
  508MOL0     C66937   3.166   8.649   2.344  0.0375  0.3877 -0.2744
  508MOL0     C66938   3.046   8.715   2.275  0.3341  0.8021  0.2165
  508MOL0     C66939   3.064   8.862   2.224 -0.6609  0.4470  0.6588
  508MOL0     C66940   3.101   8.957   2.343  0.0642 -0.6885 -1.0364
  508MOL0     N66941   3.119   9.093   2.299  0.0936  0.0422  0.1478
  508MOL0     C66942   3.022   9.165   2.227 -0.2823 -0.3148  0.3218
  508MOL0     C66943   3.081   9.284   2.209  0.3672 -0.3294  0.4209
  508MOL0     C66944   3.038   9.389   2.114  0.0078 -0.9282 -0.6513
  508MOL0     C66945   3.067   9.339   1.970  1.1566 -0.5243 -0.1561
  508MOL0     C66946   3.009   9.436   1.866 -0.8800  0.0399  0.7124
  508MOL0     C66947   3.073   9.431   1.731  0.9836 -0.0987 -0.1504
  508MOL0     O66948   3.096   9.290   1.705  0.1932  0.2549  0.2698
  508MOL0     C66949   2.997   9.202   1.666 -0.8418  0.3379  0.0221
  508MOL0     C66950   2.883   9.245   1.594 -0.3016  0.1716  0.4359
  508MOL0     C66951   2.800   9.153   1.542  0.5100 -0.4635 -0.4316
  508MOL0     C66952   2.812   9.010   1.571  0.1948 -0.4118 -0.0963
  508MOL0     C66953   2.736   8.910   1.511 -0.6661  0.3813  0.0201
  508MOL0     O66954   2.689   8.934   1.379  0.0169  0.1165 -0.5064
  508MOL0     C66955   2.646   8.823   1.302 -0.6874 -0.3364  0.1542
  508MOL0     C66956   2.700   8.693   1.309 -0.3152 -0.7458 -0.6365
  508MOL0     C66957   2.678   8.589   1.216  0.2534 -0.4416 -0.1236
  508MOL0     C66958   2.574   8.603   1.124 -0.5391  0.0472  0.2242
  508MOL0     O66959   2.533   8.493   1.049  0.3171  0.2755  0.7506
  508MOL0     C66960   2.555   8.356   1.096 -0.4147  0.9381 -0.5099
  508MOL0     C66961   2.477   8.318   1.218 -0.2207  0.0437  0.3945
  508MOL0     C66962   2.478   8.162   1.218 -0.3563 -0.0432  0.3369
  508MOL0     C66963   2.455   8.118   1.359  0.0459 -0.1929  0.1920
  508MOL0     C66964   2.438   7.970   1.366 -0.2192  1.0859  0.4797
  508MOL0     C66965   2.445   7.934   1.517  0.2206 -0.1831  0.8921
  508MOL0     C66966   2.344   7.817   1.555 -1.1262 -0.3099  0.1467
  508MOL0     C66967   2.390   7.688   1.486  0.6818  0.1258  0.3565
  508MOL0    Cl66968   2.521   7.604   1.570 -0.3152 -0.3068  0.1066
  508MOL0     C66969   2.518   8.734   1.111  0.5604 -1.2158  0.7602
  508MOL0     C66970   2.545   8.837   1.201  0.1811  0.3439  0.2366
  508MOL0     O66971   2.721   8.807   1.579  0.0731  0.7418  0.2587
  508MOL0     C66972   2.923   8.966   1.648  0.3857  0.0024 -0.3214
  508MOL0     C66973   3.020   9.061   1.686 -0.6975  0.5601 -0.3740
  508MOL0     N66974   3.208   9.281   2.267 -0.4161 -0.6607  0.9980
  508MOL0     N66975   3.236   9.160   2.303  0.1462 -0.9505 -1.2528
  508MOL0     C66976   3.480   8.117   2.491  0.1206  0.3907 -0.4042
  508MOL0     C66977   3.527   8.000   2.554  0.2302  0.7042 -0.5507
  508MOL0     C66978   3.694   7.584   2.509 -0.5124 -0.2909  1.1015
  508MOL0     C66979   3.789   7.569   2.615  0.0423  0.5551 -1.1028
  508MOL0     C66980   3.862   7.449   2.632  1.0269  0.2705 -1.1182
  508MOL0     C66981   3.827   7.331   2.562  0.7608 -1.3558 -0.1846
  508MOL0     O66982   3.880   7.206   2.581 -0.3780 -0.2446  0.2124
  508MOL0     C66983   3.950   7.162   2.703 -0.1675  0.0576 -0.0054
  508MOL0     C66984   4.084   7.102   2.666 -0.0008 -0.2865  0.9065
  508MOL0     C66985   4.180   7.202   2.600  0.0902 -0.5021 -0.8630
  508MOL0     C66986   4.294   7.110   2.550 -0.7519  0.0977 -0.3584
  508MOL0     C66987   4.399   7.178   2.474  0.3756 -0.4750 -0.4495
  508MOL0     C66988   4.480   7.238   2.411 -0.2093 -0.2151 -1.2323
  508MOL0     C66989   3.722   7.340   2.464 -0.4573 -0.5665  0.1762
  508MOL0     C66990   3.665   7.466   2.438  0.1302 -0.5432 -0.5520
  508MOL0     H66991   3.773   7.936   2.334 -0.3329 -0.5762  1.4588
  508MOL0     H66992   3.714   8.154   2.245  1.3940  2.0725  2.8616
  508MOL0     H66993   3.565   8.307   2.142  0.0694  0.6044 -0.6408
  508MOL0     H66994   3.619   8.417   2.273 -0.0291  0.8690 -1.5152
  508MOL0     H66995   3.336   8.420   2.165 -0.0680 -2.8686  2.1991
  508MOL0     H66996   3.460   8.523   2.095  0.7140 -0.8402 -0.3693
  508MOL0     H66997   3.507   8.595   2.343 -0.3216 -1.3443  0.3123
  508MOL0     H66998   3.373   8.494   2.377 -1.5266 -0.9386 -2.2725
  508MOL0     H66999   3.347   8.772   2.302 -2.5650  0.9665  0.1511
  508MOL0     H67000   3.290   8.669   2.171  0.6110 -0.1480 -0.2033
  508MOL0     H67001   3.180   8.682   2.447  2.1427  1.8020 -0.9530
  508MOL0     H67002   3.143   8.542   2.342 -1.4731  0.6996 -0.4558
  508MOL0     H67003   2.956   8.708   2.337 -0.6576  0.2193 -1.2481
  508MOL0     H67004   3.020   8.664   2.182 -0.0459  1.9132 -0.3051
  508MOL0     H67005   3.148   8.867   2.155 -1.1954 -0.4255 -0.0708
  508MOL0     H67006   2.969   8.895   2.181 -1.1078 -0.9090  0.5776
  508MOL0     H67007   3.191   8.930   2.399  0.3209  1.2940 -0.4281
  508MOL0     H67008   3.022   8.955   2.419  0.4096  0.4246 -0.6279
  508MOL0     H67009   2.932   9.128   2.178  0.1505  2.5888 -3.0464
  508MOL0     H67010   3.090   9.481   2.142  0.8272 -1.6751  0.3559
  508MOL0     H67011   2.931   9.413   2.123 -0.6348 -2.9869 -2.1522
  508MOL0     H67012   3.021   9.241   1.955  1.2710 -0.8438  1.3993
  508MOL0     H67013   3.171   9.317   1.946  0.2334 -4.8536 -0.9243
  508MOL0     H67014   2.901   9.425   1.856 -0.6993  0.0213 -1.7897
  508MOL0     H67015   3.026   9.541   1.894  1.4022 -0.7561  2.6542
  508MOL0     H67016   3.170   9.482   1.741  1.1598 -0.5629  0.5639
  508MOL0     H67017   3.012   9.476   1.652  1.5044  2.5588  0.8573
  508MOL0     H67018   2.857   9.349   1.579 -1.2005 -0.1772 -0.5598
  508MOL0     H67019   2.719   9.192   1.481 -0.9693  0.4422  1.9863
  508MOL0     H67020   2.772   8.669   1.387 -0.7161 -3.5001 -0.9856
  508MOL0     H67021   2.735   8.497   1.221  0.5324 -0.4003 -1.7713
  508MOL0     H67022   2.661   8.335   1.116 -0.5140 -0.5903 -1.4238
  508MOL0     H67023   2.534   8.282   1.018 -0.1827  0.1258  0.1937
  508MOL0     H67024   2.380   8.367   1.223  1.0919  2.7909  1.2603
  508MOL0     H67025   2.529   8.356   1.307  0.5129  0.2339 -0.1000
  508MOL0     H67026   2.570   8.117   1.180 -0.8086 -0.0181 -0.8005
  508MOL0     H67027   2.403   8.129   1.146  0.6148  0.2628 -0.8568
  508MOL0     H67028   2.539   8.150   1.422 -0.1428 -0.8919  0.8138
  508MOL0     H67029   2.365   8.161   1.402 -1.5665 -3.4261  0.3396
  508MOL0     H67030   2.512   7.916   1.307 -4.3396 -3.9627 -0.8202
  508MOL0     H67031   2.342   7.929   1.332  0.3487 -2.0135  2.2054
  508MOL0     H67032   2.395   8.014   1.573 -1.1876  0.3679 -0.9985
  508MOL0     H67033   2.549   7.924   1.546  0.9028  0.2261 -1.2182
  508MOL0     H67034   2.326   7.808   1.663  1.3043 -1.3487  0.5277
  508MOL0     H67035   2.244   7.849   1.525 -0.7632 -0.3778 -1.1719
  508MOL0     H67036   2.427   7.708   1.385  0.6369 -0.3152  0.2473
  508MOL0     H67037   2.313   7.610   1.481  3.1147 -2.4295  0.4332
  508MOL0     H67038   2.436   8.732   1.039  0.4766 -4.4186  0.8109
  508MOL0     H67039   2.501   8.936   1.201 -2.3102 -0.6681  1.5281
  508MOL0     H67040   2.946   8.862   1.668  3.4217 -0.4851 -4.7911
  508MOL0     H67041   3.115   9.031   1.728 -1.0126 -1.9179 -1.2899
  508MOL0     H67042   3.389   8.160   2.532 -0.8677 -2.7467  1.0001
  508MOL0     H67043   3.498   7.960   2.651  0.8366  2.4480  0.3876
  508MOL0     H67044   3.831   7.648   2.676  1.9769 -0.3570 -1.1811
  508MOL0     H67045   3.944   7.441   2.701  1.3868 -2.4139 -1.7137
  508MOL0     H67046   3.881   7.095   2.754  0.9919 -3.2123 -2.3383
  508MOL0     H67047   3.979   7.249   2.764  1.5823 -1.2874  1.1865
  508MOL0     H67048   4.139   7.064   2.753 -0.6449 -2.9483  0.2462
  508MOL0     H67049   4.051   7.029   2.592  0.9539 -1.1967  1.3414
  508MOL0     H67050   4.217   7.272   2.675  2.4746 -2.4881 -0.0514
  508MOL0     H67051   4.123   7.257   2.524 -2.8037 -0.8757  0.8875
  508MOL0     H67052   4.341   7.058   2.634  1.5780 -0.6422 -2.0249
  508MOL0     H67053   4.251   7.035   2.483  0.0243  0.2926 -1.0893
  508MOL0     H67054   4.556   7.289   2.356  0.1731  0.2070 -0.3364
  508MOL0     H67055   3.709   7.255   2.398  0.0852  0.8369 -1.8357
  508MOL0     H67056   3.598   7.475   2.353 -0.9261  0.3395  0.3387
  509MOL0     O67057   1.577   0.485   7.320 -0.1584 -0.5992 -0.8600
  509MOL0     C67058   1.635   0.468   7.217  0.4806 -0.2518  0.1557
  509MOL0     O67059   1.577   0.399   7.112  0.4176  0.3942  0.1006
  509MOL0     C67060   1.448   0.365   7.119 -0.2266  0.6566  0.9828
  509MOL0     C67061   1.358   0.437   7.045 -0.2124 -0.2923  0.4897
  509MOL0     C67062   1.223   0.402   7.047  0.3088 -0.0328  0.7262
  509MOL0     C67063   1.175   0.287   7.114  0.1455  0.3340 -0.4645
  509MOL0     O67064   1.049   0.244   7.133 -0.1417 -0.1223  0.1469
  509MOL0     C67065   0.944   0.293   7.048 -0.3049  0.9391 -0.0694
  509MOL0     C67066   0.838   0.179   7.039 -0.1863 -0.4216  0.0632
  509MOL0     C67067   0.895   0.046   7.000 -0.1202 -0.4922 -0.3943
  509MOL0     C67068   0.944   0.050   6.859 -0.2648  0.5671  0.1827
  509MOL0     C67069   1.051  -0.053   6.821 -0.0798 -0.3893  0.0512
  509MOL0     C67070   1.200  -0.008   6.853 -0.8196  0.4110  0.6165
  509MOL0     C67071   1.299  -0.094   6.775  0.2480 -0.9155 -0.4966
  509MOL0     C67072   1.300  -0.236   6.846 -0.0969  0.4216  0.3761
  509MOL0     N67073   1.422  -0.319   6.826  0.2873  0.0950 -0.4110
  509MOL0     C67074   1.539  -0.290   6.885  0.3489 -0.4686  0.1610
  509MOL0     C67075   1.631  -0.368   6.832  0.1072 -0.0303  0.5040
  509MOL0     C67076   1.774  -0.386   6.876 -0.3165  0.6429 -1.1145
  509MOL0     C67077   1.874  -0.280   6.815  0.5295 -0.1272 -0.7460
  509MOL0     C67078   2.008  -0.279   6.892  1.2651  0.0407 -0.3957
  509MOL0     C67079   2.125  -0.218   6.817 -0.3606  0.0873  0.3383
  509MOL0     O67080   2.234  -0.261   6.902 -0.3594 -0.6131  0.3581
  509MOL0     C67081   2.340  -0.174   6.923  0.6361  0.6424  0.1602
  509MOL0     C67082   2.398  -0.095   6.821  0.1194  0.5172 -0.1725
  509MOL0     C67083   2.503  -0.010   6.840 -0.0698  0.1187 -0.5878
  509MOL0     C67084   2.554   0.009   6.966  0.2680  0.7630  0.4088
  509MOL0     C67085   2.643   0.111   6.990 -0.9787  0.3558 -1.1130
  509MOL0     O67086   2.693   0.180   6.884 -0.2851  0.4176 -0.3787
  509MOL0     C67087   2.775   0.286   6.899 -0.1167  1.3207  0.0606
  509MOL0     C67088   2.876   0.296   6.993 -0.3598 -0.5090  0.0149
  509MOL0     C67089   2.951   0.413   6.998 -0.6725  0.5918  0.0348
  509MOL0     C67090   2.944   0.520   6.903 -0.4752 -0.0536  0.2610
  509MOL0     O67091   3.015   0.640   6.898  0.3417 -0.4905 -0.4005
  509MOL0     C67092   3.124   0.656   6.985  0.7935 -0.0671  0.1084
  509MOL0     C67093   3.190   0.799   6.955  0.7500 -0.1240  0.2769
  509MOL0     C67094   3.309   0.822   7.045 -0.2042 -0.3963  0.1931
  509MOL0     C67095   3.374   0.951   7.010  0.4434 -0.4779 -0.3549
  509MOL0     C67096   3.493   0.993   7.087 -0.5214  0.9857 -0.1324
  509MOL0     C67097   3.455   1.066   7.225 -0.0208  0.9695  0.0261
  509MOL0     C67098   3.576   1.102   7.303 -0.7641 -0.1899  0.5899
  509MOL0     C67099   3.550   1.089   7.450 -0.4017 -0.8574 -0.3960
  509MOL0    Cl67100   3.425   1.214   7.489 -0.2888  0.1791 -0.1343
  509MOL0     C67101   2.845   0.504   6.804  0.5322  0.5390  0.3241
  509MOL0     C67102   2.764   0.386   6.799  0.7313  0.4330  0.5764
  509MOL0     O67103   2.668   0.135   7.114 -0.4775  1.0513  0.4655
  509MOL0     C67104   2.504  -0.073   7.080  0.5444 -0.3168  0.6404
  509MOL0     C67105   2.396  -0.153   7.049 -0.2544  1.1577  0.1103
  509MOL0     N67106   1.577  -0.434   6.726  0.9100 -0.6717 -0.0919
  509MOL0     N67107   1.450  -0.403   6.725  0.7663 -0.3790 -0.6777
  509MOL0     C67108   1.282   0.206   7.159 -0.9261  1.6219 -0.4984
  509MOL0     C67109   1.415   0.251   7.184  0.0341 -0.2131  0.5578
  509MOL0     C67110   1.786   0.475   7.204  0.0282  0.8136  0.1970
  509MOL0     C67111   1.857   0.521   7.089 -0.4082  0.2693  0.5012
  509MOL0     C67112   1.997   0.540   7.102 -0.3793  0.9566 -0.5023
  509MOL0     C67113   2.066   0.512   7.218  0.0686  0.6352  0.2894
  509MOL0     O67114   2.204   0.536   7.214  0.1406 -0.4759  0.1562
  509MOL0     C67115   2.281   0.423   7.163 -0.4749  0.0083 -0.1477
  509MOL0     C67116   2.420   0.415   7.209 -0.3489  0.2907  0.4547
  509MOL0     C67117   2.493   0.549   7.185  1.2050 -0.3053  0.3856
  509MOL0     C67118   2.639   0.547   7.235  0.8223 -0.4947  0.8143
  509MOL0     C67119   2.711   0.668   7.191 -0.7680 -0.1611  0.1927
  509MOL0     C67120   2.782   0.752   7.133  0.2017 -0.1638  0.6014
  509MOL0     C67121   1.989   0.470   7.330  0.2942  0.3933 -0.2548
  509MOL0     C67122   1.854   0.461   7.322  0.9480  0.7012 -0.1787
  509MOL0     H67123   1.389   0.528   6.996  0.7765 -0.7690  0.1942
  509MOL0     H67124   1.157   0.459   6.982 -1.1441 -2.4632 -0.0467
  509MOL0     H67125   0.986   0.318   6.950 -0.4288  0.8979 -0.1323
  509MOL0     H67126   0.910   0.392   7.079 -1.8627  0.6464 -0.7597
  509MOL0     H67127   0.756   0.220   6.980  0.4642  0.2374 -0.3922
  509MOL0     H67128   0.802   0.167   7.142  3.7110 -0.7035  1.5750
  509MOL0     H67129   0.812  -0.020   7.026 -0.5494  1.5477  4.8206
  509MOL0     H67130   0.977   0.028   7.070 -0.5930  1.0492  0.6218
  509MOL0     H67131   0.863   0.031   6.788 -2.3854  1.2595  2.2994
  509MOL0     H67132   1.003   0.139   6.838  1.6599 -0.7822 -0.3775
  509MOL0     H67133   1.050  -0.055   6.711  1.7049  2.7404 -0.1415
  509MOL0     H67134   1.028  -0.150   6.865 -0.8445 -0.4245 -0.4191
  509MOL0     H67135   1.229  -0.011   6.959  0.8796 -0.6643  0.1584
  509MOL0     H67136   1.204   0.094   6.815 -0.7322 -0.4965 -2.0258
  509MOL0     H67137   1.276  -0.103   6.668  0.0991  2.5770 -0.8755
  509MOL0     H67138   1.400  -0.052   6.783  0.0430  0.3240 -3.1007
  509MOL0     H67139   1.214  -0.283   6.797  0.8821  0.7488 -1.7884
  509MOL0     H67140   1.278  -0.227   6.953 -4.4501 -0.7188 -0.2200
  509MOL0     H67141   1.550  -0.215   6.964 -1.9026  2.6688 -2.2286
  509MOL0     H67142   1.805  -0.485   6.843  2.5964  0.7551  0.8734
  509MOL0     H67143   1.782  -0.385   6.985  0.5083  1.3788 -1.1659
  509MOL0     H67144   1.846  -0.175   6.821 -2.0573 -0.8277  1.9180
  509MOL0     H67145   1.886  -0.298   6.708 -0.8875 -1.5034 -0.7025
  509MOL0     H67146   2.012  -0.225   6.987 -1.9059  2.2136 -1.3261
  509MOL0     H67147   2.035  -0.384   6.907  0.0717  0.1015  3.1941
  509MOL0     H67148   2.119  -0.109   6.819  2.0784  0.2837  0.8294
  509MOL0     H67149   2.143  -0.255   6.716 -0.8117  0.0165  0.2825
  509MOL0     H67150   2.366  -0.113   6.719  0.0408 -1.1346  0.1113
  509MOL0     H67151   2.547   0.028   6.748  1.3110 -2.3089 -1.0359
  509MOL0     H67152   2.886   0.210   7.058  4.4327 -1.5074 -1.6174
  509MOL0     H67153   3.034   0.414   7.068  1.8809  1.6202 -2.7644
  509MOL0     H67154   3.200   0.579   6.978  2.1487  0.9265  2.5208
  509MOL0     H67155   3.089   0.656   7.089  1.3641 -2.0016  0.3342
  509MOL0     H67156   3.118   0.880   6.974 -0.2860 -1.3871  1.9749
  509MOL0     H67157   3.216   0.789   6.850  0.2796 -0.7462  0.2105
  509MOL0     H67158   3.377   0.737   7.039 -0.2352 -0.6485  2.4186
  509MOL0     H67159   3.270   0.830   7.147  0.7014 -0.5892  0.5693
  509MOL0     H67160   3.396   0.947   6.903  0.6639 -0.6759 -0.3029
  509MOL0     H67161   3.298   1.028   7.027 -1.9575 -3.0554  1.3075
  509MOL0     H67162   3.553   1.069   7.037 -1.5861  1.7012 -0.3546
  509MOL0     H67163   3.550   0.903   7.110 -1.1941  0.7357  0.5963
  509MOL0     H67164   3.414   0.983   7.284  1.4132 -1.3862 -2.0825
  509MOL0     H67165   3.396   1.152   7.193  0.0558  0.9206 -0.2449
  509MOL0     H67166   3.662   1.044   7.267  0.4045  2.1361 -0.5507
  509MOL0     H67167   3.604   1.205   7.280  0.7916 -1.1485 -2.3405
  509MOL0     H67168   3.639   1.116   7.507 -0.8188 -1.8539  0.7436
  509MOL0     H67169   3.521   0.988   7.477 -1.5164 -0.5564 -0.4127
  509MOL0     H67170   2.847   0.582   6.729 -0.7650  1.1238  0.8681
  509MOL0     H67171   2.686   0.381   6.724  0.7046 -0.8553  0.6686
  509MOL0     H67172   2.527  -0.053   7.184 -0.7158  4.0249  0.3007
  509MOL0     H67173   2.344  -0.196   7.134  0.3247 -0.0724 -0.1426
  509MOL0     H67174   1.257   0.109   7.200  2.5927  1.4854  1.7167
  509MOL0     H67175   1.493   0.199   7.238 -1.9174 -4.4625 -0.2665
  509MOL0     H67176   1.807   0.546   6.996 -2.8018  0.3333  1.7399
  509MOL0     H67177   2.049   0.568   7.011 -1.7827  2.4545 -0.8978
  509MOL0     H67178   2.265   0.422   7.055 -1.8337 -0.2849  0.0392
  509MOL0     H67179   2.224   0.336   7.197 -0.6248  0.2819  0.3167
  509MOL0     H67180   2.428   0.382   7.313 -2.7914 -2.2129 -0.0162
  509MOL0     H67181   2.469   0.334   7.154  0.1000  0.9066 -0.0631
  509MOL0     H67182   2.433   0.624   7.238 -1.4288 -2.0798  0.1369
  509MOL0     H67183   2.488   0.561   7.076  4.8592  0.0765  0.1561
  509MOL0     H67184   2.649   0.530   7.343  0.4954 -0.1547  0.9010
  509MOL0     H67185   2.686   0.463   7.184 -0.6350 -0.6928 -0.2756
  509MOL0     H67186   2.840   0.821   7.075  2.0756  0.0748  2.6550
  509MOL0     H67187   2.053   0.459   7.417 -1.4298 -2.3975  0.8039
  509MOL0     H67188   1.792   0.420   7.401 -0.1186  1.1150 -0.7734
  510MOL0     O67189   5.226   4.297   9.360  0.2291  0.1650 -0.1016
  510MOL0     C67190   5.302   4.394   9.344 -0.4317  0.5798  0.3357
  510MOL0     O67191   5.274   4.519   9.358 -1.0247 -0.6347  0.0562
  510MOL0     C67192   5.139   4.554   9.355 -0.7966 -0.2752 -0.3112
  510MOL0     C67193   5.092   4.620   9.243  0.1797  0.1904 -1.0878
  510MOL0     C67194   4.949   4.649   9.234 -0.1461 -0.2092 -0.6543
  510MOL0     C67195   4.865   4.613   9.338 -0.6638 -0.1872 -0.2545
  510MOL0     O67196   4.734   4.654   9.345 -0.6535  0.1577  0.7884
  510MOL0     C67197   4.658   4.693   9.238  0.7769 -0.7860 -0.1612
  510MOL0     C67198   4.507   4.655   9.263 -0.0484  0.0421  0.2122
  510MOL0     C67199   4.491   4.512   9.307 -0.2077  0.0174 -0.7824
  510MOL0     C67200   4.353   4.480   9.351  0.5657  0.3972 -0.3248
  510MOL0     C67201   4.351   4.327   9.396 -1.6741 -0.2155  0.3394
  510MOL0     C67202   4.221   4.297   9.459 -0.1961 -0.5678  0.0691
  510MOL0     C67203   4.085   4.323   9.388  0.6556  0.2332 -0.3405
  510MOL0     C67204   3.967   4.270   9.462  0.3296 -0.6480  0.3471
  510MOL0     N67205   3.966   4.123   9.476 -0.0214  0.0798  0.4387
  510MOL0     C67206   3.934   4.038   9.367  0.4420 -0.2294 -1.4714
  510MOL0     C67207   3.954   3.909   9.416 -0.4537 -0.4080 -0.5373
  510MOL0     C67208   3.968   3.785   9.341 -0.1103 -0.2088 -0.5760
  510MOL0     C67209   4.114   3.753   9.308 -0.0814 -0.2710 -0.4858
  510MOL0     C67210   4.134   3.609   9.256 -0.3912 -0.2203  0.3980
  510MOL0     C67211   4.232   3.595   9.130  0.1830  1.4979  0.3691
  510MOL0     O67212   4.368   3.643   9.162  0.6552 -0.4965  0.5911
  510MOL0     C67213   4.460   3.627   9.059 -0.1255 -0.3041 -0.0799
  510MOL0     C67214   4.582   3.695   9.089  0.6774  0.1630 -0.1206
  510MOL0     C67215   4.690   3.687   9.000 -0.1768 -1.3619 -0.0990
  510MOL0     C67216   4.681   3.613   8.884  0.4612  1.0695  0.2080
  510MOL0     C67217   4.786   3.611   8.788 -0.9748  0.6499  0.7294
  510MOL0     O67218   4.913   3.582   8.838 -0.2723  0.3419  0.6090
  510MOL0     C67219   5.020   3.579   8.752  0.0383 -0.4449 -0.0411
  510MOL0     C67220   5.144   3.618   8.801  0.7469 -1.0078  0.0879
  510MOL0     C67221   5.264   3.606   8.734  0.4206 -0.7958  0.2290
  510MOL0     C67222   5.265   3.554   8.602  0.1883 -0.6251 -0.6654
  510MOL0     O67223   5.386   3.547   8.540 -0.2347  0.9403  0.3730
  510MOL0     C67224   5.422   3.674   8.482 -0.2880 -0.8520 -0.2043
  510MOL0     C67225   5.574   3.701   8.501  1.0070  0.7817  0.0478
  510MOL0     C67226   5.628   3.661   8.641 -0.0035  0.0525  0.4310
  510MOL0     C67227   5.772   3.701   8.660 -0.3273 -0.0227  0.1491
  510MOL0     C67228   5.836   3.629   8.784 -0.7410 -0.1523 -0.6917
  510MOL0     C67229   5.994   3.647   8.783 -0.1081  0.1619 -0.1846
  510MOL0     C67230   6.073   3.545   8.859 -0.0882 -1.1965  0.1326
  510MOL0     C67231   6.219   3.579   8.868 -0.4407 -0.2210 -0.1691
  510MOL0    Cl67232   6.260   3.761   8.863 -0.0719 -0.0461 -0.0727
  510MOL0     C67233   5.149   3.509   8.551 -0.3275  0.3951  0.5153
  510MOL0     C67234   5.032   3.514   8.625 -0.0803 -0.2641  0.4057
  510MOL0     O67235   4.757   3.649   8.670  0.2573 -0.0188  0.3283
  510MOL0     C67236   4.561   3.546   8.852  0.3129 -0.3345 -0.4180
  510MOL0     C67237   4.450   3.551   8.938 -0.0143  0.0838 -0.6415
  510MOL0     N67238   3.990   3.920   9.553  1.1129  0.0194 -0.0702
  510MOL0     N67239   3.991   4.048   9.587  0.0022  0.2566 -0.2057
  510MOL0     C67240   4.920   4.550   9.452  0.5039  1.1038  1.1833
  510MOL0     C67241   5.055   4.513   9.460 -0.8004 -0.0858  0.1326
  510MOL0     C67242   5.425   4.365   9.284 -1.2005 -0.0696  0.1188
  510MOL0     C67243   5.480   4.236   9.279 -0.4964 -0.4018 -0.1223
  510MOL0     C67244   5.605   4.217   9.218 -0.0312  0.3122 -0.1119
  510MOL0     C67245   5.662   4.321   9.147  0.1519  0.2034 -0.3394
  510MOL0     O67246   5.775   4.291   9.064  0.2150 -0.9217  0.5871
  510MOL0     C67247   5.869   4.394   9.044 -0.0983 -0.5408  0.1848
  510MOL0     C67248   5.968   4.329   8.953  0.3390 -0.1083 -0.3449
  510MOL0     C67249   6.036   4.439   8.864  0.4919  1.1053  0.1610
  510MOL0     C67250   6.179   4.395   8.828 -0.3445 -0.2016 -0.1778
  510MOL0     C67251   6.266   4.443   8.933  0.4255  0.8577  0.0259
  510MOL0     C67252   6.337   4.499   9.015  0.1058  1.0561 -0.4551
  510MOL0     C67253   5.612   4.451   9.157  0.3146 -0.4710 -0.4125
  510MOL0     C67254   5.490   4.473   9.219 -0.6686 -0.9070  1.0426
  510MOL0     H67255   5.158   4.633   9.157  1.0206 -2.7138 -0.9639
  510MOL0     H67256   4.909   4.704   9.149  1.5510  3.1582  0.5701
  510MOL0     H67257   4.692   4.646   9.145  0.3157 -2.8264  0.6524
  510MOL0     H67258   4.669   4.802   9.232  0.4104 -0.6390  1.5799
  510MOL0     H67259   4.454   4.679   9.170  2.0724  2.7853 -0.4062
  510MOL0     H67260   4.459   4.725   9.332 -1.7914 -1.6007  0.7666
  510MOL0     H67261   4.560   4.480   9.386 -0.5323 -3.0486 -1.6037
  510MOL0     H67262   4.515   4.448   9.222 -3.9767 -2.4893 -0.2194
  510MOL0     H67263   4.320   4.551   9.427  0.6570  0.3683 -0.2563
  510MOL0     H67264   4.284   4.493   9.268 -0.4815  0.4888  0.5398
  510MOL0     H67265   4.432   4.301   9.465 -0.3027 -3.1305 -2.0939
  510MOL0     H67266   4.366   4.264   9.307  0.9577 -1.1103  1.3023
  510MOL0     H67267   4.222   4.361   9.548  0.4574  1.1538 -1.1299
  510MOL0     H67268   4.226   4.191   9.489  1.7816 -0.6651 -0.4350
  510MOL0     H67269   4.077   4.432   9.378 -1.0395  0.3673  1.6654
  510MOL0     H67270   4.088   4.283   9.287  1.9468  0.4453 -0.4007
  510MOL0     H67271   3.877   4.296   9.406 -0.3119 -2.2999  0.5507
  510MOL0     H67272   3.955   4.297   9.568 -0.9861 -1.3113  0.3928
  510MOL0     H67273   3.915   4.067   9.264 -0.1622  1.7248 -0.8586
  510MOL0     H67274   3.913   3.798   9.247  1.7428  1.2325 -1.5243
  510MOL0     H67275   3.910   3.707   9.391  0.3902 -0.0468  0.2786
  510MOL0     H67276   4.189   3.767   9.386 -0.0306 -0.5412 -0.4831
  510MOL0     H67277   4.151   3.828   9.237  1.9572 -2.4828 -1.9375
  510MOL0     H67278   4.184   3.550   9.334  1.1009  2.1769  1.3507
  510MOL0     H67279   4.040   3.557   9.233  0.2755 -0.6780 -1.4575
  510MOL0     H67280   4.180   3.644   9.047  0.8311  2.0362  0.2704
  510MOL0     H67281   4.245   3.488   9.108 -0.8410  1.0030  2.0135
  510MOL0     H67282   4.596   3.743   9.185  1.0127 -0.8369  0.3383
  510MOL0     H67283   4.783   3.744   9.007 -0.8038 -0.3721  0.3596
  510MOL0     H67284   5.135   3.660   8.901 -1.6696  1.7566 -1.1551
  510MOL0     H67285   5.359   3.639   8.775  0.8902 -1.0085 -0.6542
  510MOL0     H67286   5.359   3.752   8.526  0.0917  0.6476 -2.1882
  510MOL0     H67287   5.381   3.680   8.380 -3.0827  0.0100  0.8903
  510MOL0     H67288   5.595   3.806   8.478  1.6988  0.3187 -1.5472
  510MOL0     H67289   5.633   3.654   8.423 -0.5079  0.1240 -0.7419
  510MOL0     H67290   5.605   3.556   8.662  1.7804 -0.7264 -1.2892
  510MOL0     H67291   5.578   3.716   8.722 -0.7749 -0.0379  0.0294
  510MOL0     H67292   5.825   3.668   8.571  2.5938 -1.6683  2.3086
  510MOL0     H67293   5.777   3.808   8.680  3.1978 -0.0460 -0.0018
  510MOL0     H67294   5.813   3.523   8.771 -0.7517 -0.5600  1.9441
  510MOL0     H67295   5.789   3.666   8.876 -2.7141 -0.1632 -1.6382
  510MOL0     H67296   6.011   3.748   8.822  0.6901  0.2432 -0.7144
  510MOL0     H67297   6.028   3.642   8.679  0.8450 -0.8555  0.1559
  510MOL0     H67298   6.033   3.531   8.960  1.6469 -1.1415  0.8677
  510MOL0     H67299   6.068   3.457   8.794 -1.3346 -1.1422  0.1435
  510MOL0     H67300   6.279   3.528   8.792  4.8437  4.4599  0.2059
  510MOL0     H67301   6.253   3.528   8.959  0.2181 -2.1653 -1.4417
  510MOL0     H67302   5.149   3.467   8.451  0.2512 -0.5317  0.8835
  510MOL0     H67303   4.937   3.476   8.588  0.5039 -0.8993 -0.4943
  510MOL0     H67304   4.557   3.490   8.760 -1.0239  1.0734 -1.2769
  510MOL0     H67305   4.360   3.494   8.917 -1.2105  1.6710  0.0169
  510MOL0     H67306   4.845   4.535   9.529 -2.3521  2.7124 -1.0956
  510MOL0     H67307   5.102   4.451   9.537 -0.0688  2.8196  2.1960
  510MOL0     H67308   5.425   4.153   9.322 -0.9140  0.0893  0.2956
  510MOL0     H67309   5.633   4.112   9.217 -1.4282 -0.0964 -2.1416
  510MOL0     H67310   5.922   4.427   9.134 -1.9144  2.3124  0.3131
  510MOL0     H67311   5.825   4.485   9.003 -0.1337 -0.9536 -0.7054
  510MOL0     H67312   6.042   4.269   9.005  1.1692 -0.5776 -1.9915
  510MOL0     H67313   5.909   4.263   8.889  1.1479 -1.3491  0.1470
  510MOL0     H67314   6.029   4.534   8.917  1.1780  1.2314  0.0282
  510MOL0     H67315   5.983   4.443   8.769  0.2572 -1.5469  0.1007
  510MOL0     H67316   6.185   4.286   8.821 -0.5305 -0.2086 -0.2186
  510MOL0     H67317   6.214   4.444   8.736  0.7740  1.2658  0.9648
  510MOL0     H67318   6.397   4.547   9.090 -0.6409  1.1573  0.0822
  510MOL0     H67319   5.658   4.531   9.101 -2.8080  3.5502  2.2040
  510MOL0     H67320   5.455   4.576   9.211  0.9502 -0.4120  0.0440
  511MOL0     O67321   0.833   6.400   5.790  0.2747 -0.3972 -0.0157
  511MOL0     C67322   0.781   6.339   5.883 -0.4502  1.2178  0.2885
  511MOL0     O67323   0.650   6.344   5.924  0.0694 -0.2556 -0.5336
  511MOL0     C67324   0.567   6.400   5.832  0.6852 -0.1659 -0.3776
  511MOL0     C67325   0.513   6.524   5.866  0.5409  0.5765  0.1988
  511MOL0     C67326   0.435   6.586   5.770 -0.7470 -0.8019  0.0292
  511MOL0     C67327   0.400   6.528   5.648 -0.2405 -1.0754 -0.5325
  511MOL0     O67328   0.325   6.611   5.574 -0.0428  0.1192  0.7465
  511MOL0     C67329   0.266   6.564   5.451  0.0376 -0.0186  0.1253
  511MOL0     C67330   0.175   6.666   5.402 -0.0018  0.1221  0.5685
  511MOL0     C67331   0.247   6.791   5.359 -0.1859  0.4216 -0.2648
  511MOL0     C67332   0.159   6.890   5.292 -0.0514 -0.3816 -0.3552
  511MOL0     C67333   0.090   6.982   5.389 -0.6496 -0.5841  0.4919
  511MOL0     C67334   0.191   7.067   5.467  0.0781  0.0048  0.7976
  511MOL0     C67335   0.125   7.184   5.545  0.5507 -0.2255  0.3018
  511MOL0     C67336   0.080   7.299   5.445  0.6530 -1.0830 -0.3549
  511MOL0     N67337   0.132   7.428   5.491 -0.4128  0.5863 -1.0013
  511MOL0     C67338   0.073   7.492   5.586 -0.3137  0.5576 -0.0507
  511MOL0     C67339   0.120   7.616   5.584 -0.7467  0.0804  0.1949
  511MOL0     C67340   0.063   7.720   5.677  0.0993 -0.0484  0.0358
  511MOL0     C67341  -0.026   7.813   5.604  0.8205 -0.5043  0.0986
  511MOL0     C67342  -0.077   7.944   5.686 -0.4741  0.6570 -0.4661
  511MOL0     C67343  -0.131   8.053   5.592 -0.9306  0.2608  0.0666
  511MOL0     O67344  -0.260   8.024   5.545  0.5047  0.5934 -0.6059
  511MOL0     C67345  -0.371   8.087   5.587  0.2648  0.8342 -0.3962
  511MOL0     C67346  -0.469   8.119   5.492  0.2893 -0.0641  0.9274
  511MOL0     C67347  -0.580   8.196   5.515  0.0867  0.2088 -0.9111
  511MOL0     C67348  -0.596   8.248   5.647  0.6799  0.4212  0.8813
  511MOL0     C67349  -0.702   8.347   5.682 -0.0331  0.1882  0.4382
  511MOL0     O67350  -0.696   8.405   5.807 -0.4819 -0.0444 -0.2077
  511MOL0     C67351  -0.809   8.469   5.851 -0.1504 -0.5892 -0.8636
  511MOL0     C67352  -0.916   8.396   5.915 -0.6550 -0.4723  0.0146
  511MOL0     C67353  -1.017   8.481   5.969  0.4404  0.3619  1.2478
  511MOL0     C67354  -1.004   8.618   5.959 -0.2220 -0.1555 -0.3412
  511MOL0     O67355  -1.097   8.698   6.013  0.1033  0.0663  0.2385
  511MOL0     C67356  -1.219   8.643   6.071  0.8431  0.0405  0.4939
  511MOL0     C67357  -1.329   8.752   6.106  0.2691  0.1511  0.3906
  511MOL0     C67358  -1.288   8.837   6.219  0.0307 -0.3654  0.6993
  511MOL0     C67359  -1.381   8.958   6.248 -0.1611  0.5167  0.9613
  511MOL0     C67360  -1.329   9.079   6.326 -0.8678 -0.5944 -1.2433
  511MOL0     C67361  -1.187   9.142   6.285 -0.2019 -0.0550  0.4030
  511MOL0     C67362  -1.170   9.168   6.132  0.5565  0.6904  0.3663
  511MOL0     C67363  -1.048   9.256   6.125 -0.3491 -0.5658  0.2091
  511MOL0    Cl67364  -1.039   9.292   5.950 -0.1947  0.3943  0.2892
  511MOL0     C67365  -0.902   8.677   5.893  0.5330 -0.6203 -0.2474
  511MOL0     C67366  -0.800   8.604   5.843 -0.0741 -0.1265 -0.1957
  511MOL0     O67367  -0.789   8.364   5.598  0.1313  0.6012  0.0175
  511MOL0     C67368  -0.498   8.221   5.740 -0.9217  0.1394  0.1902
  511MOL0     C67369  -0.387   8.142   5.713 -0.8857  0.1497 -0.0162
  511MOL0     N67370   0.213   7.628   5.484  0.1480  0.4947 -0.1468
  511MOL0     N67371   0.228   7.510   5.434  0.6410  0.4565 -0.0456
  511MOL0     C67372   0.450   6.397   5.622 -0.6588 -0.2794  0.0956
  511MOL0     C67373   0.540   6.338   5.716 -0.1877 -0.6242  1.0139
  511MOL0     C67374   0.867   6.266   5.982  0.0907  0.6901  0.0714
  511MOL0     C67375   0.826   6.231   6.116  0.3866 -0.8892 -0.3776
  511MOL0     C67376   0.909   6.161   6.207 -0.4516  0.8550  0.5492
  511MOL0     C67377   1.022   6.099   6.153 -0.2476  0.1031 -0.0397
  511MOL0     O67378   1.125   6.037   6.220 -0.3202  0.2769  0.3230
  511MOL0     C67379   1.142   6.059   6.361 -0.0666  0.5896 -0.3149
  511MOL0     C67380   1.224   6.174   6.388 -0.6748 -0.3476  0.6557
  511MOL0     C67381   1.158   6.315   6.388  0.1908  0.3982 -0.3006
  511MOL0     C67382   1.090   6.354   6.525  0.5624 -0.6526 -0.0570
  511MOL0     C67383   1.182   6.360   6.636 -0.7019  0.5587  0.8456
  511MOL0     C67384   1.267   6.359   6.719  0.3673  0.1873  0.0473
  511MOL0     C67385   1.060   6.134   6.021 -1.0326 -0.0216  0.0670
  511MOL0     C67386   0.987   6.217   5.945 -0.1096  0.5078 -1.0412
  511MOL0     H67387   0.551   6.561   5.960  3.0568 -1.5438  0.1519
  511MOL0     H67388   0.394   6.687   5.773 -0.1607 -0.4412 -2.3565
  511MOL0     H67389   0.213   6.468   5.463  0.7679 -0.4355  0.0475
  511MOL0     H67390   0.348   6.538   5.384 -1.3184 -0.3458 -1.4775
  511MOL0     H67391   0.101   6.688   5.479  1.5534  0.7488  1.9357
  511MOL0     H67392   0.125   6.620   5.315  0.8591 -0.7449  0.5116
  511MOL0     H67393   0.329   6.756   5.295  1.0112  1.3625  0.6980
  511MOL0     H67394   0.296   6.831   5.448 -1.4917  4.8235 -1.2892
  511MOL0     H67395   0.222   6.949   5.225  0.8041  1.2131  1.7425
  511MOL0     H67396   0.083   6.845   5.227  0.9048  0.0513 -1.8094
  511MOL0     H67397   0.027   6.921   5.454  0.3745 -2.8021 -0.4965
  511MOL0     H67398   0.016   7.050   5.345 -0.9801 -0.6072  1.0092
  511MOL0     H67399   0.250   7.116   5.389  0.0492  0.3981  1.0203
  511MOL0     H67400   0.260   7.018   5.537 -0.7312 -2.0623  0.2202
  511MOL0     H67401   0.045   7.148   5.610  1.6493 -3.7931 -0.1162
  511MOL0     H67402   0.193   7.227   5.619  0.0742  0.0503  0.5849
  511MOL0     H67403  -0.029   7.313   5.447  0.7355  0.5822 -2.7089
  511MOL0     H67404   0.122   7.286   5.344  1.4008  3.5059 -0.8825
  511MOL0     H67405   0.001   7.455   5.659  2.7592 -2.2469  1.8172
  511MOL0     H67406   0.146   7.778   5.721 -0.6600  1.0051  0.1196
  511MOL0     H67407   0.014   7.665   5.757  0.4527  0.9887  0.9946
  511MOL0     H67408  -0.118   7.768   5.565  0.9124 -1.2216  0.6940
  511MOL0     H67409   0.031   7.836   5.514  0.8461 -1.2350 -0.0790
  511MOL0     H67410  -0.160   7.912   5.750 -2.0661  2.9216 -1.2665
  511MOL0     H67411  -0.001   7.993   5.748  0.4533 -0.5828 -0.5685
  511MOL0     H67412  -0.066   8.064   5.505  0.1794  2.3235  1.0932
  511MOL0     H67413  -0.125   8.144   5.652 -1.2838 -1.0246  2.1697
  511MOL0     H67414  -0.453   8.097   5.387 -1.0371  2.9569 -0.0019
  511MOL0     H67415  -0.650   8.227   5.437 -1.0162 -1.3562 -0.5943
  511MOL0     H67416  -0.918   8.288   5.923  0.5161 -0.6505 -1.4867
  511MOL0     H67417  -1.097   8.421   6.011  1.5222 -1.4365  0.8179
  511MOL0     H67418  -1.211   8.582   6.161  0.4005 -0.9915 -0.1459
  511MOL0     H67419  -1.269   8.573   6.004 -2.2521  1.2179  1.3808
  511MOL0     H67420  -1.424   8.707   6.136 -0.8451  2.9469  1.3621
  511MOL0     H67421  -1.346   8.822   6.024  2.3209  1.3453  0.9227
  511MOL0     H67422  -1.190   8.879   6.196 -0.2568  2.5203  3.9563
  511MOL0     H67423  -1.271   8.768   6.303 -0.5031  0.9766  1.9482
  511MOL0     H67424  -1.427   9.004   6.160 -1.0916  1.0875  1.7296
  511MOL0     H67425  -1.460   8.919   6.312 -0.6401 -0.3460 -0.1260
  511MOL0     H67426  -1.312   9.058   6.432 -0.4026  2.7847 -0.5277
  511MOL0     H67427  -1.411   9.150   6.340 -1.5157 -1.3279 -1.2444
  511MOL0     H67428  -1.112   9.068   6.316 -2.8299 -2.5536  1.2598
  511MOL0     H67429  -1.159   9.226   6.349  0.8795  2.0575 -2.5810
  511MOL0     H67430  -1.154   9.073   6.080 -0.6184  0.4403  0.4309
  511MOL0     H67431  -1.259   9.214   6.089  1.6166  1.3059 -1.2502
  511MOL0     H67432  -0.975   9.185   6.165 -0.3736 -0.0710  1.1419
  511MOL0     H67433  -1.060   9.341   6.192 -3.3122 -1.3364  0.8275
  511MOL0     H67434  -0.905   8.785   5.877 -0.7348 -0.6862 -0.5300
  511MOL0     H67435  -0.727   8.651   5.778 -0.2348  0.2864 -0.0853
  511MOL0     H67436  -0.516   8.277   5.832 -1.7886  3.3681 -1.7750
  511MOL0     H67437  -0.316   8.137   5.795  1.1340  0.5152 -1.6838
  511MOL0     H67438   0.434   6.342   5.530  1.8658 -0.5232 -0.2581
  511MOL0     H67439   0.566   6.235   5.699 -2.3798 -0.7123 -3.1267
  511MOL0     H67440   0.732   6.259   6.162  1.7136 -0.0582  2.0080
  511MOL0     H67441   0.904   6.154   6.315  2.2479 -0.9826  0.6525
  511MOL0     H67442   1.195   5.968   6.393  2.8873  2.7271  1.3429
  511MOL0     H67443   1.048   6.066   6.415 -0.1630  1.2405 -0.5617
  511MOL0     H67444   1.285   6.161   6.478  0.1620  0.5247  0.2396
  511MOL0     H67445   1.299   6.177   6.308 -1.8785 -2.5853 -0.6378
  511MOL0     H67446   1.086   6.329   6.308 -1.0869  1.7338  1.0178
  511MOL0     H67447   1.232   6.395   6.380 -0.4536  0.8059 -3.1356
  511MOL0     H67448   1.037   6.449   6.510 -1.9639 -2.0940 -0.6303
  511MOL0     H67449   1.014   6.288   6.568  2.1187 -1.1864  2.0626
  511MOL0     H67450   1.345   6.376   6.790  0.1872  0.6296  0.1452
  511MOL0     H67451   1.157   6.094   5.996 -1.9747 -2.2951 -0.2108
  511MOL0     H67452   1.027   6.238   5.846  1.4015  1.9278 -0.1830
  512MOL0     O67453   6.205   1.619   5.917  0.0184  0.3618  0.1261
  512MOL0     C67454   6.285   1.684   5.847  0.3412  0.7214  0.0725
  512MOL0     O67455   6.421   1.692   5.863 -0.3928  0.1877 -0.1870
  512MOL0     C67456   6.482   1.610   5.952  0.5150 -0.0392  0.0256
  512MOL0     C67457   6.448   1.596   6.090  0.4868  0.0694  1.1791
  512MOL0     C67458   6.501   1.508   6.174 -0.1150 -0.7825  0.1506
  512MOL0     C67459   6.609   1.429   6.118  0.6264  0.9271 -0.1659
  512MOL0     O67460   6.661   1.335   6.199 -0.1727  0.6231 -0.6025
  512MOL0     C67461   6.791   1.284   6.164 -0.4530  0.3577 -0.4606
  512MOL0     C67462   6.834   1.204   6.282 -0.5042 -0.0186 -0.1514
  512MOL0     C67463   6.984   1.189   6.277  0.7892 -0.6190 -0.0024
  512MOL0     C67464   7.048   1.086   6.380 -0.2848  0.3795  0.1729
  512MOL0     C67465   7.194   1.068   6.363  0.0952 -0.2614  0.2224
  512MOL0     C67466   7.284   1.180   6.425  0.5099 -0.3955  0.0066
  512MOL0     C67467   7.432   1.143   6.436 -0.1173 -0.3728  0.3641
  512MOL0     C67468   7.470   1.098   6.581  0.5536  0.1648 -0.6505
  512MOL0     N67469   7.443   1.205   6.676  0.1905 -0.5809 -0.9065
  512MOL0     C67470   7.465   1.343   6.659 -0.1685  0.3142  0.3358
  512MOL0     C67471   7.395   1.403   6.763 -0.1684  0.5816  0.0917
  512MOL0     C67472   7.382   1.549   6.808 -0.0028 -0.8446  0.1900
  512MOL0     C67473   7.360   1.641   6.687 -0.4212 -1.0989  1.1665
  512MOL0     C67474   7.319   1.787   6.725 -0.4242 -0.4350 -0.2489
  512MOL0     C67475   7.171   1.799   6.772 -0.7448 -0.0937  0.0869
  512MOL0     O67476   7.093   1.827   6.652  0.4076 -0.2940 -0.3614
  512MOL0     C67477   6.957   1.848   6.663  0.4494 -0.7820  0.2197
  512MOL0     C67478   6.883   1.857   6.782 -0.2066 -0.1302  0.4768
  512MOL0     C67479   6.744   1.866   6.775  0.2772  0.1898  0.2747
  512MOL0     C67480   6.680   1.892   6.658 -0.0586  0.1191  1.0535
  512MOL0     C67481   6.529   1.915   6.653 -1.0063  0.4919 -0.2244
  512MOL0     O67482   6.469   1.895   6.533  0.1969 -0.0407  0.1608
  512MOL0     C67483   6.337   1.925   6.520 -0.0710 -0.3285 -0.0210
  512MOL0     C67484   6.285   2.052   6.552  0.4143 -0.6133  0.4090
  512MOL0     C67485   6.149   2.079   6.541  0.2811 -1.1419 -0.3119
  512MOL0     C67486   6.052   1.976   6.509 -0.5977  0.1906  0.3711
  512MOL0     O67487   5.912   1.985   6.514 -0.1068 -0.2382  0.5596
  512MOL0     C67488   5.865   2.118   6.485  0.2709 -0.3554  0.6157
  512MOL0     C67489   5.746   2.099   6.383 -0.2073 -0.9737  0.7240
  512MOL0     C67490   5.615   2.049   6.460  0.5163  0.3771 -0.1613
  512MOL0     C67491   5.480   2.058   6.383 -0.0961 -0.0360  0.3916
  512MOL0     C67492   5.354   2.035   6.457  0.1195  0.5935  0.3273
  512MOL0     C67493   5.330   2.139   6.560  0.6474 -0.0247 -0.5297
  512MOL0     C67494   5.179   2.150   6.606  0.5041  0.0006 -0.2572
  512MOL0     C67495   5.120   2.011   6.644 -0.8801 -0.7714  0.0671
  512MOL0    Cl67496   5.206   1.947   6.789 -0.3164  0.2234 -0.4493
  512MOL0     C67497   6.111   1.852   6.472  0.1853 -0.2578  0.0975
  512MOL0     C67498   6.248   1.827   6.473  0.1289 -0.0510 -0.3525
  512MOL0     O67499   6.473   1.951   6.754  0.3772  0.3005  0.6017
  512MOL0     C67500   6.764   1.908   6.543  0.1936  0.0441  0.1074
  512MOL0     C67501   6.897   1.878   6.544 -0.9990  0.5905  1.3552
  512MOL0     N67502   7.362   1.297   6.847  0.2593  0.5873 -0.3672
  512MOL0     N67503   7.382   1.178   6.802  0.5559  0.0174  0.4120
  512MOL0     C67504   6.655   1.449   5.985  0.4199 -0.1753 -0.1598
  512MOL0     C67505   6.591   1.540   5.901 -0.2114  1.0328  0.7451
  512MOL0     C67506   6.236   1.747   5.719 -0.0403 -0.6247  0.5457
  512MOL0     C67507   6.097   1.776   5.697 -0.0936  0.0240 -0.4591
  512MOL0     C67508   6.055   1.848   5.586  0.3746  0.0516  0.7819
  512MOL0     C67509   6.145   1.885   5.484 -0.6090 -0.2315  0.8384
  512MOL0     O67510   6.092   1.945   5.369 -0.0510  0.2247 -0.6904
  512MOL0     C67511   6.184   2.047   5.321 -0.4384 -0.2993 -0.0239
  512MOL0     C67512   6.106   2.110   5.208  0.4099 -0.8389  0.0115
  512MOL0     C67513   6.140   2.256   5.180 -0.1939  0.2530 -0.0905
  512MOL0     C67514   6.063   2.321   5.062 -0.8566 -0.2385  0.0903
  512MOL0     C67515   6.072   2.275   4.920 -0.2848  1.1676  0.9124
  512MOL0     C67516   6.078   2.233   4.804 -0.1314  0.1782  0.2271
  512MOL0     C67517   6.282   1.846   5.506  0.3174 -0.2758 -0.6447
  512MOL0     C67518   6.322   1.784   5.618 -0.0222 -0.1395 -0.2868
  512MOL0     H67519   6.374   1.667   6.126  1.7347  1.5331  0.9795
  512MOL0     H67520   6.447   1.490   6.267 -0.6752 -1.2341 -0.2577
  512MOL0     H67521   6.865   1.364   6.159  2.0884 -1.7246  1.1548
  512MOL0     H67522   6.782   1.212   6.082  1.5061 -2.3302  1.4729
  512MOL0     H67523   6.791   1.105   6.268  0.1713 -0.2695 -0.4929
  512MOL0     H67524   6.793   1.246   6.375 -0.9070  3.7626 -1.8689
  512MOL0     H67525   7.029   1.288   6.288 -1.6635  0.8484 -2.1496
  512MOL0     H67526   7.003   1.146   6.178  0.0803  1.3584 -1.0429
  512MOL0     H67527   7.027   1.117   6.483 -1.4975 -2.4819  0.8665
  512MOL0     H67528   7.005   0.986   6.374  2.2735 -0.8484  1.2131
  512MOL0     H67529   7.224   1.040   6.262 -2.6699 -3.9899  0.2258
  512MOL0     H67530   7.225   0.987   6.429 -1.1800 -2.4250 -1.6832
  512MOL0     H67531   7.245   1.199   6.525 -0.2832  0.0989 -0.3820
  512MOL0     H67532   7.272   1.271   6.365 -1.0501 -1.3542 -1.2131
  512MOL0     H67533   7.461   1.055   6.378  2.8429 -0.7431  2.1900
  512MOL0     H67534   7.486   1.232   6.404  0.6920  0.0430  2.6893
  512MOL0     H67535   7.578   1.085   6.587  0.3969 -0.4976  1.6227
  512MOL0     H67536   7.408   1.011   6.605 -3.1129  2.9109  0.9922
  512MOL0     H67537   7.521   1.391   6.579  0.6637 -0.6603  0.3186
  512MOL0     H67538   7.470   1.584   6.863 -0.9170 -0.0003  1.1606
  512MOL0     H67539   7.300   1.545   6.881  0.2199 -0.9862  0.4323
  512MOL0     H67540   7.281   1.596   6.626 -0.0433  0.4339 -0.5497
  512MOL0     H67541   7.455   1.644   6.633 -1.3284  0.6630 -0.4884
  512MOL0     H67542   7.384   1.829   6.802 -0.1184  2.3042 -1.8786
  512MOL0     H67543   7.337   1.845   6.634  1.5367 -1.0801 -0.2976
  512MOL0     H67544   7.167   1.891   6.832  1.6998  2.1984 -2.9227
  512MOL0     H67545   7.138   1.711   6.828 -1.0683 -0.6042 -0.8916
  512MOL0     H67546   6.926   1.851   6.881  0.0026  0.6788  0.4471
  512MOL0     H67547   6.689   1.843   6.865  0.4508 -1.2342  0.0460
  512MOL0     H67548   6.352   2.134   6.575  1.4076 -0.9478 -1.1569
  512MOL0     H67549   6.105   2.177   6.550  2.1435 -0.3869  1.4015
  512MOL0     H67550   5.940   2.171   6.426  0.5505 -1.4420 -0.0277
  512MOL0     H67551   5.843   2.171   6.578 -0.3849 -2.2830  1.6186
  512MOL0     H67552   5.767   2.027   6.303  1.7751 -0.3453  0.6333
  512MOL0     H67553   5.718   2.196   6.341  3.4741  0.7612  1.9444
  512MOL0     H67554   5.606   2.102   6.556 -0.3256 -0.2699  0.1339
  512MOL0     H67555   5.630   1.941   6.470 -2.0032 -0.1467 -1.1141
  512MOL0     H67556   5.488   2.159   6.342  2.2696 -0.9709 -1.7129
  512MOL0     H67557   5.486   1.989   6.298  0.5040  1.5203 -0.8849
  512MOL0     H67558   5.356   1.937   6.504  0.8954 -0.2339 -1.3307
  512MOL0     H67559   5.272   2.028   6.385  0.8095  0.1070 -0.4269
  512MOL0     H67560   5.366   2.236   6.525 -0.5747  1.7512  2.6875
  512MOL0     H67561   5.387   2.097   6.643 -1.0485 -4.0244 -1.1557
  512MOL0     H67562   5.170   2.220   6.689  3.5748  0.0615  0.1247
  512MOL0     H67563   5.115   2.196   6.530 -1.6458 -1.6706  0.4260
  512MOL0     H67564   5.130   1.934   6.567  1.1914 -0.0164 -0.4956
  512MOL0     H67565   5.013   2.023   6.665 -1.4768  0.0632 -2.9231
  512MOL0     H67566   6.038   1.778   6.443  0.4746 -0.5235  0.0412
  512MOL0     H67567   6.289   1.729   6.449 -0.9207  0.0296 -2.7116
  512MOL0     H67568   6.734   1.928   6.440 -2.2250 -0.3172  0.6875
  512MOL0     H67569   6.954   1.872   6.451 -1.5485 -2.6788  1.1231
  512MOL0     H67570   6.730   1.392   5.931  0.6402  0.3746 -0.4398
  512MOL0     H67571   6.626   1.554   5.799 -0.7514 -0.6324  0.2950
  512MOL0     H67572   6.018   1.741   5.763  0.2758 -1.6196 -0.8523
  512MOL0     H67573   5.950   1.857   5.561  0.8503  1.8000 -0.8598
  512MOL0     H67574   6.281   2.008   5.289  0.1320  2.1236 -1.5744
  512MOL0     H67575   6.193   2.124   5.399  1.5469 -0.0711 -0.4242
  512MOL0     H67576   6.128   2.050   5.119 -0.5432  0.2189 -0.9594
  512MOL0     H67577   5.998   2.102   5.227  0.5836 -2.2024  0.6059
  512MOL0     H67578   6.250   2.261   5.175 -0.1747  2.8068  0.8979
  512MOL0     H67579   6.098   2.312   5.264 -1.5672  2.2152 -1.9687
  512MOL0     H67580   5.957   2.317   5.088 -1.5927 -0.2700 -2.6346
  512MOL0     H67581   6.089   2.428   5.056 -1.1416 -0.2205 -1.3424
  512MOL0     H67582   6.083   2.208   4.700  0.3373  0.5801  0.1522
  512MOL0     H67583   6.359   1.869   5.432  0.3221  0.8000 -0.3256
  512MOL0     H67584   6.427   1.762   5.630  0.4022  0.9033 -1.7848
  513MOL0     O67585   5.528   5.571   8.597  0.2560  0.0535  0.1201
  513MOL0     C67586   5.440   5.546   8.515  0.3223 -0.0689  0.8366
  513MOL0     O67587   5.451   5.472   8.398 -0.0425 -0.3946 -0.1422
  513MOL0     C67588   5.575   5.421   8.370  0.9229 -0.3100 -0.4585
  513MOL0     C67589   5.630   5.328   8.443 -0.2466 -0.5006  0.0262
  513MOL0     C67590   5.761   5.291   8.404  0.0819  0.3781  0.5331
  513MOL0     C67591   5.824   5.340   8.292 -0.5379 -0.2191  0.8331
  513MOL0     O67592   5.948   5.279   8.271 -0.2736 -0.5713 -0.0874
  513MOL0     C67593   5.994   5.265   8.130 -0.1053  0.0257 -0.1567
  513MOL0     C67594   6.124   5.188   8.152 -0.5254  1.1936 -0.5179
  513MOL0     C67595   6.256   5.256   8.206 -0.1893  0.7338 -0.5249
  513MOL0     C67596   6.368   5.154   8.192  0.3609  0.4109  0.0158
  513MOL0     C67597   6.499   5.219   8.221  0.5693  0.0834  0.1948
  513MOL0     C67598   6.605   5.112   8.200 -0.2679  0.1346  1.2628
  513MOL0     C67599   6.743   5.156   8.236  0.0633 -0.1317  0.9859
  513MOL0     C67600   6.755   5.173   8.386 -0.0068 -0.5333 -0.0100
  513MOL0     N67601   6.865   5.253   8.426 -0.0997  0.8164  0.5529
  513MOL0     C67602   6.991   5.256   8.377  0.0001 -0.2885 -0.0855
  513MOL0     C67603   7.064   5.337   8.462 -0.3646 -0.3346 -0.1551
  513MOL0     C67604   7.207   5.360   8.439 -0.4377 -0.2220  0.1613
  513MOL0     C67605   7.240   5.505   8.464  0.2949  0.0388  0.4923
  513MOL0     C67606   7.387   5.525   8.424  0.0070  0.5527  0.3570
  513MOL0     C67607   7.427   5.667   8.419  1.1047 -0.7589 -0.6682
  513MOL0     O67608   7.480   5.719   8.543  0.6667 -0.1164  0.8190
  513MOL0     C67609   7.616   5.704   8.568  1.3107 -0.5171 -0.4938
  513MOL0     C67610   7.704   5.622   8.503 -0.1205 -0.4281  0.0688
  513MOL0     C67611   7.835   5.621   8.550 -0.5514  0.3051 -0.3387
  513MOL0     C67612   7.876   5.676   8.675  0.7903 -0.6347  0.3046
  513MOL0     C67613   8.019   5.668   8.708 -0.4692  0.4429 -0.4914
  513MOL0     O67614   8.102   5.626   8.610 -0.9336  0.7943 -0.0888
  513MOL0     C67615   8.239   5.607   8.626 -0.6617  0.4578 -0.1334
  513MOL0     C67616   8.336   5.656   8.542 -0.1172  0.5210 -0.3711
  513MOL0     C67617   8.471   5.625   8.554  0.7214 -1.2534 -0.1845
  513MOL0     C67618   8.525   5.560   8.662 -0.4608 -0.8045  0.6812
  513MOL0     O67619   8.664   5.531   8.668  0.3054  0.0209 -0.3177
  513MOL0     C67620   8.739   5.577   8.783 -0.6079  0.5480  0.2378
  513MOL0     C67621   8.883   5.519   8.779  0.8697  0.1838  0.5719
  513MOL0     C67622   8.903   5.380   8.846 -0.0005  1.1540 -0.6465
  513MOL0     C67623   9.037   5.320   8.802 -1.0014 -0.6578  0.4401
  513MOL0     C67624   9.044   5.171   8.803 -0.5848 -0.0133  0.0651
  513MOL0     C67625   9.183   5.116   8.773 -0.0761  0.2045 -0.6400
  513MOL0     C67626   9.195   4.966   8.790  1.2328  0.5901 -0.6045
  513MOL0     C67627   9.333   4.906   8.821 -0.8069 -0.4527 -0.6757
  513MOL0    Cl67628   9.309   4.735   8.896  0.3548 -0.6007  0.1840
  513MOL0     C67629   8.427   5.515   8.756  0.4362  0.5880 -0.1961
  513MOL0     C67630   8.292   5.538   8.744  0.9401 -1.1578 -0.3014
  513MOL0     O67631   8.058   5.705   8.819 -1.3111 -0.9065  0.4156
  513MOL0     C67632   7.782   5.763   8.736  0.3139 -0.2681  0.7314
  513MOL0     C67633   7.657   5.775   8.684 -0.0458  0.0259  0.9859
  513MOL0     N67634   6.978   5.394   8.556  0.3394  0.2714 -0.1982
  513MOL0     N67635   6.867   5.334   8.536 -0.5512  1.3039  0.6212
  513MOL0     C67636   5.765   5.434   8.209 -0.5289 -0.0207 -0.0421
  513MOL0     C67637   5.636   5.475   8.251  0.1487 -0.0640 -1.1989
  513MOL0     C67638   5.308   5.591   8.545 -0.2429  0.2009 -0.1434
  513MOL0     C67639   5.292   5.719   8.615 -0.7128  0.3240  0.1937
  513MOL0     C67640   5.174   5.782   8.647  0.2970  0.2139  0.6150
  513MOL0     C67641   5.053   5.702   8.627 -0.4300 -0.2745 -0.7346
  513MOL0     O67642   4.922   5.744   8.651  0.2054  0.3969 -0.1045
  513MOL0     C67643   4.898   5.888   8.643 -0.5881 -0.5739  0.6043
  513MOL0     C67644   4.762   5.898   8.589 -0.1874  0.4772 -0.5154
  513MOL0     C67645   4.665   5.857   8.707 -0.9270  0.3170 -0.4716
  513MOL0     C67646   4.520   5.892   8.671  0.0226 -0.2257 -0.3675
  513MOL0     C67647   4.476   5.809   8.559 -0.6517 -0.4638 -0.2473
  513MOL0     C67648   4.430   5.735   8.476 -0.8617  1.2607  0.4047
  513MOL0     C67649   5.062   5.577   8.564  0.2333  0.1932 -0.0769
  513MOL0     C67650   5.184   5.519   8.530 -0.4321  0.6447  0.3696
  513MOL0     H67651   5.586   5.284   8.532 -1.9136  1.3654  0.1990
  513MOL0     H67652   5.812   5.218   8.466 -1.8713 -1.7160 -0.1876
  513MOL0     H67653   6.011   5.360   8.079 -1.7571  0.2139 -0.4123
  513MOL0     H67654   5.924   5.203   8.073 -0.9926  0.6129  0.2728
  513MOL0     H67655   6.140   5.128   8.062  0.1573  2.9404 -1.6217
  513MOL0     H67656   6.102   5.106   8.221 -1.2597  1.1827 -0.7651
  513MOL0     H67657   6.238   5.292   8.308  1.0681  2.0093 -0.7224
  513MOL0     H67658   6.278   5.352   8.158 -0.3599  1.7603  1.3333
  513MOL0     H67659   6.345   5.079   8.268  1.4218  0.2198  0.1619
  513MOL0     H67660   6.380   5.114   8.091  1.1387 -0.1391  0.3124
  513MOL0     H67661   6.500   5.259   8.323  1.7926  1.5740 -0.3687
  513MOL0     H67662   6.534   5.304   8.162 -0.2333  0.5767  0.4157
  513MOL0     H67663   6.591   5.066   8.102 -1.1840 -0.4236  1.6355
  513MOL0     H67664   6.583   5.019   8.255 -0.7324 -1.3631 -1.2725
  513MOL0     H67665   6.812   5.079   8.203  0.3124  0.7115 -0.5211
  513MOL0     H67666   6.767   5.253   8.191  0.1807 -0.2455  0.8031
  513MOL0     H67667   6.759   5.070   8.424 -5.8605 -1.8542 -1.9303
  513MOL0     H67668   6.668   5.217   8.434  1.0118 -0.5840  1.9652
  513MOL0     H67669   7.026   5.221   8.281 -1.7130  0.1459 -0.9045
  513MOL0     H67670   7.232   5.330   8.337 -1.6514 -1.8568  0.2989
  513MOL0     H67671   7.270   5.287   8.489 -1.6857 -2.2229 -1.0682
  513MOL0     H67672   7.225   5.535   8.568 -2.2106  2.1056 -0.3344
  513MOL0     H67673   7.175   5.575   8.409 -0.7768  0.6334  2.4375
  513MOL0     H67674   7.442   5.460   8.493 -2.4741 -2.2531 -0.1003
  513MOL0     H67675   7.400   5.482   8.324  2.6478  1.2230  0.3379
  513MOL0     H67676   7.338   5.722   8.386 -0.0766 -1.7795  0.6891
  513MOL0     H67677   7.505   5.681   8.343  4.5388  1.7261  2.9366
  513MOL0     H67678   7.677   5.576   8.409  0.4371 -0.1270 -0.2419
  513MOL0     H67679   7.910   5.561   8.500  0.6789  2.7071 -1.5230
  513MOL0     H67680   8.307   5.704   8.449  0.5462  1.1846 -0.2519
  513MOL0     H67681   8.542   5.649   8.476  1.3068 -3.8441 -0.5314
  513MOL0     H67682   8.691   5.554   8.878 -0.3807 -2.4455 -0.2575
  513MOL0     H67683   8.732   5.685   8.771 -2.1060  0.5861  1.2403
  513MOL0     H67684   8.949   5.595   8.821  0.7705  2.4577 -2.9914
  513MOL0     H67685   8.912   5.509   8.674  0.4983  2.8239  0.1616
  513MOL0     H67686   8.832   5.304   8.814  2.4652  0.2488 -4.7344
  513MOL0     H67687   8.908   5.395   8.954 -1.6343 -1.9091 -0.0668
  513MOL0     H67688   9.070   5.360   8.706  1.0689 -1.9069  0.5531
  513MOL0     H67689   9.117   5.356   8.868 -0.2718 -1.0751 -0.2036
  513MOL0     H67690   8.971   5.115   8.742  0.4119  0.3324 -1.5109
  513MOL0     H67691   9.023   5.143   8.907 -0.0723 -1.0027 -0.0773
  513MOL0     H67692   9.264   5.163   8.828  0.7914 -0.8974 -0.9375
  513MOL0     H67693   9.206   5.128   8.667 -0.1267  0.1581 -0.6570
  513MOL0     H67694   9.145   4.934   8.882  0.6023  0.7023 -0.9050
  513MOL0     H67695   9.153   4.906   8.710  2.2884 -2.5239  1.0100
  513MOL0     H67696   9.380   4.973   8.893  2.3582  0.3406 -3.2506
  513MOL0     H67697   9.384   4.907   8.725  0.1275 -1.4796 -0.2141
  513MOL0     H67698   8.455   5.457   8.843 -2.0348 -1.4699 -0.6629
  513MOL0     H67699   8.217   5.506   8.815 -2.9024  1.1827 -2.9770
  513MOL0     H67700   7.806   5.810   8.830  0.3213 -2.7265  2.0599
  513MOL0     H67701   7.589   5.843   8.734  0.0725  0.4333  0.5997
  513MOL0     H67702   5.803   5.469   8.113  3.8327 -2.6046  0.4545
  513MOL0     H67703   5.585   5.544   8.185 -0.1003 -0.3687 -1.3253
  513MOL0     H67704   5.379   5.782   8.631 -0.8872  0.6604 -0.1743
  513MOL0     H67705   5.169   5.883   8.689  0.3895  1.1239 -1.4593
  513MOL0     H67706   4.973   5.941   8.584  0.5904 -0.0933  2.4707
  513MOL0     H67707   4.907   5.939   8.739  3.1222 -1.3805  0.8072
  513MOL0     H67708   4.743   5.999   8.550 -0.4370  0.5374 -0.2377
  513MOL0     H67709   4.761   5.826   8.507  1.0675 -2.4674  1.8932
  513MOL0     H67710   4.693   5.916   8.794  1.1031 -0.0370 -0.8273
  513MOL0     H67711   4.668   5.749   8.726 -1.7299  0.3740  0.0486
  513MOL0     H67712   4.453   5.868   8.754 -3.7122 -1.2353 -3.3645
  513MOL0     H67713   4.510   5.999   8.656  0.6573 -0.1693 -0.4224
  513MOL0     H67714   4.398   5.656   8.411  2.6673 -1.4653  1.5964
  513MOL0     H67715   4.970   5.523   8.542  1.6860 -1.7930 -1.7170
  513MOL0     H67716   5.191   5.413   8.507  2.1444  0.8445 -0.0744
  514MOL0     O67717   6.608   1.292   8.976  0.0832  0.1613 -1.0451
  514MOL0     C67718   6.594   1.412   8.940  0.4822 -0.2485  0.0239
  514MOL0     O67719   6.469   1.476   8.942  0.5638 -0.5799  0.2422
  514MOL0     C67720   6.355   1.417   8.977  0.2863 -0.7113  0.2356
  514MOL0     C67721   6.326   1.298   9.038  0.3239 -0.2607 -0.5240
  514MOL0     C67722   6.208   1.257   9.088  0.0955  0.7685  0.4613
  514MOL0     C67723   6.096   1.332   9.064  0.5119 -0.9385 -0.3392
  514MOL0     O67724   5.968   1.301   9.107  0.5668  0.0024  0.1610
  514MOL0     C67725   5.930   1.187   9.182 -0.2450 -0.3223  0.5939
  514MOL0     C67726   5.782   1.193   9.213  0.2938 -0.2074  0.5536
  514MOL0     C67727   5.744   1.070   9.300 -0.2526  0.3136 -1.2382
  514MOL0     C67728   5.593   1.061   9.309 -0.2101 -0.0593  0.4635
  514MOL0     C67729   5.553   0.934   9.382  0.4429 -0.1562 -0.2709
  514MOL0     C67730   5.402   0.923   9.362 -0.0193  0.0772 -0.2666
  514MOL0     C67731   5.341   0.814   9.457 -0.2642  0.1378  0.8123
  514MOL0     C67732   5.301   0.874   9.588  0.5057 -0.7575  1.1152
  514MOL0     N67733   5.175   0.953   9.577  0.1214  0.1379 -0.1320
  514MOL0     C67734   5.158   1.080   9.631 -0.2417  0.2058  0.3407
  514MOL0     C67735   5.023   1.102   9.630 -0.2403 -0.9188  0.1801
  514MOL0     C67736   4.946   1.227   9.671 -0.3496 -0.5907  0.0048
  514MOL0     C67737   4.907   1.306   9.549  0.5456  0.0590  0.0572
  514MOL0     C67738   4.827   1.434   9.584  0.2135  0.7706  0.2211
  514MOL0     C67739   4.731   1.461   9.461  0.5237  0.0616 -0.4010
  514MOL0     O67740   4.807   1.499   9.346 -0.3098  0.2502  0.5758
  514MOL0     C67741   4.844   1.627   9.331 -0.0965 -0.2211  0.6925
  514MOL0     C67742   4.930   1.653   9.223  0.4652  0.7785 -0.1242
  514MOL0     C67743   4.990   1.771   9.201  0.0698  0.2821 -0.2657
  514MOL0     C67744   4.965   1.883   9.277 -0.8113  0.2916 -0.1385
  514MOL0     C67745   5.022   2.018   9.246 -0.0119 -0.7092 -0.1712
  514MOL0     O67746   5.104   2.025   9.133 -0.2925  0.6788  0.3413
  514MOL0     C67747   5.173   2.139   9.118  0.0259  1.2641  0.3344
  514MOL0     C67748   5.303   2.130   9.146  0.3053 -0.2385 -0.1762
  514MOL0     C67749   5.395   2.225   9.113 -0.2101 -0.3913  1.0613
  514MOL0     C67750   5.352   2.326   9.033  0.4301 -0.2909 -0.1215
  514MOL0     O67751   5.453   2.407   8.989  0.1478 -0.0511 -0.1812
  514MOL0     C67752   5.425   2.477   8.860  1.2289  0.9913 -0.4478
  514MOL0     C67753   5.556   2.546   8.804 -0.2734  0.6513  0.4472
  514MOL0     C67754   5.627   2.623   8.915  0.0277  0.6757 -0.2262
  514MOL0     C67755   5.723   2.723   8.846 -0.0592 -0.1921  0.0127
  514MOL0     C67756   5.810   2.794   8.950  0.0856  0.6335  0.2025
  514MOL0     C67757   5.928   2.864   8.876 -0.3646 -0.3026  0.4063
  514MOL0     C67758   5.877   2.997   8.805 -0.0422 -0.4622  0.3905
  514MOL0     C67759   5.987   3.077   8.743  0.7519 -0.2499 -0.5810
  514MOL0    Cl67760   5.919   3.206   8.651  0.1446  0.5391  0.0637
  514MOL0     C67761   5.211   2.341   9.000 -0.0321  0.1970 -0.0095
  514MOL0     C67762   5.127   2.248   9.045  0.3280  1.0913  0.8856
  514MOL0     O67763   4.993   2.112   9.320  0.5712 -0.0814 -0.3553
  514MOL0     C67764   4.867   1.864   9.376  0.1006  0.9192 -0.2397
  514MOL0     C67765   4.803   1.740   9.397 -0.1573 -0.2462 -0.4621
  514MOL0     N67766   4.960   0.991   9.586 -0.1041  0.0195 -0.9393
  514MOL0     N67767   5.051   0.904   9.561 -0.1835 -0.0153 -0.0028
  514MOL0     C67768   6.112   1.443   8.985 -0.0038 -1.1060  0.2831
  514MOL0     C67769   6.238   1.498   8.954 -0.9361  1.0917  0.7734
  514MOL0     C67770   6.723   1.484   8.912 -0.5759  0.2638 -0.2763
  514MOL0     C67771   6.718   1.620   8.866 -0.2433  0.2626  0.6350
  514MOL0     C67772   6.836   1.686   8.824 -0.2242  0.2660 -0.3099
  514MOL0     C67773   6.959   1.623   8.828  0.0667 -0.1616  0.3289
  514MOL0     O67774   7.067   1.691   8.786  0.3035 -0.0334  0.4449
  514MOL0     C67775   7.183   1.621   8.736 -0.8370 -0.1787  0.6468
  514MOL0     C67776   7.289   1.611   8.852 -0.1272 -0.4722  0.0461
  514MOL0     C67777   7.408   1.526   8.808  1.0529  0.1497 -1.3416
  514MOL0     C67778   7.507   1.500   8.923 -0.3597  0.2110  0.1738
  514MOL0     C67779   7.553   1.623   8.987  0.1164 -1.0717 -0.0457
  514MOL0     C67780   7.575   1.734   9.030 -0.0370 -0.2655 -0.0058
  514MOL0     C67781   6.957   1.487   8.873  0.2510  0.1679 -0.2147
  514MOL0     C67782   6.843   1.417   8.920  0.9079  0.1270 -0.5010
  514MOL0     H67783   6.407   1.229   9.059  0.6499  0.6867  1.5532
  514MOL0     H67784   6.190   1.164   9.141  0.0393 -0.1449 -1.1173
  514MOL0     H67785   5.988   1.186   9.275  0.5599 -0.4978  0.0999
  514MOL0     H67786   5.952   1.095   9.127  1.6842  1.0547 -1.1110
  514MOL0     H67787   5.716   1.198   9.126 -2.8383 -0.1029  2.7262
  514MOL0     H67788   5.756   1.288   9.262 -0.8788 -1.2993  2.1447
  514MOL0     H67789   5.796   1.089   9.394  0.3400  0.2483 -1.5475
  514MOL0     H67790   5.784   0.983   9.247  1.3431  2.4874 -3.8774
  514MOL0     H67791   5.553   1.142   9.371 -1.6372  0.3900 -0.9805
  514MOL0     H67792   5.542   1.062   9.212  0.2116 -2.2378  0.1755
  514MOL0     H67793   5.579   0.936   9.488 -1.2816  0.6725  0.1681
  514MOL0     H67794   5.597   0.841   9.342 -2.4924 -3.3214  3.0995
  514MOL0     H67795   5.378   0.885   9.262 -1.4698  2.2117 -0.7906
  514MOL0     H67796   5.359   1.023   9.361  0.3972  0.2776  0.6070
  514MOL0     H67797   5.250   0.765   9.422 -1.0009  0.6234  1.9681
  514MOL0     H67798   5.416   0.736   9.476  0.7115  0.6975 -0.6327
  514MOL0     H67799   5.379   0.936   9.632  0.4886 -0.9301  1.3972
  514MOL0     H67800   5.285   0.793   9.660  1.9232  0.0548  2.3862
  514MOL0     H67801   5.243   1.144   9.654  0.8876 -1.2287  0.2609
  514MOL0     H67802   4.999   1.286   9.747  1.2195 -1.7258 -0.1667
  514MOL0     H67803   4.860   1.190   9.728  1.3702 -1.0785  2.4508
  514MOL0     H67804   4.850   1.242   9.481 -1.3244  4.1542 -2.5462
  514MOL0     H67805   4.999   1.340   9.501 -0.0935  2.9607  0.7208
  514MOL0     H67806   4.762   1.421   9.670  0.4562 -3.4179  0.0053
  514MOL0     H67807   4.901   1.510   9.611  0.7007  0.5616 -0.4963
  514MOL0     H67808   4.661   1.537   9.495  1.5613  0.3135  1.3012
  514MOL0     H67809   4.659   1.380   9.446 -0.6604  0.6794  1.6573
  514MOL0     H67810   4.947   1.566   9.160  2.7343  0.1702  1.1894
  514MOL0     H67811   5.060   1.760   9.119 -0.2105 -1.3447 -0.3259
  514MOL0     H67812   5.324   2.035   9.194 -1.2049 -0.7625 -0.5055
  514MOL0     H67813   5.502   2.242   9.118 -0.1931  1.6353 -2.7022
  514MOL0     H67814   5.341   2.540   8.887  0.1302 -0.2756 -0.8049
  514MOL0     H67815   5.387   2.411   8.782 -0.4586  1.3299  0.0567
  514MOL0     H67816   5.534   2.608   8.717  0.8444  0.5851  0.1100
  514MOL0     H67817   5.621   2.462   8.780 -0.1682 -0.0534  2.8700
  514MOL0     H67818   5.670   2.552   8.987 -0.5256  0.9688  0.4005
  514MOL0     H67819   5.562   2.691   8.970 -2.6549 -0.8626 -1.3208
  514MOL0     H67820   5.796   2.669   8.785  1.6877 -0.1428  1.9456
  514MOL0     H67821   5.672   2.796   8.783 -0.7796  0.4620  1.3108
  514MOL0     H67822   5.860   2.715   9.007  0.6723  0.4829 -0.5037
  514MOL0     H67823   5.756   2.862   9.016  2.0106  1.7728  0.6862
  514MOL0     H67824   5.973   2.799   8.800  1.9509  1.8994 -0.2636
  514MOL0     H67825   6.004   2.890   8.950 -0.9310  0.1933  0.8196
  514MOL0     H67826   5.812   2.975   8.719  0.6065  2.1270 -0.8777
  514MOL0     H67827   5.832   3.063   8.879  0.5566 -2.0797  2.2753
  514MOL0     H67828   6.032   3.008   8.672  1.1103 -2.4216  1.6273
  514MOL0     H67829   6.059   3.105   8.820  1.0988 -0.3844 -0.8534
  514MOL0     H67830   5.172   2.425   8.944 -1.2532 -1.3350 -1.5521
  514MOL0     H67831   5.027   2.246   9.003  0.8902  0.8622 -0.5097
  514MOL0     H67832   4.853   1.948   9.443  2.4777  0.2263  1.2330
  514MOL0     H67833   4.736   1.746   9.482 -0.3149  1.2272 -0.6690
  514MOL0     H67834   6.018   1.491   8.961  0.4219  0.0675  0.9097
  514MOL0     H67835   6.246   1.581   8.884 -0.7308  0.0836 -0.4345
  514MOL0     H67836   6.631   1.685   8.874  0.5387  1.2285  1.7152
  514MOL0     H67837   6.842   1.791   8.799 -1.0183  0.8438  1.7182
  514MOL0     H67838   7.218   1.680   8.651 -0.7721 -0.1162  0.7170
  514MOL0     H67839   7.152   1.523   8.697  0.5785  0.6716 -2.9702
  514MOL0     H67840   7.334   1.709   8.876 -0.8659  0.4259 -2.0468
  514MOL0     H67841   7.243   1.569   8.942 -0.9239  1.8383  0.8107
  514MOL0     H67842   7.467   1.565   8.724  1.7568  2.7018  0.2301
  514MOL0     H67843   7.357   1.432   8.785 -0.5301  0.6627 -0.0619
  514MOL0     H67844   7.462   1.430   8.995  0.4391 -2.7801 -2.0128
  514MOL0     H67845   7.595   1.450   8.881 -0.8959 -1.8455  1.3322
  514MOL0     H67846   7.594   1.836   9.055 -1.3862  0.6928 -2.6336
  514MOL0     H67847   7.053   1.437   8.880  0.7028  1.1710  1.4180
  514MOL0     H67848   6.836   1.313   8.947  2.1064  0.3883  0.9124
  515MOL0     O67849   9.439   2.490   0.549 -0.2117 -0.5260  0.5461
  515MOL0     C67850   9.522   2.582   0.562 -0.2396 -0.8403 -0.4257
  515MOL0     O67851   9.515   2.686   0.645 -0.7753 -0.1302  0.0571
  515MOL0     C67852   9.392   2.721   0.696 -0.1820  0.4871 -0.4945
  515MOL0     C67853   9.388   2.741   0.833 -0.4910 -0.0890 -0.3463
  515MOL0     C67854   9.273   2.779   0.896 -0.4215  0.6706 -0.5929
  515MOL0     C67855   9.152   2.770   0.816  1.6808  0.7534 -0.7410
  515MOL0     O67856   9.040   2.791   0.893  0.6103  0.0911  0.7110
  515MOL0     C67857   8.915   2.780   0.828  0.4029 -0.3057 -0.3890
  515MOL0     C67858   8.812   2.794   0.939  0.4638  0.5806  0.2393
  515MOL0     C67859   8.659   2.779   0.893 -0.1728 -0.0022  0.6592
  515MOL0     C67860   8.621   2.637   0.852 -0.5520 -0.3467  0.2548
  515MOL0     C67861   8.477   2.610   0.819 -0.4795 -0.3285 -0.3737
  515MOL0     C67862   8.438   2.680   0.690 -0.3231 -0.8301  0.1571
  515MOL0     C67863   8.294   2.708   0.683  0.0739 -0.4629 -0.1439
  515MOL0     C67864   8.272   2.804   0.560 -0.3307 -0.7063  0.3455
  515MOL0     N67865   8.133   2.811   0.520  0.8555  0.0489  0.5689
  515MOL0     C67866   8.049   2.714   0.464 -0.0430  0.0273  0.2102
  515MOL0     C67867   7.940   2.793   0.443 -0.2139 -0.4168 -0.4321
  515MOL0     C67868   7.815   2.733   0.404 -0.0611 -0.1060  0.5322
  515MOL0     C67869   7.715   2.826   0.320  0.6507  0.0500 -0.1862
  515MOL0     C67870   7.600   2.752   0.259 -0.3552  0.7579  0.1477
  515MOL0     C67871   7.477   2.734   0.350 -0.0800 -0.0535 -0.1293
  515MOL0     O67872   7.370   2.715   0.259  0.8510 -1.4377 -0.6911
  515MOL0     C67873   7.251   2.686   0.325 -0.4092 -0.0788 -0.4979
  515MOL0     C67874   7.236   2.680   0.461  0.8658  0.1158  0.5635
  515MOL0     C67875   7.114   2.647   0.519  0.1289  0.8374 -0.3366
  515MOL0     C67876   7.009   2.626   0.436 -0.5925 -1.0771  1.0084
  515MOL0     C67877   6.874   2.610   0.495 -0.0109  0.2387  0.1648
  515MOL0     O67878   6.782   2.570   0.408  1.1201  0.3271  0.1250
  515MOL0     C67879   6.663   2.533   0.462  0.4364  0.0553 -0.2062
  515MOL0     C67880   6.561   2.596   0.396  0.3784 -1.1565 -0.2793
  515MOL0     C67881   6.424   2.570   0.426  0.3623 -0.4747 -0.5045
  515MOL0     C67882   6.391   2.483   0.531 -0.5187  0.1524 -0.1045
  515MOL0     O67883   6.256   2.455   0.550  0.5422 -0.0551 -0.3474
  515MOL0     C67884   6.214   2.375   0.670 -0.1488 -0.5493 -0.3348
  515MOL0     C67885   6.075   2.318   0.640  0.0839  1.0137  0.0011
  515MOL0     C67886   5.965   2.406   0.582  0.3624  0.4195 -0.2849
  515MOL0     C67887   5.852   2.319   0.523 -0.4465  0.3372  0.2067
  515MOL0     C67888   5.722   2.396   0.488 -1.2679  0.1970 -0.2664
  515MOL0     C67889   5.744   2.503   0.375  0.0659  0.2977 -0.2484
  515MOL0     C67890   5.807   2.446   0.248  0.5974  0.1277  0.4443
  515MOL0     C67891   5.749   2.509   0.126  1.2025 -0.9795  0.1498
  515MOL0    Cl67892   5.789   2.679   0.111 -0.3320 -0.2036 -0.4272
  515MOL0     C67893   6.497   2.420   0.600 -0.1648  0.1191  0.6107
  515MOL0     C67894   6.633   2.442   0.569  0.2843  0.3344 -0.0535
  515MOL0     O67895   6.866   2.640   0.614 -0.0435 -0.2782  0.3041
  515MOL0     C67896   7.020   2.631   0.297 -0.2159  0.0429 -0.4302
  515MOL0     C67897   7.141   2.663   0.241  0.6806 -0.3459 -0.7995
  515MOL0     N67898   7.937   2.913   0.511 -0.4549  0.4978  0.7468
  515MOL0     N67899   8.061   2.930   0.542 -0.2901  0.5916  0.0527
  515MOL0     C67900   9.153   2.753   0.677  0.6936  0.7783 -1.0447
  515MOL0     C67901   9.276   2.735   0.620  0.3427 -0.3730 -0.2877
  515MOL0     C67902   9.657   2.572   0.498  0.3051 -1.2789  0.0524
  515MOL0     C67903   9.746   2.678   0.476 -1.7238  0.7374  0.5950
  515MOL0     C67904   9.879   2.649   0.442  0.0054  0.5324  0.2711
  515MOL0     C67905   9.927   2.526   0.415  0.1652 -0.0070  0.2089
  515MOL0     O67906  10.056   2.504   0.371 -0.2995 -0.2170 -0.3628
  515MOL0     C67907  10.095   2.372   0.331 -0.3212  0.8304  0.6461
  515MOL0     C67908  10.135   2.286   0.452  0.0224 -0.7370  0.8160
  515MOL0     C67909  10.093   2.141   0.443  0.3369  0.5104  0.8429
  515MOL0     C67910  10.144   2.040   0.548  0.1132  0.2908  0.8317
  515MOL0     C67911  10.077   2.030   0.679  0.5374 -0.1036  0.2481
  515MOL0     C67912  10.030   2.040   0.794 -1.0014 -0.5582  1.1305
  515MOL0     C67913   9.834   2.419   0.419 -0.5496 -0.2219 -0.9872
  515MOL0     C67914   9.700   2.447   0.462 -0.4754  0.4719  0.1382
  515MOL0     H67915   9.480   2.739   0.891 -1.2545  1.7279  1.0201
  515MOL0     H67916   9.269   2.799   1.002 -2.2860 -2.5690  0.0991
  515MOL0     H67917   8.912   2.687   0.771  1.1704  0.0029 -0.9571
  515MOL0     H67918   8.898   2.866   0.762  0.4062 -0.2948 -0.3756
  515MOL0     H67919   8.825   2.895   0.978 -0.7287  0.5745  0.6781
  515MOL0     H67920   8.837   2.725   1.021 -3.1674  1.1093  1.9926
  515MOL0     H67921   8.648   2.849   0.809 -1.9277  0.4081  1.1845
  515MOL0     H67922   8.592   2.810   0.974  0.0019  2.0928  0.0801
  515MOL0     H67923   8.696   2.597   0.783  3.2796 -0.9427  4.3379
  515MOL0     H67924   8.639   2.584   0.945 -2.2474  1.5289  1.7608
  515MOL0     H67925   8.417   2.653   0.900 -0.0428  0.5140 -0.4894
  515MOL0     H67926   8.452   2.503   0.819  1.2873 -0.7916  0.2352
  515MOL0     H67927   8.481   2.624   0.606  1.6854 -1.6966  1.6617
  515MOL0     H67928   8.485   2.779   0.689 -0.7076 -0.6420  0.5312
  515MOL0     H67929   8.254   2.608   0.666  1.6096 -0.6331 -3.7948
  515MOL0     H67930   8.266   2.764   0.772 -2.0456 -0.6851 -0.6279
  515MOL0     H67931   8.330   2.758   0.479 -2.2425 -2.8291  0.0780
  515MOL0     H67932   8.318   2.903   0.573 -1.5749  0.1508 -1.4310
  515MOL0     H67933   8.070   2.611   0.437  1.5869  0.6354 -0.9462
  515MOL0     H67934   7.745   2.706   0.485 -3.1005  0.5285 -1.6914
  515MOL0     H67935   7.824   2.644   0.341 -1.7748  0.4226 -0.5393
  515MOL0     H67936   7.772   2.880   0.244  1.7562  0.2401  0.7547
  515MOL0     H67937   7.683   2.902   0.391  2.1507 -1.7790  2.6436
  515MOL0     H67938   7.579   2.799   0.162  1.0231  0.4196 -0.3507
  515MOL0     H67939   7.619   2.647   0.236 -2.4335  0.7821 -2.1087
  515MOL0     H67940   7.458   2.823   0.411  0.3009  0.7461 -1.1450
  515MOL0     H67941   7.493   2.646   0.412  0.3586 -0.8387 -1.3309
  515MOL0     H67942   7.312   2.700   0.536  0.4030  1.7976  0.6091
  515MOL0     H67943   7.105   2.637   0.627  1.7759  0.8241 -0.1639
  515MOL0     H67944   6.594   2.668   0.322 -0.6124  2.1215  2.2802
  515MOL0     H67945   6.349   2.637   0.383  0.6132  0.1976  0.0797
  515MOL0     H67946   6.210   2.426   0.767 -0.4673 -0.9289 -0.1462
  515MOL0     H67947   6.266   2.281   0.690 -1.0936 -1.1119 -0.4800
  515MOL0     H67948   6.040   2.268   0.731 -0.4775  1.2829 -0.0670
  515MOL0     H67949   6.093   2.234   0.572  0.9257  1.7838 -0.7511
  515MOL0     H67950   5.999   2.489   0.519  1.4505  1.2987  1.4059
  515MOL0     H67951   5.918   2.452   0.669 -3.4033 -1.0064 -1.3756
  515MOL0     H67952   5.896   2.266   0.438  2.6980 -0.1287  1.9432
  515MOL0     H67953   5.844   2.235   0.592  1.7507 -0.9208 -0.9324
  515MOL0     H67954   5.675   2.430   0.580 -2.4972 -2.7965  0.3394
  515MOL0     H67955   5.651   2.324   0.445 -0.0164 -2.0462  1.2018
  515MOL0     H67956   5.823   2.574   0.401 -0.2902  1.2791 -1.7030
  515MOL0     H67957   5.655   2.561   0.348 -1.1984 -0.2635  2.3165
  515MOL0     H67958   5.916   2.434   0.253  0.3397 -2.7639  1.0454
  515MOL0     H67959   5.775   2.341   0.251  1.0919 -0.0581 -0.4559
  515MOL0     H67960   5.640   2.511   0.117  1.1269  2.6634  0.2007
  515MOL0     H67961   5.787   2.466   0.033 -0.5705 -0.1240 -1.0056
  515MOL0     H67962   6.483   2.341   0.672 -0.7781 -0.4978 -0.1654
  515MOL0     H67963   6.712   2.389   0.620  2.3117  1.1695 -2.1464
  515MOL0     H67964   6.933   2.605   0.239 -0.6782  4.0279 -1.8440
  515MOL0     H67965   7.147   2.672   0.133 -3.3607  1.6269 -1.0198
  515MOL0     H67966   9.060   2.742   0.622  0.8377 -2.0025 -0.8803
  515MOL0     H67967   9.276   2.721   0.512 -0.5486  3.0687 -0.8535
  515MOL0     H67968   9.707   2.779   0.484 -1.5922  0.7693  0.8479
  515MOL0     H67969   9.941   2.737   0.451  0.4682  0.2891 -0.4633
  515MOL0     H67970  10.182   2.369   0.265 -1.4409  0.9032 -0.8960
  515MOL0     H67971  10.010   2.328   0.278  1.0079 -1.0779  0.0062
  515MOL0     H67972  10.241   2.301   0.474  0.0828  1.0260 -0.3985
  515MOL0     H67973  10.091   2.331   0.542  0.6579 -0.3785  0.9559
  515MOL0     H67974  10.132   2.106   0.346 -2.3283  2.8682 -1.2682
  515MOL0     H67975   9.984   2.137   0.432  0.3519 -0.7630  1.0199
  515MOL0     H67976  10.132   1.940   0.505 -0.4755  1.1057 -0.9732
  515MOL0     H67977  10.251   2.060   0.557  0.2243 -0.4271  1.1738
  515MOL0     H67978   9.992   2.074   0.888 -3.7042  2.0702 -0.7207
  515MOL0     H67979   9.850   2.313   0.405 -1.9699 -0.9393  1.9619
  515MOL0     H67980   9.636   2.360   0.470 -0.3048  0.3701  0.4278
  516MOL0     O67981  10.811   7.381  10.547  0.9146  0.0550  0.3016
  516MOL0     C67982  10.873   7.406  10.444  0.4430  0.9832  1.1285
  516MOL0     O67983  10.822   7.483  10.337 -0.1535  0.5534 -0.7912
  516MOL0     C67984  10.695   7.530  10.352  0.4646  0.4009  0.0679
  516MOL0     C67985  10.667   7.671  10.351  0.7486 -0.8177 -0.6506
  516MOL0     C67986  10.537   7.710  10.354  0.0011  0.0283  0.3601
  516MOL0     C67987  10.435   7.611  10.349  0.9120  0.1155 -0.0953
  516MOL0     O67988  10.313   7.672  10.334 -0.5510  0.3049 -0.1757
  516MOL0     C67989  10.201   7.624  10.399  0.2975 -0.0028  0.0908
  516MOL0     C67990  10.088   7.717  10.358 -0.7193 -0.3935 -0.7876
  516MOL0     C67991   9.953   7.686  10.425  0.4534  0.6122 -0.1794
  516MOL0     C67992   9.836   7.800  10.385 -0.4129 -0.7020  0.6049
  516MOL0     C67993   9.702   7.752  10.444  1.0155  0.9072 -0.0037
  516MOL0     C67994   9.597   7.872  10.435  0.0795 -0.2627 -0.3033
  516MOL0     C67995   9.458   7.830  10.485 -0.5045 -1.1135 -0.1856
  516MOL0     C67996   9.457   7.827  10.638  0.4246  0.2801 -0.3966
  516MOL0     N67997   9.340   7.756  10.689 -0.0385 -0.0896 -0.1292
  516MOL0     C67998   9.330   7.700  10.821 -0.1641  0.4224  0.7282
  516MOL0     C67999   9.199   7.675  10.843 -0.6024 -0.0546  0.3052
  516MOL0     C68000   9.127   7.622  10.966  0.7853  0.4804 -0.7301
  516MOL0     C68001   9.153   7.476  10.979  0.3522 -0.3877  0.5863
  516MOL0     C68002   9.049   7.399  11.059  0.0692  0.0105 -0.2440
  516MOL0     C68003   9.033   7.454  11.203  0.1797 -0.0848  0.0425
  516MOL0     O68004   8.912   7.541  11.212 -0.9487  0.2366  0.2978
  516MOL0     C68005   8.784   7.486  11.229 -0.6979 -0.4901 -0.7299
  516MOL0     C68006   8.760   7.351  11.229  0.6431 -0.2147  0.2482
  516MOL0     C68007   8.621   7.302  11.235  0.3187 -0.4824 -0.1808
  516MOL0     C68008   8.523   7.389  11.242  0.6723 -1.2689 -0.1352
  516MOL0     C68009   8.378   7.350  11.223 -1.0057 -0.2528  0.0690
  516MOL0     O68010   8.347   7.209  11.201  0.5507 -0.7016  0.3086
  516MOL0     C68011   8.216   7.170  11.203  0.1239  0.0730 -0.3551
  516MOL0     C68012   8.132   7.185  11.318 -0.2686  0.9444  0.4439
  516MOL0     C68013   8.002   7.134  11.323 -0.1925 -0.6733  0.0427
  516MOL0     C68014   7.941   7.088  11.196  0.0455 -0.3106  0.3314
  516MOL0     O68015   7.811   7.038  11.198  0.1138  0.5797  0.2106
  516MOL0     C68016   7.773   6.946  11.093 -0.0314  0.3813  0.5291
  516MOL0     C68017   7.633   6.896  11.141 -0.1710  0.5499  0.1162
  516MOL0     C68018   7.560   6.790  11.057  0.0284  0.4676  0.5820
  516MOL0     C68019   7.417   6.771  11.122  0.1490  0.4484 -0.1405
  516MOL0     C68020   7.345   6.654  11.063  0.1193  0.3943  0.7216
  516MOL0     C68021   7.193   6.647  11.066  0.3629  0.8840 -1.0297
  516MOL0     C68022   7.134   6.515  11.115 -0.2544 -0.3553 -1.1789
  516MOL0     C68023   6.988   6.523  11.095  0.0455 -0.7349 -0.4375
  516MOL0    Cl68024   6.948   6.352  11.128 -0.3902  0.1154  0.0783
  516MOL0     C68025   8.021   7.096  11.076  0.2368  0.5031  0.0641
  516MOL0     C68026   8.156   7.121  11.084  0.0734 -0.5056  0.1333
  516MOL0     O68027   8.288   7.437  11.224  0.1075  0.4941 -0.4060
  516MOL0     C68028   8.555   7.528  11.253  0.2016  0.4711 -0.2795
  516MOL0     C68029   8.678   7.581  11.242 -0.9797  0.1967  0.1579
  516MOL0     N68030   9.130   7.721  10.729  0.1141  0.2107 -0.1876
  516MOL0     N68031   9.212   7.765  10.640  0.2125  0.4449 -0.0852
  516MOL0     C68032  10.462   7.482  10.356  0.7166  0.0500 -0.7330
  516MOL0     C68033  10.591   7.435  10.355 -0.0882 -0.4899 -0.4578
  516MOL0     C68034  11.012   7.351  10.435 -0.7714 -0.2593  0.5087
  516MOL0     C68035  11.090   7.346  10.316  0.2571 -0.1501  0.0676
  516MOL0     C68036  11.219   7.292  10.314  1.1420 -0.4978  0.6900
  516MOL0     C68037  11.270   7.232  10.424  0.3734 -0.8536 -0.2611
  516MOL0     O68038  11.385   7.161  10.409 -0.3674 -0.6624 -0.5100
  516MOL0     C68039  11.480   7.191  10.509 -0.0066  0.5034  0.1220
  516MOL0     C68040  11.611   7.142  10.453 -0.9832  0.2584  0.8098
  516MOL0     C68041  11.725   7.151  10.545 -0.1003 -0.0067 -0.5372
  516MOL0     C68042  11.849   7.090  10.484  0.2135  0.3367  0.7348
  516MOL0     C68043  11.947   7.042  10.595 -0.0708 -0.3846  0.5590
  516MOL0     C68044  12.032   7.025  10.675 -0.2974  0.0542  0.4626
  516MOL0     C68045  11.193   7.235  10.544  0.4034  0.2255 -0.2183
  516MOL0     C68046  11.070   7.305  10.548  0.2881 -0.1262  0.3351
  516MOL0     H68047  10.751   7.740  10.347  0.1914  0.1790  2.3930
  516MOL0     H68048  10.518   7.817  10.356  2.3499  0.5771 -1.4172
  516MOL0     H68049  10.218   7.637  10.506 -2.9800 -1.7062  0.9621
  516MOL0     H68050  10.174   7.524  10.365 -1.8908  0.7213 -0.4167
  516MOL0     H68051  10.069   7.713  10.250 -0.6455  1.6036 -0.9133
  516MOL0     H68052  10.111   7.820  10.388 -2.5146  0.4932 -2.2600
  516MOL0     H68053   9.967   7.672  10.533 -0.8620  0.4155 -0.0177
  516MOL0     H68054   9.919   7.590  10.385  2.6313  0.5868 -2.1485
  516MOL0     H68055   9.873   7.893  10.431 -0.7479 -0.1122 -0.2921
  516MOL0     H68056   9.832   7.806  10.276 -0.5557 -0.4235  0.6227
  516MOL0     H68057   9.713   7.715  10.546 -2.5042  1.5557  0.7517
  516MOL0     H68058   9.659   7.678  10.376  2.7837  1.3637 -1.7042
  516MOL0     H68059   9.599   7.910  10.332  1.7152  0.5810  0.0166
  516MOL0     H68060   9.635   7.953  10.497 -0.1636 -0.8879  0.6801
  516MOL0     H68061   9.379   7.899  10.454 -0.3463 -1.0879 -0.5390
  516MOL0     H68062   9.421   7.740  10.434 -0.4677 -0.8556 -0.6785
  516MOL0     H68063   9.452   7.927  10.682 -2.1760 -0.5019  1.3195
  516MOL0     H68064   9.554   7.791  10.672  0.2679 -1.1936 -1.4000
  516MOL0     H68065   9.406   7.680  10.896  1.4544  2.6934 -0.1595
  516MOL0     H68066   9.020   7.641  10.966  1.2835  4.8682  3.0687
  516MOL0     H68067   9.168   7.677  11.051  3.1233 -2.6411  0.3527
  516MOL0     H68068   9.248   7.457  11.030  0.9566 -1.2220 -0.7888
  516MOL0     H68069   9.151   7.434  10.878 -0.2458  2.4880 -0.7074
  516MOL0     H68070   8.948   7.407  11.017  1.0273  3.0763 -2.3638
  516MOL0     H68071   9.088   7.297  11.060  2.4005  0.8381  0.8169
  516MOL0     H68072   9.126   7.499  11.237 -0.1283 -0.4669  1.4785
  516MOL0     H68073   9.028   7.365  11.267  0.1644  0.6510  1.0827
  516MOL0     H68074   8.825   7.264  11.240 -1.4514 -1.8283  0.5628
  516MOL0     H68075   8.590   7.198  11.231 -1.1872 -0.0626 -0.3207
  516MOL0     H68076   8.153   7.232  11.413 -1.6317 -1.3318  1.9809
  516MOL0     H68077   7.941   7.135  11.412 -1.0314  0.0340 -0.5176
  516MOL0     H68078   7.834   6.855  11.085 -2.9327 -1.9433  2.8463
  516MOL0     H68079   7.760   6.984  10.991  0.9731  3.6333  1.4919
  516MOL0     H68080   7.575   6.987  11.158 -0.5421  0.6143 -1.3252
  516MOL0     H68081   7.659   6.858  11.240  2.0945  3.5066  0.8265
  516MOL0     H68082   7.622   6.700  11.068 -3.4506 -2.4917 -1.8428
  516MOL0     H68083   7.566   6.815  10.951 -0.1915 -0.1069  0.4313
  516MOL0     H68084   7.422   6.753  11.230 -2.1255 -0.5966 -0.1499
  516MOL0     H68085   7.362   6.866  11.116 -0.2483  0.1357 -1.8931
  516MOL0     H68086   7.402   6.564  11.088  0.5133  0.4074 -0.1012
  516MOL0     H68087   7.368   6.663  10.956 -0.8543 -3.8307 -0.0362
  516MOL0     H68088   7.163   6.654  10.961  2.8250  2.2946 -1.7225
  516MOL0     H68089   7.155   6.731  11.126  2.8084 -0.2647  2.4785
  516MOL0     H68090   7.180   6.425  11.074 -1.1098 -1.5652  0.4112
  516MOL0     H68091   7.153   6.505  11.223 -2.3775 -3.5709 -0.9968
  516MOL0     H68092   6.965   6.550  10.991  3.9920  2.6795 -0.6813
  516MOL0     H68093   6.950   6.593  11.170  1.6452 -0.1189 -0.1631
  516MOL0     H68094   7.984   7.074  10.976 -1.2773  0.2724  0.6569
  516MOL0     H68095   8.214   7.109  10.993 -3.8912 -0.2134 -2.7036
  516MOL0     H68096   8.474   7.601  11.262 -0.7160 -0.5199 -0.2770
  516MOL0     H68097   8.707   7.685  11.236 -0.7787  0.0760 -1.5787
  516MOL0     H68098  10.389   7.402  10.348  1.4774 -0.6121 -1.2013
  516MOL0     H68099  10.598   7.328  10.340 -3.9981 -1.0197  0.4383
  516MOL0     H68100  11.039   7.378  10.226 -0.5758 -0.3921  0.4382
  516MOL0     H68101  11.267   7.290  10.217  0.0809  0.6362  0.1148
  516MOL0     H68102  11.455   7.147  10.606  0.8277 -1.5541 -0.5455
  516MOL0     H68103  11.490   7.299  10.523 -0.1571  0.9570 -2.7705
  516MOL0     H68104  11.597   7.038  10.420  1.2250  0.7025 -1.9168
  516MOL0     H68105  11.643   7.196  10.363  0.8709 -3.1230 -0.8058
  516MOL0     H68106  11.710   7.105  10.643  2.3525  2.3668  1.0977
  516MOL0     H68107  11.741   7.257  10.569 -0.4347  0.2998 -1.6257
  516MOL0     H68108  11.825   6.997  10.431  1.0816 -0.0859  1.0506
  516MOL0     H68109  11.889   7.162  10.413  1.2894 -0.0800  0.9042
  516MOL0     H68110  12.117   7.013  10.739  1.0012 -0.2396 -1.2568
  516MOL0     H68111  11.208   7.172  10.631 -1.8251  1.1964  0.9486
  516MOL0     H68112  11.017   7.297  10.642 -2.3793  0.5371 -1.0335
  517MOL0     O68113   9.303   6.186   4.260  0.2460 -0.6174  0.2410
  517MOL0     C68114   9.274   6.075   4.282 -0.1263 -0.3684 -0.1202
  517MOL0     O68115   9.372   5.975   4.306 -0.3157  0.1520  0.0260
  517MOL0     C68116   9.508   5.989   4.333 -0.7704  0.0879  0.9289
  517MOL0     C68117   9.597   5.889   4.292  0.2479 -0.2869 -0.2721
  517MOL0     C68118   9.732   5.901   4.331  0.1072  1.0512 -0.2970
  517MOL0     C68119   9.784   6.004   4.407  0.0480  0.7034 -0.5036
  517MOL0     O68120   9.909   5.998   4.458 -0.3229 -0.2463  0.2094
  517MOL0     C68121   9.997   6.112   4.434 -0.5613 -0.4292 -0.6758
  517MOL0     C68122  10.141   6.066   4.476  0.3270 -1.4817  0.0254
  517MOL0     C68123  10.214   5.973   4.378  0.6196  0.4917 -0.0613
  517MOL0     C68124  10.359   5.959   4.434  0.6668  0.0158  0.1219
  517MOL0     C68125  10.352   5.852   4.541 -0.3774 -0.1250 -0.2585
  517MOL0     C68126  10.493   5.836   4.612  0.9127 -0.5541  0.2895
  517MOL0     C68127  10.502   5.722   4.715  0.5983  0.2052 -0.6308
  517MOL0     C68128  10.389   5.722   4.828 -0.2788 -0.0070 -0.8181
  517MOL0     N68129  10.395   5.847   4.908  0.0406  0.1411 -0.2372
  517MOL0     C68130  10.313   5.956   4.899 -0.2747  0.1964  0.8344
  517MOL0     C68131  10.378   6.058   4.965 -0.1754 -0.4849 -0.0368
  517MOL0     C68132  10.342   6.201   4.976  0.6112 -0.0452 -0.4349
  517MOL0     C68133  10.385   6.287   4.855  0.3846  0.1283  0.9119
  517MOL0     C68134  10.342   6.437   4.867  0.6340 -0.1395 -0.4748
  517MOL0     C68135  10.189   6.456   4.900  0.6728 -0.4464  0.1011
  517MOL0     O68136  10.103   6.405   4.792 -0.4487 -0.0110  0.1120
  517MOL0     C68137   9.968   6.454   4.785  0.0230 -0.3139  0.3103
  517MOL0     C68138   9.900   6.515   4.884 -0.0302  0.7532  0.6474
  517MOL0     C68139   9.776   6.582   4.859 -0.7103  0.2826  0.1494
  517MOL0     C68140   9.713   6.569   4.736  0.1192 -0.1207 -0.4222
  517MOL0     C68141   9.572   6.619   4.719 -1.1896 -0.7938  0.0927
  517MOL0     O68142   9.505   6.557   4.626  0.3162  0.0153 -0.4673
  517MOL0     C68143   9.378   6.609   4.599 -0.8639  0.0519  1.1720
  517MOL0     C68144   9.369   6.676   4.483 -0.2144  0.6463  0.1281
  517MOL0     C68145   9.252   6.745   4.454  0.4903  0.1041 -0.8523
  517MOL0     C68146   9.139   6.742   4.539  0.0912  0.2743  0.2895
  517MOL0     O68147   9.019   6.800   4.515  0.0393  0.1069  1.2100
  517MOL0     C68148   8.999   6.899   4.400 -0.0045  0.7874 -1.0752
  517MOL0     C68149   8.885   6.999   4.430  1.1179 -0.3853 -1.3918
  517MOL0     C68150   8.747   6.927   4.394  0.5284 -0.2486 -0.5487
  517MOL0     C68151   8.630   7.012   4.444 -0.3017 -0.2044  0.2565
  517MOL0     C68152   8.500   6.981   4.379  0.5771 -0.3683 -0.1358
  517MOL0     C68153   8.477   6.829   4.390  0.2480  0.4093 -1.3338
  517MOL0     C68154   8.345   6.795   4.318 -0.0570  0.5169  0.2729
  517MOL0     C68155   8.379   6.737   4.179 -0.1351 -1.2074 -0.3175
  517MOL0    Cl68156   8.489   6.840   4.092 -0.0609 -0.2707 -0.6264
  517MOL0     C68157   9.145   6.656   4.648  0.2819  0.8616  0.6398
  517MOL0     C68158   9.267   6.593   4.683 -0.1879 -0.0043  0.7776
  517MOL0     O68159   9.529   6.702   4.802 -0.4729 -0.2419 -0.1021
  517MOL0     C68160   9.780   6.501   4.632 -0.1194  0.6156 -0.5267
  517MOL0     C68161   9.909   6.440   4.656  0.1506  0.6177  0.1107
  517MOL0     N68162  10.493   6.007   5.009 -0.5942 -0.0899  0.2164
  517MOL0     N68163  10.503   5.887   4.976  0.2615  0.5673  0.2434
  517MOL0     C68164   9.693   6.110   4.429 -0.2529  0.0997 -0.9252
  517MOL0     C68165   9.558   6.098   4.401 -0.0463 -0.4629 -0.3487
  517MOL0     C68166   9.134   6.046   4.312  0.1495  0.2871 -0.8431
  517MOL0     C68167   9.109   5.931   4.377  1.1608  0.4259 -0.1644
  517MOL0     C68168   8.979   5.884   4.405  0.3317 -0.6023  1.0058
  517MOL0     C68169   8.874   5.969   4.365  0.3476  0.4959 -0.5887
  517MOL0     O68170   8.740   5.943   4.381 -0.6632  0.3575  0.2321
  517MOL0     C68171   8.688   5.996   4.505  0.2881 -0.6138 -0.0150
  517MOL0     C68172   8.549   6.042   4.474  0.9047  0.9920 -0.0824
  517MOL0     C68173   8.471   5.928   4.421  0.4578  0.0993  0.0607
  517MOL0     C68174   8.320   5.944   4.413  0.0186 -0.8386  0.5797
  517MOL0     C68175   8.263   5.938   4.549 -0.4611  0.1202 -0.3881
  517MOL0     C68176   8.218   5.954   4.657  0.6254 -0.5530 -0.4284
  517MOL0     C68177   8.897   6.089   4.303  0.2015 -0.1153 -0.0542
  517MOL0     C68178   9.027   6.132   4.278  0.3243  0.3751 -0.6946
  517MOL0     H68179   9.564   5.805   4.232 -2.0948 -0.1307  0.7076
  517MOL0     H68180   9.802   5.824   4.298 -1.3395 -0.0450 -0.9026
  517MOL0     H68181   9.968   6.199   4.493  2.2767 -1.0052  1.8727
  517MOL0     H68182   9.994   6.138   4.328  0.7031  0.5146 -0.5013
  517MOL0     H68183  10.131   6.016   4.572  1.4755 -0.7979  0.5227
  517MOL0     H68184  10.193   6.162   4.483 -1.8040 -0.3529  1.7491
  517MOL0     H68185  10.218   6.002   4.272  1.1541  1.4464  0.2088
  517MOL0     H68186  10.163   5.877   4.387 -0.2497  0.9085 -0.3151
  517MOL0     H68187  10.427   5.927   4.355 -2.5299 -2.3195 -1.9723
  517MOL0     H68188  10.384   6.056   4.479 -0.6518  0.4950 -0.1135
  517MOL0     H68189  10.327   5.757   4.492  1.4106 -0.4260 -0.6893
  517MOL0     H68190  10.274   5.879   4.611 -1.3697 -2.9203 -0.1330
  517MOL0     H68191  10.517   5.926   4.669  2.2386  1.2683 -2.8932
  517MOL0     H68192  10.569   5.831   4.534  1.6190  1.3506  0.7865
  517MOL0     H68193  10.491   5.624   4.667 -2.8560 -0.3114  0.8777
  517MOL0     H68194  10.601   5.734   4.759  0.0642  3.0652 -0.0467
  517MOL0     H68195  10.392   5.631   4.888 -1.5748  0.1357 -0.5058
  517MOL0     H68196  10.287   5.730   4.790 -0.7312  0.4699  0.4367
  517MOL0     H68197  10.222   5.958   4.841  0.6478 -4.4385 -1.2480
  517MOL0     H68198  10.391   6.246   5.062  1.0827 -1.1885 -0.0979
  517MOL0     H68199  10.234   6.199   4.994  0.9046 -2.4607  1.5268
  517MOL0     H68200  10.340   6.247   4.764 -0.2201  1.6730  0.5012
  517MOL0     H68201  10.493   6.286   4.843  0.6838  2.4147  2.7249
  517MOL0     H68202  10.403   6.497   4.935  0.9769 -2.1843  1.1417
  517MOL0     H68203  10.376   6.486   4.776  1.4001  1.0477  0.4088
  517MOL0     H68204  10.193   6.565   4.906  2.4190 -0.4072 -1.1651
  517MOL0     H68205  10.178   6.405   4.996  1.4802 -0.9860 -0.0852
  517MOL0     H68206   9.950   6.536   4.978 -0.0782  3.0340  0.2183
  517MOL0     H68207   9.734   6.643   4.939 -1.2743 -0.9094  0.7913
  517MOL0     H68208   9.462   6.685   4.427 -0.5485  4.0026 -0.0952
  517MOL0     H68209   9.263   6.810   4.368 -2.0326  0.3987 -1.0446
  517MOL0     H68210   8.978   6.844   4.308 -1.3365 -1.4287  0.4392
  517MOL0     H68211   9.095   6.951   4.391 -0.1855  1.0936 -1.2498
  517MOL0     H68212   8.896   7.086   4.365  1.4063  0.2935 -0.4516
  517MOL0     H68213   8.891   7.031   4.534 -0.3354 -0.5534 -1.2448
  517MOL0     H68214   8.745   6.827   4.439 -0.3898  0.1982  0.4273
  517MOL0     H68215   8.749   6.909   4.286 -3.6829 -3.8771 -0.3492
  517MOL0     H68216   8.626   7.002   4.553  3.1449 -2.4220  0.3471
  517MOL0     H68217   8.659   7.116   4.429  3.1335 -1.0737 -0.1011
  517MOL0     H68218   8.506   7.013   4.274 -0.3745 -1.1125 -0.4277
  517MOL0     H68219   8.424   7.037   4.435  0.8425 -1.5859  1.5096
  517MOL0     H68220   8.465   6.800   4.495 -1.6043 -1.5052 -1.9957
  517MOL0     H68221   8.564   6.770   4.360 -0.2557  0.2208 -2.4666
  517MOL0     H68222   8.294   6.718   4.376 -0.5667 -0.7815 -1.8093
  517MOL0     H68223   8.275   6.879   4.322 -2.3490 -1.2678 -0.3372
  517MOL0     H68224   8.289   6.742   4.117 -0.1689  1.7538 -0.1624
  517MOL0     H68225   8.418   6.636   4.196 -0.2029 -1.2946 -0.6623
  517MOL0     H68226   9.063   6.636   4.717 -0.8424  1.6402 -0.4363
  517MOL0     H68227   9.276   6.532   4.772 -0.0434 -1.8196 -0.4345
  517MOL0     H68228   9.737   6.501   4.532 -0.6215 -1.9558 -0.3809
  517MOL0     H68229   9.968   6.414   4.569  1.5679 -0.1394  1.2646
  517MOL0     H68230   9.733   6.178   4.504  1.1410 -2.8844  1.2470
  517MOL0     H68231   9.486   6.171   4.437  1.6961 -0.0046  2.5825
  517MOL0     H68232   9.188   5.872   4.421 -0.0038 -0.4527  0.7978
  517MOL0     H68233   8.950   5.789   4.449 -0.9581 -0.5315  0.3479
  517MOL0     H68234   8.735   6.088   4.540  1.4109 -1.4110  0.6382
  517MOL0     H68235   8.682   5.918   4.581 -3.0118 -0.7220 -0.2514
  517MOL0     H68236   8.499   6.072   4.567 -0.5235  0.0284 -0.4976
  517MOL0     H68237   8.528   6.127   4.408 -2.6494  0.2257 -0.1622
  517MOL0     H68238   8.503   5.838   4.475  0.8407  1.8069  2.8227
  517MOL0     H68239   8.496   5.915   4.315 -0.2724  0.0601 -0.1156
  517MOL0     H68240   8.305   6.043   4.369  0.8102 -1.1168 -0.3291
  517MOL0     H68241   8.268   5.865   4.359  0.3926 -1.1308  0.6458
  517MOL0     H68242   8.160   5.968   4.746  0.5721 -1.9954 -0.2179
  517MOL0     H68243   8.814   6.157   4.286  0.5526  0.8618  1.8667
  517MOL0     H68244   9.031   6.224   4.222 -1.8318  0.4010 -0.8910
  518MOL0     O68245  10.115   6.032   2.041 -0.2393 -0.3691 -0.4990
  518MOL0     C68246  10.195   6.131   2.042  0.0044  0.3618  0.1614
  518MOL0     O68247  10.156   6.257   2.006  0.1868 -0.6470 -0.1636
  518MOL0     C68248  10.017   6.270   1.981  0.0838 -0.3470 -0.2735
  518MOL0     C68249   9.938   6.280   2.098  0.7533 -0.4621 -1.1275
  518MOL0     C68250   9.785   6.274   2.091 -0.3525 -1.2762 -0.0881
  518MOL0     C68251   9.728   6.278   1.967 -0.3220  0.5023  0.2755
  518MOL0     O68252   9.591   6.273   1.945  0.7208  0.0509 -0.8988
  518MOL0     C68253   9.543   6.151   1.999  0.5699 -0.1087  0.6199
  518MOL0     C68254   9.399   6.114   1.953 -0.4552 -0.3910 -0.6322
  518MOL0     C68255   9.383   6.105   1.798  0.9981  0.2645 -0.6914
  518MOL0     C68256   9.241   6.139   1.755 -0.2536 -0.2753 -0.5020
  518MOL0     C68257   9.132   6.029   1.779 -0.1579 -0.4512 -0.5267
  518MOL0     C68258   9.150   5.897   1.690 -0.2370 -0.5917  0.1992
  518MOL0     C68259   9.016   5.816   1.705  0.5259 -0.1249  0.1211
  518MOL0     C68260   8.910   5.865   1.597  0.1880  0.4909 -0.2488
  518MOL0     N68261   8.839   5.744   1.559 -0.3695 -1.0228  0.4170
  518MOL0     C68262   8.871   5.663   1.446 -0.8597  0.0585 -0.5994
  518MOL0     C68263   8.766   5.569   1.444  0.0028 -0.1578  0.3519
  518MOL0     C68264   8.737   5.485   1.325  0.3186 -0.1242  0.2107
  518MOL0     C68265   8.619   5.378   1.356 -0.4624  0.0615  0.4284
  518MOL0     C68266   8.485   5.434   1.364 -0.0449  0.7395 -0.6445
  518MOL0     C68267   8.370   5.334   1.358 -1.2187 -0.1298  0.5334
  518MOL0     O68268   8.358   5.271   1.233 -0.1001  0.2651 -0.1132
  518MOL0     C68269   8.231   5.229   1.209  0.4262 -0.6251  0.9890
  518MOL0     C68270   8.135   5.303   1.127  0.9734  0.3903 -0.1770
  518MOL0     C68271   8.013   5.249   1.093 -0.4141  0.8331 -0.2429
  518MOL0     C68272   7.986   5.110   1.130 -0.5831  0.4809 -0.3419
  518MOL0     C68273   7.848   5.051   1.095 -0.4008  0.4139  0.5921
  518MOL0     O68274   7.772   5.141   1.019  0.0803 -0.1009  0.0463
  518MOL0     C68275   7.649   5.088   0.985  0.4066 -0.5279 -0.0305
  518MOL0     C68276   7.621   5.059   0.850 -0.7342 -0.5152  0.1067
  518MOL0     C68277   7.494   5.025   0.801 -0.5753  1.3423  0.4977
  518MOL0     C68278   7.391   5.018   0.894 -0.6105  0.2313  0.2041
  518MOL0     O68279   7.260   4.986   0.867  0.0964  0.5135  0.1570
  518MOL0     C68280   7.233   4.958   0.726  0.0672  0.3698  0.6488
  518MOL0     C68281   7.089   4.961   0.694 -1.1813  0.0323  0.4946
  518MOL0     C68282   7.051   5.001   0.561  0.0476  0.2042  0.4085
  518MOL0     C68283   6.895   4.998   0.547  0.2610  0.8813 -1.4387
  518MOL0     C68284   6.859   5.094   0.441 -0.1090 -0.3260 -0.1366
  518MOL0     C68285   6.709   5.079   0.419  0.3993 -0.0783 -0.6460
  518MOL0     C68286   6.671   5.154   0.292 -0.3595 -0.4347  0.4324
  518MOL0     C68287   6.531   5.113   0.248 -0.0666  1.0838 -0.0075
  518MOL0    Cl68288   6.527   4.944   0.192  0.2845  0.0172 -0.3678
  518MOL0     C68289   7.416   5.037   1.035  0.2731 -0.1014  0.2428
  518MOL0     C68290   7.548   5.072   1.079 -0.3916  0.2006 -0.3765
  518MOL0     O68291   7.810   4.942   1.145  0.3964  0.1118  0.2486
  518MOL0     C68292   8.087   5.042   1.197 -0.8839  0.3482 -0.3978
  518MOL0     C68293   8.207   5.099   1.238 -0.1323 -0.3646  0.3022
  518MOL0     N68294   8.708   5.571   1.567  0.1056 -0.0271  0.0136
  518MOL0     N68295   8.749   5.683   1.632  0.4363  0.7772  0.9185
  518MOL0     C68296   9.813   6.269   1.852  0.2139 -1.1254  0.9265
  518MOL0     C68297   9.952   6.270   1.861  0.1535 -0.8647  0.6825
  518MOL0     C68298  10.334   6.104   2.078 -0.1158  0.1100 -0.7647
  518MOL0     C68299  10.434   6.182   2.032 -0.1150  0.2332 -0.3717
  518MOL0     C68300  10.572   6.152   2.057  0.4216 -0.9869  0.0913
  518MOL0     C68301  10.603   6.043   2.140  0.2633 -0.6056  0.5589
  518MOL0     O68302  10.727   6.003   2.183  0.1984 -0.3610 -0.1365
  518MOL0     C68303  10.832   6.097   2.139 -0.9367  0.9414  0.2562
  518MOL0     C68304  10.962   6.035   2.190  0.2110  0.0718 -0.4712
  518MOL0     C68305  11.011   5.910   2.116  1.0254 -0.4651 -0.3014
  518MOL0     C68306  11.121   5.862   2.214  0.0311 -0.6538 -0.4525
  518MOL0     C68307  11.171   5.730   2.172  0.4226 -0.0963 -0.1552
  518MOL0     C68308  11.205   5.616   2.136 -0.1942 -0.3428  0.4513
  518MOL0     C68309  10.502   5.960   2.177 -0.5970  0.6129  0.6290
  518MOL0     C68310  10.368   5.984   2.142 -0.9833 -0.0745 -0.5887
  518MOL0     H68311   9.995   6.284   2.189 -2.1349 -1.4081  0.8777
  518MOL0     H68312   9.720   6.269   2.177 -2.3508  1.4402 -1.2906
  518MOL0     H68313   9.536   6.157   2.108  0.8459 -3.2298  0.9152
  518MOL0     H68314   9.622   6.080   1.971 -0.0982 -1.3594  1.8291
  518MOL0     H68315   9.322   6.189   1.975 -0.7331 -0.4171 -1.4660
  518MOL0     H68316   9.381   6.018   2.002 -1.6424 -0.0326 -0.3318
  518MOL0     H68317   9.403   6.002   1.764  0.5770  0.7883 -2.6711
  518MOL0     H68318   9.456   6.170   1.748  1.3420  0.6010  0.2330
  518MOL0     H68319   9.204   6.234   1.795 -1.0225 -0.2472 -1.2541
  518MOL0     H68320   9.245   6.144   1.646 -2.9343 -2.2019 -0.7884
  518MOL0     H68321   9.028   6.062   1.772 -0.7615 -2.5747 -4.1653
  518MOL0     H68322   9.138   5.998   1.884  3.1873  1.0610 -0.1475
  518MOL0     H68323   9.232   5.833   1.725  0.6887  0.4635  0.0171
  518MOL0     H68324   9.167   5.920   1.585 -3.5006 -0.9539 -0.4967
  518MOL0     H68325   9.032   5.710   1.685 -2.4614 -0.5859 -0.2519
  518MOL0     H68326   8.975   5.819   1.806  2.6964 -1.1271  1.0983
  518MOL0     H68327   8.973   5.893   1.512 -0.9780 -1.0738 -1.6931
  518MOL0     H68328   8.842   5.937   1.643 -2.0965 -1.7495  0.1366
  518MOL0     H68329   8.933   5.687   1.361  0.5262 -2.4790 -0.4028
  518MOL0     H68330   8.824   5.419   1.314  2.2905  1.6441  3.5458
  518MOL0     H68331   8.711   5.549   1.240  0.2188 -0.3509  0.0722
  518MOL0     H68332   8.633   5.326   1.451 -1.7055 -0.2507  0.4495
  518MOL0     H68333   8.606   5.292   1.291 -4.1923 -0.6510  1.8732
  518MOL0     H68334   8.481   5.482   1.462  1.7169  1.7069 -1.0124
  518MOL0     H68335   8.474   5.501   1.278  2.8344  0.6799 -1.1376
  518MOL0     H68336   8.284   5.398   1.377 -2.3555 -2.2424  2.9854
  518MOL0     H68337   8.366   5.258   1.436 -3.9511 -0.6001  0.0256
  518MOL0     H68338   8.160   5.407   1.109  3.3478  0.0537  0.7498
  518MOL0     H68339   7.935   5.311   1.049  0.0689  3.1487  1.8916
  518MOL0     H68340   7.701   5.065   0.776  0.7595 -1.6319  1.5527
  518MOL0     H68341   7.476   5.014   0.695 -0.0288  1.1590  0.4235
  518MOL0     H68342   7.279   4.861   0.704  0.4960  0.3658  1.5225
  518MOL0     H68343   7.274   5.030   0.655  0.4787 -1.8783 -1.5436
  518MOL0     H68344   7.042   5.033   0.763  1.1057  2.2436 -0.1082
  518MOL0     H68345   7.055   4.859   0.716 -0.2055 -0.1419  1.2212
  518MOL0     H68346   7.109   4.937   0.493 -0.9830 -1.1786  0.7797
  518MOL0     H68347   7.086   5.104   0.551  0.7104 -0.1001 -0.6933
  518MOL0     H68348   6.868   4.894   0.526  0.1045  0.1513  1.7985
  518MOL0     H68349   6.841   5.036   0.634 -2.2883 -1.0887 -2.0287
  518MOL0     H68350   6.900   5.063   0.344 -1.7603  0.0127 -0.9780
  518MOL0     H68351   6.883   5.198   0.469  1.6713 -1.2167  1.9802
  518MOL0     H68352   6.642   5.121   0.495 -2.0714 -2.2492 -1.4756
  518MOL0     H68353   6.689   4.972   0.407  3.0242 -0.6587 -0.4465
  518MOL0     H68354   6.671   5.263   0.306 -0.1964 -0.7092  3.1380
  518MOL0     H68355   6.735   5.131   0.207  1.1072 -1.6566  1.8062
  518MOL0     H68356   6.482   5.167   0.167  1.4724 -1.0563 -2.5219
  518MOL0     H68357   6.465   5.129   0.334 -0.8573 -2.2017  0.1572
  518MOL0     H68358   7.334   5.013   1.103 -1.9284  1.7216 -1.6138
  518MOL0     H68359   7.576   5.072   1.184 -2.1164 -3.3914  0.2310
  518MOL0     H68360   8.068   4.936   1.211 -0.1243 -0.0256 -1.9749
  518MOL0     H68361   8.275   5.035   1.292  0.8103  0.0542 -0.3601
  518MOL0     H68362   9.758   6.266   1.759 -1.4196  2.0364  1.6366
  518MOL0     H68363  10.023   6.268   1.779  0.8839  2.0528  1.1129
  518MOL0     H68364  10.405   6.274   1.981 -0.8352  0.1000 -0.2135
  518MOL0     H68365  10.651   6.216   2.018  0.1846 -0.8100 -0.0965
  518MOL0     H68366  10.814   6.194   2.186  0.4405  0.7467  1.2790
  518MOL0     H68367  10.829   6.111   2.031  0.4857  1.0797  0.2103
  518MOL0     H68368  11.038   6.113   2.182 -0.9696  1.4345  0.7885
  518MOL0     H68369  10.958   6.023   2.298  0.8671  0.4203 -0.4034
  518MOL0     H68370  11.055   5.931   2.018  1.8462 -1.4853 -0.1779
  518MOL0     H68371  10.929   5.838   2.108  0.9337 -0.3470 -0.4248
  518MOL0     H68372  11.205   5.931   2.201  0.0455 -0.4435  0.6327
  518MOL0     H68373  11.072   5.869   2.312  0.3800 -0.9469 -0.2559
  518MOL0     H68374  11.235   5.525   2.089 -0.3450 -1.2868  2.1503
  518MOL0     H68375  10.536   5.873   2.231  2.6535 -1.5872 -4.2825
  518MOL0     H68376  10.282   5.927   2.177 -0.8096  0.6097  1.0066
  519MOL0     O68377   6.615   6.654   1.549  0.1246  0.7602  0.1944
  519MOL0     C68378   6.660   6.553   1.594 -0.4915 -0.6666 -0.3306
  519MOL0     O68379   6.596   6.455   1.650 -0.0762 -0.2055  0.7675
  519MOL0     C68380   6.455   6.448   1.662  1.1608 -0.5687 -0.4470
  519MOL0     C68381   6.361   6.501   1.578 -0.1799 -0.0420  0.2722
  519MOL0     C68382   6.232   6.466   1.589  0.1207  0.3455  0.7866
  519MOL0     C68383   6.188   6.390   1.696  0.3958  0.6286  0.1411
  519MOL0     O68384   6.047   6.375   1.710 -0.4329  0.0761 -0.1408
  519MOL0     C68385   5.975   6.320   1.595 -0.1227 -1.1315 -1.0755
  519MOL0     C68386   5.838   6.260   1.649 -0.0252 -0.0242  0.4587
  519MOL0     C68387   5.737   6.358   1.701 -0.6484 -0.5853  0.3468
  519MOL0     C68388   5.597   6.297   1.740  0.0104  0.6366  0.3275
  519MOL0     C68389   5.528   6.270   1.614  0.5933 -0.7727  0.1958
  519MOL0     C68390   5.399   6.183   1.651 -0.5354 -0.5200  0.3833
  519MOL0     C68391   5.277   6.278   1.663  0.0753  0.5315  0.7241
  519MOL0     C68392   5.157   6.195   1.711 -0.5557  0.7676  0.7001
  519MOL0     N68393   5.041   6.282   1.739 -0.4861 -0.4111  0.4016
  519MOL0     C68394   5.018   6.379   1.838 -0.7670  0.1579  0.4750
  519MOL0     C68395   4.899   6.436   1.792  0.2985 -0.2292 -1.1192
  519MOL0     C68396   4.837   6.553   1.854 -0.2110 -0.5093 -0.5252
  519MOL0     C68397   4.800   6.664   1.759  0.3223 -0.5924 -0.2792
  519MOL0     C68398   4.667   6.646   1.685 -0.4613 -0.0551 -0.3323
  519MOL0     C68399   4.546   6.660   1.774 -0.6480  0.5287  0.4524
  519MOL0     O68400   4.427   6.659   1.692 -0.4141  0.0761 -0.3777
  519MOL0     C68401   4.312   6.712   1.739  0.4125 -0.2366 -0.5864
  519MOL0     C68402   4.212   6.719   1.652 -0.5685  0.5029 -0.3375
  519MOL0     C68403   4.080   6.760   1.687  0.1275  0.1283 -0.3987
  519MOL0     C68404   4.062   6.802   1.818 -0.2249  0.3112  0.2070
  519MOL0     C68405   3.929   6.844   1.867  0.0924 -0.0490  0.8746
  519MOL0     O68406   3.867   6.954   1.814 -0.5965 -0.4429  0.2944
  519MOL0     C68407   3.751   7.001   1.861  0.5443  0.1786 -0.7814
  519MOL0     C68408   3.755   7.138   1.881 -0.6301 -0.1491 -0.5774
  519MOL0     C68409   3.654   7.202   1.942 -0.4863 -0.1537 -0.2522
  519MOL0     C68410   3.535   7.135   1.970  0.3101 -0.6966 -0.2900
  519MOL0     O68411   3.423   7.201   2.015 -0.1358  0.5548  0.3042
  519MOL0     C68412   3.408   7.342   1.996 -0.7792 -0.3789 -0.8569
  519MOL0     C68413   3.278   7.371   2.065  0.0483 -0.5045  0.3660
  519MOL0     C68414   3.242   7.521   2.024  0.4592 -0.1292 -1.1215
  519MOL0     C68415   3.100   7.557   2.083 -0.9907  0.3837  0.1363
  519MOL0     C68416   3.072   7.700   2.118  0.0720 -0.1525 -0.2663
  519MOL0     C68417   3.128   7.742   2.258  0.4628 -0.6170 -0.5498
  519MOL0     C68418   3.154   7.889   2.253 -0.0795  0.4740  0.4940
  519MOL0     C68419   3.027   7.972   2.204 -0.3801 -0.4004 -0.5487
  519MOL0    Cl68420   3.064   8.158   2.228  0.0585 -0.0727 -0.6196
  519MOL0     C68421   3.528   7.001   1.956 -0.2124 -0.5268 -0.3253
  519MOL0     C68422   3.637   6.928   1.903  0.4755 -0.3597  0.5383
  519MOL0     O68423   3.899   6.786   1.967  0.6566 -0.0667  0.6155
  519MOL0     C68424   4.169   6.795   1.914 -0.8923  0.5911  0.2700
  519MOL0     C68425   4.293   6.740   1.871  0.2550  0.3063 -0.0461
  519MOL0     N68426   4.851   6.367   1.687  0.3310  0.1115  0.0369
  519MOL0     N68427   4.927   6.270   1.664 -0.2844  0.5154  0.2995
  519MOL0     C68428   6.275   6.338   1.785  0.4283 -1.5125  0.9442
  519MOL0     C68429   6.413   6.360   1.759  0.1838 -0.3412 -0.8456
  519MOL0     C68430   6.811   6.537   1.582  0.9356  0.2689 -0.1489
  519MOL0     C68431   6.897   6.641   1.554 -0.2782 -0.1627  0.1381
  519MOL0     C68432   7.031   6.621   1.531 -0.8269 -1.4649 -0.1648
  519MOL0     C68433   7.085   6.496   1.563  0.2717  0.1947 -0.0019
  519MOL0     O68434   7.227   6.471   1.558  1.1339 -0.3425  0.2518
  519MOL0     C68435   7.313   6.575   1.519  0.3744 -0.3682  1.1402
  519MOL0     C68436   7.340   6.675   1.630 -1.1712  0.0747 -0.0794
  519MOL0     C68437   7.457   6.777   1.592 -0.1813  0.2334 -0.4313
  519MOL0     C68438   7.446   6.904   1.670 -0.1576 -0.8830  0.4770
  519MOL0     C68439   7.569   6.981   1.669  0.5283  0.3334  0.1597
  519MOL0     C68440   7.674   7.042   1.681 -0.3829  1.3025 -0.8117
  519MOL0     C68441   7.002   6.389   1.594  0.0119  0.7436 -1.3055
  519MOL0     C68442   6.863   6.407   1.599 -0.5965 -0.4396 -0.5773
  519MOL0     H68443   6.390   6.585   1.515 -1.2661  0.5192  0.4984
  519MOL0     H68444   6.150   6.506   1.530 -1.8288 -0.5249  2.7643
  519MOL0     H68445   6.035   6.243   1.546  0.9708  1.0539 -3.3333
  519MOL0     H68446   5.958   6.401   1.524 -0.7189  2.0890  2.3723
  519MOL0     H68447   5.874   6.206   1.737 -1.3516 -0.7043  0.5958
  519MOL0     H68448   5.801   6.180   1.585  1.5890  0.4845 -1.2165
  519MOL0     H68449   5.719   6.435   1.625 -0.8833 -0.5194  0.4667
  519MOL0     H68450   5.771   6.408   1.793  1.1865 -1.5021  0.1964
  519MOL0     H68451   5.609   6.202   1.794  0.0752  1.5202  1.9292
  519MOL0     H68452   5.538   6.362   1.804 -0.8391 -0.3028  0.5258
  519MOL0     H68453   5.588   6.203   1.552  2.1557  2.0562 -1.5537
  519MOL0     H68454   5.495   6.364   1.568 -1.2254 -0.5987  1.7415
  519MOL0     H68455   5.422   6.119   1.737  0.3233 -1.8275 -0.7773
  519MOL0     H68456   5.367   6.125   1.564  2.6168  0.6367 -1.6940
  519MOL0     H68457   5.290   6.349   1.745  2.0275  0.3591  0.6032
  519MOL0     H68458   5.255   6.324   1.567  1.3379 -4.6495 -2.4454
  519MOL0     H68459   5.180   6.133   1.798  1.8693  1.9480  0.9978
  519MOL0     H68460   5.137   6.140   1.619 -0.0863  5.1477 -2.3534
  519MOL0     H68461   5.077   6.413   1.923 -1.8316  1.2553  0.7950
  519MOL0     H68462   4.911   6.606   1.914  0.0907 -0.3540 -1.0311
  519MOL0     H68463   4.751   6.536   1.920 -0.8440  2.1135 -0.5799
  519MOL0     H68464   4.878   6.669   1.683 -0.6773 -2.1256 -1.4537
  519MOL0     H68465   4.794   6.762   1.808  0.1380 -0.6088 -0.2657
  519MOL0     H68466   4.655   6.719   1.605  0.1456 -0.1634 -0.5297
  519MOL0     H68467   4.664   6.546   1.640 -1.9747 -0.4302  0.5323
  519MOL0     H68468   4.550   6.750   1.835  1.2328  0.4849  0.4310
  519MOL0     H68469   4.526   6.571   1.836 -0.5679 -1.2342 -1.9181
  519MOL0     H68470   4.230   6.681   1.552  0.4666 -1.6297  0.5946
  519MOL0     H68471   4.005   6.756   1.610  0.7696  1.1864 -1.1101
  519MOL0     H68472   3.846   7.190   1.852 -1.5816  0.9065 -1.8044
  519MOL0     H68473   3.666   7.305   1.975 -2.5498 -0.2089  0.8481
  519MOL0     H68474   3.391   7.370   1.892 -3.3592  3.7471  0.4468
  519MOL0     H68475   3.498   7.392   2.030  0.6965 -3.1513 -0.3757
  519MOL0     H68476   3.290   7.372   2.174  0.2746 -2.0286  0.3675
  519MOL0     H68477   3.197   7.309   2.024  0.9373 -0.4018 -1.6747
  519MOL0     H68478   3.253   7.536   1.917  1.8269  0.8959 -0.8619
  519MOL0     H68479   3.318   7.582   2.073  1.6125 -2.0706 -0.3629
  519MOL0     H68480   3.029   7.519   2.009  0.6391  0.5642 -1.6000
  519MOL0     H68481   3.082   7.487   2.165 -2.7805 -1.7652 -1.9569
  519MOL0     H68482   2.967   7.729   2.112 -0.2619 -1.4659 -1.0573
  519MOL0     H68483   3.124   7.761   2.044 -0.9656  2.9211  1.3566
  519MOL0     H68484   3.227   7.698   2.276 -0.1446 -1.0055  2.3166
  519MOL0     H68485   3.075   7.712   2.349  0.8935  1.1928  0.3624
  519MOL0     H68486   3.188   7.925   2.351 -1.0910  1.5590  0.4734
  519MOL0     H68487   3.233   7.906   2.180 -0.9831 -1.9810 -1.1549
  519MOL0     H68488   2.941   7.944   2.265  0.6794 -0.3790  1.0399
  519MOL0     H68489   3.015   7.945   2.099  0.1169 -3.7241  0.1324
  519MOL0     H68490   3.437   6.946   1.976  1.4563 -2.3811  3.2310
  519MOL0     H68491   3.617   6.825   1.878  0.7690  0.0244 -1.4354
  519MOL0     H68492   4.152   6.811   2.020 -3.2351  1.0878 -0.1107
  519MOL0     H68493   4.374   6.711   1.937  0.1572 -2.7880 -1.1141
  519MOL0     H68494   6.242   6.286   1.875 -0.4194  0.5886  1.9064
  519MOL0     H68495   6.487   6.319   1.827 -0.5866 -0.9425 -0.3531
  519MOL0     H68496   6.854   6.730   1.511  0.4041 -0.5979 -1.5100
  519MOL0     H68497   7.091   6.707   1.503 -1.9379  0.0398  1.8123
  519MOL0     H68498   7.276   6.622   1.428  0.1479  1.6281  2.1968
  519MOL0     H68499   7.409   6.528   1.495  1.6195  2.1932  0.7672
  519MOL0     H68500   7.255   6.741   1.650 -0.3421  1.3601 -0.6220
  519MOL0     H68501   7.348   6.615   1.721 -3.9429 -1.7500 -0.9040
  519MOL0     H68502   7.465   6.795   1.484  1.3760 -4.2222 -1.2703
  519MOL0     H68503   7.550   6.723   1.609  0.8391  2.0341 -0.0674
  519MOL0     H68504   7.358   6.958   1.635 -0.3500  0.5527  2.9060
  519MOL0     H68505   7.419   6.893   1.776  1.8150 -0.2698  1.0765
  519MOL0     H68506   7.771   7.086   1.670  3.8009 -6.2577 -1.4249
  519MOL0     H68507   7.050   6.292   1.591  0.1527  0.5639  2.3550
  519MOL0     H68508   6.802   6.320   1.616 -1.0665  0.3277  2.3497
  520MOL0     O68509   3.386   2.492   4.775  0.2758  0.3373 -1.0152
  520MOL0     C68510   3.477   2.571   4.795  0.0688 -0.2696 -0.0100
  520MOL0     O68511   3.525   2.611   4.915  0.6611  0.5312  0.3965
  520MOL0     C68512   3.430   2.594   5.013 -0.3659  0.5027 -0.1803
  520MOL0     C68513   3.356   2.703   5.047  0.3429  0.3119  0.2129
  520MOL0     C68514   3.262   2.701   5.160  1.5763 -0.6492 -0.6028
  520MOL0     C68515   3.241   2.574   5.224 -0.1430 -0.0811 -0.2652
  520MOL0     O68516   3.157   2.549   5.329 -0.6841  0.8133 -0.4961
  520MOL0     C68517   3.062   2.643   5.375 -0.2818  0.3763  0.6284
  520MOL0     C68518   2.981   2.594   5.494  0.8209  0.6104  0.1434
  520MOL0     C68519   2.872   2.501   5.442  0.8085  0.1530  0.1557
  520MOL0     C68520   2.786   2.464   5.564 -0.2688  0.0867  0.1827
  520MOL0     C68521   2.667   2.376   5.527  0.1047 -0.5725  0.3239
  520MOL0     C68522   2.710   2.238   5.475  0.6426  0.9450  0.0309
  520MOL0     C68523   2.586   2.149   5.420  1.1890 -0.1653  0.3112
  520MOL0     C68524   2.636   2.037   5.329  0.2783 -0.1528 -0.6484
  520MOL0     N68525   2.536   1.960   5.257  0.6423  0.5999 -0.4130
  520MOL0     C68526   2.450   1.867   5.309  0.4562  0.5020 -0.4289
  520MOL0     C68527   2.416   1.799   5.201  0.4182  0.0939 -0.8268
  520MOL0     C68528   2.318   1.684   5.205  0.3061  0.5627 -0.0890
  520MOL0     C68529   2.169   1.731   5.201  0.8741  0.0730 -0.5395
  520MOL0     C68530   2.083   1.598   5.202  0.9904  0.3842  0.4345
  520MOL0     C68531   1.930   1.605   5.218  1.4291  0.7583  0.2415
  520MOL0     O68532   1.871   1.690   5.107 -0.6035 -0.2230 -0.5076
  520MOL0     C68533   1.757   1.761   5.119  0.5670  0.1313  1.3211
  520MOL0     C68534   1.675   1.761   5.008 -0.1068  0.5086  0.4903
  520MOL0     C68535   1.545   1.816   5.012 -0.6027 -0.0792  0.1384
  520MOL0     C68536   1.507   1.884   5.126 -1.0296 -0.4744  0.6427
  520MOL0     C68537   1.372   1.933   5.151 -0.4520  0.0118 -0.1696
  520MOL0     O68538   1.301   1.956   5.038 -0.1437 -0.0017 -0.2670
  520MOL0     C68539   1.169   1.975   5.064 -0.6091  0.0335 -0.5710
  520MOL0     C68540   1.123   2.105   5.068  0.3746 -0.9069  0.3323
  520MOL0     C68541   0.989   2.137   5.102 -0.5624  0.0853 -0.1532
  520MOL0     C68542   0.895   2.041   5.145 -1.2394 -0.1837  0.0840
  520MOL0     O68543   0.779   2.082   5.194 -0.1106 -0.1849 -0.3769
  520MOL0     C68544   0.674   1.985   5.200 -0.2979  0.0814 -0.2395
  520MOL0     C68545   0.546   2.063   5.197 -0.4565 -0.3044 -0.0708
  520MOL0     C68546   0.528   2.150   5.076 -0.8299 -0.4181  0.7644
  520MOL0     C68547   0.398   2.229   5.079  0.2371  0.1519  0.1430
  520MOL0     C68548   0.401   2.335   4.969  0.9272  0.2621 -0.1347
  520MOL0     C68549   0.289   2.436   4.976  0.0966  0.4578  0.0911
  520MOL0     C68550   0.149   2.379   5.028 -0.8564  0.7431  0.6945
  520MOL0     C68551   0.025   2.434   4.971 -0.5452  0.7490  0.2230
  520MOL0    Cl68552   0.036   2.608   4.999 -0.3869 -0.2420  0.8216
  520MOL0     C68553   0.940   1.906   5.136 -0.7206 -0.3291  0.3982
  520MOL0     C68554   1.073   1.878   5.097 -0.4671  0.5953 -0.5956
  520MOL0     O68555   1.335   1.943   5.270 -0.4384  0.0416  0.5329
  520MOL0     C68556   1.591   1.886   5.237 -0.8273 -0.5239 -0.4132
  520MOL0     C68557   1.719   1.825   5.229 -0.8574 -0.6654 -0.5972
  520MOL0     N68558   2.482   1.847   5.083  0.1032  1.0221  0.2774
  520MOL0     N68559   2.553   1.943   5.124 -0.3324  0.4472  0.4446
  520MOL0     C68560   3.317   2.463   5.190 -0.4893  0.9231 -0.4151
  520MOL0     C68561   3.411   2.472   5.085  0.0543  0.4466 -0.2841
  520MOL0     C68562   3.546   2.601   4.675  0.1617  0.6177  0.2113
  520MOL0     C68563   3.636   2.712   4.684 -0.6816  0.1834 -0.1592
  520MOL0     C68564   3.729   2.731   4.581  0.3067 -0.2801  0.9434
  520MOL0     C68565   3.721   2.656   4.463  0.3880  0.2490  0.1392
  520MOL0     O68566   3.791   2.673   4.355  0.4447  0.0443  0.3059
  520MOL0     C68567   3.866   2.798   4.340  0.7130 -0.0437 -0.6269
  520MOL0     C68568   3.932   2.762   4.205  0.0951 -0.6382 -0.2514
  520MOL0     C68569   3.998   2.887   4.160  0.1230 -0.1868  0.4954
  520MOL0     C68570   4.024   2.881   4.011 -0.1451 -0.4605 -0.0297
  520MOL0     C68571   4.063   3.013   3.951  0.0819 -0.2822 -0.8199
  520MOL0     C68572   4.076   3.126   3.903  1.1100 -0.3051 -0.1202
  520MOL0     C68573   3.632   2.544   4.458 -0.6060 -0.0469 -0.5239
  520MOL0     C68574   3.557   2.517   4.572  0.1346  1.0124 -0.0466
  520MOL0     H68575   3.360   2.797   4.993 -1.0515 -0.2072 -0.8487
  520MOL0     H68576   3.219   2.797   5.185  1.6158 -0.5731 -0.8255
  520MOL0     H68577   3.001   2.664   5.287  0.0769  0.4628  0.3964
  520MOL0     H68578   3.112   2.737   5.402  1.6246 -0.5323  0.4866
  520MOL0     H68579   2.931   2.686   5.527  0.8714  1.7613 -2.6920
  520MOL0     H68580   3.052   2.555   5.567 -0.0938 -0.8994  0.2715
  520MOL0     H68581   2.920   2.417   5.391  0.5952  0.1802 -0.0906
  520MOL0     H68582   2.811   2.546   5.362  2.2897  0.2002 -0.9916
  520MOL0     H68583   2.851   2.417   5.638  0.1389  2.2600  1.2829
  520MOL0     H68584   2.752   2.556   5.612 -1.6130  1.6530 -3.4311
  520MOL0     H68585   2.605   2.429   5.455  0.4937 -1.0684 -0.3890
  520MOL0     H68586   2.603   2.349   5.611 -3.1710  1.2664 -1.4011
  520MOL0     H68587   2.771   2.184   5.549 -0.2034 -1.1576 -0.7259
  520MOL0     H68588   2.762   2.256   5.381 -1.0840 -2.0070 -1.6553
  520MOL0     H68589   2.528   2.108   5.503  2.0501 -1.6506  0.2280
  520MOL0     H68590   2.518   2.216   5.367  1.5034  1.8290  2.2771
  520MOL0     H68591   2.688   1.959   5.387  0.4083  0.3459 -0.0853
  520MOL0     H68592   2.716   2.082   5.270 -1.1776  1.2149 -1.6691
  520MOL0     H68593   2.414   1.849   5.409 -2.1900 -0.4349 -1.4634
  520MOL0     H68594   2.325   1.631   5.300  0.5687  3.2172  1.4960
  520MOL0     H68595   2.342   1.608   5.132 -1.8404 -2.0179  1.6871
  520MOL0     H68596   2.148   1.792   5.112 -0.1175 -0.1729 -0.4913
  520MOL0     H68597   2.129   1.789   5.285  0.0539 -1.5250  0.2254
  520MOL0     H68598   2.113   1.538   5.115  0.4711 -0.3364  0.7409
  520MOL0     H68599   2.116   1.530   5.281 -1.0305 -1.6676 -0.3751
  520MOL0     H68600   1.904   1.646   5.316 -2.1880  1.3332 -0.7816
  520MOL0     H68601   1.876   1.511   5.201 -0.2186  1.8184 -0.7253
  520MOL0     H68602   1.700   1.704   4.919 -1.7844  0.0776  0.2496
  520MOL0     H68603   1.479   1.806   4.926  1.5123 -1.0185 -1.4613
  520MOL0     H68604   1.192   2.184   5.042 -0.5810  0.0280  0.5791
  520MOL0     H68605   0.958   2.240   5.090 -1.0883  0.0077  0.4885
  520MOL0     H68606   0.668   1.947   5.302  0.4904 -2.0892 -0.9354
  520MOL0     H68607   0.674   1.911   5.118 -3.0477 -1.1195  0.7375
  520MOL0     H68608   0.522   2.117   5.289 -2.2167 -1.8609  0.4446
  520MOL0     H68609   0.461   1.995   5.191  0.8216 -1.8902 -1.3969
  520MOL0     H68610   0.546   2.100   4.981 -1.9172  0.3480  0.1336
  520MOL0     H68611   0.605   2.228   5.085 -0.6161 -0.4922 -0.3407
  520MOL0     H68612   0.312   2.162   5.071  0.9688 -0.6779 -1.3208
  520MOL0     H68613   0.399   2.285   5.173 -0.8066  1.0419 -0.3449
  520MOL0     H68614   0.397   2.276   4.877  0.4685 -2.5617  1.5589
  520MOL0     H68615   0.486   2.403   4.967 -0.2068  2.0237  3.5077
  520MOL0     H68616   0.273   2.473   4.874  2.3569  1.9023  0.1747
  520MOL0     H68617   0.325   2.528   5.024 -0.8483  0.3938  0.9437
  520MOL0     H68618   0.149   2.274   4.999  0.3704  0.9056  0.0308
  520MOL0     H68619   0.143   2.383   5.137 -4.2521  0.8940  0.6107
  520MOL0     H68620  -0.065   2.392   5.017 -0.3445 -0.1676 -0.2042
  520MOL0     H68621   0.022   2.408   4.865  2.1259 -0.2075  0.2945
  520MOL0     H68622   0.871   1.831   5.172 -1.5509  1.3588  2.5083
  520MOL0     H68623   1.111   1.777   5.108 -1.9051  0.0959  0.0942
  520MOL0     H68624   1.555   1.912   5.336 -0.3832 -1.2030 -0.0626
  520MOL0     H68625   1.788   1.819   5.312 -1.4226 -3.7946 -0.2366
  520MOL0     H68626   3.308   2.365   5.236 -0.4165  1.3726  0.5772
  520MOL0     H68627   3.474   2.386   5.066  0.4507  0.3451  1.3291
  520MOL0     H68628   3.630   2.776   4.771  2.2841 -0.2244  0.4394
  520MOL0     H68629   3.808   2.805   4.593  0.4987  0.1898 -2.4484
  520MOL0     H68630   3.946   2.805   4.414  0.2566 -2.9946  0.2968
  520MOL0     H68631   3.795   2.881   4.335 -0.1792 -0.7870 -0.6495
  520MOL0     H68632   4.004   2.680   4.209  0.3241 -0.3893  0.8835
  520MOL0     H68633   3.849   2.735   4.140  0.5770  0.1509 -1.2314
  520MOL0     H68634   4.087   2.920   4.214  0.4212  2.1370 -1.2784
  520MOL0     H68635   3.933   2.974   4.174 -0.8212 -0.7473 -0.2695
  520MOL0     H68636   4.107   2.811   3.997  1.5881  1.5622 -0.3772
  520MOL0     H68637   3.942   2.842   3.950 -1.0576  0.7398  0.3823
  520MOL0     H68638   4.103   3.220   3.861  1.5202 -0.3496  0.0383
  520MOL0     H68639   3.631   2.478   4.372  2.2511 -0.7831 -0.1048
  520MOL0     H68640   3.501   2.424   4.568  1.7617 -0.1230  1.6960
  521MOL0     O68641  11.244   3.542   2.523  0.3248  1.1454  0.9489
  521MOL0     C68642  11.255   3.587   2.405 -1.1989 -0.2549  0.0426
  521MOL0     O68643  11.158   3.591   2.316 -0.3300 -1.1167  0.1225
  521MOL0     C68644  11.033   3.574   2.365  0.2579 -0.1558 -0.0176
  521MOL0     C68645  10.958   3.678   2.414  0.7527 -0.2640  0.2160
  521MOL0     C68646  10.835   3.656   2.471  0.3235  0.3865  0.1236
  521MOL0     C68647  10.771   3.530   2.466 -0.2048  0.6055 -0.5659
  521MOL0     O68648  10.639   3.507   2.511 -0.1622  0.0525 -0.3078
  521MOL0     C68649  10.552   3.619   2.536  0.1464  0.6135 -0.4466
  521MOL0     C68650  10.426   3.584   2.620 -0.7774 -0.3821 -0.4689
  521MOL0     C68651  10.302   3.529   2.547  0.5085  0.1127 -1.2271
  521MOL0     C68652  10.257   3.571   2.407  0.5189  0.0654  0.4628
  521MOL0     C68653  10.138   3.487   2.350  0.7397 -0.1325  0.7004
  521MOL0     C68654  10.005   3.558   2.385 -0.0497  0.2655  0.6152
  521MOL0     C68655   9.886   3.466   2.366 -0.8854 -0.1158  0.9995
  521MOL0     C68656   9.755   3.541   2.396 -0.5561  1.1360 -0.1656
  521MOL0     N68657   9.661   3.430   2.434  0.6821 -0.6077 -0.6803
  521MOL0     C68658   9.649   3.378   2.563 -0.3005 -0.5559  0.0520
  521MOL0     C68659   9.535   3.311   2.555  0.7982  0.8675 -0.4884
  521MOL0     C68660   9.464   3.249   2.674  0.8659 -0.2042 -0.3326
  521MOL0     C68661   9.376   3.373   2.733  0.4674  0.8729  0.6936
  521MOL0     C68662   9.251   3.400   2.647 -0.3466  0.6108  0.6194
  521MOL0     C68663   9.173   3.522   2.711  0.4136  0.1697  1.2202
  521MOL0     O68664   9.115   3.491   2.838 -0.5303 -0.5601  0.4681
  521MOL0     C68665   8.990   3.537   2.862  0.4183 -0.5137  0.1810
  521MOL0     C68666   8.925   3.480   2.975 -0.6698 -1.2652  0.4651
  521MOL0     C68667   8.807   3.529   3.022  0.6290 -0.2786 -1.1159
  521MOL0     C68668   8.742   3.630   2.947  0.2155 -0.8022  0.8200
  521MOL0     C68669   8.606   3.677   2.992  0.1107 -0.6191 -0.4580
  521MOL0     O68670   8.549   3.613   3.095  0.3387  0.1023 -0.6264
  521MOL0     C68671   8.417   3.612   3.111  0.5412 -0.9223  0.5046
  521MOL0     C68672   8.375   3.615   3.241 -0.0310  0.4535 -0.4383
  521MOL0     C68673   8.239   3.600   3.276 -0.8902  0.5857  0.2221
  521MOL0     C68674   8.148   3.580   3.179  0.6191 -0.5950  0.4992
  521MOL0     O68675   8.014   3.556   3.200  0.2334  0.7745  0.4099
  521MOL0     C68676   7.961   3.555   3.332  1.4845 -0.4485 -0.0653
  521MOL0     C68677   7.802   3.532   3.346 -0.6544 -0.0236  0.1863
  521MOL0     C68678   7.753   3.517   3.489 -0.3819  0.5938  0.0439
  521MOL0     C68679   7.600   3.514   3.487  0.6182 -0.2565  0.0282
  521MOL0     C68680   7.534   3.499   3.624  0.0506 -0.3530  0.5495
  521MOL0     C68681   7.384   3.527   3.618 -0.4301  0.7327  0.1364
  521MOL0     C68682   7.321   3.490   3.759 -0.2762 -0.0972 -0.9958
  521MOL0     C68683   7.171   3.487   3.748 -0.3706  0.0424 -0.5121
  521MOL0    Cl68684   7.086   3.456   3.908 -0.0293 -0.2220  0.3053
  521MOL0     C68685   8.190   3.577   3.049  0.6845 -1.0013  0.3805
  521MOL0     C68686   8.324   3.605   3.010 -0.0637  0.1446 -0.1013
  521MOL0     O68687   8.560   3.771   2.936  0.6593 -0.6519  0.4112
  521MOL0     C68688   8.800   3.687   2.834 -0.2844  0.6581 -0.1295
  521MOL0     C68689   8.920   3.641   2.786  0.1395  0.0456  0.1515
  521MOL0     N68690   9.486   3.303   2.432 -0.5309 -0.5902  0.1138
  521MOL0     N68691   9.558   3.379   2.356 -0.2951  0.2420  0.1128
  521MOL0     C68692  10.844   3.424   2.413 -1.1844  0.4454 -0.8383
  521MOL0     C68693  10.973   3.447   2.363  0.2311  0.6038 -1.1573
  521MOL0     C68694  11.395   3.594   2.352 -0.2975  0.1296  0.1797
  521MOL0     C68695  11.438   3.677   2.239 -0.0127 -0.0869 -0.3487
  521MOL0     C68696  11.566   3.672   2.187  0.4879 -0.5202  0.5531
  521MOL0     C68697  11.666   3.597   2.247  0.2536 -0.4261 -0.6785
  521MOL0     O68698  11.785   3.611   2.188  0.4008 -0.5573 -0.3880
  521MOL0     C68699  11.855   3.489   2.161  0.4136 -0.5031 -0.6705
  521MOL0     C68700  11.961   3.514   2.057  0.0878  0.0276  0.3815
  521MOL0     C68701  12.067   3.620   2.095  0.4865  0.4827  0.0693
  521MOL0     C68702  12.192   3.603   2.009  0.7574 -0.2911 -1.4393
  521MOL0     C68703  12.179   3.675   1.880  0.4358  0.4989 -0.9250
  521MOL0     C68704  12.172   3.723   1.761  0.0279  0.4381 -1.0860
  521MOL0     C68705  11.631   3.518   2.355  0.2516 -1.0411  0.5806
  521MOL0     C68706  11.501   3.521   2.407 -0.1951  0.4733  0.3948
  521MOL0     H68707  11.005   3.776   2.411  0.5308 -0.1454  0.6061
  521MOL0     H68708  10.792   3.750   2.504 -0.6895  0.0159 -0.1188
  521MOL0     H68709  10.519   3.669   2.444 -3.0074  1.7199  1.1487
  521MOL0     H68710  10.602   3.689   2.603 -3.7473  0.2349  3.2917
  521MOL0     H68711  10.387   3.679   2.656  0.0537  0.3865 -1.5145
  521MOL0     H68712  10.449   3.531   2.712 -1.3093  0.1174 -0.0457
  521MOL0     H68713  10.224   3.540   2.623 -1.3604  0.0537 -3.0557
  521MOL0     H68714  10.320   3.421   2.547 -0.9413 -0.2953  2.4570
  521MOL0     H68715  10.244   3.679   2.393  0.2291 -0.1811 -1.5181
  521MOL0     H68716  10.337   3.538   2.340  1.5768  0.9130  1.2809
  521MOL0     H68717  10.149   3.391   2.400  3.2413 -0.6220 -0.6399
  521MOL0     H68718  10.125   3.480   2.242 -3.7544 -1.3740  1.1241
  521MOL0     H68719   9.996   3.649   2.325 -0.1358  0.8158  1.4404
  521MOL0     H68720  10.005   3.589   2.490 -0.7075  0.3926  0.5822
  521MOL0     H68721   9.895   3.440   2.260  1.2588  2.7163  0.3780
  521MOL0     H68722   9.904   3.380   2.431  0.2686  1.1376  2.3902
  521MOL0     H68723   9.718   3.580   2.300  1.0956  0.2504 -1.2154
  521MOL0     H68724   9.755   3.604   2.485 -3.2847 -2.6710  2.8627
  521MOL0     H68725   9.709   3.392   2.653  3.1439 -1.2080 -1.9963
  521MOL0     H68726   9.536   3.236   2.755 -0.1740  0.9870  0.8401
  521MOL0     H68727   9.398   3.166   2.646  0.7251 -0.1107 -0.2806
  521MOL0     H68728   9.431   3.467   2.742 -0.4770  1.3727  1.5443
  521MOL0     H68729   9.335   3.347   2.831 -0.2774 -1.1857 -0.1033
  521MOL0     H68730   9.287   3.415   2.545 -0.4080 -3.0814 -0.0491
  521MOL0     H68731   9.183   3.315   2.642  0.5381 -0.0545 -0.4199
  521MOL0     H68732   9.108   3.566   2.635  1.2785 -0.1794  0.2698
  521MOL0     H68733   9.253   3.593   2.729 -0.5251  0.4308  5.5115
  521MOL0     H68734   8.971   3.408   3.042 -0.6566 -0.8539  0.8973
  521MOL0     H68735   8.769   3.490   3.116 -1.4063  1.7541 -1.0021
  521MOL0     H68736   8.453   3.631   3.315 -1.1250  0.6465  0.6940
  521MOL0     H68737   8.205   3.598   3.379  0.2015 -0.3337  0.5925
  521MOL0     H68738   7.983   3.638   3.399  0.5279  0.7321 -1.1591
  521MOL0     H68739   8.004   3.462   3.370 -4.4868 -3.6925  0.0367
  521MOL0     H68740   7.779   3.445   3.284  0.7922  1.9656 -3.4436
  521MOL0     H68741   7.768   3.625   3.301  3.4990  1.4366 -0.3854
  521MOL0     H68742   7.779   3.602   3.553 -0.8100 -0.2754  1.4111
  521MOL0     H68743   7.797   3.426   3.530 -0.1616  1.0037  0.7294
  521MOL0     H68744   7.573   3.610   3.440  0.2791 -0.2631  0.2064
  521MOL0     H68745   7.570   3.433   3.419  3.7913  0.2491 -2.2341
  521MOL0     H68746   7.579   3.570   3.694 -0.2477  1.7771 -1.3156
  521MOL0     H68747   7.548   3.398   3.663 -1.2338 -0.5267  0.6132
  521MOL0     H68748   7.338   3.463   3.543  1.6542 -0.3155 -0.3374
  521MOL0     H68749   7.359   3.630   3.594 -2.9874 -0.2053 -1.6068
  521MOL0     H68750   7.354   3.391   3.792 -1.8789  0.0855  1.3567
  521MOL0     H68751   7.342   3.567   3.833  0.4722 -1.8008  0.6420
  521MOL0     H68752   7.143   3.391   3.703 -1.4593  1.0679 -2.1158
  521MOL0     H68753   7.134   3.569   3.686 -1.0730 -0.9783 -1.4862
  521MOL0     H68754   8.122   3.550   2.968 -2.1187  2.3280  1.3643
  521MOL0     H68755   8.348   3.612   2.905 -0.7912 -1.1678 -0.3866
  521MOL0     H68756   8.750   3.766   2.780 -0.1283  1.5951  1.0544
  521MOL0     H68757   8.954   3.685   2.693 -0.3757 -1.2009 -0.6671
  521MOL0     H68758  10.799   3.325   2.415  0.6673 -0.4683 -1.7367
  521MOL0     H68759  11.028   3.360   2.328 -1.6204 -0.9641 -0.4020
  521MOL0     H68760  11.358   3.739   2.198 -0.1828 -0.2361 -0.2423
  521MOL0     H68761  11.589   3.735   2.101 -2.7212  1.2259  0.8152
  521MOL0     H68762  11.789   3.411   2.121  1.3561 -0.9243 -1.4608
  521MOL0     H68763  11.893   3.449   2.256 -0.5285  0.0760 -0.0355
  521MOL0     H68764  12.024   3.424   2.054 -1.0986 -0.8106 -1.3377
  521MOL0     H68765  11.923   3.531   1.956  1.2346 -1.1455 -0.2973
  521MOL0     H68766  12.098   3.613   2.200 -1.6444  0.1485  0.7186
  521MOL0     H68767  12.026   3.721   2.090 -0.8477  0.1196  2.1379
  521MOL0     H68768  12.278   3.640   2.066 -0.2375 -0.7935  0.4649
  521MOL0     H68769  12.216   3.499   1.984  4.1129  0.1046 -0.3784
  521MOL0     H68770  12.169   3.762   1.662 -2.5655  3.9130  0.1463
  521MOL0     H68771  11.714   3.467   2.403  1.1333 -0.1546  0.0448
  521MOL0     H68772  11.482   3.467   2.500 -2.2147 -0.4705 -0.5011
  522MOL0     O68773   4.782   6.619   0.705  0.1848  0.5494  0.0644
  522MOL0     C68774   4.751   6.715   0.768 -1.0996 -1.0993 -0.6050
  522MOL0     O68775   4.645   6.794   0.749  0.6577 -0.2323 -0.0197
  522MOL0     C68776   4.556   6.780   0.646 -0.9987  0.4108  1.2495
  522MOL0     C68777   4.462   6.683   0.648  0.6876  0.1329  0.2079
  522MOL0     C68778   4.370   6.673   0.543  0.5152  0.2772 -0.0938
  522MOL0     C68779   4.369   6.771   0.444 -0.0865 -0.2468 -0.4177
  522MOL0     O68780   4.290   6.760   0.336  1.2348  0.9142  0.1521
  522MOL0     C68781   4.153   6.738   0.374 -0.0947 -0.5212  0.1336
  522MOL0     C68782   4.074   6.740   0.243  0.1009 -0.1925  0.0006
  522MOL0     C68783   3.926   6.755   0.275  0.8994  0.7501 -0.7873
  522MOL0     C68784   3.865   6.637   0.358  0.1867 -0.3948  0.3304
  522MOL0     C68785   3.722   6.669   0.394  0.2378  0.0350 -0.1058
  522MOL0     C68786   3.630   6.659   0.267  0.6450  0.0014  0.3297
  522MOL0     C68787   3.479   6.697   0.277 -0.5887  0.7214 -0.1708
  522MOL0     C68788   3.470   6.850   0.289  0.6644  0.2789 -0.2203
  522MOL0     N68789   3.341   6.924   0.271 -0.3766 -0.7933  0.6019
  522MOL0     C68790   3.256   6.968   0.371  0.5311  0.6882  0.0244
  522MOL0     C68791   3.137   6.989   0.324 -0.2290 -0.7787  0.2788
  522MOL0     C68792   3.020   7.053   0.383  0.3400  0.0261  0.1055
  522MOL0     C68793   2.918   7.104   0.265 -0.0962  0.2580  0.1577
  522MOL0     C68794   2.787   7.130   0.336 -0.1164 -0.9843  0.0680
  522MOL0     C68795   2.694   7.214   0.239 -0.5346 -0.5727 -0.4587
  522MOL0     O68796   2.590   7.132   0.180 -0.5846  0.3558  0.2749
  522MOL0     C68797   2.485   7.202   0.125 -0.2643  0.8131  0.5071
  522MOL0     C68798   2.375   7.120   0.100  0.1059  0.1025  0.9386
  522MOL0     C68799   2.265   7.174   0.037 -0.1182 -0.2406  0.3019
  522MOL0     C68800   2.251   7.310   0.020 -0.2788  0.0288  0.3613
  522MOL0     C68801   2.123   7.374  -0.029  0.3702 -0.1471  0.1896
  522MOL0     O68802   2.117   7.510  -0.034 -0.1034  0.1553  0.6926
  522MOL0     C68803   1.995   7.575  -0.041  0.9372  0.4352 -0.2081
  522MOL0     C68804   1.948   7.643  -0.157 -0.1946  0.1893 -0.1258
  522MOL0     C68805   1.824   7.708  -0.158 -0.4842 -0.3888 -0.5428
  522MOL0     C68806   1.743   7.709  -0.042 -0.3402  0.1791 -0.0456
  522MOL0     O68807   1.632   7.778  -0.039  0.8463  0.0603 -0.1782
  522MOL0     C68808   1.559   7.796  -0.166 -0.3231  0.2928 -0.6839
  522MOL0     C68809   1.414   7.829  -0.143 -0.3974 -0.2625 -0.4918
  522MOL0     C68810   1.332   7.853  -0.269 -0.4491  0.2327 -0.3061
  522MOL0     C68811   1.187   7.888  -0.233 -0.3207 -0.5407 -0.4128
  522MOL0     C68812   1.126   7.896  -0.368  0.2753  0.3037 -0.1468
  522MOL0     C68813   0.981   7.931  -0.361 -0.3037  0.1693 -0.0253
  522MOL0     C68814   0.926   7.948  -0.499  0.7700 -0.6172 -1.1381
  522MOL0     C68815   0.780   7.959  -0.493 -0.8736 -0.3004 -0.3071
  522MOL0    Cl68816   0.717   7.975  -0.662  0.1639 -0.2920 -0.0315
  522MOL0     C68817   1.790   7.648   0.078  0.1603  0.5977  1.1219
  522MOL0     C68818   1.913   7.580   0.070 -0.1601 -0.0579 -0.6873
  522MOL0     O68819   2.027   7.296  -0.037 -0.7495 -0.1069  0.3306
  522MOL0     C68820   2.368   7.391   0.047  0.0279 -0.4646 -0.2070
  522MOL0     C68821   2.487   7.336   0.094  0.0170 -0.0980  0.3891
  522MOL0     N68822   3.151   6.964   0.188  0.4123  0.4941 -1.1293
  522MOL0     N68823   3.274   6.919   0.155  0.0277 -1.0483  0.0610
  522MOL0     C68824   4.461   6.875   0.446  0.6249 -1.3476 -0.1661
  522MOL0     C68825   4.549   6.880   0.551 -0.1851 -0.2678 -0.0778
  522MOL0     C68826   4.835   6.734   0.886  0.4174 -0.1998  0.1381
  522MOL0     C68827   4.945   6.644   0.911  0.8361  0.0483  0.8914
  522MOL0     C68828   5.024   6.647   1.026 -0.0413  0.3199  0.0220
  522MOL0     C68829   5.002   6.744   1.123 -0.4358  1.1291 -0.7346
  522MOL0     O68830   5.086   6.746   1.228 -0.1812  0.4214  0.0587
  522MOL0     C68831   5.050   6.833   1.334  0.1322 -0.1139 -0.5509
  522MOL0     C68832   5.149   6.811   1.444 -0.1885  0.2148  0.0406
  522MOL0     C68833   5.132   6.669   1.498 -0.0734 -0.2009 -0.2100
  522MOL0     C68834   5.218   6.641   1.617  0.7879  0.2002 -0.5509
  522MOL0     C68835   5.362   6.642   1.582  0.2728  0.1231  0.4992
  522MOL0     C68836   5.479   6.662   1.563 -0.3275 -0.0592 -0.0737
  522MOL0     C68837   4.895   6.834   1.101 -0.3573 -0.8605  0.3697
  522MOL0     C68838   4.810   6.826   0.988  0.4558 -0.3154  0.3563
  522MOL0     H68839   4.449   6.613   0.730 -4.1703  0.2708 -0.1272
  522MOL0     H68840   4.294   6.598   0.562  0.4120  0.3509 -0.2165
  522MOL0     H68841   4.123   6.812   0.449 -0.5672 -0.4880 -0.0895
  522MOL0     H68842   4.142   6.633   0.404  0.3283 -0.6783 -0.2398
  522MOL0     H68843   4.087   6.653   0.178  3.3819  2.0345 -2.7080
  522MOL0     H68844   4.109   6.817   0.174  0.8441  0.9389  1.5768
  522MOL0     H68845   3.860   6.771   0.189 -1.9166  0.3547  1.1454
  522MOL0     H68846   3.921   6.844   0.338 -0.3660  0.9862 -1.1907
  522MOL0     H68847   3.873   6.548   0.295  4.6697  0.8614 -1.2876
  522MOL0     H68848   3.927   6.615   0.446  1.0031 -0.3929 -0.2269
  522MOL0     H68849   3.727   6.766   0.445 -0.2190  0.7083 -1.2802
  522MOL0     H68850   3.686   6.600   0.470 -0.5752 -2.1347 -2.3221
  522MOL0     H68851   3.635   6.559   0.224  1.8009  0.1110  0.1874
  522MOL0     H68852   3.661   6.729   0.189 -1.0686  0.7874  0.3041
  522MOL0     H68853   3.432   6.667   0.183  0.4973  1.8779 -1.1249
  522MOL0     H68854   3.437   6.649   0.365 -2.9299  1.3423 -0.8781
  522MOL0     H68855   3.527   6.897   0.208 -0.0341  1.1109 -0.2422
  522MOL0     H68856   3.519   6.888   0.379  0.0045 -2.6370  1.5324
  522MOL0     H68857   3.286   6.968   0.475  2.5534 -0.8991 -0.4746
  522MOL0     H68858   3.042   7.144   0.440 -2.1724 -0.0604  1.3612
  522MOL0     H68859   2.973   6.989   0.458  1.4933 -0.0702  0.7548
  522MOL0     H68860   2.899   7.030   0.188  1.2658 -1.0764  1.0530
  522MOL0     H68861   2.960   7.198   0.227  0.5505  0.5585  1.5384
  522MOL0     H68862   2.736   7.039   0.371 -1.0280 -0.9110 -1.0032
  522MOL0     H68863   2.806   7.192   0.424 -0.0538 -0.4536 -0.3182
  522MOL0     H68864   2.765   7.258   0.169  1.1089 -2.8892 -0.3211
  522MOL0     H68865   2.666   7.299   0.302  1.5388 -0.1246 -0.0651
  522MOL0     H68866   2.397   7.015   0.117 -0.0109 -0.0896 -0.0495
  522MOL0     H68867   2.186   7.106   0.007 -0.4625  0.5159 -0.5677
  522MOL0     H68868   2.021   7.642  -0.237  0.4987  0.6495  0.4825
  522MOL0     H68869   1.791   7.768  -0.242  1.4609  2.2453  0.4369
  522MOL0     H68870   1.572   7.701  -0.219  3.7569  0.0134  0.4843
  522MOL0     H68871   1.610   7.874  -0.224  1.3031  1.4394  2.0836
  522MOL0     H68872   1.422   7.920  -0.082  2.4631 -1.4830  1.1945
  522MOL0     H68873   1.371   7.755  -0.075 -1.3121  1.3107  0.7328
  522MOL0     H68874   1.328   7.755  -0.317 -2.7391 -0.8364  1.8904
  522MOL0     H68875   1.388   7.926  -0.329  3.3144 -0.5090  1.9964
  522MOL0     H68876   1.124   7.817  -0.178 -2.2784  1.4239  0.0177
  522MOL0     H68877   1.192   7.984  -0.182  0.9255 -0.3377 -0.8791
  522MOL0     H68878   1.134   7.799  -0.417  1.3825  0.8820 -1.1587
  522MOL0     H68879   1.178   7.973  -0.426  0.9981 -1.2649 -1.6843
  522MOL0     H68880   0.970   8.031  -0.317  0.8791  1.1314 -1.7551
  522MOL0     H68881   0.913   7.872  -0.300  2.6393 -1.4173  1.9835
  522MOL0     H68882   0.974   8.037  -0.542 -1.9335  0.9664 -1.1489
  522MOL0     H68883   0.955   7.861  -0.559 -0.4949 -2.4648  0.8022
  522MOL0     H68884   0.747   8.048  -0.439 -2.2227 -1.1178  0.2624
  522MOL0     H68885   0.734   7.875  -0.441 -0.0389  0.2582  1.3902
  522MOL0     H68886   1.728   7.662   0.166 -0.7989  0.1874  0.5270
  522MOL0     H68887   1.952   7.537   0.162  0.9127 -0.1908 -1.1917
  522MOL0     H68888   2.355   7.499   0.041  1.4714 -0.2513  0.2186
  522MOL0     H68889   2.573   7.401   0.103  0.0476  0.0037 -0.5243
  522MOL0     H68890   4.464   6.954   0.372  0.6045  2.9611  3.9370
  522MOL0     H68891   4.621   6.960   0.541  2.0453 -1.9593  1.3376
  522MOL0     H68892   4.969   6.574   0.831 -2.1474 -1.5864  1.2509
  522MOL0     H68893   5.088   6.560   1.035 -3.6130 -2.4314  1.3608
  522MOL0     H68894   4.949   6.819   1.373  1.0494 -0.0949  1.9942
  522MOL0     H68895   5.068   6.936   1.300  4.8550 -0.0595  1.3771
  522MOL0     H68896   5.253   6.828   1.414  0.3473 -0.4673  1.4456
  522MOL0     H68897   5.127   6.881   1.525  0.1187 -0.1108  0.4084
  522MOL0     H68898   5.154   6.594   1.422 -0.7071 -1.2463  0.6204
  522MOL0     H68899   5.026   6.651   1.521  0.8541 -3.1864  2.3770
  522MOL0     H68900   5.199   6.711   1.699  2.0432  2.2013 -1.8800
  522MOL0     H68901   5.193   6.542   1.657 -2.4329  1.2074  0.2831
  522MOL0     H68902   5.585   6.677   1.552 -0.3072 -1.6856 -3.1653
  522MOL0     H68903   4.889   6.920   1.167 -1.0180  0.6856 -1.5727
  522MOL0     H68904   4.725   6.893   0.974 -0.6766 -1.7732 -0.0169
  523MOL0     O68905   9.150  10.521   7.772  0.0280  0.0749 -0.9987
  523MOL0     C68906   9.245  10.554   7.704  0.8506 -0.2088  0.5933
  523MOL0     O68907   9.234  10.617   7.576  0.0779  0.0572 -0.5938
  523MOL0     C68908   9.127  10.681   7.535 -0.1126  0.7646 -0.0895
  523MOL0     C68909   9.008  10.607   7.515 -0.0558  0.1857  0.4728
  523MOL0     C68910   8.891  10.667   7.471  0.5760 -1.2814  0.1905
  523MOL0     C68911   8.896  10.805   7.441  0.2400 -0.4845  0.2620
  523MOL0     O68912   8.782  10.871   7.400  0.1429 -0.9552 -0.2973
  523MOL0     C68913   8.707  10.796   7.308 -0.5252 -0.1290 -0.3248
  523MOL0     C68914   8.617  10.900   7.249 -0.1958  0.8763 -0.1505
  523MOL0     C68915   8.529  10.828   7.144  0.1007  0.0265 -0.0805
  523MOL0     C68916   8.425  10.932   7.092 -0.0314 -0.5828 -0.3821
  523MOL0     C68917   8.329  10.885   6.982  0.1777 -0.2164 -0.3960
  523MOL0     C68918   8.317  10.975   6.862 -0.2127 -0.4609 -1.5571
  523MOL0     C68919   8.186  10.942   6.783 -0.5345 -0.1111 -0.6417
  523MOL0     C68920   8.198  10.792   6.727 -0.1208 -0.3932  0.3851
  523MOL0     N68921   8.112  10.690   6.785 -0.0900 -0.6613  0.0682
  523MOL0     C68922   8.003  10.642   6.721 -0.2824 -0.2060 -0.2509
  523MOL0     C68923   7.937  10.565   6.813  1.3713 -0.2169 -0.2340
  523MOL0     C68924   7.814  10.489   6.785  0.1256  0.0473 -0.6939
  523MOL0     C68925   7.692  10.569   6.806  0.8007 -0.2504  0.1679
  523MOL0     C68926   7.696  10.620   6.954  0.0703  0.3871 -0.5270
  523MOL0     C68927   7.549  10.673   6.995 -1.3903 -0.3721 -0.1534
  523MOL0     O68928   7.491  10.754   6.892  0.4604  0.3279 -0.9407
  523MOL0     C68929   7.349  10.755   6.906  0.0468 -0.3235  0.4223
  523MOL0     C68930   7.281  10.762   6.788  1.2343 -0.7125 -0.1172
  523MOL0     C68931   7.141  10.768   6.781  0.3651  0.6037 -0.1781
  523MOL0     C68932   7.072  10.786   6.895 -0.0509 -0.7323 -0.7644
  523MOL0     C68933   6.929  10.774   6.889 -0.0671  0.6038  0.1200
  523MOL0     O68934   6.875  10.786   6.766  0.3638  0.0786  0.2769
  523MOL0     C68935   6.739  10.778   6.758 -0.4321  0.9684  0.4341
  523MOL0     C68936   6.648  10.861   6.816  0.0131 -0.7235  0.9860
  523MOL0     C68937   6.510  10.855   6.779  0.0731  0.2525 -0.7527
  523MOL0     C68938   6.465  10.763   6.681  0.1005 -0.9169 -0.3778
  523MOL0     O68939   6.332  10.760   6.646 -0.2427  0.2054  0.8007
  523MOL0     C68940   6.241  10.724   6.748 -0.6504 -0.0146 -0.2012
  523MOL0     C68941   6.110  10.687   6.670 -0.2653  0.9369  0.3766
  523MOL0     C68942   5.989  10.653   6.760  0.1327 -0.7689  0.3443
  523MOL0     C68943   5.866  10.596   6.690 -0.5311 -0.6549 -0.1576
  523MOL0     C68944   5.746  10.568   6.790  0.0601  0.4622  0.7579
  523MOL0     C68945   5.684  10.697   6.837  0.1419  0.4007 -0.3096
  523MOL0     C68946   5.567  10.688   6.941  0.1974  1.0341 -0.2631
  523MOL0     C68947   5.622  10.636   7.076 -0.2401  0.2384 -1.0149
  523MOL0    Cl68948   5.488  10.627   7.192 -0.0122 -0.1556 -0.3793
  523MOL0     C68949   6.554  10.674   6.627  0.1040 -0.3367  0.3161
  523MOL0     C68950   6.687  10.682   6.671  0.2367 -0.7867  0.8482
  523MOL0     O68951   6.859  10.765   6.993 -0.7595  0.2725  0.6454
  523MOL0     C68952   7.139  10.797   7.015 -0.5672  0.5685  0.5633
  523MOL0     C68953   7.278  10.786   7.026 -0.4921 -0.3492  0.1916
  523MOL0     N68954   8.014  10.563   6.928 -0.0017 -0.2695  0.1629
  523MOL0     N68955   8.113  10.646   6.914  0.1643  0.2508 -0.8237
  523MOL0     C68956   9.014  10.872   7.452 -0.3279  1.0543 -0.5555
  523MOL0     C68957   9.130  10.812   7.495  0.3473 -0.2636 -0.5351
  523MOL0     C68958   9.383  10.558   7.761 -0.1685 -0.3565 -0.0189
  523MOL0     C68959   9.404  10.534   7.901 -0.2014 -0.1555  1.1363
  523MOL0     C68960   9.529  10.536   7.952 -0.2524 -0.1090 -0.4027
  523MOL0     C68961   9.642  10.566   7.874 -0.0240  0.2996  1.1296
  523MOL0     O68962   9.766  10.567   7.937  0.6197  0.1193 -0.3594
  523MOL0     C68963   9.880  10.621   7.865 -0.1184  0.0640  0.4674
  523MOL0     C68964   9.982  10.627   7.975  0.1400 -0.3724 -0.7220
  523MOL0     C68965  10.036  10.490   8.023 -0.0814  0.7626  0.0829
  523MOL0     C68966  10.187  10.476   8.032 -0.0037  0.1453  0.3810
  523MOL0     C68967  10.257  10.492   7.900  1.2194  0.1986  0.3443
  523MOL0     C68968  10.313  10.521   7.798 -0.4046  0.6546  0.5207
  523MOL0     C68969   9.618  10.598   7.739 -0.4599 -0.4463 -0.0150
  523MOL0     C68970   9.491  10.597   7.688 -0.1735  0.2051 -0.0095
  523MOL0     H68971   8.995  10.505   7.548 -1.4785 -1.2128 -3.7149
  523MOL0     H68972   8.795  10.615   7.465 -0.9773  1.5110 -3.1056
  523MOL0     H68973   8.642  10.724   7.360 -0.7764 -0.9816 -1.7688
  523MOL0     H68974   8.779  10.751   7.239 -0.2867  0.3524 -0.3916
  523MOL0     H68975   8.673  10.989   7.216 -2.4861  1.5887 -2.4455
  523MOL0     H68976   8.562  10.941   7.334 -0.0295  0.5182  0.1317
  523MOL0     H68977   8.492  10.734   7.186 -1.5878  0.7395  0.0969
  523MOL0     H68978   8.595  10.803   7.060  0.1869 -0.5943  0.1648
  523MOL0     H68979   8.361  10.961   7.175 -0.5150  0.2139 -1.0242
  523MOL0     H68980   8.481  11.020   7.060 -0.2502  0.7787  2.6881
  523MOL0     H68981   8.230  10.878   7.029  0.8157 -1.6151  0.8000
  523MOL0     H68982   8.361  10.783   6.957  1.2659  0.5732 -2.5455
  523MOL0     H68983   8.404  10.985   6.797 -0.1797  2.2713 -1.2045
  523MOL0     H68984   8.312  11.078   6.899 -0.5903 -0.1140 -2.5350
  523MOL0     H68985   8.095  10.970   6.838 -0.1664  4.0582 -1.8190
  523MOL0     H68986   8.188  11.008   6.696  0.6707 -0.2341 -0.7231
  523MOL0     H68987   8.303  10.767   6.744 -0.5451 -1.0340  2.3045
  523MOL0     H68988   8.182  10.796   6.619 -0.0545 -0.4383  0.3744
  523MOL0     H68989   7.963  10.670   6.623 -2.1195 -0.6531  0.3231
  523MOL0     H68990   7.800  10.406   6.854 -3.4521 -2.1690 -3.6242
  523MOL0     H68991   7.823  10.437   6.689 -0.1936 -0.1836 -0.6017
  523MOL0     H68992   7.598  10.513   6.794  0.1960  0.6406  0.6464
  523MOL0     H68993   7.676  10.651   6.736 -1.6441 -2.0089 -1.5120
  523MOL0     H68994   7.731  10.534   7.011  3.8845  2.3802  0.4463
  523MOL0     H68995   7.769  10.701   6.960  0.1179  0.3931 -1.1861
  523MOL0     H68996   7.573  10.738   7.080 -0.0506  1.6572 -1.9604
  523MOL0     H68997   7.478  10.594   7.023 -1.2733 -1.1141 -1.8361
  523MOL0     H68998   7.348  10.780   6.704  3.0970  4.2731  2.0153
  523MOL0     H68999   7.095  10.747   6.685  0.5404  2.6997 -0.7563
  523MOL0     H69000   6.698  10.939   6.872  0.4469 -1.3294  1.4458
  523MOL0     H69001   6.445  10.934   6.816  0.9062  1.6096 -2.0875
  523MOL0     H69002   6.231  10.799   6.826  1.4295  0.4641 -0.3287
  523MOL0     H69003   6.275  10.633   6.798  0.8881 -0.1686 -1.4277
  523MOL0     H69004   6.130  10.599   6.608  1.0191 -2.5086  5.0904
  523MOL0     H69005   6.085  10.778   6.614  1.5451  0.6744 -0.9640
  523MOL0     H69006   5.961  10.748   6.806  0.9714  0.1954 -1.0349
  523MOL0     H69007   6.017  10.576   6.833 -1.1025 -0.9979  0.5991
  523MOL0     H69008   5.818  10.654   6.611 -2.8274  0.0173  1.6340
  523MOL0     H69009   5.894  10.507   6.633 -0.0914  0.6863 -2.1475
  523MOL0     H69010   5.784  10.509   6.874  1.8447  1.1392  0.4664
  523MOL0     H69011   5.663  10.516   6.741 -3.6371  2.9718  3.7537
  523MOL0     H69012   5.643  10.740   6.745 -2.7241  0.3522  0.8535
  523MOL0     H69013   5.755  10.770   6.876 -0.9056  3.3000 -3.3134
  523MOL0     H69014   5.516  10.783   6.960 -0.7894  0.3234  0.7458
  523MOL0     H69015   5.493  10.623   6.894  2.1704 -1.1274 -0.5437
  523MOL0     H69016   5.704  10.699   7.111 -0.6435  0.3509 -0.2487
  523MOL0     H69017   5.653  10.531   7.069  2.1412  0.6707  1.4366
  523MOL0     H69018   6.523  10.607   6.547  3.8910  0.1356 -1.8022
  523MOL0     H69019   6.759  10.621   6.619  1.0839 -1.3019  2.5606
  523MOL0     H69020   7.099  10.821   7.112 -0.8143 -0.2173  0.6649
  523MOL0     H69021   7.322  10.817   7.120 -0.2635  1.5090 -0.4898
  523MOL0     H69022   9.016  10.978   7.431  0.1673  1.1598 -0.0352
  523MOL0     H69023   9.228  10.857   7.507  1.7695 -2.3893 -3.0408
  523MOL0     H69024   9.321  10.484   7.950 -2.2259  2.2063  0.3488
  523MOL0     H69025   9.546  10.503   8.053  1.2686 -1.6434 -1.1130
  523MOL0     H69026   9.866  10.723   7.827  1.7092  0.0432 -0.3926
  523MOL0     H69027   9.906  10.554   7.783  2.7239 -0.3899  1.6163
  523MOL0     H69028  10.071  10.681   7.940  1.7695 -0.5930  2.6782
  523MOL0     H69029   9.942  10.682   8.060 -0.3396 -0.7056 -0.7299
  523MOL0     H69030   9.986  10.411   7.966 -1.2481 -0.8413  3.0595
  523MOL0     H69031  10.003  10.470   8.126 -1.3376  0.7679 -0.3076
  523MOL0     H69032  10.231  10.548   8.103  2.6199 -0.6829 -0.2928
  523MOL0     H69033  10.204  10.376   8.072  1.9721  0.0351 -0.5900
  523MOL0     H69034  10.374  10.549   7.714  2.5551 -1.6118  1.7600
  523MOL0     H69035   9.691  10.633   7.666  0.1162 -2.1816 -0.3133
  523MOL0     H69036   9.471  10.631   7.587  0.1287  1.5480  0.3551
  524MOL0     O69037   1.189   7.902   4.198 -0.7293 -0.2004  0.0818
  524MOL0     C69038   1.072   7.880   4.216 -0.6224 -0.4123 -0.0364
  524MOL0     O69039   0.980   7.854   4.120 -0.6658 -0.1645 -0.3289
  524MOL0     C69040   1.021   7.847   3.990  0.0599 -1.4355 -0.3829
  524MOL0     C69041   0.936   7.905   3.895  0.3121 -0.2067  0.6358
  524MOL0     C69042   0.964   7.883   3.757  0.5611 -0.1771 -0.6892
  524MOL0     C69043   1.066   7.806   3.713 -0.7689  0.4192 -0.1091
  524MOL0     O69044   1.085   7.788   3.577 -0.1102 -0.0962 -0.6213
  524MOL0     C69045   1.139   7.663   3.531 -0.1972  1.2494 -0.8274
  524MOL0     C69046   1.127   7.661   3.383 -0.5308 -0.6469 -0.1271
  524MOL0     C69047   1.246   7.727   3.310 -0.2368  0.3211  0.5384
  524MOL0     C69048   1.373   7.639   3.309  0.3856  0.0983  0.6107
  524MOL0     C69049   1.467   7.691   3.202 -0.0600 -0.2661  0.0841
  524MOL0     C69050   1.435   7.658   3.052 -0.8824  0.4924 -0.9757
  524MOL0     C69051   1.424   7.505   3.027  0.2204  0.1926 -0.5371
  524MOL0     C69052   1.548   7.419   3.055  0.4036  0.1909 -0.0728
  524MOL0     N69053   1.651   7.439   2.960  0.6292  0.3130 -0.7085
  524MOL0     C69054   1.744   7.536   2.955 -0.5930  0.3536 -0.1535
  524MOL0     C69055   1.835   7.501   2.863 -0.8549 -0.2405 -0.8568
  524MOL0     C69056   1.965   7.572   2.833  0.2506 -0.3686  0.4331
  524MOL0     C69057   1.966   7.637   2.693 -0.0995 -0.4283  0.2612
  524MOL0     C69058   1.993   7.536   2.586 -0.4203  0.0219 -0.1316
  524MOL0     C69059   2.010   7.588   2.443 -0.0784 -0.1998 -0.1725
  524MOL0     O69060   2.065   7.486   2.361 -0.1239  0.0813  0.0896
  524MOL0     C69061   2.192   7.442   2.359 -0.1036 -0.5815  0.3668
  524MOL0     C69062   2.300   7.507   2.407 -0.3050  0.0038 -0.0125
  524MOL0     C69063   2.425   7.447   2.393 -0.2545  0.6090 -0.4212
  524MOL0     C69064   2.453   7.326   2.328  0.0959  0.6043 -0.2079
  524MOL0     C69065   2.584   7.270   2.311  0.2218 -0.4224 -0.1399
  524MOL0     O69066   2.692   7.331   2.367 -0.1226 -0.8304  1.2849
  524MOL0     C69067   2.797   7.247   2.364 -0.1542  0.6919 -0.2215
  524MOL0     C69068   2.799   7.148   2.468 -0.3129  0.3621  0.8945
  524MOL0     C69069   2.905   7.061   2.464  0.4254  0.2812  0.1406
  524MOL0     C69070   3.020   7.077   2.387  0.2046 -0.0478  1.6591
  524MOL0     O69071   3.131   6.994   2.390  0.4533  0.0993  0.1420
  524MOL0     C69072   3.246   7.059   2.343 -0.5072 -0.6977  0.9467
  524MOL0     C69073   3.364   6.979   2.391 -0.2534 -0.1534  0.7659
  524MOL0     C69074   3.491   7.013   2.327 -0.7187  0.9479 -0.6391
  524MOL0     C69075   3.596   6.904   2.362 -0.0354  0.6493  0.5972
  524MOL0     C69076   3.738   6.957   2.371 -0.0269  0.2238  0.1181
  524MOL0     C69077   3.781   7.035   2.242 -0.2010 -0.6039  0.6708
  524MOL0     C69078   3.919   7.088   2.258 -0.1663  1.3445  0.6981
  524MOL0     C69079   4.016   7.060   2.138 -0.7729 -0.4481 -0.0097
  524MOL0    Cl69080   4.176   7.144   2.157  0.0552  0.4411 -0.2898
  524MOL0     C69081   3.021   7.188   2.293  0.8583  0.5468 -1.0059
  524MOL0     C69082   2.908   7.267   2.279  0.4608  0.0750 -0.0921
  524MOL0     O69083   2.592   7.180   2.229 -0.2164 -0.5922  0.2334
  524MOL0     C69084   2.341   7.267   2.279 -0.4659  0.5130 -0.1899
  524MOL0     C69085   2.218   7.318   2.302  0.3475 -0.0144  0.7069
  524MOL0     N69086   1.792   7.383   2.808 -0.5557  0.8483 -0.3867
  524MOL0     N69087   1.686   7.346   2.868 -0.2431  0.3001  0.5682
  524MOL0     C69088   1.159   7.756   3.806  0.1732  0.1772 -1.1475
  524MOL0     C69089   1.126   7.772   3.945 -0.3158 -0.0111 -0.4388
  524MOL0     C69090   1.034   7.867   4.358 -0.3759 -0.2272 -0.0492
  524MOL0     C69091   1.130   7.871   4.464  0.0581  0.4172  0.0868
  524MOL0     C69092   1.100   7.850   4.592 -0.4712  0.2059  0.3624
  524MOL0     C69093   0.964   7.853   4.633 -0.1259 -0.5440  0.0104
  524MOL0     O69094   0.922   7.858   4.763 -0.7209  0.7152  0.5690
  524MOL0     C69095   1.020   7.868   4.864  1.0645 -0.5698 -0.4083
  524MOL0     C69096   1.097   7.998   4.872 -0.3554 -0.3478  0.7536
  524MOL0     C69097   1.186   8.021   4.992 -0.6151 -0.0191  0.2996
  524MOL0     C69098   1.286   7.904   5.010 -0.1419  0.0922  0.3409
  524MOL0     C69099   1.367   7.887   4.888 -0.4128  0.2844 -0.2859
  524MOL0     C69100   1.435   7.868   4.789  1.0135  0.1865 -0.0005
  524MOL0     C69101   0.868   7.852   4.531 -0.2494 -0.4637  0.7120
  524MOL0     C69102   0.897   7.864   4.389 -0.0637  0.1936 -0.6866
  524MOL0     H69103   0.851   7.971   3.910  2.0340  2.4965 -0.6275
  524MOL0     H69104   0.897   7.925   3.683 -1.5860  0.3134  1.3977
  524MOL0     H69105   1.084   7.578   3.571  2.2418 -0.4621 -0.8965
  524MOL0     H69106   1.236   7.636   3.574 -0.7470  0.5167 -0.0131
  524MOL0     H69107   1.032   7.701   3.348 -1.1889 -0.6144  1.6060
  524MOL0     H69108   1.136   7.557   3.353 -0.1249 -1.6682  3.1746
  524MOL0     H69109   1.271   7.824   3.355  0.5426  1.0720 -1.4176
  524MOL0     H69110   1.220   7.741   3.205  0.0287 -1.0663  0.2664
  524MOL0     H69111   1.423   7.652   3.406  2.4435 -1.4986 -0.1520
  524MOL0     H69112   1.355   7.531   3.305 -1.0701  0.3484 -3.0204
  524MOL0     H69113   1.568   7.651   3.214  1.2911 -0.5390 -7.3980
  524MOL0     H69114   1.487   7.796   3.222 -1.5236 -0.5754  4.0469
  524MOL0     H69115   1.512   7.700   2.986 -0.4204  0.5960 -0.3776
  524MOL0     H69116   1.337   7.699   3.024 -1.6909 -1.1120 -0.5853
  524MOL0     H69117   1.348   7.473   3.099  0.8698  2.7098  1.4350
  524MOL0     H69118   1.382   7.477   2.930  0.4535 -3.1429  0.2163
  524MOL0     H69119   1.505   7.320   3.040  1.0266 -0.3554  1.5251
  524MOL0     H69120   1.578   7.439   3.158 -1.8044  0.6702  0.5479
  524MOL0     H69121   1.759   7.622   3.020  0.4051  0.2655 -0.2530
  524MOL0     H69122   2.052   7.505   2.842  1.4873  0.6738 -2.6138
  524MOL0     H69123   1.989   7.649   2.907  0.2038 -0.5517  0.6416
  524MOL0     H69124   2.044   7.714   2.686  2.0629 -2.6141 -1.4580
  524MOL0     H69125   1.878   7.696   2.667  1.1601  1.8500  0.8391
  524MOL0     H69126   2.088   7.487   2.609  0.8555  1.9401 -1.0695
  524MOL0     H69127   1.909   7.465   2.593 -3.0652  2.7916 -1.6016
  524MOL0     H69128   2.052   7.689   2.435 -0.9221  0.2292  0.5823
  524MOL0     H69129   1.908   7.590   2.403 -0.6614  3.2609  1.0679
  524MOL0     H69130   2.286   7.605   2.453  0.8148  0.8294 -1.3236
  524MOL0     H69131   2.514   7.501   2.423  0.7274 -1.6016  0.8782
  524MOL0     H69132   2.705   7.129   2.520 -1.0792 -3.2247 -1.4913
  524MOL0     H69133   2.897   6.979   2.534  1.8883 -0.2124 -0.2424
  524MOL0     H69134   3.255   7.164   2.372 -1.4309 -0.1639 -0.6167
  524MOL0     H69135   3.250   7.055   2.234 -2.1041  1.4142  0.7396
  524MOL0     H69136   3.343   6.874   2.369  1.9152 -0.2511 -1.1895
  524MOL0     H69137   3.368   6.996   2.499 -0.9992  0.1130  0.7547
  524MOL0     H69138   3.522   7.108   2.373  1.6684  0.4354 -1.0356
  524MOL0     H69139   3.488   7.033   2.220  1.5779  0.4124 -0.8551
  524MOL0     H69140   3.574   6.865   2.462  0.2133  0.7099  0.6784
  524MOL0     H69141   3.583   6.820   2.294  0.4960  1.8102 -0.9963
  524MOL0     H69142   3.808   6.875   2.386 -3.1582 -3.1087 -1.7453
  524MOL0     H69143   3.741   7.027   2.455  0.7370 -0.2350  0.4787
  524MOL0     H69144   3.710   7.110   2.204  0.0038 -1.4347 -1.4843
  524MOL0     H69145   3.789   6.965   2.158  0.8853 -0.0993  0.3317
  524MOL0     H69146   3.912   7.197   2.264 -0.5821  1.5817 -2.6997
  524MOL0     H69147   3.952   7.051   2.356 -0.0347  2.7186  1.1910
  524MOL0     H69148   3.976   7.088   2.041 -2.3111 -1.3855  0.3283
  524MOL0     H69149   4.044   6.955   2.149 -1.1325 -0.5526 -0.0936
  524MOL0     H69150   3.106   7.216   2.232  1.3459  2.8733  0.5901
  524MOL0     H69151   2.910   7.350   2.209 -0.1132  2.8157  2.9143
  524MOL0     H69152   2.347   7.170   2.230  1.3905  0.8888 -0.7859
  524MOL0     H69153   2.133   7.264   2.263  1.6555 -2.3959  0.9661
  524MOL0     H69154   1.251   7.704   3.781 -0.9532 -2.7046  0.3070
  524MOL0     H69155   1.194   7.726   4.017  2.7549 -0.2576 -3.2358
  524MOL0     H69156   1.238   7.876   4.456  0.4046 -2.1381  1.8183
  524MOL0     H69157   1.185   7.841   4.659  1.3906  0.5570 -1.8357
  524MOL0     H69158   1.087   7.781   4.869  2.4106  0.4773  0.7001
  524MOL0     H69159   0.951   7.867   4.948 -0.7229  0.8780 -1.7741
  524MOL0     H69160   1.141   8.019   4.774 -1.6627 -1.3872 -0.0909
  524MOL0     H69161   1.044   8.093   4.871 -0.3873 -0.2317 -3.0769
  524MOL0     H69162   1.119   8.024   5.078 -0.2698  3.5179  0.6022
  524MOL0     H69163   1.245   8.112   4.979 -0.6720 -0.1591 -1.1598
  524MOL0     H69164   1.345   7.929   5.099 -1.2234  0.5867  0.9382
  524MOL0     H69165   1.235   7.811   5.037 -0.2193  0.1881  0.5298
  524MOL0     H69166   1.500   7.843   4.708  2.4160  0.4458  0.9889
  524MOL0     H69167   0.761   7.845   4.553 -0.6977 -0.9739 -1.3978
  524MOL0     H69168   0.818   7.857   4.316 -1.8489 -0.8559  1.2364
  525MOL0     O69169   7.045   3.652   7.584 -0.6685  0.6950 -0.1993
  525MOL0     C69170   7.052   3.759   7.522  0.0498  0.1304 -0.5345
  525MOL0     O69171   6.952   3.810   7.443 -0.1854  0.7482  0.9040
  525MOL0     C69172   6.822   3.757   7.452  0.0696  0.1228  0.4133
  525MOL0     C69173   6.749   3.754   7.571  0.8702  0.1374 -0.5751
  525MOL0     C69174   6.611   3.728   7.577 -0.4075 -0.5998 -0.3832
  525MOL0     C69175   6.543   3.703   7.454 -0.5767 -0.2781  0.2654
  525MOL0     O69176   6.405   3.690   7.457  0.2513  0.1211  0.1666
  525MOL0     C69177   6.338   3.676   7.330 -0.3018  0.0513  0.9119
  525MOL0     C69178   6.188   3.708   7.352 -0.9244  1.5313  0.0840
  525MOL0     C69179   6.127   3.579   7.406 -0.6869 -0.1033 -0.2520
  525MOL0     C69180   5.978   3.576   7.375  0.4159 -0.4634  0.3611
  525MOL0     C69181   5.890   3.502   7.480  0.4909 -0.1660 -0.0109
  525MOL0     C69182   5.856   3.588   7.604  0.0472  0.8377 -0.5184
  525MOL0     C69183   5.756   3.697   7.591  0.4400 -0.0528 -0.5929
  525MOL0     C69184   5.613   3.658   7.537 -0.4259  0.6221  0.6792
  525MOL0     N69185   5.517   3.752   7.597  0.0605  0.0705  0.1275
  525MOL0     C69186   5.480   3.755   7.730  0.8480  0.5632 -0.3412
  525MOL0     C69187   5.412   3.871   7.744 -0.5742  0.6681 -0.0496
  525MOL0     C69188   5.358   3.921   7.878 -0.1395  1.1347 -0.1906
  525MOL0     C69189   5.260   4.026   7.858  0.6727 -0.7888  0.5962
  525MOL0     C69190   5.209   4.057   7.995  0.3220 -0.1952  0.5705
  525MOL0     C69191   5.073   4.004   8.017 -0.1507 -0.8540 -0.2896
  525MOL0     O69192   4.982   4.075   7.929  0.3351  0.4090 -0.8178
  525MOL0     C69193   4.849   4.095   7.969 -0.5982  0.5839  0.2187
  525MOL0     C69194   4.759   4.100   7.866 -0.2490 -0.0994  0.4138
  525MOL0     C69195   4.624   4.135   7.882  0.0279  0.4999 -0.0574
  525MOL0     C69196   4.576   4.158   8.016 -0.3462  0.1879  0.7151
  525MOL0     C69197   4.432   4.192   8.045 -0.6264  0.9322 -0.4039
  525MOL0     O69198   4.338   4.177   7.954 -0.0844 -0.6010 -0.3578
  525MOL0     C69199   4.224   4.255   7.963  0.5975  0.1211 -0.2097
  525MOL0     C69200   4.213   4.382   8.033  0.0436  0.1978 -0.2479
  525MOL0     C69201   4.095   4.456   8.017 -1.2095 -0.0437 -0.4296
  525MOL0     C69202   3.985   4.411   7.939 -0.3580  0.4254 -0.5648
  525MOL0     O69203   3.872   4.480   7.925  0.0319  0.3010  0.4449
  525MOL0     C69204   3.851   4.603   8.003 -0.1777  0.0130  0.3670
  525MOL0     C69205   3.709   4.646   7.990 -0.1727 -0.1247  0.5269
  525MOL0     C69206   3.677   4.761   8.086 -0.1412  0.0402  0.0208
  525MOL0     C69207   3.537   4.815   8.053 -0.0002  0.8228  0.1754
  525MOL0     C69208   3.511   4.955   8.122 -0.5910  0.5045 -0.1696
  525MOL0     C69209   3.363   4.970   8.170 -0.2573  0.1205  0.4011
  525MOL0     C69210   3.326   5.091   8.253  0.0559  0.2862  0.3621
  525MOL0     C69211   3.419   5.210   8.232 -0.3929 -0.1139  0.1396
  525MOL0    Cl69212   3.371   5.344   8.353  0.0357 -0.3640  0.5441
  525MOL0     C69213   3.991   4.285   7.883 -0.3435  0.0799 -0.4119
  525MOL0     C69214   4.111   4.209   7.885 -0.7599 -0.2661  0.6207
  525MOL0     O69215   4.417   4.213   8.162 -0.3729 -0.2903 -0.3441
  525MOL0     C69216   4.677   4.164   8.119  1.0496 -0.1586  0.4212
  525MOL0     C69217   4.805   4.132   8.093 -0.4110 -0.6673  0.0651
  525MOL0     N69218   5.434   3.945   7.627  0.7831 -0.4667 -0.3112
  525MOL0     N69219   5.467   3.868   7.532  0.3473  0.2790  0.3559
  525MOL0     C69220   6.612   3.714   7.338 -0.1515 -0.2179  0.9729
  525MOL0     C69221   6.754   3.738   7.339  0.2018  0.5666  0.1241
  525MOL0     C69222   7.166   3.836   7.548  0.4026  0.1881  0.0205
  525MOL0     C69223   7.189   3.960   7.473 -0.1611 -0.5115  0.2140
  525MOL0     C69224   7.304   4.036   7.486  0.0979 -0.0444  0.0142
  525MOL0     C69225   7.408   3.998   7.571  0.3780  0.0337 -0.0940
  525MOL0     O69226   7.526   4.065   7.607 -0.1094 -0.2384  0.0726
  525MOL0     C69227   7.537   4.205   7.618 -0.0388  0.9682  0.4265
  525MOL0     C69228   7.657   4.250   7.703 -0.3685  0.8278 -0.6584
  525MOL0     C69229   7.777   4.190   7.636 -0.1432 -0.3772 -0.7045
  525MOL0     C69230   7.900   4.208   7.722 -0.3833 -0.0116  0.0489
  525MOL0     C69231   7.974   4.329   7.680 -0.2243  0.4364 -0.6772
  525MOL0     C69232   8.039   4.431   7.658  0.3699 -0.1527 -0.6385
  525MOL0     C69233   7.385   3.878   7.646  0.1083 -0.5580  0.4232
  525MOL0     C69234   7.274   3.798   7.633  0.2698 -0.1468  0.0431
  525MOL0     H69235   6.795   3.786   7.664  0.2119 -2.0118  0.5431
  525MOL0     H69236   6.553   3.749   7.666  1.5290  0.3452  0.7172
  525MOL0     H69237   6.339   3.583   7.274 -0.4398  1.8611 -2.3556
  525MOL0     H69238   6.372   3.747   7.255 -1.6573  0.1578  0.3572
  525MOL0     H69239   6.140   3.742   7.260 -0.4253  0.5214 -0.5751
  525MOL0     H69240   6.179   3.783   7.431 -2.2946  3.5173 -1.8397
  525MOL0     H69241   6.139   3.566   7.514  1.2669 -2.5169 -0.6772
  525MOL0     H69242   6.181   3.492   7.369  0.3197 -0.6067  2.2007
  525MOL0     H69243   5.942   3.679   7.371  1.3625 -0.1635 -1.1404
  525MOL0     H69244   5.979   3.528   7.277  0.7546  2.5585 -1.2137
  525MOL0     H69245   5.926   3.402   7.506  0.3176  0.1400  1.4752
  525MOL0     H69246   5.794   3.489   7.429  0.9453 -0.4522 -0.8126
  525MOL0     H69247   5.952   3.625   7.642 -1.2063  0.9750  2.8897
  525MOL0     H69248   5.824   3.525   7.687  0.9874  2.6176  1.2895
  525MOL0     H69249   5.741   3.752   7.684 -3.3810 -2.4545  0.4492
  525MOL0     H69250   5.792   3.773   7.521 -1.3632  1.1013 -0.3271
  525MOL0     H69251   5.595   3.556   7.573  0.4044  1.1767  2.8352
  525MOL0     H69252   5.608   3.663   7.428 -0.4531  2.4054  0.7323
  525MOL0     H69253   5.487   3.676   7.804 -0.7304  1.1034  0.4258
  525MOL0     H69254   5.438   3.967   7.937  0.1510  5.6787 -3.5606
  525MOL0     H69255   5.316   3.838   7.936  0.7439  0.0448 -1.0496
  525MOL0     H69256   5.179   3.990   7.794  1.3276 -0.4513 -0.4535
  525MOL0     H69257   5.292   4.122   7.816 -2.2330 -0.6705 -1.7204
  525MOL0     H69258   5.274   4.012   8.071  0.1089 -1.4004  0.0743
  525MOL0     H69259   5.207   4.166   8.001 -1.4835 -0.2560  1.8929
  525MOL0     H69260   5.050   4.020   8.123  1.3159  2.5721 -0.3310
  525MOL0     H69261   5.070   3.899   7.985  0.2455 -1.0964  0.4499
  525MOL0     H69262   4.798   4.080   7.766 -2.4566  1.2559 -0.8249
  525MOL0     H69263   4.552   4.143   7.801  0.0075 -0.1085 -0.1096
  525MOL0     H69264   4.286   4.420   8.105  0.3424 -0.1832 -0.3454
  525MOL0     H69265   4.088   4.540   8.085  2.6592 -1.9436  2.7300
  525MOL0     H69266   3.912   4.684   7.963 -0.1121 -0.0118  0.4157
  525MOL0     H69267   3.875   4.586   8.108 -1.5201 -3.4987  0.2728
  525MOL0     H69268   3.632   4.569   8.001  2.2301 -2.4131  2.5267
  525MOL0     H69269   3.702   4.683   7.887  1.3951 -3.5080 -0.9721
  525MOL0     H69270   3.747   4.839   8.053 -1.6657  1.1088 -0.8079
  525MOL0     H69271   3.692   4.726   8.189  0.0514  0.7712  0.2458
  525MOL0     H69272   3.522   4.811   7.945  0.7236 -0.8765  0.1160
  525MOL0     H69273   3.462   4.741   8.083  1.4049 -1.0249 -0.6739
  525MOL0     H69274   3.528   5.037   8.052  0.0562  3.1843  2.8980
  525MOL0     H69275   3.577   4.956   8.210 -1.1093  1.7890  0.2171
  525MOL0     H69276   3.338   4.889   8.239 -0.7987  0.5792  0.7488
  525MOL0     H69277   3.302   4.973   8.079  1.5824  0.8716 -0.8737
  525MOL0     H69278   3.226   5.121   8.220 -0.5456 -0.5328  1.3725
  525MOL0     H69279   3.327   5.070   8.360  3.1872  1.3373  0.6363
  525MOL0     H69280   3.405   5.241   8.128  2.2048 -5.1053 -2.0988
  525MOL0     H69281   3.522   5.179   8.252 -0.9022 -0.7622  2.0200
  525MOL0     H69282   3.905   4.254   7.824 -2.2567 -2.1419  3.1305
  525MOL0     H69283   4.112   4.123   7.819 -1.9699 -1.7198  2.4263
  525MOL0     H69284   4.655   4.195   8.221  3.3189  0.4115  0.7934
  525MOL0     H69285   4.871   4.158   8.175 -1.3479  2.6153 -0.0409
  525MOL0     H69286   6.564   3.697   7.243  1.1293  2.6760 -0.3057
  525MOL0     H69287   6.807   3.746   7.245  2.2965  0.3933  1.2462
  525MOL0     H69288   7.104   3.993   7.414 -0.2100 -0.9493  0.0354
  525MOL0     H69289   7.321   4.132   7.438  0.1001  0.4072  0.8833
  525MOL0     H69290   7.453   4.232   7.683 -1.1154  0.4944 -0.7189
  525MOL0     H69291   7.537   4.256   7.521  1.9863  1.5757  0.6967
  525MOL0     H69292   7.668   4.358   7.714 -2.8437  0.9345  1.8032
  525MOL0     H69293   7.633   4.214   7.804  1.1898  0.7858 -0.2784
  525MOL0     H69294   7.807   4.231   7.539  0.5372  1.1371  0.1134
  525MOL0     H69295   7.752   4.084   7.628 -0.9308 -0.3222  0.7063
  525MOL0     H69296   7.889   4.203   7.831  0.6658 -1.0464  0.1275
  525MOL0     H69297   7.968   4.123   7.721 -1.6328 -1.0362 -0.2088
  525MOL0     H69298   8.063   4.532   7.632  0.2206  0.3932  1.1818
  525MOL0     H69299   7.462   3.844   7.714  2.1451 -1.2617 -2.0672
  525MOL0     H69300   7.268   3.705   7.689  3.6603  0.8821  2.4409
  526MOL0     O69301   3.013   2.612   2.830  0.2014  0.1494  0.0925
  526MOL0     C69302   3.037   2.664   2.937  0.0882  0.3096 -0.0290
  526MOL0     O69303   2.944   2.715   3.020  0.1609  0.6208 -0.1290
  526MOL0     C69304   2.815   2.677   3.002 -0.4779  0.6995  0.8819
  526MOL0     C69305   2.770   2.580   3.078 -0.0875 -0.4432  0.2147
  526MOL0     C69306   2.633   2.555   3.082 -0.6045 -0.6022 -0.2492
  526MOL0     C69307   2.546   2.632   3.008  1.8817  0.6349  0.4489
  526MOL0     O69308   2.410   2.617   3.010  1.0539 -0.1251 -0.0672
  526MOL0     C69309   2.346   2.539   3.112  0.4700 -0.2999 -0.5836
  526MOL0     C69310   2.190   2.575   3.136 -0.0017  0.6056  0.7020
  526MOL0     C69311   2.155   2.724   3.121 -1.2708 -0.5660 -0.4561
  526MOL0     C69312   2.216   2.812   3.231  1.1778 -0.4897  0.4161
  526MOL0     C69313   2.141   2.937   3.262  0.5201 -0.1815  0.4986
  526MOL0     C69314   1.998   2.921   3.325 -0.0499  0.2380 -0.4958
  526MOL0     C69315   1.984   2.818   3.437  0.1628 -0.1528 -0.1049
  526MOL0     C69316   1.850   2.836   3.518 -0.5377 -0.0625  0.5566
  526MOL0     N69317   1.816   2.969   3.561 -0.4614 -0.3504 -1.0212
  526MOL0     C69318   1.840   3.017   3.688 -0.1691  0.7060 -0.1591
  526MOL0     C69319   1.765   3.125   3.699  0.2248  0.1681  0.1195
  526MOL0     C69320   1.753   3.204   3.831 -0.0638 -0.4705 -0.1075
  526MOL0     C69321   1.612   3.199   3.887  0.5522  0.1380 -0.1500
  526MOL0     C69322   1.563   3.052   3.907  0.7682  0.4411  0.8911
  526MOL0     C69323   1.417   3.068   3.956  0.4086  0.9620 -0.2665
  526MOL0     O69324   1.408   3.166   4.058  0.2216  0.3982  0.3219
  526MOL0     C69325   1.284   3.223   4.057  1.0937 -0.6550  0.3400
  526MOL0     C69326   1.249   3.309   3.952  0.0897 -0.3596 -0.7314
  526MOL0     C69327   1.122   3.378   3.967  0.2844  0.3343  0.0436
  526MOL0     C69328   1.031   3.356   4.077  0.4401  0.2655  0.0998
  526MOL0     C69329   0.894   3.412   4.078  0.8409  0.5329 -0.0302
  526MOL0     O69330   0.843   3.419   4.204  0.1741 -0.0518  0.2386
  526MOL0     C69331   0.715   3.479   4.214 -0.0637  0.2271  0.2142
  526MOL0     C69332   0.596   3.416   4.176  0.6675 -0.5407  0.1580
  526MOL0     C69333   0.473   3.476   4.202  0.5344  0.8583  0.3963
  526MOL0     C69334   0.458   3.592   4.263  0.4316  0.1371  0.1031
  526MOL0     O69335   0.328   3.628   4.293 -0.1487  0.3816 -0.1068
  526MOL0     C69336   0.293   3.715   4.398 -0.4279  0.3602 -0.2780
  526MOL0     C69337   0.333   3.655   4.542 -0.3253 -0.2906 -0.2034
  526MOL0     C69338   0.245   3.534   4.571 -0.7014 -0.8804 -0.5077
  526MOL0     C69339   0.110   3.572   4.630 -0.1315 -0.4594 -0.8009
  526MOL0     C69340   0.019   3.448   4.626 -0.6571  0.7971 -1.1297
  526MOL0     C69341  -0.081   3.455   4.731  0.9945  0.3037  0.1460
  526MOL0     C69342  -0.150   3.593   4.749 -0.8498  0.5944  0.1157
  526MOL0     C69343  -0.245   3.580   4.872  0.4037 -0.0194 -0.1238
  526MOL0    Cl69344  -0.300   3.753   4.890 -0.2573  0.3063 -0.1334
  526MOL0     C69345   0.570   3.664   4.300 -0.2273  0.5891  0.5850
  526MOL0     C69346   0.699   3.605   4.274  0.4590 -0.6812 -0.1723
  526MOL0     O69347   0.842   3.453   3.973 -0.4168  0.1490 -0.5283
  526MOL0     C69348   1.078   3.266   4.172  0.6460 -0.1607  0.2797
  526MOL0     C69349   1.199   3.198   4.154 -0.1947 -0.2415 -0.4825
  526MOL0     N69350   1.699   3.147   3.578 -0.0473  0.1894 -0.3139
  526MOL0     N69351   1.725   3.045   3.495 -0.5673  0.0098  0.1554
  526MOL0     C69352   2.599   2.730   2.933 -0.4322 -0.7561  0.5829
  526MOL0     C69353   2.738   2.758   2.927  0.4093  0.7839 -0.6155
  526MOL0     C69354   3.184   2.688   2.971 -0.1436 -0.5675 -0.3729
  526MOL0     C69355   3.280   2.682   2.871 -0.0608 -1.1118  0.1923
  526MOL0     C69356   3.409   2.724   2.892 -0.5051  0.1998  0.5586
  526MOL0     C69357   3.445   2.747   3.028 -0.1722  0.0188  0.8492
  526MOL0     O69358   3.568   2.760   3.079  0.3917 -0.0979 -0.1441
  526MOL0     C69359   3.674   2.703   3.010 -0.6659  0.3471  0.2308
  526MOL0     C69360   3.681   2.549   3.009  0.2972 -0.1611 -0.9866
  526MOL0     C69361   3.706   2.512   3.153 -0.1044 -0.1700  0.8110
  526MOL0     C69362   3.672   2.372   3.189 -0.7771  0.6638 -0.2254
  526MOL0     C69363   3.787   2.283   3.180  0.1256  0.2932 -0.1274
  526MOL0     C69364   3.898   2.231   3.155 -0.1749  0.0618 -0.3706
  526MOL0     C69365   3.342   2.736   3.128 -0.5490 -0.1929  0.0144
  526MOL0     C69366   3.214   2.726   3.097  0.2483  0.4578 -0.5216
  526MOL0     H69367   2.844   2.520   3.128 -2.2400 -2.2872  1.3710
  526MOL0     H69368   2.594   2.476   3.146 -0.6906  0.9018  1.6557
  526MOL0     H69369   2.396   2.551   3.208  0.1768  0.2701 -0.4984
  526MOL0     H69370   2.360   2.434   3.082  0.8167 -0.5144  0.2964
  526MOL0     H69371   2.159   2.547   3.237 -0.8145 -0.8073  0.0887
  526MOL0     H69372   2.135   2.506   3.071  0.0993 -1.6277  2.8559
  526MOL0     H69373   2.046   2.723   3.125 -1.2771 -2.3644 -0.3151
  526MOL0     H69374   2.188   2.763   3.024  2.0049 -1.8835 -0.0074
  526MOL0     H69375   2.225   2.758   3.325  0.9132 -0.8069  0.2612
  526MOL0     H69376   2.318   2.843   3.205  1.6690 -1.4145  1.1765
  526MOL0     H69377   2.138   3.011   3.181  0.5425 -2.9163 -2.1555
  526MOL0     H69378   2.202   2.984   3.339  0.1937 -1.7949  1.7865
  526MOL0     H69379   1.923   2.905   3.247 -1.0608  0.6476  0.3685
  526MOL0     H69380   1.966   3.018   3.365  0.1561 -0.3668  1.2288
  526MOL0     H69381   1.980   2.719   3.391  0.0937 -0.2899  0.1909
  526MOL0     H69382   2.072   2.822   3.502  0.9303 -1.2025 -1.0500
  526MOL0     H69383   1.875   2.773   3.605  1.9897  1.1433  0.8042
  526MOL0     H69384   1.772   2.792   3.456 -0.3873 -1.7001  1.4501
  526MOL0     H69385   1.894   2.965   3.767  0.2784 -1.8973 -2.0478
  526MOL0     H69386   1.770   3.309   3.804  2.2342 -0.8660 -0.4042
  526MOL0     H69387   1.839   3.184   3.896  1.1057 -0.7913 -1.6858
  526MOL0     H69388   1.542   3.244   3.817  0.1450 -0.0174  0.1509
  526MOL0     H69389   1.609   3.261   3.977 -3.0931 -0.9135  0.6268
  526MOL0     H69390   1.568   3.005   3.808  2.5829  2.9460 -0.3284
  526MOL0     H69391   1.629   2.994   3.973  0.7214  0.3710  0.8764
  526MOL0     H69392   1.376   2.974   3.995  1.4034  1.5525  2.4031
  526MOL0     H69393   1.356   3.084   3.867  3.2660 -2.6224 -3.2084
  526MOL0     H69394   1.312   3.340   3.869  2.3162  0.0738  1.0079
  526MOL0     H69395   1.103   3.453   3.890 -2.1026 -0.3824 -0.1420
  526MOL0     H69396   0.590   3.323   4.120 -1.3521 -0.7699  0.6566
  526MOL0     H69397   0.381   3.426   4.174  2.2348 -1.7066 -1.0189
  526MOL0     H69398   0.187   3.744   4.396 -1.4948 -3.0267  0.1187
  526MOL0     H69399   0.357   3.804   4.397  0.2389 -0.1236 -1.0479
  526MOL0     H69400   0.332   3.741   4.609  0.8757 -0.3153 -0.1379
  526MOL0     H69401   0.438   3.624   4.537 -0.1789 -0.1565  1.5101
  526MOL0     H69402   0.305   3.488   4.650  2.2431  3.1590 -0.0570
  526MOL0     H69403   0.236   3.465   4.487 -2.6062 -2.2876  0.7954
  526MOL0     H69404   0.121   3.602   4.735 -5.7389 -0.5950  0.1391
  526MOL0     H69405   0.067   3.663   4.585 -2.6174 -0.8643  0.5527
  526MOL0     H69406   0.073   3.354   4.642 -0.7893  0.9477  0.3323
  526MOL0     H69407  -0.028   3.433   4.528 -2.9911 -1.0149  0.1649
  526MOL0     H69408  -0.034   3.423   4.825 -0.3043 -2.9379 -0.1862
  526MOL0     H69409  -0.149   3.378   4.692 -1.0543  2.3063 -0.4373
  526MOL0     H69410  -0.075   3.670   4.770 -1.2899  0.9661  0.3610
  526MOL0     H69411  -0.192   3.635   4.657 -0.3600 -3.4698 -2.1835
  526MOL0     H69412  -0.192   3.547   4.962  0.6648 -2.3217 -1.0640
  526MOL0     H69413  -0.330   3.516   4.848 -1.7928  2.6975 -0.0100
  526MOL0     H69414   0.550   3.755   4.356  0.8068  0.1783  1.6692
  526MOL0     H69415   0.786   3.652   4.320 -1.4924  0.6647  2.4271
  526MOL0     H69416   1.003   3.239   4.246  0.3211  1.7202  0.6801
  526MOL0     H69417   1.233   3.121   4.223  2.1800 -0.7844 -2.1204
  526MOL0     H69418   2.529   2.792   2.877  1.1429  0.7994  0.2353
  526MOL0     H69419   2.791   2.831   2.868  2.2259  0.5515  0.6607
  526MOL0     H69420   3.244   2.664   2.770  0.4031 -1.7466  0.1384
  526MOL0     H69421   3.482   2.736   2.812 -2.0862  2.4612 -0.6539
  526MOL0     H69422   3.770   2.741   3.048 -0.4493 -0.3470  0.3875
  526MOL0     H69423   3.688   2.734   2.906 -0.1199 -1.2650 -0.2107
  526MOL0     H69424   3.585   2.512   2.972 -0.6944 -0.3298  1.5209
  526MOL0     H69425   3.768   2.511   2.954 -1.9412 -1.0508 -4.2108
  526MOL0     H69426   3.654   2.584   3.218  2.7401  1.4304  1.5272
  526MOL0     H69427   3.813   2.524   3.177  0.3776 -0.8879 -0.8544
  526MOL0     H69428   3.615   2.360   3.282  1.4285  1.0964  1.2638
  526MOL0     H69429   3.621   2.320   3.108  0.1188  0.9027 -0.9612
  526MOL0     H69430   3.985   2.183   3.114 -0.4822 -1.5522  0.7647
  526MOL0     H69431   3.381   2.750   3.229  0.8586 -2.4268 -0.1364
  526MOL0     H69432   3.137   2.732   3.173  1.1375  0.9594  0.3689
  527MOL0     O69433   9.955   2.683  10.445 -0.1834  0.1094 -0.5655
  527MOL0     C69434   9.949   2.624  10.340  0.6353 -0.1077  0.2030
  527MOL0     O69435  10.046   2.609  10.253 -0.2368  0.7741 -0.4499
  527MOL0     C69436  10.181   2.632  10.277 -0.6733  0.5025 -0.6174
  527MOL0     C69437  10.255   2.681  10.169 -0.8593  0.3903 -0.0677
  527MOL0     C69438  10.380   2.728  10.182  0.0012  0.2078 -0.8524
  527MOL0     C69439  10.448   2.712  10.303  0.1138 -0.4632 -0.2957
  527MOL0     O69440  10.579   2.748  10.300  0.3152 -0.6708  0.7915
  527MOL0     C69441  10.627   2.823  10.413 -0.6773  0.4216  0.5045
  527MOL0     C69442  10.768   2.893  10.373  0.7676 -0.5240  0.3429
  527MOL0     C69443  10.761   2.968  10.240  0.4649  1.2841 -0.5684
  527MOL0     C69444  10.676   3.091  10.258  0.0334 -0.0490  0.3144
  527MOL0     C69445  10.638   3.165  10.128  0.3364  0.2790  0.2455
  527MOL0     C69446  10.561   3.080  10.036 -0.8053 -0.1432  0.7684
  527MOL0     C69447  10.450   3.147   9.958  0.0733  0.4472  0.4265
  527MOL0     C69448  10.453   3.118   9.806 -0.9058 -0.7217  0.2666
  527MOL0     N69449  10.367   3.210   9.742 -0.2315  0.0556 -0.2064
  527MOL0     C69450  10.230   3.197   9.735  0.0851  0.7286  0.2122
  527MOL0     C69451  10.186   3.315   9.687 -0.1637 -0.2178  0.3693
  527MOL0     C69452  10.051   3.362   9.650 -0.4993 -0.1686 -0.9280
  527MOL0     C69453  10.018   3.495   9.723  0.2568 -0.0490 -0.4341
  527MOL0     C69454   9.875   3.476   9.782 -0.1289  0.1504 -0.4047
  527MOL0     C69455   9.838   3.606   9.831  0.2916  0.1560 -0.1149
  527MOL0     O69456   9.719   3.582   9.908  0.4032  0.0434 -0.1388
  527MOL0     C69457   9.599   3.651   9.866 -0.3073 -0.1150 -0.3473
  527MOL0     C69458   9.558   3.744   9.958 -0.0699 -0.4313  0.3105
  527MOL0     C69459   9.445   3.818   9.935 -0.1667 -0.4311  1.4400
  527MOL0     C69460   9.364   3.795   9.821 -0.1817 -0.1164  0.5369
  527MOL0     C69461   9.248   3.877   9.797 -0.1893 -0.4405 -0.4517
  527MOL0     O69462   9.180   3.853   9.686  0.4705 -0.6143  0.0047
  527MOL0     C69463   9.051   3.901   9.680  0.4423  0.3301 -0.5547
  527MOL0     C69464   8.948   3.834   9.755 -0.5584  0.7466 -0.2937
  527MOL0     C69465   8.818   3.883   9.753  0.2341  0.8628 -0.4681
  527MOL0     C69466   8.783   3.999   9.685 -0.8076  0.3655  0.7759
  527MOL0     O69467   8.651   4.046   9.679  0.5423  0.0455  0.5414
  527MOL0     C69468   8.574   4.015   9.800 -1.0205  0.2089 -0.1107
  527MOL0     C69469   8.431   4.052   9.771  1.2873  0.3776  0.2040
  527MOL0     C69470   8.365   3.968   9.658  0.7487  0.5674 -0.8749
  527MOL0     C69471   8.252   4.057   9.595 -0.0676  0.3112  0.6719
  527MOL0     C69472   8.174   4.005   9.479 -0.2446  0.0752 -0.6441
  527MOL0     C69473   8.087   3.895   9.509 -0.0875  0.9733  0.2990
  527MOL0     C69474   7.970   3.869   9.411 -0.1413 -0.0354  0.3191
  527MOL0     C69475   8.018   3.788   9.283 -0.5893  0.2056 -0.8843
  527MOL0    Cl69476   8.085   3.914   9.173 -0.1432  0.0929  0.1317
  527MOL0     C69477   8.887   4.072   9.624 -0.0452 -0.4500  0.9255
  527MOL0     C69478   9.019   4.023   9.620 -0.5087  0.6669 -0.1638
  527MOL0     O69479   9.207   3.949   9.891  0.1605  0.4563  0.0136
  527MOL0     C69480   9.414   3.699   9.731 -0.5014  0.5495  0.8591
  527MOL0     C69481   9.532   3.627   9.752  0.0454  0.1911 -0.4738
  527MOL0     N69482  10.299   3.394   9.652 -0.1934  0.4596 -0.2149
  527MOL0     N69483  10.407   3.332   9.688  0.6250 -0.3705  0.0050
  527MOL0     C69484  10.383   2.650  10.410  0.7783 -0.1500  0.3376
  527MOL0     C69485  10.247   2.620  10.407  0.5421  0.5332  0.1496
  527MOL0     C69486   9.817   2.559  10.316 -0.2411 -0.3182 -0.4492
  527MOL0     C69487   9.703   2.606  10.385  0.9144  0.0604  0.3072
  527MOL0     C69488   9.576   2.558  10.350  0.0564  0.4379  0.0804
  527MOL0     C69489   9.569   2.443  10.264 -0.1600 -0.9391 -0.2483
  527MOL0     O69490   9.453   2.372  10.239 -0.1851 -0.5884  0.0910
  527MOL0     C69491   9.330   2.440  10.249  0.6160  0.7943 -0.0711
  527MOL0     C69492   9.301   2.551  10.144 -0.8010 -0.1829  0.3979
  527MOL0     C69493   9.331   2.511   9.999  0.2743  0.2873  1.0951
  527MOL0     C69494   9.281   2.608   9.891  0.6252 -0.3399 -0.4767
  527MOL0     C69495   9.273   2.543   9.762 -0.3922  0.6457  0.7354
  527MOL0     C69496   9.268   2.485   9.653  0.0627  0.0124 -0.0587
  527MOL0     C69497   9.684   2.391  10.213  0.5495  0.6005 -0.6874
  527MOL0     C69498   9.802   2.451  10.222 -0.1612 -0.7605 -0.2792
  527MOL0     H69499  10.202   2.685  10.075 -0.7433 -1.3331 -0.2335
  527MOL0     H69500  10.441   2.770  10.102  0.8176  1.1428  0.2333
  527MOL0     H69501  10.656   2.764  10.501  1.2957  0.1204 -0.2974
  527MOL0     H69502  10.553   2.897  10.442  0.3945  1.5507  0.4429
  527MOL0     H69503  10.839   2.810  10.377  0.0825 -1.3243 -2.2948
  527MOL0     H69504  10.788   2.972  10.447 -0.5278  1.6121 -1.4394
  527MOL0     H69505  10.716   2.901  10.166  0.9126 -0.2219  0.4767
  527MOL0     H69506  10.860   2.990  10.198  1.0677  1.4022  0.8680
  527MOL0     H69507  10.587   3.069  10.318  0.5608  1.0113  1.5216
  527MOL0     H69508  10.742   3.161  10.309 -0.9738  0.1234  1.4052
  527MOL0     H69509  10.727   3.198  10.074 -0.0113 -1.2453 -1.3407
  527MOL0     H69510  10.580   3.255  10.150  0.7900  0.9787 -1.3223
  527MOL0     H69511  10.495   3.011  10.089 -1.4612 -1.1705 -1.2430
  527MOL0     H69512  10.634   3.023   9.976 -1.8169 -3.6535  2.6025
  527MOL0     H69513  10.349   3.131   9.997 -0.8834  3.0702 -0.7185
  527MOL0     H69514  10.466   3.254   9.975  0.3413  0.5051 -0.1621
  527MOL0     H69515  10.425   3.015   9.781  0.5422 -0.4538 -2.8647
  527MOL0     H69516  10.557   3.132   9.776 -0.7932 -0.1352  0.9024
  527MOL0     H69517  10.171   3.111   9.764  0.8352  0.5829  1.3537
  527MOL0     H69518   9.987   3.281   9.685  1.1224 -0.4567  1.6590
  527MOL0     H69519  10.037   3.378   9.543  0.4940  0.3080 -0.9976
  527MOL0     H69520  10.018   3.581   9.655  1.2899  0.9546  0.7985
  527MOL0     H69521  10.087   3.528   9.800  0.0637  1.1320 -0.7534
  527MOL0     H69522   9.805   3.452   9.702 -0.5011 -1.5230  0.3747
  527MOL0     H69523   9.866   3.402   9.862 -0.8860 -2.9410 -3.1197
  527MOL0     H69524   9.828   3.687   9.757 -1.6830  1.7757  1.8017
  527MOL0     H69525   9.908   3.647   9.904 -2.3773 -0.8462  3.2688
  527MOL0     H69526   9.606   3.762  10.054  0.9693 -1.5794  0.0266
  527MOL0     H69527   9.413   3.894  10.005  2.3438  2.6779 -0.4835
  527MOL0     H69528   8.977   3.749   9.817 -0.5016 -1.3718 -3.0369
  527MOL0     H69529   8.745   3.827   9.809 -1.6535  2.8215 -0.8209
  527MOL0     H69530   8.610   4.066   9.890  0.0903 -1.0651  0.1861
  527MOL0     H69531   8.559   3.909   9.819 -3.3044  0.6696  1.0159
  527MOL0     H69532   8.434   4.159   9.747  2.0483 -0.0500 -1.7288
  527MOL0     H69533   8.373   4.040   9.864  1.6565  0.0801  0.3995
  527MOL0     H69534   8.330   3.882   9.717  1.4099  0.2727 -0.8913
  527MOL0     H69535   8.450   3.945   9.592  1.9935 -0.6996  1.0319
  527MOL0     H69536   8.188   4.095   9.675 -1.0207  1.2588 -0.4892
  527MOL0     H69537   8.307   4.146   9.562  2.4284 -0.6202  2.0461
  527MOL0     H69538   8.251   3.975   9.408  0.0597 -1.6152  0.3355
  527MOL0     H69539   8.119   4.089   9.436 -0.7365 -0.1816 -0.5212
  527MOL0     H69540   8.041   3.920   9.606  1.0092  0.3134  1.0098
  527MOL0     H69541   8.142   3.803   9.528 -2.7838 -0.4752  1.7644
  527MOL0     H69542   7.891   3.820   9.468  0.4930 -0.5767  0.7421
  527MOL0     H69543   7.929   3.966   9.380  2.5535  1.8375  2.2274
  527MOL0     H69544   7.925   3.747   9.242 -0.0051 -1.7972 -0.3261
  527MOL0     H69545   8.089   3.711   9.316  1.1017  3.4584  4.3310
  527MOL0     H69546   8.866   4.163   9.569  0.7621 -1.0041 -0.3582
  527MOL0     H69547   9.096   4.078   9.567 -0.5756 -1.8968 -3.1808
  527MOL0     H69548   9.352   3.681   9.644 -1.3393  0.1280  1.5319
  527MOL0     H69549   9.568   3.555   9.680 -3.6419 -0.1560 -2.1869
  527MOL0     H69550  10.434   2.625  10.503  1.1969  0.4775  0.2773
  527MOL0     H69551  10.201   2.571  10.492  0.1611 -2.2575 -1.5160
  527MOL0     H69552   9.718   2.690  10.451 -2.1952  1.0810 -0.0950
  527MOL0     H69553   9.494   2.603  10.404  1.3092 -0.4500  2.9992
  527MOL0     H69554   9.308   2.490  10.344 -0.8440 -0.7768  0.4749
  527MOL0     H69555   9.245   2.370  10.250 -1.6081  3.0964  4.2818
  527MOL0     H69556   9.199   2.589  10.150 -0.4473  1.5883 -2.5302
  527MOL0     H69557   9.373   2.629  10.172 -0.0385 -0.6951 -0.1158
  527MOL0     H69558   9.288   2.413   9.974 -0.6627  0.1014  3.2459
  527MOL0     H69559   9.436   2.484   9.983 -0.2603 -1.3309  0.0618
  527MOL0     H69560   9.182   2.646   9.921 -0.3211 -1.8443 -1.5525
  527MOL0     H69561   9.349   2.693   9.877  0.6190 -0.7459 -3.4707
  527MOL0     H69562   9.288   2.436   9.561 -0.4345 -2.4680  1.0826
  527MOL0     H69563   9.673   2.296  10.162 -0.5642 -0.5055  1.5104
  527MOL0     H69564   9.892   2.419  10.171 -0.3546  0.1907 -1.2440
  528MOL0     O69565   7.944   5.565   3.524  0.5128  0.0700 -0.1432
  528MOL0     C69566   7.965   5.651   3.439 -0.7396  0.1073  0.1352
  528MOL0     O69567   8.067   5.655   3.339  0.7453  0.6561  0.0659
  528MOL0     C69568   8.173   5.571   3.341 -0.1318  0.2416 -0.1738
  528MOL0     C69569   8.265   5.591   3.236 -0.2190  0.3610 -0.5498
  528MOL0     C69570   8.378   5.511   3.230 -0.0719  0.0114  1.2724
  528MOL0     C69571   8.410   5.411   3.327  0.1395 -0.9956  0.1111
  528MOL0     O69572   8.526   5.329   3.331  0.2386 -0.2362 -0.0360
  528MOL0     C69573   8.635   5.358   3.237 -0.8023 -0.2248 -0.4177
  528MOL0     C69574   8.737   5.249   3.252 -0.2209  0.6904 -0.8701
  528MOL0     C69575   8.872   5.267   3.184  0.4195 -0.4443 -0.3100
  528MOL0     C69576   8.959   5.370   3.257 -0.2783 -0.2424  1.1902
  528MOL0     C69577   9.080   5.413   3.171  0.3555 -0.8901 -0.9455
  528MOL0     C69578   9.161   5.299   3.108 -0.8697 -0.1732 -0.1085
  528MOL0     C69579   9.306   5.347   3.121 -0.8487 -0.1996  0.4024
  528MOL0     C69580   9.413   5.250   3.090 -0.6062  0.1667 -1.0795
  528MOL0     N69581   9.415   5.143   3.194 -0.2179 -0.1055  0.4399
  528MOL0     C69582   9.423   5.150   3.331  0.7889  0.2239  0.0209
  528MOL0     C69583   9.459   5.029   3.373  0.2000 -0.5575 -1.2239
  528MOL0     C69584   9.475   4.999   3.514 -0.4962 -0.1991 -0.4567
  528MOL0     C69585   9.361   5.042   3.609  0.3908 -0.6436  0.4203
  528MOL0     C69586   9.238   4.960   3.604  0.4487 -0.3794 -0.5148
  528MOL0     C69587   9.115   5.045   3.647 -0.3288 -0.0164 -0.3185
  528MOL0     O69588   9.112   5.094   3.787 -0.3856  0.0202  0.3738
  528MOL0     C69589   8.993   5.137   3.835 -0.1874 -0.0717 -0.0709
  528MOL0     C69590   8.974   5.135   3.968  0.1264  0.6525 -0.4560
  528MOL0     C69591   8.857   5.177   4.031 -0.0940  0.4409  0.4266
  528MOL0     C69592   8.751   5.217   3.956 -0.0237  0.2495  0.4018
  528MOL0     C69593   8.624   5.268   4.015  0.0519  0.5644 -0.3697
  528MOL0     O69594   8.605   5.258   4.150 -0.2661  0.0748  0.1991
  528MOL0     C69595   8.497   5.309   4.214 -0.5263 -0.0800  0.0311
  528MOL0     C69596   8.402   5.391   4.170  0.8891  0.2170  0.4780
  528MOL0     C69597   8.288   5.430   4.242  0.2212  0.1233  0.9285
  528MOL0     C69598   8.265   5.371   4.367  0.1862 -0.1981  0.6915
  528MOL0     O69599   8.164   5.405   4.451  0.4942  0.5064  0.2817
  528MOL0     C69600   8.051   5.480   4.397 -1.4609  0.0206  0.7738
  528MOL0     C69601   8.068   5.633   4.399  0.0963 -0.1705 -0.3600
  528MOL0     C69602   7.938   5.711   4.388  0.3618  0.0826  0.6872
  528MOL0     C69603   7.971   5.864   4.362 -0.3334  1.1765  0.3162
  528MOL0     C69604   7.850   5.930   4.296 -0.6152 -0.8219 -0.6892
  528MOL0     C69605   7.865   6.084   4.282 -0.2771 -0.5595  0.1277
  528MOL0     C69606   7.733   6.154   4.250  0.1173  0.8247  0.1007
  528MOL0     C69607   7.743   6.299   4.231 -0.1181 -0.2797 -0.1751
  528MOL0    Cl69608   7.566   6.355   4.203  0.6081 -0.3013 -0.1873
  528MOL0     C69609   8.354   5.276   4.413  0.2027 -0.5923  0.2769
  528MOL0     C69610   8.471   5.255   4.343  0.8234  0.8609 -0.4427
  528MOL0     O69611   8.539   5.313   3.945 -1.0374 -0.0065 -0.0691
  528MOL0     C69612   8.760   5.219   3.814  0.3192 -0.4675  0.6197
  528MOL0     C69613   8.882   5.177   3.755 -0.6627 -1.0259  0.1089
  528MOL0     N69614   9.441   4.950   3.264  0.0637 -0.6525  0.2244
  528MOL0     N69615   9.418   5.019   3.154 -0.0855 -0.0929  0.5024
  528MOL0     C69616   8.318   5.394   3.437 -0.0159 -0.3410 -1.1133
  528MOL0     C69617   8.207   5.476   3.444  0.2796  0.0953  0.4752
  528MOL0     C69618   7.864   5.761   3.432  0.4190  0.2381  0.2421
  528MOL0     C69619   7.885   5.874   3.356 -0.1175 -0.2612  0.0949
  528MOL0     C69620   7.787   5.975   3.342 -0.1819  0.1204  0.9722
  528MOL0     C69621   7.666   5.951   3.387  0.1229  1.3059 -0.2011
  528MOL0     O69622   7.579   6.047   3.359  0.7935 -0.6581 -0.2429
  528MOL0     C69623   7.443   6.005   3.337  0.6843 -0.5340 -0.1908
  528MOL0     C69624   7.424   5.903   3.219  0.4979 -0.4454 -0.0698
  528MOL0     C69625   7.279   5.896   3.175 -0.2202  0.5707  0.1082
  528MOL0     C69626   7.259   5.777   3.074  0.0097  0.3467 -0.0857
  528MOL0     C69627   7.121   5.755   3.038  0.0082 -1.0037 -0.1571
  528MOL0     C69628   6.998   5.734   3.025  0.9194  0.9176  0.5567
  528MOL0     C69629   7.636   5.835   3.460  0.0107 -0.0708  0.0628
  528MOL0     C69630   7.736   5.744   3.485  0.3508  0.2224 -0.4408
  528MOL0     H69631   8.251   5.672   3.165  0.5163  2.4005  1.4965
  528MOL0     H69632   8.443   5.523   3.144  0.5516  0.4226  1.7900
  528MOL0     H69633   8.686   5.451   3.261 -0.6070 -0.6186  0.7982
  528MOL0     H69634   8.607   5.353   3.132  4.1841  0.1975 -1.9908
  528MOL0     H69635   8.687   5.160   3.211 -1.2404  2.2150 -3.1700
  528MOL0     H69636   8.759   5.244   3.359  1.7505  1.8201 -1.1773
  528MOL0     H69637   8.851   5.306   3.084 -2.3913  0.2847  0.4752
  528MOL0     H69638   8.916   5.167   3.190  3.4905  0.8534  0.3910
  528MOL0     H69639   8.900   5.460   3.276 -0.1954 -0.3925  2.1881
  528MOL0     H69640   8.995   5.320   3.347  1.7296 -1.2201 -0.0873
  528MOL0     H69641   9.138   5.488   3.226  3.1630 -0.1522 -4.4928
  528MOL0     H69642   9.034   5.468   3.088 -2.9664  0.3498  1.5070
  528MOL0     H69643   9.140   5.278   3.003  1.7549  1.0057 -0.9569
  528MOL0     H69644   9.143   5.205   3.161  0.6069 -0.9282 -0.8705
  528MOL0     H69645   9.319   5.429   3.050  2.2673 -3.0049 -2.6146
  528MOL0     H69646   9.335   5.384   3.220  0.3452 -2.1121  0.8154
  528MOL0     H69647   9.511   5.297   3.102 -0.8149  0.1003  1.4875
  528MOL0     H69648   9.401   5.219   2.986 -3.2210 -0.6871 -0.6171
  528MOL0     H69649   9.412   5.240   3.392  1.3632  0.4909 -0.2629
  528MOL0     H69650   9.567   5.042   3.553 -0.7871  0.5766 -0.6144
  528MOL0     H69651   9.494   4.892   3.523  2.9396  0.2316 -1.3548
  528MOL0     H69652   9.333   5.147   3.596  0.2110 -0.0658  4.3044
  528MOL0     H69653   9.408   5.032   3.707  2.6093  1.4493 -0.3402
  528MOL0     H69654   9.202   4.930   3.505 -1.3478 -0.7011  0.1983
  528MOL0     H69655   9.256   4.876   3.672 -1.4520 -0.2846  0.1686
  528MOL0     H69656   9.034   4.972   3.635 -0.7839  0.5163 -0.5024
  528MOL0     H69657   9.101   5.120   3.570  1.0961  0.7079  0.0910
  528MOL0     H69658   9.058   5.122   4.036 -0.2182  1.0968  0.0621
  528MOL0     H69659   8.838   5.169   4.137 -0.6001  0.3348  0.3300
  528MOL0     H69660   8.398   5.429   4.069 -0.5686 -1.0314  0.0388
  528MOL0     H69661   8.212   5.491   4.195  0.6603 -0.0952 -0.0887
  528MOL0     H69662   7.959   5.445   4.445 -2.0138 -2.8091 -1.9908
  528MOL0     H69663   8.044   5.451   4.291  0.4082 -0.0738  0.6387
  528MOL0     H69664   8.131   5.649   4.311 -1.6258 -1.2276 -1.8566
  528MOL0     H69665   8.122   5.668   4.487 -0.8710  1.1015 -0.2404
  528MOL0     H69666   7.883   5.706   4.482 -3.2947 -0.7991 -1.3297
  528MOL0     H69667   7.873   5.667   4.312 -1.1012  1.7532  0.9198
  528MOL0     H69668   7.994   5.918   4.454  0.9512  0.7404  0.2740
  528MOL0     H69669   8.053   5.884   4.292 -1.1999  2.9148 -0.2474
  528MOL0     H69670   7.762   5.911   4.358 -0.1099 -1.0232 -0.0212
  528MOL0     H69671   7.839   5.896   4.193  2.3169 -2.6325 -0.4943
  528MOL0     H69672   7.938   6.103   4.204 -0.4257 -3.1211 -0.7242
  528MOL0     H69673   7.904   6.127   4.375  1.3012 -2.1479  0.2533
  528MOL0     H69674   7.690   6.120   4.155 -1.5820  0.1200  1.0808
  528MOL0     H69675   7.663   6.122   4.327 -1.6781  0.5794 -1.5700
  528MOL0     H69676   7.820   6.325   4.158  1.5523  0.6694  1.8124
  528MOL0     H69677   7.778   6.346   4.324 -1.6493  0.8840 -0.1602
  528MOL0     H69678   8.339   5.217   4.503 -0.5828  2.5425  2.3551
  528MOL0     H69679   8.540   5.179   4.378 -1.6017 -2.3653 -2.1299
  528MOL0     H69680   8.677   5.252   3.752  0.8972  0.1267  0.1500
  528MOL0     H69681   8.908   5.185   3.649 -1.7766 -1.2414 -0.1874
  528MOL0     H69682   8.350   5.326   3.516 -0.4854 -0.7829 -1.2995
  528MOL0     H69683   8.154   5.471   3.538 -1.3681  0.5244 -0.3910
  528MOL0     H69684   7.975   5.903   3.303 -0.7707  2.7075  0.4778
  528MOL0     H69685   7.824   6.058   3.283  1.0362  4.8030  7.3056
  528MOL0     H69686   7.393   6.093   3.296 -1.9241 -1.7397  0.2023
  528MOL0     H69687   7.380   5.982   3.424  1.9258 -1.2227  0.5566
  528MOL0     H69688   7.499   5.908   3.139  2.2877 -0.4533  1.5454
  528MOL0     H69689   7.446   5.812   3.274  1.9724  0.9939  1.8422
  528MOL0     H69690   7.258   5.987   3.120 -2.8424  1.3607  2.1636
  528MOL0     H69691   7.204   5.878   3.253 -1.8961  2.4067 -1.0122
  528MOL0     H69692   7.317   5.794   2.983  0.2254 -1.3530 -0.2861
  528MOL0     H69693   7.294   5.686   3.123  1.0581  2.1789  2.8257
  528MOL0     H69694   6.894   5.710   3.010  0.8906  1.1311  0.4190
  528MOL0     H69695   7.538   5.816   3.502 -0.0547  1.0979  0.4537
  528MOL0     H69696   7.707   5.657   3.543 -1.0336  1.4970  0.8643
  529MOL0     O69697   3.539   7.506   4.666 -0.2429 -0.3148  0.3122
  529MOL0     C69698   3.626   7.438   4.614 -0.3064  0.2013 -0.1680
  529MOL0     O69699   3.618   7.317   4.564 -0.3602  0.4563 -0.4718
  529MOL0     C69700   3.488   7.261   4.566  0.9214  0.5769  0.0040
  529MOL0     C69701   3.418   7.245   4.448  0.2078  0.2620  0.7628
  529MOL0     C69702   3.279   7.221   4.445  0.1395  0.2765  0.1266
  529MOL0     C69703   3.213   7.198   4.572  0.0896  0.1248  0.4442
  529MOL0     O69704   3.092   7.156   4.597 -0.2415 -0.7878  0.1939
  529MOL0     C69705   3.015   7.113   4.491 -0.1642 -0.5052  0.8883
  529MOL0     C69706   2.957   7.228   4.408  0.1248  0.2629  0.0074
  529MOL0     C69707   2.820   7.277   4.451 -0.9847  0.2173  0.1459
  529MOL0     C69708   2.775   7.396   4.371 -0.0720 -0.4034 -0.6690
  529MOL0     C69709   2.652   7.459   4.439  0.2110  0.4723 -0.1148
  529MOL0     C69710   2.521   7.391   4.403  0.4374  0.3511  0.8818
  529MOL0     C69711   2.405   7.438   4.491  0.5121 -0.6208  0.0572
  529MOL0     C69712   2.266   7.398   4.446 -0.1651 -0.1143  0.1269
  529MOL0     N69713   2.248   7.251   4.453  0.1592  0.2827  0.1521
  529MOL0     C69714   2.132   7.185   4.502 -0.1368 -0.2503 -0.2109
  529MOL0     C69715   2.150   7.060   4.468  0.1814 -0.9310  0.6332
  529MOL0     C69716   2.074   6.941   4.501 -0.0210  0.1051 -0.6423
  529MOL0     C69717   1.935   6.961   4.544  0.1371 -0.2899  0.4548
  529MOL0     C69718   1.878   6.833   4.605 -0.3323  0.7208 -0.1621
  529MOL0     C69719   1.898   6.823   4.754 -0.5592  0.0812 -0.1190
  529MOL0     O69720   1.858   6.694   4.809 -0.1196  0.2085  0.1471
  529MOL0     C69721   1.892   6.661   4.935  1.1231  0.3454  0.1750
  529MOL0     C69722   1.930   6.757   5.029 -0.9541 -0.1851 -0.1287
  529MOL0     C69723   1.950   6.728   5.170  0.1242 -0.4102  0.0609
  529MOL0     C69724   1.945   6.592   5.210 -0.6773  0.3035  0.5445
  529MOL0     C69725   1.980   6.560   5.345  1.5230  0.9802 -0.2774
  529MOL0     O69726   2.000   6.423   5.379  0.0627 -0.5467 -0.2090
  529MOL0     C69727   2.048   6.377   5.498 -0.1779 -1.0191  0.2029
  529MOL0     C69728   2.016   6.251   5.532  0.8425  1.1726 -0.6699
  529MOL0     C69729   2.073   6.190   5.638 -0.4292  0.2121  0.0774
  529MOL0     C69730   2.156   6.259   5.724  0.0134  0.6887 -0.7509
  529MOL0     O69731   2.196   6.190   5.837 -0.2152 -0.4032  0.3629
  529MOL0     C69732   2.247   6.268   5.944  0.3750  0.8891  0.2699
  529MOL0     C69733   2.263   6.183   6.076  0.4631 -0.4640 -0.9145
  529MOL0     C69734   2.119   6.145   6.119  0.2491 -0.5665 -0.3338
  529MOL0     C69735   2.145   6.045   6.234 -0.4380  0.0238  0.1334
  529MOL0     C69736   2.181   6.107   6.374  0.3526 -0.0880  0.2048
  529MOL0     C69737   2.200   5.990   6.472 -0.7156 -0.5192  0.4928
  529MOL0     C69738   2.243   6.037   6.607 -0.3310  1.3348 -0.8865
  529MOL0     C69739   2.204   5.931   6.715 -0.5525 -0.9984  0.1132
  529MOL0    Cl69740   2.259   5.772   6.692  0.1324  0.7981 -0.1999
  529MOL0     C69741   2.195   6.387   5.693 -0.5050  0.6819 -0.6904
  529MOL0     C69742   2.142   6.456   5.577 -0.8484 -1.1916  0.0232
  529MOL0     O69743   1.975   6.656   5.426 -0.0336  0.0266  0.0409
  529MOL0     C69744   1.935   6.490   5.111 -0.1587  0.2130  0.2511
  529MOL0     C69745   1.905   6.530   4.978 -1.2752  0.3633 -0.4948
  529MOL0     N69746   2.262   7.045   4.393 -0.2959 -0.1038  0.0858
  529MOL0     N69747   2.317   7.159   4.379  0.4713  0.2334 -0.1982
  529MOL0     C69748   3.294   7.193   4.692  0.2006 -1.3841 -0.1488
  529MOL0     C69749   3.425   7.237   4.684  0.1120  0.4022 -0.4540
  529MOL0     C69750   3.757   7.495   4.606 -0.5798 -0.7879 -0.7317
  529MOL0     C69751   3.800   7.567   4.717 -0.1094 -0.0777  0.3275
  529MOL0     C69752   3.935   7.602   4.724  0.0018 -0.4365 -0.7494
  529MOL0     C69753   4.025   7.579   4.616 -0.0744 -0.0258  0.2176
  529MOL0     O69754   4.159   7.608   4.649 -1.0873  0.2907 -0.0424
  529MOL0     C69755   4.258   7.579   4.550 -0.0996 -0.2903  0.2647
  529MOL0     C69756   4.284   7.432   4.545 -0.3871  0.2994  0.2341
  529MOL0     C69757   4.353   7.394   4.403  0.9617  0.2902  0.6668
  529MOL0     C69758   4.401   7.246   4.409 -1.6059  0.2817  1.3261
  529MOL0     C69759   4.490   7.218   4.288 -0.2311 -0.4754 -1.6775
  529MOL0     C69760   4.557   7.194   4.193  0.0939 -0.3602 -0.5621
  529MOL0     C69761   3.979   7.510   4.506  0.1008  0.4128  0.6335
  529MOL0     C69762   3.845   7.472   4.499  0.5966 -0.7024  0.1607
  529MOL0     H69763   3.474   7.243   4.355 -1.2847  0.5691 -0.1743
  529MOL0     H69764   3.230   7.197   4.351 -1.8445  0.2226  1.1141
  529MOL0     H69765   2.929   7.056   4.528  0.3041 -3.0179 -1.5856
  529MOL0     H69766   3.064   7.046   4.419 -0.1175 -0.1743  0.6077
  529MOL0     H69767   2.957   7.208   4.301  2.9250  1.6779 -0.3377
  529MOL0     H69768   3.024   7.313   4.426  2.3149 -1.3992  0.0862
  529MOL0     H69769   2.827   7.304   4.556 -1.8292 -2.6249  1.0170
  529MOL0     H69770   2.752   7.191   4.446  0.0911 -0.7749  1.8041
  529MOL0     H69771   2.856   7.469   4.380  0.4563 -1.1743  1.1662
  529MOL0     H69772   2.749   7.373   4.267 -1.2591 -0.1371 -0.4411
  529MOL0     H69773   2.637   7.564   4.413 -1.7267  0.3768  0.4994
  529MOL0     H69774   2.671   7.472   4.546  2.4270  0.2126 -0.4174
  529MOL0     H69775   2.536   7.283   4.407  1.9681  0.5750  2.2073
  529MOL0     H69776   2.501   7.418   4.299 -0.3009  0.6540  1.0909
  529MOL0     H69777   2.418   7.400   4.593  0.8620  1.8875  1.0111
  529MOL0     H69778   2.403   7.546   4.506 -0.4728 -0.5477 -0.4814
  529MOL0     H69779   2.252   7.435   4.344 -1.7814  0.9282  0.6785
  529MOL0     H69780   2.193   7.443   4.514  0.1057  1.3268 -0.5222
  529MOL0     H69781   2.049   7.228   4.557 -1.1014  0.0079 -1.8009
  529MOL0     H69782   2.137   6.889   4.574 -1.1401  2.0268  1.8390
  529MOL0     H69783   2.074   6.871   4.416  1.7370  0.1531 -0.7250
  529MOL0     H69784   1.874   6.992   4.459  1.8398  0.4816 -0.5429
  529MOL0     H69785   1.924   7.046   4.612 -0.9412 -0.2909  0.3026
  529MOL0     H69786   1.769   6.825   4.601 -0.5885  3.5438 -2.0757
  529MOL0     H69787   1.918   6.741   4.562  1.9204  0.6797  1.8120
  529MOL0     H69788   1.858   6.913   4.802  3.9306  1.9516  0.6300
  529MOL0     H69789   2.004   6.825   4.778 -0.8650  0.1313  1.3176
  529MOL0     H69790   1.945   6.861   5.003  1.8984 -1.0742 -2.6716
  529MOL0     H69791   1.980   6.807   5.239  2.6227  1.0409 -2.4567
  529MOL0     H69792   1.941   6.196   5.476 -0.2521  1.0655  0.8258
  529MOL0     H69793   2.036   6.093   5.670  1.2152 -0.2738  0.5932
  529MOL0     H69794   2.182   6.353   5.966  0.6781  0.8938  1.2059
  529MOL0     H69795   2.346   6.305   5.914  0.9257  1.0545  2.1569
  529MOL0     H69796   2.306   6.237   6.161  0.4435 -4.2896  1.8241
  529MOL0     H69797   2.329   6.099   6.051  1.3604  0.3847 -1.4664
  529MOL0     H69798   2.057   6.094   6.044 -0.2740  0.1612 -0.4125
  529MOL0     H69799   2.057   6.227   6.156  1.9186  0.0269  1.3164
  529MOL0     H69800   2.053   5.985   6.239  0.8162 -1.9249  1.2348
  529MOL0     H69801   2.221   5.973   6.202 -0.1500 -0.0373  0.9533
  529MOL0     H69802   2.100   6.172   6.406 -0.8439 -0.8201 -1.2203
  529MOL0     H69803   2.277   6.160   6.367  0.3380 -0.0373  0.3966
  529MOL0     H69804   2.274   5.913   6.449  1.1441  0.7930  1.7884
  529MOL0     H69805   2.101   5.943   6.477 -1.4922  0.4282 -3.1821
  529MOL0     H69806   2.351   6.051   6.595 -0.1469  1.4546  0.7242
  529MOL0     H69807   2.190   6.128   6.636 -2.2173  1.2197 -3.5630
  529MOL0     H69808   2.095   5.929   6.728 -0.7069  1.2080 -0.4538
  529MOL0     H69809   2.227   5.966   6.816  0.0749 -1.4516  0.1324
  529MOL0     H69810   2.266   6.444   5.752  1.2446 -0.6056 -1.4748
  529MOL0     H69811   2.168   6.559   5.556 -1.5760 -1.0561 -0.2184
  529MOL0     H69812   1.932   6.384   5.131 -0.4890  0.6890  3.1792
  529MOL0     H69813   1.886   6.461   4.896  0.8437  1.2201 -1.7959
  529MOL0     H69814   3.253   7.148   4.782  0.3696  2.4952  2.0956
  529MOL0     H69815   3.500   7.238   4.762  2.2882  0.5076 -2.4145
  529MOL0     H69816   3.730   7.572   4.800 -2.0139 -0.1273 -1.2129
  529MOL0     H69817   3.963   7.663   4.809  2.8540 -0.2840 -1.6954
  529MOL0     H69818   4.358   7.614   4.580 -0.2845  0.2110  0.2937
  529MOL0     H69819   4.236   7.606   4.446  1.8663  1.4402  0.2264
  529MOL0     H69820   4.344   7.405   4.633 -0.7840 -1.4670  0.0125
  529MOL0     H69821   4.194   7.370   4.551 -0.9023  0.9794 -0.2968
  529MOL0     H69822   4.434   7.464   4.384 -1.8573  3.7837  0.4421
  529MOL0     H69823   4.278   7.409   4.325 -0.4425  0.0900  1.9153
  529MOL0     H69824   4.462   7.226   4.497  0.6191 -0.1474 -0.2427
  529MOL0     H69825   4.318   7.174   4.410  0.1645 -1.9537 -0.3573
  529MOL0     H69826   4.611   7.172   4.103  1.1237 -1.9966  0.3950
  529MOL0     H69827   4.049   7.496   4.424  0.9309 -0.7225  1.5115
  529MOL0     H69828   3.814   7.410   4.415 -0.9161  0.5561 -0.2592
  530MOL0     O69829   4.910   7.456   2.892  0.3900 -0.0419 -0.2305
  530MOL0     C69830   4.929   7.450   3.010  0.1960 -0.0999  0.1418
  530MOL0     O69831   4.832   7.475   3.107  0.6773  0.4561 -0.8165
  530MOL0     C69832   4.723   7.550   3.084 -0.0278  0.0773 -0.5452
  530MOL0     C69833   4.710   7.659   3.008  0.1451  0.3832  0.0074
  530MOL0     C69834   4.592   7.729   3.011  0.0057 -0.0324  0.2505
  530MOL0     C69835   4.478   7.695   3.089 -1.1392 -0.5974  0.0144
  530MOL0     O69836   4.378   7.782   3.097  0.2275  0.0976  0.0016
  530MOL0     C69837   4.258   7.748   3.170  0.7362  0.3386  0.2540
  530MOL0     C69838   4.156   7.867   3.185 -0.8338  0.0654  0.4923
  530MOL0     C69839   4.034   7.827   3.265 -0.4719  0.4861  0.3950
  530MOL0     C69840   3.913   7.919   3.265  0.0040  0.5054 -0.3509
  530MOL0     C69841   3.796   7.873   3.357  0.9030  1.2067 -0.3914
  530MOL0     C69842   3.651   7.911   3.306  0.0126 -0.6126  0.4816
  530MOL0     C69843   3.546   7.864   3.406 -0.8702  1.0479 -0.6277
  530MOL0     C69844   3.411   7.853   3.335  1.3765 -0.6451  0.7236
  530MOL0     N69845   3.322   7.764   3.418 -0.3383 -0.0326  0.4433
  530MOL0     C69846   3.272   7.820   3.532  0.9913 -0.0658 -0.3294
  530MOL0     C69847   3.207   7.712   3.589 -0.2956  0.6166  0.9685
  530MOL0     C69848   3.149   7.696   3.723  0.2205 -0.1255  0.1217
  530MOL0     C69849   3.100   7.823   3.798  0.8281  0.5299  0.4120
  530MOL0     C69850   2.958   7.861   3.749 -0.4342 -0.2288  0.1085
  530MOL0     C69851   2.923   7.849   3.605 -0.0368 -0.2735  0.0605
  530MOL0     O69852   2.783   7.872   3.592 -0.1998 -0.5113 -0.0669
  530MOL0     C69853   2.726   7.887   3.463  1.0613 -0.4185 -0.4208
  530MOL0     C69854   2.792   7.911   3.343 -0.3723  0.2746  0.4715
  530MOL0     C69855   2.717   7.911   3.225 -0.7926 -0.3411 -0.3689
  530MOL0     C69856   2.577   7.901   3.227  0.1822 -0.2390 -1.0171
  530MOL0     C69857   2.493   7.929   3.110  0.4860 -0.3570  0.6432
  530MOL0     O69858   2.371   7.976   3.147  0.3706  0.0623  0.8293
  530MOL0     C69859   2.261   7.964   3.058 -0.2164 -0.2801 -0.3131
  530MOL0     C69860   2.263   7.923   2.926 -0.4979  0.2454  0.6108
  530MOL0     C69861   2.153   7.930   2.847 -0.2276 -1.0473  0.7377
  530MOL0     C69862   2.022   7.973   2.897  0.1443  0.2160  0.5525
  530MOL0     O69863   1.922   7.971   2.805  0.2586 -0.5358 -0.4823
  530MOL0     C69864   1.801   8.041   2.839  0.7134  0.0070 -0.0952
  530MOL0     C69865   1.717   8.073   2.710  0.0153 -1.0061 -0.9256
  530MOL0     C69866   1.686   7.950   2.619 -0.2358  0.5024 -0.2398
  530MOL0     C69867   1.600   7.855   2.702 -0.3069 -1.1154  0.1664
  530MOL0     C69868   1.532   7.767   2.594  0.4093  0.1713 -0.8890
  530MOL0     C69869   1.466   7.645   2.663 -0.6286  0.1599 -1.5101
  530MOL0     C69870   1.373   7.566   2.578  0.0617  0.1711 -0.5181
  530MOL0     C69871   1.256   7.639   2.524  1.3206  0.4498 -0.2939
  530MOL0    Cl69872   1.170   7.521   2.414  0.1445  0.0424  0.0289
  530MOL0     C69873   2.024   8.023   3.028 -0.4675  0.0167 -0.2009
  530MOL0     C69874   2.136   8.017   3.099  0.0478 -0.7057  0.0550
  530MOL0     O69875   2.529   7.888   2.999  0.4740  0.2668 -0.7066
  530MOL0     C69876   2.518   7.872   3.357  0.4817 -0.6557 -0.2645
  530MOL0     C69877   2.590   7.869   3.471 -0.4111  0.6629  0.2417
  530MOL0     N69878   3.194   7.606   3.498  0.2396  0.0045  0.6035
  530MOL0     N69879   3.270   7.639   3.401  0.3182 -0.0705 -0.5191
  530MOL0     C69880   4.495   7.582   3.176  0.3252 -0.6854 -0.4584
  530MOL0     C69881   4.619   7.513   3.167 -0.0724 -0.3483  0.2275
  530MOL0     C69882   5.069   7.432   3.062  1.0315 -0.1855 -0.3612
  530MOL0     C69883   5.108   7.432   3.196 -0.0010 -0.2363 -0.0182
  530MOL0     C69884   5.249   7.428   3.236 -0.3135  0.3993  1.8556
  530MOL0     C69885   5.341   7.388   3.133 -0.1425  0.1274 -0.2281
  530MOL0     O69886   5.471   7.372   3.183 -0.2953  0.9464  0.5996
  530MOL0     C69887   5.564   7.282   3.116  0.8024 -0.0139 -0.1190
  530MOL0     C69888   5.656   7.357   3.013 -0.0125  0.7686 -0.3505
  530MOL0     C69889   5.746   7.264   2.929 -1.1055  0.0604  0.0812
  530MOL0     C69890   5.675   7.197   2.811  0.8868  0.4341  0.9021
  530MOL0     C69891   5.617   7.298   2.715  0.3516 -0.7443  0.9961
  530MOL0     C69892   5.571   7.388   2.642  0.1548  0.3935  0.2015
  530MOL0     C69893   5.296   7.376   2.998 -0.1843 -0.3823 -0.6133
  530MOL0     C69894   5.165   7.398   2.962 -0.8590 -0.8767  0.0493
  530MOL0     H69895   4.790   7.683   2.939 -0.3080  2.0562  0.0139
  530MOL0     H69896   4.575   7.820   2.954 -1.2824 -1.7217 -2.2659
  530MOL0     H69897   4.275   7.712   3.271 -0.5444 -0.6197  0.1491
  530MOL0     H69898   4.191   7.678   3.119  0.5592  1.9523 -1.8656
  530MOL0     H69899   4.127   7.902   3.085 -0.7901 -0.4118  0.3099
  530MOL0     H69900   4.208   7.950   3.235 -0.4109  1.1934 -1.6754
  530MOL0     H69901   4.066   7.812   3.369 -0.4424 -1.1403  0.1745
  530MOL0     H69902   3.996   7.733   3.224 -2.0967  1.7575 -1.1574
  530MOL0     H69903   3.943   8.020   3.293 -1.5283  0.3948  1.9775
  530MOL0     H69904   3.882   7.913   3.160  5.1318 -1.6000 -2.0902
  530MOL0     H69905   3.818   7.927   3.450  1.3483  1.9479 -0.9191
  530MOL0     H69906   3.806   7.765   3.371 -0.6974  0.5400 -3.5978
  530MOL0     H69907   3.638   7.886   3.200  1.6823  1.7895 -0.4019
  530MOL0     H69908   3.648   8.021   3.303 -1.2140 -0.5646  2.2897
  530MOL0     H69909   3.561   7.762   3.441 -1.3391  1.6964  1.5932
  530MOL0     H69910   3.538   7.929   3.494  1.0578 -1.7954  1.8711
  530MOL0     H69911   3.416   7.810   3.235 -0.7313 -0.5392  0.5250
  530MOL0     H69912   3.351   7.944   3.325  2.9641  0.4374  0.6356
  530MOL0     H69913   3.299   7.919   3.566 -0.2429  1.1227 -2.5479
  530MOL0     H69914   3.228   7.649   3.782  1.8090  0.0916 -1.7386
  530MOL0     H69915   3.072   7.619   3.714  0.4272 -0.1304 -2.2338
  530MOL0     H69916   3.178   7.898   3.780  2.9127 -1.6003  0.0537
  530MOL0     H69917   3.093   7.812   3.907 -2.9779  4.1635  0.7596
  530MOL0     H69918   2.880   7.818   3.813 -1.3158 -0.9987 -1.4306
  530MOL0     H69919   2.940   7.967   3.767 -1.3917 -0.5368  1.0956
  530MOL0     H69920   2.938   7.745   3.575  2.6819 -0.0825  0.5232
  530MOL0     H69921   2.989   7.909   3.542 -0.0582  1.0105  1.1976
  530MOL0     H69922   2.899   7.927   3.349 -0.4660  0.3116  2.6571
  530MOL0     H69923   2.774   7.932   3.135  0.1468  0.7722  0.4632
  530MOL0     H69924   2.354   7.899   2.872 -0.7836 -1.7474  0.9619
  530MOL0     H69925   2.154   7.888   2.747  2.5822 -1.1382  0.7414
  530MOL0     H69926   1.831   8.135   2.885  1.4075 -0.4870  0.4794
  530MOL0     H69927   1.755   7.976   2.915  0.3139  0.8498  0.4069
  530MOL0     H69928   1.767   8.148   2.648 -1.1624 -0.3869 -1.1669
  530MOL0     H69929   1.623   8.125   2.734  0.4874 -1.0520  1.2072
  530MOL0     H69930   1.773   7.893   2.584  0.4722 -0.9785  3.4682
  530MOL0     H69931   1.630   7.997   2.537  2.9283  2.0170 -1.7235
  530MOL0     H69932   1.668   7.796   2.764  1.0155 -0.4341 -0.5898
  530MOL0     H69933   1.524   7.902   2.765  1.7471  3.2094 -0.2247
  530MOL0     H69934   1.595   7.713   2.522  0.1147 -1.4052 -0.0188
  530MOL0     H69935   1.454   7.828   2.548 -0.1940  0.2016  0.1503
  530MOL0     H69936   1.406   7.679   2.747  3.6469 -0.8922  2.3899
  530MOL0     H69937   1.539   7.572   2.699 -0.2882 -0.0071 -2.4926
  530MOL0     H69938   1.438   7.522   2.502  1.8227 -1.4222  1.7389
  530MOL0     H69939   1.336   7.473   2.622  1.7207 -1.9047 -3.1772
  530MOL0     H69940   1.298   7.721   2.465 -0.8390  1.1175 -0.9847
  530MOL0     H69941   1.198   7.668   2.611 -1.3500 -1.1972 -1.4155
  530MOL0     H69942   1.935   8.056   3.080  0.2546  2.1601 -0.1991
  530MOL0     H69943   2.138   8.059   3.199 -1.3419  1.5327 -0.7988
  530MOL0     H69944   2.410   7.869   3.365  0.4357  1.4071  0.4918
  530MOL0     H69945   2.527   7.851   3.558 -0.8883  0.0105 -0.2263
  530MOL0     H69946   4.410   7.550   3.235 -0.2284  0.1589 -0.7912
  530MOL0     H69947   4.627   7.425   3.231 -1.9756 -0.9072 -0.2039
  530MOL0     H69948   5.041   7.442   3.281 -0.2800 -3.9891  0.3795
  530MOL0     H69949   5.284   7.452   3.336  1.4742  0.4834  1.2482
  530MOL0     H69950   5.510   7.206   3.059  3.1314 -0.5452 -1.7559
  530MOL0     H69951   5.619   7.238   3.199  1.2947  1.5747  0.4471
  530MOL0     H69952   5.606   7.420   2.938  1.1505 -1.5139 -3.2675
  530MOL0     H69953   5.714   7.421   3.079  0.3947 -0.4125  0.4659
  530MOL0     H69954   5.796   7.193   2.996 -0.4238 -0.3574 -0.8451
  530MOL0     H69955   5.817   7.326   2.873 -0.2630 -3.1875 -2.7926
  530MOL0     H69956   5.732   7.122   2.755 -1.8594 -0.9323 -0.2301
  530MOL0     H69957   5.596   7.135   2.854  0.1109  0.7767  0.0007
  530MOL0     H69958   5.536   7.464   2.575  2.6452  1.1537 -0.3281
  530MOL0     H69959   5.373   7.348   2.926  0.6672  1.2656 -0.3913
  530MOL0     H69960   5.141   7.394   2.856 -1.3528  1.7228 -0.0081
  531MOL0     O69961   5.868   7.570   8.711  0.7756  0.3317 -0.0826
  531MOL0     C69962   5.928   7.675   8.699 -1.3375 -0.0163 -0.0997
  531MOL0     O69963   5.888   7.805   8.708  0.7918 -0.3719 -0.1346
  531MOL0     C69964   5.751   7.841   8.728 -0.3213 -0.6792 -0.9795
  531MOL0     C69965   5.645   7.755   8.693 -0.1421 -0.3750  0.4431
  531MOL0     C69966   5.514   7.796   8.698  0.5765  0.1937  0.1305
  531MOL0     C69967   5.483   7.922   8.755  0.2495  0.0473  0.1266
  531MOL0     O69968   5.349   7.957   8.778 -0.2842 -0.1451  0.0906
  531MOL0     C69969   5.307   8.057   8.680 -0.0237 -0.2962 -0.2139
  531MOL0     C69970   5.298   8.003   8.537  0.4240  0.5069 -0.0449
  531MOL0     C69971   5.164   7.927   8.519  0.2595 -0.2865 -0.0227
  531MOL0     C69972   5.134   7.804   8.604 -0.0900  0.2069 -0.4426
  531MOL0     C69973   4.999   7.724   8.560  0.2011 -0.3026 -0.8831
  531MOL0     C69974   5.002   7.675   8.423 -0.0126  0.1048  0.7613
  531MOL0     C69975   4.864   7.631   8.386  0.2663  0.1946 -0.5916
  531MOL0     C69976   4.779   7.534   8.482 -0.2252  0.0522  0.3090
  531MOL0     N69977   4.655   7.474   8.436 -0.0939  0.6148  1.2980
  531MOL0     C69978   4.576   7.397   8.519 -0.7806  1.4992  0.3843
  531MOL0     C69979   4.456   7.400   8.463  1.2474 -0.1759 -0.3489
  531MOL0     C69980   4.329   7.350   8.528  0.1582  0.1971 -0.7993
  531MOL0     C69981   4.209   7.327   8.426  0.0692  0.3541 -0.4359
  531MOL0     C69982   4.089   7.287   8.513 -0.6762  0.2721 -0.8452
  531MOL0     C69983   3.968   7.262   8.426 -0.2428 -0.0753 -0.9427
  531MOL0     O69984   3.858   7.246   8.515  0.2814  0.4366 -0.0105
  531MOL0     C69985   3.722   7.249   8.475 -0.2703 -0.2672  0.0965
  531MOL0     C69986   3.675   7.254   8.346 -0.3304 -0.7784 -0.1894
  531MOL0     C69987   3.539   7.239   8.311  0.8334  0.4593 -1.2396
  531MOL0     C69988   3.445   7.223   8.421  0.3754  0.2931 -0.1179
  531MOL0     C69989   3.305   7.224   8.393 -0.0467  0.4499  0.4476
  531MOL0     O69990   3.223   7.200   8.499 -0.0556 -0.3566 -0.6000
  531MOL0     C69991   3.086   7.218   8.495 -0.3463  0.6160 -0.5429
  531MOL0     C69992   3.030   7.294   8.604  0.5981  0.7805  0.1736
  531MOL0     C69993   2.888   7.307   8.612  0.1968  0.1845  0.2042
  531MOL0     C69994   2.808   7.254   8.513  0.3298  0.8286 -0.5022
  531MOL0     O69995   2.676   7.265   8.542  0.6125  0.4911  0.4584
  531MOL0     C69996   2.579   7.252   8.442  0.9326 -0.4311 -0.2995
  531MOL0     C69997   2.446   7.216   8.511  0.0739 -0.1575 -0.9030
  531MOL0     C69998   2.417   7.066   8.521 -0.8775  0.0347 -0.4239
  531MOL0     C69999   2.406   6.998   8.385  0.0157 -0.6796  0.6146
  531MOL0     C70000   2.325   6.871   8.394  0.4664  0.3093  0.2640
  531MOL0     C70001   2.294   6.801   8.260 -0.2326  0.6825  0.0050
  531MOL0     C70002   2.417   6.735   8.189  0.2063 -0.5297 -0.1954
  531MOL0     C70003   2.384   6.655   8.072  0.2353 -0.3561  0.4352
  531MOL0    Cl70004   2.323   6.752   7.932 -0.8609 -0.1953  0.1774
  531MOL0     C70005   2.865   7.178   8.405  0.7338 -0.3502 -0.3344
  531MOL0     C70006   3.002   7.173   8.387 -0.3869 -0.1898  0.0109
  531MOL0     O70007   3.267   7.277   8.285  0.5294 -0.4798  0.6493
  531MOL0     C70008   3.498   7.225   8.557  0.7904 -0.4574 -0.4439
  531MOL0     C70009   3.636   7.234   8.582 -0.2790 -0.0916  0.6114
  531MOL0     N70010   4.457   7.499   8.362 -0.4445  0.0452  0.2549
  531MOL0     N70011   4.578   7.548   8.350  0.0299 -0.4904  0.1221
  531MOL0     C70012   5.588   7.995   8.810  0.2454  0.4370 -0.0982
  531MOL0     C70013   5.724   7.961   8.792  0.6567 -0.0102 -0.2997
  531MOL0     C70014   6.077   7.654   8.698  0.6286  1.1627 -0.3191
  531MOL0     C70015   6.138   7.524   8.660  0.3599  1.2139  0.0775
  531MOL0     C70016   6.274   7.525   8.635  0.3454 -0.7395 -0.6438
  531MOL0     C70017   6.352   7.636   8.648 -0.5958  0.1834 -0.0369
  531MOL0     O70018   6.485   7.641   8.618  0.3452 -0.4041  0.8446
  531MOL0     C70019   6.575   7.535   8.647 -1.3268  0.1718  0.0068
  531MOL0     C70020   6.723   7.572   8.626 -0.1252  0.2398  0.5496
  531MOL0     C70021   6.789   7.632   8.753 -0.1609 -0.2287  0.5348
  531MOL0     C70022   6.722   7.760   8.803 -0.1142 -0.5132  0.4024
  531MOL0     C70023   6.734   7.872   8.712  0.4217  0.0086 -0.6996
  531MOL0     C70024   6.741   7.969   8.642  0.5216  0.2474 -1.2746
  531MOL0     C70025   6.302   7.749   8.706 -0.4135 -0.4029  0.1506
  531MOL0     C70026   6.167   7.759   8.723  0.4502 -0.1450 -0.1054
  531MOL0     H70027   5.664   7.658   8.648 -0.2891  0.7756 -2.3206
  531MOL0     H70028   5.442   7.722   8.665 -1.0350  1.2519  1.1236
  531MOL0     H70029   5.374   8.143   8.683 -2.0615  1.3719 -0.1763
  531MOL0     H70030   5.205   8.083   8.710  0.2193  0.5472 -0.1062
  531MOL0     H70031   5.383   7.939   8.510 -0.5194 -1.3049  1.0580
  531MOL0     H70032   5.291   8.090   8.472 -1.7789  1.6502  1.5917
  531MOL0     H70033   5.165   7.902   8.413  0.6049  1.0357 -0.3516
  531MOL0     H70034   5.079   7.993   8.537 -0.2462 -0.8619 -0.2652
  531MOL0     H70035   5.215   7.734   8.582 -0.6237 -0.2120 -1.1370
  531MOL0     H70036   5.130   7.824   8.711 -0.7441 -0.3519 -0.3571
  531MOL0     H70037   4.917   7.794   8.580  0.0591 -0.3408 -1.3060
  531MOL0     H70038   4.990   7.639   8.627 -1.0767 -0.2176 -0.9217
  531MOL0     H70039   5.081   7.600   8.409 -2.0598 -2.0463  0.1182
  531MOL0     H70040   5.041   7.755   8.359  0.6611  0.4436  1.5743
  531MOL0     H70041   4.812   7.725   8.364  0.5122  0.5310  0.2309
  531MOL0     H70042   4.872   7.574   8.293 -1.0786 -0.5255 -0.2986
  531MOL0     H70043   4.743   7.590   8.569 -1.2018  0.2381 -0.2045
  531MOL0     H70044   4.845   7.454   8.515 -0.1849 -0.0254  0.0366
  531MOL0     H70045   4.602   7.363   8.618  0.3561 -1.6092 -0.8476
  531MOL0     H70046   4.299   7.426   8.600  1.8599 -1.6893  2.1172
  531MOL0     H70047   4.345   7.264   8.595 -0.6184  1.3234  0.8874
  531MOL0     H70048   4.228   7.246   8.355  5.0524  2.2577 -1.6725
  531MOL0     H70049   4.186   7.415   8.364  0.1664  0.4879 -0.2840
  531MOL0     H70050   4.105   7.195   8.570  0.7274  1.0114  0.0277
  531MOL0     H70051   4.068   7.376   8.574  2.0360  0.9588 -0.7668
  531MOL0     H70052   3.961   7.169   8.368 -0.9398 -1.5016  1.2989
  531MOL0     H70053   3.942   7.346   8.361  1.4577  0.6184 -0.7670
  531MOL0     H70054   3.747   7.258   8.265 -1.9400  1.7240 -1.6302
  531MOL0     H70055   3.514   7.247   8.205 -0.3262  2.1648 -0.8864
  531MOL0     H70056   3.101   7.329   8.678 -0.2347 -1.8905  2.4047
  531MOL0     H70057   2.843   7.367   8.690  0.5016  0.3574  0.2498
  531MOL0     H70058   2.607   7.176   8.369  4.7214 -0.3799  0.8714
  531MOL0     H70059   2.570   7.347   8.389 -0.4799  0.1440  0.9066
  531MOL0     H70060   2.371   7.269   8.452 -0.9296 -0.6316 -0.0737
  531MOL0     H70061   2.457   7.255   8.612  0.2267  2.0995 -1.7438
  531MOL0     H70062   2.337   7.045   8.592 -0.4699 -1.1365 -0.2823
  531MOL0     H70063   2.503   7.021   8.572  1.1066  0.8249 -2.8872
  531MOL0     H70064   2.353   7.058   8.310 -0.3445 -0.3702  1.1139
  531MOL0     H70065   2.502   6.969   8.343  0.5980  0.4139  1.1517
  531MOL0     H70066   2.228   6.901   8.434  1.3417  1.1879  1.8197
  531MOL0     H70067   2.373   6.802   8.464 -0.9080 -1.7456 -0.7103
  531MOL0     H70068   2.265   6.873   8.183  0.9070  2.2123  0.9420
  531MOL0     H70069   2.228   6.715   8.276 -0.5567  1.1849  1.5423
  531MOL0     H70070   2.492   6.810   8.161  2.0183 -1.7121  1.3184
  531MOL0     H70071   2.467   6.679   8.268  0.8178  2.0547  1.4004
  531MOL0     H70072   2.320   6.579   8.118 -0.6671 -0.4361 -0.8907
  531MOL0     H70073   2.470   6.597   8.037 -1.9407 -3.0749 -0.8577
  531MOL0     H70074   2.803   7.123   8.334 -1.7732 -0.9950  2.1598
  531MOL0     H70075   3.034   7.115   8.301 -1.5738 -2.7294  1.1848
  531MOL0     H70076   3.433   7.231   8.643 -0.4135 -0.5293 -1.3104
  531MOL0     H70077   3.673   7.232   8.684 -1.8111 -0.5830  1.1869
  531MOL0     H70078   5.562   8.091   8.855  2.5371  1.2384 -0.3435
  531MOL0     H70079   5.809   8.023   8.818  0.4712  0.6314 -1.1653
  531MOL0     H70080   6.082   7.438   8.626  0.2113  1.9372 -1.6159
  531MOL0     H70081   6.310   7.443   8.573 -0.5691 -1.3592 -0.3662
  531MOL0     H70082   6.548   7.451   8.582 -2.4388 -0.6901  1.5224
  531MOL0     H70083   6.563   7.500   8.750  2.3562 -1.5756  0.0081
  531MOL0     H70084   6.776   7.478   8.609  1.5997  1.1746  0.5498
  531MOL0     H70085   6.739   7.642   8.543 -2.1437  0.0820 -0.0278
  531MOL0     H70086   6.894   7.655   8.730 -0.4832 -1.4714 -2.7812
  531MOL0     H70087   6.782   7.554   8.828  0.0702  0.3281  1.1447
  531MOL0     H70088   6.618   7.750   8.833 -0.6795  1.7053 -0.5941
  531MOL0     H70089   6.771   7.795   8.894  1.1416 -3.0733  0.7899
  531MOL0     H70090   6.736   8.056   8.580  1.6734  0.2110 -1.4336
  531MOL0     H70091   6.371   7.825   8.741 -0.4649  0.7736 -2.0896
  531MOL0     H70092   6.134   7.851   8.771 -0.2349  0.6126 -1.9632
  532MOL0     O70093   0.725  10.794   9.772 -0.3361  0.0530 -0.0179
  532MOL0     C70094   0.773  10.758   9.880 -0.5987 -0.6358  1.0487
  532MOL0     O70095   0.706  10.767  10.000  0.0292 -0.7130 -0.0659
  532MOL0     C70096   0.577  10.811   9.994 -1.2284 -0.4745  0.0771
  532MOL0     C70097   0.551  10.952   9.990 -0.6447  0.1158 -0.2981
  532MOL0     C70098   0.422  11.000   9.976  1.1034 -0.0468 -0.7694
  532MOL0     C70099   0.311  10.913   9.964  0.5737 -1.1646 -0.3848
  532MOL0     O70100   0.189  10.968   9.948 -0.1866  0.5429 -0.6026
  532MOL0     C70101   0.098  10.894   9.874 -0.3637  0.0875 -0.2665
  532MOL0     C70102  -0.023  10.979   9.828  0.1748  0.7094 -0.5233
  532MOL0     C70103  -0.079  10.901   9.702 -0.5115 -0.4117 -0.5298
  532MOL0     C70104  -0.198  10.984   9.642  0.5100  0.2532  0.0885
  532MOL0     C70105  -0.333  10.957   9.721  0.2158  1.1962  0.8522
  532MOL0     C70106  -0.463  11.018   9.666 -0.1105 -0.6214 -1.3652
  532MOL0     C70107  -0.482  10.981   9.516  0.0406  0.4083 -0.3178
  532MOL0     C70108  -0.599  11.056   9.454 -0.6311  0.4347  1.1144
  532MOL0     N70109  -0.619  11.002   9.311 -0.5298 -0.6052 -1.2600
  532MOL0     C70110  -0.733  10.952   9.263  0.6896  0.2909 -0.5539
  532MOL0     C70111  -0.699  10.896   9.143  0.0862  0.5763 -0.5208
  532MOL0     C70112  -0.787  10.826   9.048  0.0225  0.0394 -0.0006
  532MOL0     C70113  -0.751  10.848   8.898  0.5043 -1.0124 -1.0748
  532MOL0     C70114  -0.784  10.992   8.855  0.3041 -0.0285  0.1950
  532MOL0     C70115  -0.713  11.033   8.733  0.2605 -0.5000  0.4250
  532MOL0     O70116  -0.729  10.936   8.628 -0.2893  0.1956 -1.0439
  532MOL0     C70117  -0.827  10.940   8.533 -0.7525  0.2032  1.0292
  532MOL0     C70118  -0.814  10.856   8.421 -0.3802  0.1906  0.0785
  532MOL0     C70119  -0.914  10.862   8.324 -0.1350  0.0886  0.2333
  532MOL0     C70120  -1.027  10.941   8.331 -0.1950 -0.2630  0.5488
  532MOL0     C70121  -1.133  10.931   8.218 -0.4484  0.4932  0.2322
  532MOL0     O70122  -1.221  11.030   8.217  0.4803 -0.2263 -0.1341
  532MOL0     C70123  -1.333  11.035   8.130  0.4522  0.3187  0.9581
  532MOL0     C70124  -1.431  10.933   8.137  0.3117 -0.0170  0.5459
  532MOL0     C70125  -1.536  10.931   8.049 -0.3535 -0.8938  0.2112
  532MOL0     C70126  -1.554  11.036   7.955 -0.9039  0.5520  0.3516
  532MOL0     O70127  -1.674  11.042   7.886  0.3375 -0.2835 -0.4334
  532MOL0     C70128  -1.712  10.920   7.819 -0.0093 -0.2006  0.1577
  532MOL0     C70129  -1.732  10.960   7.674 -0.6583 -1.0585  0.7072
  532MOL0     C70130  -1.868  11.044   7.650 -0.5418 -0.2823 -0.1010
  532MOL0     C70131  -1.860  11.194   7.671  1.0762  0.2842  0.5532
  532MOL0     C70132  -1.993  11.269   7.699 -0.2743 -0.6076  1.1337
  532MOL0     C70133  -2.097  11.230   7.595 -1.4092  0.1696  1.0730
  532MOL0     C70134  -2.236  11.304   7.616  0.4138 -0.3492  0.9019
  532MOL0     C70135  -2.347  11.222   7.543  0.0815 -0.5270  0.2638
  532MOL0    Cl70136  -2.404  11.103   7.657 -0.0426  0.4340 -0.0389
  532MOL0     C70137  -1.452  11.127   7.946 -0.3580  1.0160 -0.5668
  532MOL0     C70138  -1.334  11.127   8.026  0.2687  0.3601 -0.9009
  532MOL0     O70139  -1.115  10.847   8.126  0.5175  0.1435 -0.1370
  532MOL0     C70140  -1.033  11.030   8.431  0.5698 -0.0482 -0.4364
  532MOL0     C70141  -0.938  11.026   8.533 -0.8922  0.3375  0.1363
  532MOL0     N70142  -0.565  10.919   9.128 -0.2052 -0.6206  0.4783
  532MOL0     N70143  -0.514  10.982   9.229  0.6469 -0.6767  0.7501
  532MOL0     C70144   0.336  10.778   9.974  0.7185  0.6397 -0.6929
  532MOL0     C70145   0.472  10.725   9.989  0.2369  0.3247 -0.1679
  532MOL0     C70146   0.901  10.698   9.879 -0.2700 -0.4494 -0.0476
  532MOL0     C70147   0.952  10.606   9.975 -0.6749 -0.8208  1.0958
  532MOL0     C70148   1.078  10.556   9.957 -0.1937  0.4355  0.3635
  532MOL0     C70149   1.165  10.598   9.859 -0.6804  0.8356 -0.2762
  532MOL0     O70150   1.296  10.545   9.865  0.3645 -0.0474 -0.2185
  532MOL0     C70151   1.390  10.542   9.752 -0.0893 -0.1332 -0.2419
  532MOL0     C70152   1.351  10.433   9.644 -0.3248 -0.0667  0.7294
  532MOL0     C70153   1.426  10.447   9.511 -0.0859  0.0937  0.7868
  532MOL0     C70154   1.393  10.327   9.412  1.0042  0.2481 -0.2708
  532MOL0     C70155   1.250  10.349   9.366 -0.1679 -0.2914 -1.0339
  532MOL0     C70156   1.133  10.377   9.331 -0.4065  0.4873 -0.3223
  532MOL0     C70157   1.120  10.695   9.770 -0.1921  0.3995 -0.6702
  532MOL0     C70158   0.986  10.739   9.779 -0.2915  0.0620 -0.1680
  532MOL0     H70159   0.628  11.019  10.028 -2.3690  0.9710  1.8843
  532MOL0     H70160   0.385  11.102   9.982 -0.3123 -0.5648  0.0298
  532MOL0     H70161   0.058  10.799   9.912 -2.5923  1.0612  0.0170
  532MOL0     H70162   0.148  10.865   9.781 -2.0074 -1.7177 -0.6713
  532MOL0     H70163   0.008  11.078   9.795 -0.7972  0.8343 -1.1223
  532MOL0     H70164  -0.104  10.987   9.901 -0.7404 -0.0359 -1.4330
  532MOL0     H70165  -0.112  10.800   9.728  2.8681 -1.7220 -0.8311
  532MOL0     H70166   0.007  10.898   9.635 -0.1499  0.4631 -0.1188
  532MOL0     H70167  -0.184  11.092   9.634 -0.0845  0.3094 -0.2830
  532MOL0     H70168  -0.208  10.937   9.544  0.9000  0.0352  0.1540
  532MOL0     H70169  -0.322  10.976   9.828  2.2494  2.5115  0.4808
  532MOL0     H70170  -0.357  10.850   9.717 -1.8680  1.6797 -0.7107
  532MOL0     H70171  -0.458  11.127   9.678  0.4544 -0.5615 -2.0748
  532MOL0     H70172  -0.547  10.991   9.730 -0.2206 -0.0548 -1.2618
  532MOL0     H70173  -0.394  11.004   9.454 -0.5351 -0.8606 -1.6673
  532MOL0     H70174  -0.495  10.873   9.504 -3.4740  0.7824 -0.9329
  532MOL0     H70175  -0.578  11.162   9.464  0.3117  0.4279 -0.4516
  532MOL0     H70176  -0.684  11.033   9.519  0.2137 -0.1118  2.0508
  532MOL0     H70177  -0.827  10.949   9.318  0.2679 -1.0157 -1.3027
  532MOL0     H70178  -0.889  10.858   9.067  0.2770  2.3500 -2.0195
  532MOL0     H70179  -0.768  10.721   9.072  0.1793 -0.0207 -0.3941
  532MOL0     H70180  -0.821  10.785   8.842 -1.2396  0.4404 -0.6297
  532MOL0     H70181  -0.644  10.827   8.894  1.1081  0.8329  1.8565
  532MOL0     H70182  -0.892  11.007   8.850  0.2347 -0.8637 -3.2408
  532MOL0     H70183  -0.758  11.072   8.925 -1.5362  0.1427  0.7455
  532MOL0     H70184  -0.606  11.039   8.758  0.0213  1.1656  1.1944
  532MOL0     H70185  -0.731  11.135   8.701 -0.0205 -0.3524  1.0418
  532MOL0     H70186  -0.741  10.775   8.417 -1.0742 -0.6346  2.5012
  532MOL0     H70187  -0.898  10.808   8.232 -1.7393 -0.3344  0.1616
  532MOL0     H70188  -1.409  10.856   8.210 -0.4001 -0.1706  0.6053
  532MOL0     H70189  -1.601  10.844   8.049  1.0204 -1.9539  0.9247
  532MOL0     H70190  -1.799  10.881   7.872 -0.6981  2.1124  0.8372
  532MOL0     H70191  -1.625  10.853   7.820  1.2383  1.3228 -1.1358
  532MOL0     H70192  -1.727  10.872   7.609  0.6358 -0.9304  0.6152
  532MOL0     H70193  -1.647  11.020   7.641 -1.1753  0.9112  2.7138
  532MOL0     H70194  -1.944  11.004   7.718 -0.6930  1.0890  0.5693
  532MOL0     H70195  -1.904  11.026   7.549  0.4830 -0.6785 -0.4069
  532MOL0     H70196  -1.793  11.215   7.755  1.0047 -0.4608  0.8008
  532MOL0     H70197  -1.813  11.237   7.581  0.5564 -1.5775 -0.6605
  532MOL0     H70198  -1.962  11.374   7.703 -1.7728 -0.0129 -0.8770
  532MOL0     H70199  -2.031  11.240   7.797  0.2060 -0.9169  1.2342
  532MOL0     H70200  -2.113  11.121   7.596 -0.6350 -0.0058 -0.7443
  532MOL0     H70201  -2.058  11.266   7.499  0.0210 -1.7572  0.8675
  532MOL0     H70202  -2.260  11.322   7.721 -2.3355  0.8819  0.1474
  532MOL0     H70203  -2.220  11.405   7.577  0.7389 -0.1105  1.6307
  532MOL0     H70204  -2.324  11.189   7.442  3.0414 -1.4367  1.1158
  532MOL0     H70205  -2.439  11.281   7.549  0.4979  0.0002  2.3335
  532MOL0     H70206  -1.466  11.196   7.864  0.7781  2.5165  0.4554
  532MOL0     H70207  -1.251  11.195   8.015  1.4844 -1.3067 -2.4873
  532MOL0     H70208  -1.117  11.098   8.447  0.6460 -0.2015  0.7703
  532MOL0     H70209  -0.942  11.095   8.617 -0.4152  1.0353 -0.4041
  532MOL0     H70210   0.252  10.710   9.978  2.1041 -1.3133 -2.6937
  532MOL0     H70211   0.472  10.617   9.995 -2.5954 -0.0223 -3.1899
  532MOL0     H70212   0.900  10.596  10.069 -0.4313 -0.1062  1.3179
  532MOL0     H70213   1.129  10.498  10.034  0.9665  0.6195 -0.2445
  532MOL0     H70214   1.485  10.519   9.802 -0.7186 -0.8666  0.6554
  532MOL0     H70215   1.412  10.644   9.720  1.4308  0.2484  1.8255
  532MOL0     H70216   1.348  10.333   9.686  0.0226 -0.4196 -0.0717
  532MOL0     H70217   1.247  10.459   9.619 -0.7871 -1.5332  1.0854
  532MOL0     H70218   1.535  10.448   9.522 -0.0519 -1.4000  0.8861
  532MOL0     H70219   1.395  10.541   9.465  3.3177  1.4874  1.0947
  532MOL0     H70220   1.459  10.322   9.325  0.4614  0.9498 -0.7310
  532MOL0     H70221   1.405  10.232   9.464  0.5070  0.9851  1.2393
  532MOL0     H70222   1.033  10.402   9.304 -0.5669  0.3730  0.1594
  532MOL0     H70223   1.183  10.737   9.692 -1.8033  3.6476 -0.3895
  532MOL0     H70224   0.955  10.809   9.702 -0.3932 -0.0817 -0.2553
  533MOL0     O70225   6.884   7.452   0.030 -0.4334  0.7559 -0.0073
  533MOL0     C70226   6.941   7.509   0.121  0.1193  0.4950 -0.2316
  533MOL0     O70227   6.885   7.543   0.245 -0.2747 -0.5458 -0.0038
  533MOL0     C70228   6.749   7.509   0.269 -0.9139  0.0392  0.2718
  533MOL0     C70229   6.699   7.376   0.271 -0.7162  0.5494 -0.4841
  533MOL0     C70230   6.566   7.356   0.271  0.2921 -0.9000 -0.0615
  533MOL0     C70231   6.478   7.459   0.268  0.2075  0.6834 -0.3660
  533MOL0     O70232   6.348   7.423   0.275 -0.2576  0.2550 -0.1290
  533MOL0     C70233   6.286   7.476   0.396  0.4335 -0.0899 -0.1968
  533MOL0     C70234   6.138   7.470   0.374 -0.1927  0.3332  0.4751
  533MOL0     C70235   6.098   7.330   0.356  0.2840  0.5190  0.2257
  533MOL0     C70236   5.952   7.304   0.389 -0.4546 -0.1676  0.2938
  533MOL0     C70237   5.875   7.322   0.262  0.5551  0.6375 -0.5573
  533MOL0     C70238   5.837   7.467   0.225  0.6973  0.5432 -0.1000
  533MOL0     C70239   5.711   7.473   0.134 -0.0239 -0.0291 -0.1136
  533MOL0     C70240   5.744   7.431  -0.013 -0.3002  0.6053  0.0664
  533MOL0     N70241   5.640   7.476  -0.105 -0.1881 -0.4816 -0.0026
  533MOL0     C70242   5.617   7.609  -0.141  0.2356 -0.3503 -0.5431
  533MOL0     C70243   5.493   7.610  -0.200 -0.7836 -0.7371 -0.2211
  533MOL0     C70244   5.430   7.725  -0.277  0.2167  0.0165 -0.2559
  533MOL0     C70245   5.282   7.733  -0.237  0.4841 -0.4420  0.0921
  533MOL0     C70246   5.211   7.856  -0.313 -0.0331  0.4094  0.0131
  533MOL0     C70247   5.070   7.871  -0.273  0.8209 -0.3062  0.6874
  533MOL0     O70248   4.983   7.774  -0.332 -0.1713 -0.2083 -0.0249
  533MOL0     C70249   4.849   7.786  -0.308  0.1405 -0.4364  0.6720
  533MOL0     C70250   4.778   7.664  -0.313  0.1376  0.2541  0.2422
  533MOL0     C70251   4.634   7.658  -0.280 -0.4931  0.3936 -1.2601
  533MOL0     C70252   4.565   7.776  -0.259 -0.5349  0.2523  0.9092
  533MOL0     C70253   4.417   7.778  -0.241  0.3641  0.4990 -0.4701
  533MOL0     O70254   4.354   7.662  -0.282 -0.4243  1.2680  0.4467
  533MOL0     C70255   4.219   7.649  -0.285  0.6702  0.7217 -0.2520
  533MOL0     C70256   4.169   7.515  -0.263  0.4329  0.5416 -0.2964
  533MOL0     C70257   4.026   7.489  -0.273  0.1258 -0.1704  0.1342
  533MOL0     C70258   3.936   7.589  -0.313  0.1999 -0.1020 -0.5106
  533MOL0     O70259   3.797   7.571  -0.335  0.0462  0.1639 -0.8085
  533MOL0     C70260   3.725   7.449  -0.338  0.0346  0.0592  0.3970
  533MOL0     C70261   3.593   7.475  -0.408  0.4803  0.7871  0.3628
  533MOL0     C70262   3.529   7.599  -0.358 -0.1383  0.3472  0.6940
  533MOL0     C70263   3.510   7.597  -0.206  0.2332 -0.3397  1.3572
  533MOL0     C70264   3.437   7.721  -0.157  0.4606 -0.0163 -0.3215
  533MOL0     C70265   3.288   7.728  -0.195  0.4529  0.0834 -0.1577
  533MOL0     C70266   3.238   7.867  -0.170 -0.1921  0.0245 -0.5302
  533MOL0     C70267   3.082   7.879  -0.137  0.5892  0.5616 -0.0403
  533MOL0    Cl70268   2.983   7.823  -0.276  0.1032 -0.6247  0.2900
  533MOL0     C70269   3.995   7.720  -0.328  0.2652  0.0247 -0.3417
  533MOL0     C70270   4.133   7.756  -0.308  0.0430  0.3640  0.2383
  533MOL0     O70271   4.365   7.870  -0.183  0.6016 -0.6008  0.3404
  533MOL0     C70272   4.639   7.898  -0.261 -0.9994  0.3874  0.2326
  533MOL0     C70273   4.779   7.895  -0.287 -0.3556 -0.8647  1.6546
  533MOL0     N70274   5.440   7.488  -0.184  0.4573  0.5631  0.3352
  533MOL0     N70275   5.530   7.407  -0.146 -0.1467  0.1496 -0.7538
  533MOL0     C70276   6.526   7.591   0.272 -0.3535  0.1318  0.5356
  533MOL0     C70277   6.660   7.613   0.272  0.5192  0.1400 -0.7826
  533MOL0     C70278   7.077   7.549   0.098 -0.1996 -0.2060  0.2801
  533MOL0     C70279   7.169   7.465   0.027  0.6819  0.1357 -0.2240
  533MOL0     C70280   7.304   7.497   0.005 -0.1150  0.5188 -0.2522
  533MOL0     C70281   7.349   7.625   0.040  0.2411 -0.7508 -0.5532
  533MOL0     O70282   7.475   7.658   0.016 -0.5990 -0.2827 -0.0682
  533MOL0     C70283   7.530   7.766   0.082 -0.2026  0.1618 -0.4193
  533MOL0     C70284   7.675   7.785   0.043 -0.1604  0.5159 -0.8407
  533MOL0     C70285   7.733   7.864   0.159 -0.6857 -0.7112 -0.6229
  533MOL0     C70286   7.860   7.927   0.113 -0.5275 -0.0610  0.4038
  533MOL0     C70287   7.959   7.828   0.056  0.1746 -0.4957  0.7394
  533MOL0     C70288   8.033   7.738   0.008  1.2897 -0.6287 -0.8252
  533MOL0     C70289   7.255   7.708   0.111 -0.4879  0.5654  0.3300
  533MOL0     C70290   7.127   7.672   0.140  0.1541 -0.1864  0.4597
  533MOL0     H70291   6.771   7.295   0.279 -1.0224  0.1094 -1.9586
  533MOL0     H70292   6.531   7.254   0.260 -0.1249 -0.8889  1.0555
  533MOL0     H70293   6.308   7.579   0.423 -1.2202 -0.2504  2.0141
  533MOL0     H70294   6.316   7.402   0.472 -1.5608 -3.7913 -2.6788
  533MOL0     H70295   6.106   7.528   0.287  0.3599  1.6943  1.1567
  533MOL0     H70296   6.086   7.489   0.468 -0.1621 -2.3855  1.1369
  533MOL0     H70297   6.163   7.277   0.426  1.2186  0.0716 -0.9467
  533MOL0     H70298   6.126   7.292   0.257  0.7629 -0.8404  0.8648
  533MOL0     H70299   5.940   7.201   0.424  1.1009 -0.6874 -0.6113
  533MOL0     H70300   5.924   7.367   0.474  2.4622 -1.6061  2.4757
  533MOL0     H70301   5.782   7.265   0.271  1.3953 -0.7736 -0.5097
  533MOL0     H70302   5.938   7.288   0.179  1.6828  4.3079 -1.3990
  533MOL0     H70303   5.923   7.519   0.183  0.2701  1.1034 -0.2989
  533MOL0     H70304   5.827   7.516   0.322  0.5468 -0.6173  0.4781
  533MOL0     H70305   5.637   7.400   0.168 -2.6666  1.6649 -1.9130
  533MOL0     H70306   5.665   7.572   0.133 -1.1176 -0.5223 -0.7762
  533MOL0     H70307   5.749   7.322  -0.016 -1.7383  0.4551  1.7376
  533MOL0     H70308   5.840   7.477  -0.040  0.6578 -1.1093  0.4476
  533MOL0     H70309   5.687   7.691  -0.130 -2.4104  2.2497 -1.8194
  533MOL0     H70310   5.435   7.706  -0.384 -1.4695  3.8743 -1.1907
  533MOL0     H70311   5.486   7.817  -0.256  1.2335 -0.7611  0.5625
  533MOL0     H70312   5.270   7.740  -0.129  1.9029 -2.8500  0.4673
  533MOL0     H70313   5.235   7.642  -0.277  3.9610 -2.2656 -0.1867
  533MOL0     H70314   5.270   7.948  -0.304  1.2127 -0.4500  0.8326
  533MOL0     H70315   5.208   7.836  -0.421  0.6759 -1.3060  0.2912
  533MOL0     H70316   5.034   7.965  -0.316 -1.3588 -1.2344  0.3112
  533MOL0     H70317   5.054   7.875  -0.165  1.8288 -1.7816  0.9212
  533MOL0     H70318   4.824   7.566  -0.319  0.2990  0.2558  1.2652
  533MOL0     H70319   4.572   7.570  -0.284 -0.0241 -0.2797  2.6281
  533MOL0     H70320   4.234   7.429  -0.252 -0.3894 -0.0960 -0.2941
  533MOL0     H70321   3.990   7.389  -0.252 -1.5153  0.5960  1.2199
  533MOL0     H70322   3.707   7.418  -0.234 -2.7952  2.4369  0.7166
  533MOL0     H70323   3.775   7.373  -0.399  0.1018  0.3749  0.0606
  533MOL0     H70324   3.523   7.391  -0.398  0.5808  0.4224 -1.6129
  533MOL0     H70325   3.614   7.483  -0.515  0.2236  1.1512  0.3413
  533MOL0     H70326   3.431   7.603  -0.408  0.6006 -1.1054 -0.9891
  533MOL0     H70327   3.586   7.688  -0.385  0.7869 -0.0340  1.3618
  533MOL0     H70328   3.459   7.507  -0.167  0.1356 -0.5516  0.7433
  533MOL0     H70329   3.601   7.602  -0.146  0.8393  0.0150  0.4256
  533MOL0     H70330   3.489   7.805  -0.205 -1.5845 -0.8035 -4.2742
  533MOL0     H70331   3.457   7.730  -0.050  0.6432  2.5501 -0.5041
  533MOL0     H70332   3.232   7.659  -0.132  0.1141  1.9166  1.6427
  533MOL0     H70333   3.286   7.695  -0.300  1.1625  2.0171 -0.8281
  533MOL0     H70334   3.297   7.904  -0.086 -0.6379 -2.5364  1.0135
  533MOL0     H70335   3.256   7.932  -0.256  1.5012  2.4900  1.5557
  533MOL0     H70336   3.064   7.986  -0.127  4.1297  1.4728 -1.7618
  533MOL0     H70337   3.053   7.818  -0.051  0.4637  0.6016 -0.0549
  533MOL0     H70338   3.921   7.794  -0.357 -1.7878  0.8535  5.6865
  533MOL0     H70339   4.173   7.854  -0.329  0.7586  0.3935  1.6537
  533MOL0     H70340   4.601   7.997  -0.236 -0.2215  0.6418  0.4219
  533MOL0     H70341   4.833   7.990  -0.290 -2.3678  0.3253  0.0498
  533MOL0     H70342   6.445   7.664   0.276  0.0923  1.1745 -3.8771
  533MOL0     H70343   6.702   7.713   0.269 -1.8825  1.2080 -1.9527
  533MOL0     H70344   7.127   7.376  -0.020  0.5096  0.3199 -0.4217
  533MOL0     H70345   7.372   7.436  -0.054 -0.9702 -0.0629 -0.6651
  533MOL0     H70346   7.536   7.739   0.187  1.2240  2.0286  0.0472
  533MOL0     H70347   7.472   7.859   0.072 -1.7407 -0.1089  4.0004
  533MOL0     H70348   7.721   7.685   0.043  1.3441  1.1701 -2.2564
  533MOL0     H70349   7.687   7.837  -0.052  1.0677  1.1012 -0.3936
  533MOL0     H70350   7.753   7.805   0.249  0.0582 -0.3051 -0.5119
  533MOL0     H70351   7.665   7.943   0.192 -1.9188 -2.8595  2.4642
  533MOL0     H70352   7.840   8.004   0.038 -0.0534  1.4757  1.7940
  533MOL0     H70353   7.905   7.984   0.195  0.3606  1.6869 -1.2464
  533MOL0     H70354   8.102   7.662  -0.021 -0.3031 -2.9380  1.0544
  533MOL0     H70355   7.281   7.810   0.139 -0.5968  1.0526 -1.2612
  533MOL0     H70356   7.061   7.739   0.194 -0.6905 -0.8984  0.3382
  534MOL0     O70357   5.319   9.811   1.285 -0.3463 -0.1118 -0.2015
  534MOL0     C70358   5.365   9.732   1.204 -0.0237  0.0901  0.1139
  534MOL0     O70359   5.289   9.654   1.120 -1.0372  0.3005 -0.2688
  534MOL0     C70360   5.153   9.657   1.118 -0.3249  0.3962  0.1892
  534MOL0     C70361   5.071   9.604   1.218 -0.4448 -0.5459 -0.3289
  534MOL0     C70362   4.934   9.622   1.215 -0.1905  0.5303  0.2869
  534MOL0     C70363   4.871   9.682   1.101 -0.7720  0.1247 -0.2242
  534MOL0     O70364   4.733   9.699   1.088  0.1000 -0.8700 -0.4222
  534MOL0     C70365   4.641   9.668   1.200 -1.0231  0.3141  0.6128
  534MOL0     C70366   4.493   9.687   1.162  0.0483  0.3305 -0.3558
  534MOL0     C70367   4.445   9.825   1.126 -0.3179 -0.6930 -0.4629
  534MOL0     C70368   4.293   9.819   1.077  0.3356 -0.6958  0.7843
  534MOL0     C70369   4.234   9.956   1.061  0.6646  0.2647 -0.2308
  534MOL0     C70370   4.269  10.004   0.917 -0.3623  0.1083  0.2614
  534MOL0     C70371   4.151   9.984   0.829  0.4185 -0.3879 -0.2891
  534MOL0     C70372   4.192  10.016   0.676 -0.1901 -0.0440  0.1674
  534MOL0     N70373   4.206  10.163   0.656  0.1352  0.9867 -0.5322
  534MOL0     C70374   4.315  10.238   0.686  1.3469  0.9991  0.6528
  534MOL0     C70375   4.292  10.362   0.636  0.5841 -0.7973  0.7584
  534MOL0     C70376   4.372  10.492   0.647  0.7703  0.1858 -0.3031
  534MOL0     C70377   4.378  10.550   0.793  1.2148  0.8574  0.0521
  534MOL0     C70378   4.240  10.596   0.847 -0.3834  1.5491 -0.5622
  534MOL0     C70379   4.255  10.682   0.972 -0.3159 -0.1334 -0.3751
  534MOL0     O70380   4.134  10.756   1.008 -0.6736 -0.5429  0.3695
  534MOL0     C70381   4.022  10.700   1.057  0.0708  0.2740 -0.3199
  534MOL0     C70382   4.024  10.583   1.144 -0.6771  0.3977  1.0660
  534MOL0     C70383   3.908  10.515   1.180 -0.0014  0.1606 -0.3302
  534MOL0     C70384   3.785  10.582   1.158  0.5332 -0.0427  0.1442
  534MOL0     C70385   3.661  10.529   1.215  0.1652  0.7309 -0.4790
  534MOL0     O70386   3.666  10.401   1.259 -0.2262  0.1303  0.2248
  534MOL0     C70387   3.555  10.336   1.285 -0.7473  0.2848  0.4228
  534MOL0     C70388   3.471  10.284   1.185  0.3941  0.4019 -0.0837
  534MOL0     C70389   3.357  10.225   1.222  0.4858  0.5639  0.1856
  534MOL0     C70390   3.315  10.214   1.353 -0.0929 -0.4852 -0.7018
  534MOL0     O70391   3.193  10.147   1.360 -0.3184 -0.3896 -0.0361
  534MOL0     C70392   3.113  10.156   1.477 -1.0124  0.4961 -0.3218
  534MOL0     C70393   2.986  10.071   1.450 -0.4920 -0.1710  0.1883
  534MOL0     C70394   2.914  10.144   1.335 -0.1961  0.0122 -0.0618
  534MOL0     C70395   2.767  10.091   1.321 -0.0589 -0.3616 -0.5486
  534MOL0     C70396   2.706  10.171   1.203  0.0736 -0.2536 -0.3460
  534MOL0     C70397   2.553  10.146   1.199 -0.3273  0.0511  0.1868
  534MOL0     C70398   2.477  10.244   1.097  0.2538  0.7842  1.0430
  534MOL0     C70399   2.327  10.206   1.088  0.8836  0.0588 -0.2298
  534MOL0    Cl70400   2.248  10.293   0.953 -0.3953 -0.2540 -0.5377
  534MOL0     C70401   3.393  10.269   1.460  0.5081  0.8617  0.1039
  534MOL0     C70402   3.514  10.331   1.423  0.8617 -0.3366  0.3449
  534MOL0     O70403   3.558  10.598   1.220  0.5123 -0.3766 -0.0190
  534MOL0     C70404   3.781  10.702   1.087  0.6483  0.3683 -0.3096
  534MOL0     C70405   3.896  10.761   1.037 -0.2526  0.1002 -1.3012
  534MOL0     N70406   4.165  10.353   0.570  0.1240  0.4028 -0.6771
  534MOL0     N70407   4.123  10.235   0.586  0.7191 -0.2885  0.3321
  534MOL0     C70408   4.955   9.736   1.001  0.0887  0.8257 -0.8570
  534MOL0     C70409   5.093   9.718   1.010 -0.5421  0.0730 -0.7917
  534MOL0     C70410   5.510   9.705   1.197  0.2827 -0.5178  0.0337
  534MOL0     C70411   5.566   9.592   1.133 -0.3497 -0.8299  0.5758
  534MOL0     C70412   5.709   9.579   1.117  0.5157 -0.0825  0.0737
  534MOL0     C70413   5.797   9.668   1.174  0.4551  0.4863  0.2008
  534MOL0     O70414   5.924   9.620   1.173  0.2645 -0.1506 -0.1754
  534MOL0     C70415   6.025   9.717   1.204  0.2550  0.1940 -0.2095
  534MOL0     C70416   6.161   9.664   1.169  1.0632  0.1792  0.0067
  534MOL0     C70417   6.166   9.639   1.021 -0.9198  0.1708 -0.3292
  534MOL0     C70418   6.298   9.587   0.966  0.2292  0.4541  0.3811
  534MOL0     C70419   6.382   9.703   0.975 -0.6180 -0.5899 -0.2123
  534MOL0     C70420   6.446   9.804   0.996  0.1696  0.3341 -0.5858
  534MOL0     C70421   5.741   9.788   1.230  0.1790 -0.1748 -0.9614
  534MOL0     C70422   5.600   9.807   1.241 -0.9201 -0.4837  1.0955
  534MOL0     H70423   5.118   9.560   1.306  1.3143  3.3846  0.9490
  534MOL0     H70424   4.873   9.586   1.297  0.9260  0.2514  1.0117
  534MOL0     H70425   4.669   9.731   1.285  0.4789  0.9196 -0.2975
  534MOL0     H70426   4.655   9.563   1.228  2.7328 -0.2670 -2.5322
  534MOL0     H70427   4.431   9.651   1.245 -0.1332 -2.8154 -1.7171
  534MOL0     H70428   4.464   9.634   1.070 -0.9984 -1.1384  0.7695
  534MOL0     H70429   4.504   9.868   1.044 -1.1973 -0.7997 -1.1772
  534MOL0     H70430   4.458   9.883   1.218  0.7865 -1.5372 -0.0721
  534MOL0     H70431   4.280   9.761   0.985 -0.5702  0.3843  0.2118
  534MOL0     H70432   4.242   9.772   1.162  1.3980 -0.6380  1.4786
  534MOL0     H70433   4.268  10.025   1.138  0.5200  1.3737 -1.1436
  534MOL0     H70434   4.126   9.958   1.074  1.0115  3.3935  4.6523
  534MOL0     H70435   4.356   9.944   0.889 -0.6299 -1.8771  3.2157
  534MOL0     H70436   4.299  10.108   0.932  3.2070 -0.8041  0.3687
  534MOL0     H70437   4.107   9.885   0.841 -0.5706  0.1892  1.0138
  534MOL0     H70438   4.072  10.053   0.857  0.2196 -0.6594 -0.1819
  534MOL0     H70439   4.111   9.983   0.611 -1.1504 -1.3166  1.9408
  534MOL0     H70440   4.279   9.953   0.656 -1.7764 -2.2587 -0.0403
  534MOL0     H70441   4.410  10.224   0.736  1.5959 -1.2439 -0.3209
  534MOL0     H70442   4.328  10.573   0.587 -1.8646  0.7957  2.2462
  534MOL0     H70443   4.473  10.461   0.620  1.2556  0.0865  1.5215
  534MOL0     H70444   4.448  10.634   0.786  3.1925 -0.8004 -0.9142
  534MOL0     H70445   4.428  10.480   0.860  2.7298  1.2017 -0.6876
  534MOL0     H70446   4.183  10.647   0.769 -2.0364  2.6510  1.2722
  534MOL0     H70447   4.180  10.510   0.878 -1.4083  2.3353 -0.2950
  534MOL0     H70448   4.337  10.755   0.969 -1.4011  1.1104 -2.2059
  534MOL0     H70449   4.286  10.613   1.051  1.5007  1.4810  0.4108
  534MOL0     H70450   4.117  10.539   1.177 -2.1833 -4.4707 -0.2633
  534MOL0     H70451   3.935  10.434   1.246  1.2307  1.2610  0.5723
  534MOL0     H70452   3.498  10.288   1.080 -1.1651  0.3548 -0.5119
  534MOL0     H70453   3.307  10.166   1.146  0.7980 -0.0903  0.4794
  534MOL0     H70454   3.094  10.262   1.495 -0.8225  0.0509  3.2793
  534MOL0     H70455   3.170  10.123   1.564  0.1825 -0.8206 -1.5413
  534MOL0     H70456   2.920  10.067   1.537  0.6091 -1.4308  1.0080
  534MOL0     H70457   3.011   9.969   1.420  1.2622  0.0539  0.7437
  534MOL0     H70458   2.976  10.127   1.247  0.3993  2.0082 -0.0786
  534MOL0     H70459   2.913  10.252   1.351  0.3305  0.0390 -0.1999
  534MOL0     H70460   2.763   9.982   1.305 -1.8514 -0.6601  1.5410
  534MOL0     H70461   2.714  10.119   1.412  1.3110 -4.9851  2.0058
  534MOL0     H70462   2.759  10.126   1.119 -2.7251 -1.0905 -1.8042
  534MOL0     H70463   2.706  10.279   1.220  0.1134 -0.5040  1.4666
  534MOL0     H70464   2.503  10.165   1.295 -1.7856 -0.4835 -0.4327
  534MOL0     H70465   2.542  10.040   1.177  0.9182  0.0313 -0.4030
  534MOL0     H70466   2.492  10.351   1.117 -2.2271  1.4545 -0.2032
  534MOL0     H70467   2.512  10.222   0.996 -1.6864 -2.3134  0.9198
  534MOL0     H70468   2.278  10.226   1.184  0.6809 -0.2717 -0.2662
  534MOL0     H70469   2.314  10.101   1.064 -0.9566  0.9864 -4.0772
  534MOL0     H70470   3.357  10.273   1.562  0.4960 -1.8316  0.2722
  534MOL0     H70471   3.583  10.367   1.499  3.0046 -0.3035 -1.5062
  534MOL0     H70472   3.689  10.748   1.053 -0.3395  0.6075  2.4468
  534MOL0     H70473   3.891  10.855   0.984 -0.2475  0.6373 -0.3701
  534MOL0     H70474   4.910   9.782   0.914  0.2611  0.4354 -1.1512
  534MOL0     H70475   5.157   9.756   0.931 -3.0346  1.5105 -2.2370
  534MOL0     H70476   5.499   9.524   1.081 -1.6992  1.7753 -1.3677
  534MOL0     H70477   5.743   9.491   1.064 -0.6266 -1.0907  0.9506
  534MOL0     H70478   6.023   9.716   1.313 -0.8986 -0.3495 -0.2211
  534MOL0     H70479   6.001   9.813   1.156 -0.1003 -0.8803 -2.2991
  534MOL0     H70480   6.236   9.738   1.198  0.9548 -0.6344  2.5825
  534MOL0     H70481   6.177   9.568   1.219  1.1176 -0.1510 -0.6381
  534MOL0     H70482   6.137   9.733   0.974 -3.6445 -0.6061 -0.3598
  534MOL0     H70483   6.090   9.563   0.998 -2.7964  2.0636 -0.7342
  534MOL0     H70484   6.333   9.505   1.029  1.4339  1.6036  1.2720
  534MOL0     H70485   6.282   9.551   0.864  2.0303 -0.1488  0.2751
  534MOL0     H70486   6.511   9.887   1.012  0.1989  0.0742  0.7741
  534MOL0     H70487   5.805   9.850   1.292 -1.1973 -0.5620  0.9351
  534MOL0     H70488   5.566   9.899   1.286 -2.0247 -0.9982  1.3332
  535MOL0     O70489   3.371   2.461   4.148  0.1783  0.4669  0.3876
  535MOL0     C70490   3.447   2.367   4.151  0.0212  0.1691  0.7852
  535MOL0     O70491   3.439   2.260   4.234  0.6969 -0.2421 -0.2221
  535MOL0     C70492   3.351   2.256   4.336  0.1550  0.5410 -0.7228
  535MOL0     C70493   3.398   2.224   4.462 -0.0881 -0.1007  0.7760
  535MOL0     C70494   3.317   2.229   4.578  0.5585  0.3165 -0.0141
  535MOL0     C70495   3.181   2.256   4.561 -0.8501  0.1900 -0.0631
  535MOL0     O70496   3.084   2.233   4.650  0.0617  0.2326  0.0986
  535MOL0     C70497   3.127   2.218   4.792  0.3759  0.4709  0.4562
  535MOL0     C70498   3.025   2.263   4.897 -0.5896 -0.2119  0.6871
  535MOL0     C70499   2.882   2.229   4.841  0.1186  0.0906 -0.1117
  535MOL0     C70500   2.769   2.228   4.938  0.3925  0.6963 -0.0953
  535MOL0     C70501   2.763   2.338   5.041  0.0471 -0.6545 -0.4228
  535MOL0     C70502   2.628   2.335   5.106 -1.2268  0.7096 -0.0312
  535MOL0     C70503   2.516   2.400   5.022 -0.1361  0.0063 -0.1838
  535MOL0     C70504   2.404   2.310   4.983  1.4157  0.3904  0.1115
  535MOL0     N70505   2.309   2.285   5.093  1.1922 -1.4111  0.4774
  535MOL0     C70506   2.279   2.159   5.137 -0.4449 -1.0974 -0.0827
  535MOL0     C70507   2.156   2.173   5.191 -0.2589  0.4250 -0.5317
  535MOL0     C70508   2.060   2.075   5.253  0.4760  0.3708 -0.1836
  535MOL0     C70509   1.917   2.117   5.300  1.1058 -1.4525  0.0868
  535MOL0     C70510   1.822   2.145   5.181 -1.1816  0.8971 -0.1106
  535MOL0     C70511   1.706   2.220   5.224  0.3823 -0.3852  0.4742
  535MOL0     O70512   1.637   2.263   5.110  0.2696  0.2828 -0.2081
  535MOL0     C70513   1.511   2.323   5.135  0.7861 -0.8415  0.2916
  535MOL0     C70514   1.456   2.369   5.021 -0.5170  0.1024  0.6439
  535MOL0     C70515   1.338   2.439   5.029 -0.4613 -0.5278  0.0418
  535MOL0     C70516   1.258   2.455   5.144 -0.3174  0.0058  0.4686
  535MOL0     C70517   1.131   2.522   5.144  0.3612 -0.1346  0.0688
  535MOL0     O70518   1.083   2.549   5.014  0.1161 -0.0781 -0.3881
  535MOL0     C70519   0.965   2.613   5.009 -0.4682 -0.9057  0.8200
  535MOL0     C70520   0.845   2.544   5.006 -0.3351 -0.0476 -0.3641
  535MOL0     C70521   0.725   2.608   4.985 -0.4143 -0.3260 -0.3894
  535MOL0     C70522   0.722   2.750   4.979  0.2062 -0.0943 -0.0325
  535MOL0     O70523   0.603   2.807   4.945 -0.3039 -0.7367 -0.0393
  535MOL0     C70524   0.591   2.946   4.958  0.1077 -0.4325 -0.1151
  535MOL0     C70525   0.438   2.985   4.968 -0.7405 -0.6584 -1.3294
  535MOL0     C70526   0.423   3.134   4.963  0.1898 -0.4442 -0.4743
  535MOL0     C70527   0.278   3.183   4.949  0.4834 -0.3693 -0.8449
  535MOL0     C70528   0.252   3.330   4.931 -0.6784 -0.0996 -0.2930
  535MOL0     C70529   0.314   3.411   5.042  0.0501 -0.1189  0.2706
  535MOL0     C70530   0.289   3.560   5.021  0.7552  0.4577 -0.1642
  535MOL0     C70531   0.151   3.596   5.075 -0.4731 -0.3605  0.7861
  535MOL0    Cl70532   0.114   3.767   5.015  0.1370 -0.4809 -0.0983
  535MOL0     C70533   0.848   2.813   4.982 -0.2380 -0.3114  0.5306
  535MOL0     C70534   0.968   2.748   4.994  0.0998  0.3681  0.7985
  535MOL0     O70535   1.074   2.539   5.251  0.0921 -0.4061  0.0771
  535MOL0     C70536   1.314   2.390   5.258  1.0699 -0.3754 -0.3228
  535MOL0     C70537   1.438   2.318   5.252 -0.0118  0.1790  0.4795
  535MOL0     N70538   2.116   2.303   5.177  0.0697 -0.0930 -0.6407
  535MOL0     N70539   2.211   2.368   5.122  1.2236  0.2821  0.2427
  535MOL0     C70540   3.130   2.257   4.433  0.0391  0.3590  0.4073
  535MOL0     C70541   3.217   2.277   4.319  0.4054  0.3057  0.2121
  535MOL0     C70542   3.556   2.361   4.041 -0.2126  0.1060  0.3162
  535MOL0     C70543   3.648   2.256   4.037  1.0088 -0.1169  0.7067
  535MOL0     C70544   3.717   2.234   3.922 -0.4361  0.5025 -0.5830
  535MOL0     C70545   3.708   2.322   3.812 -1.3997  0.4462  0.5737
  535MOL0     O70546   3.802   2.291   3.710  0.1683  0.3427 -0.0757
  535MOL0     C70547   3.822   2.400   3.616  0.1930 -0.2735 -0.7255
  535MOL0     C70548   3.918   2.373   3.503  0.4726  0.2400 -0.6015
  535MOL0     C70549   4.061   2.372   3.555 -0.3726 -0.6971  0.0034
  535MOL0     C70550   4.152   2.330   3.433  0.3812 -0.3737  0.7861
  535MOL0     C70551   4.161   2.446   3.331  0.0963  0.7120 -1.0668
  535MOL0     C70552   4.135   2.539   3.253  0.4411  0.6546 -0.0547
  535MOL0     C70553   3.616   2.431   3.822 -0.0321  0.5473  0.7413
  535MOL0     C70554   3.540   2.450   3.932 -0.3972 -0.6030 -0.3770
  535MOL0     H70555   3.505   2.205   4.454 -0.7227 -3.8438 -0.9257
  535MOL0     H70556   3.364   2.204   4.672 -1.5767  0.9341  1.3069
  535MOL0     H70557   3.217   2.276   4.816  0.9833 -0.4841  0.5532
  535MOL0     H70558   3.157   2.114   4.802 -1.2398 -0.2157 -1.3669
  535MOL0     H70559   3.034   2.372   4.906  0.9399  0.2198 -3.7023
  535MOL0     H70560   3.045   2.205   4.987  0.6017 -0.1128  0.5031
  535MOL0     H70561   2.877   2.129   4.796 -0.8653  0.4172 -0.7742
  535MOL0     H70562   2.860   2.297   4.758 -1.6176  1.3146  1.2570
  535MOL0     H70563   2.681   2.193   4.883  0.5329 -2.8515  1.6672
  535MOL0     H70564   2.781   2.141   5.003 -0.5634  0.5147 -0.1416
  535MOL0     H70565   2.774   2.435   4.991 -1.8435  1.0990  2.2575
  535MOL0     H70566   2.837   2.321   5.120  1.1417 -0.1515 -1.3061
  535MOL0     H70567   2.639   2.391   5.200  2.6942  0.2305 -0.0260
  535MOL0     H70568   2.612   2.229   5.123  0.8287 -0.4094 -3.8050
  535MOL0     H70569   2.468   2.476   5.084 -1.5086 -1.3293  0.4535
  535MOL0     H70570   2.556   2.448   4.932  0.2992 -1.5272 -0.8362
  535MOL0     H70571   2.450   2.213   4.960  0.7652 -0.0437  0.5805
  535MOL0     H70572   2.345   2.347   4.899  1.7949  1.7459  0.4296
  535MOL0     H70573   2.325   2.061   5.125 -1.5858 -1.6568  0.0661
  535MOL0     H70574   2.115   2.034   5.339 -0.9226 -2.4878 -0.5327
  535MOL0     H70575   2.051   1.994   5.181  4.0089  0.3919 -0.8289
  535MOL0     H70576   1.922   2.198   5.373  2.4193 -1.0126 -0.4693
  535MOL0     H70577   1.862   2.028   5.334 -1.6739  0.5566  1.2564
  535MOL0     H70578   1.879   2.218   5.122  0.5027 -0.7172 -0.5709
  535MOL0     H70579   1.802   2.063   5.112 -0.9785  1.9608 -1.4818
  535MOL0     H70580   1.735   2.304   5.288 -2.1667 -0.6403  2.1022
  535MOL0     H70581   1.642   2.153   5.281  0.1931  0.5317  1.3596
  535MOL0     H70582   1.523   2.353   4.937  0.7703  0.3033  1.5968
  535MOL0     H70583   1.306   2.492   4.939  0.7653  0.2324  0.0253
  535MOL0     H70584   0.840   2.438   5.029 -2.3313  0.6757  3.3486
  535MOL0     H70585   0.638   2.544   4.977  0.1388 -1.0823 -0.4636
  535MOL0     H70586   0.636   2.993   4.870  2.1088 -0.9912  0.5418
  535MOL0     H70587   0.646   2.977   5.048 -2.4739  1.9026  0.7915
  535MOL0     H70588   0.389   2.942   5.057  0.2657 -2.6918 -1.7014
  535MOL0     H70589   0.395   2.948   4.874 -0.2119 -0.2859 -1.7192
  535MOL0     H70590   0.474   3.182   4.879  0.3942  0.6857  0.2640
  535MOL0     H70591   0.467   3.180   5.052 -3.3819  2.0790  0.2232
  535MOL0     H70592   0.242   3.134   4.857 -0.8661  1.2558 -1.2399
  535MOL0     H70593   0.214   3.137   5.025  0.3588  0.5208 -0.3987
  535MOL0     H70594   0.144   3.350   4.932 -0.6313  0.1926 -0.6524
  535MOL0     H70595   0.299   3.384   4.848  0.2628  0.6865  0.7177
  535MOL0     H70596   0.421   3.389   5.050  0.2514 -0.2571 -2.1209
  535MOL0     H70597   0.267   3.383   5.136 -3.2860 -3.6313 -2.1522
  535MOL0     H70598   0.359   3.621   5.079  0.9006 -0.2626  0.4338
  535MOL0     H70599   0.305   3.587   4.917  3.1426 -1.2580 -0.3289
  535MOL0     H70600   0.138   3.597   5.183 -2.3216  0.0683  0.6022
  535MOL0     H70601   0.070   3.529   5.044  0.0355 -0.4783 -0.3361
  535MOL0     H70602   0.855   2.917   4.952 -1.5996 -0.1111  0.8596
  535MOL0     H70603   1.059   2.803   4.973  0.5680 -1.6303 -3.4208
  535MOL0     H70604   1.249   2.389   5.345  2.0004 -1.9119  0.3813
  535MOL0     H70605   1.467   2.261   5.340 -1.1597 -1.2969 -0.0576
  535MOL0     H70606   3.024   2.260   4.411  0.2858 -0.8931 -1.1022
  535MOL0     H70607   3.172   2.283   4.221 -0.5843  2.1900  0.7528
  535MOL0     H70608   3.641   2.186   4.119 -0.5756 -1.1777 -0.2915
  535MOL0     H70609   3.780   2.146   3.915 -1.6361 -0.3129 -1.5633
  535MOL0     H70610   3.857   2.488   3.671  0.1616 -1.4574  1.3318
  535MOL0     H70611   3.718   2.416   3.586  0.6226  0.0168 -2.0881
  535MOL0     H70612   3.892   2.274   3.466  1.0795 -0.3295  0.4381
  535MOL0     H70613   3.892   2.451   3.430 -1.8126  1.4399  1.3176
  535MOL0     H70614   4.071   2.309   3.644  0.1608 -0.3367  0.2024
  535MOL0     H70615   4.082   2.474   3.588 -2.6349 -0.0186 -0.4870
  535MOL0     H70616   4.253   2.306   3.468 -0.3304 -1.6280  2.1070
  535MOL0     H70617   4.108   2.240   3.388  2.0034 -1.6500  1.6188
  535MOL0     H70618   4.106   2.622   3.192 -0.5903 -0.7060 -1.5322
  535MOL0     H70619   3.607   2.501   3.740  1.3750 -1.2325 -1.0269
  535MOL0     H70620   3.453   2.515   3.935 -1.8721 -2.4571  2.3438
  536MOL0     O70621   8.616   5.349   5.009  0.8331  0.1268  0.5858
  536MOL0     C70622   8.714   5.410   4.965  0.2568  0.2534  0.4276
  536MOL0     O70623   8.716   5.517   4.872 -0.1959 -0.1228  0.5199
  536MOL0     C70624   8.588   5.550   4.847  0.1315  0.4048  0.1934
  536MOL0     C70625   8.521   5.492   4.744 -0.1750  0.2835 -0.6092
  536MOL0     C70626   8.383   5.513   4.720 -0.3345  0.4876  0.1794
  536MOL0     C70627   8.316   5.602   4.799  0.1825 -0.3756 -0.2749
  536MOL0     O70628   8.178   5.624   4.820  0.0556 -0.3741 -0.7819
  536MOL0     C70629   8.086   5.530   4.778 -0.1130  0.0092  0.5050
  536MOL0     C70630   7.943   5.579   4.790 -0.6936 -0.3015  0.7154
  536MOL0     C70631   7.892   5.577   4.930  0.3959  0.5763 -0.8711
  536MOL0     C70632   7.889   5.440   5.008  0.7613 -0.6622 -0.6613
  536MOL0     C70633   7.777   5.437   5.115  0.0297 -0.0850 -0.3808
  536MOL0     C70634   7.636   5.411   5.054  0.1331 -0.4107  0.0030
  536MOL0     C70635   7.518   5.454   5.141  0.7014  0.1345 -0.4770
  536MOL0     C70636   7.394   5.487   5.067 -1.5391  0.4639  0.3344
  536MOL0     N70637   7.337   5.385   4.979 -0.6452  0.2996  0.1806
  536MOL0     C70638   7.211   5.400   4.921 -0.6285 -0.0643  0.2516
  536MOL0     C70639   7.197   5.295   4.838 -0.4221  0.1815 -0.0759
  536MOL0     C70640   7.097   5.291   4.714 -0.0845 -0.3817  0.3553
  536MOL0     C70641   6.956   5.238   4.736  0.0082 -0.7897  0.2477
  536MOL0     C70642   6.862   5.347   4.791 -0.9614 -0.4474  0.3050
  536MOL0     C70643   6.721   5.281   4.805  0.5339 -0.1210 -0.2958
  536MOL0     O70644   6.630   5.389   4.827 -0.1797  0.0739  0.7897
  536MOL0     C70645   6.503   5.355   4.839  0.2859  0.5925 -1.2492
  536MOL0     C70646   6.429   5.340   4.727 -0.2682  0.2799  0.7880
  536MOL0     C70647   6.306   5.275   4.741  0.4352 -0.2512  0.3395
  536MOL0     C70648   6.255   5.235   4.866 -0.1681  0.3599 -0.9379
  536MOL0     C70649   6.125   5.173   4.873  0.4742 -0.5879 -0.3780
  536MOL0     O70650   6.048   5.199   4.991  0.6119 -0.3556 -0.1548
  536MOL0     C70651   5.920   5.157   5.015  0.7340  0.1094 -1.0593
  536MOL0     C70652   5.824   5.110   4.922 -0.0744  0.4859 -0.0191
  536MOL0     C70653   5.690   5.073   4.951 -0.1586 -0.4869 -0.4224
  536MOL0     C70654   5.661   5.054   5.097 -0.3416  0.0711  0.6113
  536MOL0     O70655   5.542   5.010   5.138 -0.1975 -0.1686 -0.6216
  536MOL0     C70656   5.435   4.983   5.053 -1.2048 -0.0301 -0.6310
  536MOL0     C70657   5.323   4.965   5.155 -0.4000  0.7624  0.2281
  536MOL0     C70658   5.198   4.903   5.088 -0.7236  0.1129  0.3093
  536MOL0     C70659   5.068   4.933   5.158  0.2665 -0.1448  0.3472
  536MOL0     C70660   5.056   4.891   5.305 -0.1100  0.5586 -0.1458
  536MOL0     C70661   4.942   4.958   5.379 -0.7951  1.3213  0.5392
  536MOL0     C70662   4.798   4.928   5.338 -0.6826  0.2465 -0.3619
  536MOL0     C70663   4.685   4.977   5.426  0.1029 -0.8537 -0.3231
  536MOL0    Cl70664   4.724   4.931   5.589  0.5819 -0.0979 -0.5078
  536MOL0     C70665   5.763   5.088   5.189  0.0690  0.4422  0.3398
  536MOL0     C70666   5.890   5.137   5.153 -0.3188 -0.1302 -0.6266
  536MOL0     O70667   6.098   5.110   4.779 -0.1545 -0.0161 -0.1905
  536MOL0     C70668   6.332   5.263   4.980 -0.1606  0.5130  0.7030
  536MOL0     C70669   6.463   5.312   4.967  0.3599 -0.8412 -0.0431
  536MOL0     N70670   7.312   5.219   4.852  0.7590 -0.0622  0.3552
  536MOL0     N70671   7.390   5.275   4.931 -0.6678 -0.0616  0.3520
  536MOL0     C70672   8.389   5.676   4.892 -0.6467  0.2523 -0.5992
  536MOL0     C70673   8.527   5.655   4.919  0.6375  0.8203 -0.2715
  536MOL0     C70674   8.843   5.385   5.027  0.5848  0.3008 -0.3134
  536MOL0     C70675   8.850   5.315   5.143  0.1730  0.1764 -0.4789
  536MOL0     C70676   8.972   5.288   5.205 -0.2120 -0.1558 -0.2237
  536MOL0     C70677   9.084   5.349   5.158 -0.8348  0.2590 -0.5110
  536MOL0     O70678   9.203   5.323   5.215 -0.0385 -0.0750  0.4435
  536MOL0     C70679   9.321   5.376   5.157  0.0595 -0.4157 -0.5176
  536MOL0     C70680   9.351   5.525   5.213  0.2599 -0.3162  0.8135
  536MOL0     C70681   9.462   5.589   5.129 -1.0013 -0.1129  0.5422
  536MOL0     C70682   9.503   5.715   5.204 -0.8098  0.2491 -0.3914
  536MOL0     C70683   9.413   5.824   5.190  0.8260 -0.2080 -0.5659
  536MOL0     C70684   9.339   5.918   5.168  0.3522  0.6588  0.9513
  536MOL0     C70685   9.071   5.438   5.046  0.2158 -0.5226  0.4371
  536MOL0     C70686   8.962   5.438   4.974 -0.0700 -0.4965 -0.0770
  536MOL0     H70687   8.568   5.411   4.689 -0.5675  1.0234 -2.0900
  536MOL0     H70688   8.337   5.454   4.642  2.9028 -2.4620  0.2977
  536MOL0     H70689   8.112   5.440   4.835  0.9654 -1.5936 -2.2945
  536MOL0     H70690   8.110   5.500   4.675  0.8599  0.2109  0.6652
  536MOL0     H70691   7.875   5.514   4.734  0.3241 -0.8824  0.1394
  536MOL0     H70692   7.942   5.680   4.747  0.4538 -0.3725  0.4808
  536MOL0     H70693   7.789   5.614   4.929 -1.2049 -3.0086  2.9551
  536MOL0     H70694   7.951   5.650   4.986  2.2128  0.9369 -3.0998
  536MOL0     H70695   7.856   5.369   4.931 -1.0884  1.0766 -1.5935
  536MOL0     H70696   7.991   5.417   5.040  1.6964  2.2688 -1.2104
  536MOL0     H70697   7.772   5.525   5.180  1.1436 -0.0256 -0.3557
  536MOL0     H70698   7.803   5.351   5.179 -1.2917  1.0007  1.7462
  536MOL0     H70699   7.632   5.302   5.040  0.4589 -0.6610  1.7155
  536MOL0     H70700   7.626   5.460   4.956 -0.2587  2.2762  1.3074
  536MOL0     H70701   7.483   5.370   5.201  0.0889  0.4129 -0.4351
  536MOL0     H70702   7.539   5.538   5.208  2.2716  0.9983 -1.9609
  536MOL0     H70703   7.422   5.565   4.995  1.1543 -1.0444 -0.3532
  536MOL0     H70704   7.318   5.530   5.133 -0.0657  4.1087 -0.1077
  536MOL0     H70705   7.155   5.490   4.942 -0.8420  0.3317 -1.8616
  536MOL0     H70706   7.144   5.232   4.636 -2.5440 -0.2262 -1.3427
  536MOL0     H70707   7.087   5.396   4.683 -0.4143  0.4840  3.0784
  536MOL0     H70708   6.969   5.159   4.810  0.4987 -0.4790  0.4951
  536MOL0     H70709   6.916   5.194   4.644 -3.6375 -0.1070  1.3446
  536MOL0     H70710   6.887   5.399   4.884 -1.7510  2.0325 -0.7918
  536MOL0     H70711   6.858   5.425   4.715 -0.0716 -2.1139 -1.5460
  536MOL0     H70712   6.709   5.207   4.885  1.1914  0.4223  0.3246
  536MOL0     H70713   6.696   5.236   4.709  0.5479  1.8072 -1.2570
  536MOL0     H70714   6.465   5.369   4.629  1.5069 -1.1318  0.9556
  536MOL0     H70715   6.247   5.257   4.651  0.9241  0.1371 -0.0681
  536MOL0     H70716   5.856   5.123   4.819 -0.2159 -1.0679 -0.2742
  536MOL0     H70717   5.624   5.070   4.865 -0.0303 -1.2524 -0.5054
  536MOL0     H70718   5.447   4.895   4.989 -0.0721  0.9757 -1.8583
  536MOL0     H70719   5.416   5.072   4.992  1.7879  2.4489  1.7120
  536MOL0     H70720   5.292   5.059   5.201 -1.8813  1.7129 -2.4844
  536MOL0     H70721   5.360   4.894   5.229 -1.9887 -1.5399 -1.0318
  536MOL0     H70722   5.213   4.795   5.089 -1.1224  0.0171 -1.5646
  536MOL0     H70723   5.182   4.940   4.987 -3.3279  1.5527  1.1495
  536MOL0     H70724   5.062   5.043   5.156  1.2149 -0.0867 -0.9862
  536MOL0     H70725   4.994   4.894   5.088  0.0301 -1.1626  1.1540
  536MOL0     H70726   5.143   4.924   5.363 -2.0778  0.7872  2.8469
  536MOL0     H70727   5.057   4.781   5.311  0.1878  0.5028 -1.0214
  536MOL0     H70728   4.956   5.066   5.371 -2.7876  1.6627  1.2292
  536MOL0     H70729   4.959   4.949   5.487  2.1567  0.5995  0.1132
  536MOL0     H70730   4.789   4.978   5.241 -2.4686  1.6403  0.4556
  536MOL0     H70731   4.787   4.820   5.325 -0.5835  0.1033  0.6852
  536MOL0     H70732   4.584   4.937   5.407 -0.0929 -1.7875  2.3244
  536MOL0     H70733   4.671   5.084   5.413 -3.2694 -1.3388 -1.8782
  536MOL0     H70734   5.752   5.064   5.294  0.7685 -4.0802 -0.4018
  536MOL0     H70735   5.963   5.169   5.226 -1.0318  1.8654 -0.7286
  536MOL0     H70736   6.306   5.258   5.085  2.7993 -0.3344  1.4891
  536MOL0     H70737   6.532   5.330   5.049  1.4696 -1.2942 -0.8492
  536MOL0     H70738   8.327   5.748   4.945  0.0656 -1.9148  3.6188
  536MOL0     H70739   8.579   5.723   4.986  0.2141  0.8697  0.0094
  536MOL0     H70740   8.760   5.285   5.196  0.5747 -2.3489 -1.0755
  536MOL0     H70741   8.981   5.232   5.298 -0.3650  0.4006  0.1278
  536MOL0     H70742   9.320   5.375   5.048 -0.9295 -2.4424 -0.5238
  536MOL0     H70743   9.403   5.309   5.185  0.7979 -0.1663 -2.0100
  536MOL0     H70744   9.260   5.584   5.202  1.0950  0.5914 -2.2087
  536MOL0     H70745   9.382   5.511   5.317 -0.2390 -1.1607  0.8621
  536MOL0     H70746   9.435   5.614   5.026 -0.8174  0.6814  0.6817
  536MOL0     H70747   9.536   5.510   5.118  1.4994  2.0586  0.8347
  536MOL0     H70748   9.520   5.687   5.309 -0.9039  2.1352  0.1796
  536MOL0     H70749   9.602   5.756   5.180 -0.2062  0.1537  1.7204
  536MOL0     H70750   9.274   6.002   5.169  1.6489  1.7640 -1.3006
  536MOL0     H70751   9.153   5.493   5.000  0.8181 -1.8755 -0.1748
  536MOL0     H70752   8.957   5.507   4.890  0.3942  0.0527  0.3301
  537MOL0     O70753  10.345   0.508   5.921 -0.0183 -0.2110 -0.4346
  537MOL0     C70754  10.382   0.618   5.874 -0.2435  0.8019  0.8557
  537MOL0     O70755  10.350   0.669   5.744 -0.3953 -0.1626  0.1331
  537MOL0     C70756  10.240   0.616   5.685  0.1494  0.1225  0.4356
  537MOL0     C70757  10.247   0.590   5.553  0.0933 -0.7948  0.3997
  537MOL0     C70758  10.134   0.541   5.489 -1.0079  0.2934  1.2495
  537MOL0     C70759  10.010   0.539   5.547 -0.0240 -0.5925  0.3657
  537MOL0     O70760   9.893   0.505   5.483  0.3714  0.6699  0.2749
  537MOL0     C70761   9.874   0.550   5.346  0.3427  1.2421 -0.2412
  537MOL0     C70762   9.739   0.501   5.296  0.3795 -0.4633 -1.0673
  537MOL0     C70763   9.752   0.464   5.150 -0.5941 -0.5445 -0.9906
  537MOL0     C70764   9.638   0.390   5.085 -0.7143  0.4057  0.6818
  537MOL0     C70765   9.505   0.444   5.068 -0.2661 -0.3609 -0.1357
  537MOL0     C70766   9.431   0.350   4.965 -1.0091  0.3391 -0.4337
  537MOL0     C70767   9.286   0.405   4.937 -0.3090  0.6992  0.5156
  537MOL0     C70768   9.207   0.415   5.059  0.1297  0.2006  0.7128
  537MOL0     N70769   9.062   0.413   5.039 -0.4652 -1.1688 -0.0502
  537MOL0     C70770   8.998   0.492   4.948  0.1961  0.1232 -0.4904
  537MOL0     C70771   8.873   0.437   4.945  0.2897 -0.2550  0.4361
  537MOL0     C70772   8.774   0.527   4.867  1.4081  0.2552 -0.7701
  537MOL0     C70773   8.649   0.568   4.945 -0.0810 -0.0523  0.1747
  537MOL0     C70774   8.553   0.451   5.003 -0.9095 -1.0679  1.3308
  537MOL0     C70775   8.533   0.329   4.910 -0.6124 -0.3847 -0.6979
  537MOL0     O70776   8.479   0.380   4.783 -0.4100  0.3087 -0.1860
  537MOL0     C70777   8.343   0.364   4.768 -0.1507 -0.8387  0.2000
  537MOL0     C70778   8.288   0.375   4.638  0.3029  0.2735 -0.0665
  537MOL0     C70779   8.154   0.349   4.616  0.3700  0.4647 -0.8347
  537MOL0     C70780   8.059   0.324   4.726 -0.2177 -0.5554  0.1416
  537MOL0     C70781   7.913   0.297   4.695 -0.1037  0.5761  0.4364
  537MOL0     O70782   7.886   0.252   4.576  0.1324  0.0992  0.0021
  537MOL0     C70783   7.773   0.190   4.550  1.1113 -0.2961 -0.2801
  537MOL0     C70784   7.739   0.057   4.600  0.0139 -0.2013  0.1583
  537MOL0     C70785   7.611   0.010   4.581  0.5523 -0.0918  0.3036
  537MOL0     C70786   7.511   0.080   4.508  0.1196  0.7197 -0.3430
  537MOL0     O70787   7.378   0.045   4.478 -0.3510 -0.2601  1.0520
  537MOL0     C70788   7.371  -0.090   4.444 -0.9366 -0.2032 -0.2389
  537MOL0     C70789   7.223  -0.126   4.415  0.2483  0.2823 -0.5982
  537MOL0     C70790   7.155  -0.049   4.297 -0.1664  0.6541  0.4389
  537MOL0     C70791   7.025  -0.123   4.252  0.5020  0.6077 -0.3236
  537MOL0     C70792   6.931  -0.026   4.182  0.7488  0.1593  0.3347
  537MOL0     C70793   6.816  -0.091   4.105 -0.4493  0.5651  0.5745
  537MOL0     C70794   6.701   0.012   4.089 -0.6978 -0.0949 -0.3019
  537MOL0     C70795   6.567  -0.058   4.062  0.9040 -0.0294 -0.4665
  537MOL0    Cl70796   6.574  -0.155   3.908 -0.4700 -0.3451 -0.1242
  537MOL0     C70797   7.548   0.198   4.450  0.1561  0.2943  1.1367
  537MOL0     C70798   7.679   0.250   4.461 -0.1579 -0.3000  0.6887
  537MOL0     O70799   7.828   0.302   4.788 -0.6832 -0.3528  0.2879
  537MOL0     C70800   8.117   0.331   4.855  0.6412  1.0184  0.4638
  537MOL0     C70801   8.253   0.354   4.874 -0.3396 -0.9240  0.1557
  537MOL0     N70802   8.870   0.340   5.042  0.4338 -0.2173 -0.0046
  537MOL0     N70803   8.982   0.316   5.097  0.3460 -0.0242  1.4170
  537MOL0     C70804  10.004   0.580   5.680 -0.1617  0.6903  0.7315
  537MOL0     C70805  10.120   0.616   5.750  0.1648 -0.1798 -0.6317
  537MOL0     C70806  10.470   0.692   5.970  0.4605  0.8193 -0.7062
  537MOL0     C70807  10.485   0.828   5.951 -0.1398  0.1523  0.6172
  537MOL0     C70808  10.583   0.898   6.022  0.0587  0.0772  0.2841
  537MOL0     C70809  10.671   0.836   6.115 -0.2980  1.3082  0.6548
  537MOL0     O70810  10.764   0.910   6.175  0.3780 -0.5938  0.0939
  537MOL0     C70811  10.853   0.841   6.266  0.4967 -0.0241  0.3027
  537MOL0     C70812  10.979   0.925   6.291 -0.2937  1.0481  0.0370
  537MOL0     C70813  11.056   0.945   6.172 -0.9663  0.5347  0.0358
  537MOL0     C70814  11.192   1.019   6.196  0.5381  0.0447 -0.0593
  537MOL0     C70815  11.285   0.941   6.275  1.2242 -0.6019 -0.3753
  537MOL0     C70816  11.375   0.880   6.320  0.5100  0.3617  0.2488
  537MOL0     C70817  10.640   0.700   6.139 -0.5459 -0.3430 -0.1019
  537MOL0     C70818  10.548   0.630   6.069  0.3729  0.2841 -0.0838
  537MOL0     H70819  10.340   0.590   5.497 -0.9072  2.0631 -1.4427
  537MOL0     H70820  10.140   0.531   5.381 -1.8395 -0.6093  1.2743
  537MOL0     H70821   9.955   0.537   5.275 -0.8914  0.2279 -1.5317
  537MOL0     H70822   9.873   0.659   5.348 -2.3587  1.3037  2.5718
  537MOL0     H70823   9.671   0.586   5.307  2.5582  1.3881 -1.2900
  537MOL0     H70824   9.697   0.418   5.354 -1.7047 -1.2733 -3.5171
  537MOL0     H70825   9.833   0.391   5.151 -1.1044 -1.2392  2.3850
  537MOL0     H70826   9.780   0.551   5.089 -1.2301  1.1177  0.9710
  537MOL0     H70827   9.680   0.372   4.986  0.9720 -0.0459  1.4419
  537MOL0     H70828   9.624   0.288   5.123 -1.0268 -0.4732 -1.6427
  537MOL0     H70829   9.510   0.540   5.015  1.1898 -0.4809 -0.2640
  537MOL0     H70830   9.459   0.457   5.166  4.3234 -1.1862  2.4016
  537MOL0     H70831   9.433   0.244   4.994  1.3060 -0.2274 -2.3886
  537MOL0     H70832   9.491   0.363   4.875  0.0029 -2.7428 -0.3211
  537MOL0     H70833   9.288   0.506   4.895 -0.1977  0.7146  0.5572
  537MOL0     H70834   9.236   0.341   4.864  0.9250 -1.2768  1.3192
  537MOL0     H70835   9.222   0.504   5.122 -1.9675  1.3574 -0.3121
  537MOL0     H70836   9.239   0.338   5.130  0.7917  2.0168  2.5025
  537MOL0     H70837   9.043   0.574   4.891  0.9079  1.0617  1.3463
  537MOL0     H70838   8.743   0.466   4.781  1.2353 -1.5887  0.5512
  537MOL0     H70839   8.825   0.616   4.827 -0.0041  0.9794 -1.0047
  537MOL0     H70840   8.584   0.624   4.877  0.3642 -1.3825 -1.4112
  537MOL0     H70841   8.665   0.637   5.028 -5.5840  1.0668  0.7092
  537MOL0     H70842   8.592   0.423   5.101 -3.1248  0.9839  2.9026
  537MOL0     H70843   8.457   0.500   5.022 -1.2257 -1.3183  0.4355
  537MOL0     H70844   8.459   0.264   4.957 -1.5167  1.3208  0.3525
  537MOL0     H70845   8.632   0.282   4.906  0.0080  0.9315 -3.6557
  537MOL0     H70846   8.357   0.393   4.556 -2.6599  0.7437 -2.6582
  537MOL0     H70847   8.109   0.347   4.518 -1.5190 -0.7931  0.0066
  537MOL0     H70848   7.820   0.005   4.649  1.1740 -0.3478 -1.8241
  537MOL0     H70849   7.592  -0.092   4.613  1.8836 -0.5573 -0.3305
  537MOL0     H70850   7.407  -0.155   4.525  0.3569 -1.9261 -2.1197
  537MOL0     H70851   7.428  -0.112   4.354 -1.2366  3.6866 -1.5371
  537MOL0     H70852   7.167  -0.118   4.508 -1.1196  0.9278 -1.4406
  537MOL0     H70853   7.219  -0.234   4.400  0.8966  0.0917  0.5287
  537MOL0     H70854   7.222  -0.054   4.211 -2.1330 -1.0331 -1.1096
  537MOL0     H70855   7.124   0.052   4.323 -0.0070  0.4265  1.5456
  537MOL0     H70856   7.055  -0.212   4.196 -1.9880  0.0203 -0.8509
  537MOL0     H70857   6.980  -0.168   4.341  1.0029  0.5585 -0.0864
  537MOL0     H70858   6.993   0.042   4.122 -0.5578 -0.9299 -2.3993
  537MOL0     H70859   6.892   0.032   4.266 -0.8088  2.8729 -2.0886
  537MOL0     H70860   6.767  -0.175   4.154  0.6684 -0.7650 -0.5226
  537MOL0     H70861   6.854  -0.128   4.010 -0.2684 -0.8455  1.1715
  537MOL0     H70862   6.695   0.091   4.164 -1.4778 -0.1049 -0.3500
  537MOL0     H70863   6.723   0.065   3.996 -1.0740 -1.3196 -1.1116
  537MOL0     H70864   6.480   0.007   4.055  0.6563 -0.1512  1.1132
  537MOL0     H70865   6.543  -0.127   4.143 -1.4088 -0.6866 -1.6338
  537MOL0     H70866   7.471   0.255   4.399  0.3170 -2.1423 -2.2022
  537MOL0     H70867   7.714   0.342   4.414  0.7358 -0.4383  1.0682
  537MOL0     H70868   8.048   0.321   4.938 -0.8698  0.6071 -0.7779
  537MOL0     H70869   8.286   0.361   4.977 -0.6735 -2.9836  0.4623
  537MOL0     H70870   9.903   0.588   5.720 -0.5487  0.3724 -0.1404
  537MOL0     H70871  10.108   0.649   5.852 -3.1857  1.5858 -1.4351
  537MOL0     H70872  10.435   0.891   5.879 -1.3210 -2.2650 -0.7946
  537MOL0     H70873  10.606   1.003   6.008  3.0625 -0.5811 -0.5682
  537MOL0     H70874  10.877   0.744   6.222  1.4388  0.6336 -0.6914
  537MOL0     H70875  10.799   0.830   6.361  0.1112  1.7005  0.3229
  537MOL0     H70876  10.950   1.022   6.331  0.1833  0.3304  2.2775
  537MOL0     H70877  11.028   0.875   6.375  0.2986  0.0340 -0.8853
  537MOL0     H70878  10.998   1.012   6.108 -1.3728  1.1107  0.9936
  537MOL0     H70879  11.078   0.846   6.130  0.4948  1.3235 -1.1523
  537MOL0     H70880  11.231   1.038   6.096 -1.0977  2.4906 -0.3314
  537MOL0     H70881  11.188   1.117   6.245  0.3042  0.6724 -1.3042
  537MOL0     H70882  11.458   0.828   6.362  1.8080  1.8889 -0.3141
  537MOL0     H70883  10.694   0.640   6.211 -0.8993  0.5379  0.9228
  537MOL0     H70884  10.545   0.522   6.082  0.1383 -0.1950 -3.3077
  538MOL0     O70885   0.984   2.411   4.203 -0.1604  0.4754 -0.5947
  538MOL0     C70886   0.993   2.290   4.243  0.1965 -0.4223  0.7193
  538MOL0     O70887   0.886   2.212   4.280 -0.5286 -0.1395  0.2849
  538MOL0     C70888   0.755   2.266   4.266 -0.0654  0.0982 -0.6571
  538MOL0     C70889   0.712   2.286   4.136  0.3790 -0.3554 -0.3046
  538MOL0     C70890   0.570   2.321   4.118  0.7594  0.1526 -1.2643
  538MOL0     C70891   0.482   2.348   4.227 -0.1717  0.4894 -0.3516
  538MOL0     O70892   0.352   2.374   4.200  0.0546 -0.5694  0.0099
  538MOL0     C70893   0.281   2.446   4.298 -0.0179 -0.2017  0.2659
  538MOL0     C70894   0.139   2.470   4.241 -0.2495  0.2334 -0.2436
  538MOL0     C70895   0.052   2.570   4.314 -0.3657 -0.3376  0.1174
  538MOL0     C70896  -0.022   2.670   4.217 -0.0331  0.6247  0.2455
  538MOL0     C70897  -0.135   2.596   4.154 -0.6300 -0.0114  0.1552
  538MOL0     C70898  -0.258   2.593   4.251 -0.2358  0.1248 -0.4997
  538MOL0     C70899  -0.383   2.558   4.176 -0.7962 -0.1162  0.8165
  538MOL0     C70900  -0.422   2.415   4.194  0.2262  1.6457 -0.3893
  538MOL0     N70901  -0.551   2.372   4.121 -0.8011 -0.7582 -0.4151
  538MOL0     C70902  -0.571   2.365   3.986  0.0418  0.1698 -0.4162
  538MOL0     C70903  -0.693   2.308   3.973 -0.6937  0.5698  0.3246
  538MOL0     C70904  -0.767   2.280   3.847 -0.7456  0.8990  0.1154
  538MOL0     C70905  -0.909   2.344   3.854 -0.4121  0.0366 -0.0056
  538MOL0     C70906  -0.983   2.313   3.728 -0.3516 -0.1830  0.1696
  538MOL0     C70907  -1.138   2.330   3.733 -0.6230 -1.0688  0.4017
  538MOL0     O70908  -1.177   2.419   3.842  0.3754  0.1774 -0.0875
  538MOL0     C70909  -1.314   2.441   3.859 -0.4588  0.3351 -0.2982
  538MOL0     C70910  -1.360   2.518   3.970  0.3324  0.3657  0.2348
  538MOL0     C70911  -1.492   2.535   3.999 -0.1634 -0.0501  0.0766
  538MOL0     C70912  -1.594   2.475   3.919 -0.3023  0.3590 -0.1564
  538MOL0     C70913  -1.735   2.518   3.937 -0.1269  0.1128  0.5185
  538MOL0     O70914  -1.833   2.441   3.879 -0.2856  0.0286  0.7115
  538MOL0     C70915  -1.963   2.479   3.899  0.6650  0.9585 -1.0943
  538MOL0     C70916  -2.034   2.506   3.786  0.2655  0.4535  0.7267
  538MOL0     C70917  -2.173   2.519   3.791  0.0471  0.2206  0.6210
  538MOL0     C70918  -2.236   2.507   3.920  0.7511 -0.4955 -0.3582
  538MOL0     O70919  -2.371   2.521   3.910  0.6300 -0.3585 -0.9032
  538MOL0     C70920  -2.445   2.515   4.033 -0.7687  0.7736 -0.2998
  538MOL0     C70921  -2.593   2.532   3.999  0.4793  0.3937  0.0413
  538MOL0     C70922  -2.680   2.525   4.124  0.0225 -0.1204  0.0096
  538MOL0     C70923  -2.828   2.509   4.078 -0.1446  0.0862 -0.3633
  538MOL0     C70924  -2.924   2.495   4.190  0.5327 -0.3741  0.0619
  538MOL0     C70925  -3.062   2.461   4.137  0.3308  0.0087  0.5909
  538MOL0     C70926  -3.162   2.466   4.248 -0.4573  0.0430  0.3586
  538MOL0     C70927  -3.296   2.442   4.181  0.4712  0.7070  0.6451
  538MOL0    Cl70928  -3.434   2.423   4.306  0.0440 -0.2281 -0.5296
  538MOL0     C70929  -2.163   2.474   4.030 -0.2608 -0.1145  0.5124
  538MOL0     C70930  -2.023   2.471   4.024  0.1767  0.4970  0.1151
  538MOL0     O70931  -1.753   2.627   3.995 -0.1706 -0.1846  0.4988
  538MOL0     C70932  -1.552   2.389   3.814  0.2400  0.0847 -0.0588
  538MOL0     C70933  -1.416   2.373   3.785 -0.0923  0.1606 -0.1604
  538MOL0     N70934  -0.741   2.281   4.099 -0.3922 -0.5941 -0.4628
  538MOL0     N70935  -0.666   2.333   4.187 -0.8233  0.1711  0.3088
  538MOL0     C70936   0.537   2.324   4.355  0.4361 -0.2942  0.4849
  538MOL0     C70937   0.673   2.286   4.373  0.0681 -0.2104 -0.4457
  538MOL0     C70938   1.131   2.229   4.250  0.5042  0.1254 -0.1535
  538MOL0     C70939   1.230   2.287   4.185  0.2728 -0.3834  0.0677
  538MOL0     C70940   1.349   2.213   4.162  1.3087  0.5252  0.7077
  538MOL0     C70941   1.371   2.090   4.225 -0.0722 -0.7117  0.7512
  538MOL0     O70942   1.492   2.037   4.193 -0.3974  0.2635 -0.3468
  538MOL0     C70943   1.550   1.944   4.292  0.1911  0.0199  0.5623
  538MOL0     C70944   1.531   1.799   4.256  0.2826 -0.5348  0.1327
  538MOL0     C70945   1.611   1.758   4.134  0.6899  0.2381  0.1634
  538MOL0     C70946   1.748   1.699   4.181 -0.1376  0.3502  0.0843
  538MOL0     C70947   1.814   1.668   4.051  0.0988 -0.7716  0.2775
  538MOL0     C70948   1.862   1.652   3.942 -0.0173  1.3737  0.1153
  538MOL0     C70949   1.271   2.042   4.322  0.3772 -0.1988  0.7459
  538MOL0     C70950   1.146   2.114   4.327 -0.0518 -0.2582  0.1952
  538MOL0     H70951   0.776   2.262   4.052 -1.5531 -1.8777 -1.4296
  538MOL0     H70952   0.529   2.329   4.018  0.0548 -1.7873 -1.1692
  538MOL0     H70953   0.329   2.540   4.326 -0.0489  0.2027 -0.9831
  538MOL0     H70954   0.267   2.388   4.389  3.8658 -4.4657 -1.4185
  538MOL0     H70955   0.089   2.373   4.238 -0.5718  0.2519  2.3901
  538MOL0     H70956   0.148   2.501   4.137 -1.6407 -2.3768 -1.2453
  538MOL0     H70957   0.120   2.633   4.372 -1.6333  1.7020 -0.5385
  538MOL0     H70958  -0.025   2.526   4.379 -0.5470 -0.1408  0.0379
  538MOL0     H70959  -0.063   2.744   4.287  0.0815 -1.2700  2.4619
  538MOL0     H70960   0.045   2.727   4.153 -1.1874  1.9844  0.1820
  538MOL0     H70961  -0.100   2.499   4.119  4.1275  1.0949  1.2475
  538MOL0     H70962  -0.160   2.659   4.068 -0.1746 -0.7079 -0.4950
  538MOL0     H70963  -0.287   2.692   4.286  0.2546  0.7684 -1.8599
  538MOL0     H70964  -0.232   2.528   4.335 -1.4404  2.1647  1.5544
  538MOL0     H70965  -0.467   2.617   4.214  0.2387 -0.0694  3.1962
  538MOL0     H70966  -0.368   2.573   4.068 -1.8660 -1.9402  0.3804
  538MOL0     H70967  -0.425   2.392   4.300  0.5488 -1.7871 -1.0098
  538MOL0     H70968  -0.338   2.352   4.163  0.4175  2.0082 -0.6188
  538MOL0     H70969  -0.497   2.392   3.912  0.3931  0.0460 -0.1152
  538MOL0     H70970  -0.780   2.173   3.826 -0.2406  0.8006  0.2998
  538MOL0     H70971  -0.711   2.324   3.764  1.5124 -1.2770  0.3580
  538MOL0     H70972  -0.899   2.451   3.875 -1.8295  0.2525 -0.3333
  538MOL0     H70973  -0.957   2.289   3.934 -1.6587  3.3252  1.7054
  538MOL0     H70974  -0.942   2.375   3.648  1.2107 -1.5861 -0.1698
  538MOL0     H70975  -0.970   2.211   3.692 -2.4506 -0.3541 -0.2089
  538MOL0     H70976  -1.189   2.234   3.739 -3.1218 -0.0718 -2.5572
  538MOL0     H70977  -1.165   2.369   3.635 -3.2348 -1.4225  0.9159
  538MOL0     H70978  -1.287   2.569   4.031  0.8623 -1.1630  0.9347
  538MOL0     H70979  -1.515   2.600   4.082  0.7851 -2.6734  2.5333
  538MOL0     H70980  -1.984   2.497   3.689 -1.7019 -0.9930 -0.2116
  538MOL0     H70981  -2.221   2.531   3.695  2.8295  4.0009 -0.5593
  538MOL0     H70982  -2.412   2.599   4.095 -0.5406  2.0712 -2.1008
  538MOL0     H70983  -2.413   2.422   4.079  1.3332  1.4639 -0.2311
  538MOL0     H70984  -2.618   2.447   3.936  1.7224  1.2062 -1.6533
  538MOL0     H70985  -2.613   2.624   3.942  0.2881  0.6659  0.5370
  538MOL0     H70986  -2.667   2.614   4.186  2.0362  0.2041 -0.8052
  538MOL0     H70987  -2.654   2.434   4.179 -3.7470 -0.6889  1.1876
  538MOL0     H70988  -2.855   2.590   4.011 -0.8497 -0.1578 -0.3879
  538MOL0     H70989  -2.839   2.416   4.022  0.7109 -1.0816  1.3055
  538MOL0     H70990  -2.911   2.581   4.256 -0.3463 -0.2897  0.1279
  538MOL0     H70991  -2.898   2.405   4.247 -2.8512 -0.4698  1.6719
  538MOL0     H70992  -3.053   2.367   4.082  1.1713 -0.8263  2.0706
  538MOL0     H70993  -3.094   2.541   4.070 -0.5731 -2.0029 -1.5081
  538MOL0     H70994  -3.131   2.392   4.322 -2.9056 -1.8878 -0.4150
  538MOL0     H70995  -3.155   2.562   4.300  2.1777 -0.4061  0.9787
  538MOL0     H70996  -3.294   2.351   4.120 -1.9250 -1.8431  4.0297
  538MOL0     H70997  -3.322   2.525   4.115 -1.6574  0.0742  0.6112
  538MOL0     H70998  -2.211   2.445   4.123  1.4013 -1.5494  0.9849
  538MOL0     H70999  -1.964   2.425   4.103 -0.2977 -2.1879 -0.9940
  538MOL0     H71000  -1.635   2.344   3.761 -3.3192  4.1510  1.4565
  538MOL0     H71001  -1.392   2.301   3.707  1.7692 -0.8197  1.2245
  538MOL0     H71002   0.470   2.335   4.440  2.0648 -1.6982  2.0521
  538MOL0     H71003   0.712   2.263   4.472 -0.4840  0.5286 -0.0501
  538MOL0     H71004   1.206   2.379   4.132  0.2601 -1.5711 -2.1291
  538MOL0     H71005   1.428   2.255   4.101  1.0671 -1.0719 -0.8013
  538MOL0     H71006   1.505   1.948   4.391 -0.0567  0.6942  0.4264
  538MOL0     H71007   1.655   1.972   4.292  0.6227 -0.9534 -3.1360
  538MOL0     H71008   1.553   1.736   4.343 -1.5899 -0.6347  0.5739
  538MOL0     H71009   1.429   1.777   4.225  0.0732 -2.9569  2.1865
  538MOL0     H71010   1.627   1.837   4.060  1.0532 -1.1286 -1.2813
  538MOL0     H71011   1.566   1.679   4.073  4.0346 -1.4487 -0.3784
  538MOL0     H71012   1.791   1.773   4.249 -0.2075  0.4059  0.0684
  538MOL0     H71013   1.750   1.606   4.239  1.9392 -0.1552 -0.6973
  538MOL0     H71014   1.899   1.638   3.843  1.6811  0.7538  0.8008
  538MOL0     H71015   1.294   1.948   4.371  0.2011 -0.3958  0.4518
  538MOL0     H71016   1.062   2.091   4.392 -0.1185  0.5952  0.4270
  539MOL0     O71017   6.744   5.422   1.097  0.7906  0.0829  0.2615
  539MOL0     C71018   6.780   5.537   1.084  0.1787  1.1510 -0.3036
  539MOL0     O71019   6.693   5.643   1.054  0.0942 -0.1601 -0.4285
  539MOL0     C71020   6.560   5.627   1.038  0.1627 -0.0678 -0.4516
  539MOL0     C71021   6.487   5.743   1.042 -0.6098  0.0633  0.1284
  539MOL0     C71022   6.349   5.747   1.013  0.6882  0.8332  0.0302
  539MOL0     C71023   6.274   5.637   0.983 -0.2741 -0.6337 -0.5748
  539MOL0     O71024   6.142   5.640   0.953 -0.6348  0.2183 -0.4913
  539MOL0     C71025   6.084   5.754   0.888  0.1728  0.0283 -0.4610
  539MOL0     C71026   5.933   5.746   0.882  0.0996 -0.1508 -0.3801
  539MOL0     C71027   5.872   5.877   0.854 -0.2384  0.2467  0.1834
  539MOL0     C71028   5.719   5.877   0.846 -0.3581 -0.2151 -0.1222
  539MOL0     C71029   5.668   5.987   0.751  0.3232  0.3020 -0.0362
  539MOL0     C71030   5.512   5.962   0.731  0.3612 -0.3312 -0.2296
  539MOL0     C71031   5.440   6.073   0.654 -0.0291 -0.4142  0.4028
  539MOL0     C71032   5.411   6.193   0.738 -0.1392 -0.1441  0.2243
  539MOL0     N71033   5.272   6.196   0.783  1.0654  0.8155 -0.5721
  539MOL0     C71034   5.174   6.243   0.709 -0.1192 -0.7005  0.1763
  539MOL0     C71035   5.064   6.192   0.762 -0.0325 -0.6458  0.0245
  539MOL0     C71036   4.922   6.218   0.720  1.2547  0.1887  0.2058
  539MOL0     C71037   4.831   6.262   0.832  0.0850 -0.1958  0.2484
  539MOL0     C71038   4.693   6.299   0.767 -0.9292 -0.2634 -0.0104
  539MOL0     C71039   4.580   6.330   0.863  0.1932  0.4734  0.3161
  539MOL0     O71040   4.466   6.352   0.782 -0.0763 -0.0539 -0.0747
  539MOL0     C71041   4.351   6.416   0.844  0.9866  1.1743  0.0305
  539MOL0     C71042   4.333   6.444   0.980  0.3601  0.0732 -0.2951
  539MOL0     C71043   4.217   6.503   1.037 -0.4479  0.4862  0.5557
  539MOL0     C71044   4.114   6.531   0.955  0.0151  0.4550  0.2025
  539MOL0     C71045   3.983   6.594   1.003 -0.9233  0.0542  0.2779
  539MOL0     O71046   3.984   6.674   1.113 -0.2080 -0.3851  0.0058
  539MOL0     C71047   3.867   6.691   1.188 -0.1616  0.4343  0.6440
  539MOL0     C71048   3.895   6.729   1.321 -0.0491  0.9193 -0.0071
  539MOL0     C71049   3.791   6.765   1.398  0.7131 -0.7351 -0.5671
  539MOL0     C71050   3.660   6.768   1.354  0.5242 -0.4351  0.1718
  539MOL0     O71051   3.559   6.811   1.439 -0.2473  0.3034  0.2918
  539MOL0     C71052   3.583   6.904   1.548 -0.6209 -0.3422 -0.1792
  539MOL0     C71053   3.455   6.976   1.594  0.2437 -0.1768  0.1036
  539MOL0     C71054   3.352   6.890   1.673 -0.4696  0.6932 -0.5081
  539MOL0     C71055   3.249   6.987   1.721 -0.5228 -0.2745  0.2776
  539MOL0     C71056   3.160   6.912   1.826  0.3715 -0.6397 -0.1777
  539MOL0     C71057   3.040   6.988   1.883 -0.1542  0.2346  0.0539
  539MOL0     C71058   2.944   7.043   1.780 -0.1558  0.4216  1.0119
  539MOL0     C71059   2.839   7.118   1.856  0.1396  0.2983 -0.1151
  539MOL0    Cl71060   2.897   7.279   1.934 -0.1319 -0.4759  0.0480
  539MOL0     C71061   3.628   6.718   1.226  0.2662 -0.0431 -0.4020
  539MOL0     C71062   3.733   6.688   1.142  0.5221 -0.5562  0.4406
  539MOL0     O71063   3.882   6.565   0.939  0.3708  0.0981 -0.5825
  539MOL0     C71064   4.124   6.497   0.814  0.1422  0.9247  0.0017
  539MOL0     C71065   4.240   6.441   0.760  0.4955 -0.3347  0.0663
  539MOL0     N71066   5.097   6.121   0.874 -0.6115 -0.0366 -0.3302
  539MOL0     N71067   5.224   6.121   0.889 -0.0139  0.4313 -0.1617
  539MOL0     C71068   6.346   5.515   0.985 -0.2137  0.0839  0.6809
  539MOL0     C71069   6.487   5.510   1.013 -0.2413  0.4619 -0.7541
  539MOL0     C71070   6.924   5.562   1.075  0.4219 -0.5510 -0.2808
  539MOL0     C71071   6.988   5.679   1.012  0.6578  0.0315 -0.3765
  539MOL0     C71072   7.129   5.682   0.999  0.0328  0.1399 -0.3427
  539MOL0     C71073   7.210   5.581   1.062 -0.0810  0.3365 -0.2950
  539MOL0     O71074   7.348   5.602   1.048 -0.0374 -0.6380  0.3534
  539MOL0     C71075   7.440   5.507   1.086 -0.1010 -0.1604  1.1556
  539MOL0     C71076   7.463   5.506   1.232  0.3380  0.4671  0.3054
  539MOL0     C71077   7.584   5.417   1.267  0.0799  0.1874 -0.1502
  539MOL0     C71078   7.717   5.481   1.229  1.0041  0.8765 -0.7160
  539MOL0     C71079   7.828   5.430   1.306  1.3134  0.1765 -0.2763
  539MOL0     C71080   7.928   5.399   1.361 -0.0526  0.4110  0.3772
  539MOL0     C71081   7.152   5.470   1.122 -0.3146  1.0161  0.0207
  539MOL0     C71082   7.011   5.464   1.131 -0.6857 -0.2067  0.0070
  539MOL0     H71083   6.541   5.836   1.049 -0.2092 -0.2155  0.8319
  539MOL0     H71084   6.300   5.843   1.024  0.5567  0.7087  0.6123
  539MOL0     H71085   6.122   5.762   0.786  0.1451 -0.7027 -0.5360
  539MOL0     H71086   6.111   5.841   0.948 -1.4080 -1.2569  2.3103
  539MOL0     H71087   5.902   5.718   0.983  0.7396 -1.8869 -0.6206
  539MOL0     H71088   5.913   5.661   0.817  1.5187  0.0846 -1.1822
  539MOL0     H71089   5.925   5.918   0.767  3.8424 -0.6946  1.9772
  539MOL0     H71090   5.908   5.937   0.938  0.2484 -2.6985  2.2328
  539MOL0     H71091   5.686   5.778   0.812 -1.8439  0.8521 -1.9101
  539MOL0     H71092   5.684   5.890   0.949 -0.2733 -0.3473 -0.0752
  539MOL0     H71093   5.702   5.969   0.648 -0.2118  2.1613 -0.5724
  539MOL0     H71094   5.695   6.087   0.784  0.4517  0.6029 -1.0058
  539MOL0     H71095   5.464   5.955   0.829  2.5785 -0.8943  0.8910
  539MOL0     H71096   5.499   5.864   0.685  0.9118  0.0499 -1.2272
  539MOL0     H71097   5.489   6.108   0.563  2.0175  0.7500  1.8744
  539MOL0     H71098   5.344   6.031   0.620 -0.2320  0.7680 -0.5737
  539MOL0     H71099   5.434   6.287   0.687 -1.2829  0.2351  0.3726
  539MOL0     H71100   5.479   6.181   0.824 -3.3224 -0.4844  2.8749
  539MOL0     H71101   5.189   6.313   0.627  0.3491 -0.8223  0.1594
  539MOL0     H71102   4.883   6.125   0.676 -0.9531  0.5414  1.2996
  539MOL0     H71103   4.918   6.297   0.644 -1.1414 -0.0692 -0.0253
  539MOL0     H71104   4.861   6.357   0.877 -0.4637  0.6745 -1.1481
  539MOL0     H71105   4.816   6.187   0.911  1.9336  1.9438  2.8012
  539MOL0     H71106   4.712   6.388   0.706  2.6147 -0.6257  0.3663
  539MOL0     H71107   4.662   6.218   0.699  2.6853 -0.8398 -1.1691
  539MOL0     H71108   4.611   6.422   0.914  0.0764  1.0562 -0.6239
  539MOL0     H71109   4.557   6.255   0.938 -1.3727  2.4289  1.9201
  539MOL0     H71110   4.413   6.426   1.051 -0.2379 -3.2285 -0.2977
  539MOL0     H71111   4.226   6.537   1.140  1.1647  0.0226  0.6056
  539MOL0     H71112   3.997   6.733   1.358 -0.1182 -1.0453  0.4785
  539MOL0     H71113   3.819   6.796   1.499 -0.9629 -0.2597 -0.2261
  539MOL0     H71114   3.649   6.983   1.512 -0.8720 -0.9001 -1.9602
  539MOL0     H71115   3.632   6.863   1.637 -0.4424  0.9479  0.3353
  539MOL0     H71116   3.396   7.021   1.514  0.0571  2.8478  1.7569
  539MOL0     H71117   3.475   7.060   1.661  1.0553 -1.8546  2.0798
  539MOL0     H71118   3.400   6.842   1.759 -3.7982  0.0692  1.1861
  539MOL0     H71119   3.300   6.808   1.623 -0.3281 -0.3867  1.0309
  539MOL0     H71120   3.291   7.078   1.764  0.4926 -0.9614  0.7868
  539MOL0     H71121   3.189   7.017   1.635 -1.0648 -1.2857  0.2853
  539MOL0     H71122   3.222   6.877   1.910 -0.3058 -1.3917  0.0203
  539MOL0     H71123   3.113   6.825   1.780  0.0561  0.1682 -1.4196
  539MOL0     H71124   3.073   7.070   1.947 -0.5111  1.4123 -1.2322
  539MOL0     H71125   2.983   6.924   1.952  2.4215 -0.1410  1.9616
  539MOL0     H71126   2.982   7.093   1.691 -1.0285 -2.6818 -1.3068
  539MOL0     H71127   2.886   6.962   1.734 -0.5867  1.3476 -0.1481
  539MOL0     H71128   2.786   7.057   1.930 -0.1716  1.6031  0.7749
  539MOL0     H71129   2.764   7.146   1.782  0.0992 -0.1908 -0.2656
  539MOL0     H71130   3.524   6.707   1.196  0.1621 -0.5429  0.1391
  539MOL0     H71131   3.698   6.667   1.041  1.6322  0.7126 -0.2335
  539MOL0     H71132   4.051   6.546   0.749 -2.9403 -1.4033  1.4311
  539MOL0     H71133   4.251   6.425   0.653 -1.7698 -1.5649 -0.0601
  539MOL0     H71134   6.286   5.427   0.963 -0.3555  0.0696  1.1108
  539MOL0     H71135   6.532   5.412   1.024 -1.6617 -0.1956 -0.5696
  539MOL0     H71136   6.920   5.747   0.962 -0.1075 -0.0634  0.5054
  539MOL0     H71137   7.181   5.769   0.960  1.9706 -0.5367  0.6090
  539MOL0     H71138   7.534   5.538   1.039 -0.1717 -1.7350 -0.1168
  539MOL0     H71139   7.411   5.412   1.040  2.8109  0.2399 -1.9539
  539MOL0     H71140   7.486   5.602   1.278  1.5689  0.1719  0.3334
  539MOL0     H71141   7.379   5.451   1.277  0.1217 -0.2626 -0.9379
  539MOL0     H71142   7.567   5.324   1.212  0.5131  0.3967 -0.6448
  539MOL0     H71143   7.574   5.397   1.374 -0.9853  0.3311 -0.2093
  539MOL0     H71144   7.747   5.449   1.128  1.5188 -0.8139 -0.0670
  539MOL0     H71145   7.704   5.588   1.246 -2.1848  0.0954  3.2305
  539MOL0     H71146   8.017   5.358   1.403  1.9355  2.0198 -1.9581
  539MOL0     H71147   7.202   5.381   1.155  0.1597  1.1197 -0.4068
  539MOL0     H71148   6.968   5.383   1.190 -0.6908 -0.4510 -0.3266
  540MOL0     O71149  11.055   9.953   7.328 -0.0330 -0.0854 -0.5141
  540MOL0     C71150  10.974  10.039   7.330  0.6290  0.1327  0.4147
  540MOL0     O71151  10.851  10.035   7.255 -0.0099  0.3090  0.2624
  540MOL0     C71152  10.850   9.946   7.147  0.1274  0.2883 -0.1857
  540MOL0     C71153  10.730   9.879   7.111 -0.6646  0.0651 -0.5704
  540MOL0     C71154  10.710   9.802   6.998 -0.8938  0.4791  0.4306
  540MOL0     C71155  10.816   9.785   6.907 -0.3343  0.4282 -0.1836
  540MOL0     O71156  10.789   9.716   6.791 -0.4387  0.3278  1.0634
  540MOL0     C71157  10.910   9.644   6.740 -0.4623 -0.0046 -0.0422
  540MOL0     C71158  10.867   9.555   6.620 -0.0469 -0.0580 -0.1832
  540MOL0     C71159  10.983   9.468   6.571 -0.4793 -0.0079  0.2137
  540MOL0     C71160  10.957   9.383   6.452  0.3468 -0.0381 -0.3929
  540MOL0     C71161  11.077   9.317   6.404  0.1144  0.1704 -1.0509
  540MOL0     C71162  11.032   9.213   6.303 -0.3908 -0.3451  0.0692
  540MOL0     C71163  11.151   9.149   6.230  0.4659  0.8442  0.4757
  540MOL0     C71164  11.093   9.069   6.111  0.4043 -0.9487 -0.8409
  540MOL0     N71165  11.035   8.947   6.156 -0.4961 -0.7257 -0.0099
  540MOL0     C71166  10.897   8.933   6.191  0.2688  0.2981  0.1020
  540MOL0     C71167  10.893   8.809   6.253 -0.0527  0.1910 -1.1473
  540MOL0     C71168  10.755   8.741   6.281  0.5825  0.4043 -0.7451
  540MOL0     C71169  10.739   8.619   6.190 -0.7231  0.0158  0.2830
  540MOL0     C71170  10.606   8.550   6.193  0.1150 -0.0185 -0.4925
  540MOL0     C71171  10.584   8.484   6.325  0.2152 -0.4869  0.1366
  540MOL0     O71172  10.456   8.421   6.349 -0.5615  0.0173 -0.3135
  540MOL0     C71173  10.348   8.500   6.395  0.2567  0.1466 -0.2806
  540MOL0     C71174  10.246   8.435   6.468  0.4669  0.9498 -0.2917
  540MOL0     C71175  10.140   8.502   6.536  0.3537  0.5113 -0.0721
  540MOL0     C71176  10.136   8.640   6.533 -0.0762 -0.3443 -0.0845
  540MOL0     C71177  10.037   8.707   6.612  0.6713 -0.9571 -0.2710
  540MOL0     O71178  10.064   8.842   6.647 -0.0559  0.8251  0.2237
  540MOL0     C71179   9.962   8.906   6.708  1.3335  0.3757  0.3295
  540MOL0     C71180   9.970   8.960   6.835 -0.2996  0.2168 -0.2424
  540MOL0     C71181   9.864   9.033   6.892 -0.7224 -0.3284  0.5360
  540MOL0     C71182   9.743   9.047   6.822  0.0900 -1.0491  0.1389
  540MOL0     O71183   9.637   9.110   6.879  0.0722 -0.2547  0.8515
  540MOL0     C71184   9.584   9.038   6.986 -0.6208  0.9620  1.1892
  540MOL0     C71185   9.456   9.106   7.028  0.3881 -0.0423 -0.3626
  540MOL0     C71186   9.372   9.133   6.899  0.9799  0.4727  0.1462
  540MOL0     C71187   9.225   9.169   6.947  0.3354  1.0743 -0.8424
  540MOL0     C71188   9.120   9.186   6.829 -0.6036 -0.4227 -0.3949
  540MOL0     C71189   8.974   9.207   6.862 -0.6951  0.2963  0.4910
  540MOL0     C71190   8.887   9.082   6.882  0.0391 -0.4896 -0.3532
  540MOL0     C71191   8.836   9.015   6.751 -0.4100 -0.2323  0.5408
  540MOL0    Cl71192   8.718   9.118   6.662  0.4233 -0.4684  0.2959
  540MOL0     C71193   9.729   8.991   6.693 -0.8542  0.5467  0.8477
  540MOL0     C71194   9.836   8.917   6.643 -0.1014 -0.0632  1.2973
  540MOL0     O71195   9.938   8.640   6.645  0.4777 -0.2278 -0.1270
  540MOL0     C71196  10.227   8.708   6.447  0.2016  0.4893  0.7050
  540MOL0     C71197  10.333   8.636   6.375 -0.2806 -0.1344 -0.7778
  540MOL0     N71198  11.027   8.754   6.266 -0.3452 -0.6895 -0.0534
  540MOL0     N71199  11.103   8.835   6.198  0.6856 -0.7421  0.3168
  540MOL0     C71200  10.942   9.841   6.938 -0.4421 -0.5815 -1.0348
  540MOL0     C71201  10.956   9.924   7.056  0.2016 -0.0804 -0.3802
  540MOL0     C71202  10.991  10.153   7.416  0.6231 -0.1006 -0.6438
  540MOL0     C71203  10.893  10.252   7.423 -0.6969 -0.6308  0.3206
  540MOL0     C71204  10.916  10.364   7.495 -0.3198 -0.3233  0.2976
  540MOL0     C71205  11.043  10.398   7.558  0.6091 -0.3551 -0.5307
  540MOL0     O71206  11.051  10.517   7.635 -0.1436 -0.3212 -0.0692
  540MOL0     C71207  11.182  10.547   7.689  0.4345 -0.2422 -0.3400
  540MOL0     C71208  11.192  10.693   7.726 -0.1316  0.6557  0.8804
  540MOL0     C71209  11.232  10.768   7.593  0.3704  1.3362 -0.4555
  540MOL0     C71210  11.218  10.928   7.619  0.4869  0.5509  0.2288
  540MOL0     C71211  11.208  10.992   7.488  0.3357 -0.6002  0.1730
  540MOL0     C71212  11.201  11.050   7.378 -0.3343  0.2216 -0.3014
  540MOL0     C71213  11.138  10.293   7.549 -0.3112 -0.7376  0.2399
  540MOL0     C71214  11.115  10.176   7.481  0.3792 -0.7564  0.2669
  540MOL0     H71215  10.639   9.880   7.171 -0.2176  1.4272  0.1442
  540MOL0     H71216  10.619   9.759   6.958 -0.3557 -1.1636  0.8965
  540MOL0     H71217  10.956   9.586   6.820  0.9039 -0.1652 -0.9077
  540MOL0     H71218  10.974   9.724   6.701 -2.6859  1.0624 -1.7598
  540MOL0     H71219  10.836   9.612   6.531  1.1079  0.4762 -0.2750
  540MOL0     H71220  10.780   9.499   6.653  1.6058 -0.7106  3.5045
  540MOL0     H71221  11.024   9.407   6.653 -1.6905  2.0699  2.5001
  540MOL0     H71222  11.066   9.534   6.544 -0.1486 -0.8709 -0.9615
  540MOL0     H71223  10.872   9.319   6.478 -0.4787  0.0521 -2.6400
  540MOL0     H71224  10.921   9.441   6.366 -2.2517  2.0815  1.9205
  540MOL0     H71225  11.134   9.270   6.484 -0.6110  1.9388  0.5763
  540MOL0     H71226  11.141   9.393   6.360  0.2527 -0.0786 -1.2895
  540MOL0     H71227  10.968   9.254   6.224  0.4068  2.8106  0.9221
  540MOL0     H71228  10.975   9.137   6.359  0.8960  0.1593  2.2010
  540MOL0     H71229  11.214   9.230   6.194 -1.5019  0.8603 -3.4282
  540MOL0     H71230  11.212   9.085   6.295 -1.0052 -2.5670 -1.2186
  540MOL0     H71231  11.178   9.050   6.044  1.1246 -1.7218  0.2635
  540MOL0     H71232  11.025   9.132   6.053  2.0208  3.9802  1.9605
  540MOL0     H71233  10.810   8.994   6.172 -0.3874 -0.1323  1.5813
  540MOL0     H71234  10.673   8.814   6.270  0.8237  0.6843 -0.6929
  540MOL0     H71235  10.751   8.714   6.387 -2.2982  3.0527 -0.0016
  540MOL0     H71236  10.821   8.550   6.212  2.1122  3.4703  1.4157
  540MOL0     H71237  10.753   8.649   6.086 -0.9352 -3.6685 -0.9705
  540MOL0     H71238  10.528   8.619   6.161 -0.3389 -1.2615 -2.2096
  540MOL0     H71239  10.609   8.473   6.115  3.1466  0.6488 -1.1672
  540MOL0     H71240  10.600   8.559   6.404  1.5554  1.3959 -1.8249
  540MOL0     H71241  10.658   8.406   6.347  0.6895 -0.2194 -0.4978
  540MOL0     H71242  10.244   8.327   6.470 -2.2870  0.9068  2.4180
  540MOL0     H71243  10.072   8.441   6.595  1.2225 -1.6431 -1.1864
  540MOL0     H71244  10.053   8.952   6.905 -1.6576  1.1706  1.5709
  540MOL0     H71245   9.872   9.076   6.992 -0.6935  2.1765 -0.4836
  540MOL0     H71246   9.661   9.034   7.064 -0.0971  0.8240  0.6748
  540MOL0     H71247   9.563   8.937   6.950 -1.1236  1.3127  0.4807
  540MOL0     H71248   9.468   9.191   7.096 -0.4316 -1.2780  1.3945
  540MOL0     H71249   9.410   9.034   7.096  0.8938  1.7414  1.9976
  540MOL0     H71250   9.357   9.037   6.847 -1.9858  0.0734  1.5259
  540MOL0     H71251   9.403   9.215   6.834 -1.4809  1.6349  0.3296
  540MOL0     H71252   9.194   9.096   7.022  1.1715  0.3890 -1.1520
  540MOL0     H71253   9.230   9.259   7.009  0.9337  0.4254  0.0612
  540MOL0     H71254   9.118   9.090   6.778  0.1432 -1.5181  1.5218
  540MOL0     H71255   9.160   9.260   6.758  2.0481  1.4348  2.7314
  540MOL0     H71256   8.928   9.263   6.780 -0.2445  2.2142  1.4792
  540MOL0     H71257   8.963   9.269   6.952 -0.2280  1.6168 -0.3271
  540MOL0     H71258   8.935   9.007   6.945  0.0256 -0.8752 -0.7906
  540MOL0     H71259   8.792   9.117   6.923 -0.0735  1.5681 -2.1805
  540MOL0     H71260   8.799   8.920   6.789 -1.7557 -1.6519 -3.7547
  540MOL0     H71261   8.925   9.006   6.688 -0.5713  1.8373 -0.0589
  540MOL0     H71262   9.644   9.001   6.626 -0.6759  2.5259  0.8596
  540MOL0     H71263   9.811   8.879   6.544 -1.6563  1.8052  0.9203
  540MOL0     H71264  10.224   8.816   6.444  1.1534  0.5206  0.4947
  540MOL0     H71265  10.404   8.691   6.313  2.5127 -0.4304  1.9476
  540MOL0     H71266  11.031   9.831   6.876 -0.8587 -3.3730 -1.3113
  540MOL0     H71267  11.048   9.975   7.084 -0.7242  0.7000  1.4641
  540MOL0     H71268  10.802  10.231   7.367  1.0154 -0.2386 -2.8339
  540MOL0     H71269  10.835  10.435   7.492 -1.5553 -1.6839  0.2102
  540MOL0     H71270  11.260  10.518   7.618  1.2382  0.9877  0.0280
  540MOL0     H71271  11.186  10.492   7.783 -3.0428 -3.6493 -1.8802
  540MOL0     H71272  11.108  10.734   7.783  0.1719 -0.9530  2.5967
  540MOL0     H71273  11.279  10.708   7.792  0.5631  0.5181  0.0154
  540MOL0     H71274  11.156  10.743   7.519  1.0741  0.0295 -0.7838
  540MOL0     H71275  11.327  10.744   7.544  0.7171  3.0199 -0.6520
  540MOL0     H71276  11.125  10.947   7.673  0.8589 -0.9517  1.4837
  540MOL0     H71277  11.297  10.972   7.680 -0.3701  0.7463  1.2211
  540MOL0     H71278  11.177  11.111   7.293 -0.9688 -1.9622 -1.7780
  540MOL0     H71279  11.236  10.317   7.588 -0.4904  1.2638 -0.4275
  540MOL0     H71280  11.209  10.124   7.471  0.2745 -0.9122  0.0765
  541MOL0     O71281   9.465   6.172   5.864  0.1491  0.5202  0.7184
  541MOL0     C71282   9.469   6.085   5.944  0.2669 -0.4443  0.3133
  541MOL0     O71283   9.364   6.033   6.012 -0.1409  0.0482  0.1504
  541MOL0     C71284   9.238   6.077   5.976  0.6405 -0.2135  0.1181
  541MOL0     C71285   9.196   6.203   6.017 -0.9703 -0.1030 -0.0461
  541MOL0     C71286   9.053   6.225   6.001 -0.9460 -1.7054 -0.1124
  541MOL0     C71287   8.970   6.133   5.933  0.7611 -1.1470  0.1027
  541MOL0     O71288   8.827   6.161   5.904 -0.3602  0.0706 -0.3260
  541MOL0     C71289   8.805   6.285   5.835  1.6250 -0.6926  0.4549
  541MOL0     C71290   8.727   6.380   5.927  0.5798 -0.5087  0.4915
  541MOL0     C71291   8.589   6.334   5.974  0.7238 -0.6943  0.6475
  541MOL0     C71292   8.514   6.439   6.051 -0.1093  1.3468  0.0324
  541MOL0     C71293   8.393   6.380   6.110  0.0978  0.4488 -0.5213
  541MOL0     C71294   8.299   6.469   6.199 -0.1530  0.2577 -0.0491
  541MOL0     C71295   8.167   6.395   6.215 -0.0946  0.0829 -0.0275
  541MOL0     C71296   8.165   6.274   6.316 -0.2573 -0.2076  0.2018
  541MOL0     N71297   8.027   6.246   6.356 -0.3569 -0.2038 -0.0292
  541MOL0     C71298   7.950   6.147   6.308 -0.1847 -0.1011  0.7319
  541MOL0     C71299   7.846   6.134   6.390  0.7178 -0.0205 -1.6232
  541MOL0     C71300   7.743   6.017   6.382 -0.6138  0.1530 -0.8157
  541MOL0     C71301   7.604   6.069   6.325  0.5833  0.4249 -0.5270
  541MOL0     C71302   7.501   5.954   6.337  0.3814 -0.0814 -0.5823
  541MOL0     C71303   7.360   5.989   6.286  0.1857  0.0503  0.2459
  541MOL0     O71304   7.279   5.869   6.274 -0.4518 -0.0121  0.2697
  541MOL0     C71305   7.145   5.877   6.324 -0.2589  0.1011 -0.1785
  541MOL0     C71306   7.044   5.813   6.263 -0.6998 -0.4885 -0.2211
  541MOL0     C71307   6.912   5.819   6.302 -0.7827  0.8976 -0.6299
  541MOL0     C71308   6.869   5.902   6.410 -0.5647  0.0204 -0.0227
  541MOL0     C71309   6.728   5.911   6.453 -0.1154 -0.9733 -0.1250
  541MOL0     O71310   6.690   6.038   6.488 -0.1614  0.1707  0.0940
  541MOL0     C71311   6.551   6.055   6.509 -0.2379  0.4356 -1.3864
  541MOL0     C71312   6.512   6.098   6.636  0.0012 -0.5454  0.8961
  541MOL0     C71313   6.377   6.129   6.658  0.5057  0.8852  0.9869
  541MOL0     C71314   6.290   6.115   6.552 -0.2891  0.2627 -0.0585
  541MOL0     O71315   6.156   6.123   6.602 -0.7832  0.0102 -0.0995
  541MOL0     C71316   6.054   6.162   6.507  0.2493  0.2392 -0.0044
  541MOL0     C71317   5.918   6.156   6.570 -0.6498  0.5973 -0.2390
  541MOL0     C71318   5.886   6.023   6.627  0.6898 -0.0422  0.5875
  541MOL0     C71319   5.734   5.998   6.648  0.5985  0.3415 -0.1449
  541MOL0     C71320   5.687   5.871   6.710 -0.6388  0.8213 -0.1299
  541MOL0     C71321   5.553   5.889   6.791  0.2773  0.7303 -0.3653
  541MOL0     C71322   5.429   5.930   6.708  0.1578  0.2518 -0.2382
  541MOL0     C71323   5.306   5.974   6.787  0.3583 -0.7585  0.1627
  541MOL0    Cl71324   5.333   6.126   6.870  0.6128  0.0696 -0.0563
  541MOL0     C71325   6.332   6.068   6.429 -0.3754 -0.0822  0.0818
  541MOL0     C71326   6.464   6.045   6.400  0.2185 -0.7569 -1.0224
  541MOL0     O71327   6.659   5.809   6.441  0.8775 -0.5924 -0.3104
  541MOL0     C71328   6.977   5.962   6.476 -0.4339  0.0280  0.6584
  541MOL0     C71329   7.109   5.947   6.431 -0.0578 -0.3238 -0.0276
  541MOL0     N71330   7.867   6.221   6.500 -0.7891  0.0297  1.0520
  541MOL0     N71331   7.976   6.293   6.475  0.0909  0.9971 -0.6467
  541MOL0     C71332   9.022   6.015   5.886 -0.5690  0.8126  0.5510
  541MOL0     C71333   9.154   5.986   5.911 -0.7204 -0.2981 -0.0263
  541MOL0     C71334   9.604   6.036   5.994 -0.5591  0.6331  0.8940
  541MOL0     C71335   9.729   6.092   5.946 -0.1102 -0.5466 -0.2953
  541MOL0     C71336   9.855   6.040   5.994 -0.5421  0.4787 -0.4585
  541MOL0     C71337   9.852   5.933   6.090  0.4688 -0.5600  0.7471
  541MOL0     O71338   9.964   5.860   6.131 -0.4782  0.4251  0.6106
  541MOL0     C71339  10.041   5.930   6.233  0.1015 -0.3952  0.0116
  541MOL0     C71340  10.020   5.869   6.368 -0.4941  0.7267  0.1213
  541MOL0     C71341  10.071   5.718   6.377  0.1479 -0.4006 -0.3435
  541MOL0     C71342  10.224   5.711   6.361  0.1314  0.2011  0.7133
  541MOL0     C71343  10.293   5.801   6.459  0.4006  0.8426 -0.0225
  541MOL0     C71344  10.334   5.868   6.554 -0.6102  0.2897 -0.0734
  541MOL0     C71345   9.727   5.875   6.132  0.0058  0.3261  0.1083
  541MOL0     C71346   9.609   5.928   6.080  0.2240  0.6114  0.4943
  541MOL0     H71347   9.261   6.277   6.064 -1.6667  1.7859 -1.8970
  541MOL0     H71348   9.004   6.309   6.049 -1.7222 -1.3902 -1.4091
  541MOL0     H71349   8.745   6.264   5.745 -0.0555  2.7627  0.5886
  541MOL0     H71350   8.897   6.325   5.792  1.0823  1.6703  1.3799
  541MOL0     H71351   8.698   6.473   5.875 -0.0301  0.9927  3.3411
  541MOL0     H71352   8.800   6.393   6.007  0.5276 -1.8167  0.7579
  541MOL0     H71353   8.591   6.242   6.031  3.3728 -0.3918  1.1708
  541MOL0     H71354   8.532   6.319   5.882 -0.6665 -2.3593  1.7239
  541MOL0     H71355   8.571   6.470   6.140 -0.5351 -1.3526  1.3432
  541MOL0     H71356   8.491   6.525   5.988 -1.3405  1.0691  0.0753
  541MOL0     H71357   8.421   6.297   6.175  1.6044  1.4477  0.1682
  541MOL0     H71358   8.335   6.337   6.027 -1.1821  1.8638 -0.4079
  541MOL0     H71359   8.277   6.566   6.152 -1.5941 -0.0064  0.0483
  541MOL0     H71360   8.345   6.498   6.294  1.1186  0.4557 -0.6928
  541MOL0     H71361   8.095   6.466   6.255 -0.9095  0.6733 -2.3552
  541MOL0     H71362   8.133   6.360   6.117 -3.3017 -1.1527  1.3928
  541MOL0     H71363   8.210   6.301   6.412 -2.5127 -0.4320  1.3881
  541MOL0     H71364   8.204   6.180   6.278  1.8601  1.5556 -2.3150
  541MOL0     H71365   7.959   6.085   6.220  0.6107  1.5506 -0.4066
  541MOL0     H71366   7.725   5.976   6.481  0.8887  3.6585  1.0757
  541MOL0     H71367   7.784   5.934   6.324  1.0396 -0.6094  1.3299
  541MOL0     H71368   7.613   6.108   6.224  2.9886  0.9758 -0.1775
  541MOL0     H71369   7.573   6.152   6.389 -0.3081 -1.0864  1.1079
  541MOL0     H71370   7.530   5.871   6.271  1.3579 -0.0347 -0.2228
  541MOL0     H71371   7.495   5.919   6.440 -0.9181 -0.4319 -0.7622
  541MOL0     H71372   7.378   6.016   6.181  0.3590 -0.3668  0.1668
  541MOL0     H71373   7.320   6.079   6.335 -3.8645 -2.7926  2.7314
  541MOL0     H71374   7.059   5.754   6.173 -1.3024  0.1638 -0.7615
  541MOL0     H71375   6.837   5.772   6.239 -0.2245 -0.6809 -0.1581
  541MOL0     H71376   6.581   6.113   6.718  0.5260 -0.7888  0.5061
  541MOL0     H71377   6.345   6.162   6.757  3.0541  3.3511  1.1128
  541MOL0     H71378   6.052   6.095   6.421 -0.3385 -3.3366  2.5700
  541MOL0     H71379   6.085   6.263   6.480  0.2061  0.3271  0.2702
  541MOL0     H71380   5.844   6.179   6.492  0.8919  1.1797 -1.5946
  541MOL0     H71381   5.909   6.236   6.644  0.7363  3.0078 -2.4911
  541MOL0     H71382   5.927   6.022   6.728  0.4796  0.8675  0.6882
  541MOL0     H71383   5.924   5.938   6.569  0.1927  1.8782 -2.8239
  541MOL0     H71384   5.691   6.084   6.701  1.1877  2.1987 -2.4748
  541MOL0     H71385   5.683   6.010   6.552 -2.1835  0.3573  1.2195
  541MOL0     H71386   5.760   5.824   6.777  0.2005 -1.1816 -2.3171
  541MOL0     H71387   5.658   5.802   6.630 -0.6296 -0.4364  0.9176
  541MOL0     H71388   5.576   5.965   6.866 -0.2324 -1.0641  1.7118
  541MOL0     H71389   5.523   5.802   6.849 -0.6617  0.7589 -0.7847
  541MOL0     H71390   5.452   6.023   6.656  0.6504 -0.9129 -2.1866
  541MOL0     H71391   5.399   5.848   6.642  1.8231 -1.7008  1.3023
  541MOL0     H71392   5.266   5.902   6.859 -1.0956  0.9375  1.1465
  541MOL0     H71393   5.226   5.974   6.712  0.8962 -0.8280 -0.4119
  541MOL0     H71394   6.260   6.050   6.350  2.1722 -0.3012 -2.3546
  541MOL0     H71395   6.513   6.007   6.311  2.2006 -0.6246 -0.0398
  541MOL0     H71396   6.974   6.023   6.566 -0.8393 -0.1356  0.7579
  541MOL0     H71397   7.177   6.015   6.481 -0.4942 -0.0422  0.1918
  541MOL0     H71398   8.961   5.961   5.815  1.7578 -3.0528  1.2095
  541MOL0     H71399   9.194   5.889   5.884  0.3958  0.0206  0.4129
  541MOL0     H71400   9.725   6.165   5.867 -0.8946  0.3215  0.5258
  541MOL0     H71401   9.942   6.075   5.940 -0.0351  1.9081  1.1950
  541MOL0     H71402  10.017   6.036   6.238  4.1663  0.7998 -1.8782
  541MOL0     H71403  10.145   5.930   6.199 -0.7679 -1.0389 -2.9125
  541MOL0     H71404  10.070   5.926   6.447 -2.8659 -0.2254  2.4743
  541MOL0     H71405   9.915   5.863   6.398 -0.5423 -1.0539 -0.2651
  541MOL0     H71406  10.021   5.663   6.297  2.7436  0.4613 -2.7198
  541MOL0     H71407  10.048   5.683   6.478  1.0135  2.0441  0.7731
  541MOL0     H71408  10.264   5.610   6.368 -1.0875 -0.5547 -2.0785
  541MOL0     H71409  10.260   5.730   6.260 -2.7525 -1.5279 -0.7573
  541MOL0     H71410  10.380   5.933   6.626  0.8733  0.0698 -0.7890
  541MOL0     H71411   9.733   5.790   6.198  0.8514  0.7341  0.5666
  541MOL0     H71412   9.519   5.877   6.114  0.5869  0.5431  1.3801
  542MOL0     O71413   8.790   7.693   8.465 -0.0092  0.0732 -0.0461
  542MOL0     C71414   8.830   7.603   8.395  0.1443 -0.2906  0.7330
  542MOL0     O71415   8.755   7.489   8.361 -0.1126 -0.0451 -0.3813
  542MOL0     C71416   8.618   7.499   8.386  0.4424 -0.3963 -0.6245
  542MOL0     C71417   8.555   7.471   8.511  0.9839 -1.2204  0.3805
  542MOL0     C71418   8.415   7.485   8.520 -0.9079  0.3417  0.1705
  542MOL0     C71419   8.338   7.512   8.410  0.8540  0.6969 -0.8087
  542MOL0     O71420   8.204   7.541   8.445 -0.0816  0.5535  0.1422
  542MOL0     C71421   8.122   7.600   8.342  0.6648  0.4373 -0.4736
  542MOL0     C71422   8.000   7.665   8.408 -0.4391  0.1607 -0.3822
  542MOL0     C71423   7.931   7.774   8.322  0.2505  0.2150  0.0926
  542MOL0     C71424   7.785   7.793   8.377 -0.2533  0.2715 -0.3276
  542MOL0     C71425   7.702   7.872   8.277  0.1303 -0.4934 -0.4423
  542MOL0     C71426   7.735   8.018   8.260 -0.3561 -0.1667 -0.5541
  542MOL0     C71427   7.619   8.085   8.183 -0.6120 -0.4829  0.2290
  542MOL0     C71428   7.672   8.230   8.172  0.2061  0.7871  0.1038
  542MOL0     N71429   7.581   8.330   8.133 -0.7670 -0.9131 -0.8687
  542MOL0     C71430   7.564   8.377   8.002  0.2636  0.2263 -0.3212
  542MOL0     C71431   7.456   8.459   7.998  0.1186  0.5253 -0.5968
  542MOL0     C71432   7.402   8.541   7.877 -0.6051  0.2151  0.1661
  542MOL0     C71433   7.367   8.467   7.750 -0.2270 -0.2149 -0.3949
  542MOL0     C71434   7.247   8.369   7.761  0.2663  0.2373 -0.0677
  542MOL0     C71435   7.125   8.423   7.824  0.3256  0.1549 -0.1555
  542MOL0     O71436   7.067   8.523   7.740 -0.9675  0.6493  0.1358
  542MOL0     C71437   6.953   8.589   7.776  0.3615  0.5525 -0.9166
  542MOL0     C71438   6.877   8.559   7.890  0.4900  0.1057  0.1631
  542MOL0     C71439   6.750   8.627   7.904 -0.9251 -0.6528 -0.1981
  542MOL0     C71440   6.703   8.716   7.803 -0.7391 -0.3616  0.5512
  542MOL0     C71441   6.574   8.800   7.822 -0.7010 -0.6036 -0.6249
  542MOL0     O71442   6.474   8.743   7.901  0.0365  0.5578 -0.9615
  542MOL0     C71443   6.350   8.809   7.897 -0.1783  0.3843  0.6285
  542MOL0     C71444   6.241   8.737   7.841 -1.0584  0.4629  0.2706
  542MOL0     C71445   6.114   8.797   7.816 -0.6565  0.4968 -0.2123
  542MOL0     C71446   6.098   8.934   7.838 -0.2460 -0.3134  0.2797
  542MOL0     O71447   5.983   8.995   7.798 -0.4714  0.2755  0.3517
  542MOL0     C71448   5.854   8.942   7.823  0.0745 -0.9367  0.3186
  542MOL0     C71449   5.768   9.041   7.904  0.3296  0.8735 -1.0820
  542MOL0     C71450   5.685   9.155   7.843 -0.6598 -0.7801  0.1343
  542MOL0     C71451   5.783   9.254   7.777 -0.1555  0.1723 -0.6331
  542MOL0     C71452   5.717   9.400   7.745 -0.2198 -0.5212  0.9094
  542MOL0     C71453   5.819   9.519   7.722 -0.1300  0.1847  0.0947
  542MOL0     C71454   5.933   9.480   7.627  0.5492  0.2242 -0.8067
  542MOL0     C71455   6.026   9.598   7.591  0.5199  1.0826 -0.0476
  542MOL0    Cl71456   6.166   9.539   7.493  0.1509 -0.0474  0.1251
  542MOL0     C71457   6.198   9.013   7.894 -0.9981 -0.6155 -0.9804
  542MOL0     C71458   6.325   8.953   7.922  0.2925  0.4780  0.7914
  542MOL0     O71459   6.555   8.903   7.756 -0.2526  0.1020  0.3591
  542MOL0     C71460   6.781   8.740   7.686 -0.9280 -1.1960 -0.0871
  542MOL0     C71461   6.908   8.679   7.676 -0.3057  0.1519 -0.0384
  542MOL0     N71462   7.396   8.453   8.123  0.1998 -1.1111  0.0754
  542MOL0     N71463   7.472   8.388   8.200  0.3662  0.3803 -0.0448
  542MOL0     C71464   8.401   7.515   8.293 -0.2392 -0.1320  1.0366
  542MOL0     C71465   8.540   7.513   8.271  0.4808 -0.1263 -0.4056
  542MOL0     C71466   8.973   7.600   8.346  0.1148  0.0447 -0.2138
  542MOL0     C71467   9.079   7.678   8.400  0.0996  0.5335 -0.4367
  542MOL0     C71468   9.208   7.666   8.353  0.1413 -0.1363 -0.7722
  542MOL0     C71469   9.245   7.583   8.239 -0.0994 -0.0467 -0.2467
  542MOL0     O71470   9.378   7.574   8.207 -0.1267 -0.1544  0.6847
  542MOL0     C71471   9.414   7.515   8.084 -0.3901  0.6352  0.2752
  542MOL0     C71472   9.534   7.573   8.026  0.1782  0.7538  0.2705
  542MOL0     C71473   9.598   7.479   7.927  0.3820 -0.3605  1.0273
  542MOL0     C71474   9.735   7.539   7.873  0.3577  0.7807  0.7063
  542MOL0     C71475   9.859   7.504   7.945 -0.2196  0.0466  0.6070
  542MOL0     C71476   9.955   7.466   8.005 -0.2748 -0.7129 -0.5752
  542MOL0     C71477   9.136   7.510   8.189  0.4104  0.0822  0.3842
  542MOL0     C71478   9.006   7.522   8.238  0.1474 -0.6083 -0.2994
  542MOL0     H71479   8.617   7.457   8.599 -0.8438 -2.0193  1.5971
  542MOL0     H71480   8.367   7.487   8.617 -1.2943  2.3029 -0.0133
  542MOL0     H71481   8.096   7.523   8.269 -1.8141  2.1722 -1.5566
  542MOL0     H71482   8.175   7.678   8.285 -1.3340  0.6772 -2.0968
  542MOL0     H71483   8.033   7.706   8.504 -0.1083  0.5518 -0.6591
  542MOL0     H71484   7.934   7.582   8.433  0.3573 -0.4470 -0.2829
  542MOL0     H71485   7.929   7.743   8.217  2.1633  1.0820 -0.2510
  542MOL0     H71486   7.996   7.862   8.321  0.6730 -0.0953 -0.8934
  542MOL0     H71487   7.735   7.697   8.389 -0.7178  0.6246  0.7575
  542MOL0     H71488   7.784   7.842   8.475  1.1291  1.7698 -1.0141
  542MOL0     H71489   7.598   7.861   8.311 -0.2554 -0.7447 -1.6528
  542MOL0     H71490   7.716   7.819   8.182  0.1337 -2.4468  0.6060
  542MOL0     H71491   7.829   8.020   8.205 -0.5007  1.6729 -0.7759
  542MOL0     H71492   7.746   8.065   8.358 -2.0636 -2.2409  0.7355
  542MOL0     H71493   7.613   8.026   8.092  0.0162  0.1157 -0.2101
  542MOL0     H71494   7.518   8.084   8.224 -1.2159 -0.9183 -1.2267
  542MOL0     H71495   7.763   8.229   8.111 -0.2090  0.5723 -0.5249
  542MOL0     H71496   7.709   8.254   8.272  1.6075  1.4441 -0.5360
  542MOL0     H71497   7.628   8.353   7.918 -0.2959  0.5643 -0.8474
  542MOL0     H71498   7.482   8.613   7.855 -0.3125 -0.1762 -0.0560
  542MOL0     H71499   7.320   8.603   7.914  0.4963  1.1874  1.0948
  542MOL0     H71500   7.458   8.410   7.725  3.1975  2.5173  4.1819
  542MOL0     H71501   7.337   8.532   7.667  0.5272 -0.8245 -1.1642
  542MOL0     H71502   7.237   8.336   7.658  0.4876  0.6892 -0.2386
  542MOL0     H71503   7.271   8.281   7.822 -1.0995  0.7576  1.3028
  542MOL0     H71504   7.148   8.466   7.922 -0.5687 -2.3949  1.2894
  542MOL0     H71505   7.049   8.345   7.838 -1.4581  1.6624 -1.0955
  542MOL0     H71506   6.928   8.492   7.959  1.7202  1.0175  0.1861
  542MOL0     H71507   6.696   8.621   7.998 -1.9244  0.6162 -0.6580
  542MOL0     H71508   6.240   8.630   7.819  2.9506  0.2172  0.4980
  542MOL0     H71509   6.041   8.746   7.756 -0.2412 -0.4693  0.0870
  542MOL0     H71510   5.866   8.853   7.886  2.8723 -0.5212  0.5041
  542MOL0     H71511   5.791   8.924   7.736 -1.0210 -0.9929  1.1112
  542MOL0     H71512   5.828   9.087   7.982 -2.2063  1.5450  0.5754
  542MOL0     H71513   5.708   8.969   7.961  0.3155 -1.4222 -3.7355
  542MOL0     H71514   5.638   9.206   7.927  3.2238 -0.0883  2.1064
  542MOL0     H71515   5.612   9.113   7.774 -1.3199 -1.2830  1.1247
  542MOL0     H71516   5.877   9.261   7.833 -0.6989 -1.2275  0.5403
  542MOL0     H71517   5.820   9.209   7.684 -2.1358 -0.0424 -1.3516
  542MOL0     H71518   5.651   9.435   7.825 -0.5094  0.3624  0.3092
  542MOL0     H71519   5.651   9.405   7.658  0.6634  4.6437  0.2060
  542MOL0     H71520   5.872   9.532   7.817 -1.9322 -2.1895  1.5337
  542MOL0     H71521   5.757   9.603   7.691 -0.6328  0.1132  0.8812
  542MOL0     H71522   5.995   9.409   7.683 -0.0584 -0.9180 -1.5358
  542MOL0     H71523   5.900   9.429   7.536 -2.2091 -1.9069  1.1953
  542MOL0     H71524   6.058   9.647   7.684  2.1576  1.6134 -0.8664
  542MOL0     H71525   5.957   9.664   7.538  0.2188  0.2774 -0.6817
  542MOL0     H71526   6.170   9.118   7.903  0.0445 -0.5336  2.5297
  542MOL0     H71527   6.412   9.005   7.961  2.2592 -1.9330 -0.0949
  542MOL0     H71528   6.761   8.813   7.609  0.9345 -2.6333 -2.0699
  542MOL0     H71529   6.985   8.697   7.601  2.4067 -0.9148  2.2754
  542MOL0     H71530   8.337   7.531   8.207 -1.4268 -1.3385  1.6641
  542MOL0     H71531   8.584   7.524   8.172 -0.7355  1.7250 -0.7825
  542MOL0     H71532   9.039   7.739   8.481  0.8762 -0.0257  0.3900
  542MOL0     H71533   9.282   7.731   8.399  1.3346 -0.6753 -1.8718
  542MOL0     H71534   9.334   7.516   8.010  1.7003 -1.3630 -2.2167
  542MOL0     H71535   9.428   7.407   8.093  0.5817  0.5037 -2.0874
  542MOL0     H71536   9.498   7.658   7.968  0.5200 -0.2590 -1.5132
  542MOL0     H71537   9.607   7.593   8.105  0.1062 -4.0062  1.8492
  542MOL0     H71538   9.537   7.484   7.836  0.8345 -0.0714  0.7394
  542MOL0     H71539   9.588   7.378   7.968 -4.9268  0.5649  2.8927
  542MOL0     H71540   9.760   7.506   7.771 -0.8839  3.4658 -0.5654
  542MOL0     H71541   9.722   7.646   7.857 -0.4718  0.4779 -0.9954
  542MOL0     H71542  10.048   7.435   8.049 -0.2586  1.5410  1.1188
  542MOL0     H71543   9.159   7.436   8.112  1.4830  0.2200  0.5611
  542MOL0     H71544   8.931   7.461   8.187  0.1501 -1.2345  0.4206
  543MOL0     O71545   2.543   0.040   4.321  0.7800 -0.0466  0.3244
  543MOL0     C71546   2.537   0.132   4.240 -0.6768  0.3691 -0.7449
  543MOL0     O71547   2.426   0.191   4.194 -0.0092  0.6366  0.6498
  543MOL0     C71548   2.298   0.145   4.228 -0.0547  0.2761 -0.6964
  543MOL0     C71549   2.206   0.115   4.127 -0.1603 -0.2151 -0.4817
  543MOL0     C71550   2.069   0.086   4.147  0.0634  0.1204 -0.7729
  543MOL0     C71551   2.029   0.072   4.280  0.2388  1.4927  0.5028
  543MOL0     O71552   1.907   0.037   4.325  0.2396  0.0098  0.5676
  543MOL0     C71553   1.798  -0.026   4.246  0.2906  0.2594 -0.1659
  543MOL0     C71554   1.694   0.072   4.192 -0.8613  1.0244 -0.4778
  543MOL0     C71555   1.644   0.151   4.316  0.1130 -0.0011 -0.3483
  543MOL0     C71556   1.550   0.256   4.267 -0.5013 -0.6091 -0.3810
  543MOL0     C71557   1.521   0.353   4.369  0.3894 -0.7018 -0.4158
  543MOL0     C71558   1.433   0.300   4.488 -0.2295  0.0705  0.4251
  543MOL0     C71559   1.359   0.419   4.553  0.5729 -0.5295 -0.1367
  543MOL0     C71560   1.246   0.368   4.642  0.4993  0.1927 -0.3942
  543MOL0     N71561   1.192   0.473   4.736 -0.0513  0.9186  0.3329
  543MOL0     C71562   1.100   0.569   4.710 -0.5633 -0.9429 -1.1892
  543MOL0     C71563   1.074   0.632   4.828  0.3969  0.7387  0.0692
  543MOL0     C71564   0.964   0.731   4.833 -0.7568  0.6697 -0.9809
  543MOL0     C71565   1.004   0.872   4.794 -0.6895  0.1852 -0.1404
  543MOL0     C71566   0.890   0.978   4.766 -0.7988  0.0777  0.0440
  543MOL0     C71567   0.774   0.981   4.866 -0.5354  0.0594 -0.5461
  543MOL0     O71568   0.698   1.094   4.835 -0.1922 -0.1020 -0.5094
  543MOL0     C71569   0.593   1.124   4.921 -0.2881  0.6464  0.5864
  543MOL0     C71570   0.552   1.060   5.035  0.3153 -0.9067  0.4956
  543MOL0     C71571   0.430   1.092   5.097  0.4895 -0.4415 -0.3810
  543MOL0     C71572   0.345   1.193   5.043  0.1030 -0.3183 -0.3233
  543MOL0     C71573   0.221   1.219   5.108  0.7149 -0.5914  0.3674
  543MOL0     O71574   0.117   1.264   5.038 -0.2902  0.4144  0.7202
  543MOL0     C71575   0.000   1.307   5.101 -0.2120  0.5053  0.7310
  543MOL0     C71576  -0.078   1.212   5.183 -0.4919  1.4870  1.0933
  543MOL0     C71577  -0.200   1.242   5.231  0.8109  0.3306  1.5097
  543MOL0     C71578  -0.244   1.382   5.210  1.3498  0.0479  0.4313
  543MOL0     O71579  -0.366   1.435   5.254 -0.4829  0.2429  0.0344
  543MOL0     C71580  -0.423   1.405   5.379 -0.9094  0.8777 -0.2669
  543MOL0     C71581  -0.547   1.489   5.402 -0.3963  0.1161  0.0095
  543MOL0     C71582  -0.667   1.428   5.321  0.1365 -0.0679  1.1916
  543MOL0     C71583  -0.787   1.514   5.354 -0.1530  0.0189  0.7083
  543MOL0     C71584  -0.912   1.494   5.262 -0.3198 -0.0818 -0.3916
  543MOL0     C71585  -1.029   1.577   5.328  0.9335  0.4184 -0.1268
  543MOL0     C71586  -1.156   1.590   5.251 -0.2929  0.3322 -0.5437
  543MOL0     C71587  -1.218   1.452   5.205  0.4347  0.1644  0.0642
  543MOL0    Cl71588  -1.263   1.356   5.352 -0.2722  0.1981  0.6571
  543MOL0     C71589  -0.172   1.469   5.135 -0.5495 -0.1490 -0.4053
  543MOL0     C71590  -0.057   1.425   5.063 -0.2908 -0.9423 -0.0230
  543MOL0     O71591   0.220   1.215   5.228 -0.0486  0.7842 -0.0983
  543MOL0     C71592   0.403   1.276   4.947  0.2917 -0.1873  0.2999
  543MOL0     C71593   0.519   1.239   4.879  0.2466 -0.3741 -1.1920
  543MOL0     N71594   1.144   0.561   4.925 -0.2118  0.7165  0.0005
  543MOL0     N71595   1.210   0.456   4.872  0.0562  0.1796  0.5970
  543MOL0     C71596   2.115   0.097   4.385  0.1072  0.0808  0.6338
  543MOL0     C71597   2.253   0.141   4.365  0.5676 -0.3264  0.2951
  543MOL0     C71598   2.669   0.206   4.215 -0.6014  0.4898  0.3398
  543MOL0     C71599   2.685   0.274   4.101 -0.2622 -0.3435 -0.1857
  543MOL0     C71600   2.812   0.342   4.077 -0.0694 -0.3008 -0.7780
  543MOL0     C71601   2.920   0.332   4.168  0.2440 -0.3939  0.8205
  543MOL0     O71602   3.040   0.380   4.138 -0.0433 -0.2365 -0.1672
  543MOL0     C71603   3.082   0.366   4.003  0.0510  0.5321  0.1363
  543MOL0     C71604   3.226   0.405   3.987  0.5130  0.1007 -0.2676
  543MOL0     C71605   3.314   0.273   4.028 -0.1633  0.1611  0.7260
  543MOL0     C71606   3.469   0.291   4.019 -0.3909 -0.4146 -0.2828
  543MOL0     C71607   3.507   0.340   3.886  0.7778 -0.2463 -0.3156
  543MOL0     C71608   3.525   0.377   3.773 -0.4437 -0.0228 -0.9077
  543MOL0     C71609   2.897   0.272   4.287 -0.4716  1.1279 -0.5658
  543MOL0     C71610   2.777   0.207   4.310 -0.5001  0.6809  0.3044
  543MOL0     H71611   2.236   0.121   4.023  1.1656  2.2747 -0.0258
  543MOL0     H71612   2.007   0.074   4.059  2.4457 -0.3254 -2.4787
  543MOL0     H71613   1.747  -0.096   4.314 -0.9946  1.9226  0.6484
  543MOL0     H71614   1.841  -0.077   4.159 -0.0106  1.8747 -1.3008
  543MOL0     H71615   1.609   0.016   4.152  1.6311 -2.3608 -1.5119
  543MOL0     H71616   1.730   0.141   4.115  0.5009  1.3885  0.4592
  543MOL0     H71617   1.729   0.202   4.362 -1.4955  1.8108  0.8093
  543MOL0     H71618   1.603   0.084   4.392 -0.1013 -1.6717 -1.8716
  543MOL0     H71619   1.585   0.317   4.183 -1.2990 -3.1777 -2.7447
  543MOL0     H71620   1.453   0.211   4.245 -1.5605  0.9003  1.0085
  543MOL0     H71621   1.462   0.431   4.320 -0.7060 -2.0182 -1.2344
  543MOL0     H71622   1.611   0.408   4.400  0.9171 -2.1399  0.6886
  543MOL0     H71623   1.490   0.235   4.556 -1.0010 -2.0973 -0.8797
  543MOL0     H71624   1.363   0.230   4.441 -0.1902  0.0901  0.3364
  543MOL0     H71625   1.422   0.470   4.626  0.4082  0.0637 -0.4045
  543MOL0     H71626   1.325   0.489   4.476  2.9008  0.5865 -0.2399
  543MOL0     H71627   1.275   0.282   4.703 -1.5996  0.4806  1.1022
  543MOL0     H71628   1.159   0.338   4.583  0.2234  3.0347 -1.6044
  543MOL0     H71629   1.049   0.581   4.614 -1.3781 -1.9047 -0.8990
  543MOL0     H71630   0.937   0.748   4.938 -1.7645 -0.3238 -1.0555
  543MOL0     H71631   0.878   0.695   4.776 -1.0017 -0.0033 -0.2158
  543MOL0     H71632   1.067   0.870   4.704  1.3741  1.5840  1.1801
  543MOL0     H71633   1.070   0.908   4.873  0.7848  0.5688 -1.4732
  543MOL0     H71634   0.930   1.079   4.761 -1.7371  0.5236  1.0753
  543MOL0     H71635   0.842   0.968   4.668 -1.2908 -0.3300  0.3213
  543MOL0     H71636   0.819   0.989   4.965 -2.0125 -3.5307  0.5454
  543MOL0     H71637   0.717   0.888   4.860 -0.0698 -0.3124  0.5750
  543MOL0     H71638   0.615   0.977   5.065  1.7357  0.4928  1.4889
  543MOL0     H71639   0.400   1.021   5.173 -2.9434  1.0683 -0.1662
  543MOL0     H71640  -0.038   1.112   5.197 -1.5438  0.5404 -1.8278
  543MOL0     H71641  -0.268   1.179   5.287 -1.9373  0.5198 -1.3980
  543MOL0     H71642  -0.341   1.423   5.450 -1.7914  1.0320  0.7432
  543MOL0     H71643  -0.447   1.298   5.380 -0.1957  0.7186  0.4091
  543MOL0     H71644  -0.530   1.592   5.367 -1.0864  0.8824  1.7801
  543MOL0     H71645  -0.564   1.483   5.510 -2.8839 -1.6296 -0.3959
  543MOL0     H71646  -0.682   1.323   5.347 -1.6613  0.2457  1.5830
  543MOL0     H71647  -0.659   1.438   5.213 -0.1543  0.4832  1.2152
  543MOL0     H71648  -0.806   1.486   5.458  1.5424  0.0036  1.0389
  543MOL0     H71649  -0.756   1.618   5.344  0.1024 -0.0183  1.0845
  543MOL0     H71650  -0.917   1.385   5.259  0.0733 -0.2060  2.0666
  543MOL0     H71651  -0.890   1.531   5.161 -1.4346  1.3395 -0.1532
  543MOL0     H71652  -0.993   1.678   5.350 -0.9352  0.7763  1.5715
  543MOL0     H71653  -1.061   1.528   5.420 -0.9287  1.4228 -0.1699
  543MOL0     H71654  -1.235   1.640   5.309 -0.6484 -0.3173 -0.4624
  543MOL0     H71655  -1.129   1.666   5.176 -0.6982  1.1508  0.1126
  543MOL0     H71656  -1.150   1.389   5.146  0.1349  1.1892 -1.4329
  543MOL0     H71657  -1.300   1.475   5.135  2.2419  2.0000 -1.6037
  543MOL0     H71658  -0.211   1.570   5.135 -4.2319 -1.4006 -0.3068
  543MOL0     H71659  -0.008   1.498   4.998 -0.4782  1.8326  2.7195
  543MOL0     H71660   0.353   1.368   4.917  1.3702 -0.0058 -1.0265
  543MOL0     H71661   0.548   1.278   4.781  3.7948 -0.0766 -0.1495
  543MOL0     H71662   2.086   0.083   4.489  2.2163  1.0442  1.4122
  543MOL0     H71663   2.318   0.165   4.449  2.4172  2.6838 -1.8243
  543MOL0     H71664   2.602   0.292   4.034  0.5385 -0.0817 -1.1300
  543MOL0     H71665   2.814   0.404   3.987  0.5808  1.2904  0.2752
  543MOL0     H71666   3.032   0.441   3.940  0.8699 -0.6893 -2.0602
  543MOL0     H71667   3.047   0.277   3.951 -0.2260 -0.1217  1.4088
  543MOL0     H71668   3.245   0.421   3.880  3.1912 -1.1919 -0.0620
  543MOL0     H71669   3.248   0.491   4.051  0.3490  2.2791 -2.9231
  543MOL0     H71670   3.276   0.194   3.962 -1.2578  0.9730  0.3727
  543MOL0     H71671   3.276   0.244   4.126  0.4666  0.2953  1.0160
  543MOL0     H71672   3.498   0.373   4.085 -0.6111 -0.0926 -0.5791
  543MOL0     H71673   3.534   0.205   4.039 -0.5892 -0.0706  2.0323
  543MOL0     H71674   3.544   0.419   3.676  0.2176  0.2975 -0.6475
  543MOL0     H71675   2.971   0.279   4.366 -1.0731 -2.8908  0.5640
  543MOL0     H71676   2.762   0.147   4.399 -3.7728  0.5589 -0.2028
  544MOL0     O71677   0.521   3.652   6.834 -0.3217 -0.4663  0.2037
  544MOL0     C71678   0.586   3.596   6.920  0.0081 -0.6205 -0.3111
  544MOL0     O71679   0.539   3.577   7.052  0.0515  0.3201  0.1205
  544MOL0     C71680   0.402   3.588   7.059  0.4881 -0.4017  0.1381
  544MOL0     C71681   0.308   3.522   6.975 -0.6815 -0.8525 -0.2446
  544MOL0     C71682   0.169   3.510   6.997 -1.3192  0.0560 -0.3793
  544MOL0     C71683   0.119   3.557   7.117  0.7350 -0.6217  0.4097
  544MOL0     O71684  -0.009   3.539   7.154 -0.3807  0.1263 -0.3224
  544MOL0     C71685  -0.109   3.504   7.054  0.3392 -0.4401  0.3666
  544MOL0     C71686  -0.247   3.543   7.101 -0.3960  0.4130  0.6942
  544MOL0     C71687  -0.370   3.478   7.029 -0.6042  0.7536 -0.0787
  544MOL0     C71688  -0.493   3.538   7.091  0.7966 -0.6336  0.4498
  544MOL0     C71689  -0.627   3.484   7.021  0.0646 -0.1879  0.2501
  544MOL0     C71690  -0.756   3.548   7.088 -0.2188 -0.2656  0.1891
  544MOL0     C71691  -0.884   3.540   7.014 -0.0963 -0.0604  0.0437
  544MOL0     C71692  -1.007   3.590   7.097 -0.3073 -0.0693  0.3276
  544MOL0     N71693  -1.137   3.564   7.022  0.0421 -0.6951  0.3069
  544MOL0     C71694  -1.190   3.441   6.976 -0.1891  0.2908 -1.3884
  544MOL0     C71695  -1.314   3.469   6.947  0.4278  0.4736 -0.6117
  544MOL0     C71696  -1.411   3.378   6.902  0.6361  0.7583 -1.6717
  544MOL0     C71697  -1.498   3.323   7.020 -1.0188 -0.2647  0.3810
  544MOL0     C71698  -1.594   3.425   7.086  1.0315  0.2325  0.0557
  544MOL0     C71699  -1.673   3.335   7.190  0.4517  0.9152  0.7254
  544MOL0     O71700  -1.774   3.414   7.247  0.1389 -0.5335 -0.5654
  544MOL0     C71701  -1.835   3.365   7.354  0.1865 -0.4450 -0.1564
  544MOL0     C71702  -1.903   3.467   7.419  0.2256  0.5493  0.4478
  544MOL0     C71703  -1.983   3.442   7.528 -0.5641 -0.2963 -0.7154
  544MOL0     C71704  -2.002   3.307   7.574 -0.3237 -0.3255 -0.1227
  544MOL0     C71705  -2.091   3.278   7.686  0.3045 -0.5676 -0.4757
  544MOL0     O71706  -2.135   3.388   7.764 -0.1212 -0.4882 -0.4237
  544MOL0     C71707  -2.234   3.372   7.869  0.1506 -0.2230  0.0761
  544MOL0     C71708  -2.340   3.282   7.863  0.3439  1.2233  0.0658
  544MOL0     C71709  -2.431   3.267   7.970  0.7742  0.2084 -0.1757
  544MOL0     C71710  -2.406   3.339   8.089  0.0419 -0.6202  0.2345
  544MOL0     O71711  -2.493   3.333   8.193  0.1315 -0.4255  0.2201
  544MOL0     C71712  -2.599   3.438   8.180  0.1492  0.7172 -0.7665
  544MOL0     C71713  -2.722   3.358   8.149 -0.3218 -0.6008 -0.4251
  544MOL0     C71714  -2.851   3.439   8.166  0.0956 -0.8754 -0.9098
  544MOL0     C71715  -2.966   3.346   8.126 -0.4189  0.4127  0.1441
  544MOL0     C71716  -3.100   3.380   8.176  0.7451 -0.8551  0.0739
  544MOL0     C71717  -3.166   3.512   8.118 -0.5112  0.0816  0.1506
  544MOL0     C71718  -3.312   3.512   8.156 -0.1406  0.2867 -0.0929
  544MOL0     C71719  -3.321   3.544   8.303  0.6590  0.3097 -0.6102
  544MOL0    Cl71720  -3.492   3.609   8.329  0.2548 -0.0765 -0.6536
  544MOL0     C71721  -2.301   3.438   8.089  0.0625  0.7622 -0.4849
  544MOL0     C71722  -2.218   3.449   7.985  0.0403 -0.6795  1.1897
  544MOL0     O71723  -2.133   3.163   7.685  0.2088 -0.4255 -0.3579
  544MOL0     C71724  -1.942   3.204   7.501 -0.5987 -1.0111 -0.1684
  544MOL0     C71725  -1.868   3.229   7.384  0.1558  0.2410  0.0173
  544MOL0     N71726  -1.340   3.599   6.967  0.3192 -0.4225 -0.7522
  544MOL0     N71727  -1.232   3.661   7.007  0.0045  0.9404 -1.0550
  544MOL0     C71728   0.206   3.626   7.203 -0.1208  0.3413 -0.2741
  544MOL0     C71729   0.344   3.644   7.176 -0.4840 -0.5503  0.4779
  544MOL0     C71730   0.716   3.559   6.866  0.7923 -0.8272  0.0932
  544MOL0     C71731   0.801   3.470   6.929  1.6998 -0.5022 -0.5276
  544MOL0     C71732   0.921   3.436   6.884 -0.5205  0.4524 -0.3092
  544MOL0     C71733   0.964   3.481   6.752  0.8033  0.6754  0.0292
  544MOL0     O71734   1.071   3.435   6.678 -0.2337  0.1573 -0.3420
  544MOL0     C71735   1.168   3.351   6.746 -1.1570 -0.6292  0.6576
  544MOL0     C71736   1.261   3.297   6.639 -0.3019 -0.0663  0.2727
  544MOL0     C71737   1.376   3.389   6.589 -0.0726 -0.1372 -0.4967
  544MOL0     C71738   1.326   3.503   6.503  0.2791  0.4163 -0.1456
  544MOL0     C71739   1.425   3.554   6.409  0.1779  0.3523 -0.3024
  544MOL0     C71740   1.499   3.584   6.316  0.1379  0.4505  0.6753
  544MOL0     C71741   0.874   3.556   6.674  0.0014  0.1874 -0.2432
  544MOL0     C71742   0.755   3.601   6.738 -0.6388 -0.2692 -0.0507
  544MOL0     H71743   0.349   3.497   6.877 -1.1325 -0.7165 -0.4727
  544MOL0     H71744   0.101   3.464   6.927 -3.7399 -1.6867  2.8149
  544MOL0     H71745  -0.110   3.395   7.046 -0.0213 -0.3562 -0.9664
  544MOL0     H71746  -0.090   3.551   6.957  0.1728 -0.2753  0.4136
  544MOL0     H71747  -0.250   3.650   7.080  3.9326  0.8016  1.0014
  544MOL0     H71748  -0.248   3.533   7.210 -1.6919  1.2081  0.7706
  544MOL0     H71749  -0.360   3.370   7.045  3.0810  0.8938 -0.5776
  544MOL0     H71750  -0.372   3.506   6.923 -0.4012 -1.2001 -0.6352
  544MOL0     H71751  -0.492   3.506   7.196 -0.0166  2.0530  1.3440
  544MOL0     H71752  -0.494   3.647   7.095 -0.1561 -0.5366 -1.1806
  544MOL0     H71753  -0.620   3.375   7.027 -1.1261 -0.2731  0.2799
  544MOL0     H71754  -0.633   3.513   6.916  1.4844  1.6876  0.6399
  544MOL0     H71755  -0.727   3.651   7.111 -0.0781  0.1426 -1.6508
  544MOL0     H71756  -0.776   3.492   7.179 -2.9506  2.4681  1.4416
  544MOL0     H71757  -0.884   3.607   6.928 -0.2443 -1.9519 -1.4973
  544MOL0     H71758  -0.907   3.435   6.991  0.5654 -0.8279  2.5338
  544MOL0     H71759  -0.989   3.694   7.127  0.9953 -0.7553  2.0801
  544MOL0     H71760  -1.000   3.527   7.186  2.5814  1.6378  1.4880
  544MOL0     H71761  -1.145   3.342   6.972  2.3898  1.2113  1.2184
  544MOL0     H71762  -1.363   3.293   6.853 -0.4899 -2.1203  1.7817
  544MOL0     H71763  -1.472   3.442   6.837  0.7702 -0.2632 -2.8368
  544MOL0     H71764  -1.431   3.282   7.096  0.7653  1.1458 -0.3460
  544MOL0     H71765  -1.545   3.247   6.957 -1.4904 -0.1118  0.5416
  544MOL0     H71766  -1.531   3.503   7.130  2.9603 -1.0941 -0.2251
  544MOL0     H71767  -1.653   3.464   7.002  1.4523  1.7841  0.4360
  544MOL0     H71768  -1.604   3.302   7.268 -0.9146 -1.5954  0.9827
  544MOL0     H71769  -1.714   3.254   7.129  2.2023  3.8916 -5.1398
  544MOL0     H71770  -1.883   3.572   7.399 -2.2842  1.0403  0.2297
  544MOL0     H71771  -2.025   3.517   7.595 -1.8735  0.8727 -2.7364
  544MOL0     H71772  -2.343   3.211   7.781  1.0748  0.9209  0.2977
  544MOL0     H71773  -2.512   3.197   7.956  0.7331 -0.7393  3.6176
  544MOL0     H71774  -2.586   3.508   8.097  1.7200 -0.3455 -1.4767
  544MOL0     H71775  -2.612   3.502   8.267  0.2801  0.0321 -0.2290
  544MOL0     H71776  -2.725   3.270   8.214 -3.3739  0.7646  1.5124
  544MOL0     H71777  -2.720   3.326   8.044 -2.5756 -1.9735 -0.1226
  544MOL0     H71778  -2.838   3.530   8.108  4.0859  0.2383  1.3048
  544MOL0     H71779  -2.855   3.465   8.272 -1.3544  0.4238 -1.2515
  544MOL0     H71780  -2.957   3.325   8.019  1.0761 -1.5881  0.6058
  544MOL0     H71781  -2.950   3.245   8.165 -0.5841  0.7046  0.9850
  544MOL0     H71782  -3.094   3.396   8.284  1.5441  1.2509 -0.2447
  544MOL0     H71783  -3.168   3.296   8.157 -1.7607  1.3369 -1.4318
  544MOL0     H71784  -3.156   3.509   8.009 -1.4174 -0.2809  0.0682
  544MOL0     H71785  -3.121   3.605   8.154 -0.1365  0.4857 -1.3200
  544MOL0     H71786  -3.352   3.603   8.111  1.1692  1.3270  0.7636
  544MOL0     H71787  -3.374   3.423   8.141 -0.9421  1.0928 -1.8712
  544MOL0     H71788  -3.257   3.626   8.336 -0.2777  0.3150  1.3112
  544MOL0     H71789  -3.301   3.461   8.372 -1.8120  1.6972  2.0016
  544MOL0     H71790  -2.288   3.504   8.174 -1.1799  0.2776  0.1020
  544MOL0     H71791  -2.143   3.527   7.982  1.1227 -1.6774  1.1151
  544MOL0     H71792  -1.959   3.099   7.523  3.0733 -1.7045  0.0133
  544MOL0     H71793  -1.829   3.147   7.325 -2.0737 -0.4326 -0.6165
  544MOL0     H71794   0.170   3.653   7.302 -0.2539 -1.5072  0.2208
  544MOL0     H71795   0.406   3.698   7.247  0.1062  1.7618 -1.6877
  544MOL0     H71796   0.777   3.437   7.030  0.2401  3.0400  0.4213
  544MOL0     H71797   0.977   3.360   6.937 -1.1504  0.0204 -0.2501
  544MOL0     H71798   1.122   3.265   6.796  1.0794 -1.1041  2.0662
  544MOL0     H71799   1.230   3.411   6.813  1.2986 -1.0820 -1.0419
  544MOL0     H71800   1.317   3.213   6.683 -1.0905 -0.8145 -0.1212
  544MOL0     H71801   1.205   3.264   6.551 -0.5486  1.1261 -0.0306
  544MOL0     H71802   1.452   3.323   6.546  1.3630  1.6972 -0.9175
  544MOL0     H71803   1.426   3.430   6.678 -1.6099  0.5316  0.1019
  544MOL0     H71804   1.247   3.459   6.442  0.6880 -1.1999  0.4402
  544MOL0     H71805   1.302   3.591   6.563  0.3807  0.8534 -0.7350
  544MOL0     H71806   1.580   3.599   6.246  1.2449 -1.8565  1.3509
  544MOL0     H71807   0.903   3.594   6.576  1.9124  1.1310  0.6218
  544MOL0     H71808   0.693   3.678   6.694  2.6893  3.8335  1.6853
  545MOL0     O71809   8.084  11.141   3.514  0.0719  0.4116 -0.5234
  545MOL0     C71810   8.061  11.117   3.637 -0.4529 -0.4056  0.6242
  545MOL0     O71811   7.939  11.125   3.693  0.1665  0.1446 -0.2849
  545MOL0     C71812   7.819  11.134   3.619 -1.0064  0.3610 -0.9442
  545MOL0     C71813   7.757  11.257   3.627  0.8840 -0.5249 -0.5447
  545MOL0     C71814   7.630  11.273   3.559  0.0511  0.7505  0.2731
  545MOL0     C71815   7.570  11.164   3.493 -1.4270  0.9846 -0.1041
  545MOL0     O71816   7.456  11.198   3.433  0.8158 -0.6018 -0.5557
  545MOL0     C71817   7.443  11.162   3.291 -0.6246 -0.1298 -0.4833
  545MOL0     C71818   7.292  11.149   3.264 -0.1678 -0.1442 -0.1593
  545MOL0     C71819   7.216  11.046   3.354  0.9941 -0.2068 -0.0781
  545MOL0     C71820   7.063  11.068   3.347  0.9474 -0.3951 -0.2297
  545MOL0     C71821   6.997  11.033   3.214 -0.2594  0.1982 -0.1471
  545MOL0     C71822   6.845  11.008   3.224  0.5453  0.1279  0.3315
  545MOL0     C71823   6.794  10.994   3.086  0.2679 -1.4581 -0.1686
  545MOL0     C71824   6.645  10.957   3.097  0.1453  0.1503  0.5215
  545MOL0     N71825   6.590  10.921   2.965 -0.7256 -0.1448  0.1775
  545MOL0     C71826   6.619  10.982   2.848 -0.3352  0.3317  1.3619
  545MOL0     C71827   6.559  10.901   2.757  0.5894  0.6443 -0.4002
  545MOL0     C71828   6.564  10.904   2.607  0.5499 -0.4427 -0.5523
  545MOL0     C71829   6.707  10.939   2.549  0.0289  0.3389 -0.4944
  545MOL0     C71830   6.797  10.823   2.564 -0.7056 -0.2622 -0.6770
  545MOL0     C71831   6.953  10.849   2.541  0.1903  0.2234  0.3644
  545MOL0     O71832   6.996  10.937   2.646  0.3344  0.3636  0.3828
  545MOL0     C71833   7.108  11.014   2.622  0.4591  0.6234 -0.8079
  545MOL0     C71834   7.191  10.992   2.514 -0.5334  0.1667 -0.6951
  545MOL0     C71835   7.313  11.061   2.507  0.1506  0.7923  0.8091
  545MOL0     C71836   7.346  11.160   2.602 -0.4138 -0.9071 -0.5955
  545MOL0     C71837   7.477  11.231   2.589 -0.9188 -0.5091  0.6680
  545MOL0     O71838   7.485  11.348   2.669  0.2869  0.1049 -0.0647
  545MOL0     C71839   7.601  11.418   2.698  0.3582 -0.2449  0.5075
  545MOL0     C71840   7.733  11.395   2.642 -0.6871  0.5925 -0.3538
  545MOL0     C71841   7.855  11.450   2.700 -0.0320  0.0834  0.5249
  545MOL0     C71842   7.848  11.536   2.810  0.1788  0.0559 -0.0947
  545MOL0     O71843   7.964  11.574   2.874  0.1671 -0.6721 -0.0296
  545MOL0     C71844   8.085  11.618   2.801  0.4836 -0.1381 -0.1675
  545MOL0     C71845   8.177  11.690   2.905  0.7076  0.0262  0.1326
  545MOL0     C71846   8.332  11.672   2.877  0.7124  0.1050  0.1794
  545MOL0     C71847   8.415  11.732   2.990 -0.2493  0.6776  0.7547
  545MOL0     C71848   8.537  11.652   3.023  0.1384 -0.8772 -0.9392
  545MOL0     C71849   8.606  11.726   3.131 -0.9470  0.5747 -0.1975
  545MOL0     C71850   8.739  11.649   3.178  0.0677  0.2767 -0.3601
  545MOL0     C71851   8.789  11.733   3.296  0.4669 -0.2963  0.5923
  545MOL0    Cl71852   8.691  11.685   3.452  0.0054 -0.2731 -0.5179
  545MOL0     C71853   7.724  11.573   2.864 -0.0242 -0.6269  0.1196
  545MOL0     C71854   7.604  11.508   2.807  0.1218 -0.1934  0.1739
  545MOL0     O71855   7.548  11.193   2.498  0.0798 -0.6719  0.3379
  545MOL0     C71856   7.263  11.169   2.712  0.1273 -0.7053 -0.2061
  545MOL0     C71857   7.143  11.100   2.721  0.8880 -0.1435  0.3592
  545MOL0     N71858   6.475  10.815   2.820 -0.3798 -1.0597 -0.4093
  545MOL0     N71859   6.490  10.830   2.945  1.0970 -0.2171 -0.1424
  545MOL0     C71860   7.637  11.045   3.490 -0.3415  0.7371 -0.3334
  545MOL0     C71861   7.762  11.028   3.553  0.0007  0.3025 -0.0467
  545MOL0     C71862   8.172  11.092   3.725 -0.2204 -0.3057 -0.1889
  545MOL0     C71863   8.145  11.069   3.861 -0.3887 -0.5505 -0.4233
  545MOL0     C71864   8.244  11.044   3.951  0.1679  0.8016 -0.4193
  545MOL0     C71865   8.380  11.020   3.906 -0.1995  0.8580  0.6302
  545MOL0     O71866   8.482  10.987   3.993 -0.0952  0.1621 -0.3555
  545MOL0     C71867   8.594  11.077   3.995  0.0802  0.5198  0.3194
  545MOL0     C71868   8.702  10.989   4.068  0.5755  1.0040 -0.0894
  545MOL0     C71869   8.839  11.032   4.016 -0.0907  0.4300 -0.4134
  545MOL0     C71870   8.957  11.011   4.117  0.0457 -0.3469 -0.0271
  545MOL0     C71871   8.936  11.078   4.245 -0.8914  0.5331 -0.8948
  545MOL0     C71872   8.927  11.140   4.355  0.4198 -0.1431  0.8200
  545MOL0     C71873   8.408  11.033   3.767  0.9630 -0.9724  0.0616
  545MOL0     C71874   8.301  11.075   3.684  0.6117  0.4773  0.6549
  545MOL0     H71875   7.812  11.337   3.675  0.2427 -0.4075  0.0068
  545MOL0     H71876   7.577  11.368   3.558  0.0461  0.7528  0.6847
  545MOL0     H71877   7.496  11.070   3.266  2.3720  1.1981  0.4901
  545MOL0     H71878   7.489  11.247   3.240 -2.0657 -0.7761 -3.0835
  545MOL0     H71879   7.262  11.106   3.168 -2.1307 -1.4152  0.9513
  545MOL0     H71880   7.258  11.251   3.283  1.3559  0.7136 -1.7710
  545MOL0     H71881   7.255  11.059   3.455 -2.7602  2.8957  1.2264
  545MOL0     H71882   7.244  10.942   3.331  2.6941 -0.0375  1.0421
  545MOL0     H71883   7.012  10.997   3.413 -0.2826  1.3727  0.8062
  545MOL0     H71884   7.039  11.170   3.379 -1.9062 -0.9730 -0.2617
  545MOL0     H71885   7.031  10.941   3.166 -2.2784 -1.0662  0.7000
  545MOL0     H71886   7.021  11.115   3.145  1.4363  0.8877  1.2027
  545MOL0     H71887   6.799  11.100   3.263  1.0691  1.0571 -1.1495
  545MOL0     H71888   6.814  10.924   3.286  1.0928 -0.1734  0.1960
  545MOL0     H71889   6.816  11.094   3.047  0.5857 -0.9413  1.2517
  545MOL0     H71890   6.846  10.916   3.029  3.5989  0.6935 -0.3930
  545MOL0     H71891   6.596  11.047   3.133 -1.4486 -1.9895  4.2510
  545MOL0     H71892   6.626  10.885   3.176 -0.1384  0.0858  0.3963
  545MOL0     H71893   6.694  11.058   2.833 -0.6948  0.3667 -0.5669
  545MOL0     H71894   6.487  10.975   2.573  2.6923  3.0315  1.2282
  545MOL0     H71895   6.544  10.802   2.572 -0.7385 -0.3175 -0.2301
  545MOL0     H71896   6.746  11.029   2.598 -1.0822  0.6806 -0.2070
  545MOL0     H71897   6.691  10.962   2.443 -1.5458  1.0031 -0.1469
  545MOL0     H71898   6.795  10.783   2.666 -4.0078  1.2999 -0.0271
  545MOL0     H71899   6.768  10.756   2.482  0.0534  0.5922 -1.6820
  545MOL0     H71900   6.957  10.891   2.440 -2.1359  0.4430  0.2997
  545MOL0     H71901   6.997  10.749   2.539  0.6200  0.3836  1.1553
  545MOL0     H71902   7.167  10.917   2.439  1.1383 -3.5363  2.1263
  545MOL0     H71903   7.383  11.048   2.425  0.1019  0.2728  0.8406
  545MOL0     H71904   7.732  11.331   2.554  1.2631  1.4316 -1.0455
  545MOL0     H71905   7.952  11.413   2.666 -1.1018 -1.4202 -1.1027
  545MOL0     H71906   8.064  11.678   2.712  0.6118  0.0126 -0.0983
  545MOL0     H71907   8.129  11.523   2.772  0.0459 -1.4738  3.0603
  545MOL0     H71908   8.152  11.637   2.997  1.5206 -0.8270 -0.1117
  545MOL0     H71909   8.137  11.790   2.921 -1.4584 -0.7845  0.1850
  545MOL0     H71910   8.354  11.703   2.775 -0.8762 -1.6383 -0.7670
  545MOL0     H71911   8.358  11.565   2.876  1.9120  0.3370 -2.6252
  545MOL0     H71912   8.445  11.832   2.957  0.4079  0.4356  0.5970
  545MOL0     H71913   8.347  11.744   3.075  2.1216  1.2442  2.7162
  545MOL0     H71914   8.603  11.650   2.935  1.3981 -3.9532 -0.0677
  545MOL0     H71915   8.526  11.545   3.041  0.5318 -1.0144 -1.4557
  545MOL0     H71916   8.531  11.721   3.211 -0.9192  0.9389 -0.1470
  545MOL0     H71917   8.633  11.825   3.095 -1.2330  1.2962  1.4803
  545MOL0     H71918   8.727  11.544   3.203 -1.5040  0.8680  1.6407
  545MOL0     H71919   8.815  11.650   3.100 -0.8741  2.9433 -1.3877
  545MOL0     H71920   8.779  11.838   3.267  4.3311 -0.3105 -1.5474
  545MOL0     H71921   8.898  11.719   3.298  0.7984  0.7246 -2.9970
  545MOL0     H71922   7.709  11.647   2.943 -3.7308 -2.5579  1.4690
  545MOL0     H71923   7.516  11.549   2.856  2.5835  2.0231  3.1037
  545MOL0     H71924   7.285  11.227   2.801 -3.4817 -0.3764  0.6218
  545MOL0     H71925   7.084  11.091   2.812  1.9156 -0.7490  0.9858
  545MOL0     H71926   7.600  10.957   3.438 -2.1672  0.5775  1.1258
  545MOL0     H71927   7.804  10.928   3.555 -1.5752 -0.3782  0.7993
  545MOL0     H71928   8.047  11.086   3.904 -0.2931 -0.0495 -0.3998
  545MOL0     H71929   8.230  11.039   4.058  1.9329 -0.2298 -0.1966
  545MOL0     H71930   8.578  11.162   4.062  3.1532 -0.1878  2.1504
  545MOL0     H71931   8.625  11.109   3.895 -0.4686 -1.4771 -0.5347
  545MOL0     H71932   8.691  10.999   4.177  0.2716  0.3035 -0.0470
  545MOL0     H71933   8.701  10.884   4.040 -1.2277  0.9505  0.0231
  545MOL0     H71934   8.843  11.140   4.003 -2.8894  1.1770  3.0695
  545MOL0     H71935   8.848  10.977   3.922 -1.9638 -1.2149  0.2870
  545MOL0     H71936   8.972  10.903   4.124 -1.5894 -0.6572 -0.7296
  545MOL0     H71937   9.055  11.033   4.076  0.9294 -1.6788  1.2507
  545MOL0     H71938   8.926  11.192   4.449 -1.8656  0.1783  0.6781
  545MOL0     H71939   8.509  11.027   3.728  0.9958  2.7489 -0.7919
  545MOL0     H71940   8.324  11.100   3.581  0.9309 -1.8527  0.0943
  546MOL0     O71941   6.343   5.993  11.134  0.6670 -0.1671  0.1413
  546MOL0     C71942   6.447   6.051  11.149  0.0388  0.3339 -0.2945
  546MOL0     O71943   6.463   6.182  11.173 -0.0069 -0.4265  0.3487
  546MOL0     C71944   6.358   6.264  11.223  0.3178  0.3407 -0.3170
  546MOL0     C71945   6.383   6.399  11.219  0.3038  0.2122  0.3795
  546MOL0     C71946   6.276   6.491  11.227  0.0503  0.3988 -1.2624
  546MOL0     C71947   6.142   6.453  11.245 -0.1571  0.0025 -0.3254
  546MOL0     O71948   6.052   6.556  11.267  0.1522  0.3588  0.4476
  546MOL0     C71949   5.924   6.546  11.203 -0.7590  0.0974  0.3904
  546MOL0     C71950   5.810   6.497  11.293  0.4575 -0.8952 -0.7185
  546MOL0     C71951   5.764   6.605  11.399 -0.8241 -0.7780  0.3060
  546MOL0     C71952   5.625   6.576  11.467 -0.0307 -0.9086  0.2034
  546MOL0     C71953   5.578   6.437  11.488  0.5755  0.0266 -0.2351
  546MOL0     C71954   5.476   6.421  11.603 -0.1634  1.0175 -0.7174
  546MOL0     C71955   5.323   6.449  11.575 -0.4677 -0.5908 -0.1628
  546MOL0     C71956   5.301   6.606  11.563 -0.3604  0.7406  0.2334
  546MOL0     N71957   5.162   6.632  11.532 -0.2056  0.0897  0.6706
  546MOL0     C71958   5.054   6.601  11.612 -0.4551  0.5670 -0.5089
  546MOL0     C71959   4.942   6.643  11.542 -0.1150 -0.7968  0.9832
  546MOL0     C71960   4.809   6.666  11.601 -0.3412  0.9206  0.1854
  546MOL0     C71961   4.760   6.527  11.660 -0.3269  0.8786  0.6518
  546MOL0     C71962   4.726   6.425  11.550  0.9799 -0.3158 -0.0991
  546MOL0     C71963   4.769   6.286  11.595 -0.5712  0.0903 -0.0042
  546MOL0     O71964   4.903   6.248  11.561 -0.1485 -0.0209  0.1942
  546MOL0     C71965   4.961   6.126  11.591  0.1998  0.3843  0.7303
  546MOL0     C71966   4.896   6.030  11.667  0.3627  0.4762  0.2372
  546MOL0     C71967   4.950   5.912  11.706 -0.1811  0.5114  0.9345
  546MOL0     C71968   5.087   5.897  11.679 -0.0198  1.7663 -0.6382
  546MOL0     C71969   5.155   5.776  11.726  0.9378 -0.2927 -0.6916
  546MOL0     O71970   5.249   5.720  11.646  0.2757  0.0232 -0.5326
  546MOL0     C71971   5.324   5.611  11.694 -0.1474 -0.0090 -0.5736
  546MOL0     C71972   5.389   5.596  11.823 -0.1979 -0.4708  1.7115
  546MOL0     C71973   5.460   5.476  11.848 -0.2277 -0.1111 -0.4379
  546MOL0     C71974   5.473   5.372  11.753  0.4033 -0.3495 -0.2403
  546MOL0     O71975   5.547   5.257  11.778  0.5812  0.2748 -0.0701
  546MOL0     C71976   5.661   5.234  11.682  0.5157  0.4031  0.2218
  546MOL0     C71977   5.724   5.105  11.730  0.3008 -0.1923 -1.2418
  546MOL0     C71978   5.830   5.043  11.636  0.0288  0.0426  0.0954
  546MOL0     C71979   5.899   4.922  11.700  0.8270  0.0886 -0.7366
  546MOL0     C71980   5.974   4.838  11.603 -0.5006  0.0512 -0.3104
  546MOL0     C71981   6.046   4.725  11.681  0.6764 -0.2262 -0.1730
  546MOL0     C71982   6.128   4.626  11.594 -0.6070 -0.3806  1.3188
  546MOL0     C71983   6.243   4.698  11.519  0.5563 -0.4469  0.6463
  546MOL0    Cl71984   6.360   4.576  11.446 -0.0098 -0.1036  0.0922
  546MOL0     C71985   5.404   5.391  11.633 -0.1915 -0.0156 -0.3018
  546MOL0     C71986   5.328   5.508  11.605 -0.1010 -0.1788 -0.2298
  546MOL0     O71987   5.101   5.722  11.827 -1.1965 -0.0865  0.4465
  546MOL0     C71988   5.162   5.998  11.625  0.0368 -0.0450 -0.3188
  546MOL0     C71989   5.104   6.115  11.584  0.5005 -0.1832 -0.3858
  546MOL0     N71990   4.985   6.715  11.424  1.0035 -0.2280 -0.9901
  546MOL0     N71991   5.112   6.695  11.418  0.7253 -1.2656  0.8771
  546MOL0     C71992   6.126   6.316  11.281  0.0996  0.1158  0.6041
  546MOL0     C71993   6.227   6.224  11.259 -0.2228  0.5619  0.6047
  546MOL0     C71994   6.575   5.983  11.134 -1.0597 -0.1145  0.4497
  546MOL0     C71995   6.575   5.845  11.109  0.5910 -0.3199 -0.7558
  546MOL0     C71996   6.685   5.769  11.098  0.5677  0.0404  0.2309
  546MOL0     C71997   6.808   5.831  11.101  0.5926 -0.8419 -0.9535
  546MOL0     O71998   6.918   5.752  11.097 -0.4078 -0.2036  0.0957
  546MOL0     C71999   7.053   5.807  11.123  0.3824  0.3096 -0.0863
  546MOL0     C72000   7.107   5.897  11.011  0.0497  0.2250  0.4045
  546MOL0     C72001   7.243   5.844  10.968  0.1358 -0.0763  0.1702
  546MOL0     C72002   7.314   5.941  10.883 -0.4451 -0.1018 -0.1236
  546MOL0     C72003   7.459   5.910  10.895 -0.0023  0.0295  0.7275
  546MOL0     C72004   7.583   5.905  10.883  0.0682  0.8240 -1.2979
  546MOL0     C72005   6.813   5.975  11.107  0.8282  0.1320 -0.4915
  546MOL0     C72006   6.697   6.046  11.129 -0.3846  1.0508 -0.1017
  546MOL0     H72007   6.472   6.458  11.198  0.4396  0.6206  1.9460
  546MOL0     H72008   6.307   6.595  11.218  0.7376  0.0241 -3.8111
  546MOL0     H72009   5.932   6.472  11.123 -0.8480 -2.5177  2.6563
  546MOL0     H72010   5.899   6.645  11.163  2.9785  0.7548 -0.7723
  546MOL0     H72011   5.836   6.401  11.338  1.5902  0.0185  0.6547
  546MOL0     H72012   5.722   6.481  11.230 -1.1313  1.8336  0.6347
  546MOL0     H72013   5.766   6.702  11.349  1.8163 -1.1746 -0.5351
  546MOL0     H72014   5.832   6.604  11.484  0.3912 -3.5522 -0.5790
  546MOL0     H72015   5.621   6.643  11.553 -0.2269 -0.4085 -0.1875
  546MOL0     H72016   5.551   6.620  11.399  0.7252 -0.3059 -0.2366
  546MOL0     H72017   5.666   6.375  11.505  1.6211  0.8220 -2.3295
  546MOL0     H72018   5.529   6.386  11.405 -1.3374 -2.5882  2.2920
  546MOL0     H72019   5.520   6.470  11.690  0.5186 -0.1278 -0.3948
  546MOL0     H72020   5.473   6.313  11.620 -0.2611  0.9793 -0.9785
  546MOL0     H72021   5.293   6.404  11.480  1.9215 -0.2942 -1.1360
  546MOL0     H72022   5.269   6.403  11.659  3.2202 -4.1906  0.5993
  546MOL0     H72023   5.367   6.641  11.484  1.9024 -2.2080  0.6309
  546MOL0     H72024   5.331   6.651  11.658  0.4787 -1.4581  1.0827
  546MOL0     H72025   5.056   6.543  11.704  2.1868  0.0464 -0.8052
  546MOL0     H72026   4.743   6.697  11.519  2.2292  3.1388 -1.2281
  546MOL0     H72027   4.817   6.738  11.683  0.9028  3.2895 -1.8715
  546MOL0     H72028   4.658   6.543  11.699 -1.7324 -1.8849 -1.4896
  546MOL0     H72029   4.814   6.481  11.743  1.1621 -0.9751 -1.2493
  546MOL0     H72030   4.617   6.422  11.536  0.5792 -0.8409  2.5101
  546MOL0     H72031   4.775   6.449  11.455  0.6448  1.0194  0.0553
  546MOL0     H72032   4.706   6.212  11.545  1.6365 -1.5658 -0.4931
  546MOL0     H72033   4.758   6.281  11.704  4.4476  2.7594  0.9328
  546MOL0     H72034   4.801   6.055  11.714 -0.8984 -3.3547  0.1220
  546MOL0     H72035   4.898   5.830  11.754 -0.3582  0.1763  0.1791
  546MOL0     H72036   5.382   5.682  11.887  1.8277  1.7634 -0.8334
  546MOL0     H72037   5.510   5.466  11.943  0.5110  3.0898 -0.3711
  546MOL0     H72038   5.733   5.316  11.689 -2.0216  2.6295  3.5636
  546MOL0     H72039   5.628   5.227  11.578  0.1835  3.7945 -0.0031
  546MOL0     H72040   5.654   5.025  11.756 -1.4645  1.5350 -0.4099
  546MOL0     H72041   5.786   5.139  11.812  2.2004 -0.5771 -2.4551
  546MOL0     H72042   5.910   5.116  11.621  1.4622 -0.3876  4.2665
  546MOL0     H72043   5.785   5.019  11.540  1.9537 -1.3033 -0.5364
  546MOL0     H72044   5.970   4.970  11.768 -1.6207  1.8251  0.7640
  546MOL0     H72045   5.824   4.860  11.748 -0.6632  1.0447 -1.7296
  546MOL0     H72046   6.045   4.901  11.549  1.1550 -0.3034  1.3327
  546MOL0     H72047   5.900   4.788  11.539  1.5916 -2.3208 -1.0542
  546MOL0     H72048   5.971   4.663  11.731  0.9514  0.2063  0.7996
  546MOL0     H72049   6.113   4.769  11.755  0.2412 -0.3842  0.3144
  546MOL0     H72050   6.165   4.534  11.639  0.1080 -1.1259 -0.6500
  546MOL0     H72051   6.063   4.581  11.518  2.1842 -1.2092 -0.7307
  546MOL0     H72052   6.299   4.757  11.592  2.1658  0.4996 -1.2582
  546MOL0     H72053   6.189   4.749  11.439 -0.1174 -1.0178  0.7308
  546MOL0     H72054   5.394   5.306  11.566 -1.2946  1.0896 -1.5909
  546MOL0     H72055   5.273   5.515  11.511 -0.7906  2.3937  0.2860
  546MOL0     H72056   5.269   6.001  11.608  0.1619  0.0353  0.4315
  546MOL0     H72057   5.164   6.197  11.544  1.6309 -0.2268  1.1476
  546MOL0     H72058   6.026   6.278  11.296  0.3520 -2.0868 -2.3194
  546MOL0     H72059   6.194   6.121  11.273 -0.6192  0.5098 -0.5909
  546MOL0     H72060   6.477   5.798  11.103  0.1163  0.5268  0.1575
  546MOL0     H72061   6.687   5.661  11.087  1.9705  0.1341 -0.7304
  546MOL0     H72062   7.116   5.724  11.158  0.6108 -0.2464 -1.7225
  546MOL0     H72063   7.035   5.879  11.204 -1.6721  1.1172 -1.1850
  546MOL0     H72064   7.039   5.897  10.925 -3.1888  0.6699  2.7652
  546MOL0     H72065   7.127   5.996  11.055  4.3030 -0.5198  0.5402
  546MOL0     H72066   7.232   5.747  10.918  0.6345 -1.3353  2.3901
  546MOL0     H72067   7.295   5.818  11.060  0.3395  1.7496  0.6028
  546MOL0     H72068   7.275   5.938  10.781 -2.0806  2.6921  0.3343
  546MOL0     H72069   7.296   6.038  10.931  0.5017 -0.8929  1.9666
  546MOL0     H72070   7.689   5.887  10.879 -0.1431 -1.4793  0.7542
  546MOL0     H72071   6.906   6.029  11.096  1.3270 -0.6753 -0.3789
  546MOL0     H72072   6.714   6.152  11.139 -0.8294  1.0717  0.4903
  547MOL0     O72073  11.046  10.116   9.646 -0.1795  0.0329 -0.4688
  547MOL0     C72074  11.081  10.224   9.601 -0.4444  0.6792  0.7273
  547MOL0     O72075  11.204  10.255   9.578 -0.8722  0.3660  0.1360
  547MOL0     C72076  11.308  10.169   9.613 -0.8497 -0.1673 -0.0487
  547MOL0     C72077  11.321  10.030   9.639 -0.6055  0.2537  0.6767
  547MOL0     C72078  11.450   9.974   9.657  0.0580 -0.5263 -0.2960
  547MOL0     C72079  11.568  10.049   9.674 -0.1870  1.1402  0.5976
  547MOL0     O72080  11.688   9.986   9.698 -0.4775 -0.2148 -0.4133
  547MOL0     C72081  11.795  10.069   9.754  0.4795 -0.9034 -0.0137
  547MOL0     C72082  11.921   9.999   9.806  0.2043  0.4398  0.0199
  547MOL0     C72083  11.981   9.917   9.690 -1.1279  0.1993 -0.3272
  547MOL0     C72084  12.040  10.014   9.588  0.4461  0.6682 -0.4418
  547MOL0     C72085  12.068   9.946   9.452  0.3060  0.6516 -0.4104
  547MOL0     C72086  11.955   9.869   9.391  1.9581 -0.4734 -0.2189
  547MOL0     C72087  11.834   9.959   9.356  0.6025  0.2815  0.1738
  547MOL0     C72088  11.722   9.861   9.317  0.3240  0.2855  0.3149
  547MOL0     N72089  11.624   9.932   9.228 -0.6571  0.6158 -0.0469
  547MOL0     C72090  11.553  10.046   9.250  0.5832 -0.7437  0.1851
  547MOL0     C72091  11.472  10.060   9.143  0.0498  0.1430  0.7560
  547MOL0     C72092  11.379  10.169   9.127  0.7871  0.1221 -0.3300
  547MOL0     C72093  11.279  10.137   9.237  0.3517  0.7898 -0.2886
  547MOL0     C72094  11.176  10.252   9.225  0.3667  0.6801  0.0914
  547MOL0     C72095  11.070  10.240   9.119 -0.6247 -0.0642  0.3700
  547MOL0     O72096  10.978  10.348   9.155  0.0462 -0.9105  0.8261
  547MOL0     C72097  10.841  10.322   9.152  0.1882 -0.2847  0.3066
  547MOL0     C72098  10.760  10.438   9.162  0.6425  0.4126  1.0950
  547MOL0     C72099  10.621  10.426   9.139 -0.8919 -0.6782 -0.0207
  547MOL0     C72100  10.560  10.298   9.112  0.4928  0.4451  0.5404
  547MOL0     C72101  10.411  10.288   9.093  0.0214  0.5974  0.1595
  547MOL0     O72102  10.343  10.389   9.029 -0.8313  0.1649  0.2140
  547MOL0     C72103  10.203  10.380   8.997 -0.5950 -0.1962 -0.3556
  547MOL0     C72104  10.105  10.452   9.071 -0.4967 -0.4066 -0.4363
  547MOL0     C72105   9.973  10.440   9.048  0.2359 -0.4628  1.5386
  547MOL0     C72106   9.927  10.354   8.938  0.2060 -0.6148  0.1031
  547MOL0     O72107   9.793  10.353   8.918  0.8856  0.1059 -0.2159
  547MOL0     C72108   9.751  10.320   8.782 -0.0977 -0.5217  0.2347
  547MOL0     C72109   9.606  10.360   8.763  0.4734  0.5055 -0.4301
  547MOL0     C72110   9.581  10.507   8.793  0.1760  0.3566 -0.4272
  547MOL0     C72111   9.440  10.547   8.743  0.4090 -0.4118 -0.4582
  547MOL0     C72112   9.405  10.694   8.792 -1.5318  0.3018  0.9550
  547MOL0     C72113   9.254  10.730   8.795 -0.2571 -0.3978  0.1336
  547MOL0     C72114   9.208  10.763   8.653  0.2391 -0.2456  0.1803
  547MOL0     C72115   9.068  10.816   8.636 -0.1033 -0.9247  0.1058
  547MOL0    Cl72116   9.052  10.984   8.701 -0.3400 -0.0141  0.4853
  547MOL0     C72117  10.020  10.273   8.879  0.2540 -0.1642  1.2813
  547MOL0     C72118  10.153  10.279   8.913 -0.2478  0.1318 -0.3623
  547MOL0     O72119  10.358  10.185   9.130  0.3651 -0.3020  0.3005
  547MOL0     C72120  10.641  10.182   9.120  0.2752  0.2717  0.3980
  547MOL0     C72121  10.783  10.198   9.136  0.1001  0.3301 -0.4335
  547MOL0     N72122  11.496   9.954   9.058  0.5294 -0.4064 -0.8162
  547MOL0     N72123  11.600   9.895   9.101  0.6799 -0.9785  0.1523
  547MOL0     C72124  11.548  10.192   9.658 -0.5221  0.2232  0.9959
  547MOL0     C72125  11.425  10.244   9.623  0.1905 -0.3938  0.1833
  547MOL0     C72126  10.968  10.317   9.564  0.6808  0.5220 -0.0817
  547MOL0     C72127  10.994  10.439   9.507 -0.5034 -0.2051  0.6579
  547MOL0     C72128  10.883  10.530   9.475 -0.3284 -0.3076 -0.0302
  547MOL0     C72129  10.747  10.489   9.501  0.5623 -0.5021  0.3223
  547MOL0     O72130  10.645  10.570   9.461 -0.3381 -0.3109  0.3113
  547MOL0     C72131  10.511  10.521   9.461 -0.5697  0.3231  0.8520
  547MOL0     C72132  10.417  10.620   9.411  0.1450 -0.9743 -0.0542
  547MOL0     C72133  10.266  10.583   9.435  0.1648  0.9774  0.3103
  547MOL0     C72134  10.159  10.682   9.375  0.6867  0.9420  0.2853
  547MOL0     C72135  10.156  10.805   9.454  0.2617  0.0994 -0.2720
  547MOL0     C72136  10.164  10.895   9.526 -0.8583 -0.6389 -0.1677
  547MOL0     C72137  10.730  10.366   9.560 -0.4605 -0.3452 -0.4753
  547MOL0     C72138  10.832  10.276   9.582 -0.7282 -0.4482  0.5019
  547MOL0     H72139  11.238   9.961   9.641 -0.8982  0.6218  2.7014
  547MOL0     H72140  11.462   9.867   9.673 -1.7863 -0.7196  0.0070
  547MOL0     H72141  11.758  10.117   9.845 -0.9488 -1.0347 -0.4970
  547MOL0     H72142  11.825  10.149   9.685 -1.3038  0.3321  0.5847
  547MOL0     H72143  11.889   9.929   9.884  2.3594 -0.8082 -0.1346
  547MOL0     H72144  11.997  10.070   9.841 -0.4173  1.8864 -1.4326
  547MOL0     H72145  11.901   9.856   9.647 -0.6910  0.5149 -1.6335
  547MOL0     H72146  12.066   9.852   9.715  1.0941  3.2409  0.6185
  547MOL0     H72147  11.973  10.098   9.567 -1.6945 -0.8700 -0.0938
  547MOL0     H72148  12.130  10.063   9.627 -0.1678  1.6526 -0.2363
  547MOL0     H72149  12.151   9.882   9.483 -0.9237 -0.4716  0.6242
  547MOL0     H72150  12.100  10.027   9.385 -1.1529  0.3643 -1.5118
  547MOL0     H72151  11.914   9.793   9.458 -2.6110  0.6914 -1.3537
  547MOL0     H72152  11.988   9.821   9.299  0.9006  0.6418 -1.2222
  547MOL0     H72153  11.800  10.032   9.430 -0.5273 -0.8885  0.8639
  547MOL0     H72154  11.861  10.014   9.266 -0.7605  0.1830 -0.3245
  547MOL0     H72155  11.683   9.838   9.416 -2.6514  0.9704 -0.5843
  547MOL0     H72156  11.749   9.763   9.276  0.6508  0.4711  0.0823
  547MOL0     H72157  11.552  10.116   9.333 -4.0794 -1.6628  1.1545
  547MOL0     H72158  11.321  10.158   9.034 -2.5017  1.5886  1.3822
  547MOL0     H72159  11.430  10.265   9.127  3.3007 -1.0359 -3.1704
  547MOL0     H72160  11.328  10.150   9.334 -1.8720  0.1741  0.9835
  547MOL0     H72161  11.239  10.035   9.234  2.0910  0.0351  0.4139
  547MOL0     H72162  11.119  10.248   9.318  1.6389  0.0050  0.8606
  547MOL0     H72163  11.215  10.353   9.207  0.7266  0.6863  0.8906
  547MOL0     H72164  11.030  10.138   9.121  1.6593 -1.1068 -1.7207
  547MOL0     H72165  11.105  10.253   9.017  0.9599 -0.1014  0.8867
  547MOL0     H72166  10.805  10.537   9.162  1.0883  0.2142  1.2022
  547MOL0     H72167  10.567  10.519   9.125  1.4942  0.5703 -1.4475
  547MOL0     H72168  10.150  10.512   9.149 -0.5179 -0.4146 -0.4178
  547MOL0     H72169   9.905  10.485   9.119 -0.6721 -1.1118  1.0984
  547MOL0     H72170   9.756  10.212   8.768  1.7421 -0.7888  2.3721
  547MOL0     H72171   9.812  10.374   8.708 -1.0738  2.1876  1.2890
  547MOL0     H72172   9.542  10.296   8.824 -1.8201  0.7699 -2.4041
  547MOL0     H72173   9.590  10.345   8.656 -0.2778 -1.4754 -0.0696
  547MOL0     H72174   9.656  10.561   8.735  0.2668  2.9354  1.8986
  547MOL0     H72175   9.595  10.522   8.900  0.6696  0.5901 -0.5228
  547MOL0     H72176   9.434  10.534   8.635  0.2609 -1.0667 -0.3772
  547MOL0     H72177   9.368  10.487   8.800  0.2551 -0.7416 -0.9907
  547MOL0     H72178   9.461  10.770   8.736 -1.3246 -1.1235 -0.8766
  547MOL0     H72179   9.436  10.696   8.897 -0.4175  1.2061  0.6335
  547MOL0     H72180   9.249  10.828   8.842 -0.0525 -0.5008  0.3734
  547MOL0     H72181   9.196  10.657   8.854  0.6908 -0.6540  0.7868
  547MOL0     H72182   9.276  10.832   8.602 -1.1739 -0.1007 -1.5848
  547MOL0     H72183   9.216  10.680   8.583  0.2895  0.4365 -0.6482
  547MOL0     H72184   8.996  10.751   8.686 -0.6866 -0.7218 -0.4677
  547MOL0     H72185   9.045  10.804   8.530 -0.2289  0.3873 -0.0247
  547MOL0     H72186   9.983  10.195   8.813  2.4221 -1.0471  1.0396
  547MOL0     H72187  10.225  10.208   8.873  1.2633  1.9860 -1.1619
  547MOL0     H72188  10.603  10.086   9.087 -0.7948  0.7190  0.3037
  547MOL0     H72189  10.845  10.110   9.148 -1.1643 -0.2886  2.2551
  547MOL0     H72190  11.628  10.259   9.690  1.9532 -1.5487 -1.0779
  547MOL0     H72191  11.414  10.351   9.605  0.7779 -0.5529 -1.2411
  547MOL0     H72192  11.091  10.478   9.477 -1.0577  1.2880  0.7004
  547MOL0     H72193  10.899  10.621   9.418 -2.9137  0.2817  0.1001
  547MOL0     H72194  10.479  10.471   9.552 -1.4868 -3.0326 -1.1298
  547MOL0     H72195  10.522  10.442   9.386 -0.4085  1.2105 -0.0938
  547MOL0     H72196  10.454  10.704   9.470 -0.0736  0.5681 -2.0269
  547MOL0     H72197  10.439  10.627   9.304 -1.3219  0.9965 -0.2736
  547MOL0     H72198  10.244  10.548   9.536 -1.2975  1.0591  0.0443
  547MOL0     H72199  10.259  10.493   9.373  0.3209  0.0443  1.6101
  547MOL0     H72200  10.196  10.696   9.273  0.3357 -1.6989 -0.2723
  547MOL0     H72201  10.054  10.651   9.371  0.1337  2.7782 -1.7799
  547MOL0     H72202  10.186  10.978   9.591 -0.7391 -2.6803  2.5903
  547MOL0     H72203  10.631  10.324   9.573 -0.6690  0.2217 -0.2132
  547MOL0     H72204  10.815  10.176   9.621 -2.2374  0.0009  1.0359
  548MOL0     O72205   2.561   8.792   0.075 -0.0238 -0.3543 -0.1826
  548MOL0     C72206   2.559   8.914   0.115  0.0380  0.5029  0.6247
  548MOL0     O72207   2.454   9.000   0.113  0.9174  0.1761 -0.2061
  548MOL0     C72208   2.341   8.943   0.087 -0.5070  0.6691  0.5520
  548MOL0     C72209   2.259   9.001  -0.011  0.2389  0.0139 -0.3738
  548MOL0     C72210   2.129   8.947  -0.034  0.1678  0.2061  0.4457
  548MOL0     C72211   2.078   8.850   0.048  0.0456 -0.3766  0.9000
  548MOL0     O72212   1.951   8.808   0.022 -0.6715  0.1580 -0.7501
  548MOL0     C72213   1.938   8.657   0.000 -0.2089 -0.1953 -0.1632
  548MOL0     C72214   1.797   8.616  -0.004  0.1943 -0.2173  0.4004
  548MOL0     C72215   1.737   8.697  -0.120 -0.8354  0.3455 -0.1698
  548MOL0     C72216   1.609   8.627  -0.157 -0.0566 -0.8298 -0.7300
  548MOL0     C72217   1.557   8.686  -0.286  0.2177 -0.0285  0.0722
  548MOL0     C72218   1.419   8.633  -0.331 -0.0778 -0.2395 -0.1683
  548MOL0     C72219   1.384   8.690  -0.471 -0.4056  0.9863 -0.5429
  548MOL0     C72220   1.270   8.610  -0.529  0.0207 -0.6845  0.5449
  548MOL0     N72221   1.234   8.652  -0.672 -1.0646  0.5183 -0.3212
  548MOL0     C72222   1.169   8.769  -0.703 -0.0007 -0.7044 -0.8253
  548MOL0     C72223   1.191   8.779  -0.839  0.0704 -0.3903 -0.1114
  548MOL0     C72224   1.162   8.909  -0.901  0.1192  1.0499  0.3225
  548MOL0     C72225   1.259   9.019  -0.847  0.1568 -0.0534 -1.1933
  548MOL0     C72226   1.267   9.143  -0.938 -0.5160 -0.0227 -0.2298
  548MOL0     C72227   1.150   9.230  -0.936  0.4334 -0.3270  0.1798
  548MOL0     O72228   1.152   9.310  -0.816 -0.5825 -0.1049  0.5160
  548MOL0     C72229   1.057   9.406  -0.800 -0.8240  0.0463  0.0594
  548MOL0     C72230   1.083   9.495  -0.693  0.5561 -0.8890 -0.0391
  548MOL0     C72231   0.984   9.575  -0.640  0.0056 -0.0666  0.5889
  548MOL0     C72232   0.859   9.564  -0.699  0.1102  0.0430 -0.8134
  548MOL0     C72233   0.744   9.646  -0.655 -0.6728  0.7565 -0.5252
  548MOL0     O72234   0.773   9.722  -0.542 -0.5219 -0.0291  0.5362
  548MOL0     C72235   0.693   9.825  -0.528  0.4042 -0.3158  0.0396
  548MOL0     C72236   0.722   9.946  -0.589 -0.0824  0.1811 -0.7755
  548MOL0     C72237   0.636  10.054  -0.567 -0.4808  0.7521 -0.2511
  548MOL0     C72238   0.519  10.039  -0.495 -0.2146 -0.5220 -1.0943
  548MOL0     O72239   0.444  10.157  -0.486  0.9308  0.1838 -0.6502
  548MOL0     C72240   0.310  10.144  -0.434  0.8801 -0.8326 -0.1146
  548MOL0     C72241   0.235  10.283  -0.446  1.1656  0.4764 -0.5257
  548MOL0     C72242   0.084  10.251  -0.424 -1.0088  0.3830  0.3075
  548MOL0     C72243   0.003  10.373  -0.465 -0.0183 -0.7965 -0.1007
  548MOL0     C72244  -0.141  10.383  -0.409  0.7285 -0.2605 -0.6333
  548MOL0     C72245  -0.210  10.509  -0.471  0.2733  1.5185 -0.0956
  548MOL0     C72246  -0.337  10.532  -0.384  0.0795 -0.2476 -0.5999
  548MOL0     C72247  -0.412  10.650  -0.437 -0.2712 -0.4573 -0.2681
  548MOL0    Cl72248  -0.476  10.651  -0.613 -0.2743  0.2059  0.1810
  548MOL0     C72249   0.482   9.915  -0.443  0.4266 -0.2363 -0.6229
  548MOL0     C72250   0.569   9.808  -0.458 -0.3575  0.0415 -0.7595
  548MOL0     O72251   0.639   9.658  -0.722 -0.2319  0.3504  0.4695
  548MOL0     C72252   0.831   9.481  -0.812 -0.7607  0.6958 -0.0248
  548MOL0     C72253   0.932   9.402  -0.858  0.1588 -0.3063  0.4609
  548MOL0     N72254   1.266   8.670  -0.881 -0.9361  0.3123  0.1649
  548MOL0     N72255   1.284   8.591  -0.785 -0.4129  0.0294 -0.4156
  548MOL0     C72256   2.159   8.795   0.155 -0.0301 -0.5249 -0.0042
  548MOL0     C72257   2.298   8.834   0.168  0.9397  0.3811  0.4175
  548MOL0     C72258   2.689   8.944   0.179  0.4780 -0.0158 -0.6369
  548MOL0     C72259   2.804   8.853   0.191  0.0301  0.2886  0.8696
  548MOL0     C72260   2.928   8.886   0.248  0.2658  0.6392  0.0111
  548MOL0     C72261   2.950   9.016   0.292  0.3248  0.4040  0.3549
  548MOL0     O72262   3.071   9.051   0.338  0.1085 -0.2143  0.2988
  548MOL0     C72263   3.097   8.973   0.462  0.3979 -0.5947  0.3133
  548MOL0     C72264   3.237   9.021   0.509  0.1373  0.5807  0.3758
  548MOL0     C72265   3.347   8.999   0.409  0.1947  0.8547 -0.0926
  548MOL0     C72266   3.471   9.065   0.464  0.2091 -0.1303 -0.3133
  548MOL0     C72267   3.588   9.015   0.398 -1.0131  0.6152 -0.2784
  548MOL0     C72268   3.692   8.986   0.350 -0.3500 -0.3997  0.1916
  548MOL0     C72269   2.845   9.102   0.286  0.1931  0.4514  0.9685
  548MOL0     C72270   2.718   9.071   0.234 -0.6833 -0.7367  1.2342
  548MOL0     H72271   2.281   9.084  -0.077 -0.4601  1.6774  1.3780
  548MOL0     H72272   2.065   8.978  -0.116  0.6514  3.3931  1.1548
  548MOL0     H72273   1.984   8.596   0.079  1.5529  0.9479 -0.2753
  548MOL0     H72274   1.994   8.623  -0.087  0.7751 -2.2991  1.1891
  548MOL0     H72275   1.757   8.641   0.094  1.0924  0.9158  0.5043
  548MOL0     H72276   1.794   8.510  -0.032 -2.5003 -0.3967  1.0570
  548MOL0     H72277   1.808   8.689  -0.203 -0.5822  1.3092 -0.0683
  548MOL0     H72278   1.721   8.801  -0.091  1.0193  0.0264  2.3563
  548MOL0     H72279   1.614   8.518  -0.169 -0.9028 -0.8120 -1.3724
  548MOL0     H72280   1.540   8.662  -0.080 -0.1652 -2.7655  0.0982
  548MOL0     H72281   1.631   8.650  -0.357 -0.0576  1.6321 -1.1169
  548MOL0     H72282   1.550   8.795  -0.284  1.1423  0.0497  1.9333
  548MOL0     H72283   1.348   8.678  -0.262  1.7030  0.9985  0.9395
  548MOL0     H72284   1.422   8.524  -0.337 -1.4125 -0.3384  0.5908
  548MOL0     H72285   1.361   8.796  -0.451 -0.3383  0.8749  0.1790
  548MOL0     H72286   1.474   8.689  -0.533  0.5008 -1.0297  0.7026
  548MOL0     H72287   1.191   8.627  -0.455 -1.7425 -0.7991 -1.2364
  548MOL0     H72288   1.305   8.507  -0.528  2.4017  0.0524 -0.1938
  548MOL0     H72289   1.115   8.826  -0.628 -0.0072 -1.4138 -0.2798
  548MOL0     H72290   1.054   8.926  -0.889 -0.4789 -2.6141  1.3160
  548MOL0     H72291   1.175   8.900  -1.009  5.7101 -0.8120  0.8513
  548MOL0     H72292   1.360   8.979  -0.835 -0.5644 -2.1679 -1.8142
  548MOL0     H72293   1.220   9.047  -0.749 -0.6125  1.8928 -1.9968
  548MOL0     H72294   1.351   9.198  -0.893 -1.5260  0.9200  0.5395
  548MOL0     H72295   1.288   9.097  -1.035  1.3133 -0.1009  0.1613
  548MOL0     H72296   1.057   9.174  -0.935  0.0122  0.3477 -0.5027
  548MOL0     H72297   1.158   9.295  -1.024 -1.3656 -0.2960  0.0039
  548MOL0     H72298   1.178   9.509  -0.643 -1.4241  2.4999  3.2224
  548MOL0     H72299   1.006   9.643  -0.558 -2.2896 -1.7065  2.6798
  548MOL0     H72300   0.814   9.947  -0.648 -0.5715 -0.0457 -1.5557
  548MOL0     H72301   0.668  10.145  -0.617  2.7055  0.6104  1.2701
  548MOL0     H72302   0.300  10.101  -0.334 -2.6532  1.9104  0.9141
  548MOL0     H72303   0.246  10.083  -0.498  0.3617  1.6416 -2.0818
  548MOL0     H72304   0.244  10.331  -0.544 -4.5665  1.0248 -1.1478
  548MOL0     H72305   0.269  10.353  -0.369  0.0106  2.0878 -1.4190
  548MOL0     H72306   0.060  10.215  -0.324  0.5573 -2.6426 -0.2644
  548MOL0     H72307   0.061  10.179  -0.503 -0.0303  3.1200 -2.6698
  548MOL0     H72308   0.064  10.459  -0.436  1.6780 -1.3874 -1.6687
  548MOL0     H72309  -0.006  10.362  -0.573  3.5096  0.8539 -0.6933
  548MOL0     H72310  -0.116  10.391  -0.303 -0.6538 -2.7018 -0.0694
  548MOL0     H72311  -0.200  10.293  -0.427 -3.2889  1.9657  0.1379
  548MOL0     H72312  -0.234  10.496  -0.576  0.6922 -0.6289  0.0286
  548MOL0     H72313  -0.140  10.592  -0.457  0.0109  1.6922  0.1699
  548MOL0     H72314  -0.398  10.442  -0.395 -2.6114  1.5087 -0.6799
  548MOL0     H72315  -0.296  10.552  -0.284  0.5734 -2.5398 -0.2741
  548MOL0     H72316  -0.346  10.738  -0.438  2.9974 -2.7454 -0.7239
  548MOL0     H72317  -0.502  10.669  -0.378 -1.1337 -0.6030 -1.4814
  548MOL0     H72318   0.383   9.907  -0.398  0.7766 -0.4516  0.1258
  548MOL0     H72319   0.535   9.708  -0.430 -0.6934 -0.7365 -3.5750
  548MOL0     H72320   0.733   9.479  -0.859  0.4492  0.4694 -2.7707
  548MOL0     H72321   0.907   9.328  -0.934 -1.8009 -1.2158  1.9192
  548MOL0     H72322   2.118   8.714   0.213 -1.1364  0.5487  0.7703
  548MOL0     H72323   2.347   8.780   0.248 -1.1831 -3.5706 -0.6602
  548MOL0     H72324   2.801   8.757   0.140 -0.2467  0.2117  1.0275
  548MOL0     H72325   3.008   8.812   0.251  1.7616  2.0991 -1.4504
  548MOL0     H72326   3.100   8.870   0.424 -1.1362  0.0932 -1.8677
  548MOL0     H72327   3.016   9.001   0.530 -1.1480 -2.2748 -0.7197
  548MOL0     H72328   3.237   9.127   0.533  0.9686  0.6217  0.2160
  548MOL0     H72329   3.257   8.959   0.598 -0.2056 -0.8769 -0.5192
  548MOL0     H72330   3.328   9.053   0.316  1.5016  1.1927 -0.1879
  548MOL0     H72331   3.357   8.891   0.398 -1.6508  0.6925 -0.4703
  548MOL0     H72332   3.466   9.174   0.452  3.5923  0.3068  1.2653
  548MOL0     H72333   3.489   9.044   0.570 -1.5340 -0.5424 -0.0661
  548MOL0     H72334   3.794   8.971   0.320 -0.9671 -0.8978 -1.8305
  548MOL0     H72335   2.869   9.207   0.302 -0.2656  1.1088 -1.9487
  548MOL0     H72336   2.649   9.155   0.231 -1.2118 -1.1719 -1.1166
  549MOL0     O72337   8.357   6.781   5.605  0.4031  0.2757 -0.2618
  549MOL0     C72338   8.448   6.784   5.684  0.4665 -0.0834  1.0651
  549MOL0     O72339   8.440   6.787   5.814 -0.2833  0.0924  0.1825
  549MOL0     C72340   8.313   6.757   5.865  0.8399 -0.3268  0.1207
  549MOL0     C72341   8.255   6.628   5.854 -0.0655  0.0512 -0.1599
  549MOL0     C72342   8.137   6.594   5.916  1.0663 -0.8151  0.2912
  549MOL0     C72343   8.061   6.694   5.974  0.2080  0.1154 -0.8701
  549MOL0     O72344   7.929   6.662   6.010 -0.3025 -0.4040 -0.4748
  549MOL0     C72345   7.821   6.760   5.982  0.1607 -0.4851  0.3118
  549MOL0     C72346   7.680   6.728   6.032  0.4036  0.9979 -0.2237
  549MOL0     C72347   7.589   6.844   6.021 -1.1413  0.0536  0.4079
  549MOL0     C72348   7.456   6.821   6.080  0.7419 -0.0854  0.0679
  549MOL0     C72349   7.367   6.934   6.034  0.4211 -0.7878 -0.9948
  549MOL0     C72350   7.226   6.921   6.088 -0.0180 -0.2704  0.2003
  549MOL0     C72351   7.125   7.014   6.013 -0.0520 -0.3555 -0.2833
  549MOL0     C72352   6.991   6.996   6.074 -0.4556 -0.3108 -0.1692
  549MOL0     N72353   6.880   7.041   5.997  0.1606  0.0690  0.8350
  549MOL0     C72354   6.851   7.006   5.864  0.5032 -0.2586 -0.2280
  549MOL0     C72355   6.729   7.071   5.838 -0.4019 -0.3302 -0.3411
  549MOL0     C72356   6.649   7.057   5.712  0.6512  0.1127  0.6501
  549MOL0     C72357   6.501   7.009   5.746 -0.3874  0.1357  0.4089
  549MOL0     C72358   6.404   7.050   5.633  0.5347 -0.6327  0.2080
  549MOL0     C72359   6.265   7.001   5.661 -0.5795  0.0496  0.7495
  549MOL0     O72360   6.232   7.045   5.799  0.2477  0.1736  0.3285
  549MOL0     C72361   6.141   6.960   5.859 -0.7809  0.9885 -0.1729
  549MOL0     C72362   6.172   6.920   5.986 -0.4638  0.7296  0.4553
  549MOL0     C72363   6.070   6.862   6.074  0.1077 -0.8082  0.3416
  549MOL0     C72364   5.937   6.858   6.026  0.6037  0.0668  0.1284
  549MOL0     C72365   5.836   6.789   6.112 -0.5014 -0.7271 -0.2606
  549MOL0     O72366   5.714   6.781   6.066  0.2013 -0.3587 -0.0595
  549MOL0     C72367   5.604   6.764   6.155 -0.3266 -0.8307  0.1827
  549MOL0     C72368   5.498   6.684   6.119 -0.1472  0.2837  1.0102
  549MOL0     C72369   5.389   6.667   6.202 -0.5861 -0.6797  0.7603
  549MOL0     C72370   5.385   6.746   6.320 -0.2797 -0.1042  0.6165
  549MOL0     O72371   5.287   6.719   6.413 -0.2448 -0.2847 -0.0623
  549MOL0     C72372   5.166   6.786   6.382 -0.0181  0.5378 -0.4232
  549MOL0     C72373   5.048   6.693   6.337  0.3359  0.7512  0.2062
  549MOL0     C72374   4.917   6.771   6.328 -0.4664  0.1583  0.8902
  549MOL0     C72375   4.799   6.666   6.303 -0.6393 -0.8787  0.4366
  549MOL0     C72376   4.661   6.729   6.321 -0.7107 -0.1113 -0.2651
  549MOL0     C72377   4.563   6.616   6.312 -0.1317  0.4416 -0.5664
  549MOL0     C72378   4.420   6.652   6.311  0.0237  0.7367  0.0452
  549MOL0     C72379   4.346   6.514   6.312 -0.2827 -0.0063 -0.1244
  549MOL0    Cl72380   4.183   6.539   6.375  0.5033 -0.1415  0.0057
  549MOL0     C72381   5.481   6.836   6.354  1.4475  0.3835  0.5074
  549MOL0     C72382   5.595   6.845   6.267  1.2181  0.2744 -0.1453
  549MOL0     O72383   5.877   6.771   6.224  0.6533 -0.7607 -0.3049
  549MOL0     C72384   5.910   6.911   5.894  0.2736  0.5676 -0.1206
  549MOL0     C72385   6.016   6.944   5.803  0.1308 -0.3375  0.7228
  549MOL0     N72386   6.707   7.159   5.953  0.6013  0.4891  0.4282
  549MOL0     N72387   6.791   7.128   6.047  0.1165 -0.1107  0.3729
  549MOL0     C72388   8.105   6.830   5.973 -0.3526  0.7304  0.0153
  549MOL0     C72389   8.235   6.851   5.931 -0.4028 -0.7779  0.2192
  549MOL0     C72390   8.582   6.798   5.627  0.5257 -0.1520 -0.1130
  549MOL0     C72391   8.690   6.780   5.716 -0.3416 -0.2974 -0.9613
  549MOL0     C72392   8.820   6.790   5.670  0.4950 -0.5591  1.0556
  549MOL0     C72393   8.839   6.839   5.535  0.5782 -0.2025 -0.6637
  549MOL0     O72394   8.964   6.874   5.495  0.0708 -0.0958 -0.4225
  549MOL0     C72395   9.080   6.822   5.550 -0.0314  0.3458  0.3598
  549MOL0     C72396   9.098   6.686   5.494 -0.2426 -0.1371  0.1487
  549MOL0     C72397   9.208   6.607   5.553  0.0240 -0.1999 -0.5444
  549MOL0     C72398   9.165   6.499   5.659  0.8447  0.2844  0.9016
  549MOL0     C72399   9.117   6.565   5.781 -0.9134  0.7258  0.1576
  549MOL0     C72400   9.098   6.642   5.874 -0.3658  0.3224 -0.9223
  549MOL0     C72401   8.733   6.871   5.454  0.5213 -0.7802  0.0682
  549MOL0     C72402   8.602   6.838   5.499  0.6664  0.1455  0.3352
  549MOL0     H72403   8.309   6.554   5.795  0.3092  1.1347 -1.2214
  549MOL0     H72404   8.102   6.492   5.908 -1.2711 -0.1910  1.6935
  549MOL0     H72405   7.811   6.775   5.874  0.6280 -1.6688  0.0853
  549MOL0     H72406   7.858   6.852   6.028  0.2961 -0.3747 -0.0208
  549MOL0     H72407   7.685   6.698   6.137  0.3561  1.5561 -0.0624
  549MOL0     H72408   7.636   6.646   5.974  0.2347  0.4820  0.6054
  549MOL0     H72409   7.568   6.858   5.914  1.9412 -0.8733 -0.4172
  549MOL0     H72410   7.637   6.936   6.057 -1.1401  0.6760 -1.1198
  549MOL0     H72411   7.421   6.725   6.044 -1.8961  1.2085 -1.0514
  549MOL0     H72412   7.465   6.826   6.189  1.3832  0.3530  0.0048
  549MOL0     H72413   7.350   6.911   5.928 -2.2242 -1.3468 -0.5384
  549MOL0     H72414   7.401   7.038   6.046 -0.9125 -0.3228 -1.0039
  549MOL0     H72415   7.220   6.940   6.195 -1.0297  1.4521 -0.1350
  549MOL0     H72416   7.188   6.818   6.087  0.8442 -0.7980  4.2564
  549MOL0     H72417   7.153   7.118   6.029  0.5501 -0.7009  0.9859
  549MOL0     H72418   7.117   6.989   5.906  0.3880 -2.9349  0.2167
  549MOL0     H72419   6.996   7.050   6.169 -4.8679 -0.8338  0.5733
  549MOL0     H72420   6.965   6.893   6.098 -0.8112 -0.8697 -2.6765
  549MOL0     H72421   6.904   6.937   5.799 -0.7944 -1.4376 -0.0818
  549MOL0     H72422   6.693   6.993   5.635 -0.3190  1.3691 -1.0282
  549MOL0     H72423   6.648   7.155   5.663 -1.4936 -0.2343 -0.1259
  549MOL0     H72424   6.468   7.068   5.832 -0.3813  1.0159 -0.1829
  549MOL0     H72425   6.494   6.904   5.777 -2.3760  0.9793  3.1996
  549MOL0     H72426   6.407   7.159   5.635  2.2797 -0.6416 -0.1461
  549MOL0     H72427   6.441   7.030   5.533 -2.8483 -1.9145 -0.9442
  549MOL0     H72428   6.254   6.894   5.638 -0.0588  0.6734 -3.1729
  549MOL0     H72429   6.201   7.047   5.585  0.4602 -0.2434 -0.3398
  549MOL0     H72430   6.271   6.929   6.029  0.6483 -0.4288 -1.7135
  549MOL0     H72431   6.111   6.826   6.168  0.2736 -1.8184 -0.1113
  549MOL0     H72432   5.515   6.620   6.033  0.0925  1.4442  0.1766
  549MOL0     H72433   5.305   6.598   6.192  0.5260 -2.0798  0.8319
  549MOL0     H72434   5.173   6.862   6.303 -0.9438  0.2873 -0.7570
  549MOL0     H72435   5.129   6.831   6.475 -1.5341 -2.5827  0.6439
  549MOL0     H72436   5.050   6.618   6.416  1.4641  1.1585  0.5808
  549MOL0     H72437   5.073   6.645   6.241 -0.5772  0.1966  0.2300
  549MOL0     H72438   4.928   6.850   6.254 -0.3922  0.8267  1.6016
  549MOL0     H72439   4.884   6.829   6.415 -1.9092  4.1809 -2.0216
  549MOL0     H72440   4.804   6.629   6.200 -2.8093 -0.9477  0.3175
  549MOL0     H72441   4.817   6.585   6.375 -0.5706  0.6899  2.2557
  549MOL0     H72442   4.637   6.801   6.242  0.1706 -1.2571 -1.6213
  549MOL0     H72443   4.659   6.776   6.420  1.5256 -1.1118  0.3208
  549MOL0     H72444   4.587   6.542   6.389 -1.7152  1.0237  0.5501
  549MOL0     H72445   4.585   6.564   6.218 -1.8619 -2.1799  0.3575
  549MOL0     H72446   4.397   6.704   6.405 -1.8695  0.6790 -0.3473
  549MOL0     H72447   4.398   6.721   6.229  0.8279 -1.6653 -2.3148
  549MOL0     H72448   4.395   6.431   6.365 -1.1733  0.0476  0.8085
  549MOL0     H72449   4.323   6.480   6.211 -0.8241 -0.1494  0.0437
  549MOL0     H72450   5.467   6.893   6.445 -4.2550  1.4390 -0.6507
  549MOL0     H72451   5.661   6.930   6.281  1.6771 -0.1158  0.0591
  549MOL0     H72452   5.808   6.919   5.859  0.5905 -0.5454 -1.3684
  549MOL0     H72453   5.983   6.985   5.709 -0.0018  0.2833  1.0345
  549MOL0     H72454   8.053   6.909   6.026  0.5288  1.9449 -0.8620
  549MOL0     H72455   8.281   6.949   5.930  0.2278 -1.0772 -0.6224
  549MOL0     H72456   8.672   6.760   5.821  1.3725  1.3593 -0.2858
  549MOL0     H72457   8.896   6.771   5.745  2.9566  1.0023 -0.8698
  549MOL0     H72458   9.079   6.815   5.660  0.3612 -0.6785  0.3052
  549MOL0     H72459   9.161   6.881   5.507  0.6124 -2.2512 -2.3053
  549MOL0     H72460   9.006   6.627   5.499 -0.1762 -0.2703 -0.1747
  549MOL0     H72461   9.121   6.697   5.388  0.2042 -0.0432  0.2542
  549MOL0     H72462   9.288   6.669   5.593  1.1591 -1.1199 -1.3118
  549MOL0     H72463   9.247   6.538   5.478 -2.2798 -1.4993 -0.6569
  549MOL0     H72464   9.078   6.449   5.615  2.2854  0.3827 -2.3672
  549MOL0     H72465   9.247   6.429   5.672  1.9957  1.6818  1.4195
  549MOL0     H72466   9.112   6.714   5.951  1.0391 -0.8408 -0.0475
  549MOL0     H72467   8.740   6.908   5.353 -0.6873 -0.9563 -0.0936
  549MOL0     H72468   8.513   6.839   5.437  0.1653 -0.7704  1.0069
  550MOL0     O72469   6.715   1.591   1.723 -0.3204  0.0246  0.4674
  550MOL0     C72470   6.793   1.570   1.627  0.2327  0.7188 -0.7856
  550MOL0     O72471   6.766   1.486   1.524 -0.1886  0.3225  0.5017
  550MOL0     C72472   6.638   1.442   1.518  0.2224  0.2511  0.4426
  550MOL0     C72473   6.590   1.318   1.574  0.4246  0.4612 -0.6782
  550MOL0     C72474   6.453   1.291   1.580 -0.2435  0.2684 -0.2255
  550MOL0     C72475   6.360   1.381   1.533 -0.2696  0.1602  0.1122
  550MOL0     O72476   6.226   1.348   1.559 -0.2775  0.3316  0.9094
  550MOL0     C72477   6.129   1.444   1.539 -0.0191 -0.9480 -0.0345
  550MOL0     C72478   6.086   1.463   1.392  0.2056  0.2272 -0.7880
  550MOL0     C72479   6.008   1.342   1.343 -0.6802 -0.0181 -1.1163
  550MOL0     C72480   5.950   1.352   1.202  0.1372  1.1375  0.1584
  550MOL0     C72481   5.914   1.211   1.139 -0.5147 -0.1507 -0.2737
  550MOL0     C72482   5.890   1.229   0.986 -0.5204 -0.1124  0.5832
  550MOL0     C72483   5.763   1.308   0.948 -0.0536 -0.0958  0.4673
  550MOL0     C72484   5.634   1.263   1.006  0.0562  1.2887  0.5395
  550MOL0     N72485   5.607   1.116   1.031 -0.0746 -0.3663  0.4203
  550MOL0     C72486   5.578   1.026   0.932  0.0881  0.2841 -0.0227
  550MOL0     C72487   5.500   0.932   0.988 -0.0515  0.0840 -0.1706
  550MOL0     C72488   5.452   0.799   0.925  0.2130  0.1178  0.0642
  550MOL0     C72489   5.299   0.799   0.944  0.1531  0.9104 -1.3782
  550MOL0     C72490   5.228   0.671   0.885  0.0762 -0.7425  0.5336
  550MOL0     C72491   5.265   0.535   0.944  0.3064  0.4990  0.6538
  550MOL0     O72492   5.183   0.438   0.882 -0.2570 -0.1663 -0.3447
  550MOL0     C72493   5.068   0.372   0.945  0.1808 -0.5005 -0.0448
  550MOL0     C72494   5.000   0.274   0.869 -1.0453  0.0415 -0.3197
  550MOL0     C72495   4.876   0.224   0.913 -0.4318  0.6913 -0.7021
  550MOL0     C72496   4.823   0.256   1.042  0.3589 -0.3394  1.3148
  550MOL0     C72497   4.707   0.197   1.107  0.3940 -0.0985  0.9686
  550MOL0     O72498   4.636   0.272   1.190 -0.4689 -0.0168  0.2229
  550MOL0     C72499   4.517   0.214   1.236 -0.1177 -0.3365  0.1124
  550MOL0     C72500   4.395   0.280   1.215 -0.1716  0.4826 -0.0867
  550MOL0     C72501   4.275   0.226   1.270 -0.6001  0.3462 -0.1563
  550MOL0     C72502   4.273   0.119   1.358 -0.3476 -0.6141 -0.0550
  550MOL0     O72503   4.156   0.070   1.409 -0.1763  0.0957 -0.4277
  550MOL0     C72504   4.159   0.046   1.551 -0.0895 -0.0103 -1.0008
  550MOL0     C72505   4.018   0.041   1.612 -0.4579 -0.0285 -0.0471
  550MOL0     C72506   4.023  -0.001   1.763  0.3045 -0.3714 -0.9522
  550MOL0     C72507   3.886  -0.013   1.830  0.2794 -0.4863  0.5618
  550MOL0     C72508   3.814  -0.140   1.807  0.2846 -0.4888  0.0160
  550MOL0     C72509   3.667  -0.143   1.857  0.1942  0.1216  0.2312
  550MOL0     C72510   3.584  -0.254   1.787  0.9825 -0.9231 -0.0821
  550MOL0     C72511   3.442  -0.258   1.856 -0.2074  0.3234 -0.9693
  550MOL0    Cl72512   3.350  -0.385   1.761 -0.1877 -0.4606 -0.0361
  550MOL0     C72513   4.402   0.051   1.372  1.0776  0.2714 -0.0576
  550MOL0     C72514   4.521   0.100   1.315 -1.2703 -0.3233  0.5136
  550MOL0     O72515   4.668   0.097   1.048  0.0899  0.6530  0.1916
  550MOL0     C72516   4.893   0.360   1.113  0.2475 -0.4114  0.5188
  550MOL0     C72517   5.008   0.424   1.061 -0.3031  0.2861 -0.4326
  550MOL0     N72518   5.492   0.966   1.125 -0.0848 -0.0462  0.4264
  550MOL0     N72519   5.559   1.071   1.145 -0.1230 -0.4319  0.2652
  550MOL0     C72520   6.403   1.483   1.447  0.2770  0.1941 -0.0199
  550MOL0     C72521   6.541   1.521   1.454  0.5244  0.9173  0.0708
  550MOL0     C72522   6.910   1.649   1.618 -0.0803  0.3669  0.3686
  550MOL0     C72523   6.973   1.666   1.489  0.2807  0.2869  0.0136
  550MOL0     C72524   7.094   1.736   1.479 -0.0088  0.2482  0.7630
  550MOL0     C72525   7.148   1.795   1.596  0.7815  0.6557  0.6135
  550MOL0     O72526   7.277   1.845   1.594  1.0012 -0.4570 -0.1639
  550MOL0     C72527   7.371   1.741   1.584  0.6034  0.3626 -0.3625
  550MOL0     C72528   7.406   1.687   1.715 -0.4677  0.4949 -0.1137
  550MOL0     C72529   7.562   1.670   1.730  1.0546 -0.2169  0.4998
  550MOL0     C72530   7.626   1.584   1.624 -0.0259  0.3433  0.1011
  550MOL0     C72531   7.774   1.583   1.628  0.6832  0.2140 -0.2067
  550MOL0     C72532   7.891   1.571   1.644  0.3324 -0.0865  0.1002
  550MOL0     C72533   7.083   1.787   1.719 -0.7391  0.1800  0.0821
  550MOL0     C72534   6.971   1.707   1.725 -0.2328 -0.1620 -0.2254
  550MOL0     H72535   6.666   1.253   1.616  1.6076  1.2467 -1.5672
  550MOL0     H72536   6.413   1.201   1.623  1.8786 -0.6799 -0.0877
  550MOL0     H72537   6.166   1.542   1.568  2.8524 -1.4935 -1.4098
  550MOL0     H72538   6.036   1.421   1.590 -0.8868  0.0741 -1.0992
  550MOL0     H72539   6.170   1.474   1.323  1.7962 -2.1215  0.5956
  550MOL0     H72540   6.021   1.550   1.383 -0.0257 -0.0102 -1.5201
  550MOL0     H72541   5.921   1.329   1.408 -0.3309 -2.1428 -0.9997
  550MOL0     H72542   6.068   1.255   1.370 -1.4841 -0.1895  0.2158
  550MOL0     H72543   5.870   1.426   1.189 -0.2006  0.3306 -3.6083
  550MOL0     H72544   6.035   1.384   1.140 -1.1346 -0.5170 -2.6287
  550MOL0     H72545   5.824   1.172   1.188 -1.2165  1.7420  0.0255
  550MOL0     H72546   5.996   1.140   1.154 -0.1731  0.3747  0.4100
  550MOL0     H72547   5.886   1.127   0.947  2.4640  0.0413 -0.3962
  550MOL0     H72548   5.977   1.286   0.950 -0.1803 -2.0436 -1.9181
  550MOL0     H72549   5.770   1.417   0.949 -3.1905  0.3871 -3.9006
  550MOL0     H72550   5.749   1.304   0.840  1.4011  1.1184  0.1999
  550MOL0     H72551   5.549   1.292   0.944 -0.4391 -1.7246 -0.3675
  550MOL0     H72552   5.629   1.323   1.097 -0.3343  0.4097  1.1135
  550MOL0     H72553   5.601   1.024   0.826 -1.0727  1.4221 -0.3252
  550MOL0     H72554   5.503   0.712   0.968  2.0318 -0.2613 -2.6213
  550MOL0     H72555   5.480   0.796   0.819  1.2301  2.2310  0.2173
  550MOL0     H72556   5.258   0.891   0.901 -2.1659  1.2215  1.2479
  550MOL0     H72557   5.283   0.803   1.052  0.8319  1.3385 -1.2845
  550MOL0     H72558   5.121   0.687   0.896 -0.3369 -1.0376 -2.2831
  550MOL0     H72559   5.239   0.669   0.776 -2.7927 -3.9137  0.1269
  550MOL0     H72560   5.250   0.528   1.052  2.2575 -2.6170  0.8291
  550MOL0     H72561   5.365   0.505   0.911 -0.8438 -1.1567 -1.5435
  550MOL0     H72562   5.028   0.257   0.765 -1.2920  2.8495 -0.9204
  550MOL0     H72563   4.821   0.158   0.847 -1.6880  1.4722 -0.4741
  550MOL0     H72564   4.393   0.367   1.151 -1.1597  0.5557  0.0381
  550MOL0     H72565   4.190   0.283   1.234 -0.4638  0.4014 -0.3963
  550MOL0     H72566   4.235   0.111   1.596 -0.9924 -0.3109  1.0765
  550MOL0     H72567   4.197  -0.056   1.564  0.8793  0.4489 -0.0628
  550MOL0     H72568   3.958  -0.015   1.540 -1.0895  0.2577  0.2560
  550MOL0     H72569   3.982   0.144   1.600  3.0193  1.2032 -1.5953
  550MOL0     H72570   4.078   0.074   1.819  0.9680 -0.0085 -2.0518
  550MOL0     H72571   4.064  -0.102   1.763 -1.7823 -1.2796 -0.0122
  550MOL0     H72572   3.893  -0.017   1.940 -0.2703 -2.1507  0.5602
  550MOL0     H72573   3.821   0.070   1.799 -0.9589 -0.5611  2.7491
  550MOL0     H72574   3.860  -0.227   1.855  0.3122 -1.4800 -1.7345
  550MOL0     H72575   3.811  -0.160   1.699  0.8981  1.5936 -0.4338
  550MOL0     H72576   3.613  -0.047   1.852  0.9091  0.5182 -0.1224
  550MOL0     H72577   3.675  -0.162   1.964  0.3247 -0.9028  0.0460
  550MOL0     H72578   3.568  -0.227   1.682  2.3657  1.2544  0.2031
  550MOL0     H72579   3.630  -0.353   1.791  0.7320 -1.1143 -1.4255
  550MOL0     H72580   3.404  -0.156   1.867  2.1911  1.1490  0.3067
  550MOL0     H72581   3.455  -0.292   1.959 -0.2914 -0.2384 -1.1403
  550MOL0     H72582   4.403  -0.038   1.433 -2.0777 -1.5487 -2.3356
  550MOL0     H72583   4.614   0.049   1.336 -0.0608  1.9769  1.1220
  550MOL0     H72584   4.857   0.396   1.209 -0.8505  0.9068 -0.3525
  550MOL0     H72585   5.052   0.492   1.134  0.8003 -0.3685 -0.4625
  550MOL0     H72586   6.344   1.559   1.398  0.0264 -0.7272 -1.1965
  550MOL0     H72587   6.575   1.607   1.398 -1.1574  0.9086 -1.0422
  550MOL0     H72588   6.919   1.634   1.401  1.4542  0.5644 -0.8255
  550MOL0     H72589   7.137   1.747   1.380 -1.3849  0.3059  0.1425
  550MOL0     H72590   7.457   1.790   1.536  1.6156 -1.3402 -0.3930
  550MOL0     H72591   7.336   1.661   1.519  0.4990  1.9482 -2.3453
  550MOL0     H72592   7.383   1.762   1.792  1.6993  2.4476 -1.2105
  550MOL0     H72593   7.341   1.601   1.732 -1.7528  1.8208  2.2280
  550MOL0     H72594   7.572   1.628   1.830 -1.0397  0.5219  1.0621
  550MOL0     H72595   7.595   1.774   1.731 -1.3098  0.7628 -3.3838
  550MOL0     H72596   7.598   1.478   1.631  4.6324 -1.1011  0.7383
  550MOL0     H72597   7.595   1.586   1.519  3.2391 -2.5374 -1.1236
  550MOL0     H72598   7.997   1.584   1.652  0.0664  1.2133  2.6539
  550MOL0     H72599   7.119   1.848   1.801  0.3600  0.2791 -0.4535
  550MOL0     H72600   6.919   1.697   1.820  0.5796 -3.7184 -0.0223
  551MOL0     O72601   7.326   3.070   9.212 -0.1334  0.4740 -0.0513
  551MOL0     C72602   7.375   2.963   9.165  0.6106 -0.6795 -0.6322
  551MOL0     O72603   7.323   2.842   9.182 -0.2094  0.0749 -0.2379
  551MOL0     C72604   7.202   2.821   9.245  0.0117 -0.4255  0.7102
  551MOL0     C72605   7.078   2.892   9.227  0.6922 -0.1708  0.8345
  551MOL0     C72606   6.976   2.876   9.316 -0.0626 -0.1022  0.4303
  551MOL0     C72607   6.987   2.787   9.424 -0.0290  1.1520 -1.0065
  551MOL0     O72608   6.892   2.756   9.513  0.2809 -0.3559  0.3246
  551MOL0     C72609   6.777   2.845   9.503  0.3129 -0.5334 -0.0096
  551MOL0     C72610   6.676   2.806   9.616  0.5437 -0.2594 -0.6664
  551MOL0     C72611   6.558   2.713   9.567  0.1086 -0.4072 -0.1649
  551MOL0     C72612   6.620   2.578   9.520  0.5029  0.4452  0.3673
  551MOL0     C72613   6.512   2.470   9.475 -0.3387  0.4616 -0.0318
  551MOL0     C72614   6.415   2.411   9.588  0.3729 -0.0039  0.5788
  551MOL0     C72615   6.492   2.335   9.702  0.2772 -0.0190 -0.1462
  551MOL0     C72616   6.396   2.248   9.798  0.2340 -1.1443 -0.4794
  551MOL0     N72617   6.468   2.213   9.925 -0.1961  0.4097  0.2999
  551MOL0     C72618   6.565   2.119   9.931 -0.3870  0.1934  0.4260
  551MOL0     C72619   6.620   2.137  10.053 -0.5773  0.3556 -0.3524
  551MOL0     C72620   6.728   2.050  10.107 -0.6519 -0.7585  0.0928
  551MOL0     C72621   6.868   2.053  10.030 -0.2251  0.5539  0.3067
  551MOL0     C72622   6.983   1.986  10.117  0.1233 -0.1878  0.0656
  551MOL0     C72623   7.111   1.985  10.044  0.3750 -0.4036  0.6140
  551MOL0     O72624   7.210   1.965  10.133  0.2417 -0.5329 -0.0723
  551MOL0     C72625   7.340   1.965  10.083 -0.4394  0.4330  0.5166
  551MOL0     C72626   7.375   1.999   9.947 -0.5795 -0.0045 -0.0392
  551MOL0     C72627   7.509   1.987   9.903  0.3958  0.8702 -0.2554
  551MOL0     C72628   7.614   1.944   9.983 -0.2154 -0.6530 -0.4904
  551MOL0     C72629   7.739   1.912   9.908 -0.7611  0.1185 -0.9118
  551MOL0     O72630   7.741   1.916   9.768  0.6665 -0.1510  0.0436
  551MOL0     C72631   7.854   1.895   9.704 -0.2600 -0.9646  0.7868
  551MOL0     C72632   7.904   2.003   9.634  0.9303  1.0657 -0.3107
  551MOL0     C72633   8.021   1.995   9.556 -0.0256  0.0327  0.2039
  551MOL0     C72634   8.081   1.869   9.532 -0.2076 -0.0798  0.1622
  551MOL0     O72635   8.202   1.860   9.461 -0.2129 -0.0130 -0.1734
  551MOL0     C72636   8.274   1.983   9.440  0.1316  0.3718 -0.3569
  551MOL0     C72637   8.406   1.948   9.365  0.2440  0.4873 -0.4321
  551MOL0     C72638   8.488   1.841   9.433  0.1510 -0.3000  0.3520
  551MOL0     C72639   8.551   1.747   9.329  1.1937  0.6337 -0.7868
  551MOL0     C72640   8.628   1.819   9.216  0.1875 -0.2434 -0.1944
  551MOL0     C72641   8.726   1.714   9.154  0.8367  0.1165  0.3116
  551MOL0     C72642   8.857   1.716   9.232  0.0190  0.1275  0.4928
  551MOL0     C72643   8.943   1.590   9.208  0.3161  0.1806 -0.2428
  551MOL0    Cl72644   9.074   1.592   9.320 -0.2254  0.3509  0.3563
  551MOL0     C72645   8.035   1.753   9.600  0.4442 -0.0047 -0.9038
  551MOL0     C72646   7.922   1.771   9.688 -0.3288  0.7318  0.0618
  551MOL0     O72647   7.842   1.882   9.974  0.1586  0.0760 -0.2040
  551MOL0     C72648   7.589   1.915  10.117 -0.1317  0.4786 -0.1029
  551MOL0     C72649   7.453   1.928  10.161 -0.4199  0.0466  0.6195
  551MOL0     N72650   6.563   2.246  10.110 -0.1556 -0.5773  0.3625
  551MOL0     N72651   6.467   2.284  10.035  0.2089 -0.3062 -0.0148
  551MOL0     C72652   7.106   2.713   9.435 -0.0584  0.5301 -0.6988
  551MOL0     C72653   7.207   2.725   9.348 -1.0157  0.1225  0.6002
  551MOL0     C72654   7.521   2.986   9.110  0.2120  0.0226 -0.2561
  551MOL0     C72655   7.580   2.893   9.020 -0.3404  0.8928  0.1986
  551MOL0     C72656   7.704   2.912   8.968 -0.8238  0.7467  0.1146
  551MOL0     C72657   7.775   3.033   8.993  0.0136  0.3934 -0.4375
  551MOL0     O72658   7.884   3.059   8.912 -0.2693  0.4483  0.3879
  551MOL0     C72659   8.001   3.072   8.992 -0.2599 -0.2182  0.5557
  551MOL0     C72660   8.055   2.933   9.039  0.0463 -0.4836 -1.0794
  551MOL0     C72661   8.143   2.953   9.167 -0.2222 -0.4999 -0.7416
  551MOL0     C72662   8.220   2.831   9.220  1.1869  0.3141 -0.4692
  551MOL0     C72663   8.313   2.794   9.122  0.2818 -0.7399  0.5693
  551MOL0     C72664   8.377   2.751   9.034 -0.3061 -0.6864  0.0359
  551MOL0     C72665   7.717   3.132   9.081 -0.7274  0.9153 -0.0110
  551MOL0     C72666   7.593   3.109   9.140 -0.5832  0.3509  0.3405
  551MOL0     H72667   7.077   2.969   9.151 -0.6850 -0.0482  0.9424
  551MOL0     H72668   6.884   2.932   9.303  1.1840  2.3394  1.4949
  551MOL0     H72669   6.725   2.833   9.408  1.1128  1.6564 -0.7769
  551MOL0     H72670   6.804   2.949   9.521 -0.6576 -0.3206  0.2401
  551MOL0     H72671   6.645   2.886   9.684 -0.6162 -2.3528  1.4356
  551MOL0     H72672   6.730   2.742   9.686  0.2449 -0.8778 -0.9909
  551MOL0     H72673   6.493   2.756   9.491  0.1323 -0.6501 -0.3242
  551MOL0     H72674   6.505   2.697   9.662  2.6027 -0.6103  1.3024
  551MOL0     H72675   6.685   2.606   9.436  0.3927  0.8507  0.4131
  551MOL0     H72676   6.683   2.535   9.598 -0.3316 -1.1215  0.2066
  551MOL0     H72677   6.570   2.390   9.430  0.6135  2.2242 -2.1208
  551MOL0     H72678   6.443   2.519   9.405 -0.6620  2.6115  1.6507
  551MOL0     H72679   6.342   2.337   9.553 -1.2406  0.2995  3.0087
  551MOL0     H72680   6.365   2.496   9.635  0.8492  1.6835 -1.7934
  551MOL0     H72681   6.544   2.258   9.644 -4.9798 -2.8811 -1.7486
  551MOL0     H72682   6.566   2.400   9.749  3.1668 -1.9455 -1.7147
  551MOL0     H72683   6.363   2.158   9.746  1.4482 -1.5151 -0.6456
  551MOL0     H72684   6.310   2.312   9.818  0.9282  0.4120 -2.2001
  551MOL0     H72685   6.588   2.043   9.856  0.0518 -0.0983  0.8538
  551MOL0     H72686   6.692   1.948  10.090  1.1913 -1.0905 -2.4155
  551MOL0     H72687   6.755   2.082  10.208 -2.1152  1.0373 -0.0396
  551MOL0     H72688   6.900   2.158  10.027  0.3451  0.3679 -0.2689
  551MOL0     H72689   6.850   2.035   9.924 -2.7934  2.9915  0.1918
  551MOL0     H72690   6.985   2.042  10.211  2.0756 -0.2408  0.0950
  551MOL0     H72691   6.950   1.883  10.133  1.7772 -0.5495  1.3763
  551MOL0     H72692   7.127   2.081   9.992 -2.0798 -0.8173 -1.1084
  551MOL0     H72693   7.115   1.913   9.961 -0.6350 -0.2423  0.4141
  551MOL0     H72694   7.294   2.044   9.891 -1.9994 -1.3445  0.8565
  551MOL0     H72695   7.513   2.013   9.798 -2.6192 -1.6577 -1.1553
  551MOL0     H72696   7.853   2.097   9.651 -1.6980 -0.5842  1.6455
  551MOL0     H72697   8.058   2.092   9.527  0.2072  0.0853  0.6727
  551MOL0     H72698   8.283   2.046   9.529  1.0958  3.8450 -2.7249
  551MOL0     H72699   8.217   2.042   9.368 -0.4592  1.0511  0.6413
  551MOL0     H72700   8.468   2.036   9.343 -0.0003  0.2476 -2.2463
  551MOL0     H72701   8.378   1.909   9.267 -2.5417  0.3358  0.3491
  551MOL0     H72702   8.438   1.787   9.514 -0.3995  0.8576  0.8116
  551MOL0     H72703   8.574   1.883   9.486 -0.6223 -2.0113  3.2261
  551MOL0     H72704   8.618   1.686   9.390 -0.9138  0.1271  1.1437
  551MOL0     H72705   8.471   1.689   9.283  0.7022 -0.9929  1.9469
  551MOL0     H72706   8.683   1.899   9.267 -2.8636  2.7473 -1.2315
  551MOL0     H72707   8.569   1.868   9.138 -0.0544 -2.6014 -1.6016
  551MOL0     H72708   8.736   1.729   9.046  3.1743 -2.2552  0.0639
  551MOL0     H72709   8.684   1.613   9.162  1.5718 -0.1302  1.4092
  551MOL0     H72710   8.909   1.811   9.213  0.3872  0.5516  3.2837
  551MOL0     H72711   8.831   1.712   9.337  0.8776  1.1783  0.7727
  551MOL0     H72712   8.973   1.595   9.103 -0.0954  1.2201 -0.3195
  551MOL0     H72713   8.888   1.495   9.208  3.7396 -1.9624 -1.5268
  551MOL0     H72714   8.093   1.661   9.600 -2.9234 -2.3132 -1.7347
  551MOL0     H72715   7.891   1.700   9.764  0.1565  2.3023  1.7811
  551MOL0     H72716   7.676   1.881  10.174 -0.8873 -0.0600  0.7601
  551MOL0     H72717   7.452   1.908  10.267 -1.0160 -2.4205  0.2000
  551MOL0     H72718   7.117   2.641   9.515 -2.3635 -0.8496 -1.5136
  551MOL0     H72719   7.298   2.672   9.372 -0.9054 -0.0273 -0.1426
  551MOL0     H72720   7.543   2.793   9.002  4.0500 -1.3939  2.3252
  551MOL0     H72721   7.752   2.835   8.910  0.6205  0.6713  1.3601
  551MOL0     H72722   7.974   3.130   9.080 -0.3797 -0.6985  0.8434
  551MOL0     H72723   8.080   3.132   8.947  0.0128 -1.7116 -1.0713
  551MOL0     H72724   7.974   2.864   9.064  0.4950 -0.3569  0.8806
  551MOL0     H72725   8.113   2.892   8.956 -0.8792 -0.6716 -1.6400
  551MOL0     H72726   8.092   2.994   9.255  3.0622 -1.1103  1.6121
  551MOL0     H72727   8.218   3.025   9.132 -0.6472 -0.0177 -0.6660
  551MOL0     H72728   8.274   2.867   9.309  0.7939  0.9657 -0.4867
  551MOL0     H72729   8.153   2.747   9.240 -0.2832  1.3307 -0.9551
  551MOL0     H72730   8.436   2.700   8.961  0.5948 -1.7269  1.4383
  551MOL0     H72731   7.757   3.233   9.088 -2.1287  1.4633  0.4972
  551MOL0     H72732   7.558   3.188   9.206 -0.7666  0.1112  0.5299
  552MOL0     O72733   5.677   1.456   3.642  0.3724  0.0032 -0.4598
  552MOL0     C72734   5.678   1.398   3.537 -0.0261 -0.0627  0.7241
  552MOL0     O72735   5.610   1.431   3.421  0.1519 -0.6931  0.0142
  552MOL0     C72736   5.535   1.549   3.410 -0.3522 -0.2745  0.6925
  552MOL0     C72737   5.524   1.654   3.498 -0.6379 -0.2943 -0.0164
  552MOL0     C72738   5.440   1.768   3.481 -0.2728  0.3914  0.8048
  552MOL0     C72739   5.375   1.774   3.358 -0.5464 -0.1575  0.3632
  552MOL0     O72740   5.284   1.873   3.326 -0.7190  0.3709 -0.1560
  552MOL0     C72741   5.342   1.984   3.253  0.5124  0.1960 -0.4217
  552MOL0     C72742   5.214   2.066   3.209  0.4822 -0.9555  0.6872
  552MOL0     C72743   5.135   2.121   3.334  0.1877 -0.1398 -0.4110
  552MOL0     C72744   4.994   2.155   3.292 -0.1941 -0.4758  0.5594
  552MOL0     C72745   4.934   2.217   3.410  0.6600  0.2640 -0.5655
  552MOL0     C72746   4.802   2.293   3.375 -0.0228 -1.1794  0.1410
  552MOL0     C72747   4.694   2.299   3.490 -0.3571  0.4269 -0.4601
  552MOL0     C72748   4.570   2.382   3.452 -0.7749  0.2274 -0.1648
  552MOL0     N72749   4.506   2.318   3.334  1.0443  0.4891 -0.0322
  552MOL0     C72750   4.510   2.367   3.205  0.7808 -0.7807  0.3030
  552MOL0     C72751   4.427   2.289   3.125  0.3290 -0.2765 -0.0052
  552MOL0     C72752   4.371   2.295   2.979  0.3074  0.4180 -0.0402
  552MOL0     C72753   4.473   2.346   2.872  0.5994 -1.0989  0.0621
  552MOL0     C72754   4.405   2.364   2.731 -0.4552 -0.5809  0.4446
  552MOL0     C72755   4.499   2.350   2.610  0.6148 -0.3470 -0.5353
  552MOL0     O72756   4.416   2.295   2.507  0.3452 -0.0007  0.3448
  552MOL0     C72757   4.466   2.288   2.377  0.1539 -0.1372  0.0358
  552MOL0     C72758   4.385   2.230   2.282  0.3035 -0.1517  0.6765
  552MOL0     C72759   4.423   2.219   2.144 -0.1208  0.3453 -0.5604
  552MOL0     C72760   4.545   2.264   2.097 -0.3080  0.2800 -0.1809
  552MOL0     C72761   4.592   2.272   1.952  0.0914 -0.9300 -0.0774
  552MOL0     O72762   4.528   2.208   1.856  0.4437 -0.4768 -0.7454
  552MOL0     C72763   4.565   2.220   1.727  0.9593  0.7914 -0.0420
  552MOL0     C72764   4.567   2.107   1.648 -0.4700  0.7509 -0.2065
  552MOL0     C72765   4.591   2.111   1.509 -0.9440 -0.6134  0.6012
  552MOL0     C72766   4.612   2.235   1.443  0.6074 -0.1299  0.2839
  552MOL0     O72767   4.638   2.234   1.307 -0.1994  0.4035  0.5702
  552MOL0     C72768   4.703   2.352   1.243  0.4922  0.5024  0.3226
  552MOL0     C72769   4.748   2.294   1.108  0.2739 -1.4006  0.2670
  552MOL0     C72770   4.833   2.406   1.046 -1.3884 -0.0456 -0.4145
  552MOL0     C72771   4.903   2.351   0.921  0.5283 -0.2943  0.0432
  552MOL0     C72772   4.995   2.445   0.852 -0.3834  0.5212  0.6950
  552MOL0     C72773   5.130   2.479   0.931 -0.6190  0.2286  0.0804
  552MOL0     C72774   5.210   2.582   0.849 -0.1315 -0.4771 -0.7732
  552MOL0     C72775   5.308   2.660   0.942  0.2856  0.7874  0.1575
  552MOL0    Cl72776   5.423   2.539   1.012  0.1785  0.3875 -0.4401
  552MOL0     C72777   4.585   2.350   1.515 -0.0268 -0.4877  0.0717
  552MOL0     C72778   4.569   2.344   1.659  0.0804 -0.3059  0.7772
  552MOL0     O72779   4.690   2.340   1.938  0.1929 -0.4367 -0.7479
  552MOL0     C72780   4.628   2.323   2.199 -0.2048  0.4756 -0.2967
  552MOL0     C72781   4.591   2.336   2.334  0.0885  0.3722 -0.0650
  552MOL0     N72782   4.385   2.185   3.203  0.4981  0.0203 -0.7704
  552MOL0     N72783   4.443   2.195   3.321 -0.0460  0.1017  0.2104
  552MOL0     C72784   5.371   1.666   3.274  0.6858 -0.1692 -0.6885
  552MOL0     C72785   5.452   1.557   3.292 -0.2847  0.2810 -0.3951
  552MOL0     C72786   5.771   1.274   3.527  0.5427 -0.2992 -0.1642
  552MOL0     C72787   5.848   1.247   3.640  0.2153  0.9565  0.4724
  552MOL0     C72788   5.908   1.118   3.657  0.6081 -1.0123 -0.6673
  552MOL0     C72789   5.911   1.028   3.545 -0.0430  0.2587 -0.1300
  552MOL0     O72790   5.966   0.899   3.546 -0.4931 -0.2430 -0.1218
  552MOL0     C72791   5.972   0.836   3.674 -1.0048  1.0260  0.4369
  552MOL0     C72792   5.959   0.678   3.658 -0.7758 -0.6084 -1.3525
  552MOL0     C72793   5.894   0.616   3.778  0.7519 -0.5032  0.3487
  552MOL0     C72794   5.967   0.622   3.906  0.8663  0.0982 -0.1083
  552MOL0     C72795   6.072   0.527   3.927  0.2932  0.5813 -0.0062
  552MOL0     C72796   6.158   0.443   3.954  0.3390 -0.5533 -0.0070
  552MOL0     C72797   5.850   1.069   3.430 -0.0971  0.8401  0.2187
  552MOL0     C72798   5.782   1.187   3.417  0.5357 -0.4682 -0.0764
  552MOL0     H72799   5.599   1.662   3.576  3.0990 -0.8264 -3.2146
  552MOL0     H72800   5.424   1.846   3.555 -0.8765 -0.1773  1.2806
  552MOL0     H72801   5.395   1.942   3.166  0.0738 -1.4709  0.0744
  552MOL0     H72802   5.398   2.052   3.318  1.2124  0.5915 -1.4131
  552MOL0     H72803   5.152   2.006   3.142 -1.1082  1.5876 -0.2585
  552MOL0     H72804   5.239   2.150   3.144 -1.3154 -2.0741 -1.6024
  552MOL0     H72805   5.196   2.206   3.365 -1.6808  3.1028 -4.6040
  552MOL0     H72806   5.135   2.046   3.413  2.8335  0.7545  0.5640
  552MOL0     H72807   4.997   2.227   3.209  0.4901 -1.2211 -0.0831
  552MOL0     H72808   4.939   2.068   3.256 -3.0904  1.2814  0.4043
  552MOL0     H72809   5.007   2.283   3.456  0.6381  0.9300 -1.4474
  552MOL0     H72810   4.916   2.133   3.478 -1.1208  0.0132 -1.2802
  552MOL0     H72811   4.752   2.252   3.287 -0.2832  0.6256 -0.5912
  552MOL0     H72812   4.825   2.400   3.372 -2.4859 -0.3741  3.6922
  552MOL0     H72813   4.661   2.199   3.522  2.1566 -0.2512  0.2180
  552MOL0     H72814   4.741   2.342   3.579 -0.7199 -3.1117  1.6651
  552MOL0     H72815   4.607   2.483   3.433 -0.1337  0.6356  2.8028
  552MOL0     H72816   4.503   2.381   3.539 -0.6521 -0.8221 -0.0598
  552MOL0     H72817   4.553   2.464   3.184 -1.2560  0.2820  0.7770
  552MOL0     H72818   4.278   2.353   2.974 -0.3654 -0.6899 -0.9936
  552MOL0     H72819   4.356   2.190   2.952 -0.8431  0.8159 -1.0452
  552MOL0     H72820   4.566   2.289   2.869  1.5336  0.4064 -1.1641
  552MOL0     H72821   4.509   2.445   2.902  0.1540 -0.7829 -0.4210
  552MOL0     H72822   4.337   2.280   2.719 -1.0367  0.3519 -4.8359
  552MOL0     H72823   4.359   2.462   2.715  0.0236 -0.3637  0.3723
  552MOL0     H72824   4.590   2.292   2.625  1.1709 -0.2866 -3.2169
  552MOL0     H72825   4.532   2.448   2.574 -0.4706 -0.3446 -1.6066
  552MOL0     H72826   4.285   2.200   2.313 -0.7185  1.1699 -1.1053
  552MOL0     H72827   4.350   2.179   2.074 -3.1501 -1.7194  3.3520
  552MOL0     H72828   4.546   2.017   1.705 -1.0117  0.4590 -0.8511
  552MOL0     H72829   4.601   2.014   1.460  4.6623 -0.4980  0.8802
  552MOL0     H72830   4.786   2.386   1.304 -1.8343  0.5159  3.7714
  552MOL0     H72831   4.628   2.431   1.231  0.9526  1.4028  2.8429
  552MOL0     H72832   4.656   2.286   1.049  0.4127 -0.8453 -0.0313
  552MOL0     H72833   4.787   2.192   1.111 -0.3462 -1.8686 -3.3012
  552MOL0     H72834   4.919   2.434   1.108 -1.2300  1.8906 -1.4243
  552MOL0     H72835   4.771   2.493   1.026 -0.8733  0.6830  0.9855
  552MOL0     H72836   4.965   2.263   0.938  2.4973  0.9181 -0.5505
  552MOL0     H72837   4.833   2.340   0.837 -0.0118  1.4300  0.2202
  552MOL0     H72838   4.942   2.540   0.841 -1.4858  0.1741  2.7003
  552MOL0     H72839   5.017   2.403   0.753  0.8901  1.3916  0.5749
  552MOL0     H72840   5.195   2.392   0.945 -0.2860  0.5925  0.8416
  552MOL0     H72841   5.110   2.511   1.033 -2.2224 -1.7607  0.4562
  552MOL0     H72842   5.266   2.538   0.766 -0.6963 -1.4241 -0.6724
  552MOL0     H72843   5.137   2.650   0.804  0.2671  0.8121  0.4803
  552MOL0     H72844   5.245   2.716   1.013 -0.3078 -0.3433  0.5520
  552MOL0     H72845   5.357   2.738   0.883  2.2024  0.0504  0.7130
  552MOL0     H72846   4.592   2.442   1.458  1.0803 -1.2356 -1.0424
  552MOL0     H72847   4.560   2.438   1.712  1.2345  1.5291 -2.0284
  552MOL0     H72848   4.730   2.351   2.173  0.7383  2.9218  4.7865
  552MOL0     H72849   4.674   2.383   2.386 -1.7357 -1.3256  5.0200
  552MOL0     H72850   5.305   1.669   3.188 -2.3746  0.5166  1.5080
  552MOL0     H72851   5.452   1.476   3.220  2.0203  0.2077 -0.4126
  552MOL0     H72852   5.838   1.321   3.719 -0.6926  0.0248  1.2611
  552MOL0     H72853   5.950   1.098   3.755 -1.1484 -2.2977 -0.1316
  552MOL0     H72854   5.887   0.874   3.731 -1.1629  3.2423 -1.1590
  552MOL0     H72855   6.059   0.865   3.734 -0.5129  5.1788 -1.9232
  552MOL0     H72856   5.905   0.660   3.565 -0.0156  1.9307 -2.3841
  552MOL0     H72857   6.059   0.633   3.654 -0.5987 -0.1830 -1.9161
  552MOL0     H72858   5.862   0.514   3.754 -2.8320  0.8736 -1.4943
  552MOL0     H72859   5.800   0.671   3.789  0.9083 -0.2740  0.5298
  552MOL0     H72860   6.006   0.724   3.918  1.5150  0.0205 -1.3575
  552MOL0     H72861   5.894   0.604   3.985  0.6650  0.8913 -0.1043
  552MOL0     H72862   6.224   0.359   3.967 -1.7072 -2.5907 -1.7589
  552MOL0     H72863   5.862   1.009   3.340 -0.0473  0.6397  0.3576
  552MOL0     H72864   5.728   1.214   3.328 -1.7941 -1.5371  0.9336
  553MOL0     O72865   7.498   2.824   5.146  0.7037  0.7093 -0.6277
  553MOL0     C72866   7.526   2.941   5.118  0.4858 -0.6458  0.4191
  553MOL0     O72867   7.478   3.016   5.013  0.7940  0.1117 -0.0972
  553MOL0     C72868   7.404   2.970   4.910 -0.2299  0.5918  0.0326
  553MOL0     C72869   7.309   3.048   4.851 -0.1374  0.8805  1.2238
  553MOL0     C72870   7.227   2.992   4.751  0.5642 -0.4896 -0.0477
  553MOL0     C72871   7.252   2.872   4.700 -0.2427 -0.4898 -0.2410
  553MOL0     O72872   7.171   2.819   4.602  0.2792 -0.0708 -0.1251
  553MOL0     C72873   7.209   2.850   4.470  0.0633 -0.2079 -0.1729
  553MOL0     C72874   7.098   2.800   4.376  0.4428  0.0862 -0.0927
  553MOL0     C72875   6.968   2.869   4.405  0.4573  0.8286 -0.0852
  553MOL0     C72876   6.853   2.806   4.329  0.0343 -0.6998  0.1143
  553MOL0     C72877   6.726   2.898   4.331  0.6244 -0.6384 -0.4364
  553MOL0     C72878   6.623   2.830   4.238  0.3662 -0.1112 -0.5344
  553MOL0     C72879   6.483   2.894   4.240  0.3134  0.5057  0.2808
  553MOL0     C72880   6.397   2.871   4.360 -0.8414  0.2570 -0.3272
  553MOL0     N72881   6.251   2.883   4.327 -0.4349 -0.7777 -0.1847
  553MOL0     C72882   6.196   3.003   4.292  0.2429  0.3633  0.1152
  553MOL0     C72883   6.063   2.980   4.282 -0.2350  0.3989  0.4102
  553MOL0     C72884   5.967   3.075   4.235 -0.5189 -0.1635 -0.0326
  553MOL0     C72885   5.860   3.019   4.141 -0.0493  0.3634  0.9912
  553MOL0     C72886   5.748   3.115   4.112 -0.0496 -0.7626 -0.2278
  553MOL0     C72887   5.646   3.070   4.001 -0.5680 -0.1621  0.0927
  553MOL0     O72888   5.516   3.047   4.057 -0.2049 -0.3225  0.1204
  553MOL0     C72889   5.391   3.083   3.996 -1.4887  0.3541  0.1790
  553MOL0     C72890   5.361   3.205   3.913  0.2073  0.8590  0.0992
  553MOL0     C72891   5.235   3.211   3.847 -0.9416 -0.5118  0.1669
  553MOL0     C72892   5.130   3.125   3.880 -0.4112  0.2454 -0.2213
  553MOL0     C72893   4.992   3.151   3.832  0.0592  0.3990 -0.2063
  553MOL0     O72894   4.895   3.055   3.852 -0.0541  0.6997  0.0580
  553MOL0     C72895   4.764   3.084   3.818 -0.9827  0.0973  0.5212
  553MOL0     C72896   4.683   3.153   3.903  0.0321 -0.2265 -0.8334
  553MOL0     C72897   4.547   3.185   3.879  0.3715  0.7279 -0.8303
  553MOL0     C72898   4.498   3.147   3.752  0.3442  0.1228 -0.4110
  553MOL0     O72899   4.370   3.175   3.715 -0.2193 -0.2076 -0.4104
  553MOL0     C72900   4.371   3.277   3.613  0.0336  0.5110  0.1520
  553MOL0     C72901   4.282   3.404   3.649 -0.1431 -0.0344  0.4741
  553MOL0     C72902   4.344   3.491   3.762  0.4437 -0.5889  0.0195
  553MOL0     C72903   4.232   3.585   3.817  0.4153 -0.1310 -0.4371
  553MOL0     C72904   4.295   3.651   3.943 -1.1221 -0.3592 -0.8193
  553MOL0     C72905   4.208   3.758   3.994  0.2466  0.3546 -0.5227
  553MOL0     C72906   4.175   3.881   3.902  0.1704  0.7614  0.2021
  553MOL0     C72907   4.091   3.968   3.984 -0.5479 -0.5876  0.2797
  553MOL0    Cl72908   3.926   3.890   4.030  0.0334  0.0125 -0.1561
  553MOL0     C72909   4.568   3.069   3.666 -0.3468  0.0524 -1.0096
  553MOL0     C72910   4.704   3.031   3.700  0.2703 -2.0390 -0.2034
  553MOL0     O72911   4.976   3.254   3.777  0.2091  0.1632  0.6501
  553MOL0     C72912   5.162   3.024   3.973  0.4165 -0.5716 -0.4645
  553MOL0     C72913   5.290   3.000   4.028  0.5456 -0.3050  0.6352
  553MOL0     N72914   6.039   2.859   4.329  0.4354  0.9238  0.1518
  553MOL0     N72915   6.151   2.795   4.353 -0.9092 -1.0588  0.8257
  553MOL0     C72916   7.356   2.797   4.753  0.2621 -0.1605  0.2576
  553MOL0     C72917   7.440   2.852   4.859  0.4516  1.0939  0.5998
  553MOL0     C72918   7.604   3.022   5.218 -0.3812 -0.2509 -0.3717
  553MOL0     C72919   7.617   2.985   5.353 -0.2760  0.3318  1.1607
  553MOL0     C72920   7.707   3.055   5.432 -0.0231 -0.3009  0.6180
  553MOL0     C72921   7.777   3.166   5.388  0.2832 -0.3350  0.6490
  553MOL0     O72922   7.880   3.226   5.448  0.5184 -0.6385 -0.9383
  553MOL0     C72923   8.005   3.150   5.455  0.1828  0.2941 -0.2522
  553MOL0     C72924   8.104   3.206   5.564 -0.2990  0.6047 -0.2252
  553MOL0     C72925   8.042   3.255   5.701 -0.1261  0.3640 -0.3152
  553MOL0     C72926   7.960   3.161   5.791 -1.0652 -0.1956  0.0073
  553MOL0     C72927   8.046   3.066   5.860 -1.4236  0.1234 -0.1866
  553MOL0     C72928   8.126   2.989   5.910  0.1865  0.6028 -0.5354
  553MOL0     C72929   7.753   3.210   5.256  0.7332 -1.0096 -0.4978
  553MOL0     C72930   7.675   3.133   5.167  0.9154 -0.3869  0.2223
  553MOL0     H72931   7.281   3.146   4.889 -1.1776  1.1426 -0.1108
  553MOL0     H72932   7.139   3.044   4.715 -0.1228 -2.7095 -1.7917
  553MOL0     H72933   7.298   2.791   4.445  0.4993  0.5115 -0.3645
  553MOL0     H72934   7.231   2.955   4.450  0.8108 -0.8748 -3.3130
  553MOL0     H72935   7.078   2.693   4.393 -2.3212  0.8833  2.5545
  553MOL0     H72936   7.121   2.824   4.272  1.0564  2.3205  0.5212
  553MOL0     H72937   6.980   2.971   4.368 -0.3183  0.2263 -2.1084
  553MOL0     H72938   6.951   2.875   4.513  0.4927 -1.9637  0.1412
  553MOL0     H72939   6.886   2.798   4.225 -2.1358  2.9678 -1.0170
  553MOL0     H72940   6.837   2.711   4.381 -1.9971 -0.5322 -0.1154
  553MOL0     H72941   6.744   3.003   4.309 -1.4919  0.3686  2.1193
  553MOL0     H72942   6.683   2.894   4.431  0.2954 -0.1136 -0.5577
  553MOL0     H72943   6.605   2.726   4.267 -0.7694 -0.0591 -0.9728
  553MOL0     H72944   6.659   2.838   4.135  1.3989 -3.1859 -0.5124
  553MOL0     H72945   6.484   2.998   4.207 -3.1582  0.2464 -1.0989
  553MOL0     H72946   6.428   2.839   4.162  0.6321  0.3605  0.1576
  553MOL0     H72947   6.426   2.943   4.437  1.4732  0.2258 -1.1002
  553MOL0     H72948   6.416   2.768   4.392 -2.2545  0.5853  1.7943
  553MOL0     H72949   6.257   3.090   4.267 -0.1415  0.9067  1.0232
  553MOL0     H72950   6.023   3.155   4.185  0.1365 -1.1230 -0.8908
  553MOL0     H72951   5.933   3.121   4.328 -1.4957 -1.0323  0.0467
  553MOL0     H72952   5.807   2.929   4.174  0.8907 -1.0615 -1.1373
  553MOL0     H72953   5.903   3.009   4.041 -1.8023  2.3089 -0.0395
  553MOL0     H72954   5.696   3.136   4.206  3.5352  0.1782  1.7259
  553MOL0     H72955   5.793   3.213   4.091 -1.1825 -0.2090 -0.1599
  553MOL0     H72956   5.682   2.977   3.955  0.4424  0.9729 -1.5605
  553MOL0     H72957   5.646   3.154   3.930  3.3083  0.3866  0.4849
  553MOL0     H72958   5.439   3.275   3.886  0.9848  0.3537  0.9890
  553MOL0     H72959   5.223   3.299   3.785 -0.9046  0.4454  1.4698
  553MOL0     H72960   4.724   3.186   3.999 -1.8156 -0.6564  0.1468
  553MOL0     H72961   4.500   3.250   3.952  1.9480 -1.7914  2.7048
  553MOL0     H72962   4.332   3.227   3.524 -0.0761  0.4257  0.2484
  553MOL0     H72963   4.469   3.321   3.594 -0.4672  1.3913 -0.4812
  553MOL0     H72964   4.186   3.375   3.691 -0.5299  0.1138 -0.2960
  553MOL0     H72965   4.277   3.472   3.563  1.1251  1.0263  1.1866
  553MOL0     H72966   4.424   3.555   3.724  0.3651 -1.2369 -1.3088
  553MOL0     H72967   4.400   3.430   3.833  0.2113  1.9144  2.5230
  553MOL0     H72968   4.203   3.661   3.744  2.7757  0.2766 -1.0125
  553MOL0     H72969   4.141   3.529   3.841 -0.5025  1.3435 -0.3323
  553MOL0     H72970   4.389   3.700   3.917 -1.0559 -1.1490 -2.1838
  553MOL0     H72971   4.316   3.576   4.019  0.7936  1.2974  0.3948
  553MOL0     H72972   4.255   3.787   4.088 -1.7998  0.1544  0.6038
  553MOL0     H72973   4.113   3.709   4.015 -0.2168  0.3614 -2.4144
  553MOL0     H72974   4.262   3.943   3.876 -1.0169  2.2800 -0.3094
  553MOL0     H72975   4.122   3.850   3.811  1.3952 -0.3769 -0.1499
  553MOL0     H72976   4.074   4.061   3.930 -1.9730  0.2498  2.0635
  553MOL0     H72977   4.141   3.995   4.077  0.1101  1.3521 -0.6012
  553MOL0     H72978   4.522   3.027   3.577  0.0805  0.3283 -1.3631
  553MOL0     H72979   4.754   2.982   3.618  0.5194 -1.8839 -0.1458
  553MOL0     H72980   5.079   2.969   4.017 -1.1222  0.6504 -1.7440
  553MOL0     H72981   5.302   2.918   4.098 -2.2922  0.0942  1.6874
  553MOL0     H72982   7.382   2.703   4.707 -2.6492 -1.1378  0.4117
  553MOL0     H72983   7.523   2.791   4.895  1.5324  1.9493 -0.3824
  553MOL0     H72984   7.558   2.902   5.392  0.0740 -1.6868 -2.2066
  553MOL0     H72985   7.729   3.026   5.534 -0.4079 -1.1557  0.4631
  553MOL0     H72986   8.070   3.151   5.368  0.6068 -1.5338 -0.0119
  553MOL0     H72987   7.979   3.045   5.473 -0.9402  1.1829  5.0693
  553MOL0     H72988   8.178   3.128   5.584 -0.4378  1.0481  2.4512
  553MOL0     H72989   8.155   3.296   5.528 -0.0123  0.7737  0.5774
  553MOL0     H72990   7.972   3.337   5.682 -0.9666 -0.3710 -0.4753
  553MOL0     H72991   8.123   3.303   5.756 -1.5967  2.0673  0.4840
  553MOL0     H72992   7.903   3.217   5.865  1.3706  1.7732  0.5135
  553MOL0     H72993   7.876   3.112   5.740 -1.9209 -1.7595  2.6923
  553MOL0     H72994   8.202   2.921   5.944  1.5085  1.5238 -1.5691
  553MOL0     H72995   7.800   3.305   5.230  0.3937  0.0019  2.2435
  553MOL0     H72996   7.658   3.164   5.064 -0.0063  0.0590  0.4993
  554MOL0     O72997   1.812   7.698   0.743 -0.3709 -0.3889  0.1925
  554MOL0     C72998   1.759   7.809   0.730 -0.5888  0.2756  0.2241
  554MOL0     O72999   1.629   7.828   0.705  0.2109 -0.8256  0.0204
  554MOL0     C73000   1.559   7.736   0.637  0.4635  0.7735 -0.9841
  554MOL0     C73001   1.595   7.683   0.520 -0.4125 -0.8595 -0.3420
  554MOL0     C73002   1.521   7.590   0.450 -0.5680 -1.1733  0.4282
  554MOL0     C73003   1.406   7.541   0.505  0.2410  0.4212  0.3256
  554MOL0     O73004   1.338   7.442   0.431 -0.3949 -0.5011 -0.0631
  554MOL0     C73005   1.230   7.377   0.494  0.2530  0.9991  0.4142
  554MOL0     C73006   1.165   7.290   0.394  0.7140 -0.2007 -0.1680
  554MOL0     C73007   1.227   7.159   0.362 -0.0542 -0.2728  0.2716
  554MOL0     C73008   1.353   7.162   0.280  0.3862  0.0477  0.0309
  554MOL0     C73009   1.419   7.022   0.272 -0.1965 -0.7622  0.5094
  554MOL0     C73010   1.343   6.927   0.182 -0.0500 -0.9584  0.3400
  554MOL0     C73011   1.421   6.790   0.193  0.2772 -0.1164 -0.7146
  554MOL0     C73012   1.387   6.696   0.074  0.8932  0.4472  0.2734
  554MOL0     N73013   1.241   6.662   0.067 -1.0495 -0.4188  0.3764
  554MOL0     C73014   1.192   6.566   0.150  0.0195  0.0725 -0.0387
  554MOL0     C73015   1.079   6.513   0.096 -0.4599 -0.3693 -0.5928
  554MOL0     C73016   0.986   6.417   0.166 -0.0348 -0.0481  0.2170
  554MOL0     C73017   0.845   6.485   0.187  0.2245 -0.1104  0.2219
  554MOL0     C73018   0.754   6.448   0.066 -0.0686  1.3826  0.3938
  554MOL0     C73019   0.702   6.305   0.055 -0.3822  0.1805 -0.6218
  554MOL0     O73020   0.571   6.297   0.111  0.3319  0.0699 -0.6727
  554MOL0     C73021   0.447   6.327   0.044 -0.7352 -0.4528  0.1440
  554MOL0     C73022   0.329   6.262   0.081  1.0018 -0.4764  0.6103
  554MOL0     C73023   0.208   6.288   0.017  0.2348 -0.6301 -0.5775
  554MOL0     C73024   0.206   6.374  -0.088 -0.9294  0.1327  0.0009
  554MOL0     C73025   0.080   6.403  -0.159 -0.3829  0.3101 -0.2086
  554MOL0     O73026  -0.024   6.318  -0.142  0.0802 -0.1573  0.4486
  554MOL0     C73027  -0.155   6.336  -0.201  1.0479 -0.0596 -0.0679
  554MOL0     C73028  -0.219   6.452  -0.253  1.1197 -1.0480  0.3904
  554MOL0     C73029  -0.354   6.447  -0.308 -0.4138  0.3536  0.4775
  554MOL0     C73030  -0.430   6.334  -0.300 -0.2220  0.4682 -0.0891
  554MOL0     O73031  -0.556   6.340  -0.354  0.2275  0.5132  0.5685
  554MOL0     C73032  -0.644   6.221  -0.362  0.2671 -0.5866 -0.1576
  554MOL0     C73033  -0.725   6.229  -0.491  0.3616 -0.2721  0.5485
  554MOL0     C73034  -0.835   6.342  -0.484  0.4112  0.2799 -0.2320
  554MOL0     C73035  -0.956   6.306  -0.406 -0.0605  0.4133  0.2011
  554MOL0     C73036  -1.069   6.407  -0.439 -0.1396  0.0280  0.1850
  554MOL0     C73037  -1.184   6.370  -0.349 -0.2646 -0.4580  0.4197
  554MOL0     C73038  -1.282   6.480  -0.372  0.2293 -0.2952  0.1908
  554MOL0     C73039  -1.398   6.459  -0.277 -0.8629  0.7498 -0.0102
  554MOL0    Cl73040  -1.504   6.599  -0.278 -0.1619 -0.3669  0.3030
  554MOL0     C73041  -0.379   6.225  -0.239 -0.7463  0.1244 -0.2030
  554MOL0     C73042  -0.236   6.222  -0.203 -0.0721  0.2446 -0.1609
  554MOL0     O73043   0.079   6.500  -0.236 -0.1888  0.1605 -0.3543
  554MOL0     C73044   0.326   6.433  -0.138  1.2542 -0.3706 -0.5951
  554MOL0     C73045   0.448   6.417  -0.069  0.5362 -0.5684 -0.3351
  554MOL0     N73046   1.078   6.553  -0.034 -0.0347 -0.0105  0.6473
  554MOL0     N73047   1.164   6.650  -0.050  0.0285  0.6696 -0.1283
  554MOL0     C73048   1.358   7.610   0.620 -0.7686  0.0022  1.1162
  554MOL0     C73049   1.437   7.707   0.688 -0.1936  0.5083  0.1509
  554MOL0     C73050   1.831   7.927   0.775  0.1538  0.8953 -0.6179
  554MOL0     C73051   1.961   7.912   0.816 -0.5442  0.2038 -0.5982
  554MOL0     C73052   2.040   8.017   0.853  0.2706 -0.2124  0.1713
  554MOL0     C73053   1.981   8.146   0.859  0.3163  0.3466  0.1173
  554MOL0     O73054   2.074   8.236   0.867 -0.6443 -0.8439 -0.8580
  554MOL0     C73055   2.045   8.371   0.867 -0.3809 -0.7565  0.2841
  554MOL0     C73056   1.993   8.415   1.004  0.5100  0.7674  0.4965
  554MOL0     C73057   2.107   8.475   1.075 -0.6014  0.3635 -0.6676
  554MOL0     C73058   2.055   8.549   1.196  0.3268  0.0266 -0.2533
  554MOL0     C73059   2.162   8.584   1.291 -0.0467  0.4146 -0.8301
  554MOL0     C73060   2.246   8.629   1.369 -0.7529  0.8004 -0.3853
  554MOL0     C73061   1.844   8.172   0.824 -0.5065  0.3224  0.2229
  554MOL0     C73062   1.768   8.061   0.777  0.4105  0.5958  0.0969
  554MOL0     H73063   1.691   7.712   0.478 -1.6579 -0.0313 -2.7754
  554MOL0     H73064   1.570   7.535   0.370 -1.8632 -1.9596  0.1482
  554MOL0     H73065   1.153   7.447   0.527 -0.0930  1.0423 -0.4500
  554MOL0     H73066   1.273   7.320   0.577 -1.6643  1.4746  1.7908
  554MOL0     H73067   1.141   7.361   0.314 -1.2780 -1.0113 -0.3426
  554MOL0     H73068   1.070   7.260   0.440  0.6421 -0.3963 -0.4457
  554MOL0     H73069   1.159   7.093   0.307  2.7995 -1.9969 -1.4289
  554MOL0     H73070   1.244   7.120   0.462  0.3818  0.6076  0.5505
  554MOL0     H73071   1.323   7.198   0.181 -1.4077  1.5637  1.0825
  554MOL0     H73072   1.419   7.232   0.331 -0.6103  0.5781  0.6175
  554MOL0     H73073   1.444   6.978   0.369  0.1471  2.0973  1.7929
  554MOL0     H73074   1.514   7.036   0.219 -0.1995 -0.9662  0.4493
  554MOL0     H73075   1.348   6.966   0.079 -1.2342 -3.2103 -0.6534
  554MOL0     H73076   1.238   6.936   0.210  0.5552  4.3721  1.8690
  554MOL0     H73077   1.529   6.810   0.194  0.1743  1.6841  4.5981
  554MOL0     H73078   1.401   6.740   0.288  1.8087  4.3487  2.2905
  554MOL0     H73079   1.442   6.602   0.084  0.8886  0.5814  1.7850
  554MOL0     H73080   1.426   6.756  -0.010  4.0936  1.6889  2.4404
  554MOL0     H73081   1.239   6.543   0.245  4.8004  0.8360 -1.9588
  554MOL0     H73082   1.017   6.379   0.263 -0.2903 -1.1517 -0.1261
  554MOL0     H73083   0.973   6.331   0.100 -0.2003 -0.7486  1.1515
  554MOL0     H73084   0.854   6.594   0.192 -1.4136  0.0082  1.5803
  554MOL0     H73085   0.795   6.446   0.276 -0.7218  0.0357 -0.2219
  554MOL0     H73086   0.664   6.510   0.081  0.8039  3.0531 -0.9167
  554MOL0     H73087   0.800   6.475  -0.030 -0.6345  2.3885  0.3851
  554MOL0     H73088   0.762   6.237   0.117 -4.5144 -1.3002  2.1524
  554MOL0     H73089   0.706   6.264  -0.046  2.1348 -1.7120  0.1447
  554MOL0     H73090   0.325   6.190   0.162  0.8439 -2.0109 -0.7010
  554MOL0     H73091   0.119   6.235   0.050  0.1724 -0.8082 -1.0322
  554MOL0     H73092  -0.167   6.545  -0.268 -0.3454 -0.3627 -0.7117
  554MOL0     H73093  -0.386   6.534  -0.364 -0.0445 -0.1224 -0.5025
  554MOL0     H73094  -0.709   6.234  -0.275  1.3911  1.0513  0.4906
  554MOL0     H73095  -0.584   6.130  -0.359  2.1711  0.6305  1.9525
  554MOL0     H73096  -0.772   6.134  -0.519  0.8392  0.0357 -1.4342
  554MOL0     H73097  -0.656   6.242  -0.574 -2.0912  0.9732 -1.4203
  554MOL0     H73098  -0.860   6.358  -0.589 -2.4409 -2.8824 -0.2023
  554MOL0     H73099  -0.789   6.431  -0.439 -0.6289 -0.1137  1.7311
  554MOL0     H73100  -0.992   6.203  -0.412  0.8327 -0.0761  2.4106
  554MOL0     H73101  -0.926   6.321  -0.302 -0.7198  0.0001  0.4549
  554MOL0     H73102  -1.089   6.399  -0.546  1.6578 -0.3058 -0.1633
  554MOL0     H73103  -1.032   6.506  -0.410  2.0475 -1.4069  2.8175
  554MOL0     H73104  -1.154   6.378  -0.245 -1.1373 -0.1618  0.6550
  554MOL0     H73105  -1.221   6.267  -0.363  2.3830 -1.4891  0.4803
  554MOL0     H73106  -1.225   6.572  -0.359  1.4783 -0.6977 -1.9645
  554MOL0     H73107  -1.323   6.491  -0.473  0.3461 -2.7731 -0.2033
  554MOL0     H73108  -1.372   6.448  -0.172 -4.1971  2.8447  1.2006
  554MOL0     H73109  -1.463   6.377  -0.308  0.5084  0.8691 -3.6400
  554MOL0     H73110  -0.424   6.126  -0.242  0.6762 -0.5252 -1.0675
  554MOL0     H73111  -0.198   6.128  -0.166 -1.0102  0.2470  0.8843
  554MOL0     H73112   0.323   6.503  -0.221  0.2158 -2.8331 -2.7493
  554MOL0     H73113   0.539   6.469  -0.096  1.1506  0.0233  2.5490
  554MOL0     H73114   1.262   7.589   0.666  0.3383 -2.0023  2.6655
  554MOL0     H73115   1.403   7.765   0.773  1.5049 -1.4030  2.2659
  554MOL0     H73116   2.006   7.813   0.812  3.0288  1.7058 -2.6552
  554MOL0     H73117   2.146   8.003   0.871 -0.1570 -1.0752  2.2626
  554MOL0     H73118   1.974   8.394   0.786 -0.8992  1.3572  1.2683
  554MOL0     H73119   2.130   8.434   0.839 -1.1675 -0.2207 -0.9847
  554MOL0     H73120   1.909   8.481   0.981 -0.7122 -1.7459 -3.0553
  554MOL0     H73121   1.958   8.336   1.070  2.4590 -0.2418  0.3931
  554MOL0     H73122   2.159   8.550   1.015 -0.7145  0.5085 -0.5852
  554MOL0     H73123   2.174   8.389   1.083 -0.1673  0.3007 -3.7904
  554MOL0     H73124   2.000   8.640   1.169 -1.2814 -0.9788 -0.5274
  554MOL0     H73125   1.978   8.490   1.247 -0.4553  0.1298 -1.2758
  554MOL0     H73126   2.319   8.643   1.446 -2.4215 -2.1658  1.9170
  554MOL0     H73127   1.813   8.276   0.818  3.7871  1.9684  2.3426
  554MOL0     H73128   1.667   8.073   0.740  0.8903  1.2569 -1.0717
  555MOL0     O73129   2.351   2.941   7.852 -0.4541 -0.8832  0.1185
  555MOL0     C73130   2.362   2.987   7.739  1.6077 -0.4503  0.1127
  555MOL0     O73131   2.257   3.030   7.656 -0.8116 -0.1301  0.2441
  555MOL0     C73132   2.130   3.039   7.709  0.0589  0.2617  0.2232
  555MOL0     C73133   2.034   3.057   7.608  0.2328 -0.7244 -0.2211
  555MOL0     C73134   1.894   3.060   7.641 -0.6985 -1.0307  0.5034
  555MOL0     C73135   1.848   3.032   7.768  0.4304 -0.3198  0.9281
  555MOL0     O73136   1.712   3.047   7.791  0.1311 -0.4178  0.0917
  555MOL0     C73137   1.665   2.999   7.918  0.5276  0.5898  0.1909
  555MOL0     C73138   1.529   2.944   7.892  0.4950  0.1315 -0.5864
  555MOL0     C73139   1.420   3.057   7.892 -1.0520  0.3716  0.0119
  555MOL0     C73140   1.277   3.013   7.936  0.6900  0.8946  0.0690
  555MOL0     C73141   1.186   3.132   7.969 -0.3819 -0.4299  0.2021
  555MOL0     C73142   1.206   3.200   8.106 -0.0489 -0.0963 -1.1985
  555MOL0     C73143   1.112   3.324   8.139 -0.7925  0.0704 -0.3219
  555MOL0     C73144   1.110   3.440   8.036 -0.6781 -0.2269 -0.5487
  555MOL0     N73145   1.246   3.498   8.024  0.2227 -0.1601  0.2472
  555MOL0     C73146   1.285   3.570   7.908  0.2638  0.1692 -0.3865
  555MOL0     C73147   1.406   3.623   7.936 -0.4115  0.4199  1.5018
  555MOL0     C73148   1.477   3.713   7.855 -0.5987 -0.2444  0.4947
  555MOL0     C73149   1.622   3.657   7.832 -0.6098 -0.1689 -0.6598
  555MOL0     C73150   1.706   3.648   7.966  0.8141  0.3162  0.1340
  555MOL0     C73151   1.849   3.655   7.953 -1.0188 -0.9367  0.6449
  555MOL0     O73152   1.908   3.530   7.910  0.0221  0.0102  0.5328
  555MOL0     C73153   2.035   3.517   7.882 -0.4863 -0.2846 -0.0093
  555MOL0     C73154   2.080   3.384   7.849  0.3160  0.0717 -0.2277
  555MOL0     C73155   2.208   3.360   7.802 -0.8431  0.3628  0.1446
  555MOL0     C73156   2.304   3.463   7.795  0.2333  0.6000 -0.3319
  555MOL0     C73157   2.445   3.443   7.732  0.0553 -0.0993 -0.3726
  555MOL0     O73158   2.524   3.564   7.714  1.2640  0.5546  0.5015
  555MOL0     C73159   2.648   3.536   7.679 -1.6505 -0.2863 -0.3483
  555MOL0     C73160   2.700   3.643   7.600  0.2826 -0.2271 -0.8963
  555MOL0     C73161   2.823   3.634   7.524  0.5108  0.9232  0.3791
  555MOL0     C73162   2.899   3.516   7.532  2.0889 -0.2108 -0.0807
  555MOL0     O73163   3.006   3.494   7.453  0.2542 -0.3332 -0.5299
  555MOL0     C73164   3.102   3.603   7.421 -0.1159 -0.8543 -0.2817
  555MOL0     C73165   3.187   3.647   7.541  0.1742  0.0468 -1.4651
  555MOL0     C73166   3.299   3.546   7.570  0.1786 -0.1111  0.1946
  555MOL0     C73167   3.261   3.406   7.635 -0.0742  0.2427 -0.4159
  555MOL0     C73168   3.379   3.339   7.707  0.0446  0.7794 -0.1815
  555MOL0     C73169   3.375   3.175   7.700 -0.3085 -0.5042  0.4210
  555MOL0     C73170   3.479   3.132   7.806  0.2501  0.2456 -0.1484
  555MOL0     C73171   3.483   2.977   7.821 -0.5010 -0.1054 -0.6458
  555MOL0    Cl73172   3.546   2.913   7.670 -0.2042  0.5368  0.2758
  555MOL0     C73173   2.844   3.408   7.610 -0.4353 -1.0673 -0.9193
  555MOL0     C73174   2.729   3.423   7.694  0.0673  0.6809 -0.2829
  555MOL0     O73175   2.472   3.328   7.706  0.1747 -0.0331 -0.0145
  555MOL0     C73176   2.270   3.591   7.835  0.1599 -0.0930  0.5821
  555MOL0     C73177   2.139   3.621   7.877  0.4039 -0.2770 -0.5889
  555MOL0     N73178   1.436   3.599   8.066  0.1690 -0.1016 -0.1043
  555MOL0     N73179   1.333   3.539   8.122  0.4396  0.4583 -0.4675
  555MOL0     C73180   1.947   3.021   7.863 -0.0581 -0.4717 -0.8231
  555MOL0     C73181   2.078   3.024   7.837 -0.1546  0.2523 -0.2310
  555MOL0     C73182   2.492   2.965   7.678  0.3266  0.2859 -0.2601
  555MOL0     C73183   2.571   2.856   7.712  0.3363  0.6297  0.0885
  555MOL0     C73184   2.712   2.854   7.685  0.1471 -0.2903  0.5789
  555MOL0     C73185   2.765   2.962   7.613  0.7278 -0.0642 -0.7899
  555MOL0     O73186   2.891   2.928   7.569 -0.1489 -0.1934 -0.0011
  555MOL0     C73187   2.953   3.016   7.473  0.9288 -0.2751  0.8604
  555MOL0     C73188   3.100   3.014   7.462  0.1030 -0.0366 -0.4749
  555MOL0     C73189   3.148   2.869   7.429 -0.4685  0.0849  0.3106
  555MOL0     C73190   3.298   2.842   7.440 -0.1511 -0.2623 -0.4628
  555MOL0     C73191   3.344   2.714   7.394 -0.3824  0.1177  0.0817
  555MOL0     C73192   3.382   2.604   7.361 -0.4502  0.2036  0.5659
  555MOL0     C73193   2.688   3.065   7.571  0.6213  0.9720 -0.3573
  555MOL0     C73194   2.550   3.062   7.600  0.5255  0.6587 -0.4672
  555MOL0     H73195   2.072   3.072   7.508  1.1433 -0.2867  0.1804
  555MOL0     H73196   1.822   3.077   7.562  1.2537 -2.8130 -1.8209
  555MOL0     H73197   1.658   3.082   7.989  2.4041  0.4917  0.5434
  555MOL0     H73198   1.727   2.925   7.969 -1.1639 -0.8592  0.2565
  555MOL0     H73199   1.506   2.875   7.973 -2.8942 -0.5126 -1.9159
  555MOL0     H73200   1.543   2.894   7.795  0.9201  0.8089 -0.8780
  555MOL0     H73201   1.425   3.116   7.801 -0.3023 -0.4598 -0.5017
  555MOL0     H73202   1.452   3.127   7.970  0.0447 -0.5521  0.4152
  555MOL0     H73203   1.226   2.943   7.870  0.2649  1.6741 -0.4397
  555MOL0     H73204   1.288   2.956   8.029  0.0566  0.7859  0.0830
  555MOL0     H73205   1.082   3.099   7.957 -0.0149 -1.8115  0.6134
  555MOL0     H73206   1.213   3.203   7.890  0.2951  0.4357  1.1811
  555MOL0     H73207   1.312   3.220   8.118  0.8826 -5.0240  1.0932
  555MOL0     H73208   1.192   3.130   8.188  1.5764  1.2608  0.3114
  555MOL0     H73209   1.012   3.279   8.140 -2.0985  2.6644 -2.4478
  555MOL0     H73210   1.133   3.361   8.239 -0.7053 -2.1950  0.5607
  555MOL0     H73211   1.042   3.518   8.073 -3.3094 -2.1085 -1.1355
  555MOL0     H73212   1.076   3.411   7.936 -1.6212  0.4128 -0.4317
  555MOL0     H73213   1.224   3.587   7.820 -1.5522  2.6134  1.2298
  555MOL0     H73214   1.483   3.812   7.900  1.6838  0.3540 -0.9385
  555MOL0     H73215   1.441   3.726   7.752  0.0313  0.4403  0.3516
  555MOL0     H73216   1.676   3.715   7.756  0.6618  1.1376  1.1384
  555MOL0     H73217   1.598   3.554   7.803 -1.6546  0.0438 -0.5889
  555MOL0     H73218   1.666   3.736   8.017 -1.5374 -0.2819 -0.5824
  555MOL0     H73219   1.687   3.555   8.020  0.4070  1.5560  2.2348
  555MOL0     H73220   1.888   3.680   8.052  2.0491  3.9393 -1.4253
  555MOL0     H73221   1.885   3.739   7.894 -1.5461  1.1045  3.0469
  555MOL0     H73222   2.017   3.295   7.853  0.1508  0.2104  0.5506
  555MOL0     H73223   2.236   3.256   7.788 -1.9705  0.1127 -0.3076
  555MOL0     H73224   2.643   3.734   7.582  1.4014  0.5553 -0.6005
  555MOL0     H73225   2.850   3.718   7.460  0.1329  1.4449  0.8834
  555MOL0     H73226   3.056   3.691   7.375  0.0810 -1.6753 -2.1127
  555MOL0     H73227   3.165   3.570   7.338  2.5301  0.6235  1.0097
  555MOL0     H73228   3.116   3.636   7.623  0.9056 -0.4105 -0.8749
  555MOL0     H73229   3.214   3.753   7.540  0.3338  0.0961  1.1508
  555MOL0     H73230   3.365   3.596   7.641 -0.5123 -0.9879  1.4903
  555MOL0     H73231   3.350   3.527   7.475 -1.3468 -0.0009 -0.6741
  555MOL0     H73232   3.185   3.411   7.714  0.2871 -1.4599  0.0682
  555MOL0     H73233   3.210   3.342   7.562 -1.0872 -0.0219  0.5019
  555MOL0     H73234   3.379   3.381   7.808  0.2679 -1.2434  0.6995
  555MOL0     H73235   3.468   3.364   7.649  0.0537 -0.5104 -0.7629
  555MOL0     H73236   3.394   3.140   7.598 -0.3661 -0.8673  0.5343
  555MOL0     H73237   3.275   3.138   7.724  0.3571 -1.2087  2.3615
  555MOL0     H73238   3.582   3.161   7.782 -0.3227  1.0893 -1.7306
  555MOL0     H73239   3.450   3.188   7.895 -1.0993  1.2461 -1.1658
  555MOL0     H73240   3.389   2.925   7.843 -1.4973  0.6949 -2.7383
  555MOL0     H73241   3.560   2.956   7.896  0.6415  1.8259 -1.2124
  555MOL0     H73242   2.913   3.329   7.637  0.5267  0.7594  2.8018
  555MOL0     H73243   2.709   3.342   7.763 -0.2615  3.6934  3.5138
  555MOL0     H73244   2.343   3.671   7.835  0.6807 -0.5597  0.3564
  555MOL0     H73245   2.107   3.720   7.908  0.1830  0.0103 -1.6813
  555MOL0     H73246   1.920   2.987   7.962  0.9638 -2.5397 -1.1940
  555MOL0     H73247   2.144   2.997   7.919 -1.5430  0.6011  1.0563
  555MOL0     H73248   2.522   2.768   7.752  0.5314  0.3200 -0.3419
  555MOL0     H73249   2.771   2.765   7.702  0.1673 -0.2693  0.6194
  555MOL0     H73250   2.919   3.117   7.497 -2.5462 -1.3578  1.1141
  555MOL0     H73251   2.910   2.996   7.374  0.7272 -0.0295  0.8984
  555MOL0     H73252   3.136   3.080   7.382 -3.3879  3.2193  0.3133
  555MOL0     H73253   3.137   3.040   7.561 -0.9988 -0.1220 -0.0215
  555MOL0     H73254   3.120   2.827   7.332 -1.5910 -2.8624  1.7854
  555MOL0     H73255   3.097   2.800   7.497 -0.3335  0.8683  1.2225
  555MOL0     H73256   3.364   2.907   7.381  2.5784 -1.6131  0.9023
  555MOL0     H73257   3.329   2.866   7.542  0.3697 -2.0084 -0.1782
  555MOL0     H73258   3.405   2.506   7.326 -1.1748 -0.3133  1.5181
  555MOL0     H73259   2.736   3.150   7.523 -0.5594  1.3038 -0.9632
  555MOL0     H73260   2.485   3.145   7.573 -1.2915  0.0298  1.6421
  556MOL0     O73261   7.354   2.732   1.253 -0.1144 -0.2030 -0.9042
  556MOL0     C73262   7.332   2.850   1.274 -0.0357 -0.1940  0.5031
  556MOL0     O73263   7.421   2.954   1.249 -0.0693 -0.0985 -0.1381
  556MOL0     C73264   7.558   2.952   1.228  1.0260  0.5681 -0.2414
  556MOL0     C73265   7.633   2.838   1.232  0.1103  0.1128 -0.4606
  556MOL0     C73266   7.769   2.835   1.216 -0.1285 -0.3647 -0.0728
  556MOL0     C73267   7.834   2.954   1.188 -0.5283 -0.0034  0.7282
  556MOL0     O73268   7.966   2.940   1.162  0.3376  0.0400  0.3536
  556MOL0     C73269   8.021   3.033   1.066  0.2820  0.1728  0.1861
  556MOL0     C73270   8.155   2.992   1.019  0.0264  1.0783  0.3980
  556MOL0     C73271   8.220   3.093   0.926  1.0667 -0.1661 -0.2867
  556MOL0     C73272   8.357   3.055   0.873 -0.2986  0.1442  0.9536
  556MOL0     C73273   8.397   3.151   0.762  0.6859 -0.2142  0.4777
  556MOL0     C73274   8.546   3.138   0.725  0.1774 -0.6766  0.4824
  556MOL0     C73275   8.596   3.257   0.638  0.2493 -0.1912 -0.1045
  556MOL0     C73276   8.745   3.230   0.600  0.2435  0.9656  0.5007
  556MOL0     N73277   8.762   3.108   0.516 -1.0916 -0.8754 -0.3349
  556MOL0     C73278   8.662   3.060   0.424 -1.1377 -0.7971  0.1582
  556MOL0     C73279   8.679   2.926   0.428  0.7052  0.6574 -0.2126
  556MOL0     C73280   8.583   2.834   0.341 -0.6210  1.0848 -0.1506
  556MOL0     C73281   8.661   2.807   0.203  0.0225  0.1425 -0.9938
  556MOL0     C73282   8.584   2.723   0.096 -0.1398  0.5769  0.2790
  556MOL0     C73283   8.441   2.768   0.076 -0.1670 -0.5804  0.1992
  556MOL0     O73284   8.347   2.700   0.155  0.2180  0.5482 -0.0509
  556MOL0     C73285   8.220   2.710   0.114 -0.2841 -0.5243  0.1631
  556MOL0     C73286   8.151   2.587   0.124 -0.4196 -0.4516  0.2629
  556MOL0     C73287   8.019   2.579   0.080 -1.0150 -0.2801 -0.5078
  556MOL0     C73288   7.956   2.690   0.005  0.6233  0.2238  0.3767
  556MOL0     C73289   7.827   2.677  -0.050 -0.1814 -0.8276  0.1315
  556MOL0     O73290   7.750   2.570  -0.005 -0.0347 -0.1164 -0.7561
  556MOL0     C73291   7.616   2.561  -0.038  0.6295  0.8977 -0.3992
  556MOL0     C73292   7.550   2.461   0.030  0.2103  0.4083  0.0757
  556MOL0     C73293   7.413   2.433   0.013  0.0397 -1.0750 -0.4160
  556MOL0     C73294   7.337   2.517  -0.067  0.3821 -0.2017  0.8066
  556MOL0     O73295   7.198   2.513  -0.093  0.3024  0.8704 -0.5962
  556MOL0     C73296   7.122   2.426  -0.007 -0.4386 -0.1014  0.1368
  556MOL0     C73297   6.971   2.465  -0.005  0.5071 -0.5728  0.3101
  556MOL0     C73298   6.921   2.452  -0.148  0.2041 -0.5423  0.0484
  556MOL0     C73299   6.791   2.523  -0.164  0.4689 -0.6726 -0.4312
  556MOL0     C73300   6.671   2.463  -0.085  0.5155  0.9576 -0.2729
  556MOL0     C73301   6.545   2.548  -0.076  0.5099 -0.6267  0.1874
  556MOL0     C73302   6.439   2.485   0.019 -0.5255  0.2250  0.5921
  556MOL0     C73303   6.310   2.565   0.015  0.5126 -0.0876 -0.7219
  556MOL0    Cl73304   6.188   2.491   0.125 -0.2904 -0.3079 -0.3101
  556MOL0     C73305   7.403   2.608  -0.148  0.2281 -0.4932  0.2155
  556MOL0     C73306   7.538   2.629  -0.134 -0.8779  0.2697  0.3449
  556MOL0     O73307   7.792   2.772  -0.120 -0.1678 -0.3267  0.1744
  556MOL0     C73308   8.031   2.809   0.003 -0.3442 -0.2124 -0.4723
  556MOL0     C73309   8.157   2.829   0.069 -0.5698  0.1041 -0.0588
  556MOL0     N73310   8.776   2.894   0.514  0.0006  0.0982  0.4138
  556MOL0     N73311   8.827   2.999   0.563  0.0558  0.0484  0.0762
  556MOL0     C73312   7.767   3.073   1.188 -0.9436 -0.4069  0.5114
  556MOL0     C73313   7.625   3.073   1.213  0.3997 -0.0313  0.5123
  556MOL0     C73314   7.199   2.896   1.307  0.6336  0.2276  0.5871
  556MOL0     C73315   7.173   3.035   1.324 -0.0589  0.5183  0.7571
  556MOL0     C73316   7.037   3.083   1.338  0.0803  0.5206  0.4931
  556MOL0     C73317   6.935   2.990   1.362  0.5717 -0.6668  0.7116
  556MOL0     O73318   6.826   3.049   1.413  1.3106  0.2923 -0.2436
  556MOL0     C73319   6.716   2.960   1.449 -0.1430 -0.3324 -0.1469
  556MOL0     C73320   6.637   2.896   1.329  0.4204  0.1409  0.4568
  556MOL0     C73321   6.522   2.804   1.364  0.4545 -0.2285 -0.1679
  556MOL0     C73322   6.464   2.762   1.237 -0.0854 -0.2114  0.2632
  556MOL0     C73323   6.343   2.687   1.272  0.1923 -0.4310  0.1629
  556MOL0     C73324   6.246   2.626   1.309 -0.1065  0.4741  0.1153
  556MOL0     C73325   6.959   2.854   1.341 -0.6001  0.2384 -0.0217
  556MOL0     C73326   7.091   2.810   1.326  0.7660  0.0127  0.8265
  556MOL0     H73327   7.578   2.749   1.261 -0.8139  0.7523 -0.2166
  556MOL0     H73328   7.824   2.744   1.236  0.8683  0.4731  1.1758
  556MOL0     H73329   8.030   3.134   1.108 -2.4650  2.1994 -3.4658
  556MOL0     H73330   7.953   3.048   0.982 -1.1469  0.2565  1.3114
  556MOL0     H73331   8.144   2.892   0.976 -1.6286  0.1269  2.7802
  556MOL0     H73332   8.204   2.987   1.117 -0.5853 -0.9268  0.6468
  556MOL0     H73333   8.215   3.188   0.980 -2.4257 -0.4116  0.1050
  556MOL0     H73334   8.149   3.105   0.844  0.4929 -0.8582  0.0950
  556MOL0     H73335   8.426   3.064   0.958  0.4052 -1.1830  0.5583
  556MOL0     H73336   8.357   2.952   0.836 -1.3298  0.6584 -0.5957
  556MOL0     H73337   8.375   3.253   0.795 -2.1031 -0.6006  0.0536
  556MOL0     H73338   8.335   3.139   0.673  2.2225 -1.0869 -0.5110
  556MOL0     H73339   8.562   3.048   0.664 -0.4528 -1.5662  1.6039
  556MOL0     H73340   8.610   3.140   0.814  2.3653  2.5827 -0.9318
  556MOL0     H73341   8.550   3.282   0.542  1.2687  0.5464 -0.4153
  556MOL0     H73342   8.607   3.350   0.696  0.0521 -1.2478  1.6975
  556MOL0     H73343   8.799   3.218   0.694  0.8373 -2.2652 -0.1267
  556MOL0     H73344   8.795   3.307   0.541  4.7132 -1.5400  0.5348
  556MOL0     H73345   8.598   3.126   0.366 -1.3508  0.9845  2.2700
  556MOL0     H73346   8.484   2.880   0.330 -1.9753 -1.4579  0.6613
  556MOL0     H73347   8.577   2.734   0.385  0.7114  0.0630 -2.1637
  556MOL0     H73348   8.763   2.769   0.220  1.9626  3.5047 -3.8598
  556MOL0     H73349   8.680   2.903   0.155 -1.5091 -0.4376 -2.8863
  556MOL0     H73350   8.642   2.727   0.003 -0.1532 -1.1838  0.1628
  556MOL0     H73351   8.588   2.617   0.124  1.6117  0.4710 -0.2597
  556MOL0     H73352   8.418   2.757  -0.030  0.8577 -0.7165 -0.0230
  556MOL0     H73353   8.434   2.875   0.093 -0.1352 -0.5402 -0.0392
  556MOL0     H73354   8.204   2.500   0.159 -0.2800  0.1033  1.4626
  556MOL0     H73355   7.962   2.487   0.080  0.6274 -1.3678 -1.3315
  556MOL0     H73356   7.603   2.404   0.105 -1.8392 -0.9693  0.5614
  556MOL0     H73357   7.365   2.358   0.074 -0.6834 -1.0458 -0.9344
  556MOL0     H73358   7.156   2.432   0.096 -0.7671  4.3901  0.1767
  556MOL0     H73359   7.146   2.326  -0.044  1.2480  0.2315  0.2463
  556MOL0     H73360   6.955   2.568   0.026 -2.9023 -0.6888 -0.7025
  556MOL0     H73361   6.912   2.411   0.069  0.0773  1.5981  1.6353
  556MOL0     H73362   6.905   2.345  -0.156  0.1511 -0.6202  1.0524
  556MOL0     H73363   6.992   2.489  -0.222  1.1636 -1.8482  0.2910
  556MOL0     H73364   6.806   2.629  -0.140  0.4276 -0.7534 -0.0387
  556MOL0     H73365   6.753   2.523  -0.266  1.3112  0.2171 -0.7600
  556MOL0     H73366   6.713   2.444   0.014  0.7470  0.1166 -0.5262
  556MOL0     H73367   6.637   2.364  -0.118  4.0415 -1.6675  3.0795
  556MOL0     H73368   6.508   2.542  -0.178  1.8264  0.0042 -0.3595
  556MOL0     H73369   6.575   2.649  -0.047  0.2870 -0.7146  0.7463
  556MOL0     H73370   6.416   2.381  -0.005  2.4017  0.1403 -2.6338
  556MOL0     H73371   6.482   2.492   0.120 -0.3568  0.9864  0.4809
  556MOL0     H73372   6.263   2.586  -0.082 -1.9587  2.8921  0.9172
  556MOL0     H73373   6.338   2.664   0.050 -2.2805  0.8462 -0.8172
  556MOL0     H73374   7.349   2.669  -0.220  0.2195  1.3618  1.7014
  556MOL0     H73375   7.591   2.691  -0.205 -0.8191 -1.1402 -0.8848
  556MOL0     H73376   7.982   2.897  -0.038  0.3045  0.7438  0.7361
  556MOL0     H73377   8.204   2.927   0.072  1.6619 -0.9201  1.4596
  556MOL0     H73378   7.812   3.171   1.176  0.2831 -1.0418 -0.3639
  556MOL0     H73379   7.568   3.165   1.219 -0.2250 -0.1656 -2.0049
  556MOL0     H73380   7.250   3.110   1.316  0.5568 -0.2649 -1.4744
  556MOL0     H73381   7.020   3.190   1.343 -0.3176  0.4370  1.0042
  556MOL0     H73382   6.653   3.026   1.510  2.6049  1.0282  1.3694
  556MOL0     H73383   6.755   2.882   1.515  2.3906  2.2657  1.6733
  556MOL0     H73384   6.605   2.973   1.258  1.3819 -0.6326 -0.8697
  556MOL0     H73385   6.712   2.833   1.279 -1.1111 -1.3397 -0.0887
  556MOL0     H73386   6.445   2.859   1.419 -0.8322 -0.9854 -1.1449
  556MOL0     H73387   6.549   2.720   1.429  0.5537 -0.6038 -0.6878
  556MOL0     H73388   6.446   2.853   1.179  4.7383  1.7741  1.3743
  556MOL0     H73389   6.535   2.691   1.192  0.3584 -0.0589  0.7135
  556MOL0     H73390   6.154   2.577   1.334  0.7738 -1.6757 -0.6457
  556MOL0     H73391   6.888   2.772   1.343 -1.2477  0.7921  2.0578
  556MOL0     H73392   7.105   2.704   1.345 -0.3243 -0.4671 -0.8461
  557MOL0     O73393   4.856   8.654   6.215 -0.1106 -0.0541 -0.1714
  557MOL0     C73394   4.930   8.608   6.310 -0.2126 -0.5465  0.7701
  557MOL0     O73395   4.902   8.579   6.439  0.1671  0.5007  0.1906
  557MOL0     C73396   4.774   8.605   6.468  0.1453  0.2192 -0.2235
  557MOL0     C73397   4.666   8.549   6.380 -0.6394 -1.0963  0.2011
  557MOL0     C73398   4.537   8.594   6.408  0.7683 -1.0730  0.3431
  557MOL0     C73399   4.505   8.675   6.521  0.1443  0.4463  0.4830
  557MOL0     O73400   4.384   8.709   6.556  0.0822 -0.3699 -1.0929
  557MOL0     C73401   4.271   8.642   6.495 -0.5441 -0.6614  0.0984
  557MOL0     C73402   4.148   8.676   6.584  0.5258  0.2121  0.6307
  557MOL0     C73403   4.149   8.603   6.720 -0.9116 -0.0167  1.2183
  557MOL0     C73404   4.083   8.683   6.839 -0.1237 -0.9194  0.3782
  557MOL0     C73405   3.937   8.712   6.822  0.0645  0.2863  0.0762
  557MOL0     C73406   3.854   8.587   6.802 -0.3535 -0.3163  0.0407
  557MOL0     C73407   3.711   8.613   6.818 -0.2336 -0.5708  0.3075
  557MOL0     C73408   3.665   8.727   6.726  1.0783 -0.6097 -0.4099
  557MOL0     N73409   3.510   8.738   6.726 -0.0629  0.5320  0.6147
  557MOL0     C73410   3.423   8.641   6.664 -0.3659  0.4980 -0.5374
  557MOL0     C73411   3.299   8.681   6.692 -0.1882  0.4336  0.6755
  557MOL0     C73412   3.166   8.614   6.660 -0.4479  0.6514  0.3711
  557MOL0     C73413   3.103   8.664   6.537  0.5658 -0.0873  0.5616
  557MOL0     C73414   3.066   8.817   6.537 -0.4273  0.2393  0.1803
  557MOL0     C73415   2.981   8.847   6.411  0.3262  0.8841  0.4394
  557MOL0     O73416   2.850   8.781   6.415 -0.6499  0.5696 -0.2678
  557MOL0     C73417   2.749   8.851   6.463  1.1109 -0.3084 -0.5438
  557MOL0     C73418   2.627   8.799   6.423 -0.2975 -0.2015 -0.4082
  557MOL0     C73419   2.515   8.874   6.460 -0.4366  0.8539 -0.0571
  557MOL0     C73420   2.514   8.995   6.538  0.5377  0.5057 -0.0406
  557MOL0     C73421   2.388   9.080   6.559 -0.8065 -0.0470  0.1617
  557MOL0     O73422   2.274   9.016   6.520 -0.0017 -0.6227  0.1201
  557MOL0     C73423   2.151   9.085   6.518  0.2538 -0.6432  0.1000
  557MOL0     C73424   2.106   9.162   6.625 -0.1452 -0.1236 -0.0733
  557MOL0     C73425   1.972   9.214   6.619  0.5485 -0.1765 -0.3024
  557MOL0     C73426   1.874   9.182   6.513 -0.1241  0.2540  0.3012
  557MOL0     O73427   1.741   9.217   6.512 -1.1319 -0.0586  0.4838
  557MOL0     C73428   1.660   9.211   6.629  0.3437 -0.9987  0.8839
  557MOL0     C73429   1.515   9.205   6.572  0.2408 -0.1647 -0.0463
  557MOL0     C73430   1.409   9.149   6.673  0.2830  0.1458 -0.1316
  557MOL0     C73431   1.390   9.236   6.800 -1.0565 -0.2236  0.9346
  557MOL0     C73432   1.297   9.184   6.910  0.4040  0.0653 -0.2180
  557MOL0     C73433   1.152   9.169   6.861  0.7716  0.2883  0.9930
  557MOL0     C73434   1.050   9.132   6.970 -0.0079 -0.5633  0.7147
  557MOL0     C73435   0.903   9.192   6.946 -0.5142  0.2080  0.3178
  557MOL0    Cl73436   0.840   9.122   6.787 -0.4502 -0.1724 -0.0448
  557MOL0     C73437   1.921   9.104   6.413  0.0166 -0.2663  0.0430
  557MOL0     C73438   2.051   9.046   6.422  0.7307  0.5187  0.6414
  557MOL0     O73439   2.393   9.193   6.599 -0.1495 -0.3755  0.2285
  557MOL0     C73440   2.634   9.038   6.575 -0.4657  0.4034 -0.7748
  557MOL0     C73441   2.749   8.975   6.533 -0.8076  0.1323  0.1517
  557MOL0     N73442   3.305   8.806   6.754  0.4326 -0.5868  0.5279
  557MOL0     N73443   3.429   8.833   6.783 -0.5447 -1.0180  0.8284
  557MOL0     C73444   4.614   8.731   6.592  0.2917 -0.1619 -0.1221
  557MOL0     C73445   4.742   8.687   6.577  0.1835 -0.2844 -0.3804
  557MOL0     C73446   5.069   8.584   6.280 -0.3434  0.2312 -0.5259
  557MOL0     C73447   5.163   8.536   6.381  0.9568  0.5118 -0.7949
  557MOL0     C73448   5.286   8.498   6.339 -0.7096 -1.3350  0.0402
  557MOL0     C73449   5.341   8.528   6.217 -0.4725  0.2676 -1.1947
  557MOL0     O73450   5.474   8.505   6.183 -1.0793  0.8015 -0.1174
  557MOL0     C73451   5.497   8.379   6.116 -0.3939 -0.0910  0.0508
  557MOL0     C73452   5.637   8.329   6.141 -0.0169 -0.7353  0.1630
  557MOL0     C73453   5.648   8.259   6.277  1.1574 -0.0257  0.4780
  557MOL0     C73454   5.783   8.193   6.293  0.3143  0.2816  0.2492
  557MOL0     C73455   5.791   8.105   6.410 -0.3796  0.5045  0.1937
  557MOL0     C73456   5.787   8.057   6.523 -0.1083 -0.9716 -0.7675
  557MOL0     C73457   5.263   8.616   6.131 -0.9369  1.2442 -0.7328
  557MOL0     C73458   5.128   8.632   6.157  0.2142  0.4535 -0.9570
  557MOL0     H73459   4.685   8.475   6.303 -1.1671 -0.3508 -0.6618
  557MOL0     H73460   4.458   8.551   6.347  0.4253  2.3174 -1.8712
  557MOL0     H73461   4.291   8.534   6.490  1.4778 -0.2785 -1.3508
  557MOL0     H73462   4.260   8.682   6.394  0.2382 -2.4812 -0.7474
  557MOL0     H73463   4.056   8.656   6.529  1.9075 -1.6507 -1.1612
  557MOL0     H73464   4.150   8.784   6.595  0.0047  0.2479  0.4016
  557MOL0     H73465   4.254   8.591   6.749 -0.2207  0.2918 -0.9404
  557MOL0     H73466   4.104   8.507   6.696  1.0812 -0.9002  0.7815
  557MOL0     H73467   4.107   8.628   6.930 -1.3982 -0.1803  1.1916
  557MOL0     H73468   4.136   8.779   6.840  0.0728 -0.9188 -2.2540
  557MOL0     H73469   3.922   8.783   6.740 -0.4619 -0.8196 -0.8147
  557MOL0     H73470   3.910   8.756   6.919  0.5811  1.0758 -0.1274
  557MOL0     H73471   3.876   8.500   6.864 -1.2684 -1.0530 -0.6331
  557MOL0     H73472   3.872   8.554   6.699 -0.0038  2.7236 -0.9821
  557MOL0     H73473   3.647   8.531   6.782 -1.4501  0.0138  1.0582
  557MOL0     H73474   3.680   8.648   6.917 -0.4595 -0.0052  0.0396
  557MOL0     H73475   3.702   8.706   6.625  2.6421 -1.3011  0.2752
  557MOL0     H73476   3.713   8.821   6.754 -0.1260  0.0176 -0.3967
  557MOL0     H73477   3.454   8.549   6.617 -1.0050  0.3515 -0.6864
  557MOL0     H73478   3.099   8.622   6.746 -2.4737  1.1196 -1.1657
  557MOL0     H73479   3.182   8.506   6.656 -2.4957  0.2568  1.2573
  557MOL0     H73480   3.012   8.604   6.527  0.5504  0.4016 -4.0653
  557MOL0     H73481   3.158   8.642   6.445 -0.0539 -1.1936  0.4375
  557MOL0     H73482   3.006   8.847   6.623 -1.4664  1.2447 -0.8628
  557MOL0     H73483   3.162   8.868   6.527 -0.3659 -0.2688 -2.3242
  557MOL0     H73484   3.040   8.814   6.326 -0.7778 -0.1719  0.0500
  557MOL0     H73485   2.980   8.954   6.391 -0.1147  0.4927 -1.9581
  557MOL0     H73486   2.628   8.711   6.360  0.7646  0.9896 -2.1368
  557MOL0     H73487   2.421   8.841   6.418  0.4531 -1.0488 -0.6453
  557MOL0     H73488   2.171   9.188   6.708 -0.7843  4.7604 -0.8136
  557MOL0     H73489   1.930   9.272   6.701  3.3493  1.6267  0.0023
  557MOL0     H73490   1.670   9.307   6.681  2.5710  0.0053 -1.1756
  557MOL0     H73491   1.681   9.125   6.693  2.7355 -1.5575 -0.5125
  557MOL0     H73492   1.519   9.142   6.483  0.9352  0.2574 -0.3261
  557MOL0     H73493   1.474   9.303   6.544 -2.2535 -0.0140  3.3937
  557MOL0     H73494   1.422   9.045   6.705  0.4157  0.9583  2.7512
  557MOL0     H73495   1.314   9.160   6.620  0.2813 -0.6927 -0.3169
  557MOL0     H73496   1.484   9.248   6.855 -1.7305  0.0193  2.0683
  557MOL0     H73497   1.347   9.333   6.774 -0.5972  0.4825  2.6389
  557MOL0     H73498   1.302   9.246   7.000  0.2355 -1.4727  0.9070
  557MOL0     H73499   1.341   9.089   6.944 -1.6031 -0.6624  0.4898
  557MOL0     H73500   1.154   9.095   6.780 -0.6272  1.5733 -0.2777
  557MOL0     H73501   1.119   9.262   6.813 -0.0189  0.3740  1.6746
  557MOL0     H73502   1.036   9.023   6.979 -1.1004 -0.3791  1.4479
  557MOL0     H73503   1.074   9.169   7.070 -2.1941  0.5102  0.9116
  557MOL0     H73504   0.908   9.302   6.949  0.9273  0.2174 -1.1372
  557MOL0     H73505   0.836   9.149   7.021 -1.6832 -0.3375 -1.0067
  557MOL0     H73506   1.865   9.079   6.324  2.9655  2.0479 -2.6829
  557MOL0     H73507   2.082   8.975   6.346  1.5674  3.5065 -2.0312
  557MOL0     H73508   2.647   9.137   6.616  0.0746 -1.0134  2.8191
  557MOL0     H73509   2.837   9.038   6.547  0.0112 -0.8790 -0.3538
  557MOL0     H73510   4.578   8.787   6.678 -1.2107 -0.1909 -0.7005
  557MOL0     H73511   4.817   8.726   6.644  0.5176 -2.1341  0.3914
  557MOL0     H73512   5.135   8.507   6.482  0.9005  1.1980 -0.6061
  557MOL0     H73513   5.363   8.469   6.410 -0.7312 -2.2902 -0.3087
  557MOL0     H73514   5.476   8.404   6.011  0.5053 -0.6807 -0.2791
  557MOL0     H73515   5.422   8.305   6.145  2.0532 -1.9424  2.0070
  557MOL0     H73516   5.654   8.254   6.063  0.3626  0.1887 -0.6565
  557MOL0     H73517   5.701   8.417   6.141 -1.6826  0.5349  1.4085
  557MOL0     H73518   5.569   8.184   6.277  0.9794  0.1534 -0.0833
  557MOL0     H73519   5.622   8.331   6.354 -0.4413  2.6686 -2.3328
  557MOL0     H73520   5.808   8.136   6.203  1.8115  1.1366  0.0881
  557MOL0     H73521   5.859   8.271   6.303 -0.4715  0.9081  1.7319
  557MOL0     H73522   5.789   8.020   6.624  0.6125  1.2095  0.0935
  557MOL0     H73523   5.314   8.665   6.048  1.4025  1.7108  0.8804
  557MOL0     H73524   5.073   8.690   6.084 -0.7701 -1.6691 -1.9891
  558MOL0     O73525   2.142   8.571   3.109  0.3080 -0.5020 -0.4319
  558MOL0     C73526   2.180   8.452   3.109 -0.1710  0.6719  0.6572
  558MOL0     O73527   2.117   8.347   3.048  0.4309  0.1583 -0.1164
  558MOL0     C73528   1.990   8.376   3.001 -0.3334  0.4893  0.6517
  558MOL0     C73529   1.875   8.335   3.077 -0.3949  0.0014 -0.2144
  558MOL0     C73530   1.755   8.358   3.017  0.3496 -1.2049 -0.0918
  558MOL0     C73531   1.739   8.423   2.889  0.1629  0.5591 -1.0425
  558MOL0     O73532   1.618   8.426   2.828  0.7570 -0.1330 -0.3514
  558MOL0     C73533   1.575   8.532   2.745 -0.1386 -0.9307 -0.0858
  558MOL0     C73534   1.519   8.474   2.618  0.0154 -0.4089  0.0508
  558MOL0     C73535   1.502   8.576   2.506  0.5788 -0.6527 -0.3792
  558MOL0     C73536   1.401   8.686   2.539  0.2546  0.4571 -0.7745
  558MOL0     C73537   1.264   8.675   2.466  0.3876 -0.9022  0.2947
  558MOL0     C73538   1.143   8.767   2.523 -0.9129  0.6061 -0.7729
  558MOL0     C73539   1.010   8.741   2.455  0.6629 -1.4124 -0.3391
  558MOL0     C73540   1.018   8.727   2.307  0.1473  0.1480  0.6709
  558MOL0     N73541   0.889   8.757   2.238 -0.5080 -0.4711  0.0172
  558MOL0     C73542   0.836   8.883   2.222 -0.6204  0.5482  0.3371
  558MOL0     C73543   0.719   8.846   2.153 -0.8133  0.0502  0.2416
  558MOL0     C73544   0.624   8.955   2.087 -0.3850  0.1772  0.4198
  558MOL0     C73545   0.648   8.987   1.938  0.3142  0.0600  0.1398
  558MOL0     C73546   0.612   8.862   1.844  0.2940  0.4226 -0.8200
  558MOL0     C73547   0.460   8.827   1.849 -0.6249  0.4582  0.3485
  558MOL0     O73548   0.408   8.905   1.736  0.5132 -0.4578 -0.2654
  558MOL0     C73549   0.276   8.935   1.740 -0.1519  0.4585 -1.1169
  558MOL0     C73550   0.234   9.019   1.649 -0.2732  0.6818  0.1837
  558MOL0     C73551   0.101   9.065   1.650 -0.3580  0.5800 -0.4067
  558MOL0     C73552   0.011   9.030   1.755  0.3953 -0.0782 -0.3793
  558MOL0     C73553  -0.125   9.098   1.768  0.3171  0.3107  0.1640
  558MOL0     O73554  -0.213   9.051   1.875  0.2291  0.3736  0.4227
  558MOL0     C73555  -0.329   9.115   1.901 -1.3556  0.2552  0.1498
  558MOL0     C73556  -0.457   9.062   1.860 -0.4077 -0.1523 -0.3608
  558MOL0     C73557  -0.573   9.124   1.900 -0.9583 -0.0709 -0.0682
  558MOL0     C73558  -0.569   9.244   1.981  0.4501  0.0976 -0.0161
  558MOL0     O73559  -0.683   9.292   2.050  0.1268  0.1119  1.0575
  558MOL0     C73560  -0.811   9.300   1.989  0.7378  0.4080 -0.1315
  558MOL0     C73561  -0.845   9.444   1.960  0.1446 -0.2409  0.7922
  558MOL0     C73562  -0.975   9.443   1.870  0.4060  0.4500 -0.4456
  558MOL0     C73563  -1.032   9.581   1.852  0.1232 -0.4995  0.8094
  558MOL0     C73564  -1.128   9.622   1.968  0.0502 -0.2849  0.0607
  558MOL0     C73565  -1.174   9.767   1.945  0.1191  0.3698 -0.2314
  558MOL0     C73566  -1.276   9.817   2.051 -0.1895 -0.0890  0.4490
  558MOL0     C73567  -1.364   9.935   2.006  0.3370  0.0098 -0.6282
  558MOL0    Cl73568  -1.475   9.967   2.145 -0.3290 -0.0511  0.2062
  558MOL0     C73569  -0.444   9.290   2.030 -0.7736  0.5653 -0.4973
  558MOL0     C73570  -0.328   9.221   1.986 -0.9228  0.2557 -0.0046
  558MOL0     O73571  -0.141   9.191   1.691 -0.2401  0.4517 -0.3448
  558MOL0     C73572   0.056   8.923   1.835  0.8801 -0.1271 -0.3544
  558MOL0     C73573   0.186   8.880   1.829  0.3768  0.6988  0.1837
  558MOL0     N73574   0.698   8.712   2.148  0.2943 -0.0358  0.3183
  558MOL0     N73575   0.807   8.656   2.192  0.3006  0.6440  0.1016
  558MOL0     C73576   1.857   8.464   2.822  0.3180 -0.5632 -0.1531
  558MOL0     C73577   1.980   8.447   2.881 -0.6429  0.1549 -0.8571
  558MOL0     C73578   2.321   8.439   3.133 -0.2632  1.1009 -0.6817
  558MOL0     C73579   2.390   8.317   3.109 -0.4119  0.5567 -0.1187
  558MOL0     C73580   2.526   8.295   3.133 -0.1073  0.8270 -0.7019
  558MOL0     C73581   2.598   8.401   3.190  1.0111  0.5228  0.9828
  558MOL0     O73582   2.725   8.387   3.215 -0.1814 -0.8332 -0.3181
  558MOL0     C73583   2.791   8.262   3.196 -0.5303  0.0172  0.1696
  558MOL0     C73584   2.941   8.281   3.235 -0.6944  0.0714 -0.5933
  558MOL0     C73585   3.018   8.368   3.137 -0.2184 -0.3390  0.4509
  558MOL0     C73586   3.164   8.363   3.159  0.0743  0.2103  0.2284
  558MOL0     C73587   3.214   8.229   3.130  0.3154  0.3232  0.0309
  558MOL0     C73588   3.238   8.108   3.114 -0.0189 -0.5178  0.2031
  558MOL0     C73589   2.526   8.524   3.218  0.6593  1.0991  1.0845
  558MOL0     C73590   2.391   8.545   3.184 -0.2262 -0.1613  0.2157
  558MOL0     H73591   1.879   8.286   3.174 -4.0268 -0.7677 -0.3278
  558MOL0     H73592   1.659   8.325   3.056  0.9386 -3.0535 -0.1434
  558MOL0     H73593   1.660   8.591   2.710  0.2713 -1.4191  0.0806
  558MOL0     H73594   1.501   8.593   2.797  0.2129 -0.9648  0.4652
  558MOL0     H73595   1.432   8.416   2.649  0.9816 -2.1269 -0.3234
  558MOL0     H73596   1.587   8.401   2.573 -0.6521  0.5389 -2.6743
  558MOL0     H73597   1.453   8.522   2.424 -0.2160  0.5073 -0.7051
  558MOL0     H73598   1.593   8.617   2.462 -0.0417  1.3398  0.0628
  558MOL0     H73599   1.374   8.677   2.645  1.1440 -0.1148 -0.5878
  558MOL0     H73600   1.441   8.785   2.517  1.8909 -0.5782 -2.7976
  558MOL0     H73601   1.230   8.571   2.466  0.0760 -0.8010  0.0900
  558MOL0     H73602   1.282   8.697   2.360 -1.6945 -0.4361 -0.0119
  558MOL0     H73603   1.161   8.875   2.524  1.7247  0.2499 -0.1053
  558MOL0     H73604   1.126   8.733   2.626 -5.4871  1.9653 -0.8863
  558MOL0     H73605   0.970   8.651   2.503 -0.8089 -0.4067  0.3845
  558MOL0     H73606   0.946   8.826   2.479  1.9198 -0.3650 -0.5549
  558MOL0     H73607   1.053   8.625   2.293  0.3895  0.5816 -2.7973
  558MOL0     H73608   1.094   8.796   2.269 -2.2662  2.1889 -0.7919
  558MOL0     H73609   0.887   8.977   2.239  0.1399  0.0212  1.0585
  558MOL0     H73610   0.635   9.056   2.129 -2.3681  1.3182 -1.5958
  558MOL0     H73611   0.522   8.920   2.102  0.6009 -1.9025  3.1446
  558MOL0     H73612   0.753   9.011   1.919  0.1256  0.3159 -0.6218
  558MOL0     H73613   0.583   9.071   1.909 -0.4091  0.1965  2.0351
  558MOL0     H73614   0.638   8.867   1.737 -2.7961 -1.0226 -1.7429
  558MOL0     H73615   0.670   8.777   1.884 -1.9110  0.2611  2.3288
  558MOL0     H73616   0.420   8.858   1.946  0.1837  0.1725  0.7921
  558MOL0     H73617   0.447   8.719   1.839  4.3235 -0.1477 -3.8726
  558MOL0     H73618   0.307   9.052   1.576 -0.6844 -0.0763 -0.5913
  558MOL0     H73619   0.068   9.138   1.576 -0.8741 -0.6733 -1.4410
  558MOL0     H73620  -0.470   8.980   1.790 -0.6256  2.3330 -3.4824
  558MOL0     H73621  -0.671   9.090   1.867 -1.6690 -0.2417  2.1009
  558MOL0     H73622  -0.884   9.258   2.058  0.2257  0.8792 -0.3769
  558MOL0     H73623  -0.811   9.233   1.903  1.1447 -3.4387  2.6152
  558MOL0     H73624  -0.763   9.482   1.899 -1.5018  1.0641 -0.6982
  558MOL0     H73625  -0.850   9.509   2.048 -1.8453 -0.2905  0.7710
  558MOL0     H73626  -1.050   9.376   1.914  0.3527  1.2163  0.6754
  558MOL0     H73627  -0.943   9.397   1.776 -0.6742 -1.9192  0.2638
  558MOL0     H73628  -0.939   9.637   1.836 -0.4696 -0.5088 -4.6192
  558MOL0     H73629  -1.081   9.590   1.754 -0.0940 -1.2328  0.8431
  558MOL0     H73630  -1.083   9.613   2.067  1.5997  2.5191 -0.2821
  558MOL0     H73631  -1.212   9.552   1.961 -0.1800  0.1404 -5.0879
  558MOL0     H73632  -1.201   9.767   1.839  0.0695  0.1058 -0.2203
  558MOL0     H73633  -1.083   9.828   1.947  0.7767 -0.5855  0.8769
  558MOL0     H73634  -1.339   9.731   2.073  3.3426 -2.5388  1.9004
  558MOL0     H73635  -1.227   9.840   2.145  0.9348 -0.3990 -0.0433
  558MOL0     H73636  -1.417   9.897   1.918 -0.1612 -0.8660  0.0390
  558MOL0     H73637  -1.292  10.013   1.979  0.9641 -0.4868 -0.3849
  558MOL0     H73638  -0.445   9.368   2.105 -1.6415 -1.4004  1.6551
  558MOL0     H73639  -0.234   9.265   2.019 -1.1782  0.5870  0.2981
  558MOL0     H73640  -0.002   8.894   1.922  1.5211 -2.6965 -0.7064
  558MOL0     H73641   0.217   8.817   1.913  0.0016  0.6888  0.3170
  558MOL0     H73642   1.856   8.519   2.728 -0.0683 -0.0229  0.1606
  558MOL0     H73643   2.068   8.482   2.829  0.7839 -2.8167 -0.6555
  558MOL0     H73644   2.336   8.231   3.069  1.3343 -0.9197  0.5330
  558MOL0     H73645   2.568   8.199   3.106  0.7936  0.6023  1.3172
  558MOL0     H73646   2.782   8.226   3.093  0.9061  0.9817 -0.3322
  558MOL0     H73647   2.740   8.199   3.269 -4.1008  2.7894  0.3357
  558MOL0     H73648   2.948   8.313   3.339  0.4288  2.0385 -1.2272
  558MOL0     H73649   2.985   8.181   3.239 -0.0843  0.3640  3.0375
  558MOL0     H73650   2.970   8.466   3.138  0.1719 -0.0603 -2.1535
  558MOL0     H73651   2.997   8.348   3.032  0.8781 -1.1202  0.3713
  558MOL0     H73652   3.210   8.435   3.091  0.7059 -2.0249 -1.8674
  558MOL0     H73653   3.183   8.399   3.261  1.7782 -1.9718  0.7675
  558MOL0     H73654   3.251   8.009   3.074  2.1443  1.2247 -4.0609
  558MOL0     H73655   2.573   8.609   3.268  2.1858  0.9066  0.0553
  558MOL0     H73656   2.336   8.635   3.209  0.8355  0.4977  0.2362
  559MOL0     O73657   0.784   3.385  10.048 -0.0835  0.4531 -0.1914
  559MOL0     C73658   0.799   3.417   9.929  1.4942  0.7589  0.5407
  559MOL0     O73659   0.701   3.405   9.835 -0.0509  0.3592  0.5494
  559MOL0     C73660   0.559   3.422   9.858  0.1013 -0.9729  0.4724
  559MOL0     C73661   0.462   3.352   9.780  0.2445 -0.0689  0.7687
  559MOL0     C73662   0.325   3.380   9.793 -0.5382  1.0183  0.0920
  559MOL0     C73663   0.281   3.473   9.880  0.4027 -0.2016  0.2697
  559MOL0     O73664   0.147   3.477   9.892 -0.1773  0.3449  0.3282
  559MOL0     C73665   0.081   3.598   9.925 -0.2213  0.0159 -0.6885
  559MOL0     C73666  -0.066   3.569   9.958  0.2897 -0.3713  0.1880
  559MOL0     C73667  -0.144   3.484   9.862  0.6436  0.8594 -1.1035
  559MOL0     C73668  -0.293   3.506   9.882 -0.6011  0.4161 -0.0756
  559MOL0     C73669  -0.368   3.435   9.775 -0.8839  0.3525 -0.1423
  559MOL0     C73670  -0.522   3.430   9.785 -0.4349 -0.4622 -0.0571
  559MOL0     C73671  -0.594   3.573   9.787  0.3808 -0.3025 -0.3878
  559MOL0     C73672  -0.620   3.632   9.922 -0.3117 -0.1432  0.3307
  559MOL0     N73673  -0.720   3.558  10.009  0.0525  0.0884  0.7751
  559MOL0     C73674  -0.856   3.544   9.998  0.1400 -0.2900 -0.1371
  559MOL0     C73675  -0.899   3.500  10.117  0.3865 -0.6044 -0.8887
  559MOL0     C73676  -1.041   3.473  10.148  0.6124  0.8025 -0.2913
  559MOL0     C73677  -1.069   3.325  10.119  0.2641 -0.3071 -0.3315
  559MOL0     C73678  -1.216   3.283  10.154 -0.0334  0.9917  0.4067
  559MOL0     C73679  -1.227   3.132  10.124  0.4196 -0.3214  0.0432
  559MOL0     O73680  -1.366   3.089  10.138  0.0247  0.0397  0.4191
  559MOL0     C73681  -1.450   3.119  10.036  0.5989 -0.6347  1.3991
  559MOL0     C73682  -1.572   3.185  10.059 -0.0597 -0.1239  0.1333
  559MOL0     C73683  -1.655   3.230   9.950  0.2732  0.2993 -0.5319
  559MOL0     C73684  -1.629   3.192   9.813  0.5564 -0.0747 -0.5422
  559MOL0     C73685  -1.704   3.233   9.694  0.1600  0.1691 -0.0820
  559MOL0     O73686  -1.824   3.285   9.726 -0.4899 -0.6531 -0.6210
  559MOL0     C73687  -1.919   3.335   9.640 -0.7225  0.2386  0.6483
  559MOL0     C73688  -2.023   3.415   9.700 -0.5742 -0.0438  0.3535
  559MOL0     C73689  -2.124   3.467   9.623 -0.7656 -0.1971  0.1977
  559MOL0     C73690  -2.122   3.447   9.483  0.2528  0.1477  0.7207
  559MOL0     O73691  -2.210   3.500   9.387 -0.2214  0.1865  0.5467
  559MOL0     C73692  -2.289   3.616   9.421 -0.0716  0.0332 -0.6419
  559MOL0     C73693  -2.387   3.650   9.312 -0.6954 -0.2965  0.5388
  559MOL0     C73694  -2.470   3.772   9.354 -0.2460 -0.3363  0.0425
  559MOL0     C73695  -2.582   3.775   9.247 -0.2950  0.4114 -0.7264
  559MOL0     C73696  -2.675   3.896   9.275  0.6857  0.5720 -1.3501
  559MOL0     C73697  -2.596   4.024   9.289 -0.3463  0.7403 -0.6541
  559MOL0     C73698  -2.692   4.144   9.301  0.4592  0.4046  0.2118
  559MOL0     C73699  -2.644   4.269   9.379  0.2423 -0.7896 -0.5541
  559MOL0    Cl73700  -2.495   4.336   9.313  0.0659  0.1777  0.4699
  559MOL0     C73701  -2.020   3.368   9.433  0.7418  0.2086 -0.1204
  559MOL0     C73702  -1.925   3.307   9.507  0.7577  0.1509  0.5885
  559MOL0     O73703  -1.655   3.233   9.583 -0.0805  0.3275  0.2457
  559MOL0     C73704  -1.509   3.120   9.801  1.0091  0.6179  0.3184
  559MOL0     C73705  -1.427   3.085   9.902  0.0563  0.6824 -0.4050
  559MOL0     N73706  -0.791   3.481  10.198 -0.2420  0.1851  0.3001
  559MOL0     N73707  -0.680   3.510  10.131 -0.3032 -0.0334 -0.2220
  559MOL0     C73708   0.372   3.551   9.956 -0.6043  0.2720  0.1612
  559MOL0     C73709   0.510   3.514   9.946  0.5465  0.3520 -0.1305
  559MOL0     C73710   0.940   3.457   9.898  0.7027  0.4916  0.4157
  559MOL0     C73711   1.052   3.427   9.982  1.0419  0.6351  0.8719
  559MOL0     C73712   1.181   3.428   9.938 -0.1734 -0.0038 -0.5683
  559MOL0     C73713   1.208   3.474   9.808 -0.3891  0.3348 -0.9510
  559MOL0     O73714   1.345   3.475   9.775  0.4906 -0.3882 -0.0165
  559MOL0     C73715   1.392   3.562   9.671 -0.2911  1.5469  0.4754
  559MOL0     C73716   1.535   3.513   9.647 -0.4168 -0.2083  0.8647
  559MOL0     C73717   1.626   3.608   9.554  0.3632  0.2297  0.0590
  559MOL0     C73718   1.767   3.540   9.538 -0.0169 -0.3068 -0.3660
  559MOL0     C73719   1.861   3.638   9.474 -0.5112 -0.3509  0.2426
  559MOL0     C73720   1.932   3.723   9.415  0.1761  0.2624  0.4907
  559MOL0     C73721   1.103   3.506   9.718  0.6932 -0.1181 -0.7196
  559MOL0     C73722   0.966   3.493   9.766 -0.7627 -0.8250  1.1150
  559MOL0     H73723   0.505   3.292   9.701 -1.2969  0.1452 -0.2680
  559MOL0     H73724   0.250   3.338   9.726 -0.3690 -0.2062  0.6521
  559MOL0     H73725   0.101   3.668   9.844 -0.5171  0.0111 -0.7687
  559MOL0     H73726   0.125   3.644  10.014 -0.0909  0.7412 -1.1255
  559MOL0     H73727  -0.107   3.665   9.990 -0.2216 -0.9470  1.3294
  559MOL0     H73728  -0.071   3.510  10.051 -1.7922  1.0895  1.0958
  559MOL0     H73729  -0.104   3.383   9.868 -1.6153 -0.0787 -1.0733
  559MOL0     H73730  -0.127   3.526   9.762 -0.2098  0.1762 -1.5407
  559MOL0     H73731  -0.324   3.458   9.975 -0.6070 -1.4510 -0.9773
  559MOL0     H73732  -0.317   3.612   9.881 -2.7829 -0.0259  0.9524
  559MOL0     H73733  -0.336   3.334   9.803 -2.0302 -0.4672 -1.6665
  559MOL0     H73734  -0.335   3.466   9.676 -0.1609 -0.8920 -0.3130
  559MOL0     H73735  -0.553   3.382   9.877 -4.1745  1.1636 -0.2962
  559MOL0     H73736  -0.564   3.377   9.699  0.2996 -0.2361 -0.5706
  559MOL0     H73737  -0.537   3.648   9.732  1.6220  2.0366  3.6756
  559MOL0     H73738  -0.691   3.552   9.741  0.9446  0.4424 -2.0013
  559MOL0     H73739  -0.668   3.729   9.908  0.6295  0.6791  2.3848
  559MOL0     H73740  -0.525   3.650   9.972  0.3498  0.9236 -1.2561
  559MOL0     H73741  -0.917   3.556   9.908  3.0327  0.4996 -2.1474
  559MOL0     H73742  -1.110   3.545  10.103 -2.2763 -2.3492 -1.3648
  559MOL0     H73743  -1.056   3.485  10.256  1.0755 -1.9403  0.1609
  559MOL0     H73744  -1.002   3.260  10.177 -1.9199 -1.3431  1.1322
  559MOL0     H73745  -1.050   3.299  10.014 -0.9521 -1.4378 -0.2947
  559MOL0     H73746  -1.228   3.303  10.260  0.7949  0.7085  0.5687
  559MOL0     H73747  -1.290   3.334  10.092  0.6202  0.0666 -1.2271
  559MOL0     H73748  -1.166   3.073  10.193  2.0860 -0.1903 -1.2403
  559MOL0     H73749  -1.177   3.101  10.031 -0.1525  0.2945 -0.4829
  559MOL0     H73750  -1.592   3.209  10.163 -1.5340 -1.6268  0.2363
  559MOL0     H73751  -1.734   3.293   9.989  0.4107 -0.3678  0.8863
  559MOL0     H73752  -2.030   3.440   9.806  0.4696 -1.7584  0.8734
  559MOL0     H73753  -2.204   3.523   9.671 -1.4716 -2.2744  1.5812
  559MOL0     H73754  -2.218   3.691   9.459 -1.0353  0.0829  1.1834
  559MOL0     H73755  -2.355   3.595   9.506  0.7842 -0.5887 -0.1126
  559MOL0     H73756  -2.442   3.556   9.305  0.1595 -0.7093 -1.1509
  559MOL0     H73757  -2.335   3.676   9.219 -0.7451  1.3377  0.9247
  559MOL0     H73758  -2.407   3.861   9.344 -3.4610  2.2269  1.0593
  559MOL0     H73759  -2.512   3.758   9.454  0.9405 -0.1052  0.5943
  559MOL0     H73760  -2.543   3.780   9.145 -2.3731  1.9398 -1.5311
  559MOL0     H73761  -2.632   3.678   9.254  2.2311 -0.8721  0.7467
  559MOL0     H73762  -2.728   3.885   9.370 -0.5302 -0.5006 -2.1307
  559MOL0     H73763  -2.761   3.904   9.208 -0.6431  2.2794  0.4261
  559MOL0     H73764  -2.521   4.033   9.209 -0.2080  3.2593 -0.3246
  559MOL0     H73765  -2.540   4.025   9.382  1.2438 -2.3074 -1.4616
  559MOL0     H73766  -2.732   4.163   9.201 -0.7774 -0.1806  0.5674
  559MOL0     H73767  -2.785   4.120   9.355 -0.0347  4.5935  1.5975
  559MOL0     H73768  -2.626   4.259   9.486  0.5126 -0.8207 -0.6008
  559MOL0     H73769  -2.725   4.343   9.377  1.3054  0.4063 -2.6289
  559MOL0     H73770  -2.024   3.356   9.325 -1.6344  0.9336 -0.1749
  559MOL0     H73771  -1.857   3.236   9.460 -1.4501 -1.1836 -0.7772
  559MOL0     H73772  -1.460   3.085   9.711  3.7693  2.2839  1.0256
  559MOL0     H73773  -1.336   3.031   9.878  0.3231 -0.4234  2.6535
  559MOL0     H73774   0.336   3.631  10.020 -1.6338  0.1474 -0.2358
  559MOL0     H73775   0.582   3.577   9.999 -1.2258  0.3058  2.5331
  559MOL0     H73776   1.025   3.389  10.080 -0.5586  3.0400  1.4782
  559MOL0     H73777   1.258   3.394  10.007  0.4405  2.0431 -0.1741
  559MOL0     H73778   1.398   3.668   9.696 -1.1350  1.4124  1.3059
  559MOL0     H73779   1.339   3.560   9.575 -0.4941  1.8981  0.5782
  559MOL0     H73780   1.601   3.490   9.731  0.5027  2.4056  0.9500
  559MOL0     H73781   1.528   3.414   9.600  1.9021 -1.5053  3.0239
  559MOL0     H73782   1.649   3.698   9.611 -0.3497  1.4175 -1.4580
  559MOL0     H73783   1.579   3.649   9.464 -2.2989  3.6881  2.7285
  559MOL0     H73784   1.804   3.506   9.636 -1.1116  0.1154  0.2070
  559MOL0     H73785   1.748   3.454   9.473 -2.4162 -0.2195  0.1472
  559MOL0     H73786   1.991   3.795   9.363 -0.0495 -0.3262 -0.6163
  559MOL0     H73787   1.123   3.531   9.615 -0.1343 -0.2058 -0.9101
  559MOL0     H73788   0.892   3.508   9.688 -1.6466 -1.1783  1.8728
  560MOL0     O73789   1.998   9.856   7.949  0.0737  0.3388  0.2439
  560MOL0     C73790   2.101   9.793   7.931  0.3095 -0.5177  0.5287
  560MOL0     O73791   2.108   9.660   7.903  0.0416  0.7337  0.0447
  560MOL0     C73792   1.989   9.586   7.905 -0.3906  0.8658  0.1171
  560MOL0     C73793   2.008   9.448   7.928 -0.1107  0.7514 -0.0255
  560MOL0     C73794   1.903   9.364   7.911  0.4831 -0.2441 -0.1156
  560MOL0     C73795   1.780   9.402   7.854  0.3563 -0.6638 -1.0020
  560MOL0     O73796   1.669   9.326   7.836  0.1055 -0.8484 -0.0759
  560MOL0     C73797   1.671   9.200   7.911  0.4047  0.3296  0.4584
  560MOL0     C73798   1.527   9.143   7.906  0.4378 -0.2737  0.6695
  560MOL0     C73799   1.416   9.214   7.990  0.4949  0.5652  0.0462
  560MOL0     C73800   1.282   9.132   7.991  0.4131 -0.0999 -0.5248
  560MOL0     C73801   1.171   9.216   8.064  0.0693  0.1221  1.3786
  560MOL0     C73802   1.043   9.141   8.079 -0.6436  0.1331  0.0736
  560MOL0     C73803   0.927   9.238   8.132 -0.6639  0.2751 -0.5747
  560MOL0     C73804   0.816   9.146   8.176 -0.0400  0.4485 -0.8567
  560MOL0     N73805   0.705   9.227   8.226 -0.1016  0.3739  0.6370
  560MOL0     C73806   0.621   9.197   8.331 -0.4303 -0.0599 -1.1678
  560MOL0     C73807   0.538   9.299   8.347 -0.0697  0.1312 -0.1305
  560MOL0     C73808   0.420   9.320   8.443 -0.3275 -0.7384  0.5513
  560MOL0     C73809   0.290   9.271   8.404 -0.0514 -0.6646  0.0527
  560MOL0     C73810   0.224   9.382   8.322  0.2438  0.5722  0.4334
  560MOL0     C73811   0.128   9.316   8.226  0.1928 -0.3564 -0.7082
  560MOL0     O73812   0.024   9.248   8.292  0.1294 -0.1880  0.5107
  560MOL0     C73813  -0.105   9.272   8.256 -0.2424 -0.4997 -1.1044
  560MOL0     C73814  -0.155   9.366   8.165  0.8880  1.1885  0.5475
  560MOL0     C73815  -0.300   9.377   8.159  0.2728  0.3661  0.0559
  560MOL0     C73816  -0.384   9.296   8.239  0.6984  0.0312  0.3052
  560MOL0     C73817  -0.528   9.287   8.212  0.0375 -0.7054 -0.0154
  560MOL0     O73818  -0.596   9.201   8.305 -0.4801 -0.3349 -0.0740
  560MOL0     C73819  -0.734   9.206   8.307  0.1128  0.4699 -0.0527
  560MOL0     C73820  -0.805   9.324   8.336  0.0344 -0.3426  0.3169
  560MOL0     C73821  -0.942   9.323   8.366 -0.1627  0.6415 -0.1595
  560MOL0     C73822  -1.018   9.207   8.347  0.1715 -0.0149 -0.7787
  560MOL0     O73823  -1.148   9.220   8.378 -0.3122 -0.5357 -0.6342
  560MOL0     C73824  -1.220   9.322   8.308 -0.0502  0.4814  0.0418
  560MOL0     C73825  -1.366   9.340   8.360  0.3605 -0.5187  0.0242
  560MOL0     C73826  -1.461   9.224   8.317 -0.4769 -1.0303  0.3561
  560MOL0     C73827  -1.596   9.275   8.341  0.1582 -0.2106 -0.3848
  560MOL0     C73828  -1.714   9.176   8.295 -0.4489 -0.2398 -0.1419
  560MOL0     C73829  -1.846   9.226   8.340  0.2572 -0.5261  0.3207
  560MOL0     C73830  -1.961   9.175   8.252  0.9088  0.1844 -0.2256
  560MOL0     C73831  -2.088   9.225   8.321 -0.5719 -0.5175  0.0647
  560MOL0    Cl73832  -2.228   9.189   8.216 -0.3030  0.4931 -0.5348
  560MOL0     C73833  -0.951   9.096   8.298  0.1085  0.3953  0.0427
  560MOL0     C73834  -0.808   9.082   8.290  0.4189 -0.0310 -0.1109
  560MOL0     O73835  -0.580   9.353   8.122 -1.0668 -0.5574 -0.2479
  560MOL0     C73836  -0.327   9.207   8.333 -0.2004  0.5783 -0.9899
  560MOL0     C73837  -0.183   9.195   8.339  0.5940 -0.0852 -0.1581
  560MOL0     N73838   0.572   9.397   8.262 -0.8432 -0.1016 -0.5671
  560MOL0     N73839   0.682   9.358   8.204 -0.8248 -0.7040  0.0550
  560MOL0     C73840   1.759   9.537   7.829 -0.2867  0.5364 -0.4280
  560MOL0     C73841   1.863   9.624   7.851 -0.6723  0.2993 -0.1874
  560MOL0     C73842   2.230   9.863   7.950 -1.0588  0.5380  0.4838
  560MOL0     C73843   2.345   9.782   7.949  0.7773 -0.8170 -0.0964
  560MOL0     C73844   2.471   9.835   7.963 -0.4244 -0.4087 -0.3879
  560MOL0     C73845   2.491   9.968   7.980  0.5042 -1.0696 -0.9304
  560MOL0     O73846   2.617  10.016   8.008 -0.2646 -0.3250 -0.7020
  560MOL0     C73847   2.633  10.151   8.050  0.0297  0.1292  0.8104
  560MOL0     C73848   2.770  10.201   8.096  0.8136  0.1004 -0.7695
  560MOL0     C73849   2.878  10.187   7.987 -0.3654 -0.2896  0.3023
  560MOL0     C73850   3.013  10.168   8.055  1.3088 -0.2595  0.2626
  560MOL0     C73851   3.061  10.291   8.107  0.0560 -0.0283 -0.2362
  560MOL0     C73852   3.095  10.394   8.158  0.9641  0.3199  0.3374
  560MOL0     C73853   2.378  10.057   7.962 -0.0737 -0.6855 -0.0950
  560MOL0     C73854   2.248   9.997   7.958 -0.7278  0.0802 -0.2155
  560MOL0     H73855   2.099   9.398   7.958 -1.0355 -0.8190  0.2456
  560MOL0     H73856   1.912   9.267   7.960  1.6859  0.5005  1.2371
  560MOL0     H73857   1.688   9.217   8.018  0.8644 -3.2520  1.0956
  560MOL0     H73858   1.749   9.133   7.872  0.8203 -0.1494  2.0482
  560MOL0     H73859   1.526   9.039   7.940  0.7665 -0.2589  0.7225
  560MOL0     H73860   1.489   9.149   7.804 -0.1728  3.0661  0.9863
  560MOL0     H73861   1.397   9.319   7.970 -1.5281  0.9692  3.3207
  560MOL0     H73862   1.448   9.216   8.095 -2.0213  0.2504  0.8897
  560MOL0     H73863   1.257   9.096   7.890 -0.4180 -1.4036  0.1244
  560MOL0     H73864   1.284   9.048   8.060 -4.8278  1.0400  1.4371
  560MOL0     H73865   1.155   9.308   8.007  0.5616  0.7731  2.2941
  560MOL0     H73866   1.201   9.249   8.163 -0.9810 -0.3334  1.8583
  560MOL0     H73867   1.050   9.060   8.153 -0.3507  0.5640  0.5231
  560MOL0     H73868   1.012   9.097   7.984 -2.0549 -0.9831  0.9996
  560MOL0     H73869   0.972   9.278   8.223  2.1112 -2.6975 -0.4655
  560MOL0     H73870   0.895   9.316   8.062  0.4730  0.3384 -1.0550
  560MOL0     H73871   0.844   9.083   8.260 -0.4572  0.5283 -0.6535
  560MOL0     H73872   0.778   9.087   8.091 -2.0418 -0.3950  0.5489
  560MOL0     H73873   0.627   9.107   8.392  0.6009  0.4409 -0.4842
  560MOL0     H73874   0.418   9.427   8.464 -0.6494  0.0196 -2.7507
  560MOL0     H73875   0.461   9.269   8.531  2.1935 -1.5010 -0.9385
  560MOL0     H73876   0.226   9.238   8.487 -0.2530 -2.2777 -0.6961
  560MOL0     H73877   0.304   9.181   8.343 -2.8732 -0.7847 -0.5875
  560MOL0     H73878   0.159   9.443   8.386 -0.2952  0.1036  0.3457
  560MOL0     H73879   0.292   9.450   8.270  0.1526  1.0507  0.9293
  560MOL0     H73880   0.172   9.231   8.172 -0.0134 -1.2555  0.4729
  560MOL0     H73881   0.103   9.384   8.145  0.5227  0.0415 -0.4760
  560MOL0     H73882  -0.098   9.424   8.093 -1.8568 -0.6223 -3.4093
  560MOL0     H73883  -0.346   9.440   8.084 -0.8109  1.5098  1.5976
  560MOL0     H73884  -0.744   9.413   8.327  3.2822 -2.2068  2.1034
  560MOL0     H73885  -0.984   9.413   8.410  1.6853  0.4628  2.1441
  560MOL0     H73886  -1.218   9.303   8.200  1.5631  1.3789 -0.1068
  560MOL0     H73887  -1.171   9.415   8.335 -1.7532  1.7930 -1.1662
  560MOL0     H73888  -1.396   9.431   8.309  1.1814 -1.1488 -1.6569
  560MOL0     H73889  -1.360   9.348   8.469 -1.5961  1.7191  0.0414
  560MOL0     H73890  -1.442   9.141   8.387  1.0368  0.9770  2.4994
  560MOL0     H73891  -1.444   9.198   8.212 -1.7997 -1.6704  0.2844
  560MOL0     H73892  -1.612   9.300   8.447  0.5160  0.1421 -0.4148
  560MOL0     H73893  -1.604   9.371   8.289  1.4670  0.9351  1.4129
  560MOL0     H73894  -1.703   9.072   8.329 -0.7277 -0.1497  0.2257
  560MOL0     H73895  -1.706   9.179   8.186  2.0731  1.0000 -0.0069
  560MOL0     H73896  -1.840   9.336   8.337 -0.0187 -0.4883  0.9960
  560MOL0     H73897  -1.865   9.204   8.445  2.2682  1.7528  1.2670
  560MOL0     H73898  -1.954   9.215   8.151  1.7954  0.0430 -0.2272
  560MOL0     H73899  -1.959   9.066   8.257  1.0283  0.1690 -0.6261
  560MOL0     H73900  -2.086   9.333   8.340 -0.5654  0.0957 -2.9901
  560MOL0     H73901  -2.116   9.183   8.418 -0.6343  0.2064  0.3709
  560MOL0     H73902  -1.003   9.003   8.277  0.2941 -0.1809  1.9274
  560MOL0     H73903  -0.745   8.999   8.259  0.1805 -0.4953  0.6206
  560MOL0     H73904  -0.376   9.149   8.411  0.5709  0.5823 -0.4932
  560MOL0     H73905  -0.149   9.130   8.418 -0.0908  2.2135  2.1528
  560MOL0     H73906   1.662   9.572   7.797 -0.3921  1.7558  1.1202
  560MOL0     H73907   1.850   9.728   7.826  1.5502  1.0342  1.2902
  560MOL0     H73908   2.349   9.674   7.948  1.4394 -0.8256  1.3150
  560MOL0     H73909   2.564   9.781   7.950 -1.1183 -1.2869 -2.0678
  560MOL0     H73910   2.571  10.158   8.139  2.3299  0.7312  2.4819
  560MOL0     H73911   2.600  10.213   7.966 -0.2709 -1.9699 -0.6933
  560MOL0     H73912   2.765  10.302   8.136  1.8447 -0.5960  1.2482
  560MOL0     H73913   2.792  10.142   8.185  0.2032 -1.2747 -1.5020
  560MOL0     H73914   2.891  10.281   7.933  1.7702 -0.6650  0.0764
  560MOL0     H73915   2.854  10.105   7.918 -0.9429  0.7612 -0.7888
  560MOL0     H73916   2.994  10.096   8.136  1.9049 -1.0192 -0.2551
  560MOL0     H73917   3.072  10.125   7.973  2.6513  3.1251 -0.7121
  560MOL0     H73918   3.125  10.489   8.195  3.0447 -1.2483  2.9938
  560MOL0     H73919   2.397  10.163   7.949  2.1061 -0.8925  0.9458
  560MOL0     H73920   2.169  10.068   7.939 -1.2714 -0.2622  0.7042
  561MOL0     O73921   5.024   7.481   7.733 -0.8499  0.0030  0.1771
  561MOL0     C73922   5.019   7.361   7.722  0.3758  0.0903 -1.2547
  561MOL0     O73923   5.120   7.274   7.724 -0.2451  0.3528  0.1105
  561MOL0     C73924   5.245   7.318   7.723 -0.0689 -0.9621 -0.4761
  561MOL0     C73925   5.314   7.367   7.838 -0.8092 -0.1481 -0.7326
  561MOL0     C73926   5.452   7.389   7.840  0.4514  0.0097  0.2191
  561MOL0     C73927   5.520   7.392   7.716 -0.0578 -0.5085 -0.0954
  561MOL0     O73928   5.656   7.411   7.739 -0.0067 -0.4252  0.4312
  561MOL0     C73929   5.739   7.479   7.638  0.4351 -0.8515 -0.1818
  561MOL0     C73930   5.814   7.371   7.564  0.3905 -0.0527 -0.1541
  561MOL0     C73931   5.888   7.441   7.446 -1.1165 -0.7142 -0.0700
  561MOL0     C73932   5.970   7.325   7.373 -0.3750  0.2713 -0.2726
  561MOL0     C73933   6.064   7.400   7.278  0.6426 -0.2961  0.0138
  561MOL0     C73934   6.104   7.302   7.171 -1.1768 -0.5233  0.0958
  561MOL0     C73935   6.191   7.385   7.074 -0.4375 -0.8353 -0.1103
  561MOL0     C73936   6.258   7.303   6.961 -0.8481 -0.2213  0.4169
  561MOL0     N73937   6.159   7.238   6.873  0.6591 -0.5497 -0.1910
  561MOL0     C73938   6.115   7.284   6.747 -0.0755  0.1443  0.6642
  561MOL0     C73939   6.020   7.201   6.703  0.0318  1.0225 -0.1605
  561MOL0     C73940   5.943   7.207   6.582  0.1927 -0.2325  0.6053
  561MOL0     C73941   5.793   7.175   6.595 -0.7333  0.1946 -0.1912
  561MOL0     C73942   5.722   7.270   6.680  0.3275  0.1109 -0.2846
  561MOL0     C73943   5.569   7.255   6.674 -0.1584  0.2918  0.2193
  561MOL0     O73944   5.502   7.344   6.584 -0.2704 -0.1428 -0.6629
  561MOL0     C73945   5.369   7.369   6.611 -0.0667  0.6529  0.8422
  561MOL0     C73946   5.305   7.463   6.524 -0.4271  0.5612 -0.4142
  561MOL0     C73947   5.171   7.495   6.538  0.4103  0.0747 -0.1644
  561MOL0     C73948   5.095   7.425   6.631 -0.0744  0.0430  0.0695
  561MOL0     C73949   4.941   7.455   6.651  0.3896  0.3764  0.7658
  561MOL0     O73950   4.876   7.398   6.758 -0.2281 -0.2357  0.6506
  561MOL0     C73951   4.740   7.404   6.781  1.3703  0.6522  0.5620
  561MOL0     C73952   4.658   7.309   6.722  0.0987 -0.5793  0.1225
  561MOL0     C73953   4.514   7.312   6.737 -0.5339  0.0000  0.2161
  561MOL0     C73954   4.450   7.404   6.819 -0.1265  0.1167 -0.2349
  561MOL0     O73955   4.317   7.394   6.846 -0.3318  0.7343  0.2661
  561MOL0     C73956   4.252   7.517   6.824 -0.6078 -0.6897 -0.0510
  561MOL0     C73957   4.116   7.502   6.777  0.7301 -0.2697  0.5024
  561MOL0     C73958   4.025   7.439   6.895 -0.1590 -0.1536  0.2264
  561MOL0     C73959   3.890   7.391   6.834 -0.2388 -0.0472  0.8930
  561MOL0     C73960   3.789   7.324   6.924  0.5316  0.5904 -0.7899
  561MOL0     C73961   3.737   7.408   7.045 -0.4322  0.0388  0.9579
  561MOL0     C73962   3.639   7.342   7.135 -0.1922  0.1191  0.4546
  561MOL0     C73963   3.632   7.401   7.279 -0.3933 -0.9154  0.1234
  561MOL0    Cl73964   3.526   7.315   7.391 -0.1191 -0.1394 -0.0469
  561MOL0     C73965   4.540   7.497   6.888  0.6210 -0.0864 -0.0231
  561MOL0     C73966   4.679   7.504   6.866 -0.1952  0.1317 -0.6092
  561MOL0     O73967   4.883   7.532   6.575 -0.0375  0.3562 -0.2662
  561MOL0     C73968   5.155   7.326   6.721  0.7931 -0.8591  0.9346
  561MOL0     C73969   5.286   7.299   6.708 -0.5536 -1.2522 -0.4921
  561MOL0     N73970   6.010   7.098   6.797 -0.3909 -0.4892 -0.0680
  561MOL0     N73971   6.082   7.130   6.896  1.0417  0.9898 -0.1258
  561MOL0     C73972   5.458   7.348   7.596  0.9552  0.1522 -0.4855
  561MOL0     C73973   5.320   7.314   7.605  0.5633  0.3646 -0.4576
  561MOL0     C73974   4.890   7.300   7.719 -0.1282 -0.1580  0.0603
  561MOL0     C73975   4.880   7.166   7.735  0.0275 -0.5851 -0.1487
  561MOL0     C73976   4.754   7.109   7.757 -0.5840  1.5384 -0.1005
  561MOL0     C73977   4.635   7.188   7.772 -0.3443  0.0402  0.5227
  561MOL0     O73978   4.505   7.151   7.808 -0.1437 -0.0632  0.5840
  561MOL0     C73979   4.446   7.038   7.748 -0.0533 -0.2552  0.6095
  561MOL0     C73980   4.333   7.102   7.662 -0.5630  0.5349 -0.0399
  561MOL0     C73981   4.231   6.997   7.614 -0.4265 -0.0926 -0.8887
  561MOL0     C73982   4.250   6.957   7.467  0.3991 -0.1884  0.0403
  561MOL0     C73983   4.376   6.876   7.449 -0.5013 -0.4294 -0.2025
  561MOL0     C73984   4.482   6.819   7.444 -0.0725 -0.0883  0.0445
  561MOL0     C73985   4.645   7.322   7.746 -0.1550 -0.1496 -1.2364
  561MOL0     C73986   4.771   7.381   7.710 -0.8325  0.0667 -0.5899
  561MOL0     H73987   5.253   7.379   7.926 -0.0342 -1.1580 -0.0297
  561MOL0     H73988   5.503   7.418   7.931  2.2627  1.1674 -1.1108
  561MOL0     H73989   5.796   7.547   7.701 -1.9685  1.8383 -0.7190
  561MOL0     H73990   5.687   7.540   7.565  1.0089 -1.4695 -1.1211
  561MOL0     H73991   5.737   7.305   7.523  3.5660 -1.9767 -3.8282
  561MOL0     H73992   5.882   7.311   7.625 -1.3372 -1.5095  0.4199
  561MOL0     H73993   5.953   7.523   7.478  1.1726 -1.5553 -2.2149
  561MOL0     H73994   5.821   7.472   7.365  1.8928 -0.3773 -2.6065
  561MOL0     H73995   6.034   7.274   7.446  1.9797  2.5196 -0.6016
  561MOL0     H73996   5.905   7.258   7.316 -1.2889  0.7235  0.2197
  561MOL0     H73997   6.149   7.431   7.339 -0.7750 -0.1090  2.0092
  561MOL0     H73998   6.026   7.497   7.244 -0.9765  0.3281  3.1753
  561MOL0     H73999   6.023   7.265   7.108 -0.7090  2.9007 -2.8726
  561MOL0     H74000   6.157   7.219   7.219 -0.1761  0.8487  1.4808
  561MOL0     H74001   6.123   7.457   7.028  0.7838  0.8246  0.6144
  561MOL0     H74002   6.263   7.446   7.129 -1.9883  0.6248  0.3495
  561MOL0     H74003   6.329   7.234   7.007 -0.6132  1.3727  2.6696
  561MOL0     H74004   6.310   7.383   6.907 -3.5616  0.8447 -0.7934
  561MOL0     H74005   6.161   7.366   6.694 -1.8525  1.9833  1.8345
  561MOL0     H74006   5.989   7.146   6.503 -0.7470  2.4839 -2.2481
  561MOL0     H74007   5.955   7.313   6.557 -1.2079  0.0675  1.1064
  561MOL0     H74008   5.776   7.073   6.629  1.6134  0.3793  1.8465
  561MOL0     H74009   5.755   7.183   6.493 -0.7785 -0.3000 -0.2157
  561MOL0     H74010   5.745   7.251   6.785 -0.0239  1.4593  0.0667
  561MOL0     H74011   5.753   7.369   6.644 -1.0632  0.7470  0.2116
  561MOL0     H74012   5.547   7.253   6.781  0.2315  0.4651  0.3064
  561MOL0     H74013   5.536   7.156   6.644 -2.7430  1.0205  0.4227
  561MOL0     H74014   5.358   7.518   6.447 -1.4669  1.2178 -0.6819
  561MOL0     H74015   5.132   7.573   6.474  0.0091  1.8132  2.0621
  561MOL0     H74016   4.713   7.222   6.685 -1.4177 -0.8245 -1.7416
  561MOL0     H74017   4.458   7.225   6.703  2.9519 -1.8589 -1.2782
  561MOL0     H74018   4.309   7.564   6.744  2.0072 -1.2957  1.3281
  561MOL0     H74019   4.251   7.571   6.920 -1.0467 -2.3395  0.9144
  561MOL0     H74020   4.119   7.442   6.685  0.4445  0.9474 -0.3224
  561MOL0     H74021   4.073   7.598   6.747 -0.1444 -1.0272 -0.7970
  561MOL0     H74022   4.008   7.511   6.975 -1.9709  0.2059 -0.4414
  561MOL0     H74023   4.067   7.349   6.942  0.2242 -1.9358 -3.1986
  561MOL0     H74024   3.843   7.477   6.785  1.8417  1.2231  1.0243
  561MOL0     H74025   3.911   7.316   6.758 -4.6405  1.2809 -2.0369
  561MOL0     H74026   3.827   7.226   6.954 -0.6371  0.0413 -1.0631
  561MOL0     H74027   3.709   7.306   6.852 -0.2022  2.5131 -0.5243
  561MOL0     H74028   3.696   7.501   7.003  1.0128  1.7416  3.0856
  561MOL0     H74029   3.821   7.439   7.108 -0.6102 -1.7785  2.1505
  561MOL0     H74030   3.544   7.354   7.082  1.0304 -1.1092 -2.1543
  561MOL0     H74031   3.662   7.235   7.142  2.5481  0.5661 -0.6922
  561MOL0     H74032   3.583   7.497   7.261 -0.0390 -0.9502 -1.1197
  561MOL0     H74033   3.730   7.399   7.328 -0.3737 -0.3969  0.1033
  561MOL0     H74034   4.499   7.572   6.956  1.5141  0.7803 -0.4072
  561MOL0     H74035   4.740   7.566   6.932  2.3647 -2.0497 -0.7473
  561MOL0     H74036   5.096   7.263   6.786  0.3903  0.8451  2.3039
  561MOL0     H74037   5.322   7.223   6.777  1.6413  2.0663  2.3892
  561MOL0     H74038   5.505   7.335   7.499  0.3840 -2.1219 -0.5232
  561MOL0     H74039   5.262   7.287   7.517  1.1212 -0.6310 -0.5268
  561MOL0     H74040   4.965   7.099   7.745  1.0231  0.7036  0.2905
  561MOL0     H74041   4.748   7.003   7.777 -3.0537  1.5563 -0.4733
  561MOL0     H74042   4.413   6.968   7.825  4.9416 -1.8369  1.7005
  561MOL0     H74043   4.522   6.981   7.693  1.1485 -0.6423  2.5722
  561MOL0     H74044   4.286   7.184   7.717  1.6315  1.9037 -0.1013
  561MOL0     H74045   4.385   7.150   7.579 -0.8377 -2.9064 -2.3776
  561MOL0     H74046   4.128   7.032   7.625 -0.4728 -0.4281 -0.2434
  561MOL0     H74047   4.239   6.912   7.682 -1.4819  1.3873  1.1827
  561MOL0     H74048   4.165   6.901   7.428  1.6747 -2.6192  0.5645
  561MOL0     H74049   4.265   7.044   7.402  1.0425  0.2827  0.7996
  561MOL0     H74050   4.572   6.762   7.427 -1.0314 -3.1719  3.9368
  561MOL0     H74051   4.555   7.382   7.755  0.9501  1.8540 -2.5256
  561MOL0     H74052   4.769   7.487   7.689  2.5690  0.7180  1.5484
  562MOL0     O74053   2.454   2.548   7.774 -0.1813  0.4745  0.4395
  562MOL0     C74054   2.485   2.457   7.845  0.4144  0.2193  0.3379
  562MOL0     O74055   2.405   2.411   7.948  0.1098 -0.0604 -0.1624
  562MOL0     C74056   2.289   2.469   7.974  0.2169 -0.6590  0.7556
  562MOL0     C74057   2.270   2.612   7.980  1.1390  0.4800  0.8849
  562MOL0     C74058   2.142   2.669   8.008 -0.3415 -0.6797  1.3034
  562MOL0     C74059   2.036   2.590   8.046 -0.6341 -0.0640 -0.1490
  562MOL0     O74060   1.927   2.659   8.094 -0.4378  0.6295 -0.5323
  562MOL0     C74061   1.827   2.597   8.172  0.0574  0.7356 -0.2199
  562MOL0     C74062   1.694   2.671   8.144 -0.7772  0.5532  0.2236
  562MOL0     C74063   1.584   2.623   8.237 -0.6825 -1.0237 -0.2716
  562MOL0     C74064   1.462   2.705   8.200  0.1906  0.5914  0.3616
  562MOL0     C74065   1.348   2.666   8.298 -0.1128 -0.2045 -0.2542
  562MOL0     C74066   1.214   2.751   8.276 -0.0054  0.0550 -0.7232
  562MOL0     C74067   1.107   2.703   8.379 -0.0485  0.1337 -0.5795
  562MOL0     C74068   0.963   2.778   8.352 -0.3218 -0.4088 -0.5075
  562MOL0     N74069   0.848   2.713   8.413  0.1748 -0.1399  0.3597
  562MOL0     C74070   0.812   2.583   8.420 -0.4249  0.2873 -0.4155
  562MOL0     C74071   0.710   2.583   8.516 -0.4986 -1.1263  0.1775
  562MOL0     C74072   0.629   2.463   8.532  0.0817  0.3755 -0.1155
  562MOL0     C74073   0.485   2.487   8.481  0.1068 -0.0125 -0.4428
  562MOL0     C74074   0.430   2.346   8.476  0.6773 -0.5652  0.3166
  562MOL0     C74075   0.355   2.298   8.600  0.7333 -0.0011 -0.5902
  562MOL0     O74076   0.247   2.381   8.649 -0.6820  0.3054  0.7738
  562MOL0     C74077   0.119   2.342   8.615 -0.5223 -0.1083 -0.1880
  562MOL0     C74078   0.013   2.362   8.708  0.4325 -0.3372 -0.4930
  562MOL0     C74079  -0.116   2.322   8.680 -0.6265  0.7190 -0.2143
  562MOL0     C74080  -0.145   2.263   8.561  0.8077  0.3219  0.4119
  562MOL0     C74081  -0.284   2.221   8.520  0.3641 -0.3846 -0.1276
  562MOL0     O74082  -0.394   2.300   8.560  0.0850 -0.1302 -0.9075
  562MOL0     C74083  -0.528   2.259   8.530  0.4298 -0.4608 -0.7815
  562MOL0     C74084  -0.620   2.358   8.499  0.6787  0.0745  1.2387
  562MOL0     C74085  -0.747   2.319   8.464  0.2237  0.5244 -0.0177
  562MOL0     C74086  -0.802   2.196   8.495  0.9622 -0.0284  0.1560
  562MOL0     O74087  -0.938   2.162   8.477  0.1337 -0.2294  0.4480
  562MOL0     C74088  -1.040   2.267   8.445 -0.6481 -0.0603  0.1319
  562MOL0     C74089  -1.179   2.213   8.457 -1.5104  0.0644  0.2140
  562MOL0     C74090  -1.276   2.334   8.420 -0.7133  0.4645 -0.6493
  562MOL0     C74091  -1.412   2.271   8.409  1.4248 -0.2179  0.1374
  562MOL0     C74092  -1.519   2.379   8.358 -0.2401  0.1998  0.4598
  562MOL0     C74093  -1.659   2.324   8.332 -0.6750 -0.7708  0.4015
  562MOL0     C74094  -1.757   2.430   8.263 -0.3717  1.1665 -0.0896
  562MOL0     C74095  -1.898   2.381   8.279 -0.0239 -0.3502 -0.1727
  562MOL0    Cl74096  -1.990   2.467   8.146  0.5888 -0.0625 -0.8545
  562MOL0     C74097  -0.708   2.106   8.546 -0.2305  0.2911  0.2335
  562MOL0     C74098  -0.570   2.133   8.556  0.2094  0.2702  0.2926
  562MOL0     O74099  -0.297   2.127   8.441 -0.3594 -0.3869  0.3908
  562MOL0     C74100  -0.041   2.254   8.462 -0.3796  0.0878 -1.1715
  562MOL0     C74101   0.089   2.298   8.487 -0.3001 -0.4963 -0.1236
  562MOL0     N74102   0.688   2.705   8.571  0.5808 -0.8207  0.6166
  562MOL0     N74103   0.783   2.778   8.518 -0.5221  0.0350  0.5446
  562MOL0     C74104   2.053   2.452   8.037  0.0378 -0.5009 -0.6442
  562MOL0     C74105   2.175   2.395   7.998 -0.0427  0.2824 -0.8069
  562MOL0     C74106   2.612   2.396   7.822 -0.1151  0.2460  0.0085
  562MOL0     C74107   2.691   2.443   7.721 -0.2120 -0.7580  1.0282
  562MOL0     C74108   2.820   2.394   7.712 -0.2649 -0.5853  1.2825
  562MOL0     C74109   2.876   2.299   7.806  0.6613 -0.8214  0.3202
  562MOL0     O74110   3.005   2.249   7.788  0.7247  1.0372 -0.0297
  562MOL0     C74111   3.089   2.317   7.690 -0.0021  0.1859  0.4751
  562MOL0     C74112   3.239   2.291   7.728 -0.4640  0.5588 -0.4147
  562MOL0     C74113   3.326   2.311   7.600 -0.3594  0.4230 -0.1721
  562MOL0     C74114   3.472   2.254   7.600 -0.5410 -0.4693 -0.1384
  562MOL0     C74115   3.477   2.106   7.609  1.1016 -0.2757  0.9178
  562MOL0     C74116   3.482   1.983   7.606 -0.1880 -0.3386  0.4073
  562MOL0     C74117   2.794   2.270   7.914 -0.2908 -0.3791  0.4542
  562MOL0     C74118   2.662   2.311   7.920 -0.0219 -0.5965  1.2862
  562MOL0     H74119   2.359   2.669   7.954  3.0651 -2.4677  0.6107
  562MOL0     H74120   2.136   2.777   8.008  2.8259 -0.3812  3.3918
  562MOL0     H74121   1.851   2.603   8.279 -2.3569 -1.7507  0.5785
  562MOL0     H74122   1.806   2.494   8.139 -0.5038  0.9535 -0.5598
  562MOL0     H74123   1.661   2.649   8.042 -0.6059 -0.3419  0.3533
  562MOL0     H74124   1.718   2.777   8.155  0.3507  0.3641 -0.2784
  562MOL0     H74125   1.610   2.638   8.342 -0.7851  2.5752 -0.6430
  562MOL0     H74126   1.560   2.517   8.221 -2.5377 -0.7580  0.5383
  562MOL0     H74127   1.482   2.813   8.200  0.6708  0.5047  0.1530
  562MOL0     H74128   1.425   2.670   8.104 -0.2085  3.8699 -0.8115
  562MOL0     H74129   1.381   2.667   8.402  0.1163  0.7428 -0.3310
  562MOL0     H74130   1.318   2.564   8.269  1.6900 -0.5268 -1.0960
  562MOL0     H74131   1.172   2.737   8.175  1.6181  1.3585 -1.6338
  562MOL0     H74132   1.238   2.856   8.293 -0.3530 -0.1880  1.5340
  562MOL0     H74133   1.096   2.595   8.368 -3.4468  0.2289  0.7265
  562MOL0     H74134   1.134   2.718   8.484 -2.5791  0.9490  0.0423
  562MOL0     H74135   0.944   2.788   8.245 -1.2739 -0.4729 -0.3512
  562MOL0     H74136   0.972   2.882   8.386 -1.6542  0.4845 -2.6894
  562MOL0     H74137   0.861   2.503   8.365 -0.5861  0.0398 -0.1999
  562MOL0     H74138   0.617   2.439   8.639 -0.0198 -1.2832 -0.4764
  562MOL0     H74139   0.677   2.374   8.492 -0.1413 -0.4389  1.3506
  562MOL0     H74140   0.491   2.529   8.380  1.6717 -5.1144 -2.8080
  562MOL0     H74141   0.434   2.556   8.550  1.9854 -1.0741  2.1511
  562MOL0     H74142   0.350   2.344   8.401  1.6336  0.8930 -0.8110
  562MOL0     H74143   0.504   2.272   8.444 -1.8108 -2.4184 -1.6238
  562MOL0     H74144   0.429   2.288   8.680  0.6256 -1.5732 -0.6632
  562MOL0     H74145   0.309   2.202   8.576 -1.0832  1.0766 -1.6605
  562MOL0     H74146   0.028   2.421   8.798 -0.4954 -1.1557  0.2166
  562MOL0     H74147  -0.193   2.336   8.755 -0.4830  2.4038 -0.3502
  562MOL0     H74148  -0.576   2.456   8.484  2.1646 -0.8824 -1.1439
  562MOL0     H74149  -0.808   2.391   8.410 -0.8985  1.2304  2.0643
  562MOL0     H74150  -1.026   2.300   8.341 -0.2201 -0.8605 -0.0794
  562MOL0     H74151  -1.034   2.342   8.523 -1.5561 -0.2193  0.3685
  562MOL0     H74152  -1.195   2.184   8.562 -1.6103  1.5688  0.6383
  562MOL0     H74153  -1.192   2.137   8.380 -0.1399  1.5282 -1.5669
  562MOL0     H74154  -1.242   2.380   8.327 -1.2434  3.3907  0.5236
  562MOL0     H74155  -1.280   2.413   8.496  0.6137  2.6354 -2.6927
  562MOL0     H74156  -1.418   2.178   8.354 -0.5225 -1.4896  2.2775
  562MOL0     H74157  -1.447   2.235   8.506  1.9129  0.3416  0.5314
  562MOL0     H74158  -1.478   2.434   8.273  2.7678  0.7076  2.0605
  562MOL0     H74159  -1.525   2.459   8.433  0.6453 -0.0741  0.8419
  562MOL0     H74160  -1.700   2.295   8.429 -0.0132 -3.3964 -0.0322
  562MOL0     H74161  -1.649   2.237   8.267  0.0495  0.2382 -0.8946
  562MOL0     H74162  -1.758   2.525   8.317 -3.7680  0.2924  1.6894
  562MOL0     H74163  -1.734   2.442   8.157  2.5402  1.5417  0.5110
  562MOL0     H74164  -1.934   2.403   8.379 -0.4518  3.6793 -1.0534
  562MOL0     H74165  -1.891   2.274   8.255  2.5948  0.1412 -2.2095
  562MOL0     H74166  -0.740   2.011   8.588  1.8290  1.1832  4.2372
  562MOL0     H74167  -0.506   2.056   8.599 -1.3551 -0.2565  1.8036
  562MOL0     H74168  -0.072   2.229   8.361 -2.3335  3.4228 -1.5264
  562MOL0     H74169   0.156   2.299   8.402  0.4338 -1.2057  0.4286
  562MOL0     H74170   1.967   2.388   8.058  0.8023 -1.3755 -0.0953
  562MOL0     H74171   2.191   2.288   7.987  2.8444  0.6424 -0.7813
  562MOL0     H74172   2.660   2.516   7.646  0.6098 -2.8536 -1.5043
  562MOL0     H74173   2.883   2.417   7.627  0.0159 -0.9111  1.3999
  562MOL0     H74174   3.079   2.426   7.689 -0.2963  0.1586 -1.1536
  562MOL0     H74175   3.072   2.265   7.595 -0.1608 -2.3096  1.7698
  562MOL0     H74176   3.272   2.357   7.809  2.3599  1.0558 -1.8403
  562MOL0     H74177   3.250   2.186   7.757  3.9507  0.9749  0.0901
  562MOL0     H74178   3.334   2.416   7.571  0.5315  0.4197  0.0201
  562MOL0     H74179   3.274   2.252   7.525  0.8638 -2.2783  0.9773
  562MOL0     H74180   3.513   2.290   7.506 -0.4313  1.6276  0.6711
  562MOL0     H74181   3.531   2.291   7.684  0.0093 -0.6852 -0.4235
  562MOL0     H74182   3.508   1.879   7.609  0.7183 -0.2281 -1.8538
  562MOL0     H74183   2.830   2.215   8.001 -0.7353  0.3346  1.0926
  562MOL0     H74184   2.607   2.287   8.011 -3.4255 -2.1368 -0.9823
  563MOL0     O74185   3.511   7.772   9.387  0.4449 -0.8835 -0.5219
  563MOL0     C74186   3.453   7.774   9.495  0.1283  0.3349  0.0408
  563MOL0     O74187   3.502   7.818   9.623  0.8536 -0.0086 -0.1017
  563MOL0     C74188   3.639   7.819   9.646 -0.6902 -0.8177 -0.3881
  563MOL0     C74189   3.693   7.927   9.710  0.2737  0.4963  0.1214
  563MOL0     C74190   3.830   7.936   9.744  0.0417 -0.2915 -0.7698
  563MOL0     C74191   3.912   7.839   9.702 -0.4797  0.2560 -0.2221
  563MOL0     O74192   4.052   7.845   9.723  0.3832 -0.4494  0.0365
  563MOL0     C74193   4.135   7.732   9.704  1.4986  1.0100 -0.4382
  563MOL0     C74194   4.277   7.783   9.720  0.6778  0.4976  0.1989
  563MOL0     C74195   4.378   7.672   9.730 -0.9719  0.9826  0.0861
  563MOL0     C74196   4.501   7.730   9.813 -1.5879  0.3058 -0.6164
  563MOL0     C74197   4.560   7.862   9.771  0.8183 -0.2388 -0.3333
  563MOL0     C74198   4.720   7.870   9.775  0.5860 -0.9615 -0.6168
  563MOL0     C74199   4.786   7.765   9.687  0.7480  0.3309 -1.2478
  563MOL0     C74200   4.936   7.801   9.696 -0.2973 -0.4494  0.1309
  563MOL0     N74201   4.985   7.763   9.823  0.4273 -0.4943  1.0110
  563MOL0     C74202   4.970   7.825   9.948  0.4163  0.4413 -0.4208
  563MOL0     C74203   5.017   7.723  10.030  0.8634  0.2377  0.3001
  563MOL0     C74204   4.986   7.723  10.179  0.1164  0.3848 -0.0098
  563MOL0     C74205   4.892   7.597  10.207 -0.1466 -0.0741 -0.7500
  563MOL0     C74206   4.754   7.630  10.154 -0.1479 -0.5801 -0.4534
  563MOL0     C74207   4.652   7.522  10.178  0.3390  0.2568 -0.5782
  563MOL0     O74208   4.523   7.565  10.125  0.2168  0.0549  0.5219
  563MOL0     C74209   4.413   7.482  10.144 -0.5914 -0.6748  0.3227
  563MOL0     C74210   4.292   7.525  10.094 -0.6620 -1.0448 -0.2813
  563MOL0     C74211   4.169   7.469  10.126 -0.1207  0.4385  0.7184
  563MOL0     C74212   4.171   7.346  10.195 -0.1731  1.0448  0.6520
  563MOL0     C74213   4.043   7.275  10.210 -0.0269 -0.7831 -0.5461
  563MOL0     O74214   3.946   7.284  10.117 -0.1030  0.4867  0.3373
  563MOL0     C74215   3.840   7.205  10.125  0.5800  0.3981  0.2211
  563MOL0     C74216   3.713   7.259  10.136  0.3950 -0.0954 -0.2384
  563MOL0     C74217   3.605   7.174  10.161  0.8197  0.5019 -0.4696
  563MOL0     C74218   3.613   7.036  10.176  0.0948 -0.7070 -0.0396
  563MOL0     O74219   3.500   6.965  10.194  0.2263  0.6957  0.5076
  563MOL0     C74220   3.495   6.823  10.147 -0.5210 -0.4144  0.5546
  563MOL0     C74221   3.342   6.788  10.174 -0.8964 -0.5471  0.2634
  563MOL0     C74222   3.239   6.878  10.103  0.9881 -1.0605  0.0581
  563MOL0     C74223   3.098   6.832  10.128 -0.4236  0.1293 -0.8339
  563MOL0     C74224   3.002   6.946  10.088  0.2712  0.2725  0.6309
  563MOL0     C74225   2.850   6.895  10.086 -0.3028 -0.1046  0.4599
  563MOL0     C74226   2.793   6.897  10.229 -0.1516  0.5977  0.0705
  563MOL0     C74227   2.643   6.903  10.244  0.7275 -0.0622  0.1480
  563MOL0    Cl74228   2.556   7.020  10.148  0.4306 -0.2335  0.1282
  563MOL0     C74229   3.738   6.982  10.164 -1.0275  0.3518  0.4338
  563MOL0     C74230   3.852   7.063  10.145 -0.0432 -0.7134  0.4590
  563MOL0     O74231   4.046   7.200  10.304 -0.1822  0.2291 -0.2947
  563MOL0     C74232   4.289   7.292  10.242  0.6927 -0.2223 -0.3262
  563MOL0     C74233   4.409   7.359  10.216  0.2805 -0.5164 -0.3714
  563MOL0     N74234   5.071   7.625   9.956 -0.4373  0.5728  0.3678
  563MOL0     N74235   5.050   7.646   9.831  0.2015 -0.4365 -0.3711
  563MOL0     C74236   3.850   7.722   9.651  0.2115 -0.2341  0.5081
  563MOL0     C74237   3.720   7.716   9.610 -0.7945 -0.3674  0.8257
  563MOL0     C74238   3.305   7.741   9.474 -0.6435  0.2796 -1.3426
  563MOL0     C74239   3.223   7.773   9.574 -0.1248 -0.0437  0.2393
  563MOL0     C74240   3.090   7.742   9.566  0.9321 -0.5133  0.7231
  563MOL0     C74241   3.033   7.676   9.455 -0.5609  0.9369  0.2411
  563MOL0     O74242   2.902   7.628   9.481 -0.7716 -0.5894  0.1496
  563MOL0     C74243   2.839   7.537   9.390  0.9119 -0.5340  0.1445
  563MOL0     C74244   2.704   7.603   9.342 -0.1391 -0.0890 -0.1916
  563MOL0     C74245   2.609   7.520   9.258  0.6054 -0.4972  0.2281
  563MOL0     C74246   2.471   7.580   9.268 -0.1156  0.3564  0.0259
  563MOL0     C74247   2.395   7.535   9.388 -0.3919 -0.1091  0.6672
  563MOL0     C74248   2.328   7.497   9.486 -0.2806  0.1367  0.2091
  563MOL0     C74249   3.114   7.653   9.348  0.0964  0.0315 -0.5585
  563MOL0     C74250   3.251   7.688   9.359  0.7014  0.1008 -0.3068
  563MOL0     H74251   3.616   8.001   9.729  0.0328  0.0530  0.9574
  563MOL0     H74252   3.882   8.015   9.797 -1.2307 -1.4677  2.5086
  563MOL0     H74253   4.124   7.691   9.603 -0.9064 -0.4077  0.3191
  563MOL0     H74254   4.117   7.651   9.776  1.5751  1.2655 -0.1294
  563MOL0     H74255   4.270   7.841   9.813 -0.7937  2.8700 -1.3023
  563MOL0     H74256   4.300   7.848   9.635  0.2497 -1.2680 -1.3231
  563MOL0     H74257   4.417   7.639   9.634 -0.4443 -1.8917  1.2046
  563MOL0     H74258   4.340   7.579   9.773 -0.4950  0.5635 -0.3883
  563MOL0     H74259   4.483   7.726   9.921  3.5774  0.1832  0.5182
  563MOL0     H74260   4.582   7.657   9.806  0.5993  2.7177 -2.4899
  563MOL0     H74261   4.514   7.935   9.839  1.7449  0.3056 -0.2714
  563MOL0     H74262   4.537   7.881   9.666  2.2855 -1.3551 -0.8967
  563MOL0     H74263   4.744   7.850   9.880 -0.5252 -0.2077 -0.2009
  563MOL0     H74264   4.752   7.972   9.752 -0.2753 -0.1531  1.4991
  563MOL0     H74265   4.763   7.663   9.717 -0.4119  1.2284  1.2047
  563MOL0     H74266   4.758   7.778   9.582 -2.0821  0.7786 -0.5220
  563MOL0     H74267   4.951   7.907   9.676 -0.7538 -0.2663  0.7381
  563MOL0     H74268   4.993   7.753   9.616 -1.8944  0.9330 -1.9489
  563MOL0     H74269   4.918   7.917   9.969  1.1652  0.9507 -0.7612
  563MOL0     H74270   4.918   7.802  10.213 -0.8672 -1.6712  3.1956
  563MOL0     H74271   5.078   7.732  10.238  0.5346  3.0202 -0.8904
  563MOL0     H74272   4.879   7.586  10.315  2.8032 -2.5849 -0.5244
  563MOL0     H74273   4.938   7.504  10.172 -0.2173 -1.1442  1.8018
  563MOL0     H74274   4.729   7.723  10.207 -1.5692 -1.5285  0.6120
  563MOL0     H74275   4.752   7.650  10.046 -1.6304 -0.6124 -0.4622
  563MOL0     H74276   4.638   7.495  10.283  0.7911 -1.5096 -0.9305
  563MOL0     H74277   4.692   7.430  10.133  0.2138  0.8393 -1.9163
  563MOL0     H74278   4.287   7.626  10.056  0.6105 -1.1861 -0.8536
  563MOL0     H74279   4.075   7.511  10.091  0.9893  2.0169 -0.5030
  563MOL0     H74280   3.705   7.367  10.123 -0.0957 -0.2852 -1.6247
  563MOL0     H74281   3.508   7.217  10.182 -0.0344 -1.4290 -0.2462
  563MOL0     H74282   3.566   6.767  10.208 -2.0558 -1.8348  1.1149
  563MOL0     H74283   3.518   6.801  10.042  1.9434 -0.4317  1.0480
  563MOL0     H74284   3.322   6.786  10.281  1.3837  1.2484  0.7867
  563MOL0     H74285   3.327   6.683  10.145  0.5345 -0.5837 -0.4174
  563MOL0     H74286   3.254   6.871   9.995 -2.0246  3.3216 -0.9214
  563MOL0     H74287   3.242   6.985  10.125 -0.1769 -1.0692  0.3151
  563MOL0     H74288   3.088   6.732  10.084  0.6295  0.3864 -1.6965
  563MOL0     H74289   3.084   6.815  10.235 -1.0602  1.1357 -0.7444
  563MOL0     H74290   3.021   6.965   9.982 -0.0405 -3.1132 -0.1361
  563MOL0     H74291   3.028   7.036  10.145  3.2168 -2.1557  3.4982
  563MOL0     H74292   2.851   6.791  10.055  2.0411  0.0577 -0.2456
  563MOL0     H74293   2.781   6.945  10.018 -0.5008 -1.1004 -0.0786
  563MOL0     H74294   2.821   6.804  10.279 -0.1888  0.9718  0.7994
  563MOL0     H74295   2.842   6.978  10.285 -1.6231  1.8596 -0.3850
  563MOL0     H74296   2.627   6.925  10.350 -2.1526  0.1800 -0.2455
  563MOL0     H74297   2.586   6.811  10.225 -0.4258  1.2543 -3.6568
  563MOL0     H74298   3.759   6.878  10.183 -0.7587 -0.1374 -2.2424
  563MOL0     H74299   3.952   7.023  10.130  0.5303  1.7059 -4.0774
  563MOL0     H74300   4.294   7.200  10.299  0.9530  0.3046  0.5310
  563MOL0     H74301   4.503   7.319  10.251 -0.4455 -0.2284  2.0823
  563MOL0     H74302   3.921   7.643   9.630  1.1858  0.6766  0.2879
  563MOL0     H74303   3.673   7.643   9.545 -1.8279  1.0620 -0.0745
  563MOL0     H74304   3.262   7.829   9.659 -0.7885  2.3143 -0.9051
  563MOL0     H74305   3.020   7.752   9.648  0.1117  3.9354 -0.2599
  563MOL0     H74306   2.810   7.446   9.442  0.2583  0.4760  1.6028
  563MOL0     H74307   2.891   7.497   9.302 -0.9296 -1.4496 -0.5952
  563MOL0     H74308   2.648   7.638   9.430 -0.1003  1.5200 -0.7826
  563MOL0     H74309   2.729   7.693   9.286 -0.2196 -0.6116 -1.0830
  563MOL0     H74310   2.610   7.411   9.271 -1.9667 -0.9079 -1.9438
  563MOL0     H74311   2.648   7.531   9.156 -0.4938  1.9667 -0.0018
  563MOL0     H74312   2.457   7.685   9.242  0.4696  0.8320  1.5618
  563MOL0     H74313   2.406   7.545   9.187  0.1643 -1.2653  0.4608
  563MOL0     H74314   2.278   7.451   9.568 -0.6206  1.4441  0.7590
  563MOL0     H74315   3.079   7.603   9.258  3.3108 -0.0270 -1.9360
  563MOL0     H74316   3.310   7.663   9.272 -2.2841  3.7107 -3.7587
  564MOL0     O74317  10.493   3.317   0.984  0.2177  0.4074 -0.3781
  564MOL0     C74318  10.485   3.251   1.089  0.7222  0.2585 -0.6844
  564MOL0     O74319  10.393   3.277   1.188 -0.4849  0.5550 -0.4120
  564MOL0     C74320  10.276   3.332   1.148  0.6565  0.3163  0.3750
  564MOL0     C74321  10.206   3.412   1.237 -0.8029 -0.1549 -0.1115
  564MOL0     C74322  10.093   3.471   1.200  0.6108 -0.4425 -0.1114
  564MOL0     C74323  10.045   3.452   1.072  0.0782  0.3272  0.0407
  564MOL0     O74324   9.942   3.515   1.016 -0.1708 -0.1571 -0.7625
  564MOL0     C74325   9.861   3.593   1.107 -0.6363  0.3037  0.6704
  564MOL0     C74326   9.746   3.669   1.039 -1.2491 -0.8707 -0.7281
  564MOL0     C74327   9.628   3.566   1.031  0.5466 -1.0755 -0.2055
  564MOL0     C74328   9.500   3.649   1.003 -0.8951 -0.1692  0.0576
  564MOL0     C74329   9.383   3.552   1.024 -0.8931  0.2170 -0.0475
  564MOL0     C74330   9.246   3.609   1.013 -0.2963 -0.6178 -0.1049
  564MOL0     C74331   9.128   3.519   1.066 -1.0595  0.1710  0.2260
  564MOL0     C74332   8.987   3.571   1.057  1.0349 -0.4138  0.4773
  564MOL0     N74333   8.883   3.467   1.027 -0.5379 -0.5048 -0.3314
  564MOL0     C74334   8.797   3.419   1.119 -0.3589 -0.1499  0.1534
  564MOL0     C74335   8.714   3.344   1.045 -0.5338  0.3646 -0.7268
  564MOL0     C74336   8.615   3.246   1.109 -0.0369  0.2733  0.1019
  564MOL0     C74337   8.480   3.307   1.132  0.4036 -0.0798  0.4316
  564MOL0     C74338   8.382   3.234   1.225  0.2105  0.9842 -0.3664
  564MOL0     C74339   8.263   3.313   1.248 -0.1799 -0.1457  0.0166
  564MOL0     O74340   8.177   3.236   1.333 -0.3877  0.5946 -0.8034
  564MOL0     C74341   8.063   3.300   1.371  0.9157 -0.4123 -0.6088
  564MOL0     C74342   7.980   3.238   1.457 -1.0531 -0.8349 -0.3780
  564MOL0     C74343   7.848   3.271   1.477  0.9551 -0.8636  0.3525
  564MOL0     C74344   7.793   3.393   1.426  0.5896  0.5784 -0.1266
  564MOL0     C74345   7.659   3.441   1.450 -0.0862  0.8507 -0.2460
  564MOL0     O74346   7.562   3.343   1.442 -0.6847 -0.1631  0.0251
  564MOL0     C74347   7.430   3.379   1.460 -0.8397 -0.0813  1.0221
  564MOL0     C74348   7.350   3.306   1.549  0.0739 -0.5287  0.0698
  564MOL0     C74349   7.213   3.348   1.569  0.2319 -0.2212  0.0885
  564MOL0     C74350   7.159   3.462   1.499 -0.4891 -0.2112 -0.1350
  564MOL0     O74351   7.036   3.509   1.500  0.0932 -0.6317  0.2939
  564MOL0     C74352   6.932   3.444   1.567 -0.1849  0.1224 -0.3800
  564MOL0     C74353   6.803   3.509   1.514 -0.0302  0.5318  0.2232
  564MOL0     C74354   6.690   3.466   1.605 -0.1717  0.2907  0.2679
  564MOL0     C74355   6.568   3.555   1.563  0.2961  0.1313  0.0927
  564MOL0     C74356   6.455   3.528   1.661  0.4634  0.3998 -0.4504
  564MOL0     C74357   6.325   3.587   1.605  0.2120  0.3854  0.0924
  564MOL0     C74358   6.209   3.550   1.697  0.7915 -0.3252 -0.6340
  564MOL0     C74359   6.216   3.619   1.831 -0.0977 -0.0374  0.0433
  564MOL0    Cl74360   6.179   3.798   1.801  0.0046 -0.0812  0.5126
  564MOL0     C74361   7.244   3.532   1.414  1.4209  0.1153 -0.3214
  564MOL0     C74362   7.373   3.487   1.391 -0.3576 -0.9410 -0.2734
  564MOL0     O74363   7.636   3.563   1.469 -0.5815 -0.2720 -0.0948
  564MOL0     C74364   7.886   3.473   1.354  0.1327  0.1675  0.2194
  564MOL0     C74365   8.015   3.431   1.320  1.0844 -0.1030  0.6092
  564MOL0     N74366   8.753   3.342   0.916  0.5834  0.5487 -0.4711
  564MOL0     N74367   8.844   3.428   0.898  0.0264  0.1206 -0.6599
  564MOL0     C74368  10.095   3.347   0.994 -0.4017 -1.2684 -0.7235
  564MOL0     C74369  10.211   3.294   1.028  0.5399  0.1980 -0.0459
  564MOL0     C74370  10.604   3.175   1.129  0.5068  0.9594  1.3398
  564MOL0     C74371  10.684   3.115   1.029 -0.2711  1.0647 -0.5149
  564MOL0     C74372  10.802   3.052   1.068 -0.1625  0.5530  0.1443
  564MOL0     C74373  10.857   3.068   1.197  1.0712  0.1206 -0.3772
  564MOL0     O74374  10.980   3.030   1.246 -0.0917  0.1773 -0.3983
  564MOL0     C74375  11.070   2.968   1.162  0.5704 -0.1631  0.0191
  564MOL0     C74376  11.198   2.928   1.237 -0.0284  0.2462  0.0139
  564MOL0     C74377  11.292   2.840   1.153  0.0677  0.1360 -0.8320
  564MOL0     C74378  11.426   2.808   1.224  0.0805  0.2364  0.5024
  564MOL0     C74379  11.506   2.696   1.170  0.1137 -0.2995  0.5024
  564MOL0     C74380  11.579   2.604   1.129  0.1440 -0.8601 -0.0735
  564MOL0     C74381  10.770   3.121   1.296  1.2011 -0.2684  0.1241
  564MOL0     C74382  10.649   3.183   1.260 -0.2847  0.3278 -0.7217
  564MOL0     H74383  10.252   3.424   1.334  0.1786 -0.8105 -0.4817
  564MOL0     H74384  10.048   3.540   1.271  0.3077  0.9741 -1.6208
  564MOL0     H74385   9.920   3.672   1.154  0.7032  1.2624 -2.3825
  564MOL0     H74386   9.829   3.531   1.192  1.7801 -0.3090  1.2250
  564MOL0     H74387   9.781   3.704   0.942  1.0476 -1.8087 -0.3026
  564MOL0     H74388   9.714   3.756   1.096  0.0765 -0.9195  0.1250
  564MOL0     H74389   9.621   3.515   1.128 -0.3599  2.0283  1.5159
  564MOL0     H74390   9.641   3.492   0.952 -1.7447 -1.1104 -0.6207
  564MOL0     H74391   9.483   3.736   1.066  2.1084  0.7213 -0.2333
  564MOL0     H74392   9.510   3.686   0.900 -1.4387  1.9952  0.7469
  564MOL0     H74393   9.392   3.520   1.128  4.3027  0.0078 -0.3058
  564MOL0     H74394   9.391   3.463   0.960  1.2136  1.0799 -1.0780
  564MOL0     H74395   9.225   3.640   0.910  1.7405 -0.0893 -0.4187
  564MOL0     H74396   9.248   3.695   1.081  0.6517 -1.2266  0.6718
  564MOL0     H74397   9.129   3.427   1.007 -0.2538  1.0533 -1.1786
  564MOL0     H74398   9.151   3.487   1.168  0.4677  0.1646 -0.0933
  564MOL0     H74399   8.983   3.636   0.970  1.9046 -0.5303  0.3412
  564MOL0     H74400   8.956   3.627   1.145 -3.0540 -3.4516  1.2996
  564MOL0     H74401   8.794   3.437   1.226 -1.9275  0.5496  0.0222
  564MOL0     H74402   8.662   3.211   1.201  2.7550  0.4084 -1.1740
  564MOL0     H74403   8.601   3.162   1.041 -0.7831  0.7469 -0.3492
  564MOL0     H74404   8.431   3.338   1.039  2.2338 -0.8881 -0.8586
  564MOL0     H74405   8.516   3.398   1.181  3.0564  1.0331 -3.2173
  564MOL0     H74406   8.334   3.146   1.181  0.0008  0.0289  1.6555
  564MOL0     H74407   8.429   3.196   1.316 -1.5808  0.4535  0.3868
  564MOL0     H74408   8.224   3.353   1.154 -0.9775  1.3775  0.9547
  564MOL0     H74409   8.301   3.403   1.297  2.8729 -1.5313  0.3886
  564MOL0     H74410   8.011   3.140   1.492 -2.4674 -1.5714 -1.1053
  564MOL0     H74411   7.787   3.208   1.540  1.7091 -2.2528 -0.2784
  564MOL0     H74412   7.397   3.224   1.602 -0.4257 -1.4998 -0.9552
  564MOL0     H74413   7.150   3.287   1.632  0.9347 -2.6323 -1.3925
  564MOL0     H74414   6.941   3.443   1.676  2.0090  0.6385 -0.5174
  564MOL0     H74415   6.935   3.338   1.541  1.8880 -0.1170  0.5997
  564MOL0     H74416   6.782   3.493   1.408 -1.1313  1.1666  0.3274
  564MOL0     H74417   6.821   3.616   1.531 -4.0221  1.3404  0.4684
  564MOL0     H74418   6.717   3.469   1.711  1.1305  0.8078 -0.0686
  564MOL0     H74419   6.670   3.359   1.592  1.8337 -0.0789 -0.1145
  564MOL0     H74420   6.591   3.662   1.565  0.1737  0.2943 -2.7483
  564MOL0     H74421   6.529   3.532   1.463  1.5654 -1.0803 -0.1652
  564MOL0     H74422   6.484   3.572   1.757 -3.8557 -1.9370  2.2618
  564MOL0     H74423   6.420   3.425   1.672 -0.7898  0.6154 -2.0812
  564MOL0     H74424   6.297   3.537   1.512 -0.9175  3.3222 -1.2790
  564MOL0     H74425   6.338   3.692   1.576 -0.2477  0.6598  0.8398
  564MOL0     H74426   6.112   3.573   1.651 -1.1911 -0.0901  3.2238
  564MOL0     H74427   6.204   3.441   1.708  0.1249 -0.2488 -0.0917
  564MOL0     H74428   6.311   3.608   1.886 -0.8463 -0.7972  1.2411
  564MOL0     H74429   6.139   3.567   1.889 -3.1994  1.7907 -2.1790
  564MOL0     H74430   7.208   3.620   1.363  1.3018  0.4899  0.4018
  564MOL0     H74431   7.443   3.526   1.318 -0.7388 -4.2968 -2.6605
  564MOL0     H74432   7.837   3.563   1.317 -0.5903  1.0327  3.0345
  564MOL0     H74433   8.070   3.498   1.254 -0.1001  1.2848  0.9759
  564MOL0     H74434  10.054   3.325   0.896  0.2440 -1.0207 -1.0593
  564MOL0     H74435  10.268   3.229   0.961  2.7832  2.5762 -0.6088
  564MOL0     H74436  10.653   3.110   0.925  2.3002 -3.3826 -1.3065
  564MOL0     H74437  10.865   2.999   0.997  3.0984 -0.6373  3.5834
  564MOL0     H74438  11.092   3.037   1.080 -1.9414  0.4486 -0.2282
  564MOL0     H74439  11.020   2.888   1.106  0.7850 -0.9793  0.9622
  564MOL0     H74440  11.247   3.022   1.263 -0.1094  0.0393  0.9499
  564MOL0     H74441  11.173   2.869   1.326  0.6114 -0.8361 -0.5118
  564MOL0     H74442  11.297   2.873   1.049  0.0646 -3.2080 -2.0044
  564MOL0     H74443  11.239   2.745   1.138 -1.1665 -0.1664  3.7423
  564MOL0     H74444  11.487   2.898   1.234 -4.4965  3.7339  0.4126
  564MOL0     H74445  11.388   2.778   1.322 -0.8597 -1.6969 -0.3800
  564MOL0     H74446  11.653   2.531   1.104 -1.5315 -1.1230 -5.6989
  564MOL0     H74447  10.793   3.124   1.403 -1.7234  3.5906  0.8499
  564MOL0     H74448  10.587   3.229   1.337  0.3315  0.5707 -0.3607
  565MOL0     O74449   1.113   4.718   7.562  0.0081 -0.1362 -0.5602
  565MOL0     C74450   1.167   4.610   7.538 -0.2242  0.3697  0.7686
  565MOL0     O74451   1.109   4.501   7.484 -0.8349 -0.0035 -0.5118
  565MOL0     C74452   0.983   4.518   7.431  0.5893 -0.4346  0.8689
  565MOL0     C74453   0.945   4.624   7.353  0.0018 -0.3730  1.0525
  565MOL0     C74454   0.818   4.637   7.317  0.3159  0.7880  0.1734
  565MOL0     C74455   0.725   4.532   7.337  0.3923  0.2967 -0.4662
  565MOL0     O74456   0.597   4.567   7.308  0.1917  0.2191 -0.5981
  565MOL0     C74457   0.499   4.468   7.327  0.2061  0.0210 -0.1417
  565MOL0     C74458   0.358   4.526   7.302 -0.1824  0.4914  0.6632
  565MOL0     C74459   0.248   4.424   7.349 -0.1914  0.8928  0.3434
  565MOL0     C74460   0.099   4.467   7.333 -0.2660 -0.9316  0.2176
  565MOL0     C74461  -0.001   4.376   7.409  0.3678  0.1853 -0.3750
  565MOL0     C74462  -0.148   4.434   7.393  0.6495  0.8861  0.4508
  565MOL0     C74463  -0.248   4.370   7.492 -0.5894 -0.3108 -0.1396
  565MOL0     C74464  -0.391   4.407   7.435  0.6544  0.3320  0.1519
  565MOL0     N74465  -0.503   4.357   7.527 -0.8009 -0.8695  0.0831
  565MOL0     C74466  -0.558   4.235   7.532 -0.1182 -0.2968  0.3396
  565MOL0     C74467  -0.633   4.233   7.646  0.5472 -0.5094  0.0424
  565MOL0     C74468  -0.750   4.135   7.664 -0.3616 -0.1241 -0.0704
  565MOL0     C74469  -0.877   4.195   7.719 -0.8216 -0.4010  0.3850
  565MOL0     C74470  -0.939   4.292   7.616 -0.7823  0.1181  0.8855
  565MOL0     C74471  -1.075   4.334   7.660 -0.5550  0.4079  0.6212
  565MOL0     O74472  -1.166   4.221   7.645  0.4489  0.0986 -0.0589
  565MOL0     C74473  -1.306   4.244   7.665 -0.0995  0.4897 -0.3165
  565MOL0     C74474  -1.390   4.135   7.642 -0.0206  0.2596 -0.4834
  565MOL0     C74475  -1.525   4.142   7.661  0.1984  0.0028  0.4912
  565MOL0     C74476  -1.582   4.264   7.714 -0.8258 -0.2298 -0.2295
  565MOL0     C74477  -1.725   4.280   7.749  0.0081  0.0492 -0.9123
  565MOL0     O74478  -1.780   4.400   7.760 -0.2509 -0.2531  0.1544
  565MOL0     C74479  -1.917   4.431   7.782  0.8333 -0.5848 -0.7380
  565MOL0     C74480  -1.958   4.570   7.773 -0.5270 -0.6064 -0.3015
  565MOL0     C74481  -2.094   4.618   7.796 -0.6466  0.3962 -0.3932
  565MOL0     C74482  -2.197   4.529   7.838  0.3717  0.9175  0.2219
  565MOL0     O74483  -2.333   4.549   7.858  0.1623 -1.0997 -0.4357
  565MOL0     C74484  -2.353   4.669   7.934 -0.4938 -0.0874  0.6428
  565MOL0     C74485  -2.483   4.698   7.995  0.3579 -0.3689 -0.5037
  565MOL0     C74486  -2.506   4.603   8.112  0.6169  0.7647 -0.0697
  565MOL0     C74487  -2.654   4.607   8.159  0.7159 -0.3036 -0.0926
  565MOL0     C74488  -2.698   4.706   8.268  0.2304  0.8016 -0.2360
  565MOL0     C74489  -2.805   4.643   8.356 -1.0113 -0.1793  0.7141
  565MOL0     C74490  -2.870   4.725   8.458 -0.1259 -0.0602  0.0680
  565MOL0     C74491  -3.017   4.718   8.469 -0.0162 -0.4892 -0.5597
  565MOL0    Cl74492  -3.069   4.552   8.508  0.2036 -0.4324  0.2414
  565MOL0     C74493  -2.170   4.390   7.837 -0.8256 -0.4010 -0.1974
  565MOL0     C74494  -2.033   4.343   7.807 -0.1109 -0.2185  0.0556
  565MOL0     O74495  -1.786   4.169   7.766 -0.1032  0.1890  0.6338
  565MOL0     C74496  -1.492   4.371   7.739  0.1433  0.0737  0.8260
  565MOL0     C74497  -1.361   4.358   7.717  0.5071 -0.3429  0.0856
  565MOL0     N74498  -0.613   4.360   7.717 -0.2602  0.7970  0.4299
  565MOL0     N74499  -0.524   4.416   7.652  0.4921  0.3134 -0.0693
  565MOL0     C74500   0.767   4.420   7.412  0.3014  0.2533  0.2370
  565MOL0     C74501   0.891   4.417   7.460 -0.8504 -0.0731  0.4905
  565MOL0     C74502   1.314   4.596   7.540 -0.3216 -0.4187 -0.5363
  565MOL0     C74503   1.378   4.507   7.450 -0.0125  0.3845 -1.0474
  565MOL0     C74504   1.523   4.491   7.458  1.1128 -0.5369  0.7648
  565MOL0     C74505   1.598   4.587   7.528 -0.4137  0.0916  0.6191
  565MOL0     O74506   1.733   4.597   7.525 -0.8558 -0.1892 -0.2609
  565MOL0     C74507   1.799   4.511   7.433  0.1367  0.7408 -0.2533
  565MOL0     C74508   1.956   4.533   7.436 -0.9667 -0.3381  0.4811
  565MOL0     C74509   2.019   4.479   7.576  1.1521 -0.4629  0.1172
  565MOL0     C74510   2.163   4.526   7.596 -0.6357  0.5676  0.0052
  565MOL0     C74511   2.255   4.480   7.492  0.6944  0.9909 -0.5277
  565MOL0     C74512   2.321   4.459   7.395  0.2135  0.1380 -0.2744
  565MOL0     C74513   1.529   4.679   7.598 -0.6958 -0.0609  0.2036
  565MOL0     C74514   1.390   4.680   7.614 -0.7116  0.7429 -0.3780
  565MOL0     H74515   1.005   4.705   7.313 -1.4190 -1.6062 -4.2285
  565MOL0     H74516   0.786   4.734   7.282  2.0905  1.4241  0.2113
  565MOL0     H74517   0.492   4.425   7.427  1.7421  2.8433  1.2834
  565MOL0     H74518   0.528   4.385   7.262 -2.8660  0.8939 -2.9154
  565MOL0     H74519   0.350   4.537   7.194  2.5521 -1.9900  0.0726
  565MOL0     H74520   0.347   4.623   7.351 -1.3239  0.0647  1.3194
  565MOL0     H74521   0.252   4.404   7.457 -3.9810 -1.0222  0.2709
  565MOL0     H74522   0.272   4.334   7.293  2.3321  1.4389  0.4313
  565MOL0     H74523   0.084   4.572   7.360 -4.0827 -1.3940  0.4633
  565MOL0     H74524   0.061   4.469   7.231 -1.5536 -1.2107  0.6713
  565MOL0     H74525   0.035   4.380   7.512 -0.3615  2.3805 -0.1298
  565MOL0     H74526   0.012   4.274   7.374 -1.9994 -0.5440  0.6470
  565MOL0     H74527  -0.160   4.400   7.289  2.4618 -1.8864  1.0431
  565MOL0     H74528  -0.162   4.543   7.400  0.7866  1.1929 -2.6160
  565MOL0     H74529  -0.242   4.261   7.483 -2.4061 -0.6163  1.6801
  565MOL0     H74530  -0.217   4.398   7.593  0.5877 -2.2240  0.0890
  565MOL0     H74531  -0.409   4.358   7.339 -3.4059 -1.1687  1.4425
  565MOL0     H74532  -0.409   4.513   7.415 -0.4131  0.9652  3.7473
  565MOL0     H74533  -0.545   4.165   7.450 -1.3975  0.4489 -0.5383
  565MOL0     H74534  -0.721   4.051   7.728  0.7053  1.5702  1.7673
  565MOL0     H74535  -0.773   4.089   7.567  0.1185 -0.7103  0.0860
  565MOL0     H74536  -0.852   4.246   7.813 -0.6159 -2.0958  1.3024
  565MOL0     H74537  -0.951   4.123   7.754  0.0982 -2.0965 -0.9944
  565MOL0     H74538  -0.878   4.383   7.616  3.4654 -2.4736  1.7660
  565MOL0     H74539  -0.934   4.240   7.520  1.4639 -3.7514  2.8436
  565MOL0     H74540  -1.108   4.409   7.587 -4.6878 -1.5051  0.2524
  565MOL0     H74541  -1.077   4.363   7.765 -0.6099  1.7400  0.2763
  565MOL0     H74542  -1.343   4.047   7.602  1.8917  1.5655 -1.2598
  565MOL0     H74543  -1.596   4.067   7.628  2.5551 -1.7897 -0.7862
  565MOL0     H74544  -1.887   4.646   7.743 -0.4631 -0.1404  0.9506
  565MOL0     H74545  -2.119   4.719   7.767  2.8581  1.0810 -1.4937
  565MOL0     H74546  -2.321   4.756   7.876  3.3993 -0.3331  2.1221
  565MOL0     H74547  -2.286   4.663   8.020  0.2991 -1.6636 -0.0525
  565MOL0     H74548  -2.558   4.684   7.916  1.0959 -2.1830 -0.9511
  565MOL0     H74549  -2.490   4.797   8.040 -0.9462  0.4206 -2.3380
  565MOL0     H74550  -2.446   4.628   8.200 -1.4785 -1.3881  2.1338
  565MOL0     H74551  -2.492   4.502   8.072 -2.5896 -0.1287  0.7420
  565MOL0     H74552  -2.714   4.627   8.069 -0.7735 -0.4875  0.8299
  565MOL0     H74553  -2.669   4.503   8.188 -1.5293  0.0475  0.1970
  565MOL0     H74554  -2.726   4.795   8.212 -1.6025  0.5443  0.2213
  565MOL0     H74555  -2.608   4.732   8.326  0.8216  0.0029 -0.7635
  565MOL0     H74556  -2.771   4.560   8.418 -2.6746 -0.8713  0.7661
  565MOL0     H74557  -2.866   4.593   8.279 -1.2453 -0.0942  0.8439
  565MOL0     H74558  -2.835   4.700   8.559 -2.6215 -3.4015  0.2767
  565MOL0     H74559  -2.858   4.831   8.437 -2.3402  0.1101 -0.5797
  565MOL0     H74560  -3.070   4.750   8.379 -2.3510  2.2738  1.6377
  565MOL0     H74561  -3.059   4.796   8.533 -1.7807 -2.2395  0.5348
  565MOL0     H74562  -2.251   4.323   7.863 -1.0031 -0.5124 -1.0398
  565MOL0     H74563  -2.020   4.236   7.820  1.8743  0.3526  7.0960
  565MOL0     H74564  -1.536   4.463   7.776 -0.4741  0.7930 -1.5645
  565MOL0     H74565  -1.309   4.447   7.752  1.6287 -0.3975 -1.3855
  565MOL0     H74566   0.693   4.346   7.441 -0.8278  1.1393 -0.3135
  565MOL0     H74567   0.926   4.333   7.519 -2.4781  0.2706  2.0186
  565MOL0     H74568   1.327   4.447   7.375 -0.2662 -0.3257 -0.3289
  565MOL0     H74569   1.562   4.400   7.414 -0.1792 -0.5575 -0.3961
  565MOL0     H74570   1.767   4.548   7.335 -0.7200  1.6166  0.3369
  565MOL0     H74571   1.775   4.404   7.443 -0.7366  1.0466  1.3287
  565MOL0     H74572   2.009   4.477   7.358  1.9608  0.2549  1.8842
  565MOL0     H74573   1.979   4.639   7.421  0.4702 -0.4342  1.7053
  565MOL0     H74574   2.007   4.370   7.583 -0.2093 -0.2904  0.7408
  565MOL0     H74575   1.957   4.515   7.658  0.6333 -1.5689  0.2334
  565MOL0     H74576   2.166   4.635   7.595  0.0908  0.5563  0.3249
  565MOL0     H74577   2.204   4.513   7.697 -2.6427  0.2025  0.8300
  565MOL0     H74578   2.388   4.447   7.313  2.6107  1.2685  1.4022
  565MOL0     H74579   1.586   4.761   7.642 -0.6803 -1.7088  3.5932
  565MOL0     H74580   1.343   4.743   7.688 -1.2967 -0.2355  0.1159
  566MOL0     O74581   3.092   3.495   8.241  0.2440 -0.1137 -0.0117
  566MOL0     C74582   3.166   3.580   8.191 -0.1151  0.7661 -0.5172
  566MOL0     O74583   3.131   3.700   8.144 -0.4508 -0.6342  0.5194
  566MOL0     C74584   2.992   3.714   8.144 -0.3352 -0.1558  1.3083
  566MOL0     C74585   2.915   3.705   8.032 -0.1555  0.2859 -0.2397
  566MOL0     C74586   2.783   3.681   8.030  0.2912 -0.4142 -0.1232
  566MOL0     C74587   2.715   3.682   8.148 -0.2331  0.1603  0.2327
  566MOL0     O74588   2.587   3.645   8.159 -0.0614  0.2540 -1.1743
  566MOL0     C74589   2.490   3.722   8.239 -1.0543  0.0633 -0.0116
  566MOL0     C74590   2.355   3.659   8.216  0.1227 -0.0861 -0.1037
  566MOL0     C74591   2.243   3.706   8.310  0.2466  0.6527  0.1670
  566MOL0     C74592   2.115   3.627   8.271 -0.3939  0.1893 -0.3418
  566MOL0     C74593   2.013   3.636   8.387 -0.0150  0.5993  0.4807
  566MOL0     C74594   1.883   3.562   8.362 -0.0387  0.5612  0.3250
  566MOL0     C74595   1.778   3.582   8.470 -0.0412  0.3887 -0.9890
  566MOL0     C74596   1.642   3.520   8.441 -0.6803  0.6927 -1.0299
  566MOL0     N74597   1.532   3.565   8.534  0.5688  0.0229  0.3498
  566MOL0     C74598   1.426   3.642   8.501 -0.1745  0.1153  0.6998
  566MOL0     C74599   1.343   3.653   8.606 -0.4361  0.9955 -0.1967
  566MOL0     C74600   1.208   3.716   8.608  0.7974 -1.1483 -0.7349
  566MOL0     C74601   1.118   3.670   8.730 -0.1913 -0.8274  0.4222
  566MOL0     C74602   0.992   3.750   8.748  0.4267 -0.3277  0.2118
  566MOL0     C74603   0.904   3.686   8.861  0.0122 -0.6982  0.2821
  566MOL0     O74604   0.859   3.560   8.812  1.0322 -0.1088 -0.4116
  566MOL0     C74605   0.761   3.497   8.886  0.2563  0.0376 -0.4252
  566MOL0     C74606   0.707   3.382   8.821 -0.2283 -0.7524  0.3158
  566MOL0     C74607   0.593   3.315   8.881 -1.0591  0.9868  0.7598
  566MOL0     C74608   0.540   3.360   9.003  0.5589  0.1408  0.9630
  566MOL0     C74609   0.413   3.306   9.050 -0.4155 -0.7016  0.4638
  566MOL0     O74610   0.348   3.216   8.969 -0.0571  0.4813  0.0065
  566MOL0     C74611   0.224   3.161   9.003 -0.8082 -1.2812 -0.1485
  566MOL0     C74612   0.107   3.226   8.968 -0.0363  0.7409 -0.1431
  566MOL0     C74613  -0.017   3.168   9.000  0.0597  0.8020  0.3848
  566MOL0     C74614  -0.028   3.048   9.068  0.2307  0.2285  0.2329
  566MOL0     O74615  -0.147   2.987   9.104  0.1146 -0.1080 -0.5364
  566MOL0     C74616  -0.275   3.033   9.053  0.4410 -0.5743  0.4370
  566MOL0     C74617  -0.327   3.165   9.123 -0.1808  0.1890  0.6387
  566MOL0     C74618  -0.472   3.177   9.078  0.5500  0.0406  0.1488
  566MOL0     C74619  -0.566   3.293   9.144 -0.5872  0.5997  0.4217
  566MOL0     C74620  -0.714   3.272   9.126 -0.1431  1.6566  0.6643
  566MOL0     C74621  -0.799   3.382   9.184  0.3656  0.8738 -0.9119
  566MOL0     C74622  -0.932   3.325   9.226 -0.5557 -0.2352  0.0064
  566MOL0     C74623  -1.004   3.427   9.307  0.3375 -0.7794 -1.0748
  566MOL0    Cl74624  -1.042   3.590   9.239  0.1607 -0.2572  0.1172
  566MOL0     C74625   0.091   2.992   9.112 -0.2569  0.0315 -0.3248
  566MOL0     C74626   0.220   3.042   9.081  0.6441 -0.2913  0.3216
  566MOL0     O74627   0.368   3.349   9.155 -0.7562 -0.2421 -0.0442
  566MOL0     C74628   0.592   3.479   9.054 -0.0113  0.2610 -0.8306
  566MOL0     C74629   0.703   3.544   8.999  0.2182  0.6797 -0.4847
  566MOL0     N74630   1.411   3.596   8.714 -0.8512 -0.2149  0.0365
  566MOL0     N74631   1.517   3.535   8.667  0.2068  0.1896 -0.4847
  566MOL0     C74632   2.792   3.710   8.266  0.8977  0.5159 -0.1905
  566MOL0     C74633   2.928   3.721   8.264 -0.1334  0.0793 -0.4402
  566MOL0     C74634   3.303   3.540   8.161  0.3831  0.1583  0.1333
  566MOL0     C74635   3.379   3.619   8.075 -0.9152 -0.1898  0.1958
  566MOL0     C74636   3.517   3.587   8.057  0.5542  0.0509  0.6366
  566MOL0     C74637   3.577   3.485   8.122  0.0595  0.6534 -0.7695
  566MOL0     O74638   3.704   3.433   8.110 -0.1096  0.3249  0.7607
  566MOL0     C74639   3.812   3.505   8.049  0.6843 -0.5266  0.4330
  566MOL0     C74640   3.933   3.510   8.138 -0.3931  0.0983 -0.4581
  566MOL0     C74641   3.957   3.377   8.188  0.1119 -0.4365  0.7030
  566MOL0     C74642   4.083   3.365   8.261  0.1378  0.6669 -0.4198
  566MOL0     C74643   4.205   3.378   8.171  0.3908  0.5682  0.0775
  566MOL0     C74644   4.295   3.367   8.093  0.3502  0.7381  0.8484
  566MOL0     C74645   3.498   3.411   8.208  0.7765  0.1509 -0.6453
  566MOL0     C74646   3.362   3.433   8.222 -1.1070 -0.6590  0.2683
  566MOL0     H74647   2.967   3.698   7.937  0.2617 -2.3195  0.1173
  566MOL0     H74648   2.726   3.675   7.938 -0.5662  1.0893  0.2713
  566MOL0     H74649   2.484   3.829   8.220 -1.3261  0.7910  3.4396
  566MOL0     H74650   2.516   3.725   8.346  0.3477  2.8846 -0.3438
  566MOL0     H74651   2.372   3.551   8.223  3.9912  0.3320 -0.4843
  566MOL0     H74652   2.331   3.671   8.110  1.6735 -1.1084 -0.6073
  566MOL0     H74653   2.226   3.813   8.300 -0.0289  0.5168 -1.0107
  566MOL0     H74654   2.269   3.688   8.415  0.4378 -4.3090 -0.4638
  566MOL0     H74655   2.077   3.669   8.177  3.7609  0.7782 -1.9654
  566MOL0     H74656   2.130   3.520   8.253  0.0060 -0.2257  2.0695
  566MOL0     H74657   1.984   3.738   8.411 -0.1537  0.2991  1.6539
  566MOL0     H74658   2.064   3.585   8.468  3.4028  0.7811 -1.3661
  566MOL0     H74659   1.911   3.456   8.367  0.9502  0.8335  3.8583
  566MOL0     H74660   1.836   3.586   8.267 -1.7589  0.4141  1.0994
  566MOL0     H74661   1.821   3.544   8.563  1.5630 -3.2058 -2.9737
  566MOL0     H74662   1.761   3.690   8.483  0.6546  0.3725  0.1889
  566MOL0     H74663   1.647   3.413   8.462  1.9490  0.5786 -1.8295
  566MOL0     H74664   1.617   3.527   8.335  0.1319 -0.4390 -1.3123
  566MOL0     H74665   1.402   3.673   8.400  1.1930  3.3396  1.2489
  566MOL0     H74666   1.149   3.705   8.516 -1.4496  2.0729  0.1846
  566MOL0     H74667   1.233   3.822   8.615  1.8555 -1.4482  0.2826
  566MOL0     H74668   1.190   3.682   8.811  0.7150 -0.1200 -0.4595
  566MOL0     H74669   1.094   3.564   8.714 -0.9532 -1.0603  2.7522
  566MOL0     H74670   1.018   3.854   8.773 -0.3088 -0.1632  0.3481
  566MOL0     H74671   0.947   3.744   8.649  0.8471 -1.6840  0.0847
  566MOL0     H74672   0.815   3.749   8.856  1.0429  0.7117 -1.6676
  566MOL0     H74673   0.956   3.683   8.958  0.7429 -1.2329 -0.1168
  566MOL0     H74674   0.738   3.340   8.726  0.9812 -1.0480  0.8145
  566MOL0     H74675   0.548   3.227   8.834 -0.0657  0.1077  1.4131
  566MOL0     H74676   0.113   3.328   8.930  2.1746  0.9439  0.5978
  566MOL0     H74677  -0.106   3.213   8.957 -2.2479 -3.8397 -0.2587
  566MOL0     H74678  -0.356   2.959   9.050  0.6231 -0.7752  0.4974
  566MOL0     H74679  -0.263   3.059   8.947 -0.3675  3.7566  1.2237
  566MOL0     H74680  -0.274   3.255   9.088  1.2550 -0.4157  1.1925
  566MOL0     H74681  -0.317   3.155   9.231 -1.0084  0.2631  0.7305
  566MOL0     H74682  -0.524   3.086   9.107 -3.5240  1.6346 -1.3795
  566MOL0     H74683  -0.468   3.189   8.969 -1.3785 -1.0057 -0.0821
  566MOL0     H74684  -0.557   3.285   9.253 -3.1558  2.6034  0.8981
  566MOL0     H74685  -0.540   3.394   9.110 -2.4735  2.2442  3.4656
  566MOL0     H74686  -0.743   3.176   9.169 -2.5826  0.7636 -2.5838
  566MOL0     H74687  -0.739   3.270   9.019  0.4169 -0.9919  0.4996
  566MOL0     H74688  -0.815   3.452   9.101 -1.2716 -0.3310 -1.6508
  566MOL0     H74689  -0.750   3.429   9.270  1.3855 -1.3246 -0.2311
  566MOL0     H74690  -0.984   3.302   9.132 -0.0754 -1.7635  0.0898
  566MOL0     H74691  -0.923   3.237   9.291 -1.8107 -0.9599 -0.7627
  566MOL0     H74692  -0.944   3.447   9.397  0.8786  2.3537 -2.0403
  566MOL0     H74693  -1.106   3.395   9.332 -0.5921  1.1870 -2.1270
  566MOL0     H74694   0.100   2.915   9.187  2.8201  0.9580  0.3932
  566MOL0     H74695   0.305   2.993   9.128  2.3809  1.3305 -0.9572
  566MOL0     H74696   0.531   3.519   9.134  0.0805 -1.6722  0.2754
  566MOL0     H74697   0.729   3.642   9.038  0.1123  0.4657  0.1495
  566MOL0     H74698   2.737   3.716   8.359 -0.6148 -0.8895 -0.9543
  566MOL0     H74699   2.984   3.718   8.357  0.9841  0.2562 -1.0919
  566MOL0     H74700   3.334   3.707   8.029  1.9786  1.9960  1.2021
  566MOL0     H74701   3.573   3.656   7.995 -1.1671  1.1564  0.2477
  566MOL0     H74702   3.789   3.610   8.028 -0.6475 -1.1085 -1.1737
  566MOL0     H74703   3.846   3.466   7.953  1.7277  0.1701  0.4992
  566MOL0     H74704   4.022   3.555   8.092 -0.4576 -0.0781 -0.7592
  566MOL0     H74705   3.918   3.580   8.221 -0.4426  0.1071 -0.4752
  566MOL0     H74706   3.947   3.311   8.101  0.2164 -0.6120  0.8241
  566MOL0     H74707   3.877   3.359   8.260  2.8260  0.0942  4.0817
  566MOL0     H74708   4.091   3.424   8.354  2.7048  0.8187 -0.6401
  566MOL0     H74709   4.090   3.261   8.295  0.4936  0.7852 -0.1186
  566MOL0     H74710   4.372   3.351   8.020 -0.5520  1.4667 -0.3020
  566MOL0     H74711   3.546   3.330   8.262  2.0792  1.7123  0.6189
  566MOL0     H74712   3.309   3.370   8.293 -0.2302 -1.9806 -0.2147
  567MOL0     O74713   3.324   3.453   7.134 -0.8056  0.4112  0.2049
  567MOL0     C74714   3.370   3.353   7.192 -0.5179  0.1716  0.3230
  567MOL0     O74715   3.306   3.236   7.192 -0.0434 -0.3045 -0.2500
  567MOL0     C74716   3.175   3.217   7.149  0.8740  0.0941  0.1682
  567MOL0     C74717   3.070   3.296   7.198  0.1017  0.2460 -0.7840
  567MOL0     C74718   2.928   3.275   7.163 -0.1139 -1.1423 -0.6213
  567MOL0     C74719   2.897   3.152   7.109  0.5517  1.2793 -1.1856
  567MOL0     O74720   2.774   3.104   7.078  0.4532  0.1404  0.2101
  567MOL0     C74721   2.667   3.156   7.148  0.2707 -0.8802 -0.2972
  567MOL0     C74722   2.529   3.121   7.099  0.2169  0.2229  0.3132
  567MOL0     C74723   2.489   2.988   7.151  0.2738  0.2585 -1.0372
  567MOL0     C74724   2.370   2.941   7.069  0.1810  0.6071 -0.0961
  567MOL0     C74725   2.295   2.840   7.161  0.4528 -0.9771 -1.4427
  567MOL0     C74726   2.168   2.774   7.097 -0.0658  0.2683  0.1785
  567MOL0     C74727   2.038   2.844   7.123  0.3210 -0.1304  0.3920
  567MOL0     C74728   2.007   2.872   7.272  0.1282  0.2097 -0.0537
  567MOL0     N74729   1.865   2.882   7.307  0.0211  0.2755 -1.0224
  567MOL0     C74730   1.782   2.769   7.329  0.8324 -0.1040 -0.0643
  567MOL0     C74731   1.659   2.833   7.319  0.2010  0.5665  0.1035
  567MOL0     C74732   1.522   2.765   7.298 -0.2580 -0.0694  0.4065
  567MOL0     C74733   1.422   2.755   7.414 -0.1305  0.0687  0.1453
  567MOL0     C74734   1.372   2.893   7.457 -0.6352 -0.7749 -0.0046
  567MOL0     C74735   1.232   2.884   7.514 -0.6542 -0.3265  0.6349
  567MOL0     O74736   1.188   3.012   7.565 -0.8777  0.0660  0.1304
  567MOL0     C74737   1.059   3.031   7.600  0.3329 -0.1773 -0.0621
  567MOL0     C74738   1.024   3.162   7.630 -0.0401 -0.5044 -0.6219
  567MOL0     C74739   0.899   3.191   7.677  0.2264  0.2579 -1.2439
  567MOL0     C74740   0.801   3.088   7.680  0.9734 -0.5492 -0.6924
  567MOL0     C74741   0.667   3.115   7.732 -0.5313 -0.1522  0.5541
  567MOL0     O74742   0.594   3.008   7.764 -0.4963 -0.6534 -0.2111
  567MOL0     C74743   0.468   3.026   7.818  1.0633 -0.3474  1.4013
  567MOL0     C74744   0.418   2.924   7.896  0.5283  0.1985  0.4928
  567MOL0     C74745   0.292   2.914   7.944 -0.4753  0.4994  0.5597
  567MOL0     C74746   0.204   3.021   7.915 -0.1865 -0.7026 -0.2890
  567MOL0     O74747   0.076   3.037   7.959 -0.0715  0.6321  0.3706
  567MOL0     C74748   0.003   2.923   7.993 -0.1736  0.5195 -0.0487
  567MOL0     C74749  -0.147   2.960   7.990  1.1211 -0.9720  0.3799
  567MOL0     C74750  -0.190   3.062   7.882 -0.0617  0.9053 -0.0770
  567MOL0     C74751  -0.335   3.106   7.873 -0.3306  0.9837 -0.3557
  567MOL0     C74752  -0.422   2.990   7.861  0.2522 -0.1527 -0.0358
  567MOL0     C74753  -0.568   3.026   7.867  0.0371  0.1898 -0.6773
  567MOL0     C74754  -0.655   2.904   7.854  0.1306  0.6280 -0.5163
  567MOL0     C74755  -0.807   2.943   7.823 -0.1902 -0.7496  0.2175
  567MOL0    Cl74756  -0.819   3.033   7.666  0.4737 -0.5562 -0.1591
  567MOL0     C74757   0.252   3.119   7.832  0.5122  0.2478 -0.5402
  567MOL0     C74758   0.380   3.125   7.779  0.5133 -0.0649  0.8968
  567MOL0     O74759   0.636   3.231   7.745 -0.2396  0.0515  0.3613
  567MOL0     C74760   0.832   2.959   7.640  0.7918 -0.2839  0.2701
  567MOL0     C74761   0.959   2.928   7.596  0.1292  0.0738  0.0888
  567MOL0     N74762   1.681   2.966   7.311  0.3198 -0.2262  0.0264
  567MOL0     N74763   1.803   2.991   7.297  0.0394 -0.1326  0.2480
  567MOL0     C74764   3.006   3.065   7.072 -0.5332 -0.5541 -0.1976
  567MOL0     C74765   3.141   3.095   7.093 -0.2118 -0.6774 -0.8260
  567MOL0     C74766   3.501   3.364   7.249  0.0609 -0.1774 -0.2852
  567MOL0     C74767   3.565   3.250   7.309 -0.0564 -1.1132  0.7578
  567MOL0     C74768   3.698   3.262   7.366  1.3132  0.0727  1.0578
  567MOL0     C74769   3.756   3.385   7.377  0.7485 -0.3169  0.9992
  567MOL0     O74770   3.879   3.401   7.429  0.0869 -0.5278  0.2082
  567MOL0     C74771   3.888   3.344   7.560 -0.1800  0.5965 -0.4273
  567MOL0     C74772   4.034   3.314   7.595  0.9177  0.3308  0.3001
  567MOL0     C74773   4.036   3.283   7.750  0.5126  0.2436  0.2273
  567MOL0     C74774   3.946   3.164   7.801 -0.2983 -0.2494  1.0713
  567MOL0     C74775   4.007   3.040   7.761 -1.0165 -0.3466  0.4154
  567MOL0     C74776   4.052   2.934   7.722 -0.0231  0.0497  0.0122
  567MOL0     C74777   3.697   3.494   7.309 -0.4577 -0.7171  0.1596
  567MOL0     C74778   3.576   3.486   7.252 -0.5835 -0.0663  0.6980
  567MOL0     H74779   3.103   3.380   7.258 -1.0255 -1.8702  3.1947
  567MOL0     H74780   2.862   3.352   7.200 -0.6178 -1.4117 -0.9567
  567MOL0     H74781   2.662   3.265   7.149  0.2827 -0.8599  1.6262
  567MOL0     H74782   2.669   3.117   7.251 -1.7885 -1.4529 -0.4383
  567MOL0     H74783   2.542   3.115   6.991 -0.1508  1.7253  0.1654
  567MOL0     H74784   2.454   3.198   7.117  1.5822  2.0149 -1.1524
  567MOL0     H74785   2.460   3.004   7.255  1.2902 -0.4109 -0.6436
  567MOL0     H74786   2.569   2.914   7.144  0.8080  0.9011 -2.0260
  567MOL0     H74787   2.295   3.017   7.043 -0.4153 -0.4534 -1.6678
  567MOL0     H74788   2.400   2.887   6.979  1.8774  1.2538  0.0455
  567MOL0     H74789   2.272   2.890   7.255  1.9455 -3.0742  0.1336
  567MOL0     H74790   2.360   2.758   7.193 -0.6162 -1.0464  0.7286
  567MOL0     H74791   2.157   2.673   7.138 -0.5152 -0.0547 -0.7052
  567MOL0     H74792   2.186   2.767   6.989  1.0213  1.3577  0.2732
  567MOL0     H74793   2.050   2.939   7.070 -0.7817 -1.1815 -1.8424
  567MOL0     H74794   1.960   2.783   7.076 -0.2369 -1.1329  2.4964
  567MOL0     H74795   2.061   2.965   7.291 -0.5600  0.7684 -0.8017
  567MOL0     H74796   2.035   2.789   7.338 -3.4556 -1.0207  0.1289
  567MOL0     H74797   1.807   2.664   7.334  2.3447  0.1965 -0.8145
  567MOL0     H74798   1.543   2.661   7.272 -1.3349 -0.2582  0.2694
  567MOL0     H74799   1.481   2.813   7.209  0.8585 -0.7821 -0.5223
  567MOL0     H74800   1.464   2.702   7.500 -1.1825  2.6200  2.3545
  567MOL0     H74801   1.339   2.694   7.377 -0.3705  0.8797 -0.6629
  567MOL0     H74802   1.439   2.931   7.535 -1.7742 -1.9811  1.6154
  567MOL0     H74803   1.377   2.967   7.376  1.1858  1.3844  1.9216
  567MOL0     H74804   1.224   2.805   7.590  2.3254 -1.1798  0.2013
  567MOL0     H74805   1.166   2.853   7.432 -1.9908  1.1052  1.1172
  567MOL0     H74806   1.110   3.229   7.621 -0.5782  0.3599  0.4714
  567MOL0     H74807   0.878   3.294   7.704  4.4105  1.2074 -1.0065
  567MOL0     H74808   0.498   2.852   7.912  2.5029  2.3265  0.8958
  567MOL0     H74809   0.256   2.838   8.012  1.1227  0.4682  1.4143
  567MOL0     H74810   0.033   2.899   8.096 -0.1517  2.4701  0.4322
  567MOL0     H74811   0.018   2.840   7.923  2.9891 -0.0633  1.1392
  567MOL0     H74812  -0.185   2.996   8.086  0.1271 -2.5285  0.6000
  567MOL0     H74813  -0.194   2.863   7.974  0.0182 -0.4977  0.6481
  567MOL0     H74814  -0.163   3.019   7.785  0.1167  0.1243  0.3076
  567MOL0     H74815  -0.132   3.153   7.897 -3.1665  2.8547  1.0481
  567MOL0     H74816  -0.357   3.154   7.969 -1.3201 -1.8342  0.9681
  567MOL0     H74817  -0.355   3.170   7.787 -2.8867 -0.8817 -1.2815
  567MOL0     H74818  -0.407   2.913   7.937 -0.9999 -0.0472  0.3429
  567MOL0     H74819  -0.406   2.950   7.760  0.3361  0.1020 -0.1233
  567MOL0     H74820  -0.591   3.102   7.792 -0.5594  0.0091 -0.6887
  567MOL0     H74821  -0.603   3.085   7.953 -2.1553  1.6955 -2.4905
  567MOL0     H74822  -0.613   2.849   7.769 -1.3297  0.3195 -1.0563
  567MOL0     H74823  -0.649   2.845   7.946 -0.0364 -0.6614 -1.3079
  567MOL0     H74824  -0.832   3.020   7.897 -0.0720 -0.6152  0.1193
  567MOL0     H74825  -0.876   2.859   7.828 -0.4109 -1.0530 -4.1527
  567MOL0     H74826   0.173   3.183   7.794 -1.8206 -2.0578  0.1477
  567MOL0     H74827   0.387   3.199   7.700 -0.5442 -0.6126  0.2593
  567MOL0     H74828   0.759   2.879   7.633  0.5025 -0.1159  1.2267
  567MOL0     H74829   0.981   2.829   7.559 -1.9083  0.4907 -2.5179
  567MOL0     H74830   2.991   2.967   7.027 -2.1997 -0.6299  0.4500
  567MOL0     H74831   3.224   3.035   7.059 -0.3579 -2.0017  1.0313
  567MOL0     H74832   3.507   3.158   7.300 -2.4717  0.2266  1.6148
  567MOL0     H74833   3.755   3.171   7.382 -1.2439 -1.7348  0.4296
  567MOL0     H74834   3.832   3.250   7.574  1.8345 -0.6745 -0.4198
  567MOL0     H74835   3.848   3.426   7.620 -0.5061  0.6716 -0.7426
  567MOL0     H74836   4.072   3.224   7.546 -1.1942  0.5495 -1.9358
  567MOL0     H74837   4.078   3.410   7.566 -2.4242  1.4377 -1.6555
  567MOL0     H74838   4.005   3.360   7.821  1.7078 -1.0191  2.2289
  567MOL0     H74839   4.142   3.262   7.771  0.5946 -1.0248 -1.2490
  567MOL0     H74840   3.946   3.173   7.910  0.4385  3.2598  0.8942
  567MOL0     H74841   3.845   3.167   7.759  0.1300  0.3435  0.0592
  567MOL0     H74842   4.088   2.842   7.681  1.1082  0.1214  0.8106
  567MOL0     H74843   3.747   3.590   7.314 -1.1082 -0.3289 -0.5269
  567MOL0     H74844   3.531   3.576   7.211 -4.0629 -1.5349  0.9469
  568MOL0     O74845   3.324   1.479   3.538  0.4593 -0.4523  0.1372
  568MOL0     C74846   3.399   1.475   3.641  0.0647  0.5972 -0.3401
  568MOL0     O74847   3.364   1.492   3.772  0.2778  0.8587 -1.0975
  568MOL0     C74848   3.232   1.511   3.792  0.2477  0.4125 -0.3220
  568MOL0     C74849   3.181   1.642   3.776  0.0898 -0.3836  0.6353
  568MOL0     C74850   3.050   1.665   3.785 -0.1215  0.3503  0.0616
  568MOL0     C74851   2.961   1.562   3.823  0.1058 -0.8298 -0.4633
  568MOL0     O74852   2.823   1.575   3.834  0.9844 -0.0482 -0.3972
  568MOL0     C74853   2.770   1.697   3.867  0.3298 -0.6409 -0.1626
  568MOL0     C74854   2.616   1.682   3.891 -0.2161 -0.0027  0.6822
  568MOL0     C74855   2.567   1.608   4.021 -0.5358  0.2391  0.5480
  568MOL0     C74856   2.577   1.705   4.140 -0.2743  0.0745 -0.2675
  568MOL0     C74857   2.489   1.842   4.128 -0.2512  0.2887  0.2085
  568MOL0     C74858   2.344   1.827   4.086  0.0010  1.0454  0.3652
  568MOL0     C74859   2.256   1.951   4.113 -0.2909  0.6829  0.0104
  568MOL0     C74860   2.110   1.923   4.080  0.3714  0.1505  0.1542
  568MOL0     N74861   2.021   2.046   4.086 -0.7773 -0.7233  0.1831
  568MOL0     C74862   1.970   2.090   4.203  0.3021  0.2492 -0.3781
  568MOL0     C74863   1.891   2.197   4.164 -0.4732  0.3171 -0.2720
  568MOL0     C74864   1.804   2.284   4.259  0.2710 -0.5138  0.6075
  568MOL0     C74865   1.839   2.276   4.405 -0.2262  0.3707 -0.5861
  568MOL0     C74866   1.771   2.377   4.499 -0.1803 -0.0668  0.1108
  568MOL0     C74867   1.624   2.411   4.477  0.0425  0.5130 -0.0384
  568MOL0     O74868   1.573   2.492   4.581  0.4195 -0.0177  0.1768
  568MOL0     C74869   1.441   2.526   4.581  0.2608  1.1056 -0.2929
  568MOL0     C74870   1.357   2.508   4.466  1.6516  0.2183 -0.5607
  568MOL0     C74871   1.215   2.541   4.463 -1.1881 -0.7481 -0.3128
  568MOL0     C74872   1.168   2.612   4.575 -0.8378  0.1719  0.2989
  568MOL0     C74873   1.031   2.653   4.589 -0.0204 -0.6540  0.4726
  568MOL0     O74874   0.939   2.569   4.528  0.0467  0.7910 -0.0930
  568MOL0     C74875   0.814   2.604   4.531  0.2369 -0.5006  0.4888
  568MOL0     C74876   0.754   2.649   4.646 -0.5645  0.5063  0.1195
  568MOL0     C74877   0.623   2.697   4.636 -0.2377 -0.2002 -0.4527
  568MOL0     C74878   0.549   2.688   4.518  0.6713  0.1282  0.4967
  568MOL0     O74879   0.412   2.720   4.505  0.0102  0.0273 -0.6777
  568MOL0     C74880   0.351   2.802   4.604  0.0406 -0.2855 -0.3165
  568MOL0     C74881   0.194   2.786   4.597 -0.2042 -0.7424  0.1364
  568MOL0     C74882   0.126   2.856   4.718 -0.1244 -0.3482 -0.3752
  568MOL0     C74883  -0.026   2.876   4.719  0.6447  0.0995 -0.8332
  568MOL0     C74884  -0.065   3.010   4.790 -0.4183  0.0195  0.3037
  568MOL0     C74885  -0.220   3.025   4.777  0.2136  0.2443 -0.2417
  568MOL0     C74886  -0.286   3.144   4.848 -0.6080 -0.6789  0.0208
  568MOL0     C74887  -0.430   3.156   4.810  0.1014  0.6582  0.3924
  568MOL0    Cl74888  -0.448   3.223   4.648 -0.0105 -0.3821 -0.0176
  568MOL0     C74889   0.616   2.648   4.402 -0.3279 -0.1080  0.2993
  568MOL0     C74890   0.745   2.608   4.414  0.8063  0.3564  0.4809
  568MOL0     O74891   1.010   2.773   4.627 -0.6146  0.0212 -0.8010
  568MOL0     C74892   1.253   2.660   4.675 -0.7301  0.3956 -1.1307
  568MOL0     C74893   1.389   2.603   4.689 -0.1415  0.6083  0.5826
  568MOL0     N74894   1.898   2.206   4.030 -0.2646  0.7658  0.1269
  568MOL0     N74895   1.987   2.127   3.984 -0.5159 -0.7171 -0.3745
  568MOL0     C74896   3.013   1.436   3.840 -0.4648 -0.0744 -0.3875
  568MOL0     C74897   3.147   1.403   3.823 -1.3715 -0.3924 -0.1560
  568MOL0     C74898   3.552   1.450   3.627  0.1108  0.4127  0.0710
  568MOL0     C74899   3.628   1.423   3.743 -0.4448 -0.1863  0.0217
  568MOL0     C74900   3.766   1.413   3.733 -0.6186 -0.7137 -0.0742
  568MOL0     C74901   3.830   1.440   3.613 -1.2668 -0.1080 -0.0552
  568MOL0     O74902   3.966   1.401   3.608  0.9144 -0.5860  0.0729
  568MOL0     C74903   4.055   1.431   3.716  0.3656 -0.8620 -0.2062
  568MOL0     C74904   4.170   1.498   3.643  0.6369  0.1200  0.1886
  568MOL0     C74905   4.289   1.531   3.748  0.4739  0.1020  0.3161
  568MOL0     C74906   4.402   1.616   3.685 -0.1485  0.1377  0.8352
  568MOL0     C74907   4.423   1.579   3.545  0.9783 -0.4819  0.1902
  568MOL0     C74908   4.427   1.552   3.425 -0.3280  0.0497  0.1733
  568MOL0     C74909   3.757   1.463   3.496  0.6929 -0.2030  0.0429
  568MOL0     C74910   3.623   1.473   3.505 -0.1057  0.0414 -0.9053
  568MOL0     H74911   3.247   1.720   3.740  1.5667 -1.9572 -0.2343
  568MOL0     H74912   3.010   1.764   3.764  0.5131  0.6103  0.0753
  568MOL0     H74913   2.774   1.763   3.780 -2.3313 -0.1997 -0.0355
  568MOL0     H74914   2.822   1.745   3.951  1.7156  0.4273 -1.5719
  568MOL0     H74915   2.582   1.628   3.802 -1.9770  1.4238  0.4369
  568MOL0     H74916   2.562   1.776   3.878  2.8655  1.8936  0.6588
  568MOL0     H74917   2.623   1.516   4.040  0.0481  0.2871 -0.8253
  568MOL0     H74918   2.463   1.575   4.021 -0.2501 -1.0228  3.6564
  568MOL0     H74919   2.560   1.654   4.235 -0.2940 -0.9606 -0.8041
  568MOL0     H74920   2.681   1.741   4.142  0.4011 -1.6871  2.6900
  568MOL0     H74921   2.534   1.912   4.058 -0.8956  0.4503 -0.0497
  568MOL0     H74922   2.499   1.880   4.231 -1.0469 -1.2676  0.9041
  568MOL0     H74923   2.301   1.737   4.133  0.4584  2.3541  3.5689
  568MOL0     H74924   2.354   1.813   3.978 -2.4852  0.7223  0.1097
  568MOL0     H74925   2.269   1.987   4.215  2.5787  0.7520 -0.3079
  568MOL0     H74926   2.289   2.026   4.041  0.1630 -2.2872 -3.1210
  568MOL0     H74927   2.066   1.847   4.145  1.9612 -0.2817  0.7680
  568MOL0     H74928   2.108   1.881   3.980  0.9081 -2.4212  1.1526
  568MOL0     H74929   1.981   2.057   4.306  1.7339  0.8636 -0.3072
  568MOL0     H74930   1.700   2.265   4.231  0.0674  1.1834  0.1195
  568MOL0     H74931   1.823   2.387   4.229 -3.1907  0.5959  1.8121
  568MOL0     H74932   1.949   2.283   4.402  0.1403 -2.4100  1.9058
  568MOL0     H74933   1.810   2.181   4.450 -1.1187  1.7128  1.8973
  568MOL0     H74934   1.770   2.332   4.599  1.1983  2.7783  1.5118
  568MOL0     H74935   1.823   2.472   4.514 -3.0106  1.6355 -0.2598
  568MOL0     H74936   1.563   2.324   4.451  1.1018 -0.1103 -0.5400
  568MOL0     H74937   1.619   2.471   4.385  0.2991 -0.9416 -1.0389
  568MOL0     H74938   1.392   2.465   4.373  0.0164  1.5267 -1.8535
  568MOL0     H74939   1.156   2.501   4.381  0.0698 -1.3489 -0.9544
  568MOL0     H74940   0.804   2.654   4.743 -3.4071  0.1774  1.7064
  568MOL0     H74941   0.584   2.742   4.727  2.1432  1.3433 -0.0950
  568MOL0     H74942   0.383   2.904   4.580 -2.1697  0.1856 -1.4749
  568MOL0     H74943   0.386   2.784   4.706 -1.5938 -0.3858  0.2524
  568MOL0     H74944   0.169   2.680   4.608 -3.0505 -0.0552  1.2416
  568MOL0     H74945   0.144   2.825   4.507 -4.5285 -0.6383  2.3117
  568MOL0     H74946   0.167   2.958   4.725 -1.6641  0.2372  0.5996
  568MOL0     H74947   0.157   2.801   4.807  1.5110 -0.4836 -0.9857
  568MOL0     H74948  -0.066   2.851   4.620  1.0511 -1.3260 -0.6621
  568MOL0     H74949  -0.061   2.796   4.785  1.4160  1.1457  0.9060
  568MOL0     H74950  -0.019   3.101   4.748  0.1681  0.5773  2.0310
  568MOL0     H74951  -0.034   3.018   4.895  0.1843 -0.8736  0.2011
  568MOL0     H74952  -0.267   2.933   4.813  1.5164 -1.1468 -1.9195
  568MOL0     H74953  -0.243   3.021   4.670  1.3545 -0.7323 -0.4721
  568MOL0     H74954  -0.297   3.128   4.955 -0.3838 -4.4085 -0.3861
  568MOL0     H74955  -0.226   3.234   4.828  3.2843 -3.2033 -0.5783
  568MOL0     H74956  -0.466   3.227   4.885  2.4751 -0.1598  2.4541
  568MOL0     H74957  -0.488   3.064   4.810  0.5494  0.3411 -1.0120
  568MOL0     H74958   0.558   2.630   4.312  0.1503  1.1096 -0.2796
  568MOL0     H74959   0.784   2.567   4.321  0.4195  0.4666  0.2672
  568MOL0     H74960   1.221   2.713   4.764 -2.4257  0.2900 -1.6468
  568MOL0     H74961   1.451   2.631   4.774 -0.3718  1.6107  0.4323
  568MOL0     H74962   2.946   1.364   3.886 -0.7106 -0.4170 -1.2458
  568MOL0     H74963   3.190   1.305   3.840 -1.4364 -0.0057  2.6216
  568MOL0     H74964   3.603   1.408   3.848 -0.8678 -1.9022 -0.3050
  568MOL0     H74965   3.824   1.389   3.821 -0.6978 -0.4709  0.0452
  568MOL0     H74966   4.097   1.340   3.760  1.1977 -0.4078 -0.0519
  568MOL0     H74967   4.019   1.492   3.799 -1.0110 -1.8580 -0.0314
  568MOL0     H74968   4.207   1.434   3.563  0.6782 -0.0777  0.3661
  568MOL0     H74969   4.128   1.582   3.587 -0.0977 -0.8046 -0.6797
  568MOL0     H74970   4.320   1.433   3.787 -0.5433 -0.2226  0.3308
  568MOL0     H74971   4.256   1.591   3.834  0.7481  0.6266  0.0624
  568MOL0     H74972   4.382   1.723   3.697  0.9720  0.5525 -0.7375
  568MOL0     H74973   4.495   1.591   3.737  0.9555  1.8423 -0.2382
  568MOL0     H74974   4.423   1.517   3.324 -1.0730  1.2903 -0.2579
  568MOL0     H74975   3.806   1.466   3.399 -1.7092 -3.2782 -1.4571
  568MOL0     H74976   3.561   1.498   3.420 -2.8167 -0.6683  0.7449
  569MOL0     O74977   7.098   1.838   9.323 -0.7018  0.2515  0.5927
  569MOL0     C74978   7.093   1.850   9.206  0.4409  0.0556  0.8562
  569MOL0     O74979   6.992   1.808   9.126  0.6366  0.4194 -0.3664
  569MOL0     C74980   6.879   1.753   9.181  0.9401  1.0675 -0.2923
  569MOL0     C74981   6.857   1.616   9.171  0.3101  0.3256  0.2980
  569MOL0     C74982   6.735   1.566   9.227  0.4058  0.0344  0.3984
  569MOL0     C74983   6.637   1.650   9.288  0.5850 -0.0681 -0.0047
  569MOL0     O74984   6.527   1.593   9.346  0.2413  0.2913 -0.1114
  569MOL0     C74985   6.402   1.647   9.305  0.1815  0.0339 -0.5543
  569MOL0     C74986   6.311   1.542   9.363  0.2325 -0.4814  0.0209
  569MOL0     C74987   6.178   1.580   9.383 -0.5339 -0.2766  0.3597
  569MOL0     C74988   6.090   1.460   9.439  0.0413 -0.2770 -0.2122
  569MOL0     C74989   5.941   1.490   9.451 -0.2142  0.6577  0.2331
  569MOL0     C74990   5.875   1.392   9.551 -0.2921 -0.0107  0.0141
  569MOL0     C74991   5.727   1.413   9.555 -0.4277 -0.0626 -0.5395
  569MOL0     C74992   5.668   1.324   9.666 -0.6592 -0.3167 -0.1928
  569MOL0     N74993   5.526   1.356   9.695  1.1311 -0.7763  0.2197
  569MOL0     C74994   5.479   1.401   9.809  0.5282 -1.1871  0.9625
  569MOL0     C74995   5.345   1.422   9.790  0.4942 -0.0852  0.0686
  569MOL0     C74996   5.240   1.480   9.889 -0.3676  0.5460 -0.4540
  569MOL0     C74997   5.176   1.620   9.862  0.5424 -0.6310  0.2604
  569MOL0     C74998   5.151   1.649   9.705 -0.3999  0.0931 -0.8994
  569MOL0     C74999   5.058   1.772   9.694  0.1887  0.2672 -0.1365
  569MOL0     O75000   5.099   1.882   9.778 -0.7017  0.8644 -0.1019
  569MOL0     C75001   5.182   1.977   9.728  0.3511  0.4534 -0.2070
  569MOL0     C75002   5.199   2.010   9.592 -0.1309 -0.0638  0.3588
  569MOL0     C75003   5.301   2.107   9.555 -0.1943 -0.0608 -0.5666
  569MOL0     C75004   5.382   2.172   9.651  0.5409  0.3192 -0.0430
  569MOL0     C75005   5.488   2.265   9.615  0.4521  0.8823  0.1382
  569MOL0     O75006   5.518   2.276   9.481  0.2144 -0.1562 -0.7144
  569MOL0     C75007   5.584   2.382   9.430  0.3857 -0.4577 -0.5512
  569MOL0     C75008   5.533   2.440   9.317 -0.1307 -0.9227  0.5086
  569MOL0     C75009   5.601   2.554   9.260 -0.9005  0.3759 -0.1144
  569MOL0     C75010   5.709   2.609   9.331 -0.4179  0.2289  0.5492
  569MOL0     O75011   5.768   2.725   9.284 -0.2240  0.6159 -0.2043
  569MOL0     C75012   5.838   2.818   9.374 -0.0971 -0.5337 -0.4074
  569MOL0     C75013   5.882   2.945   9.293 -0.0401  0.7511  0.1961
  569MOL0     C75014   5.760   3.033   9.289 -0.6805  0.7534  0.6892
  569MOL0     C75015   5.791   3.148   9.191  0.5145  0.2114 -0.2018
  569MOL0     C75016   5.681   3.261   9.188  0.1330  0.2008 -1.2707
  569MOL0     C75017   5.538   3.197   9.157  0.4988  0.3944 -0.1863
  569MOL0     C75018   5.535   3.115   9.024 -0.9656 -0.1961  0.1652
  569MOL0     C75019   5.398   3.082   8.983  0.1344  0.1357  0.0473
  569MOL0    Cl75020   5.316   2.970   9.110  0.3221  0.0853 -0.1310
  569MOL0     C75021   5.753   2.553   9.449 -0.4838  0.1239 -0.3882
  569MOL0     C75022   5.690   2.438   9.496 -0.6423  0.0217  0.2161
  569MOL0     O75023   5.533   2.331   9.708  0.4579  0.8238  0.1304
  569MOL0     C75024   5.359   2.138   9.789 -0.8639  0.1188 -0.3327
  569MOL0     C75025   5.265   2.043   9.823 -0.0537  0.2695  0.0871
  569MOL0     N75026   5.324   1.383   9.662  0.9272 -0.2923  0.0663
  569MOL0     N75027   5.425   1.330   9.606  0.4544 -0.0049 -0.4309
  569MOL0     C75028   6.657   1.791   9.291  0.0455  0.4247  1.2464
  569MOL0     C75029   6.783   1.835   9.237 -0.5573  0.1080 -0.2607
  569MOL0     C75030   7.210   1.919   9.146  0.4693  0.1651 -0.4385
  569MOL0     C75031   7.313   1.980   9.213  0.4932  0.2193  0.2060
  569MOL0     C75032   7.418   2.046   9.149  0.0334  0.2233 -0.0919
  569MOL0     C75033   7.420   2.063   9.015 -0.3038  0.4688  0.6026
  569MOL0     O75034   7.528   2.128   8.957 -0.1155 -0.2611  0.3941
  569MOL0     C75035   7.566   2.092   8.820  0.6408 -0.1768 -0.4931
  569MOL0     C75036   7.673   2.177   8.763  0.7594 -0.2118  0.7675
  569MOL0     C75037   7.812   2.123   8.816  0.3915 -0.8814 -1.3381
  569MOL0     C75038   7.933   2.184   8.757 -0.6247 -0.6857  0.6203
  569MOL0     C75039   7.934   2.196   8.616 -0.1672 -0.5661  0.1579
  569MOL0     C75040   7.942   2.201   8.489 -0.5802  0.0027 -1.6821
  569MOL0     C75041   7.305   2.018   8.941  0.4795 -0.5835 -0.4498
  569MOL0     C75042   7.204   1.939   9.003 -0.9125  0.1441  0.4378
  569MOL0     H75043   6.935   1.556   9.125 -0.4687  0.7008 -1.6238
  569MOL0     H75044   6.721   1.459   9.213  1.0396  0.2944 -3.3637
  569MOL0     H75045   6.393   1.647   9.196 -0.2582  1.1769 -0.5300
  569MOL0     H75046   6.383   1.741   9.357  0.3468 -1.3527  2.2294
  569MOL0     H75047   6.357   1.520   9.460 -0.3676 -0.2797  0.3619
  569MOL0     H75048   6.310   1.454   9.298  1.2548 -0.6046  0.1532
  569MOL0     H75049   6.143   1.610   9.283  0.8798 -1.1604 -0.4307
  569MOL0     H75050   6.176   1.655   9.462 -2.5032 -2.5026  2.5871
  569MOL0     H75051   6.098   1.374   9.373 -1.6780 -0.1451 -0.6211
  569MOL0     H75052   6.128   1.440   9.540 -3.1324  1.7426  1.5351
  569MOL0     H75053   5.887   1.489   9.356 -2.8070  2.2691  1.5890
  569MOL0     H75054   5.928   1.592   9.489 -1.6724  0.7617 -0.4661
  569MOL0     H75055   5.922   1.392   9.649  0.5601 -3.4389 -0.2753
  569MOL0     H75056   5.894   1.290   9.516  0.7857 -0.8953  2.8836
  569MOL0     H75057   5.717   1.516   9.589  0.9771 -0.3500  0.8169
  569MOL0     H75058   5.689   1.387   9.455 -1.5013  0.0683 -0.1834
  569MOL0     H75059   5.713   1.326   9.766  0.9367 -1.9036 -0.8292
  569MOL0     H75060   5.679   1.218   9.641 -0.3203 -0.2402 -0.3807
  569MOL0     H75061   5.534   1.421   9.900  3.2952 -0.6696 -0.7094
  569MOL0     H75062   5.293   1.492   9.983  1.1538 -1.2248 -1.0319
  569MOL0     H75063   5.169   1.399   9.908  0.8949 -0.4853 -0.0213
  569MOL0     H75064   5.241   1.696   9.906 -0.8987 -0.1865  1.7087
  569MOL0     H75065   5.074   1.631   9.901 -0.3884 -2.7559 -1.3407
  569MOL0     H75066   5.242   1.681   9.653  1.6200 -2.1586  1.0283
  569MOL0     H75067   5.116   1.563   9.648 -0.0794 -0.4299 -0.3063
  569MOL0     H75068   4.956   1.748   9.725  0.1449  1.5768  0.8369
  569MOL0     H75069   5.055   1.792   9.587  1.2853 -2.3175 -0.7261
  569MOL0     H75070   5.133   1.961   9.521 -2.4895  0.3018  2.1853
  569MOL0     H75071   5.320   2.119   9.449  1.0606 -1.6756 -0.5456
  569MOL0     H75072   5.439   2.404   9.278 -0.8427 -0.9262  2.1698
  569MOL0     H75073   5.570   2.608   9.171 -1.8735  1.1885  0.7001
  569MOL0     H75074   5.925   2.767   9.416 -0.7738 -0.6621  0.9284
  569MOL0     H75075   5.774   2.857   9.454  0.2659 -0.4017 -0.1770
  569MOL0     H75076   5.923   2.921   9.194  1.7399  0.4753  0.9578
  569MOL0     H75077   5.964   2.995   9.345  0.6826 -0.2044 -0.0022
  569MOL0     H75078   5.749   3.076   9.390 -1.3819 -2.8035  2.2856
  569MOL0     H75079   5.685   2.961   9.258  0.0727 -0.0751  0.7426
  569MOL0     H75080   5.875   3.209   9.224 -0.2419  0.2064  1.9606
  569MOL0     H75081   5.813   3.105   9.093 -0.0222 -1.1643  0.2610
  569MOL0     H75082   5.710   3.322   9.102  1.6636 -1.6605 -2.1491
  569MOL0     H75083   5.672   3.315   9.282  0.3550 -0.4528 -0.8707
  569MOL0     H75084   5.461   3.275   9.153 -0.4812 -0.3498  2.4330
  569MOL0     H75085   5.503   3.131   9.237  0.3389 -0.1705 -0.7064
  569MOL0     H75086   5.583   3.179   8.949  0.8255  1.1807  2.3492
  569MOL0     H75087   5.597   3.025   9.034  1.8874  1.5038 -0.7437
  569MOL0     H75088   5.393   3.042   8.881 -0.4471 -1.0657  0.5259
  569MOL0     H75089   5.347   3.179   8.984 -2.7054 -1.2083  2.2861
  569MOL0     H75090   5.834   2.604   9.499 -1.4368  0.4386  0.8910
  569MOL0     H75091   5.739   2.392   9.582 -2.1006 -1.5941  0.2537
  569MOL0     H75092   5.404   2.186   9.876  1.2872 -0.2139 -1.2000
  569MOL0     H75093   5.252   2.030   9.930 -1.2485 -2.0653 -0.2749
  569MOL0     H75094   6.594   1.867   9.335  1.1573  2.1766 -0.0433
  569MOL0     H75095   6.802   1.941   9.245  3.1508 -0.4876  0.2901
  569MOL0     H75096   7.321   1.978   9.321  2.6220 -0.6859  0.0948
  569MOL0     H75097   7.487   2.106   9.208 -0.1420  0.4884 -0.1563
  569MOL0     H75098   7.479   2.122   8.760  0.8097  2.0266  0.2601
  569MOL0     H75099   7.588   1.986   8.827  1.8824  0.1323  0.7367
  569MOL0     H75100   7.657   2.167   8.655 -1.4304 -1.2119  1.1220
  569MOL0     H75101   7.652   2.281   8.786 -3.6861 -0.7140 -0.1123
  569MOL0     H75102   7.814   2.014   8.804  1.0719 -0.8840 -1.2357
  569MOL0     H75103   7.810   2.143   8.923 -2.7831 -1.2355 -1.2491
  569MOL0     H75104   7.941   2.282   8.805 -0.5257 -0.0991 -0.5588
  569MOL0     H75105   8.025   2.134   8.791  1.0576  1.9512  0.2352
  569MOL0     H75106   7.945   2.185   8.383  3.6821 -1.3186 -1.5279
  569MOL0     H75107   7.296   2.033   8.833  0.8571  0.4505 -0.3507
  569MOL0     H75108   7.117   1.906   8.947  0.2975 -4.8362  1.0106
  570MOL0     O75109   0.545   9.441   1.137  0.3264  0.7488 -0.2048
  570MOL0     C75110   0.446   9.431   1.067  0.4867  0.4023 -0.3138
  570MOL0     O75111   0.426   9.498   0.952 -0.2987 -0.2572  0.1344
  570MOL0     C75112   0.543   9.526   0.889 -0.3033 -0.0854  0.5972
  570MOL0     C75113   0.610   9.651   0.909 -0.3971  0.1765 -0.0543
  570MOL0     C75114   0.737   9.664   0.847 -0.8393 -0.2681  0.1084
  570MOL0     C75115   0.790   9.567   0.761  0.4152 -0.1361 -0.4880
  570MOL0     O75116   0.916   9.595   0.718 -0.2886 -0.7969 -0.2111
  570MOL0     C75117   0.969   9.485   0.638  0.5726 -0.9158 -0.0366
  570MOL0     C75118   1.108   9.521   0.587  0.5271  0.4093  0.0561
  570MOL0     C75119   1.214   9.529   0.702  0.4309 -0.1804 -0.4899
  570MOL0     C75120   1.349   9.593   0.670 -0.3767  1.4117  0.1465
  570MOL0     C75121   1.441   9.597   0.781  0.1686  0.6608  0.2967
  570MOL0     C75122   1.484   9.456   0.833 -0.2100 -0.7631  0.8385
  570MOL0     C75123   1.624   9.482   0.905  0.1075  0.7527 -0.1774
  570MOL0     C75124   1.605   9.554   1.042 -0.1238  0.6388  0.2252
  570MOL0     N75125   1.733   9.561   1.117  0.5364  0.0195  0.2881
  570MOL0     C75126   1.823   9.460   1.121 -0.8870 -0.1890  0.3794
  570MOL0     C75127   1.905   9.487   1.221 -0.9739  0.1534 -0.9463
  570MOL0     C75128   2.030   9.408   1.268  1.2290  0.2299 -0.5388
  570MOL0     C75129   2.157   9.454   1.203  0.0683  1.0204 -0.0213
  570MOL0     C75130   2.274   9.390   1.274  0.8221  0.1822  0.0809
  570MOL0     C75131   2.355   9.286   1.198  1.5009 -0.3622 -0.6780
  570MOL0     O75132   2.312   9.141   1.197  0.0503 -0.7015  0.3045
  570MOL0     C75133   2.247   9.084   1.096 -0.7051  0.0341  0.3186
  570MOL0     C75134   2.251   9.132   0.965 -0.1040 -0.2563 -0.2231
  570MOL0     C75135   2.176   9.067   0.868  0.3071 -0.4970 -0.0236
  570MOL0     C75136   2.098   8.951   0.899 -0.1278 -0.3065 -0.3644
  570MOL0     C75137   2.010   8.890   0.799  0.4374 -0.2737  0.2247
  570MOL0     O75138   1.976   8.971   0.697 -0.3848  0.3479  0.2286
  570MOL0     C75139   1.881   8.923   0.609  0.6873 -0.6653 -0.6353
  570MOL0     C75140   1.912   8.936   0.470  0.1923  0.0488 -0.0061
  570MOL0     C75141   1.826   8.895   0.367  0.8195  0.0797  0.0623
  570MOL0     C75142   1.704   8.855   0.410  0.5649 -0.8757 -0.1848
  570MOL0     O75143   1.614   8.817   0.320 -0.0290 -0.4205 -0.0539
  570MOL0     C75144   1.486   8.876   0.319 -0.3166  0.6015  0.0765
  570MOL0     C75145   1.420   8.832   0.189 -0.6297  0.9079  0.3502
  570MOL0     C75146   1.364   8.685   0.195  0.4663 -0.1492 -0.3939
  570MOL0     C75147   1.281   8.660   0.064 -0.5294  0.1532 -0.0548
  570MOL0     C75148   1.237   8.519   0.039 -0.1894 -0.3129  0.0758
  570MOL0     C75149   1.357   8.418   0.021 -0.1606  0.3098 -0.1639
  570MOL0     C75150   1.327   8.297  -0.078 -0.8476 -0.5055 -0.4109
  570MOL0     C75151   1.455   8.234  -0.129  0.4066  0.5140  0.4806
  570MOL0    Cl75152   1.457   8.207  -0.294  0.2576  0.6346 -0.0381
  570MOL0     C75153   1.665   8.857   0.543 -0.4631  0.3440 -0.5768
  570MOL0     C75154   1.752   8.897   0.643 -0.0210  0.6431 -0.6193
  570MOL0     O75155   1.982   8.771   0.814 -0.3531  0.6221  0.6897
  570MOL0     C75156   2.103   8.902   1.031 -0.2403 -0.2206 -0.0860
  570MOL0     C75157   2.174   8.974   1.126  0.9087  0.4191  1.0828
  570MOL0     N75158   1.870   9.609   1.281  0.2001  0.2096  0.4917
  570MOL0     N75159   1.770   9.655   1.209  0.2503  0.0110  0.4445
  570MOL0     C75160   0.718   9.444   0.740 -0.7011  0.2438 -0.0333
  570MOL0     C75161   0.590   9.436   0.790  0.5927 -0.4232 -0.7721
  570MOL0     C75162   0.338   9.338   1.115 -1.0455  0.2485 -0.3789
  570MOL0     C75163   0.220   9.307   1.039 -0.2031 -0.3239  0.9229
  570MOL0     C75164   0.123   9.227   1.100 -0.0906  0.5737 -0.3780
  570MOL0     C75165   0.126   9.187   1.237 -1.1749 -0.0257  0.0449
  570MOL0     O75166   0.037   9.106   1.299  0.3959  0.1954 -0.3920
  570MOL0     C75167  -0.001   8.987   1.229 -0.2297 -0.3607 -0.9101
  570MOL0     C75168  -0.073   8.896   1.335  0.7751  0.1799  0.0395
  570MOL0     C75169  -0.198   8.958   1.413  0.1899  0.2678  0.7521
  570MOL0     C75170  -0.266   8.855   1.502 -0.6779 -0.4597 -0.6603
  570MOL0     C75171  -0.357   8.777   1.418 -0.8193  0.1085 -0.1985
  570MOL0     C75172  -0.435   8.711   1.349  0.1733 -0.5931 -0.1491
  570MOL0     C75173   0.241   9.221   1.306  0.6483 -0.9005 -0.1001
  570MOL0     C75174   0.344   9.294   1.253 -0.2593 -0.2707  0.7754
  570MOL0     H75175   0.583   9.732   0.976 -0.4952  0.8189 -0.8564
  570MOL0     H75176   0.796   9.749   0.878 -1.9380  0.7506 -0.5418
  570MOL0     H75177   0.897   9.470   0.557 -0.6910  4.3664 -0.3050
  570MOL0     H75178   0.980   9.397   0.701 -1.1209  0.4314  2.3456
  570MOL0     H75179   1.105   9.615   0.531  3.4131  1.2397  1.1147
  570MOL0     H75180   1.138   9.438   0.524 -0.0352 -0.9086  1.4633
  570MOL0     H75181   1.234   9.426   0.734  0.8355 -0.0041 -0.1681
  570MOL0     H75182   1.165   9.581   0.785 -1.6649 -1.8445 -0.6030
  570MOL0     H75183   1.400   9.533   0.594 -0.4082  2.6184 -0.8550
  570MOL0     H75184   1.330   9.692   0.628  0.0046  2.3729  2.1024
  570MOL0     H75185   1.392   9.649   0.864  0.5061 -0.5890  1.3057
  570MOL0     H75186   1.531   9.659   0.771  0.1392  0.8414  1.0880
  570MOL0     H75187   1.485   9.387   0.749 -1.5984 -0.5106  0.5906
  570MOL0     H75188   1.406   9.414   0.897  0.4853 -0.4059  1.9602
  570MOL0     H75189   1.660   9.380   0.922 -1.1744 -0.2360 -2.8725
  570MOL0     H75190   1.695   9.537   0.842  2.6353 -2.2968 -0.2374
  570MOL0     H75191   1.532   9.494   1.097 -0.5901 -1.7219 -2.7049
  570MOL0     H75192   1.564   9.655   1.028 -0.6527  0.1080 -2.7653
  570MOL0     H75193   1.823   9.370   1.061 -1.4703  0.5911 -0.8181
  570MOL0     H75194   2.021   9.304   1.236  0.3348 -0.5127  1.9044
  570MOL0     H75195   2.031   9.414   1.377 -2.1944  0.5945 -0.4244
  570MOL0     H75196   2.164   9.563   1.204  4.0620  0.9111 -0.1426
  570MOL0     H75197   2.151   9.426   1.097  0.9401 -0.3820  0.2726
  570MOL0     H75198   2.331   9.477   1.308 -1.8100  1.8261  0.5722
  570MOL0     H75199   2.245   9.348   1.371 -0.4720  2.0393  0.5561
  570MOL0     H75200   2.453   9.283   1.246  1.2198  2.7961  0.3164
  570MOL0     H75201   2.381   9.324   1.099  0.7920 -1.2422 -1.2174
  570MOL0     H75202   2.307   9.221   0.940 -0.0536 -0.5258 -1.0907
  570MOL0     H75203   2.178   9.114   0.770  1.0547  1.5049  0.8785
  570MOL0     H75204   2.015   8.968   0.466  0.0133  0.8226  1.0045
  570MOL0     H75205   1.860   8.915   0.266  1.8717 -1.7137  0.0058
  570MOL0     H75206   1.505   8.984   0.324  0.0879  0.6787 -2.1503
  570MOL0     H75207   1.435   8.848   0.412 -0.4626  0.6879  0.0230
  570MOL0     H75208   1.480   8.845   0.099 -0.1455  3.4069  0.9614
  570MOL0     H75209   1.328   8.891   0.186 -0.1276  1.6751 -0.3876
  570MOL0     H75210   1.297   8.664   0.278  0.5292 -0.6021 -0.4543
  570MOL0     H75211   1.441   8.610   0.214  1.6045  1.5605  2.1589
  570MOL0     H75212   1.192   8.723   0.066 -0.4935  0.2403  2.9191
  570MOL0     H75213   1.343   8.697  -0.019  3.3771 -1.2461  1.9811
  570MOL0     H75214   1.170   8.531  -0.046  0.3992  1.4461 -0.1800
  570MOL0     H75215   1.176   8.487   0.124 -0.6121  0.7515  0.1779
  570MOL0     H75216   1.407   8.386   0.113  0.8912 -1.6908 -1.3496
  570MOL0     H75217   1.434   8.476  -0.030 -0.9600  0.6458 -1.0033
  570MOL0     H75218   1.270   8.217  -0.028  1.9787  0.9559  6.2654
  570MOL0     H75219   1.270   8.343  -0.159  1.0276 -2.4120 -2.9650
  570MOL0     H75220   1.488   8.137  -0.091 -2.1276 -2.4666 -3.9286
  570MOL0     H75221   1.538   8.303  -0.115 -0.6221  2.3762 -1.9037
  570MOL0     H75222   1.574   8.808   0.577  0.6048 -1.0365  0.3789
  570MOL0     H75223   1.729   8.893   0.749 -2.1210 -3.5653 -1.0171
  570MOL0     H75224   2.047   8.813   1.055 -1.5848  1.0426  1.7229
  570MOL0     H75225   2.178   8.948   1.232 -0.6305 -0.4661  0.9448
  570MOL0     H75226   0.756   9.354   0.692 -0.4584  1.2771 -1.9139
  570MOL0     H75227   0.531   9.346   0.774  0.7532 -0.5505 -0.6446
  570MOL0     H75228   0.204   9.344   0.938  0.4992 -2.0480  0.1252
  570MOL0     H75229   0.033   9.211   1.042  0.6204 -1.5461 -1.0076
  570MOL0     H75230   0.085   8.930   1.194 -1.2252 -1.6849 -1.3263
  570MOL0     H75231  -0.073   9.009   1.149 -1.7836 -1.2998  0.1623
  570MOL0     H75232  -0.101   8.806   1.280  3.5721  0.6772 -2.4671
  570MOL0     H75233   0.006   8.876   1.408  0.3467  4.3118  1.9376
  570MOL0     H75234  -0.272   9.013   1.354 -0.5164  1.2891  2.5395
  570MOL0     H75235  -0.157   9.035   1.478  1.1473  0.3427  0.0734
  570MOL0     H75236  -0.188   8.799   1.555  1.0685  1.6349 -0.8788
  570MOL0     H75237  -0.313   8.904   1.588  1.3113 -0.1970  0.3386
  570MOL0     H75238  -0.505   8.656   1.289  0.5257  1.5956 -2.7221
  570MOL0     H75239   0.257   9.183   1.407  1.2386 -2.9960 -0.9378
  570MOL0     H75240   0.432   9.308   1.316  0.9187 -1.9909 -0.3746
  571MOL0     O75241   5.292  10.585   7.758 -0.4805  0.6611 -0.2916
  571MOL0     C75242   5.340  10.582   7.647  0.5227  0.5586  0.3785
  571MOL0     O75243   5.277  10.578   7.518 -0.1990 -0.2378  0.4009
  571MOL0     C75244   5.135  10.574   7.517 -0.4592  0.2412 -0.7611
  571MOL0     C75245   5.063  10.486   7.441 -1.5492 -0.9411  0.4949
  571MOL0     C75246   4.926  10.487   7.435 -0.8199 -0.7267 -0.0559
  571MOL0     C75247   4.854  10.576   7.516  0.3122  0.7127  0.0526
  571MOL0     O75248   4.712  10.580   7.519  0.0155  0.2254  0.3869
  571MOL0     C75249   4.619  10.523   7.417  0.2489 -1.2791  0.6540
  571MOL0     C75250   4.500  10.617   7.407 -0.2766  1.1268 -0.4333
  571MOL0     C75251   4.439  10.649   7.545 -0.4895  0.3391  1.1268
  571MOL0     C75252   4.329  10.750   7.514 -0.0179  0.3910  0.3907
  571MOL0     C75253   4.269  10.776   7.647 -0.6225 -0.2749 -0.1746
  571MOL0     C75254   4.173  10.899   7.653  1.2534  0.5374  0.3964
  571MOL0     C75255   4.065  10.924   7.535 -0.9215  0.1931 -1.1960
  571MOL0     C75256   3.964  10.804   7.530  0.0933 -0.2332  0.3782
  571MOL0     N75257   3.874  10.816   7.650 -0.4497  0.7542 -0.3623
  571MOL0     C75258   3.844  10.727   7.745 -0.5850  0.3971 -0.2283
  571MOL0     C75259   3.725  10.751   7.795 -0.4084 -0.4727  0.4607
  571MOL0     C75260   3.650  10.678   7.902 -0.7697  0.0528  0.3350
  571MOL0     C75261   3.592  10.752   8.024 -0.1040  0.0120 -0.5754
  571MOL0     C75262   3.466  10.836   8.015 -0.4301  0.6513 -0.9104
  571MOL0     C75263   3.418  10.880   8.145  0.1545 -0.0323  0.3156
  571MOL0     O75264   3.295  10.953   8.121  0.3956  0.1678 -1.2816
  571MOL0     C75265   3.172  10.934   8.192 -0.8312 -0.7116  0.1614
  571MOL0     C75266   3.166  10.866   8.313 -0.7841 -0.0835 -0.0811
  571MOL0     C75267   3.047  10.835   8.371 -0.0410 -0.9438  0.2089
  571MOL0     C75268   2.927  10.867   8.307  1.0943 -0.2091  0.8759
  571MOL0     C75269   2.805  10.822   8.377 -0.7604  0.4585  0.2385
  571MOL0     O75270   2.687  10.848   8.310 -0.7553 -0.0959 -0.3717
  571MOL0     C75271   2.564  10.829   8.356 -0.3419 -0.3334  0.4112
  571MOL0     C75272   2.523  10.769   8.479 -1.0232 -0.0767  0.4919
  571MOL0     C75273   2.385  10.742   8.505 -0.1739  0.4252 -0.2193
  571MOL0     C75274   2.285  10.787   8.423  0.3155 -0.7468 -0.0155
  571MOL0     O75275   2.160  10.780   8.476 -0.1386 -0.0330  0.0377
  571MOL0     C75276   2.053  10.757   8.376  0.3763  0.4749  0.2651
  571MOL0     C75277   1.924  10.764   8.465  0.3682  1.0953 -0.6955
  571MOL0     C75278   1.793  10.740   8.383 -0.0116 -0.4381  0.4666
  571MOL0     C75279   1.674  10.773   8.479  0.9472 -0.5376 -0.5507
  571MOL0     C75280   1.547  10.775   8.400  0.0768 -0.1719  0.1218
  571MOL0     C75281   1.512  10.635   8.344  0.0487 -0.1191 -0.6215
  571MOL0     C75282   1.402  10.647   8.247 -0.0198  0.1284  0.3858
  571MOL0     C75283   1.330  10.512   8.222  0.0200  1.2153  0.1165
  571MOL0    Cl75284   1.425  10.389   8.130  0.1736  0.4377 -0.2846
  571MOL0     C75285   2.330  10.838   8.303  0.9051 -0.4702  0.0260
  571MOL0     C75286   2.462  10.867   8.269 -0.0521  0.0584 -0.3990
  571MOL0     O75287   2.818  10.773   8.489  0.4255 -0.7404 -0.0470
  571MOL0     C75288   2.929  10.934   8.182  0.5417  0.3615 -0.0043
  571MOL0     C75289   3.052  10.969   8.124 -0.0184  0.9760  0.2968
  571MOL0     N75290   3.683  10.869   7.732 -0.4930 -0.1374 -0.1016
  571MOL0     N75291   3.770  10.903   7.640 -0.0357 -0.0415 -0.6513
  571MOL0     C75292   4.922  10.657   7.607 -0.8397 -0.0772 -0.2393
  571MOL0     C75293   5.064  10.667   7.603 -0.0420 -0.0758  0.2073
  571MOL0     C75294   5.481  10.576   7.645 -0.7673  0.1851 -0.0565
  571MOL0     C75295   5.552  10.537   7.530 -0.0952 -0.0927  0.1871
  571MOL0     C75296   5.687  10.507   7.530  0.8298  0.4708  0.2571
  571MOL0     C75297   5.760  10.521   7.653 -0.5470  0.2196 -0.1804
  571MOL0     O75298   5.892  10.492   7.671 -0.1888 -0.3014 -0.2131
  571MOL0     C75299   5.961  10.437   7.563 -1.0071 -0.2879 -0.5989
  571MOL0     C75300   6.105  10.401   7.600  0.4135 -0.1351 -0.4622
  571MOL0     C75301   6.170  10.309   7.490 -0.2033  0.2155 -0.1664
  571MOL0     C75302   6.320  10.287   7.510  0.3181  0.0337 -0.1657
  571MOL0     C75303   6.387  10.416   7.516 -0.1845  0.4823  0.1175
  571MOL0     C75304   6.445  10.525   7.533  0.9914 -0.2972  0.0411
  571MOL0     C75305   5.694  10.565   7.765 -0.3740 -0.7719 -0.2681
  571MOL0     C75306   5.556  10.588   7.763 -0.1206  0.0503 -0.6823
  571MOL0     H75307   5.098  10.423   7.360 -0.5179 -2.0270  1.7415
  571MOL0     H75308   4.869  10.407   7.388 -1.1051 -1.0508  0.8165
  571MOL0     H75309   4.577  10.424   7.438  0.0292 -1.1100  1.0337
  571MOL0     H75310   4.674  10.525   7.323  3.2962 -0.0482  2.3335
  571MOL0     H75311   4.425  10.570   7.342  1.0897  0.7814 -1.8147
  571MOL0     H75312   4.533  10.706   7.353  0.6328  1.5913  0.8387
  571MOL0     H75313   4.503  10.703   7.616 -2.9025  1.8267  2.2867
  571MOL0     H75314   4.407  10.553   7.588 -0.6245  0.3893  1.1376
  571MOL0     H75315   4.373  10.842   7.474 -2.4241  1.3082 -0.3591
  571MOL0     H75316   4.257  10.699   7.449  1.6686 -1.2157 -0.2980
  571MOL0     H75317   4.345  10.791   7.724 -1.5607  0.4532  0.6299
  571MOL0     H75318   4.208  10.689   7.671 -0.5118 -0.6401 -1.1963
  571MOL0     H75319   4.231  10.990   7.669  0.9033  0.9095 -0.4287
  571MOL0     H75320   4.117  10.891   7.747  0.6170 -1.6098 -0.0898
  571MOL0     H75321   4.018  11.018   7.565 -1.4265 -0.1361 -0.9362
  571MOL0     H75322   4.119  10.936   7.440  2.5242 -1.7689  0.3468
  571MOL0     H75323   4.009  10.705   7.535 -4.0823 -2.5380 -2.2337
  571MOL0     H75324   3.894  10.806   7.446 -1.1757  0.5793  1.4218
  571MOL0     H75325   3.902  10.640   7.774 -2.6943 -1.6276 -1.6181
  571MOL0     H75326   3.721  10.605   7.942 -1.3774  0.5215  2.3879
  571MOL0     H75327   3.565  10.620   7.864  0.5204 -2.4635  1.0817
  571MOL0     H75328   3.669  10.817   8.066  1.6129 -1.8445 -0.6980
  571MOL0     H75329   3.576  10.678   8.104 -0.3395  0.7611  0.0771
  571MOL0     H75330   3.492  10.928   7.960  0.2884  1.3087  0.4784
  571MOL0     H75331   3.393  10.772   7.965  0.6124 -0.6282 -0.8619
  571MOL0     H75332   3.487  10.956   8.185  2.5676 -0.8489 -1.9956
  571MOL0     H75333   3.405  10.793   8.210 -1.5038 -1.7218 -2.1107
  571MOL0     H75334   3.259  10.839   8.362 -0.4513  0.4500 -0.4098
  571MOL0     H75335   3.054  10.772   8.459 -0.0932 -0.4884  0.5386
  571MOL0     H75336   2.588  10.717   8.549  1.3932  1.0701 -0.7675
  571MOL0     H75337   2.352  10.690   8.595 -0.9189  0.5563 -0.4074
  571MOL0     H75338   2.073  10.664   8.322  2.3130  1.5077 -0.9068
  571MOL0     H75339   2.045  10.838   8.303  1.9587  0.0504 -0.4117
  571MOL0     H75340   1.918  10.862   8.513 -0.8856  0.2339  1.0217
  571MOL0     H75341   1.929  10.686   8.542  1.9200 -1.2000 -2.9638
  571MOL0     H75342   1.784  10.644   8.330 -1.4452 -1.6999  2.8102
  571MOL0     H75343   1.790  10.816   8.305 -0.8049  0.4963  1.3736
  571MOL0     H75344   1.650  10.702   8.559 -0.2182  0.7263  0.2608
  571MOL0     H75345   1.684  10.873   8.521 -1.7472 -1.2794  2.2564
  571MOL0     H75346   1.566  10.850   8.323  1.8686  0.2698  0.9711
  571MOL0     H75347   1.469  10.808   8.469  1.3407 -1.0353  2.0312
  571MOL0     H75348   1.465  10.575   8.423 -1.5307  1.7401 -0.0720
  571MOL0     H75349   1.596  10.590   8.291 -0.7072 -1.2355 -0.9154
  571MOL0     H75350   1.337  10.725   8.289  0.1965  2.5614 -3.3364
  571MOL0     H75351   1.438  10.692   8.154  0.9299 -0.4607  0.4499
  571MOL0     H75352   1.240  10.538   8.165  0.1939 -1.0860 -1.3710
  571MOL0     H75353   1.307  10.466   8.318  0.4029 -0.7589 -0.6923
  571MOL0     H75354   2.254  10.856   8.228  1.1206 -0.8830 -0.2941
  571MOL0     H75355   2.479  10.932   8.185  1.6367 -0.8508 -0.8105
  571MOL0     H75356   2.836  10.949   8.129  0.2859 -0.0820  0.3000
  571MOL0     H75357   3.058  11.007   8.023  0.1847  0.5321  0.1370
  571MOL0     H75358   4.861  10.720   7.671 -1.6527 -1.1907  0.1015
  571MOL0     H75359   5.112  10.741   7.666  1.4980 -1.1371  0.3305
  571MOL0     H75360   5.496  10.501   7.445  0.7169 -0.5069 -0.1794
  571MOL0     H75361   5.737  10.454   7.449  1.8759 -0.5815  1.5504
  571MOL0     H75362   5.956  10.517   7.489 -2.4329  2.0105  1.7946
  571MOL0     H75363   5.919  10.339   7.539  1.6598 -2.3963  2.4727
  571MOL0     H75364   6.164  10.490   7.621 -0.8525  0.3267  1.3699
  571MOL0     H75365   6.100  10.342   7.692 -0.7018 -2.8112 -2.0828
  571MOL0     H75366   6.163  10.360   7.394  0.3133 -0.3687 -0.5245
  571MOL0     H75367   6.117  10.213   7.491  1.3668 -0.7041  1.6696
  571MOL0     H75368   6.337  10.236   7.606  1.9392  1.1227  0.1705
  571MOL0     H75369   6.356  10.226   7.427 -1.0291  1.8926 -2.2253
  571MOL0     H75370   6.499  10.614   7.558 -0.8614  1.1040 -0.7042
  571MOL0     H75371   5.747  10.569   7.859  1.0457  0.9306 -1.0709
  571MOL0     H75372   5.510  10.616   7.857 -0.2804  2.1671 -1.3490
  572MOL0     O75373   4.880   9.825   3.703 -0.6240 -0.0983  0.2367
  572MOL0     C75374   4.879   9.934   3.767 -0.1471  0.6363 -0.5397
  572MOL0     O75375   4.774   9.974   3.847  0.7602 -0.2895 -0.4536
  572MOL0     C75376   4.659   9.902   3.881  0.2981  0.6056 -0.6721
  572MOL0     C75377   4.581   9.935   3.994  0.2523  0.0946  0.3045
  572MOL0     C75378   4.474   9.852   4.040 -0.0561  0.5283 -0.0084
  572MOL0     C75379   4.443   9.744   3.960 -0.1223  1.0282 -0.0106
  572MOL0     O75380   4.349   9.652   4.010  0.5085  0.1037  0.0295
  572MOL0     C75381   4.344   9.525   3.957  0.2985 -0.2982 -0.3430
  572MOL0     C75382   4.238   9.440   4.023  0.0282  0.2876 -0.6075
  572MOL0     C75383   4.115   9.411   3.929 -0.8997 -0.4603  0.2997
  572MOL0     C75384   4.011   9.322   3.987 -0.5236 -0.8414  0.4270
  572MOL0     C75385   3.958   9.213   3.894 -0.4651 -0.3272  0.2701
  572MOL0     C75386   3.881   9.115   3.985  0.1527 -0.9340  0.2506
  572MOL0     C75387   3.790   9.023   3.904 -0.1551 -0.2781  0.7940
  572MOL0     C75388   3.876   8.907   3.848  0.4385 -0.6693 -0.4743
  572MOL0     N75389   3.783   8.808   3.779  0.7682  0.1205  0.1718
  572MOL0     C75390   3.652   8.771   3.817  0.2771 -0.4297  0.1960
  572MOL0     C75391   3.609   8.683   3.719 -0.2005  0.1346 -0.9708
  572MOL0     C75392   3.476   8.608   3.712  0.2239 -0.3196  0.9949
  572MOL0     C75393   3.357   8.708   3.697 -0.4502  0.4025  0.1159
  572MOL0     C75394   3.272   8.676   3.568  0.4392 -1.3659  0.0361
  572MOL0     C75395   3.202   8.536   3.585  0.1911 -0.8829 -0.3658
  572MOL0     O75396   3.094   8.526   3.493 -0.9188 -0.2549  0.2267
  572MOL0     C75397   2.972   8.594   3.526  0.4081  0.5482 -0.1317
  572MOL0     C75398   2.934   8.610   3.659 -0.7996 -0.0494  0.1440
  572MOL0     C75399   2.816   8.661   3.694 -0.0270 -0.6029 -0.2945
  572MOL0     C75400   2.718   8.694   3.595  0.0501  0.0080 -0.0114
  572MOL0     C75401   2.586   8.739   3.634 -1.1529 -0.1140 -0.0461
  572MOL0     O75402   2.534   8.671   3.743 -0.1050 -0.0611  0.7140
  572MOL0     C75403   2.406   8.695   3.779  0.2767 -0.7228 -0.3876
  572MOL0     C75404   2.301   8.676   3.688  0.0121  0.5954  0.1056
  572MOL0     C75405   2.171   8.689   3.727 -0.1524  0.4397 -0.0995
  572MOL0     C75406   2.131   8.728   3.852 -0.2750 -0.0421 -0.0143
  572MOL0     O75407   1.998   8.755   3.884  0.7671  0.1873 -0.0271
  572MOL0     C75408   1.945   8.748   4.019 -0.2406 -0.3985 -0.6398
  572MOL0     C75409   1.790   8.696   4.015 -0.0491 -0.0098 -0.6715
  572MOL0     C75410   1.779   8.564   3.929 -1.2125 -0.5486  0.7268
  572MOL0     C75411   1.655   8.489   3.950  0.0795 -0.2309  0.2297
  572MOL0     C75412   1.527   8.547   3.889 -0.0599  0.3922  0.2742
  572MOL0     C75413   1.534   8.572   3.741 -0.0804 -0.7847  0.0350
  572MOL0     C75414   1.398   8.558   3.677  0.2472  0.3002 -0.8346
  572MOL0     C75415   1.403   8.551   3.529  0.2545  0.4508 -0.2414
  572MOL0    Cl75416   1.239   8.512   3.468 -0.3073  0.3310 -0.1188
  572MOL0     C75417   2.232   8.743   3.945  0.1202  0.5798  0.9874
  572MOL0     C75418   2.368   8.733   3.909 -0.7399  0.9154  1.2392
  572MOL0     O75419   2.524   8.808   3.551 -0.6750  0.2167 -0.6022
  572MOL0     C75420   2.744   8.674   3.461 -0.6998  0.1499 -0.2885
  572MOL0     C75421   2.877   8.627   3.425  0.8168 -0.5097 -0.0803
  572MOL0     N75422   3.711   8.678   3.625  0.4535 -0.3591 -0.0972
  572MOL0     N75423   3.812   8.750   3.661 -0.1001 -0.4791  0.1952
  572MOL0     C75424   4.505   9.721   3.829 -0.5051 -0.2362 -0.7157
  572MOL0     C75425   4.616   9.798   3.800 -0.3439  0.2222 -0.1509
  572MOL0     C75426   4.993  10.024   3.759 -0.4383  0.6378 -0.4033
  572MOL0     C75427   5.086  10.024   3.657  0.8915  0.0810 -0.1721
  572MOL0     C75428   5.198  10.106   3.641 -0.8127 -0.0408  0.0723
  572MOL0     C75429   5.206  10.213   3.733 -0.3842 -0.1183  0.5905
  572MOL0     O75430   5.303  10.309   3.722  0.2021  0.1436  0.1442
  572MOL0     C75431   5.415  10.277   3.641  0.4206 -0.1275 -0.6205
  572MOL0     C75432   5.526  10.381   3.663 -0.9048 -0.2268  0.8974
  572MOL0     C75433   5.565  10.398   3.811  0.4482 -0.7122  0.1825
  572MOL0     C75434   5.631  10.546   3.829 -0.5424  1.4252  0.1053
  572MOL0     C75435   5.763  10.546   3.765 -0.0537 -0.7724  0.3948
  572MOL0     C75436   5.869  10.555   3.705 -0.3024 -0.4767 -0.5905
  572MOL0     C75437   5.103  10.224   3.830  0.3144 -0.5098  0.1784
  572MOL0     C75438   5.000  10.127   3.846  0.6552 -0.1866 -0.3584
  572MOL0     H75439   4.601  10.017   4.062 -1.6725  1.4039 -0.6320
  572MOL0     H75440   4.410   9.862   4.127 -1.8011  1.9694 -1.3828
  572MOL0     H75441   4.442   9.487   3.987  1.0234  0.1011 -2.1108
  572MOL0     H75442   4.335   9.520   3.848  5.3828 -0.8178 -0.9691
  572MOL0     H75443   4.197   9.499   4.105 -0.0471 -0.6279  0.0251
  572MOL0     H75444   4.283   9.349   4.064 -0.1045  0.4942  0.0027
  572MOL0     H75445   4.158   9.381   3.833  2.0301  2.0410  0.6761
  572MOL0     H75446   4.073   9.511   3.910  0.2879 -0.3196 -1.9635
  572MOL0     H75447   4.042   9.272   4.079  1.8771  1.6167  1.1220
  572MOL0     H75448   3.928   9.387   4.017  0.8736 -0.3512  3.7285
  572MOL0     H75449   4.044   9.170   3.842 -0.6294  1.7292 -1.8950
  572MOL0     H75450   3.895   9.264   3.820  0.4091 -0.3345 -0.5115
  572MOL0     H75451   3.818   9.183   4.042  2.2942  1.1312  0.3003
  572MOL0     H75452   3.948   9.062   4.054  2.0333 -0.3486 -1.0413
  572MOL0     H75453   3.702   8.990   3.959 -1.0486  0.2708 -0.2620
  572MOL0     H75454   3.757   9.080   3.817 -1.4995 -0.9584  0.8371
  572MOL0     H75455   3.931   8.857   3.928  1.1098 -0.7737 -0.9937
  572MOL0     H75456   3.941   8.949   3.771  1.3584 -0.0169  0.6180
  572MOL0     H75457   3.601   8.803   3.907 -0.1793  3.9025 -1.3364
  572MOL0     H75458   3.467   8.544   3.801  3.4538  1.2217  2.5983
  572MOL0     H75459   3.486   8.547   3.622 -1.2368 -0.9526  1.2321
  572MOL0     H75460   3.396   8.810   3.692  2.5002 -0.5744  1.1608
  572MOL0     H75461   3.299   8.702   3.790 -1.8661  1.3490 -0.6650
  572MOL0     H75462   3.199   8.756   3.557  3.3704  1.5353  0.2053
  572MOL0     H75463   3.342   8.678   3.484  1.4413  0.0841  0.8808
  572MOL0     H75464   3.178   8.502   3.687 -2.7679 -0.3733 -0.8080
  572MOL0     H75465   3.279   8.464   3.556  1.4750  0.1340  0.4009
  572MOL0     H75466   2.998   8.584   3.743  0.6181 -0.9736 -1.1611
  572MOL0     H75467   2.795   8.674   3.800 -0.6196 -1.2151 -0.3293
  572MOL0     H75468   2.334   8.649   3.588 -3.1036 -3.4721 -0.0604
  572MOL0     H75469   2.091   8.683   3.654  0.2840 -0.1932 -0.5379
  572MOL0     H75470   1.958   8.852   4.050 -0.7934  0.3501 -2.8049
  572MOL0     H75471   2.011   8.675   4.068 -0.8056 -1.7456 -1.8168
  572MOL0     H75472   1.730   8.775   3.969 -0.8416  0.4917  1.1152
  572MOL0     H75473   1.763   8.675   4.119  0.1920 -0.9211 -0.7857
  572MOL0     H75474   1.855   8.488   3.950 -0.7619 -0.0942  0.7624
  572MOL0     H75475   1.797   8.601   3.828  1.9514  0.5755  1.5830
  572MOL0     H75476   1.671   8.392   3.902  0.7008 -1.1032  2.1196
  572MOL0     H75477   1.628   8.471   4.054  0.1326  0.8907  0.4521
  572MOL0     H75478   1.491   8.643   3.928 -2.4611 -0.5429  0.5392
  572MOL0     H75479   1.451   8.469   3.901  0.1040  0.2020  0.0663
  572MOL0     H75480   1.610   8.507   3.695  0.4900 -0.0202 -0.1186
  572MOL0     H75481   1.569   8.673   3.722 -2.4437 -0.3045 -2.6137
  572MOL0     H75482   1.356   8.463   3.710 -0.5102  1.0460  0.4649
  572MOL0     H75483   1.332   8.638   3.711 -0.9409 -0.1840 -1.9480
  572MOL0     H75484   1.462   8.463   3.501 -2.6409 -2.0878  1.0138
  572MOL0     H75485   1.453   8.634   3.480 -0.6953 -0.5808 -3.1748
  572MOL0     H75486   2.223   8.776   4.048  1.8837 -2.1336  2.1281
  572MOL0     H75487   2.453   8.743   3.975  3.2412 -1.1658 -3.0045
  572MOL0     H75488   2.683   8.703   3.376  3.1505  4.7062 -1.9250
  572MOL0     H75489   2.900   8.599   3.322 -2.2315 -0.7219 -0.8060
  572MOL0     H75490   4.477   9.642   3.760  1.3816 -0.6328 -1.0566
  572MOL0     H75491   4.669   9.772   3.709  1.5521 -0.4777  1.1113
  572MOL0     H75492   5.074   9.954   3.575 -2.5182  0.9502 -0.5865
  572MOL0     H75493   5.272  10.089   3.563  0.9540  2.7309  0.9820
  572MOL0     H75494   5.382  10.277   3.537 -2.6864  0.9878  0.2268
  572MOL0     H75495   5.456  10.177   3.655  1.6692  0.5555  0.9151
  572MOL0     H75496   5.617  10.348   3.612 -0.1651 -0.3805  2.2582
  572MOL0     H75497   5.487  10.473   3.620 -0.5424 -0.5678 -0.1899
  572MOL0     H75498   5.640  10.325   3.844 -1.8538 -2.6820  1.3986
  572MOL0     H75499   5.477  10.379   3.873 -0.2725 -0.8511 -0.8425
  572MOL0     H75500   5.571  10.630   3.791 -1.2898  0.8387 -0.0485
  572MOL0     H75501   5.645  10.566   3.936 -2.2178  0.0529  0.6317
  572MOL0     H75502   5.966  10.562   3.660 -0.0691 -0.7598 -0.1370
  572MOL0     H75503   5.115  10.304   3.902 -1.9000 -0.0822  0.1403
  572MOL0     H75504   4.924  10.143   3.922  0.6389  2.2459 -0.8035
  573MOL0     O75505   3.391   1.640   0.397  0.5859  0.1327  0.2887
  573MOL0     C75506   3.387   1.581   0.504 -0.2408 -0.2453 -0.7728
  573MOL0     O75507   3.496   1.528   0.573  0.2029  0.0681 -0.4814
  573MOL0     C75508   3.621   1.560   0.540  0.9054 -0.5450 -1.1703
  573MOL0     C75509   3.705   1.584   0.649 -0.5353  0.3574 -0.1666
  573MOL0     C75510   3.838   1.618   0.627  0.8767 -0.5850 -0.0641
  573MOL0     C75511   3.886   1.642   0.501  0.6526  0.5944  0.3305
  573MOL0     O75512   4.011   1.676   0.484 -0.4724  0.7881 -0.0236
  573MOL0     C75513   4.029   1.815   0.436  0.3913 -0.3002 -0.6638
  573MOL0     C75514   4.174   1.836   0.409  0.3036 -1.3075 -0.3628
  573MOL0     C75515   4.264   1.825   0.536 -0.7503 -0.1609 -0.0275
  573MOL0     C75516   4.413   1.842   0.500 -0.5846  0.3476  0.5270
  573MOL0     C75517   4.453   1.983   0.441 -0.0968 -0.1050 -0.2313
  573MOL0     C75518   4.434   1.985   0.287 -0.3453 -0.1530 -0.4834
  573MOL0     C75519   4.524   1.888   0.200  0.5943  0.0558 -0.2262
  573MOL0     C75520   4.675   1.883   0.249  0.1514  0.1899  0.5280
  573MOL0     N75521   4.752   1.998   0.199 -0.4921 -0.2703 -0.7573
  573MOL0     C75522   4.786   2.028   0.070  0.9939 -0.4141 -0.4558
  573MOL0     C75523   4.855   2.138   0.076 -0.4255 -0.6207  0.2108
  573MOL0     C75524   4.919   2.224  -0.035 -0.0568 -0.0182 -0.3183
  573MOL0     C75525   4.843   2.362  -0.053  0.9070  0.4941  0.3160
  573MOL0     C75526   4.737   2.374  -0.161 -0.2555  0.0467  0.5484
  573MOL0     C75527   4.600   2.305  -0.130 -0.6709 -0.2293 -0.8728
  573MOL0     O75528   4.589   2.166  -0.174 -0.7405  0.0397 -0.2315
  573MOL0     C75529   4.480   2.098  -0.148  0.1599  0.0909  0.4313
  573MOL0     C75530   4.390   2.125  -0.047  0.4491  0.0601  0.2066
  573MOL0     C75531   4.286   2.030  -0.023  0.6432  0.0677 -0.1534
  573MOL0     C75532   4.268   1.915  -0.090 -0.1942 -0.3164 -0.0838
  573MOL0     C75533   4.146   1.830  -0.064  0.6440  0.1491 -0.2929
  573MOL0     O75534   4.148   1.695  -0.099  0.2668 -0.6624 -0.0396
  573MOL0     C75535   4.033   1.626  -0.072  1.4730  1.1242 -0.3962
  573MOL0     C75536   4.040   1.532   0.040 -0.1003  0.6677  0.7904
  573MOL0     C75537   3.924   1.460   0.084  1.4959 -0.2130  0.1949
  573MOL0     C75538   3.804   1.485   0.020  0.4821  0.0955  0.3944
  573MOL0     O75539   3.700   1.413   0.056  0.0286  0.4271 -0.7006
  573MOL0     C75540   3.579   1.412  -0.021  0.3671 -0.3537  0.9808
  573MOL0     C75541   3.491   1.319   0.052  0.5886 -0.0468 -0.5238
  573MOL0     C75542   3.343   1.363   0.057 -0.0213  0.4407  0.1556
  573MOL0     C75543   3.259   1.267   0.148  0.2990 -0.0086 -0.1261
  573MOL0     C75544   3.282   1.326   0.290  0.4478 -0.0899  0.4486
  573MOL0     C75545   3.210   1.234   0.394  0.0690 -0.5234 -0.4400
  573MOL0     C75546   3.059   1.238   0.382  0.5075 -0.1887 -0.0860
  573MOL0     C75547   3.006   1.170   0.507  0.7445 -0.2461 -1.3656
  573MOL0    Cl75548   2.817   1.175   0.490 -0.4615 -0.6039  0.2686
  573MOL0     C75549   3.800   1.579  -0.089  0.1943  0.0951  0.2663
  573MOL0     C75550   3.908   1.653  -0.135  0.3709  0.2710 -0.0050
  573MOL0     O75551   4.046   1.884  -0.008 -0.3849 -1.2942 -0.1750
  573MOL0     C75552   4.366   1.885  -0.194 -0.4280  0.9241 -0.3084
  573MOL0     C75553   4.471   1.978  -0.219 -0.3663  0.0913  0.1588
  573MOL0     N75554   4.863   2.180   0.206  0.2743 -0.4212  0.0793
  573MOL0     N75555   4.804   2.095   0.281  0.4951 -0.0538 -0.4712
  573MOL0     C75556   3.801   1.623   0.393 -0.9977  0.4876 -0.3553
  573MOL0     C75557   3.671   1.580   0.406 -0.2477  0.6078 -0.7802
  573MOL0     C75558   3.254   1.566   0.570 -1.4734  0.0995 -0.2635
  573MOL0     C75559   3.136   1.591   0.497  0.9241 -0.4302 -0.1923
  573MOL0     C75560   3.011   1.586   0.556 -0.0249 -0.1343 -0.7475
  573MOL0     C75561   3.005   1.552   0.692  0.7518 -0.5184  0.9560
  573MOL0     O75562   2.894   1.538   0.774  0.0769  0.0208  0.5025
  573MOL0     C75563   2.766   1.566   0.708 -0.4038 -0.6323 -0.1572
  573MOL0     C75564   2.649   1.519   0.788 -0.1639 -0.3253 -0.2469
  573MOL0     C75565   2.647   1.575   0.930 -0.4886  0.0701 -0.1555
  573MOL0     C75566   2.503   1.565   0.984 -0.5931 -0.4602  0.8612
  573MOL0     C75567   2.473   1.418   0.999  0.7651 -0.2894  0.3773
  573MOL0     C75568   2.458   1.301   1.026 -0.0444  0.1974  0.7499
  573MOL0     C75569   3.126   1.524   0.762 -1.3675  0.9153 -0.2031
  573MOL0     C75570   3.251   1.533   0.705 -0.5092  0.7546  0.0965
  573MOL0     H75571   3.662   1.571   0.748 -1.6711  0.6781 -0.5955
  573MOL0     H75572   3.904   1.624   0.713  0.6142  1.8095  0.0478
  573MOL0     H75573   4.009   1.895   0.509  0.9465 -0.9063  0.1766
  573MOL0     H75574   3.971   1.829   0.345  1.4315 -1.5313 -1.5491
  573MOL0     H75575   4.182   1.939   0.373 -2.4298 -0.5112  1.0300
  573MOL0     H75576   4.199   1.764   0.331 -2.3245 -0.6930 -1.8656
  573MOL0     H75577   4.249   1.726   0.580  0.0470 -0.3643 -0.1984
  573MOL0     H75578   4.234   1.900   0.609  1.7210  1.2251 -0.3253
  573MOL0     H75579   4.477   1.817   0.585 -1.7187 -0.6894  1.1081
  573MOL0     H75580   4.427   1.755   0.436  0.8923  0.8099  0.1945
  573MOL0     H75581   4.556   2.016   0.460  0.4399 -0.6397 -2.0052
  573MOL0     H75582   4.387   2.058   0.486 -1.9458  0.0856 -3.0013
  573MOL0     H75583   4.458   2.084   0.248  1.9060 -0.1399  0.8008
  573MOL0     H75584   4.330   1.969   0.256 -0.6351  1.4888 -0.4437
  573MOL0     H75585   4.493   1.783   0.205  2.6576 -0.5291  1.8065
  573MOL0     H75586   4.506   1.922   0.097 -1.7649  2.3151  0.8156
  573MOL0     H75587   4.730   1.798   0.207 -0.8160  0.4273 -1.3015
  573MOL0     H75588   4.686   1.875   0.358  2.9937  0.5794  0.3487
  573MOL0     H75589   4.736   1.975  -0.011 -0.2814  0.0166  0.0235
  573MOL0     H75590   4.928   2.177  -0.134 -1.2485  3.3851 -2.2172
  573MOL0     H75591   5.020   2.237   0.005 -0.1804  0.4944 -0.1637
  573MOL0     H75592   4.915   2.440  -0.079  4.4081 -1.8404  2.2226
  573MOL0     H75593   4.787   2.394   0.035 -2.2440  0.4373 -1.5312
  573MOL0     H75594   4.722   2.482  -0.173 -0.1899 -0.0163 -0.1749
  573MOL0     H75595   4.782   2.332  -0.252  0.8134  1.1357  0.5561
  573MOL0     H75596   4.520   2.367  -0.171 -1.0924 -0.0396  0.1913
  573MOL0     H75597   4.595   2.303  -0.021 -0.9141  1.2888 -0.8415
  573MOL0     H75598   4.387   2.209   0.022 -2.3996 -0.4925  0.8881
  573MOL0     H75599   4.211   2.058   0.051  0.8126 -1.8185  0.7895
  573MOL0     H75600   4.139   1.499   0.070  0.6630  0.5023 -1.6650
  573MOL0     H75601   3.932   1.377   0.153 -1.7876 -2.3548 -1.7702
  573MOL0     H75602   3.591   1.393  -0.128  0.7961  2.9388  0.3278
  573MOL0     H75603   3.532   1.511  -0.023  1.9030  0.3885 -0.0565
  573MOL0     H75604   3.511   1.329   0.159  2.8776 -1.2034 -0.7782
  573MOL0     H75605   3.505   1.215   0.022  1.7428  0.0393 -0.3279
  573MOL0     H75606   3.307   1.363  -0.047  1.2948  2.0662 -0.3436
  573MOL0     H75607   3.340   1.468   0.088  0.6763 -0.1743  2.4580
  573MOL0     H75608   3.154   1.270   0.117 -0.0367  1.9503  1.0574
  573MOL0     H75609   3.294   1.163   0.149 -0.9772 -0.4674  1.0477
  573MOL0     H75610   3.246   1.429   0.291  1.0393  0.1326 -0.2218
  573MOL0     H75611   3.385   1.337   0.325  0.5671  1.5788 -0.3073
  573MOL0     H75612   3.245   1.275   0.490  2.0097  2.0388 -2.1156
  573MOL0     H75613   3.245   1.131   0.386 -1.8115 -1.1546 -1.0739
  573MOL0     H75614   3.032   1.343   0.369 -3.5753 -1.1449 -0.4152
  573MOL0     H75615   3.035   1.186   0.289 -1.2702 -0.0195  0.2459
  573MOL0     H75616   3.032   1.219   0.601  2.0943 -1.8519 -0.8468
  573MOL0     H75617   3.043   1.067   0.519 -3.5077 -1.9282 -0.8354
  573MOL0     H75618   3.711   1.590  -0.150  1.1834 -2.5616 -1.8832
  573MOL0     H75619   3.889   1.722  -0.217  0.2012 -0.4878 -0.6148
  573MOL0     H75620   4.342   1.796  -0.251  3.1074  0.2417 -0.9661
  573MOL0     H75621   4.541   1.945  -0.296  0.4643 -0.6315  1.1812
  573MOL0     H75622   3.839   1.637   0.292 -0.2150  0.1484 -0.1119
  573MOL0     H75623   3.615   1.563   0.315 -1.1907 -3.7065  0.3570
  573MOL0     H75624   3.147   1.611   0.391  0.0807  0.8279 -0.0659
  573MOL0     H75625   2.922   1.606   0.497  0.2329  0.0063 -1.0921
  573MOL0     H75626   2.756   1.511   0.614  1.6878  0.8943 -1.3828
  573MOL0     H75627   2.755   1.674   0.692  1.0538  0.4385  4.5042
  573MOL0     H75628   2.562   1.556   0.735 -0.3595  0.6921  0.7614
  573MOL0     H75629   2.639   1.410   0.786  1.0527 -0.4546 -0.2520
  573MOL0     H75630   2.676   1.681   0.927 -0.7553  0.1427 -0.1355
  573MOL0     H75631   2.726   1.526   0.987 -2.1611 -1.2702  1.1064
  573MOL0     H75632   2.488   1.620   1.078  0.8321  3.5068 -0.9790
  573MOL0     H75633   2.429   1.607   0.914  1.4275  3.7985  0.9353
  573MOL0     H75634   2.444   1.197   1.046 -3.6848  0.8196  2.2937
  573MOL0     H75635   3.114   1.503   0.868  2.1037  2.8915  0.7580
  573MOL0     H75636   3.337   1.518   0.770  0.4226 -2.2014 -1.6067
  574MOL0     O75637   6.655   1.366   0.723 -0.4429 -1.3228 -0.0640
  574MOL0     C75638   6.632   1.428   0.828 -0.0810  0.0077  0.1604
  574MOL0     O75639   6.502   1.459   0.868 -0.3564 -0.6180 -0.6438
  574MOL0     C75640   6.395   1.448   0.778  0.6776 -0.0107  0.8757
  574MOL0     C75641   6.381   1.533   0.669 -0.5107 -0.5218  0.4569
  574MOL0     C75642   6.263   1.520   0.584 -1.0094  0.3949 -0.4832
  574MOL0     C75643   6.157   1.439   0.615  0.1947 -0.4225 -0.1036
  574MOL0     O75644   6.047   1.454   0.533 -0.0874  0.2815 -0.0124
  574MOL0     C75645   5.923   1.437   0.592 -0.1479 -0.4251  0.0163
  574MOL0     C75646   5.816   1.478   0.497  0.2992 -0.5615 -0.3431
  574MOL0     C75647   5.679   1.456   0.569  0.2166 -0.1446  0.2968
  574MOL0     C75648   5.564   1.494   0.477  0.1504 -0.2208 -0.4318
  574MOL0     C75649   5.465   1.386   0.428  0.2868  0.3753  0.3217
  574MOL0     C75650   5.408   1.298   0.542  0.0875  0.1596 -0.3186
  574MOL0     C75651   5.264   1.237   0.523 -0.3585  0.0461 -0.4733
  574MOL0     C75652   5.227   1.168   0.654  0.0572  0.8297  0.5694
  574MOL0     N75653   5.094   1.116   0.650  0.8819  0.2724  0.2482
  574MOL0     C75654   4.981   1.195   0.658  0.3044  0.2934  1.1549
  574MOL0     C75655   4.879   1.110   0.626  0.2139 -0.4458 -0.1440
  574MOL0     C75656   4.740   1.169   0.623  0.2263 -0.2687  0.6780
  574MOL0     C75657   4.657   1.135   0.743 -0.0524  0.5062  0.1524
  574MOL0     C75658   4.552   1.041   0.685 -0.3562 -0.0340 -0.3712
  574MOL0     C75659   4.409   1.077   0.737 -0.1747  0.5603 -0.2551
  574MOL0     O75660   4.418   1.066   0.884  0.2246 -0.3945  0.0620
  574MOL0     C75661   4.295   1.067   0.944  0.1036 -0.1160 -1.0240
  574MOL0     C75662   4.169   1.086   0.886  0.5385 -0.3041 -0.1168
  574MOL0     C75663   4.049   1.078   0.951  0.6021  0.4182 -0.5136
  574MOL0     C75664   4.057   1.046   1.097  0.6566  0.6383  0.1348
  574MOL0     C75665   3.936   1.031   1.173  0.4959 -0.3081  0.1145
  574MOL0     O75666   3.825   1.003   1.092 -0.5350 -0.0494 -0.5030
  574MOL0     C75667   3.707   0.984   1.162  0.2425  1.1799 -0.2929
  574MOL0     C75668   3.706   0.875   1.254  1.6095 -0.2366 -0.2152
  574MOL0     C75669   3.590   0.855   1.336 -0.0926 -0.7451  0.3543
  574MOL0     C75670   3.474   0.937   1.325 -0.3147 -0.5295  0.1449
  574MOL0     O75671   3.372   0.886   1.400 -0.2469 -0.4530 -0.7133
  574MOL0     C75672   3.255   0.971   1.414 -0.3070  0.1400  0.0190
  574MOL0     C75673   3.135   0.899   1.495 -0.8057  1.1664 -1.2647
  574MOL0     C75674   2.999   0.917   1.433  0.4420 -0.2344  0.5872
  574MOL0     C75675   2.879   0.870   1.516 -0.3933 -0.7009  0.1283
  574MOL0     C75676   2.849   0.966   1.635  0.1054  0.0364  0.7442
  574MOL0     C75677   2.855   1.115   1.598 -0.3218  0.3563  0.0949
  574MOL0     C75678   2.785   1.193   1.711  0.1283  0.4380 -0.7907
  574MOL0     C75679   2.763   1.339   1.665 -0.8684 -0.4493 -0.4191
  574MOL0    Cl75680   2.692   1.419   1.807 -0.4838 -0.1169  0.3420
  574MOL0     C75681   3.482   1.044   1.229 -0.6107 -0.8766  0.0473
  574MOL0     C75682   3.594   1.062   1.145  0.3186 -0.6931  0.7139
  574MOL0     O75683   3.934   1.056   1.292  0.7226 -0.0313 -0.9770
  574MOL0     C75684   4.179   1.012   1.159 -0.2959  0.3570 -0.0407
  574MOL0     C75685   4.295   1.031   1.083 -0.3423 -0.2154 -0.0895
  574MOL0     N75686   4.933   0.979   0.623  0.0217  0.8220 -0.6291
  574MOL0     N75687   5.063   0.987   0.620  0.5206  0.1852  0.0492
  574MOL0     C75688   6.172   1.358   0.724 -1.3134 -0.0647  0.3523
  574MOL0     C75689   6.285   1.366   0.809 -0.2695 -0.3907  0.4882
  574MOL0     C75690   6.751   1.468   0.911 -0.4045 -0.6360 -0.2737
  574MOL0     C75691   6.875   1.474   0.858 -0.3776 -0.1707 -0.1177
  574MOL0     C75692   6.984   1.526   0.930 -0.3675 -0.8877  0.6604
  574MOL0     C75693   6.970   1.576   1.058  0.4169 -1.6318 -0.7880
  574MOL0     O75694   7.064   1.628   1.144 -0.2612  0.3764  0.7262
  574MOL0     C75695   7.205   1.592   1.135  0.2088  0.3371  0.1883
  574MOL0     C75696   7.287   1.677   1.040  0.1357 -0.3588  0.1918
  574MOL0     C75697   7.307   1.830   1.083  1.0253 -0.0265 -0.1736
  574MOL0     C75698   7.443   1.857   1.140 -0.1284  0.1608  0.5480
  574MOL0     C75699   7.553   1.815   1.065  0.2820  0.4369 -0.1871
  574MOL0     C75700   7.658   1.790   1.016 -0.4226 -0.3137  0.3256
  574MOL0     C75701   6.837   1.575   1.110  0.9197  0.5441 -0.2952
  574MOL0     C75702   6.733   1.517   1.040 -0.1582  0.2053  0.0061
  574MOL0     H75703   6.454   1.604   0.631 -2.9894  0.7668 -2.3507
  574MOL0     H75704   6.255   1.584   0.496  1.1830  0.4180 -0.7377
  574MOL0     H75705   5.918   1.480   0.692 -1.6034 -3.7359  1.5376
  574MOL0     H75706   5.910   1.330   0.611 -1.5544 -1.0945 -3.7871
  574MOL0     H75707   5.818   1.426   0.400 -1.4156 -1.9191  0.2995
  574MOL0     H75708   5.824   1.585   0.477 -2.0937  0.0387  1.4805
  574MOL0     H75709   5.671   1.513   0.662  2.1517  0.2683  0.2476
  574MOL0     H75710   5.673   1.350   0.596 -0.3854 -0.5963 -1.4752
  574MOL0     H75711   5.508   1.572   0.530  0.1479 -0.3120 -0.2990
  574MOL0     H75712   5.598   1.553   0.391  4.8394 -0.3074  1.0993
  574MOL0     H75713   5.512   1.313   0.361 -0.5924  1.3581 -1.4234
  574MOL0     H75714   5.380   1.431   0.377 -1.1852 -0.2136  2.1528
  574MOL0     H75715   5.406   1.357   0.634  0.0948  0.9134 -0.7909
  574MOL0     H75716   5.477   1.217   0.566 -0.1636  0.6970  2.6835
  574MOL0     H75717   5.197   1.321   0.502  0.4566  1.4460  2.0953
  574MOL0     H75718   5.269   1.166   0.440  0.9288  0.2618 -0.6012
  574MOL0     H75719   5.237   1.241   0.734  0.5285  0.9780  0.3779
  574MOL0     H75720   5.298   1.086   0.670  0.0687  0.1865 -2.2111
  574MOL0     H75721   4.978   1.302   0.669 -0.7812  0.1961  1.9446
  574MOL0     H75722   4.708   1.131   0.525 -1.1585  1.1534  0.5255
  574MOL0     H75723   4.762   1.275   0.610  1.5090 -0.8911 -5.3251
  574MOL0     H75724   4.601   1.224   0.775  0.4043  0.6840  0.4715
  574MOL0     H75725   4.696   1.078   0.828 -2.1260 -1.2721 -0.0135
  574MOL0     H75726   4.541   1.053   0.577  0.9536 -1.0498 -0.6382
  574MOL0     H75727   4.565   0.932   0.692 -0.9023 -0.1924 -1.5496
  574MOL0     H75728   4.341   1.005   0.691 -0.3815 -0.8900  2.1398
  574MOL0     H75729   4.379   1.180   0.716  2.3738  1.2055 -1.0685
  574MOL0     H75730   4.163   1.101   0.778 -0.8072 -3.0473 -0.5299
  574MOL0     H75731   3.962   1.100   0.891 -0.3170 -0.7182  0.3491
  574MOL0     H75732   3.795   0.816   1.274  0.6519 -1.7907 -0.3606
  574MOL0     H75733   3.588   0.774   1.408 -1.6995  0.0512  1.2584
  574MOL0     H75734   3.212   0.997   1.317  0.9012  1.1979 -0.2488
  574MOL0     H75735   3.279   1.066   1.461 -0.8363  0.2719  0.0307
  574MOL0     H75736   3.131   0.939   1.597 -1.1013 -3.1382  0.6147
  574MOL0     H75737   3.157   0.792   1.501 -0.5452  1.2962  1.0423
  574MOL0     H75738   3.009   0.851   1.347  2.6383 -2.3418  2.3353
  574MOL0     H75739   2.974   1.010   1.381 -1.8924 -1.5224 -0.7690
  574MOL0     H75740   2.789   0.878   1.454 -3.2021 -0.5956  3.8446
  574MOL0     H75741   2.899   0.769   1.552  2.0274 -0.6534 -0.9150
  574MOL0     H75742   2.926   0.967   1.712  2.7603  1.4517 -1.7483
  574MOL0     H75743   2.745   0.952   1.668 -0.3844  0.3418 -0.5781
  574MOL0     H75744   2.796   1.119   1.506  1.7741  0.2178 -1.3291
  574MOL0     H75745   2.956   1.157   1.587  0.0795 -0.7790 -0.7218
  574MOL0     H75746   2.687   1.153   1.739 -0.2912  0.5475 -2.0114
  574MOL0     H75747   2.839   1.192   1.806 -1.0854  0.3699 -0.0765
  574MOL0     H75748   2.692   1.356   1.584  0.0935 -0.7806 -1.3439
  574MOL0     H75749   2.858   1.382   1.631 -2.1251  0.2453 -3.3506
  574MOL0     H75750   3.403   1.118   1.235 -1.0409 -1.3794  0.7297
  574MOL0     H75751   3.583   1.137   1.068  1.5416  0.1615  1.3291
  574MOL0     H75752   4.189   0.964   1.256 -2.5406  1.0543  0.5893
  574MOL0     H75753   4.394   1.016   1.127 -0.6749  1.6935  1.4689
  574MOL0     H75754   6.087   1.296   0.750 -5.1370  3.2145 -3.0419
  574MOL0     H75755   6.283   1.312   0.903  0.4113  1.8770  1.8915
  574MOL0     H75756   6.884   1.432   0.758  0.2604 -0.2016 -0.0496
  574MOL0     H75757   7.081   1.509   0.883 -0.2732  1.6747 -0.2273
  574MOL0     H75758   7.205   1.485   1.112  2.1727  0.7751 -2.3217
  574MOL0     H75759   7.246   1.600   1.236 -1.0599  0.3813  0.7180
  574MOL0     H75760   7.378   1.619   1.020 -0.0739 -0.3835 -0.6889
  574MOL0     H75761   7.231   1.677   0.947 -1.4776 -0.0395  1.1265
  574MOL0     H75762   7.234   1.863   1.157  0.2232  2.5610 -1.9872
  574MOL0     H75763   7.296   1.900   1.000 -2.5339 -1.5830 -1.1873
  574MOL0     H75764   7.457   1.965   1.147  0.0897  0.4600 -2.8907
  574MOL0     H75765   7.453   1.819   1.242  3.3410  0.8074  0.5627
  574MOL0     H75766   7.754   1.793   0.969 -0.8480 -1.2036 -0.6442
  574MOL0     H75767   6.818   1.615   1.209  4.1504  3.4074 -0.6224
  574MOL0     H75768   6.633   1.510   1.081 -0.2221  2.1861  0.3009
  575MOL0     O75769   5.497   6.826   9.607 -0.3488  0.3172  0.3052
  575MOL0     C75770   5.578   6.776   9.684 -0.9300  0.0425  0.6625
  575MOL0     O75771   5.555   6.730   9.810 -0.0642  0.1124  0.0552
  575MOL0     C75772   5.428   6.723   9.858  0.1113  1.0844  0.4274
  575MOL0     C75773   5.415   6.672   9.987  0.3091 -0.6280 -0.7116
  575MOL0     C75774   5.292   6.664  10.060  0.0499  0.3434 -0.0074
  575MOL0     C75775   5.178   6.694   9.989  0.4885 -0.6998 -0.0627
  575MOL0     O75776   5.051   6.700  10.030  0.1741  0.3593  0.2610
  575MOL0     C75777   5.036   6.712  10.171 -0.3538 -0.7211 -0.1232
  575MOL0     C75778   4.890   6.724  10.201 -0.5791  0.2629 -0.4267
  575MOL0     C75779   4.807   6.594  10.193  0.5065 -0.2840  0.4058
  575MOL0     C75780   4.660   6.618  10.230  0.7551 -0.4708  0.6864
  575MOL0     C75781   4.573   6.502  10.183 -0.1698 -0.4270 -0.4478
  575MOL0     C75782   4.523   6.420  10.322  0.7206 -0.8485  0.3783
  575MOL0     C75783   4.409   6.309  10.282  0.1143  0.3996 -0.1285
  575MOL0     C75784   4.275   6.375  10.242 -0.4263  1.2862 -0.8557
  575MOL0     N75785   4.188   6.278  10.176  0.0590 -0.2991  0.0070
  575MOL0     C75786   4.053   6.272  10.195  0.9908 -0.2237  1.8943
  575MOL0     C75787   4.007   6.190  10.094  0.4270  0.7952 -0.6738
  575MOL0     C75788   3.866   6.164  10.054 -0.2395  0.4186 -1.0719
  575MOL0     C75789   3.833   6.011  10.060  0.1722  0.6823 -0.6492
  575MOL0     C75790   3.690   5.974  10.000 -1.3229 -0.5421  0.3355
  575MOL0     C75791   3.583   6.001  10.095  0.3065  0.8538 -0.0928
  575MOL0     O75792   3.463   5.981  10.018 -0.1758 -0.0658 -0.5040
  575MOL0     C75793   3.350   5.939  10.077 -0.3371  0.2079 -0.2697
  575MOL0     C75794   3.233   5.940  10.003 -0.5475 -0.2346 -0.4819
  575MOL0     C75795   3.110   5.899  10.054 -0.5208  0.6387 -0.5064
  575MOL0     C75796   3.103   5.879  10.194 -0.0689 -0.3088  0.0825
  575MOL0     C75797   2.976   5.835  10.252 -0.0426 -0.1245  0.3510
  575MOL0     O75798   2.975   5.742  10.360  0.7104 -0.3126  0.2339
  575MOL0     C75799   2.856   5.705  10.410 -0.5987  0.2037 -0.4770
  575MOL0     C75800   2.765   5.631  10.335  0.1580  0.1954 -0.1254
  575MOL0     C75801   2.647   5.586  10.397  0.2025  0.3881 -0.2907
  575MOL0     C75802   2.617   5.623  10.534 -0.2428 -0.5024 -0.2743
  575MOL0     O75803   2.515   5.588  10.613 -0.0472  0.1334  0.1534
  575MOL0     C75804   2.420   5.492  10.546  1.0663  0.1106 -0.8251
  575MOL0     C75805   2.291   5.469  10.640  1.0255  0.4532 -0.1464
  575MOL0     C75806   2.208   5.350  10.586  0.3551  0.3206 -0.5112
  575MOL0     C75807   2.097   5.410  10.488 -0.4149 -0.5382  0.1689
  575MOL0     C75808   2.016   5.291  10.424 -1.1616 -0.3608 -0.7222
  575MOL0     C75809   1.902   5.337  10.333 -0.5884 -0.3179 -0.1472
  575MOL0     C75810   1.860   5.239  10.216 -0.3612  0.3147  0.3821
  575MOL0     C75811   1.786   5.103  10.258 -0.4726  0.0245 -0.7153
  575MOL0    Cl75812   1.730   5.003  10.121  0.1428 -0.0557  0.1374
  575MOL0     C75813   2.713   5.704  10.596 -0.7239  0.3424 -0.3241
  575MOL0     C75814   2.828   5.741  10.535 -0.7356 -1.1887  0.8570
  575MOL0     O75815   2.872   5.883  10.208  0.1350 -0.1225  0.8418
  575MOL0     C75816   3.219   5.881  10.274 -0.8570 -0.7153 -0.4420
  575MOL0     C75817   3.336   5.920  10.217  0.4024  0.3970 -0.3169
  575MOL0     N75818   4.114   6.142  10.018 -0.5289 -0.8533  0.2258
  575MOL0     N75819   4.219   6.193  10.072  0.7590  0.0472  0.1810
  575MOL0     C75820   5.186   6.729   9.854  0.1312  0.3394 -0.7514
  575MOL0     C75821   5.306   6.744   9.788 -0.4203  1.0013  0.5612
  575MOL0     C75822   5.714   6.773   9.642  0.0840 -0.1262 -0.1050
  575MOL0     C75823   5.826   6.742   9.723  0.8271  0.6571 -1.0541
  575MOL0     C75824   5.954   6.745   9.677 -0.5177 -0.0697  0.4351
  575MOL0     C75825   5.977   6.784   9.548 -0.8026  0.2669 -0.3976
  575MOL0     O75826   6.108   6.778   9.501  0.5161  0.4209  0.4602
  575MOL0     C75827   6.155   6.899   9.434  0.5686 -0.3212  0.2052
  575MOL0     C75828   6.229   6.995   9.528 -0.7441  0.2295 -0.3847
  575MOL0     C75829   6.375   6.963   9.554 -0.3900 -0.1329  0.0554
  575MOL0     C75830   6.409   6.829   9.615 -0.5054 -0.2884 -0.3838
  575MOL0     C75831   6.553   6.828   9.624 -0.1004  0.4088 -0.1541
  575MOL0     C75832   6.671   6.800   9.608  0.0928  0.2296  0.3279
  575MOL0     C75833   5.874   6.821   9.466 -0.4852  0.0093 -0.8532
  575MOL0     C75834   5.743   6.811   9.506 -0.0406  0.4181 -0.2126
  575MOL0     H75835   5.509   6.658  10.039 -0.7916  3.1996  2.8335
  575MOL0     H75836   5.284   6.635  10.165  2.9489  1.0189  0.4851
  575MOL0     H75837   5.094   6.801  10.199  1.2465 -1.2327 -1.6131
  575MOL0     H75838   5.072   6.632  10.235 -0.1236 -0.0099  0.6541
  575MOL0     H75839   4.845   6.792  10.128 -0.1237 -3.2460 -4.3483
  575MOL0     H75840   4.869   6.768  10.299 -0.6347 -1.9941  0.6407
  575MOL0     H75841   4.859   6.516  10.249  0.2366  0.3998  1.6440
  575MOL0     H75842   4.807   6.568  10.087  2.5717  0.6565  0.1189
  575MOL0     H75843   4.644   6.652  10.333 -1.2390  1.3503 -0.1402
  575MOL0     H75844   4.626   6.708  10.178  0.2543  0.3080  2.3052
  575MOL0     H75845   4.636   6.439  10.119  1.0024  0.3759 -0.1229
  575MOL0     H75846   4.499   6.553  10.121  0.3709  0.4239 -0.4030
  575MOL0     H75847   4.473   6.488  10.392  2.0192 -0.1750  0.6808
  575MOL0     H75848   4.609   6.371  10.368  1.5275  0.4752  0.3202
  575MOL0     H75849   4.450   6.240  10.208 -1.1954  0.8303 -1.3058
  575MOL0     H75850   4.385   6.258  10.376 -1.8732  1.2964 -0.0883
  575MOL0     H75851   4.298   6.458  10.174  1.0105  1.8570  0.2790
  575MOL0     H75852   4.228   6.402  10.337  2.6917 -1.2415  1.6255
  575MOL0     H75853   3.996   6.338  10.259  1.0151  2.0405 -0.2489
  575MOL0     H75854   3.848   6.211   9.957  0.2871  2.6004 -0.1597
  575MOL0     H75855   3.799   6.228  10.112  0.8818 -0.3520  1.2035
  575MOL0     H75856   3.845   5.956  10.154 -5.2798 -3.1577 -1.7025
  575MOL0     H75857   3.911   5.965   9.997  0.0929 -3.1155  1.6814
  575MOL0     H75858   3.666   6.036   9.912  2.6592  2.6872  1.2107
  575MOL0     H75859   3.696   5.872   9.959 -2.4126  0.2584 -2.0577
  575MOL0     H75860   3.582   6.105  10.131 -0.8965  1.1816 -1.0192
  575MOL0     H75861   3.596   5.931  10.178 -2.1106  0.6811  0.2056
  575MOL0     H75862   3.244   5.948   9.896 -0.4460  0.6410 -0.4198
  575MOL0     H75863   3.033   5.863   9.986  0.7536 -1.1230 -1.0922
  575MOL0     H75864   2.789   5.609  10.231  0.2238  0.0801 -0.0864
  575MOL0     H75865   2.581   5.524  10.337  1.2205 -0.1174 -0.9310
  575MOL0     H75866   2.475   5.400  10.524  0.0226 -0.7391  0.0262
  575MOL0     H75867   2.391   5.530  10.448  3.0210  1.1314 -1.0628
  575MOL0     H75868   2.241   5.566  10.650 -0.1368 -0.2443  1.2900
  575MOL0     H75869   2.315   5.446  10.744 -1.5270 -0.0975  0.3892
  575MOL0     H75870   2.160   5.300  10.670 -1.3666 -2.3390 -2.8767
  575MOL0     H75871   2.266   5.279  10.527  0.7422  1.6058 -1.7371
  575MOL0     H75872   2.020   5.470  10.538 -1.9404 -1.6767 -0.7344
  575MOL0     H75873   2.146   5.454  10.401  1.4528 -3.1536 -0.2121
  575MOL0     H75874   1.979   5.219  10.497  1.6020 -0.9731  0.1760
  575MOL0     H75875   2.080   5.237  10.353 -2.0312  0.1926 -1.9766
  575MOL0     H75876   1.934   5.427  10.280 -0.0697 -0.1487  0.4483
  575MOL0     H75877   1.819   5.370  10.395  1.1682 -1.1594  2.8255
  575MOL0     H75878   1.792   5.288  10.145  2.0920  1.7570 -1.1081
  575MOL0     H75879   1.948   5.221  10.155 -1.5949 -0.4912 -1.2243
  575MOL0     H75880   1.709   5.129  10.331 -0.0169  0.0611 -0.2400
  575MOL0     H75881   1.857   5.038  10.309 -1.2052  0.1990  0.5918
  575MOL0     H75882   2.694   5.747  10.694  0.4232  0.4101 -0.1149
  575MOL0     H75883   2.906   5.804  10.578  3.9241 -3.5075 -3.1548
  575MOL0     H75884   3.209   5.860  10.380  3.6812  1.2883  0.5918
  575MOL0     H75885   3.423   5.937  10.281  0.1370 -0.8895  0.4169
  575MOL0     H75886   5.091   6.749   9.805 -1.6071  0.2318  2.3147
  575MOL0     H75887   5.298   6.794   9.692 -0.6894  1.2847  0.7267
  575MOL0     H75888   5.806   6.735   9.830  1.0561  3.4869 -0.7549
  575MOL0     H75889   6.036   6.713   9.742 -1.2318 -3.3580 -0.1212
  575MOL0     H75890   6.066   6.948   9.392  0.3237 -0.3901  0.6371
  575MOL0     H75891   6.220   6.875   9.350  1.8424 -1.0062  1.3457
  575MOL0     H75892   6.227   7.097   9.489 -1.4412  0.1255 -0.6239
  575MOL0     H75893   6.181   7.005   9.626  1.2805  3.5791  0.4342
  575MOL0     H75894   6.418   7.041   9.618  0.8630  0.0241 -0.9372
  575MOL0     H75895   6.428   6.972   9.458 -0.8977 -1.2731 -0.3495
  575MOL0     H75896   6.366   6.823   9.716 -1.9514  2.8232 -0.6854
  575MOL0     H75897   6.361   6.756   9.549 -2.1544 -2.0549  2.5312
  575MOL0     H75898   6.772   6.764   9.604  0.4099  0.8243 -5.4935
  575MOL0     H75899   5.902   6.845   9.364 -0.8022  1.0991 -0.6978
  575MOL0     H75900   5.661   6.836   9.439 -0.3139 -0.5774 -0.2752
  576MOL0     O75901   8.773   7.478   1.625 -0.3183 -0.1365 -0.4276
  576MOL0     C75902   8.874   7.425   1.668 -0.0739 -0.6417  0.8255
  576MOL0     O75903   8.889   7.305   1.735 -0.9385  0.6031 -0.5888
  576MOL0     C75904   8.775   7.228   1.739 -0.7146 -0.1264 -0.4206
  576MOL0     C75905   8.648   7.258   1.800  0.0795  0.0254 -0.4612
  576MOL0     C75906   8.546   7.162   1.800 -0.2926 -0.4579 -1.5558
  576MOL0     C75907   8.554   7.036   1.727  0.3181  0.3183 -0.9981
  576MOL0     O75908   8.433   6.968   1.705  0.1013  0.6368  0.1139
  576MOL0     C75909   8.434   6.854   1.623 -0.1247  0.5256  0.8087
  576MOL0     C75910   8.290   6.818   1.602 -0.3968  0.3654 -0.3042
  576MOL0     C75911   8.279   6.673   1.533 -0.6083 -0.0429  0.1277
  576MOL0     C75912   8.375   6.654   1.414 -0.4765  0.4372  1.6050
  576MOL0     C75913   8.354   6.516   1.341 -0.4594  1.3925  0.4839
  576MOL0     C75914   8.252   6.527   1.232 -0.1936 -0.1310 -0.9581
  576MOL0     C75915   8.253   6.432   1.108  0.1208  0.1620 -0.1302
  576MOL0     C75916   8.231   6.280   1.146  0.4739  1.1695 -0.6033
  576MOL0     N75917   8.210   6.202   1.025 -0.1291 -0.4316  0.0826
  576MOL0     C75918   8.090   6.171   0.968  0.6904  0.7310  0.0633
  576MOL0     C75919   8.119   6.132   0.843 -0.0734 -0.4833  0.0485
  576MOL0     C75920   8.040   6.075   0.725 -0.7775 -0.1464  0.2490
  576MOL0     C75921   8.023   6.172   0.610  0.5203  0.0021  0.9806
  576MOL0     C75922   7.968   6.092   0.489  0.0474  0.0027  0.9737
  576MOL0     C75923   7.934   6.191   0.377 -0.2793 -0.2312 -0.2638
  576MOL0     O75924   7.905   6.108   0.262 -1.0275 -0.5877  0.0619
  576MOL0     C75925   7.770   6.082   0.233  0.1008  1.1426 -0.5582
  576MOL0     C75926   7.731   6.066   0.099  0.7827  0.1444 -0.0083
  576MOL0     C75927   7.596   6.047   0.070 -0.3350 -1.1152 -0.5717
  576MOL0     C75928   7.498   6.053   0.169 -0.6496 -0.4054 -0.3999
  576MOL0     C75929   7.356   6.027   0.135 -0.0455 -0.4114 -0.0680
  576MOL0     O75930   7.271   6.058   0.238 -0.5471  0.5832 -0.0298
  576MOL0     C75931   7.137   6.021   0.224  0.1018 -0.1535 -0.2665
  576MOL0     C75932   7.042   6.126   0.225  0.3634 -0.6255  0.3398
  576MOL0     C75933   6.900   6.104   0.212  0.2520  0.9886 -0.0222
  576MOL0     C75934   6.860   5.970   0.196 -0.3924  0.1335  0.3576
  576MOL0     O75935   6.725   5.928   0.188 -0.1046 -0.5261  0.6888
  576MOL0     C75936   6.621   6.030   0.213 -0.9633  0.6313  0.3996
  576MOL0     C75937   6.488   5.957   0.233 -1.1024  0.8325  0.3145
  576MOL0     C75938   6.396   6.062   0.297 -0.6163  0.6658  0.5028
  576MOL0     C75939   6.269   5.993   0.329 -0.5056 -0.5725 -0.4789
  576MOL0     C75940   6.178   6.100   0.398 -0.6124  0.8638  0.6402
  576MOL0     C75941   6.041   6.046   0.420  0.6751 -0.1079 -0.3743
  576MOL0     C75942   5.939   6.162   0.436  0.0880  0.2349 -1.2583
  576MOL0     C75943   5.935   6.255   0.558  0.1604 -0.4422 -0.0094
  576MOL0    Cl75944   5.782   6.364   0.543  0.1028  0.0952 -0.0868
  576MOL0     C75945   6.956   5.865   0.203  0.5141 -0.5881 -0.0342
  576MOL0     C75946   7.093   5.894   0.207 -1.3326  0.6724  0.1931
  576MOL0     O75947   7.321   5.992   0.022  0.3212 -0.1567 -0.7319
  576MOL0     C75948   7.536   6.060   0.303  0.1593 -1.0176 -0.8033
  576MOL0     C75949   7.671   6.073   0.336 -0.0731 -0.0971  0.6770
  576MOL0     N75950   8.250   6.136   0.824 -0.8963  0.3157  0.3654
  576MOL0     N75951   8.300   6.186   0.928  0.9203 -0.3745 -0.1010
  576MOL0     C75952   8.682   7.006   1.672  0.4409  0.2381 -1.0485
  576MOL0     C75953   8.787   7.110   1.669 -0.3439  0.1016  0.3854
  576MOL0     C75954   9.002   7.503   1.637  0.3837  0.3011 -0.2256
  576MOL0     C75955   9.134   7.459   1.679 -0.5072  0.6682 -1.0596
  576MOL0     C75956   9.249   7.531   1.634  0.3082  0.8327 -1.1700
  576MOL0     C75957   9.238   7.648   1.568 -1.3697  0.1379 -0.0892
  576MOL0     O75958   9.361   7.695   1.528  0.4388 -0.8608 -0.2764
  576MOL0     C75959   9.359   7.784   1.412 -0.7882 -0.1106 -0.5930
  576MOL0     C75960   9.499   7.799   1.366  0.0129 -0.1522 -0.3796
  576MOL0     C75961   9.541   7.672   1.308 -0.0383  0.4796 -0.3271
  576MOL0     C75962   9.682   7.688   1.243  0.9108  1.2159  0.1774
  576MOL0     C75963   9.742   7.560   1.192 -0.0941 -1.0433  0.4207
  576MOL0     C75964   9.800   7.466   1.143  0.2668 -0.1271  0.6536
  576MOL0     C75965   9.115   7.701   1.537  0.5607  0.1419  0.1514
  576MOL0     C75966   8.996   7.628   1.571 -0.2662  0.3284  0.4648
  576MOL0     H75967   8.638   7.356   1.847 -2.3944 -0.3061 -0.1235
  576MOL0     H75968   8.448   7.178   1.843  1.5890  1.6277  2.5515
  576MOL0     H75969   8.493   6.779   1.676  2.1225  3.1913  2.3205
  576MOL0     H75970   8.476   6.870   1.523 -0.0683 -2.8808  0.1608
  576MOL0     H75971   8.244   6.885   1.529  1.5661 -0.9127 -2.8368
  576MOL0     H75972   8.228   6.816   1.692 -1.2664 -0.8918 -0.9074
  576MOL0     H75973   8.174   6.652   1.510 -0.6285 -0.3860  0.5231
  576MOL0     H75974   8.298   6.603   1.614  1.1330  0.9103  0.5851
  576MOL0     H75975   8.364   6.741   1.349  4.9204 -0.8528 -1.6785
  576MOL0     H75976   8.479   6.662   1.445  0.1055 -1.1879  0.2266
  576MOL0     H75977   8.338   6.438   1.416  0.9683  2.5861  2.0982
  576MOL0     H75978   8.451   6.489   1.298 -0.2690 -0.8846  2.1329
  576MOL0     H75979   8.255   6.630   1.196 -0.2506  0.5077  0.7510
  576MOL0     H75980   8.162   6.521   1.295  0.2557 -0.1211 -0.3042
  576MOL0     H75981   8.167   6.460   1.046 -2.1455  0.4248  2.9145
  576MOL0     H75982   8.354   6.429   1.066 -0.0627  0.8805 -0.6307
  576MOL0     H75983   8.150   6.263   1.219  0.3870  1.8278 -0.5452
  576MOL0     H75984   8.323   6.257   1.202 -1.1417 -0.9710  1.3980
  576MOL0     H75985   7.988   6.176   1.005  0.7871  1.9973  0.2087
  576MOL0     H75986   7.940   6.032   0.740 -0.9760  0.5650  1.0289
  576MOL0     H75987   8.105   5.994   0.693 -1.3629 -0.4973 -0.0759
  576MOL0     H75988   8.115   6.228   0.589 -0.1895  0.3098 -1.7102
  576MOL0     H75989   7.941   6.239   0.637  0.1613  0.5527 -1.2893
  576MOL0     H75990   8.050   6.028   0.452 -1.1081 -0.3904 -1.0532
  576MOL0     H75991   7.896   6.016   0.521 -1.0759 -0.0333 -1.4276
  576MOL0     H75992   8.015   6.260   0.352 -2.3376  2.8493  0.9713
  576MOL0     H75993   7.849   6.259   0.389  1.0510  1.3209  0.7512
  576MOL0     H75994   7.807   6.070   0.022 -0.0692 -1.5177 -0.9948
  576MOL0     H75995   7.561   6.041  -0.033 -0.5192 -2.3260 -0.4523
  576MOL0     H75996   7.085   6.223   0.251  3.7867 -2.1602  0.9341
  576MOL0     H75997   6.829   6.187   0.211  0.0805  0.8820  1.2874
  576MOL0     H75998   6.618   6.103   0.131 -0.5086 -1.3747 -1.5151
  576MOL0     H75999   6.660   6.071   0.306  3.4923 -0.1603 -0.8859
  576MOL0     H76000   6.519   5.879   0.304  2.1837  0.1865 -1.6305
  576MOL0     H76001   6.454   5.916   0.138  2.5917  1.9454 -1.7145
  576MOL0     H76002   6.380   6.141   0.224  0.1187 -0.5476 -1.0156
  576MOL0     H76003   6.431   6.096   0.395 -2.2814 -0.7085  1.6472
  576MOL0     H76004   6.219   5.956   0.240 -1.0219 -2.0597  0.3946
  576MOL0     H76005   6.292   5.916   0.404  0.3176  2.0447  2.1830
  576MOL0     H76006   6.173   6.181   0.325 -0.6060 -0.5776 -1.0448
  576MOL0     H76007   6.216   6.140   0.492 -1.1638  1.5492  0.5825
  576MOL0     H76008   6.030   5.972   0.500 -0.1105  0.8521  0.4371
  576MOL0     H76009   6.011   5.988   0.332 -2.6324 -0.0006  0.5547
  576MOL0     H76010   5.933   6.228   0.349  1.2395 -0.3997 -1.8569
  576MOL0     H76011   5.842   6.111   0.439 -0.0609  0.5600 -0.0875
  576MOL0     H76012   6.023   6.320   0.553 -0.8608  1.2118  1.8701
  576MOL0     H76013   5.929   6.193   0.648 -3.5593 -0.9320 -0.4752
  576MOL0     H76014   6.923   5.762   0.208  0.8839 -0.6305  2.3128
  576MOL0     H76015   7.166   5.814   0.218  1.6184  3.3952  2.0907
  576MOL0     H76016   7.457   6.067   0.377 -0.2636 -1.6768 -1.1830
  576MOL0     H76017   7.711   6.079   0.436  2.4830 -3.3325  0.0390
  576MOL0     H76018   8.686   6.916   1.612 -1.4193  0.4743 -1.5945
  576MOL0     H76019   8.887   7.098   1.627 -0.9372  1.7734 -1.7059
  576MOL0     H76020   9.140   7.368   1.738 -0.1271  1.3215 -0.0581
  576MOL0     H76021   9.341   7.478   1.656 -1.5268 -1.6645  1.2454
  576MOL0     H76022   9.332   7.882   1.454  0.0886 -0.4262  0.7639
  576MOL0     H76023   9.293   7.750   1.332 -3.2618 -0.5673  1.5311
  576MOL0     H76024   9.516   7.882   1.297  0.2595  0.7185  0.7093
  576MOL0     H76025   9.559   7.816   1.456  0.6825 -1.6325 -0.5237
  576MOL0     H76026   9.474   7.641   1.228  2.4702 -3.6599 -1.1197
  576MOL0     H76027   9.538   7.586   1.375 -2.7142  1.1370  0.5042
  576MOL0     H76028   9.658   7.754   1.159  1.0395  1.4358  0.3114
  576MOL0     H76029   9.741   7.743   1.317 -2.7478  1.1722  3.4410
  576MOL0     H76030   9.859   7.392   1.093 -1.9855 -2.3761  1.1217
  576MOL0     H76031   9.111   7.796   1.486 -0.6119 -0.0752 -0.1782
  576MOL0     H76032   8.899   7.674   1.553  0.0860  1.7798  1.9846
  577MOL0     O76033   4.880   0.886   6.921 -0.3052  0.4769 -0.2060
  577MOL0     C76034   4.882   1.002   6.884 -0.1841 -0.1870 -0.7313
  577MOL0     O76035   4.774   1.086   6.888  0.1352 -0.7473 -0.4076
  577MOL0     C76036   4.658   1.028   6.931  0.2525  0.2527  0.1058
  577MOL0     C76037   4.589   1.079   7.042  0.1305 -0.8920 -0.0201
  577MOL0     C76038   4.464   1.022   7.078 -0.2063  0.1851  0.3042
  577MOL0     C76039   4.403   0.921   7.001 -0.2840 -0.3888  0.8332
  577MOL0     O76040   4.286   0.865   7.027  0.6685  0.0584  1.0581
  577MOL0     C76041   4.200   0.918   7.132 -0.5232 -0.4983  0.0657
  577MOL0     C76042   4.091   0.818   7.160 -1.5001 -0.0426  0.4586
  577MOL0     C76043   4.001   0.860   7.276  0.1250  0.1893  0.8458
  577MOL0     C76044   3.879   0.776   7.293  0.3517 -0.2168  0.2626
  577MOL0     C76045   3.832   0.769   7.437  0.1849  0.4630 -0.0383
  577MOL0     C76046   3.740   0.655   7.472 -0.0133 -0.6364 -0.1213
  577MOL0     C76047   3.600   0.682   7.428 -0.0366  0.5959  0.1559
  577MOL0     C76048   3.509   0.560   7.446  0.1967  0.3134  0.4213
  577MOL0     N76049   3.376   0.599   7.406  0.3000  0.6239 -0.2386
  577MOL0     C76050   3.300   0.709   7.440 -0.6189 -0.1863 -0.1732
  577MOL0     C76051   3.178   0.689   7.391  0.1940  0.0996  0.3513
  577MOL0     C76052   3.058   0.770   7.426 -0.1947 -0.1963 -0.9996
  577MOL0     C76053   3.032   0.886   7.325  0.4036 -0.2451 -1.0485
  577MOL0     C76054   2.912   0.966   7.371  0.5902  0.8943  0.3107
  577MOL0     C76055   2.888   1.100   7.293  0.2414  0.3269 -0.4646
  577MOL0     O76056   2.825   1.078   7.168 -0.4110  0.0352  0.0285
  577MOL0     C76057   2.771   1.185   7.098 -0.2050 -0.9306  0.4656
  577MOL0     C76058   2.635   1.197   7.080  0.3589  0.3111 -0.0562
  577MOL0     C76059   2.579   1.315   7.028 -0.6653 -0.5087  0.1134
  577MOL0     C76060   2.663   1.403   6.959  0.0404 -0.0104 -0.1392
  577MOL0     C76061   2.610   1.512   6.872  0.4810 -0.7731  0.0132
  577MOL0     O76062   2.489   1.494   6.819 -0.6439 -0.1367 -0.8975
  577MOL0     C76063   2.411   1.594   6.788  0.1615  0.5193 -0.1907
  577MOL0     C76064   2.306   1.645   6.877 -0.4121  0.6014  0.8144
  577MOL0     C76065   2.227   1.749   6.846 -0.5555 -0.1080  0.4163
  577MOL0     C76066   2.258   1.820   6.723  0.4580 -0.3495 -0.1138
  577MOL0     O76067   2.192   1.933   6.674 -0.2842  0.2036  0.1045
  577MOL0     C76068   2.120   2.010   6.771  0.3630  0.8111  0.1853
  577MOL0     C76069   2.058   2.148   6.719  0.3084 -0.3041 -0.0982
  577MOL0     C76070   1.972   2.125   6.597 -0.2623 -0.8327  1.1063
  577MOL0     C76071   2.016   2.229   6.494 -0.0038 -0.2707  0.4817
  577MOL0     C76072   1.957   2.230   6.357 -0.0843  0.0316  0.9525
  577MOL0     C76073   2.018   2.120   6.253  0.0349 -0.1700 -0.7477
  577MOL0     C76074   1.992   2.168   6.113  0.6159  0.3273  0.5317
  577MOL0     C76075   2.021   2.067   6.005  0.8117  0.1230  0.3475
  577MOL0    Cl76076   1.987   2.130   5.845  0.0254  0.1411  0.0360
  577MOL0     C76077   2.356   1.777   6.638  0.1356 -0.8618  0.2919
  577MOL0     C76078   2.430   1.665   6.667 -0.7391 -0.4032 -0.4475
  577MOL0     O76079   2.677   1.611   6.854 -0.6154 -0.6016  0.3120
  577MOL0     C76080   2.809   1.393   6.983  0.7452 -0.5413 -0.7099
  577MOL0     C76081   2.861   1.289   7.062 -0.5407  0.0871 -0.3612
  577MOL0     N76082   3.180   0.571   7.313 -0.1384 -0.3330 -0.1478
  577MOL0     N76083   3.304   0.519   7.320  0.8256 -0.2289  0.4616
  577MOL0     C76084   4.474   0.874   6.897 -0.5038 -0.8870  0.1229
  577MOL0     C76085   4.601   0.922   6.861  0.1350 -0.2731  0.1326
  577MOL0     C76086   5.017   1.055   6.849  0.5335  0.5456  0.1339
  577MOL0     C76087   5.138   0.977   6.855 -0.7919  0.0914 -0.0590
  577MOL0     C76088   5.258   1.029   6.799 -0.2263  0.0502  0.6938
  577MOL0     C76089   5.255   1.155   6.743 -0.0637 -0.7791  0.4209
  577MOL0     O76090   5.375   1.227   6.711 -0.7937  0.3424  0.7656
  577MOL0     C76091   5.505   1.174   6.757 -0.4862 -0.2019 -0.2805
  577MOL0     C76092   5.617   1.231   6.673  0.3405 -0.0108 -0.2834
  577MOL0     C76093   5.757   1.175   6.695  0.4835 -0.0634 -0.0605
  577MOL0     C76094   5.858   1.217   6.586  0.3770 -0.8009  0.2403
  577MOL0     C76095   5.987   1.158   6.627 -1.4330 -0.1926  0.2045
  577MOL0     C76096   6.103   1.125   6.661  0.0261 -0.4557 -0.1229
  577MOL0     C76097   5.144   1.224   6.732 -0.3430 -0.2430 -0.3934
  577MOL0     C76098   5.024   1.182   6.785  0.4742  0.1130 -0.3831
  577MOL0     H76099   4.626   1.176   7.076  1.1660 -0.3315 -2.5304
  577MOL0     H76100   4.407   1.070   7.156  0.1890 -0.7062  1.1574
  577MOL0     H76101   4.153   1.011   7.099 -0.7338 -0.6034  0.0604
  577MOL0     H76102   4.262   0.919   7.221  0.5287  0.7492 -0.6477
  577MOL0     H76103   4.136   0.721   7.183 -1.5082 -0.5971 -1.6920
  577MOL0     H76104   4.039   0.802   7.066 -1.8502 -0.3472  0.6984
  577MOL0     H76105   3.969   0.964   7.261  1.3012  0.2177 -2.3583
  577MOL0     H76106   4.058   0.860   7.369  0.0474 -0.0003  0.8932
  577MOL0     H76107   3.802   0.816   7.226  2.5949  2.7236 -0.8193
  577MOL0     H76108   3.910   0.678   7.255 -0.1324  0.1228 -1.0958
  577MOL0     H76109   3.785   0.862   7.470  0.9515  1.3178 -1.2325
  577MOL0     H76110   3.922   0.752   7.498  1.0510 -1.2950 -1.6726
  577MOL0     H76111   3.740   0.643   7.580  2.3526 -1.3496 -0.1325
  577MOL0     H76112   3.780   0.561   7.432  0.0730 -0.1534 -1.2220
  577MOL0     H76113   3.570   0.773   7.482  1.5271 -0.5622  3.1888
  577MOL0     H76114   3.593   0.718   7.325 -1.1639  0.9019  0.3232
  577MOL0     H76115   3.515   0.526   7.550 -0.2472  0.4364  0.4894
  577MOL0     H76116   3.544   0.469   7.397  0.6108  0.8203 -0.2247
  577MOL0     H76117   3.335   0.795   7.497 -1.8381 -1.0965  2.0853
  577MOL0     H76118   3.052   0.802   7.531  0.9566  1.9879 -1.5644
  577MOL0     H76119   2.976   0.702   7.399  2.0498 -4.0511  0.9712
  577MOL0     H76120   3.012   0.847   7.225 -1.4269 -3.5074  0.4258
  577MOL0     H76121   3.118   0.953   7.316 -0.7541  1.1827 -1.8656
  577MOL0     H76122   2.815   0.916   7.381  1.6960 -1.5609 -0.6264
  577MOL0     H76123   2.956   1.001   7.465  1.5111 -1.7978  0.9743
  577MOL0     H76124   2.984   1.151   7.285  0.9993 -0.8197  0.9530
  577MOL0     H76125   2.819   1.166   7.346 -0.3000  0.9648 -1.9042
  577MOL0     H76126   2.574   1.118   7.121  1.0161 -1.5194 -2.3761
  577MOL0     H76127   2.471   1.320   7.028 -0.6792 -0.5097 -0.9025
  577MOL0     H76128   2.300   1.596   6.973 -1.8308 -1.3786 -0.2240
  577MOL0     H76129   2.149   1.776   6.916 -1.0714 -1.0862  0.2293
  577MOL0     H76130   2.172   2.035   6.864 -1.1015  0.7105  1.0544
  577MOL0     H76131   2.035   1.945   6.791  0.2050  1.2983  1.1583
  577MOL0     H76132   2.144   2.209   6.690  1.1826 -1.4704 -0.0495
  577MOL0     H76133   2.010   2.192   6.807  1.8250  0.7748  0.2243
  577MOL0     H76134   1.865   2.120   6.614 -0.6568 -0.7106 -1.0479
  577MOL0     H76135   1.998   2.030   6.549 -1.1256 -0.2362 -0.6402
  577MOL0     H76136   2.000   2.327   6.540 -2.0019  0.5930 -1.8505
  577MOL0     H76137   2.124   2.224   6.484  0.2356  2.0647  1.2716
  577MOL0     H76138   1.975   2.332   6.321  0.1301  0.7750  2.9940
  577MOL0     H76139   1.851   2.208   6.347  0.0719  0.5392 -3.9213
  577MOL0     H76140   1.965   2.029   6.282  1.1515 -0.0232  2.0180
  577MOL0     H76141   2.123   2.095   6.270  0.0234 -0.5775 -1.2446
  577MOL0     H76142   1.886   2.188   6.091  0.9659  2.1834  0.3808
  577MOL0     H76143   2.043   2.264   6.102 -1.0270  1.1291 -0.5464
  577MOL0     H76144   1.973   1.971   6.024 -0.8767  0.6502 -0.9652
  577MOL0     H76145   2.128   2.044   6.010  1.3375  1.9553 -1.2409
  577MOL0     H76146   2.390   1.840   6.557 -0.3186  0.7381  1.2912
  577MOL0     H76147   2.509   1.645   6.596 -1.9559 -3.0800 -1.1913
  577MOL0     H76148   2.878   1.465   6.940  0.6149  0.4671  0.7081
  577MOL0     H76149   2.967   1.268   7.078 -0.5238  0.7619  0.4818
  577MOL0     H76150   4.432   0.800   6.829  0.5341  2.8977 -5.2659
  577MOL0     H76151   4.651   0.898   6.767  1.0283 -1.3856  0.8696
  577MOL0     H76152   5.130   0.877   6.897  2.5215  0.3914  1.6174
  577MOL0     H76153   5.346   0.966   6.800  0.0311 -0.1554 -4.6426
  577MOL0     H76154   5.510   1.066   6.747  1.3323 -0.0185 -2.2069
  577MOL0     H76155   5.528   1.200   6.861 -2.0921  0.4964 -0.0706
  577MOL0     H76156   5.601   1.219   6.566 -1.3629  1.4400 -0.2408
  577MOL0     H76157   5.610   1.336   6.706 -1.4582 -0.1450 -0.1129
  577MOL0     H76158   5.773   1.070   6.721  5.9052  0.5990  0.4602
  577MOL0     H76159   5.797   1.232   6.780 -0.2013  1.4580 -0.7273
  577MOL0     H76160   5.821   1.179   6.490 -2.3950  1.5461  0.2326
  577MOL0     H76161   5.853   1.327   6.582 -0.8425 -0.8566 -0.2108
  577MOL0     H76162   6.196   1.097   6.708 -0.5118  1.7422  2.4740
  577MOL0     H76163   5.134   1.318   6.677  2.0070 -0.1920 -0.8230
  577MOL0     H76164   4.931   1.235   6.766 -0.5579 -1.4930 -0.0090
  578MOL0     O76165   9.941   9.032   0.477 -0.2949 -0.1130 -0.1938
  578MOL0     C76166   9.942   9.095   0.586 -0.3389 -0.4102 -0.3528
  578MOL0     O76167   9.872   9.068   0.695  0.6195  0.0835 -0.7683
  578MOL0     C76168   9.803   8.949   0.703  1.2640 -0.1511 -0.1171
  578MOL0     C76169   9.855   8.830   0.662  0.6871  0.1336 -0.2254
  578MOL0     C76170   9.769   8.715   0.667 -1.2713  0.3438 -0.3815
  578MOL0     C76171   9.636   8.716   0.718  0.0524 -0.4650  0.8668
  578MOL0     O76172   9.545   8.601   0.707 -0.0127 -0.3111  0.4726
  578MOL0     C76173   9.479   8.566   0.834  0.2172  0.8512  0.5020
  578MOL0     C76174   9.327   8.542   0.812  0.3977  0.9738 -0.8443
  578MOL0     C76175   9.255   8.672   0.762  0.0778  0.8468 -0.4196
  578MOL0     C76176   9.099   8.657   0.738 -0.1813 -0.2381 -0.7659
  578MOL0     C76177   9.024   8.793   0.734  0.6645 -0.4271  0.0774
  578MOL0     C76178   8.879   8.779   0.662  0.1371 -0.1015 -0.5054
  578MOL0     C76179   8.760   8.752   0.758 -0.7479  0.0165  0.2972
  578MOL0     C76180   8.665   8.862   0.777 -0.3526 -0.3835 -0.1929
  578MOL0     N76181   8.585   8.820   0.889  0.7531  0.1383 -0.1227
  578MOL0     C76182   8.457   8.760   0.887 -0.1059  0.1042 -0.5182
  578MOL0     C76183   8.432   8.744   1.020 -1.0024 -0.2509  0.3676
  578MOL0     C76184   8.314   8.665   1.066  0.4090  0.1909  0.2286
  578MOL0     C76185   8.294   8.524   0.990 -1.0206  0.4252  0.4047
  578MOL0     C76186   8.397   8.414   1.041 -0.1530  0.0300 -0.1329
  578MOL0     C76187   8.535   8.417   0.962  0.1064  0.8644 -0.0909
  578MOL0     O76188   8.529   8.414   0.815  0.4182  0.0207 -0.8561
  578MOL0     C76189   8.649   8.404   0.750  0.4110 -0.0345 -0.5053
  578MOL0     C76190   8.635   8.419   0.612 -0.1133 -0.7960  1.1218
  578MOL0     C76191   8.743   8.411   0.524  0.3000  0.4092  1.1802
  578MOL0     C76192   8.873   8.392   0.578  0.2994  0.3395  0.7195
  578MOL0     C76193   8.989   8.375   0.491  0.6538  0.2699 -1.0949
  578MOL0     O76194   9.100   8.310   0.542  0.4065 -0.0990 -0.5085
  578MOL0     C76195   9.206   8.291   0.460  0.1544 -0.2675  0.0241
  578MOL0     C76196   9.313   8.388   0.454  0.3449  0.8826  0.7948
  578MOL0     C76197   9.409   8.368   0.355 -0.4493 -0.5915 -0.7271
  578MOL0     C76198   9.413   8.251   0.272 -0.2425 -0.1469 -0.9385
  578MOL0     O76199   9.518   8.233   0.183  0.1767  0.6538  0.5962
  578MOL0     C76200   9.542   8.098   0.126 -0.3337  0.3016 -0.5192
  578MOL0     C76201   9.650   8.087   0.027  0.0846 -0.6993 -0.1351
  578MOL0     C76202   9.776   8.171   0.060 -0.4474 -0.2635 -0.0975
  578MOL0     C76203   9.876   8.188  -0.063 -0.4861 -0.3974 -0.0185
  578MOL0     C76204   9.924   8.054  -0.132 -0.2835 -0.6561  0.9160
  578MOL0     C76205  10.000   7.980  -0.019 -0.0201 -0.1311  0.3103
  578MOL0     C76206  10.076   7.857  -0.071  0.6827 -0.1902  1.0020
  578MOL0     C76207  10.090   7.769   0.048 -0.3568  1.0043 -0.6145
  578MOL0    Cl76208  10.206   7.633  -0.002  0.0569 -0.2151 -0.6789
  578MOL0     C76209   9.318   8.147   0.301 -0.7072  0.2802  0.1576
  578MOL0     C76210   9.212   8.167   0.388 -0.5173 -0.0450  0.3982
  578MOL0     O76211   8.980   8.415   0.380 -0.3922  0.1822 -0.1617
  578MOL0     C76212   8.882   8.373   0.719 -0.0017 -0.7852 -0.2616
  578MOL0     C76213   8.774   8.378   0.803 -0.3322 -0.9265  0.8846
  578MOL0     N76214   8.543   8.794   1.095  0.4476 -0.2907 -0.1124
  578MOL0     N76215   8.624   8.855   1.016  0.3899  0.5269  0.6427
  578MOL0     C76216   9.587   8.846   0.747  0.5426  0.0276 -0.1069
  578MOL0     C76217   9.676   8.958   0.751  0.3200  0.9160  0.1534
  578MOL0     C76218  10.022   9.224   0.582  0.0188 -0.3017  0.2069
  578MOL0     C76219  10.013   9.313   0.690  0.7463 -0.7234  0.3932
  578MOL0     C76220  10.080   9.428   0.694  0.0531 -0.2754 -0.5671
  578MOL0     C76221  10.174   9.465   0.603  0.4648  0.4381  0.1761
  578MOL0     O76222  10.248   9.586   0.612 -0.4778 -0.2214 -0.4161
  578MOL0     C76223  10.388   9.583   0.581 -0.1725  0.9528 -0.5329
  578MOL0     C76224  10.464   9.681   0.664 -0.2742 -0.7436  0.3326
  578MOL0     C76225  10.549   9.618   0.775 -0.0936  0.4375 -0.3353
  578MOL0     C76226  10.619   9.724   0.847  0.2724  0.2069  0.2579
  578MOL0     C76227  10.693   9.674   0.960 -0.5990  0.7206  0.1015
  578MOL0     C76228  10.764   9.625   1.049  0.8450  0.1519 -0.5427
  578MOL0     C76229  10.201   9.372   0.497  0.6473  0.7981  0.1690
  578MOL0     C76230  10.126   9.249   0.486 -0.5049 -1.2006  0.0723
  578MOL0     H76231   9.957   8.823   0.625 -0.1153 -4.9528 -2.3772
  578MOL0     H76232   9.802   8.616   0.639 -1.4234 -0.3702  1.7939
  578MOL0     H76233   9.473   8.646   0.908 -2.5059  2.2963 -1.0949
  578MOL0     H76234   9.509   8.466   0.866 -3.3951 -0.0768  1.4442
  578MOL0     H76235   9.281   8.526   0.910  1.4827  4.6054  0.4517
  578MOL0     H76236   9.306   8.456   0.749  2.9299  0.5092 -1.1535
  578MOL0     H76237   9.294   8.708   0.666  3.7653  0.3956  0.7519
  578MOL0     H76238   9.288   8.753   0.826 -1.2755 -0.1968  1.7120
  578MOL0     H76239   9.094   8.591   0.651  3.6518 -0.9972 -0.5837
  578MOL0     H76240   9.054   8.607   0.824  1.8928  0.0861  0.5711
  578MOL0     H76241   9.078   8.859   0.665  1.2112 -2.1869 -1.2308
  578MOL0     H76242   9.033   8.843   0.832 -0.3423 -1.5106  0.7504
  578MOL0     H76243   8.884   8.702   0.584  3.4880 -0.5367 -0.0127
  578MOL0     H76244   8.851   8.871   0.611  0.2903 -0.3370 -1.0241
  578MOL0     H76245   8.707   8.663   0.724 -1.7982  0.5884  0.4080
  578MOL0     H76246   8.811   8.726   0.851 -0.8408  2.3094  1.0581
  578MOL0     H76247   8.596   8.870   0.692 -1.2952  1.6293  0.6992
  578MOL0     H76248   8.714   8.959   0.786  2.6904 -1.9191  0.9401
  578MOL0     H76249   8.402   8.722   0.801  2.6327 -2.0684 -1.4415
  578MOL0     H76250   8.221   8.715   1.038 -0.1346 -1.5218 -1.2318
  578MOL0     H76251   8.322   8.654   1.175 -0.6232  2.0474  0.5339
  578MOL0     H76252   8.301   8.534   0.881 -2.8807  1.5586  0.3492
  578MOL0     H76253   8.190   8.494   1.002 -0.6791 -0.9401  0.0527
  578MOL0     H76254   8.407   8.429   1.149  2.4567  0.1718 -0.3340
  578MOL0     H76255   8.348   8.319   1.017  0.1377  0.6785 -3.9143
  578MOL0     H76256   8.583   8.325   0.997 -2.1395 -0.4765 -0.3626
  578MOL0     H76257   8.582   8.511   0.993  0.3066  1.5053 -2.1824
  578MOL0     H76258   8.536   8.435   0.571  0.2560 -2.1607 -0.3841
  578MOL0     H76259   8.729   8.413   0.417  1.0001  0.5656  1.0870
  578MOL0     H76260   9.280   8.485   0.490  0.1792  1.0366  0.2437
  578MOL0     H76261   9.479   8.447   0.332 -1.5650  0.1154 -1.8006
  578MOL0     H76262   9.453   8.050   0.084 -0.7195 -2.1179  2.6552
  578MOL0     H76263   9.573   8.030   0.206 -0.9169 -0.7244 -1.1411
  578MOL0     H76264   9.605   8.119  -0.068  1.3841  1.5179 -0.0752
  578MOL0     H76265   9.677   7.983   0.005 -0.6410 -0.7643 -0.7541
  578MOL0     H76266   9.838   8.128   0.139 -0.4672  4.2506  2.6715
  578MOL0     H76267   9.738   8.267   0.095  1.0085  0.1839  0.3082
  578MOL0     H76268   9.817   8.255  -0.126  0.6606  1.4126  0.7643
  578MOL0     H76269   9.962   8.247  -0.032 -2.1337  1.2726  1.6172
  578MOL0     H76270   9.984   8.082  -0.219 -1.3635  3.0830  1.1934
  578MOL0     H76271   9.847   7.983  -0.163 -3.0198  0.8316  3.7747
  578MOL0     H76272   9.916   7.942   0.041 -1.0855 -0.1190 -1.1064
  578MOL0     H76273  10.068   8.048   0.033  0.0154  0.0331  0.0525
  578MOL0     H76274  10.014   7.803  -0.144  2.1559  1.1242 -1.3796
  578MOL0     H76275  10.169   7.888  -0.119 -0.6234  2.3193 -0.0977
  578MOL0     H76276   9.990   7.736   0.080 -0.0003 -1.2875 -1.6441
  578MOL0     H76277  10.138   7.832   0.123  2.2193  0.8348 -2.0111
  578MOL0     H76278   9.320   8.051   0.251 -1.6687  0.1938  0.2657
  578MOL0     H76279   9.134   8.093   0.406  0.6955 -1.8501 -1.3594
  578MOL0     H76280   8.981   8.375   0.762 -0.8739 -2.5117  2.0714
  578MOL0     H76281   8.784   8.355   0.908  0.7684 -2.4110  0.4816
  578MOL0     H76282   9.482   8.853   0.773  1.2021  0.4726  2.8485
  578MOL0     H76283   9.642   9.051   0.796  2.1235  1.1708  1.1113
  578MOL0     H76284   9.936   9.296   0.765 -0.1031  0.1424 -0.2532
  578MOL0     H76285  10.055   9.489   0.781 -3.9563 -1.3947 -0.7412
  578MOL0     H76286  10.389   9.607   0.474 -0.9637 -2.8993 -1.5748
  578MOL0     H76287  10.445   9.491   0.601 -0.2111  1.2325  0.9656
  578MOL0     H76288  10.534   9.737   0.601 -1.4290 -0.9143 -1.1528
  578MOL0     H76289  10.389   9.755   0.690 -0.1316  1.3591 -4.2484
  578MOL0     H76290  10.623   9.549   0.733  0.1641  0.8927 -0.6326
  578MOL0     H76291  10.475   9.569   0.840  1.5189 -1.5040  0.1436
  578MOL0     H76292  10.686   9.781   0.781 -0.5079  0.5277 -0.2777
  578MOL0     H76293  10.540   9.791   0.883  1.0696  1.2239  0.1472
  578MOL0     H76294  10.809   9.575   1.132  0.2015 -1.0527 -0.8899
  578MOL0     H76295  10.268   9.400   0.416  1.2209 -2.1535 -0.5100
  578MOL0     H76296  10.150   9.178   0.408  2.0196 -1.0655  0.6600
  579MOL0     O76297   0.503   4.597   3.074  0.4352  0.5982 -0.4453
  579MOL0     C76298   0.426   4.541   3.156  0.2725 -0.4354 -0.1144
  579MOL0     O76299   0.453   4.486   3.281 -0.0280 -0.5176  0.0637
  579MOL0     C76300   0.580   4.509   3.335 -0.1088  0.3789 -0.0530
  579MOL0     C76301   0.621   4.622   3.398 -1.1545 -0.7415 -0.2824
  579MOL0     C76302   0.753   4.646   3.441  0.9889 -1.1689  0.3112
  579MOL0     C76303   0.853   4.555   3.404 -0.1988  0.4801 -0.0695
  579MOL0     O76304   0.981   4.573   3.447  0.9066 -0.0277 -0.2011
  579MOL0     C76305   1.015   4.565   3.589  0.9461 -0.7444  0.5513
  579MOL0     C76306   1.124   4.670   3.632 -0.4263 -0.5754  0.1048
  579MOL0     C76307   1.240   4.682   3.524 -0.4020  0.0373  0.0057
  579MOL0     C76308   1.328   4.804   3.554 -0.3556 -0.3756 -0.9528
  579MOL0     C76309   1.453   4.830   3.469  0.4900  0.1802  0.1619
  579MOL0     C76310   1.438   4.828   3.316  0.2469  0.4496 -0.2086
  579MOL0     C76311   1.325   4.919   3.264 -0.2614 -0.2186 -0.3127
  579MOL0     C76312   1.357   4.916   3.109  0.0224 -0.1182 -0.0157
  579MOL0     N76313   1.256   4.994   3.044  1.4039 -0.3880 -0.2131
  579MOL0     C76314   1.139   4.951   2.983  0.8129  0.2495 -1.0418
  579MOL0     C76315   1.087   5.054   2.922  0.4481  0.6843  0.7556
  579MOL0     C76316   0.964   5.046   2.834 -0.4294  0.4192  0.2261
  579MOL0     C76317   0.933   5.175   2.747 -0.2466 -1.2496  0.1629
  579MOL0     C76318   0.832   5.150   2.626 -0.2679 -0.2494 -0.5578
  579MOL0     C76319   0.892   5.151   2.491  0.3645  0.2247  0.2498
  579MOL0     O76320   0.805   5.084   2.398  0.8549  0.3540  0.0733
  579MOL0     C76321   0.683   5.135   2.362 -0.4242 -0.0329  0.4790
  579MOL0     C76322   0.592   5.041   2.317  0.3530  0.0229  0.9040
  579MOL0     C76323   0.458   5.079   2.280  1.1309  0.2711 -0.1877
  579MOL0     C76324   0.413   5.210   2.281 -0.9595  1.1460  0.2395
  579MOL0     C76325   0.272   5.251   2.251  0.0428  0.0234  0.7313
  579MOL0     O76326   0.183   5.147   2.286 -0.0777 -0.2680  0.2841
  579MOL0     C76327   0.057   5.183   2.250 -0.3504 -0.9123 -0.2115
  579MOL0     C76328  -0.026   5.245   2.338 -0.8564  0.3932  0.3777
  579MOL0     C76329  -0.161   5.265   2.317 -0.1218 -0.3782  1.0015
  579MOL0     C76330  -0.228   5.228   2.200 -0.1133 -0.4271 -0.3582
  579MOL0     O76331  -0.365   5.240   2.187 -0.3377  0.1091  0.7372
  579MOL0     C76332  -0.446   5.268   2.307 -0.3474  0.0563 -0.4136
  579MOL0     C76333  -0.590   5.288   2.258 -0.1993  0.3027 -0.3193
  579MOL0     C76334  -0.690   5.295   2.368  0.7695 -0.2932  0.4243
  579MOL0     C76335  -0.832   5.294   2.314 -1.0159  0.2900  0.6184
  579MOL0     C76336  -0.913   5.344   2.428  0.1378  0.3550 -0.1443
  579MOL0     C76337  -1.051   5.290   2.398  0.3489  0.3255  0.4062
  579MOL0     C76338  -1.140   5.347   2.511 -0.5874  0.3554 -0.1902
  579MOL0     C76339  -1.276   5.281   2.524  0.5132 -0.1585  0.5078
  579MOL0    Cl76340  -1.355   5.309   2.685  0.2687  0.1487 -0.5123
  579MOL0     C76341  -0.145   5.162   2.105  0.4659 -0.8957  0.0215
  579MOL0     C76342  -0.006   5.145   2.130 -0.4535 -0.0150 -0.0608
  579MOL0     O76343   0.251   5.359   2.202 -0.3778  0.2955 -0.2356
  579MOL0     C76344   0.508   5.303   2.333 -0.6454  0.0942  0.0391
  579MOL0     C76345   0.643   5.267   2.371  0.3661  0.0678  0.3103
  579MOL0     N76346   1.163   5.164   2.952  0.2450  0.1305 -0.3750
  579MOL0     N76347   1.265   5.128   3.021  0.8191  0.2801  0.7545
  579MOL0     C76348   0.822   4.439   3.327  0.2760  0.2122 -0.5224
  579MOL0     C76349   0.685   4.421   3.298  0.9737 -0.2699  0.7405
  579MOL0     C76350   0.276   4.540   3.138 -0.3976 -1.7476 -0.5477
  579MOL0     C76351   0.178   4.519   3.237 -0.3138 -0.2393  0.1850
  579MOL0     C76352   0.045   4.532   3.207  0.6465 -0.4307  1.0494
  579MOL0     C76353   0.003   4.561   3.084 -0.3518 -0.6367  0.2363
  579MOL0     O76354  -0.132   4.558   3.066 -0.3714 -0.1567 -0.3452
  579MOL0     C76355  -0.178   4.609   2.934 -0.0129  0.1439 -0.6308
  579MOL0     C76356  -0.323   4.642   2.967  0.5428  0.4615 -0.2097
  579MOL0     C76357  -0.395   4.693   2.839  0.2145 -0.8707 -0.0265
  579MOL0     C76358  -0.547   4.703   2.830  0.6357 -0.9991 -0.0914
  579MOL0     C76359  -0.607   4.788   2.935  0.1129  0.0228  0.8767
  579MOL0     C76360  -0.679   4.853   3.004 -0.1742 -0.5644 -0.2966
  579MOL0     C76361   0.098   4.600   2.987  0.8277  0.8399 -0.8313
  579MOL0     C76362   0.235   4.591   3.011 -0.0156 -0.4785 -0.1368
  579MOL0     H76363   0.554   4.698   3.436  0.7003  1.9333 -2.0056
  579MOL0     H76364   0.766   4.729   3.510 -0.8274 -1.5319  1.1721
  579MOL0     H76365   1.064   4.471   3.615  0.9614 -0.8706  0.0721
  579MOL0     H76366   0.928   4.576   3.654  1.1514 -1.6303  0.9777
  579MOL0     H76367   1.175   4.633   3.722  3.2865  0.7537 -1.2816
  579MOL0     H76368   1.089   4.772   3.647  0.0890 -0.2609 -0.7725
  579MOL0     H76369   1.189   4.702   3.429 -1.1757  0.2787  0.4574
  579MOL0     H76370   1.305   4.595   3.511  0.5292  1.0022 -2.5791
  579MOL0     H76371   1.271   4.897   3.549  0.7772  0.4813  0.7977
  579MOL0     H76372   1.360   4.792   3.658  0.7563  0.2415 -1.2031
  579MOL0     H76373   1.513   4.740   3.486 -0.6261 -0.0491  3.7472
  579MOL0     H76374   1.495   4.926   3.498  0.0315  0.2672  0.5553
  579MOL0     H76375   1.429   4.728   3.273 -0.3590  1.1340 -1.7875
  579MOL0     H76376   1.536   4.867   3.286  0.1428 -0.4647 -1.8478
  579MOL0     H76377   1.234   4.862   3.286  1.6596 -3.7061 -0.5961
  579MOL0     H76378   1.325   5.024   3.293  1.9347  0.5278 -2.6865
  579MOL0     H76379   1.370   4.816   3.068  0.3805 -1.3168  2.7994
  579MOL0     H76380   1.450   4.974   3.097 -1.2108  1.7379 -1.2006
  579MOL0     H76381   1.095   4.851   2.985 -0.2246  0.6917 -0.8960
  579MOL0     H76382   0.880   5.038   2.903 -0.6134 -1.6679 -0.1837
  579MOL0     H76383   0.970   4.960   2.766  2.2871  0.7901 -0.1179
  579MOL0     H76384   1.023   5.230   2.716 -1.1807  0.0165 -0.3849
  579MOL0     H76385   0.877   5.238   2.816 -2.3989 -2.7462 -0.1362
  579MOL0     H76386   0.764   5.065   2.637  1.7488 -1.8376  0.3133
  579MOL0     H76387   0.771   5.240   2.621  0.7164  0.6097  1.8021
  579MOL0     H76388   0.986   5.095   2.498  1.1512  1.3555 -0.8303
  579MOL0     H76389   0.916   5.252   2.456  2.5468 -0.0471  0.7885
  579MOL0     H76390   0.637   4.945   2.296  0.3836  0.4795 -1.4732
  579MOL0     H76391   0.397   4.998   2.243  3.9016 -3.2354  2.2139
  579MOL0     H76392   0.016   5.262   2.437  1.4309 -2.7239  0.0844
  579MOL0     H76393  -0.205   5.311   2.405  0.3969  0.5477  0.7879
  579MOL0     H76394  -0.403   5.348   2.368  0.7998 -1.1671  0.4415
  579MOL0     H76395  -0.447   5.177   2.368  0.3519  0.6969  0.5740
  579MOL0     H76396  -0.608   5.207   2.186 -0.7061  0.6439 -0.5784
  579MOL0     H76397  -0.588   5.380   2.200  0.6191  2.2913  2.6487
  579MOL0     H76398  -0.669   5.388   2.420  0.7430 -0.5245  0.8553
  579MOL0     H76399  -0.679   5.212   2.438 -0.2345  0.0665  1.0209
  579MOL0     H76400  -0.849   5.349   2.221 -0.5010 -2.9021 -1.5458
  579MOL0     H76401  -0.846   5.189   2.284  1.1717  1.0621 -3.9200
  579MOL0     H76402  -0.922   5.452   2.411 -0.2912  0.1392 -1.3507
  579MOL0     H76403  -0.879   5.326   2.531 -3.0208  2.7345  1.5206
  579MOL0     H76404  -1.044   5.181   2.393  1.2844  0.4290 -2.7827
  579MOL0     H76405  -1.097   5.327   2.306  0.2976  2.1210  1.1045
  579MOL0     H76406  -1.085   5.334   2.604 -3.5176 -2.5178  1.3560
  579MOL0     H76407  -1.152   5.455   2.505 -2.0515  0.3615  2.0116
  579MOL0     H76408  -1.287   5.172   2.516  0.5857 -0.1732  0.6103
  579MOL0     H76409  -1.339   5.323   2.445  2.1392 -1.1962 -1.4267
  579MOL0     H76410  -0.197   5.119   2.020 -2.2295  0.6139  0.7978
  579MOL0     H76411   0.056   5.093   2.057 -2.0936  0.6761 -2.0143
  579MOL0     H76412   0.484   5.407   2.354 -0.7816  0.4656 -1.7745
  579MOL0     H76413   0.715   5.344   2.399 -0.6169  0.3980  2.1432
  579MOL0     H76414   0.899   4.375   3.287  1.2133  0.1914  1.2161
  579MOL0     H76415   0.651   4.334   3.242  1.1469  0.5911 -0.7636
  579MOL0     H76416   0.201   4.503   3.342  1.5094 -0.9628 -0.2839
  579MOL0     H76417  -0.027   4.505   3.283 -1.7323 -0.8282 -1.2146
  579MOL0     H76418  -0.170   4.533   2.856  0.6799 -3.0917  2.3202
  579MOL0     H76419  -0.134   4.700   2.893  0.9126  1.2239  2.4738
  579MOL0     H76420  -0.369   4.548   2.996 -2.6222  1.1631 -2.4532
  579MOL0     H76421  -0.324   4.713   3.051 -2.3103 -0.5434  0.7108
  579MOL0     H76422  -0.353   4.631   2.759  1.9617 -0.1609  0.2888
  579MOL0     H76423  -0.360   4.795   2.820 -2.9002  0.3446  0.2378
  579MOL0     H76424  -0.564   4.737   2.727  2.0557  1.1542  0.3101
  579MOL0     H76425  -0.581   4.599   2.833 -3.4117 -0.0686 -3.7250
  579MOL0     H76426  -0.741   4.902   3.077  1.0348 -3.1030  2.6643
  579MOL0     H76427   0.073   4.624   2.884  2.5977  1.4471 -1.1451
  579MOL0     H76428   0.306   4.625   2.937 -1.2188  0.7853 -0.7499
  580MOL0     O76429   3.033   4.421  10.970  0.3329  0.4715  0.3966
  580MOL0     C76430   3.143   4.468  10.928 -0.8632 -0.1247 -0.0754
  580MOL0     O76431   3.199   4.456  10.802  0.7962  0.2948  0.3935
  580MOL0     C76432   3.134   4.403  10.690 -0.3642 -0.0216 -0.2123
  580MOL0     C76433   3.005   4.354  10.680  0.2956 -0.3836 -0.1076
  580MOL0     C76434   2.960   4.280  10.564  0.3734 -0.8046  0.2239
  580MOL0     C76435   3.037   4.283  10.439  0.8821  0.2458  0.8941
  580MOL0     O76436   2.999   4.223  10.322  1.2704  0.5787  0.3709
  580MOL0     C76437   3.090   4.149  10.240  0.0870  0.1863 -0.2362
  580MOL0     C76438   3.135   4.011  10.286 -1.4407 -0.0600 -0.8296
  580MOL0     C76439   3.029   3.898  10.295 -0.3799  1.2375 -0.2429
  580MOL0     C76440   2.933   3.903  10.417  0.1110 -0.9051  0.4361
  580MOL0     C76441   2.799   3.934  10.366 -0.3460 -0.4533  0.0045
  580MOL0     C76442   2.704   3.927  10.489 -0.3903  0.3227  0.2931
  580MOL0     C76443   2.669   3.786  10.528  0.4958  0.4522  0.6820
  580MOL0     C76444   2.555   3.777  10.634 -0.5736  0.0448 -1.0098
  580MOL0     N76445   2.526   3.639  10.658  0.4427  0.3011 -0.1784
  580MOL0     C76446   2.405   3.586  10.682  0.2198  0.6552 -0.3283
  580MOL0     C76447   2.418   3.454  10.665  1.1467  0.9191  1.0176
  580MOL0     C76448   2.319   3.341  10.685 -0.7834 -0.9880  1.0254
  580MOL0     C76449   2.314   3.266  10.551  0.0472  0.1154 -0.0895
  580MOL0     C76450   2.275   3.109  10.560 -0.5126 -0.0789 -0.3149
  580MOL0     C76451   2.164   3.077  10.662 -0.8787  0.4537  0.2937
  580MOL0     O76452   2.041   3.126  10.610 -0.1283  0.3681 -0.7793
  580MOL0     C76453   1.926   3.110  10.686 -0.7032  0.2300  0.3309
  580MOL0     C76454   1.907   3.037  10.806 -0.1319  0.0294 -0.0937
  580MOL0     C76455   1.790   3.017  10.872  0.0265  0.8775  0.4544
  580MOL0     C76456   1.670   3.064  10.808 -0.9538  0.3381  0.3191
  580MOL0     C76457   1.540   3.023  10.875  1.0953 -0.5605  0.4258
  580MOL0     O76458   1.428   3.032  10.790 -0.4945  0.0704 -0.5675
  580MOL0     C76459   1.308   3.009  10.851 -0.1149  0.0710 -0.4159
  580MOL0     C76460   1.265   2.884  10.898 -1.0974  0.7295  0.5127
  580MOL0     C76461   1.132   2.860  10.927 -0.3541  0.1551  0.2738
  580MOL0     C76462   1.041   2.969  10.929  0.8885  0.8856  1.1180
  580MOL0     O76463   0.912   2.936  10.966 -1.0608  0.4082  0.4926
  580MOL0     C76464   0.828   3.046  11.000  0.2376  0.5042 -0.3122
  580MOL0     C76465   0.750   3.084  10.872  0.1018 -0.3163 -0.6904
  580MOL0     C76466   0.636   3.188  10.889  0.4152 -0.6907 -0.0042
  580MOL0     C76467   0.534   3.190  10.774 -0.0791  0.2651  0.1636
  580MOL0     C76468   0.444   3.310  10.783 -0.1274 -0.3431  0.0312
  580MOL0     C76469   0.358   3.323  10.664 -0.0650  0.1884 -0.0914
  580MOL0     C76470   0.270   3.445  10.688 -0.5085  0.5811  0.4265
  580MOL0     C76471   0.126   3.431  10.648 -0.2692 -0.5052  0.5747
  580MOL0    Cl76472   0.110   3.415  10.466 -0.2835  0.2576 -0.2025
  580MOL0     C76473   1.081   3.089  10.879 -0.1303 -0.3808  0.2315
  580MOL0     C76474   1.211   3.113  10.843  0.3146  0.7187 -0.3698
  580MOL0     O76475   1.538   2.988  10.996  0.1934 -0.3189 -0.0595
  580MOL0     C76476   1.683   3.137  10.693  0.8703  0.0392 -0.8013
  580MOL0     C76477   1.806   3.150  10.624  0.1351  0.1648 -0.2922
  580MOL0     N76478   2.556   3.423  10.646  0.7859 -0.4852 -0.7803
  580MOL0     N76479   2.618   3.538  10.638 -0.1490  0.1072  0.5494
  580MOL0     C76480   3.168   4.348  10.448  0.3514  0.4090  0.2806
  580MOL0     C76481   3.214   4.403  10.570  0.7318  0.0906 -0.2906
  580MOL0     C76482   3.235   4.535  11.027 -0.4987  0.0005  1.1554
  580MOL0     C76483   3.288   4.664  11.015 -0.2329 -0.1445 -1.1170
  580MOL0     C76484   3.378   4.714  11.112  0.4030 -0.3256  0.5486
  580MOL0     C76485   3.409   4.629  11.218  0.7371  0.2692 -0.7924
  580MOL0     O76486   3.504   4.653  11.310 -0.1957  0.6020 -0.6400
  580MOL0     C76487   3.585   4.780  11.298 -0.1820  0.8576 -0.3677
  580MOL0     C76488   3.694   4.779  11.408  0.2406 -0.4849  0.4467
  580MOL0     C76489   3.663   4.731  11.556 -0.0319  0.4621 -0.3605
  580MOL0     C76490   3.528   4.792  11.595 -0.2639 -0.0046  0.5636
  580MOL0     C76491   3.494   4.773  11.736 -0.4888  1.2531  0.2256
  580MOL0     C76492   3.474   4.758  11.855 -0.9632 -0.8935  0.1187
  580MOL0     C76493   3.358   4.503  11.234  0.3651  0.1751  0.2121
  580MOL0     C76494   3.274   4.451  11.133 -0.5757 -0.3540 -0.2729
  580MOL0     H76495   2.929   4.360  10.758 -0.7310 -0.6491 -1.0520
  580MOL0     H76496   2.863   4.231  10.559  1.4620 -3.1243  0.3088
  580MOL0     H76497   3.173   4.211  10.206 -1.5770  3.3849  1.1114
  580MOL0     H76498   3.022   4.130  10.155 -2.2477 -1.6047  1.8565
  580MOL0     H76499   3.200   4.008  10.373  2.7828 -1.0297 -3.6779
  580MOL0     H76500   3.208   3.983  10.209 -1.2455 -1.5664 -0.1262
  580MOL0     H76501   3.091   3.807  10.295 -5.5327 -2.8252  1.9749
  580MOL0     H76502   2.974   3.892  10.200 -1.5759  2.5988  0.3340
  580MOL0     H76503   2.941   3.817  10.485  1.5047 -0.0934  1.3583
  580MOL0     H76504   2.965   3.984  10.483 -3.3207  0.2708  0.8374
  580MOL0     H76505   2.764   3.857  10.297 -4.7828  0.2330  1.1368
  580MOL0     H76506   2.805   4.033  10.320 -0.9500 -0.2267  0.3938
  580MOL0     H76507   2.617   3.991  10.471  1.4057  2.4859 -1.1363
  580MOL0     H76508   2.749   3.981  10.574 -0.0077  3.6992 -1.8800
  580MOL0     H76509   2.631   3.735  10.439 -2.5232  0.1761  2.0174
  580MOL0     H76510   2.755   3.724  10.556  1.8020  0.5728 -2.5862
  580MOL0     H76511   2.464   3.826  10.598  0.3314  1.0350 -2.0421
  580MOL0     H76512   2.574   3.825  10.730 -0.0442  1.2397 -1.6989
  580MOL0     H76513   2.309   3.632  10.706 -0.5342 -0.9290 -0.1789
  580MOL0     H76514   2.216   3.373  10.702 -0.8605  0.9847 -2.3106
  580MOL0     H76515   2.355   3.282  10.769  2.4188 -1.5613 -0.5914
  580MOL0     H76516   2.411   3.266  10.500  1.3847 -0.4529  2.3037
  580MOL0     H76517   2.242   3.307  10.479  1.1623 -0.1205 -1.3821
  580MOL0     H76518   2.252   3.077  10.458 -1.0216 -0.5241 -0.0641
  580MOL0     H76519   2.368   3.056  10.582 -0.1869  0.7305  0.3541
  580MOL0     H76520   2.188   3.112  10.763 -3.5473  3.5445  0.0299
  580MOL0     H76521   2.163   2.968  10.664 -1.2701  0.4257 -0.8904
  580MOL0     H76522   1.994   2.988  10.850 -0.2096  0.2782  0.3384
  580MOL0     H76523   1.791   2.960  10.964  0.0258  0.4160  0.1728
  580MOL0     H76524   1.336   2.802  10.903 -1.0904  0.6580 -0.5108
  580MOL0     H76525   1.111   2.755  10.946  1.3263 -1.2880 -4.4338
  580MOL0     H76526   0.878   3.140  11.024 -0.2883  0.7420 -0.1434
  580MOL0     H76527   0.758   3.034  11.083 -0.3526 -0.9213 -0.9816
  580MOL0     H76528   0.722   2.985  10.834 -0.2633  0.0866 -1.4863
  580MOL0     H76529   0.818   3.132  10.802  1.1069  1.2709  1.2776
  580MOL0     H76530   0.677   3.289  10.898  0.4199 -0.6696 -0.2536
  580MOL0     H76531   0.581   3.161  10.980  0.0968 -0.3970 -0.1093
  580MOL0     H76532   0.580   3.179  10.676 -1.9921 -0.7510 -0.6565
  580MOL0     H76533   0.470   3.101  10.773 -0.2579  0.3943 -0.1193
  580MOL0     H76534   0.491   3.408  10.785 -1.5758  0.3672  0.4549
  580MOL0     H76535   0.382   3.304  10.873  1.0011 -1.2311  0.7847
  580MOL0     H76536   0.297   3.236  10.636  1.8852 -0.3645 -3.1510
  580MOL0     H76537   0.423   3.340  10.578  1.1136 -0.3298  0.6754
  580MOL0     H76538   0.258   3.479  10.791  0.4670 -3.1345  1.9224
  580MOL0     H76539   0.307   3.532  10.632 -1.6594  1.5948  1.1921
  580MOL0     H76540   0.062   3.515  10.675 -0.0230 -0.7459  2.0144
  580MOL0     H76541   0.088   3.343  10.702  1.4975 -0.7297  1.5286
  580MOL0     H76542   1.018   3.178  10.873  0.2757 -0.1055  0.0037
  580MOL0     H76543   1.251   3.209  10.811 -0.0849  1.1997  0.5226
  580MOL0     H76544   1.594   3.186  10.657 -0.7094  1.0607  3.8085
  580MOL0     H76545   1.806   3.198  10.527  1.9219 -2.1418 -1.5373
  580MOL0     H76546   3.243   4.352  10.369 -1.1533 -1.5820 -1.3593
  580MOL0     H76547   3.317   4.438  10.569  1.5164 -1.9675  0.8390
  580MOL0     H76548   3.252   4.730  10.937  0.2563  0.1514 -1.0994
  580MOL0     H76549   3.419   4.812  11.093  1.7208 -1.0046 -0.2132
  580MOL0     H76550   3.517   4.866  11.301 -1.1112  0.1746 -1.0603
  580MOL0     H76551   3.626   4.785  11.197 -2.5083 -1.7972 -1.5973
  580MOL0     H76552   3.769   4.709  11.370 -0.6276 -0.0805 -2.2286
  580MOL0     H76553   3.737   4.879  11.397  0.9518 -0.6326  1.6924
  580MOL0     H76554   3.737   4.783  11.617 -2.3799  4.0129 -0.2517
  580MOL0     H76555   3.659   4.622  11.564 -1.0895  0.5966  1.9650
  580MOL0     H76556   3.516   4.900  11.580 -0.4085 -0.2971 -1.8623
  580MOL0     H76557   3.451   4.757  11.525  0.5664  1.5479 -1.2358
  580MOL0     H76558   3.471   4.730  11.959 -2.9329 -3.1602 -0.4612
  580MOL0     H76559   3.377   4.435  11.317 -3.3769 -1.9895 -0.4314
  580MOL0     H76560   3.239   4.348  11.133  1.4195 -1.0958  1.1376
  581MOL0     O76561   1.575   3.978  11.062  0.0740  0.1629 -0.1884
  581MOL0     C76562   1.648   4.028  10.976 -0.3804  0.3437 -0.4353
  581MOL0     O76563   1.607   4.076  10.854 -0.9063 -1.0095  0.2295
  581MOL0     C76564   1.493   4.020  10.805  0.7986  0.0921 -0.3490
  581MOL0     C76565   1.481   3.882  10.764 -0.6876 -0.0822 -0.0743
  581MOL0     C76566   1.362   3.836  10.707  0.2813 -0.6094  0.7801
  581MOL0     C76567   1.250   3.925  10.697 -1.3538  0.2126 -0.3982
  581MOL0     O76568   1.127   3.892  10.641  0.2491 -0.5261  0.3950
  581MOL0     C76569   1.123   3.775  10.570  0.1400  0.1714  0.6853
  581MOL0     C76570   0.996   3.790  10.481 -0.2126 -0.1897 -0.4930
  581MOL0     C76571   0.861   3.761  10.549  0.0573  0.2226  0.2430
  581MOL0     C76572   0.756   3.747  10.440  0.3378 -0.4551 -0.0362
  581MOL0     C76573   0.613   3.782  10.487 -0.4288 -0.1999  0.2371
  581MOL0     C76574   0.508   3.753  10.372 -0.6115 -0.0548  0.7282
  581MOL0     C76575   0.368   3.794  10.423  0.5765  0.5545  0.3473
  581MOL0     C76576   0.257   3.719  10.335  1.0512  0.2661  0.0623
  581MOL0     N76577   0.130   3.787  10.356 -0.5327  0.6301  0.9129
  581MOL0     C76578   0.044   3.756  10.458 -0.2718 -1.4537  1.1732
  581MOL0     C76579  -0.065   3.831  10.441  0.5263 -0.1067 -1.0299
  581MOL0     C76580  -0.192   3.834  10.528 -0.1001  0.5705  0.4941
  581MOL0     C76581  -0.313   3.796  10.446 -0.4890 -0.6579 -0.1838
  581MOL0     C76582  -0.427   3.806  10.539 -1.0384  0.0799  0.7103
  581MOL0     C76583  -0.437   3.701  10.651  0.2358  0.3981 -1.6499
  581MOL0     O76584  -0.548   3.718  10.741 -0.1369  1.0203  0.8110
  581MOL0     C76585  -0.683   3.696  10.694 -0.0572 -0.3826  0.7360
  581MOL0     C76586  -0.715   3.621  10.582  0.1859  0.7454  0.3501
  581MOL0     C76587  -0.854   3.587  10.563  1.5605 -0.2786 -0.0693
  581MOL0     C76588  -0.963   3.641  10.639 -0.4198  0.5108  0.3501
  581MOL0     C76589  -1.102   3.630  10.610 -1.1607  0.0026 -0.4021
  581MOL0     O76590  -1.142   3.611  10.480  0.2270  0.6254  0.1466
  581MOL0     C76591  -1.266   3.562  10.456 -0.3651  1.1719 -0.4359
  581MOL0     C76592  -1.324   3.461  10.537 -0.1491 -0.2678 -0.0784
  581MOL0     C76593  -1.444   3.406  10.497  0.3415  0.0519 -0.5467
  581MOL0     C76594  -1.510   3.445  10.379 -0.0007  0.4350  0.5975
  581MOL0     O76595  -1.633   3.407  10.328 -0.2738  0.5290 -0.5120
  581MOL0     C76596  -1.709   3.309  10.396 -0.2024 -1.0232 -0.1928
  581MOL0     C76597  -1.840   3.287  10.320 -0.3468 -0.6941 -0.1144
  581MOL0     C76598  -1.944   3.393  10.338  0.0613  0.0385  0.4580
  581MOL0     C76599  -1.921   3.516  10.259  0.8577 -0.0193 -0.1542
  581MOL0     C76600  -2.036   3.626  10.279  0.3947 -0.0916 -1.0077
  581MOL0     C76601  -2.008   3.746  10.183 -0.3231 -0.3132  0.0951
  581MOL0     C76602  -2.086   3.881  10.198 -0.5497  0.0204  0.2501
  581MOL0     C76603  -2.226   3.859  10.136 -0.5165  0.2341 -0.1712
  581MOL0    Cl76604  -2.338   3.792  10.261  0.2288  0.0605  0.2545
  581MOL0     C76605  -1.439   3.534  10.295  0.4656  0.2897 -0.2969
  581MOL0     C76606  -1.319   3.596  10.332  0.5953 -0.3497 -1.0418
  581MOL0     O76607  -1.176   3.627  10.703 -0.1368 -0.3376 -0.2596
  581MOL0     C76608  -0.917   3.724  10.752 -0.2926 -0.1534  0.0067
  581MOL0     C76609  -0.786   3.756  10.772 -0.1530  0.5923 -0.0294
  581MOL0     N76610  -0.038   3.912  10.334  0.1459 -0.7017 -0.6539
  581MOL0     N76611   0.074   3.881  10.282 -0.5574  0.4964  0.1344
  581MOL0     C76612   1.263   4.059  10.745  0.0725  0.6467  0.3983
  581MOL0     C76613   1.383   4.102  10.797  0.1153 -0.8839  0.0147
  581MOL0     C76614   1.786   4.046  11.017  0.0091  0.8218  0.9035
  581MOL0     C76615   1.838   3.976  11.125  0.0472  0.5864  0.4942
  581MOL0     C76616   1.968   3.981  11.164  0.2729  0.4016  0.3254
  581MOL0     C76617   2.049   4.088  11.106  0.7868 -0.1681  0.1502
  581MOL0     O76618   2.183   4.107  11.130 -0.4167 -0.9703  0.0687
  581MOL0     C76619   2.243   4.053  11.252 -0.5916  0.3109 -0.0038
  581MOL0     C76620   2.389   4.090  11.222  0.3808  0.1470 -0.2184
  581MOL0     C76621   2.473   4.079  11.348  0.2830  0.0703  0.4633
  581MOL0     C76622   2.538   3.939  11.383  0.1948 -0.5140 -0.1580
  581MOL0     C76623   2.609   3.942  11.510  0.2172  0.2734  0.1615
  581MOL0     C76624   2.641   3.930  11.622 -0.4429 -0.4571 -0.4204
  581MOL0     C76625   2.000   4.160  10.998 -0.6167  0.1456  1.2023
  581MOL0     C76626   1.869   4.137  10.949  0.3021 -0.3240  0.6725
  581MOL0     H76627   1.574   3.826  10.769 -0.6756  0.0015  3.6952
  581MOL0     H76628   1.350   3.730  10.686 -1.8728 -0.2684  0.0351
  581MOL0     H76629   1.116   3.689  10.637  0.9361  0.7616  1.5352
  581MOL0     H76630   1.212   3.771  10.506 -2.1703 -1.3369 -2.8071
  581MOL0     H76631   1.009   3.722  10.397  0.9155 -2.1297  1.1696
  581MOL0     H76632   0.990   3.892  10.440  1.5547  1.0435  2.0122
  581MOL0     H76633   0.853   3.831  10.632 -1.0580 -0.4194  0.6862
  581MOL0     H76634   0.869   3.665  10.601  1.7473  0.7483  1.0449
  581MOL0     H76635   0.785   3.814  10.359  0.1546  1.4718  1.4262
  581MOL0     H76636   0.750   3.644  10.405 -1.5240 -0.6063  0.5814
  581MOL0     H76637   0.611   3.885  10.523 -1.7286 -0.6761  1.6389
  581MOL0     H76638   0.589   3.721  10.574  0.1220 -2.6302 -1.2170
  581MOL0     H76639   0.507   3.644  10.361  1.7996 -0.1098  0.5865
  581MOL0     H76640   0.529   3.802  10.277 -0.4008 -1.5718 -0.0494
  581MOL0     H76641   0.353   3.770  10.528  0.0903 -2.6202 -0.3399
  581MOL0     H76642   0.352   3.900  10.403 -3.5287 -0.1895 -1.3761
  581MOL0     H76643   0.247   3.611  10.351 -2.0643 -0.4450 -4.5388
  581MOL0     H76644   0.286   3.735  10.231  1.6486  2.8933  0.5619
  581MOL0     H76645   0.072   3.701  10.548  2.9286 -1.8440  0.0902
  581MOL0     H76646  -0.213   3.932  10.573  1.0710  2.6153 -2.9449
  581MOL0     H76647  -0.179   3.759  10.606 -0.5680 -0.4516 -0.3821
  581MOL0     H76648  -0.297   3.695  10.408  3.4384 -0.0496 -0.5681
  581MOL0     H76649  -0.318   3.866  10.363  0.9718 -1.4189 -0.9555
  581MOL0     H76650  -0.435   3.903  10.590  1.0552  1.4527 -1.4087
  581MOL0     H76651  -0.514   3.788  10.476 -0.9647 -1.2832  0.9756
  581MOL0     H76652  -0.353   3.714  10.721  0.8691  1.7949 -2.6051
  581MOL0     H76653  -0.415   3.600  10.617  2.2667 -0.5053  1.8552
  581MOL0     H76654  -0.644   3.582  10.509  0.7613 -1.1438  1.8287
  581MOL0     H76655  -0.883   3.522  10.481 -4.5001  2.1381 -0.3426
  581MOL0     H76656  -1.273   3.417  10.621  0.9721 -2.0020 -1.6022
  581MOL0     H76657  -1.493   3.326  10.553  1.7800  0.2124  1.0162
  581MOL0     H76658  -1.723   3.327  10.503 -3.0081  1.2493 -0.8283
  581MOL0     H76659  -1.655   3.215  10.380 -4.6893 -3.7580 -1.4409
  581MOL0     H76660  -1.884   3.198  10.366  1.0868 -1.6047 -0.4384
  581MOL0     H76661  -1.821   3.270  10.214 -1.1237  1.4583 -0.6407
  581MOL0     H76662  -1.964   3.415  10.444  2.8222 -0.0822  1.0731
  581MOL0     H76663  -2.035   3.348  10.298  1.5190 -4.1760  1.3171
  581MOL0     H76664  -1.820   3.556  10.274  0.7373  0.4827 -0.6610
  581MOL0     H76665  -1.928   3.497  10.152  0.9309  0.3042 -0.2152
  581MOL0     H76666  -2.036   3.648  10.386  3.3906 -1.8194 -0.5280
  581MOL0     H76667  -2.140   3.599  10.260 -0.0173  0.5522  0.2203
  581MOL0     H76668  -2.018   3.704  10.083 -0.7133  0.5952 -0.2559
  581MOL0     H76669  -1.900   3.761  10.193  0.5376 -3.7084 -2.3338
  581MOL0     H76670  -2.089   3.905  10.304  2.6845 -0.7169  0.6085
  581MOL0     H76671  -2.037   3.960  10.140 -3.6583  1.6281 -0.4176
  581MOL0     H76672  -2.208   3.793  10.051 -0.4814  0.1211 -0.0754
  581MOL0     H76673  -2.264   3.956  10.104 -0.7617  0.5068  0.8967
  581MOL0     H76674  -1.502   3.572  10.216 -0.7482  0.4940  0.7325
  581MOL0     H76675  -1.270   3.670  10.269 -0.6073 -0.5179 -2.2103
  581MOL0     H76676  -0.999   3.749  10.818 -0.9686  2.2227 -1.6288
  581MOL0     H76677  -0.766   3.812  10.863 -2.8477 -1.9831  2.3568
  581MOL0     H76678   1.174   4.119  10.730 -1.7802 -1.5147  2.0475
  581MOL0     H76679   1.385   4.206  10.829 -2.2430 -0.1273 -1.9727
  581MOL0     H76680   1.780   3.899  11.175  4.0578 -1.3294  2.7064
  581MOL0     H76681   2.000   3.913  11.242  0.4948  0.4667  0.2918
  581MOL0     H76682   2.233   3.945  11.254 -1.6963  0.3758 -1.0206
  581MOL0     H76683   2.225   4.100  11.349  0.2833 -1.4382  1.0488
  581MOL0     H76684   2.423   4.014  11.150 -1.9304 -1.9982  0.7893
  581MOL0     H76685   2.393   4.187  11.173 -1.1389 -0.5771 -1.8556
  581MOL0     H76686   2.420   4.110  11.438  0.7584  1.0950  0.4050
  581MOL0     H76687   2.544   4.161  11.334 -0.9046  0.8555 -1.4007
  581MOL0     H76688   2.458   3.864  11.395  1.3385 -1.5347  1.4314
  581MOL0     H76689   2.617   3.908  11.314  0.8652 -1.1518  0.8725
  581MOL0     H76690   2.681   3.934  11.722 -0.0063  1.4299 -0.6200
  581MOL0     H76691   2.062   4.228  10.941  0.3847 -1.8639 -0.2196
  581MOL0     H76692   1.835   4.185  10.859  0.3588 -1.6318 -0.0754
  582MOL0     O76693   8.407   3.208  10.735 -0.3686  0.7413  0.5723
  582MOL0     C76694   8.462   3.318  10.758 -1.0268  0.1477  0.1683
  582MOL0     O76695   8.392   3.436  10.741  0.4684  0.3348 -0.6548
  582MOL0     C76696   8.260   3.431  10.695 -0.2162 -0.6094  0.3271
  582MOL0     C76697   8.157   3.492  10.777 -0.3654  0.4722  0.0758
  582MOL0     C76698   8.023   3.507  10.734 -0.2601 -0.6306  0.7842
  582MOL0     C76699   7.987   3.470  10.600 -0.6208  0.4607 -0.1972
  582MOL0     O76700   7.867   3.493  10.535 -0.4180 -0.2648 -0.4625
  582MOL0     C76701   7.761   3.432  10.603 -0.2911  0.6874  0.5583
  582MOL0     C76702   7.636   3.440  10.510 -1.1325 -0.0369 -0.4087
  582MOL0     C76703   7.510   3.406  10.589  0.3796 -0.5272  0.6174
  582MOL0     C76704   7.395   3.433  10.482 -0.0948 -0.3444 -0.0687
  582MOL0     C76705   7.272   3.349  10.523 -0.1613 -0.1880  1.5780
  582MOL0     C76706   7.146   3.357  10.432 -0.1360  0.0327  0.4698
  582MOL0     C76707   7.010   3.310  10.494  0.0490 -0.0177 -0.1856
  582MOL0     C76708   6.902   3.296  10.388  0.1081  0.2536  0.5255
  582MOL0     N76709   6.874   3.414  10.309 -1.3035  0.8855  0.0360
  582MOL0     C76710   6.836   3.534  10.363  0.2554  0.2982 -0.2860
  582MOL0     C76711   6.817   3.608  10.257 -1.0155 -0.1233  0.1608
  582MOL0     C76712   6.808   3.756  10.273 -0.7563 -0.5441  0.1165
  582MOL0     C76713   6.888   3.822  10.376 -0.4764 -0.9303 -1.4751
  582MOL0     C76714   6.907   3.978  10.362 -0.3324  0.2993  0.1517
  582MOL0     C76715   6.769   4.040  10.349  0.5757 -0.7103  0.5624
  582MOL0     O76716   6.721   4.049  10.210 -0.3721  0.6231 -0.4298
  582MOL0     C76717   6.591   4.062  10.190  0.1105 -0.4190  0.8443
  582MOL0     C76718   6.502   4.106  10.296  0.0383  0.2801 -0.4403
  582MOL0     C76719   6.371   4.147  10.271 -0.3341 -0.5767  0.3975
  582MOL0     C76720   6.320   4.140  10.137 -0.5877  0.7840 -0.9301
  582MOL0     C76721   6.175   4.176  10.114 -0.2937 -0.0186 -0.1683
  582MOL0     O76722   6.117   4.228  10.228 -0.1501 -0.7852  0.3336
  582MOL0     C76723   5.983   4.255  10.227  0.2498  0.4431  0.2291
  582MOL0     C76724   5.894   4.173  10.299 -0.5885  0.3977  0.1303
  582MOL0     C76725   5.754   4.201  10.292 -0.3769  0.2278 -0.2945
  582MOL0     C76726   5.712   4.319  10.225  0.2945  0.2148  0.1634
  582MOL0     O76727   5.587   4.362  10.227 -0.1081  0.2518  0.1808
  582MOL0     C76728   5.479   4.273  10.180  0.4358 -0.8769 -1.0652
  582MOL0     C76729   5.337   4.306  10.240  0.4627  0.6826 -0.8063
  582MOL0     C76730   5.305   4.452  10.257  0.8696 -1.2793 -0.1643
  582MOL0     C76731   5.157   4.462  10.293  0.3091  0.8544  0.4426
  582MOL0     C76732   5.114   4.608  10.284  0.3253 -0.2731  0.7278
  582MOL0     C76733   4.967   4.624  10.332 -0.6431 -0.0925 -0.3175
  582MOL0     C76734   4.923   4.761  10.339 -1.1339  0.5617  0.1690
  582MOL0     C76735   4.791   4.786  10.416  0.2586  0.1892 -0.2076
  582MOL0    Cl76736   4.661   4.681  10.362 -0.0703  0.2773  0.2722
  582MOL0     C76737   5.804   4.401  10.169  0.3244  0.5141  0.6611
  582MOL0     C76738   5.938   4.369  10.167 -0.2331 -0.3394 -0.5856
  582MOL0     O76739   6.116   4.145  10.013  0.1841  0.1196  0.2041
  582MOL0     C76740   6.406   4.099  10.033 -1.1697  0.5582  0.4174
  582MOL0     C76741   6.535   4.050  10.061  0.7136  0.3303 -0.7599
  582MOL0     N76742   6.821   3.530  10.141  0.3847  0.6163  1.1656
  582MOL0     N76743   6.877   3.415  10.174  0.2572 -0.2696 -0.1584
  582MOL0     C76744   8.078   3.391  10.531 -0.0075 -0.3077 -0.9071
  582MOL0     C76745   8.211   3.375  10.576  0.0828  0.1425 -0.0208
  582MOL0     C76746   8.602   3.324  10.786  0.1353  0.0022  0.0933
  582MOL0     C76747   8.682   3.213  10.743 -0.3738 -0.2069 -0.2799
  582MOL0     C76748   8.819   3.212  10.767  0.8516  0.3931 -0.0588
  582MOL0     C76749   8.885   3.313  10.836 -0.0743  0.4813 -0.0730
  582MOL0     O76750   9.004   3.305  10.892 -0.6848  0.8438 -0.2673
  582MOL0     C76751   9.104   3.257  10.800 -0.5993  0.0960  0.4885
  582MOL0     C76752   9.241   3.249  10.875 -0.1949 -0.4188  0.6242
  582MOL0     C76753   9.241   3.139  10.978 -0.5846  0.3738  0.2983
  582MOL0     C76754   9.380   3.122  11.030  0.4100  0.2199 -0.5556
  582MOL0     C76755   9.390   3.009  11.125 -0.1186  0.7842 -0.0369
  582MOL0     C76756   9.396   2.910  11.194  0.0804  0.4945 -0.4740
  582MOL0     C76757   8.800   3.425  10.885  0.4526  0.5388  0.2872
  582MOL0     C76758   8.662   3.427  10.856 -0.6045 -0.3677 -0.1591
  582MOL0     H76759   8.186   3.538  10.871 -1.5141  1.3710  0.0227
  582MOL0     H76760   7.963   3.577  10.792  0.4671  0.5558  0.1534
  582MOL0     H76761   7.721   3.492  10.685 -1.2318  0.2864  0.4141
  582MOL0     H76762   7.785   3.332  10.640 -0.3998  0.6511  0.5339
  582MOL0     H76763   7.639   3.366  10.430  2.4916 -2.5844  1.7400
  582MOL0     H76764   7.609   3.539  10.472 -2.9617  0.0244  0.9403
  582MOL0     H76765   7.490   3.463  10.680  1.4348  1.8851 -0.5527
  582MOL0     H76766   7.511   3.297  10.604 -1.0744 -0.4762  1.2030
  582MOL0     H76767   7.360   3.537  10.486 -0.6073 -0.5388  1.1319
  582MOL0     H76768   7.429   3.420  10.379 -1.2476  0.2832 -0.5495
  582MOL0     H76769   7.240   3.362  10.627 -1.3361 -1.0173  1.3450
  582MOL0     H76770   7.317   3.249  10.524  0.6184 -0.0020 -1.7654
  582MOL0     H76771   7.171   3.301  10.341  0.6441 -0.0726  0.7461
  582MOL0     H76772   7.131   3.463  10.408  2.2075  0.4505  0.6612
  582MOL0     H76773   7.020   3.213  10.544  0.4175  1.5857  3.1079
  582MOL0     H76774   6.977   3.384  10.567  0.1905  0.8295 -0.9576
  582MOL0     H76775   6.811   3.271  10.444  0.0754 -0.7838  0.0314
  582MOL0     H76776   6.923   3.213  10.320 -1.3202 -1.4178  2.0241
  582MOL0     H76777   6.823   3.559  10.468 -3.6748  2.0556 -0.9857
  582MOL0     H76778   6.702   3.782  10.272 -0.8751 -0.8706  1.7054
  582MOL0     H76779   6.833   3.801  10.177  1.5849  1.4455  1.5225
  582MOL0     H76780   6.985   3.773  10.375  0.3761  0.7028 -1.4296
  582MOL0     H76781   6.838   3.807  10.473 -1.3014  2.8204 -1.1455
  582MOL0     H76782   6.948   4.015  10.456 -0.3029  2.5781 -0.6993
  582MOL0     H76783   6.975   4.013  10.284  0.2187 -0.7196  0.1595
  582MOL0     H76784   6.770   4.144  10.382 -3.5182  0.6953 -2.8935
  582MOL0     H76785   6.696   3.984  10.408 -0.9458  0.5252 -0.0793
  582MOL0     H76786   6.540   4.120  10.397  0.2803  0.7813 -0.5953
  582MOL0     H76787   6.311   4.178  10.356  1.6993 -1.3892  2.2116
  582MOL0     H76788   5.935   4.091  10.356 -2.1167  0.1825  0.9790
  582MOL0     H76789   5.690   4.119  10.324  1.7635 -1.4101  0.0182
  582MOL0     H76790   5.511   4.172  10.208  0.1383  0.1748  3.9091
  582MOL0     H76791   5.478   4.272  10.070 -1.9584 -1.0805 -1.1013
  582MOL0     H76792   5.326   4.250  10.334  2.5462  0.5375 -0.6081
  582MOL0     H76793   5.271   4.262  10.165  2.1898 -1.2880 -1.2700
  582MOL0     H76794   5.313   4.507  10.163  0.2777  1.2873  1.1688
  582MOL0     H76795   5.376   4.495  10.329  1.5515  0.0259 -1.5612
  582MOL0     H76796   5.100   4.392  10.230  1.7758  0.6074 -0.6749
  582MOL0     H76797   5.148   4.428  10.396  0.8235 -2.9490 -0.6061
  582MOL0     H76798   5.115   4.638  10.179 -4.0711  1.6635  1.0308
  582MOL0     H76799   5.182   4.670  10.343 -0.5575 -0.9278  2.4974
  582MOL0     H76800   4.970   4.572  10.428  2.9339 -0.6654 -0.6026
  582MOL0     H76801   4.897   4.571  10.267 -2.4198  2.7135 -0.8859
  582MOL0     H76802   5.001   4.822  10.386 -1.5214  0.6835  0.6551
  582MOL0     H76803   4.913   4.796  10.236  1.4812  1.5556  0.1697
  582MOL0     H76804   4.750   4.887  10.408  0.3918  0.3808  1.3591
  582MOL0     H76805   4.804   4.764  10.522  2.1596  3.5425  0.3849
  582MOL0     H76806   5.765   4.489  10.118  1.3881 -1.8212 -4.8756
  582MOL0     H76807   6.007   4.430  10.110 -2.6144  0.0398 -3.3070
  582MOL0     H76808   6.358   4.080   9.937 -0.8277  1.6407  0.0155
  582MOL0     H76809   6.596   4.008   9.981  0.6963 -1.7093  0.2335
  582MOL0     H76810   8.037   3.350  10.440 -2.8003  1.0766 -0.3779
  582MOL0     H76811   8.283   3.318  10.518 -2.1565 -1.7298 -1.1362
  582MOL0     H76812   8.660   3.138  10.667  4.8803 -0.9386 -1.4574
  582MOL0     H76813   8.883   3.129  10.736  2.7868  1.2869  1.3398
  582MOL0     H76814   9.112   3.329  10.718  0.0376  0.4673  0.8708
  582MOL0     H76815   9.076   3.164  10.750 -4.3094  0.2756  1.8929
  582MOL0     H76816   9.325   3.227  10.808  0.1610 -1.0986  1.2811
  582MOL0     H76817   9.258   3.349  10.916 -0.6665 -1.0275  2.3831
  582MOL0     H76818   9.200   3.047  10.933  1.5451 -0.4939  0.0003
  582MOL0     H76819   9.179   3.174  11.060 -1.4848 -0.2884 -0.0801
  582MOL0     H76820   9.461   3.097  10.960 -0.5273  0.6335 -1.8194
  582MOL0     H76821   9.400   3.220  11.076 -2.7238  0.7825 -0.2056
  582MOL0     H76822   9.404   2.826  11.260  1.6222  2.1510  1.5974
  582MOL0     H76823   8.829   3.491  10.966 -0.8835 -0.1032  1.3276
  582MOL0     H76824   8.595   3.505  10.890 -0.1683 -0.0979  0.0778
  583MOL0     O76825  10.064   2.861   8.564  0.2607  0.0930 -0.0888
  583MOL0     C76826  10.142   2.778   8.612 -0.1488 -0.4387 -0.1051
  583MOL0     O76827  10.112   2.691   8.718  0.1538 -0.5135  0.1251
  583MOL0     C76828   9.988   2.704   8.790 -1.0322 -0.7723 -0.0590
  583MOL0     C76829   9.867   2.708   8.720 -0.3868  0.2731  0.0239
  583MOL0     C76830   9.753   2.733   8.786  0.7327 -0.0243  0.2438
  583MOL0     C76831   9.743   2.751   8.921 -0.3594 -0.2823  0.1291
  583MOL0     O76832   9.623   2.778   8.981 -0.1450 -0.5526 -0.5157
  583MOL0     C76833   9.592   2.707   9.101 -0.8317  0.3320  0.5464
  583MOL0     C76834   9.452   2.728   9.143 -0.3578 -0.5788 -0.1958
  583MOL0     C76835   9.360   2.727   9.031  0.9398  0.0405  1.3128
  583MOL0     C76836   9.333   2.866   8.982 -0.4316  0.0818 -0.4394
  583MOL0     C76837   9.254   2.878   8.853  0.1146 -0.1280 -0.0227
  583MOL0     C76838   9.099   2.834   8.843 -0.2500  0.0713  0.3870
  583MOL0     C76839   9.006   2.934   8.901 -0.4455 -1.0020 -0.2939
  583MOL0     C76840   8.874   2.870   8.944 -0.0773 -0.2673  0.1810
  583MOL0     N76841   8.804   2.808   8.831  0.0788 -0.6510 -0.1503
  583MOL0     C76842   8.715   2.872   8.751 -0.1359  0.8024 -0.9994
  583MOL0     C76843   8.663   2.771   8.678  0.4942  0.6244  0.4585
  583MOL0     C76844   8.545   2.781   8.588  0.8905 -0.9118 -0.5886
  583MOL0     C76845   8.414   2.819   8.672 -0.1804  0.6239  0.6507
  583MOL0     C76846   8.305   2.873   8.576 -0.2803 -0.7648  0.0892
  583MOL0     C76847   8.163   2.885   8.619 -0.8478 -0.3520 -0.0055
  583MOL0     O76848   8.103   2.763   8.608  0.2382 -0.8295 -0.5195
  583MOL0     C76849   7.973   2.734   8.620  0.0306 -0.4234  1.0670
  583MOL0     C76850   7.880   2.831   8.629  0.2845 -0.0319  0.4463
  583MOL0     C76851   7.745   2.805   8.625  0.7923 -0.8136  0.6344
  583MOL0     C76852   7.702   2.680   8.639  0.2801 -0.0477  0.0781
  583MOL0     C76853   7.563   2.653   8.680  0.5163  0.3513  0.0051
  583MOL0     O76854   7.478   2.761   8.708  0.1415  0.3788  0.0353
  583MOL0     C76855   7.342   2.741   8.745 -0.0793 -0.4213  1.2343
  583MOL0     C76856   7.292   2.844   8.823  0.2665 -0.3270 -0.6022
  583MOL0     C76857   7.151   2.835   8.856  0.2310  0.2433  0.8847
  583MOL0     C76858   7.066   2.728   8.816  0.4227 -0.4530  0.3087
  583MOL0     O76859   6.933   2.713   8.852  0.3439 -0.5131  0.1338
  583MOL0     C76860   6.867   2.795   8.949  0.2308  0.6156  0.3066
  583MOL0     C76861   6.731   2.726   8.982  0.2905 -0.0887  0.2243
  583MOL0     C76862   6.741   2.587   9.045  0.3810  1.0488  0.0654
  583MOL0     C76863   6.599   2.528   9.069 -0.4818 -0.4106  0.8036
  583MOL0     C76864   6.600   2.382   9.124 -1.1176  0.1504 -0.4669
  583MOL0     C76865   6.458   2.336   9.105  0.9305  0.3916 -0.6736
  583MOL0     C76866   6.443   2.215   9.202 -0.1540 -0.3749  0.1918
  583MOL0     C76867   6.306   2.152   9.214  0.3825  1.0350  0.7255
  583MOL0    Cl76868   6.315   2.007   9.331  0.0043 -0.2759  0.0284
  583MOL0     C76869   7.127   2.630   8.743  0.4512  0.2972  0.8900
  583MOL0     C76870   7.262   2.632   8.707 -1.0923  0.5428  0.9643
  583MOL0     O76871   7.532   2.534   8.682 -0.6800 -0.2578 -0.1699
  583MOL0     C76872   7.804   2.578   8.620  0.6475 -0.5990 -0.3682
  583MOL0     C76873   7.928   2.608   8.616 -0.3375  0.9242  0.5586
  583MOL0     N76874   8.724   2.648   8.711 -0.0373  0.5335  0.7440
  583MOL0     N76875   8.803   2.677   8.808  0.1264  0.3604  0.1619
  583MOL0     C76876   9.862   2.742   8.996  0.5449 -0.0629 -1.2807
  583MOL0     C76877   9.979   2.714   8.927 -0.0760  0.1283 -0.0160
  583MOL0     C76878  10.283   2.768   8.559 -1.0038  0.0536  0.4672
  583MOL0     C76879  10.387   2.701   8.624  0.4514  0.0639 -1.4244
  583MOL0     C76880  10.524   2.711   8.591 -0.4901 -1.2025  0.1714
  583MOL0     C76881  10.553   2.786   8.477  0.4655  0.1076  0.0763
  583MOL0     O76882  10.680   2.825   8.433  0.2780 -0.2129 -0.5858
  583MOL0     C76883  10.769   2.723   8.390  0.8313 -0.4039 -0.0477
  583MOL0     C76884  10.899   2.800   8.361  0.0400 -0.5866 -0.8681
  583MOL0     C76885  11.020   2.709   8.374 -0.5951  0.1973 -0.6614
  583MOL0     C76886  11.155   2.779   8.350  0.5287  0.1714  0.7387
  583MOL0     C76887  11.270   2.702   8.399  0.1140  0.1040  0.0431
  583MOL0     C76888  11.365   2.637   8.439 -0.3435 -0.6364 -0.0876
  583MOL0     C76889  10.444   2.836   8.395 -0.9191  0.2288 -0.0020
  583MOL0     C76890  10.314   2.825   8.442 -1.0712  0.6148  0.5559
  583MOL0     H76891   9.873   2.695   8.612  2.5379 -0.7586  0.2114
  583MOL0     H76892   9.666   2.760   8.726  0.2955  1.5625  1.5327
  583MOL0     H76893   9.663   2.740   9.178 -1.1006 -1.6525  1.7359
  583MOL0     H76894   9.607   2.600   9.087  2.1657  0.8180 -0.8485
  583MOL0     H76895   9.438   2.824   9.194 -1.6532 -1.3796  1.0393
  583MOL0     H76896   9.433   2.651   9.219 -1.2089  0.4329  0.6531
  583MOL0     H76897   9.264   2.684   9.061  0.2055  1.1237  0.6134
  583MOL0     H76898   9.397   2.667   8.948 -2.4868 -0.6120  0.0741
  583MOL0     H76899   9.281   2.920   9.062 -0.0327 -0.4792  0.2047
  583MOL0     H76900   9.429   2.916   8.965  0.1692 -1.1866 -0.8831
  583MOL0     H76901   9.297   2.830   8.764  0.2136  0.9650 -0.5712
  583MOL0     H76902   9.240   2.983   8.826 -1.5927 -0.5466 -0.9181
  583MOL0     H76903   9.098   2.742   8.902  1.3847 -0.0297  0.2875
  583MOL0     H76904   9.056   2.825   8.743 -1.4057  0.7361  0.7989
  583MOL0     H76905   9.065   2.976   8.983 -1.9442 -0.7875  0.7023
  583MOL0     H76906   8.999   3.015   8.828 -0.4463  0.1104  0.8973
  583MOL0     H76907   8.814   2.948   8.992 -1.8253 -1.0774 -0.5833
  583MOL0     H76908   8.905   2.799   9.021  0.2199  1.5496  1.7990
  583MOL0     H76909   8.696   2.978   8.761 -0.6474  0.5892  0.5946
  583MOL0     H76910   8.529   2.683   8.542 -1.2686  0.4269 -2.9464
  583MOL0     H76911   8.567   2.849   8.505  1.7004  0.0219  0.3568
  583MOL0     H76912   8.433   2.886   8.756 -0.1464  0.9938  0.3509
  583MOL0     H76913   8.367   2.735   8.724  0.9185 -0.3374  0.1379
  583MOL0     H76914   8.328   2.973   8.539 -0.3378 -0.4350  0.9232
  583MOL0     H76915   8.304   2.794   8.500 -1.0920 -2.6237  1.9302
  583MOL0     H76916   8.125   2.957   8.546  1.6203  1.8434  0.7353
  583MOL0     H76917   8.155   2.935   8.716  0.4354  0.0236 -0.0774
  583MOL0     H76918   7.920   2.930   8.609  2.8082 -1.2613 -1.1901
  583MOL0     H76919   7.676   2.889   8.619  1.5438 -0.0654  2.0180
  583MOL0     H76920   7.350   2.930   8.854  0.9323 -1.5582  1.7984
  583MOL0     H76921   7.120   2.923   8.911  2.3977  0.1858  2.3384
  583MOL0     H76922   6.858   2.895   8.906  0.4516 -0.9528 -3.7651
  583MOL0     H76923   6.931   2.801   9.038  0.3228  1.8546  0.1740
  583MOL0     H76924   6.667   2.724   8.894  0.5508 -0.1055  0.0357
  583MOL0     H76925   6.680   2.786   9.059 -1.5298  3.1081 -3.1720
  583MOL0     H76926   6.800   2.599   9.136 -1.4106 -1.6259  1.7264
  583MOL0     H76927   6.803   2.526   8.980  0.7157  0.1276  1.2099
  583MOL0     H76928   6.538   2.595   9.130 -1.7459 -1.0399  0.2844
  583MOL0     H76929   6.557   2.531   8.968 -2.6761  5.0024  1.5637
  583MOL0     H76930   6.625   2.382   9.231 -2.6783  0.0407 -0.0863
  583MOL0     H76931   6.676   2.320   9.076 -2.2183 -0.3050 -1.6690
  583MOL0     H76932   6.440   2.303   9.002 -1.1506 -0.2914 -0.1417
  583MOL0     H76933   6.383   2.409   9.138  2.2597  0.9276  1.2770
  583MOL0     H76934   6.518   2.141   9.173 -0.6659 -1.0390  0.5275
  583MOL0     H76935   6.456   2.251   9.304 -0.0080  1.8027 -0.5328
  583MOL0     H76936   6.281   2.107   9.118  4.4805 -1.3511  0.5420
  583MOL0     H76937   6.232   2.227   9.244  0.7749  3.2760 -3.2842
  583MOL0     H76938   7.065   2.548   8.708 -1.9913  0.2976  4.5523
  583MOL0     H76939   7.298   2.544   8.654 -1.1751  0.7555  0.5541
  583MOL0     H76940   7.780   2.472   8.627 -2.9730  0.1862  3.3541
  583MOL0     H76941   8.001   2.529   8.609  0.1681  1.0367  3.2783
  583MOL0     H76942   9.876   2.753   9.103  0.4479  2.2499 -1.4748
  583MOL0     H76943  10.062   2.687   8.992 -1.4420 -0.7731  1.4281
  583MOL0     H76944  10.367   2.644   8.715  0.2480 -2.3291 -2.8929
  583MOL0     H76945  10.594   2.660   8.657 -0.2764 -1.3017 -0.1292
  583MOL0     H76946  10.729   2.679   8.298  2.8709 -1.8110 -0.3212
  583MOL0     H76947  10.789   2.649   8.468  1.0122  1.7813  2.0915
  583MOL0     H76948  10.893   2.836   8.258 -0.4088  1.6240 -0.1320
  583MOL0     H76949  10.911   2.887   8.426 -0.9819 -1.2667  0.2694
  583MOL0     H76950  10.998   2.623   8.310 -2.0322  0.5385 -0.6504
  583MOL0     H76951  11.028   2.653   8.468  0.5321 -3.1465 -2.5525
  583MOL0     H76952  11.168   2.792   8.242 -2.0001 -1.3680  0.1568
  583MOL0     H76953  11.164   2.875   8.401 -1.8384  0.6488  0.3857
  583MOL0     H76954  11.443   2.589   8.494  0.1284  0.7676  0.5084
  583MOL0     H76955  10.468   2.893   8.305 -0.7325  0.6082  0.2862
  583MOL0     H76956  10.239   2.880   8.387 -0.6002  1.0685  0.3582
  584MOL0     O76957   4.147   3.206   8.663  0.6678 -1.1827 -0.3680
  584MOL0     C76958   4.213   3.312   8.679  0.4247  0.8615  0.0587
  584MOL0     O76959   4.196   3.414   8.772  0.3957 -0.6520 -0.0635
  584MOL0     C76960   4.109   3.383   8.877  0.4008  0.9306  0.4260
  584MOL0     C76961   4.136   3.281   8.966  0.7107 -0.1970 -0.5676
  584MOL0     C76962   4.043   3.249   9.074  0.6540 -0.1057  0.6953
  584MOL0     C76963   3.930   3.327   9.096  0.9089 -1.0173  0.0486
  584MOL0     O76964   3.858   3.301   9.209 -0.1699 -0.0340 -0.4244
  584MOL0     C76965   3.716   3.314   9.206  0.2253  0.0998  0.0656
  584MOL0     C76966   3.689   3.297   9.358  1.3309 -0.1469 -0.2897
  584MOL0     C76967   3.753   3.420   9.433  0.6022 -0.6599  0.5443
  584MOL0     C76968   3.752   3.400   9.588  0.0874  0.0277 -0.2551
  584MOL0     C76969   3.826   3.506   9.677 -0.1776 -0.1843 -0.2890
  584MOL0     C76970   3.973   3.465   9.712 -0.3649 -0.7620 -1.0907
  584MOL0     C76971   4.053   3.579   9.782 -0.0004  0.6622 -0.1477
  584MOL0     C76972   4.204   3.547   9.775  0.0858 -0.0929 -0.0563
  584MOL0     N76973   4.258   3.571   9.639  0.2761 -0.5157  0.1131
  584MOL0     C76974   4.292   3.699   9.610 -0.5140 -0.1487 -0.1219
  584MOL0     C76975   4.408   3.691   9.550 -0.8886  0.4235 -0.1833
  584MOL0     C76976   4.505   3.798   9.525 -0.4169  0.0304 -0.0810
  584MOL0     C76977   4.605   3.805   9.646  1.0850 -0.6348  0.6587
  584MOL0     C76978   4.711   3.908   9.623 -0.5029 -0.1612 -0.1087
  584MOL0     C76979   4.798   3.886   9.747 -0.3965 -0.6115  0.9722
  584MOL0     O76980   4.899   3.990   9.734  0.2426  0.1091 -0.6479
  584MOL0     C76981   5.020   3.953   9.686 -0.0795 -0.5973 -0.9932
  584MOL0     C76982   5.087   4.021   9.587 -0.3982 -0.2756 -0.5824
  584MOL0     C76983   5.212   3.978   9.543  0.0118 -0.4537  0.1167
  584MOL0     C76984   5.276   3.869   9.605  0.0409  0.3768  0.1993
  584MOL0     C76985   5.399   3.814   9.545 -0.2361 -1.0134  0.2647
  584MOL0     O76986   5.469   3.906   9.478  0.2077 -0.1561  0.1294
  584MOL0     C76987   5.596   3.875   9.422 -0.1994  0.2081 -0.0148
  584MOL0     C76988   5.696   3.967   9.441  0.2619 -0.3541  0.8613
  584MOL0     C76989   5.824   3.955   9.387 -0.2378 -0.6128  0.0645
  584MOL0     C76990   5.851   3.853   9.295  0.5361  0.5893  0.9236
  584MOL0     O76991   5.970   3.831   9.232  0.7414  0.0033 -0.9564
  584MOL0     C76992   6.079   3.808   9.327  0.8212 -0.4850 -0.3381
  584MOL0     C76993   6.201   3.755   9.237 -0.6761 -0.1810 -0.0507
  584MOL0     C76994   6.313   3.664   9.306 -0.3550 -0.1463 -0.1124
  584MOL0     C76995   6.421   3.600   9.228 -0.1294  0.3566  1.3606
  584MOL0     C76996   6.529   3.698   9.167 -0.3961 -0.0811  0.1838
  584MOL0     C76997   6.625   3.623   9.067  0.2884 -0.1434  0.4200
  584MOL0     C76998   6.761   3.701   9.049  0.7546 -0.1643  0.5879
  584MOL0     C76999   6.870   3.625   8.975  0.4432 -0.4383  0.0845
  584MOL0    Cl77000   7.015   3.715   8.928  0.1555  0.4191  0.0195
  584MOL0     C77001   5.756   3.752   9.281 -0.5987  0.8483 -0.0718
  584MOL0     C77002   5.634   3.764   9.341  0.3355 -0.2152 -1.0672
  584MOL0     O77003   5.436   3.699   9.575  0.0112  0.0902  0.3243
  584MOL0     C77004   5.205   3.798   9.701  0.5339  0.1305  0.9187
  584MOL0     C77005   5.090   3.849   9.757 -0.2783 -0.5964 -0.2879
  584MOL0     N77006   4.440   3.559   9.534  0.4065  0.0936 -0.1223
  584MOL0     N77007   4.337   3.485   9.571 -0.4381  0.2260 -0.2770
  584MOL0     C77008   3.906   3.426   9.003  0.6754  0.0459  0.0142
  584MOL0     C77009   3.989   3.461   8.892 -0.8276  0.5053 -0.5234
  584MOL0     C77010   4.335   3.327   8.586  0.0536  1.1554 -0.0227
  584MOL0     C77011   4.405   3.443   8.572 -0.0300  0.3100 -0.7706
  584MOL0     C77012   4.515   3.454   8.482  0.1795 -0.2802 -1.0008
  584MOL0     C77013   4.561   3.351   8.410 -0.0209  0.3913 -0.2425
  584MOL0     O77014   4.669   3.373   8.324 -0.2179  0.6041  0.0986
  584MOL0     C77015   4.631   3.354   8.181  0.2654  0.1048  0.0685
  584MOL0     C77016   4.750   3.364   8.093 -0.9549  0.1285  0.3679
  584MOL0     C77017   4.856   3.252   8.117 -0.6194 -0.2646  0.0187
  584MOL0     C77018   4.977   3.294   8.035 -0.7903  0.2993 -0.4610
  584MOL0     C77019   5.063   3.177   8.014 -0.0719  0.1575  0.2984
  584MOL0     C77020   5.145   3.088   7.996 -0.2731  0.4766 -1.0715
  584MOL0     C77021   4.476   3.235   8.417  0.2928  0.5040  0.1419
  584MOL0     C77022   4.371   3.223   8.503  0.1164  0.2782  0.8483
  584MOL0     H77023   4.213   3.208   8.946 -1.3963 -2.3585 -1.2603
  584MOL0     H77024   4.062   3.161   9.135 -1.0636 -0.1399  1.2296
  584MOL0     H77025   3.671   3.240   9.138 -1.7752  2.7646 -1.7283
  584MOL0     H77026   3.668   3.410   9.183 -2.5665 -1.0532  0.6319
  584MOL0     H77027   3.738   3.209   9.400  0.6247 -1.0260 -1.2725
  584MOL0     H77028   3.582   3.287   9.380  0.9454  3.7652  0.2472
  584MOL0     H77029   3.704   3.513   9.401  1.8690  0.0560  0.6009
  584MOL0     H77030   3.858   3.431   9.403  1.4786 -2.3546  2.7312
  584MOL0     H77031   3.650   3.399   9.628  0.6065 -0.1998  1.1476
  584MOL0     H77032   3.789   3.299   9.608 -1.4526 -1.6025 -4.6435
  584MOL0     H77033   3.773   3.536   9.768  1.3960 -0.1620  0.6598
  584MOL0     H77034   3.848   3.596   9.619  1.7583 -1.0842 -1.0732
  584MOL0     H77035   4.020   3.447   9.614  0.7713 -0.8229 -0.5498
  584MOL0     H77036   3.973   3.378   9.778 -0.4060  0.4860  0.6144
  584MOL0     H77037   4.021   3.671   9.732 -3.7156  0.7891  2.0554
  584MOL0     H77038   4.009   3.574   9.882  0.8388  2.7969  0.3702
  584MOL0     H77039   4.219   3.440   9.794  1.8975  0.3286  1.2639
  584MOL0     H77040   4.266   3.603   9.846  1.2360 -0.7143 -0.5428
  584MOL0     H77041   4.243   3.782   9.659 -2.4286 -2.3662  2.0119
  584MOL0     H77042   4.451   3.892   9.509  2.5489  1.5981 -1.5806
  584MOL0     H77043   4.553   3.769   9.432 -0.4490 -2.4159  0.5894
  584MOL0     H77044   4.653   3.707   9.652  0.0013 -1.1816  0.6726
  584MOL0     H77045   4.554   3.812   9.742  3.1682  5.1006  1.7673
  584MOL0     H77046   4.767   3.892   9.531 -2.9560 -2.5896 -1.3132
  584MOL0     H77047   4.666   4.007   9.616 -2.0646 -0.9584 -1.9703
  584MOL0     H77048   4.840   3.785   9.751  1.5395  0.0273 -0.8716
  584MOL0     H77049   4.741   3.905   9.838 -2.5361  2.1797 -0.7733
  584MOL0     H77050   5.040   4.105   9.537  1.4196  1.0532 -0.1820
  584MOL0     H77051   5.253   4.039   9.462 -0.2389 -0.5710 -0.0990
  584MOL0     H77052   5.662   4.056   9.494 -2.8907 -0.1157 -1.3005
  584MOL0     H77053   5.896   4.026   9.426 -0.6354 -1.5989  2.8249
  584MOL0     H77054   6.049   3.722   9.389 -2.3172 -1.5750 -3.0767
  584MOL0     H77055   6.103   3.894   9.390  2.6504 -0.3590 -1.1634
  584MOL0     H77056   6.256   3.841   9.197 -2.2844  0.2700 -1.4322
  584MOL0     H77057   6.172   3.711   9.141  2.6189 -1.4375 -0.5821
  584MOL0     H77058   6.259   3.589   9.366  1.1275 -3.4141 -2.5603
  584MOL0     H77059   6.350   3.729   9.386 -2.7361 -0.0592  1.0146
  584MOL0     H77060   6.463   3.523   9.292  1.3364 -0.6315 -0.6760
  584MOL0     H77061   6.376   3.553   9.140  2.1834  2.0375 -0.8770
  584MOL0     H77062   6.593   3.743   9.243  0.4860 -0.0933 -0.5294
  584MOL0     H77063   6.486   3.781   9.109  0.0754  1.6939  2.2265
  584MOL0     H77064   6.567   3.611   8.975 -4.3455  1.8838  2.7722
  584MOL0     H77065   6.645   3.530   9.122 -1.5186  0.6782  2.6114
  584MOL0     H77066   6.740   3.789   8.988  2.6957 -0.7580 -1.0593
  584MOL0     H77067   6.787   3.747   9.145 -2.2261  1.6752  0.6523
  584MOL0     H77068   6.823   3.588   8.883  2.1396  0.6808 -1.2959
  584MOL0     H77069   6.895   3.536   9.033 -1.6564 -0.2208  1.4246
  584MOL0     H77070   5.783   3.656   9.239  1.1119  0.2197  2.2374
  584MOL0     H77071   5.558   3.686   9.333  1.9378 -2.1050  0.8715
  584MOL0     H77072   5.248   3.704   9.732  2.7065  0.2700 -1.3215
  584MOL0     H77073   5.032   3.810   9.840 -0.6743  0.0729 -0.2385
  584MOL0     H77074   3.809   3.475   9.003 -0.2637 -1.7453  0.2261
  584MOL0     H77075   3.968   3.546   8.828  0.9363  1.5933  0.2455
  584MOL0     H77076   4.391   3.525   8.642  3.1911 -0.5727  1.1064
  584MOL0     H77077   4.568   3.549   8.478  0.5465 -0.4932 -1.2530
  584MOL0     H77078   4.567   3.439   8.157 -0.8253 -1.4979 -3.4714
  584MOL0     H77079   4.575   3.262   8.163 -0.4668  0.5417  0.0962
  584MOL0     H77080   4.724   3.366   7.987  2.0727 -0.6550 -0.4873
  584MOL0     H77081   4.796   3.459   8.119  1.8458 -1.3657  1.3120
  584MOL0     H77082   4.801   3.163   8.085  0.3494 -0.8022 -0.2142
  584MOL0     H77083   4.878   3.232   8.222 -0.3250  0.6558  0.1464
  584MOL0     H77084   4.934   3.320   7.938 -1.7933  0.6788  0.0639
  584MOL0     H77085   5.024   3.381   8.082  0.6935 -1.1281  0.8275
  584MOL0     H77086   5.219   3.018   7.965 -0.4930  0.6560 -2.0248
  584MOL0     H77087   4.492   3.150   8.351 -1.1350 -0.7256  1.3205
  584MOL0     H77088   4.316   3.130   8.507 -1.0664  0.9855  3.0789
  585MOL0     O77089   8.613   7.706   0.453  1.0966  0.4332 -0.6036
  585MOL0     C77090   8.670   7.644   0.368 -0.4517 -0.3023 -0.5578
  585MOL0     O77091   8.606   7.558   0.285 -0.4654 -1.0408  0.3032
  585MOL0     C77092   8.470   7.529   0.293 -0.5726 -0.7655  0.3976
  585MOL0     C77093   8.431   7.397   0.324 -0.9214 -0.8970  0.8072
  585MOL0     C77094   8.300   7.372   0.332  0.7215  0.3448  0.1030
  585MOL0     C77095   8.199   7.470   0.326 -0.0441 -0.0516  0.3022
  585MOL0     O77096   8.071   7.427   0.335  0.1521  0.0171 -0.3978
  585MOL0     C77097   7.982   7.465   0.231 -1.0943  0.1103 -0.2426
  585MOL0     C77098   7.845   7.382   0.234 -0.1678  0.1185 -0.4954
  585MOL0     C77099   7.735   7.459   0.326 -0.6348 -0.0005 -0.1100
  585MOL0     C77100   7.605   7.378   0.297  0.3772  0.6131 -0.4064
  585MOL0     C77101   7.493   7.418   0.388 -0.2074  0.3392  0.1520
  585MOL0     C77102   7.379   7.327   0.353 -0.1755 -0.3716  0.3941
  585MOL0     C77103   7.253   7.372   0.438 -0.1189  0.4066  0.9060
  585MOL0     C77104   7.148   7.255   0.451  0.6425  0.4864 -0.4026
  585MOL0     N77105   7.030   7.277   0.532 -0.5318 -0.6070 -0.0592
  585MOL0     C77106   6.962   7.394   0.544 -0.7184 -0.2956 -0.3981
  585MOL0     C77107   6.869   7.378   0.639 -0.3214  1.2373  0.4384
  585MOL0     C77108   6.779   7.486   0.701  0.8504  0.1826 -0.4718
  585MOL0     C77109   6.623   7.448   0.721 -0.4302 -0.1516  0.4347
  585MOL0     C77110   6.533   7.559   0.758 -0.5282 -1.0435 -0.8092
  585MOL0     C77111   6.390   7.523   0.785  0.1955 -0.2277  0.6482
  585MOL0     O77112   6.312   7.634   0.737  0.0100 -0.2067 -0.3305
  585MOL0     C77113   6.180   7.635   0.792 -0.2773  0.6050 -0.5466
  585MOL0     C77114   6.143   7.745   0.858 -0.3158  0.5497 -0.0853
  585MOL0     C77115   6.012   7.766   0.917  0.9665  0.3789 -0.9424
  585MOL0     C77116   5.921   7.668   0.901  0.9512 -0.9167 -0.5406
  585MOL0     C77117   5.779   7.688   0.930 -0.6545  0.8436  0.0148
  585MOL0     O77118   5.693   7.589   0.915  0.5226  0.0994  0.0723
  585MOL0     C77119   5.555   7.601   0.940 -0.2115 -0.3841 -0.5151
  585MOL0     C77120   5.497   7.497   0.999  0.3835  0.3237 -1.2828
  585MOL0     C77121   5.360   7.497   1.041  0.4082 -0.2925  0.7584
  585MOL0     C77122   5.280   7.604   1.003 -0.9326 -0.8335 -0.0457
  585MOL0     O77123   5.146   7.608   1.017 -0.3876  0.2067 -1.5021
  585MOL0     C77124   5.097   7.546   1.136  0.4634 -0.0301 -0.5778
  585MOL0     C77125   4.941   7.517   1.114  0.2617 -0.1879 -0.5066
  585MOL0     C77126   4.877   7.427   1.225 -0.0156  0.2829  0.2218
  585MOL0     C77127   4.726   7.426   1.225  0.2865  0.5577 -0.6331
  585MOL0     C77128   4.668   7.374   1.094 -0.0183 -0.3949 -1.5285
  585MOL0     C77129   4.516   7.370   1.079  0.1399 -0.0237  0.2378
  585MOL0     C77130   4.481   7.300   0.942  0.6324  0.4209  0.0595
  585MOL0     C77131   4.463   7.151   0.936  1.0099  0.3872  1.1289
  585MOL0    Cl77132   4.326   7.102   1.046 -0.0591 -0.0956  0.1014
  585MOL0     C77133   5.343   7.717   0.929 -0.5499  1.6057 -0.3647
  585MOL0     C77134   5.484   7.717   0.915 -0.1677 -0.4398 -0.2612
  585MOL0     O77135   5.748   7.796   0.984 -0.3550  0.4702  0.3250
  585MOL0     C77136   5.960   7.554   0.832 -0.3989 -0.4372 -0.8127
  585MOL0     C77137   6.088   7.532   0.773  0.4706  0.0723 -0.4157
  585MOL0     N77138   6.867   7.245   0.670  0.5937  0.5754  0.3857
  585MOL0     N77139   6.971   7.190   0.615 -0.9690 -0.2389  0.2023
  585MOL0     C77140   8.245   7.600   0.285 -0.0043 -0.4824 -0.9358
  585MOL0     C77141   8.377   7.625   0.274 -0.2548 -0.8582  0.0747
  585MOL0     C77142   8.815   7.651   0.354  0.7242  0.2945  0.5283
  585MOL0     C77143   8.895   7.744   0.421 -0.5577  0.6267 -0.6551
  585MOL0     C77144   9.032   7.747   0.421 -0.2228 -0.9498 -0.0639
  585MOL0     C77145   9.098   7.662   0.333 -0.0967 -0.8617  0.6823
  585MOL0     O77146   9.233   7.657   0.325 -0.7873 -0.4467  0.2304
  585MOL0     C77147   9.317   7.624   0.438  0.3310 -0.3157 -0.6745
  585MOL0     C77148   9.465   7.598   0.399  0.5206 -0.6296 -0.5380
  585MOL0     C77149   9.478   7.493   0.301  0.0089  0.1745 -0.1354
  585MOL0     C77150   9.616   7.446   0.244  0.3082 -0.5938 -0.3086
  585MOL0     C77151   9.682   7.561   0.189  0.5148 -0.0677  0.2057
  585MOL0     C77152   9.734   7.670   0.157 -1.0565 -0.0144 -0.1805
  585MOL0     C77153   9.019   7.571   0.264  0.4656 -0.1211 -0.3603
  585MOL0     C77154   8.887   7.571   0.272  0.2129  0.6783 -0.7529
  585MOL0     H77155   8.496   7.312   0.337 -0.7206 -0.6523  1.4372
  585MOL0     H77156   8.270   7.270   0.352 -1.5619  0.9965  0.2248
  585MOL0     H77157   8.029   7.461   0.133 -1.8104 -2.6523 -0.5673
  585MOL0     H77158   7.949   7.567   0.251  1.4488  0.5915  1.9839
  585MOL0     H77159   7.861   7.279   0.267  2.8965  1.1052  1.5146
  585MOL0     H77160   7.806   7.381   0.132 -1.0306  0.2497 -0.1767
  585MOL0     H77161   7.716   7.562   0.294 -1.4415 -0.7183 -2.0729
  585MOL0     H77162   7.764   7.452   0.431  0.8054 -2.0612 -0.5749
  585MOL0     H77163   7.566   7.406   0.198  1.6743 -0.9282 -1.3984
  585MOL0     H77164   7.625   7.271   0.304 -3.6953 -0.3203 -0.4930
  585MOL0     H77165   7.461   7.521   0.373 -4.8240 -0.9090 -0.2003
  585MOL0     H77166   7.532   7.410   0.490  2.2778 -0.9670 -0.8074
  585MOL0     H77167   7.407   7.223   0.370 -3.9584 -1.4444  0.9205
  585MOL0     H77168   7.364   7.331   0.244  2.0674 -1.7695 -0.0271
  585MOL0     H77169   7.281   7.412   0.536 -1.3651  0.6869  1.1679
  585MOL0     H77170   7.205   7.456   0.388  1.4300  0.9952  0.3545
  585MOL0     H77171   7.196   7.169   0.500 -1.4342  0.9540  2.7174
  585MOL0     H77172   7.105   7.217   0.358 -1.4134 -1.5735  1.2511
  585MOL0     H77173   6.990   7.494   0.511 -0.0600  0.2128  1.5693
  585MOL0     H77174   6.782   7.573   0.634 -1.2699  0.1348 -0.6933
  585MOL0     H77175   6.828   7.519   0.793  0.2341 -0.8590  0.2496
  585MOL0     H77176   6.616   7.367   0.794 -1.9567  0.9596  1.5715
  585MOL0     H77177   6.578   7.411   0.629  0.0681  0.5891 -0.1136
  585MOL0     H77178   6.570   7.626   0.837 -1.0406 -1.1095 -0.5029
  585MOL0     H77179   6.542   7.620   0.668 -1.1367 -2.4548 -1.8541
  585MOL0     H77180   6.375   7.512   0.893 -0.8075 -3.3272  0.2854
  585MOL0     H77181   6.356   7.430   0.740 -1.1500 -1.0897  3.2161
  585MOL0     H77182   6.218   7.823   0.862  0.2383  0.0752 -0.9746
  585MOL0     H77183   5.988   7.858   0.968  0.9056 -0.4355  0.5322
  585MOL0     H77184   5.554   7.406   1.018  0.3406  0.4105 -0.7103
  585MOL0     H77185   5.327   7.408   1.093 -1.7882 -0.8939 -1.4536
  585MOL0     H77186   5.101   7.596   1.233 -1.5946 -3.0713  1.2615
  585MOL0     H77187   5.132   7.444   1.159 -0.9925 -0.2392  0.9312
  585MOL0     H77188   4.924   7.472   1.015 -1.2824  0.1509 -0.4222
  585MOL0     H77189   4.896   7.615   1.101  0.1197 -0.2303 -0.3341
  585MOL0     H77190   4.913   7.459   1.323 -3.5228  1.0374  1.4187
  585MOL0     H77191   4.907   7.323   1.207 -0.3056  0.5092 -1.9541
  585MOL0     H77192   4.695   7.362   1.308 -2.6110  0.2968 -1.7922
  585MOL0     H77193   4.685   7.523   1.253 -1.7916 -0.5018  0.2294
  585MOL0     H77194   4.714   7.275   1.086 -1.0178 -1.1754  1.4523
  585MOL0     H77195   4.712   7.443   1.020  0.1348  2.4443  0.9892
  585MOL0     H77196   4.468   7.468   1.078 -1.4313 -0.7738 -0.6768
  585MOL0     H77197   4.473   7.319   1.166  0.0886 -0.2797  0.0625
  585MOL0     H77198   4.384   7.333   0.903 -0.9663 -3.0598  0.6821
  585MOL0     H77199   4.552   7.313   0.860 -1.0200  0.2913 -1.4585
  585MOL0     H77200   4.550   7.101   0.979  0.9907 -0.8831 -0.2190
  585MOL0     H77201   4.448   7.117   0.833 -0.5423  0.6664  1.2390
  585MOL0     H77202   5.271   7.794   0.905 -0.5216  1.9651  0.6585
  585MOL0     H77203   5.535   7.808   0.883 -2.2706 -0.4523 -4.2606
  585MOL0     H77204   5.886   7.481   0.800 -2.5143  1.3973 -0.4128
  585MOL0     H77205   6.118   7.448   0.712 -0.7851 -1.5628  1.1327
  585MOL0     H77206   8.171   7.680   0.281  0.3414 -0.0933 -0.0199
  585MOL0     H77207   8.424   7.720   0.252 -0.3302 -0.9915 -0.6587
  585MOL0     H77208   8.840   7.811   0.487 -0.3122  0.2228 -0.0336
  585MOL0     H77209   9.092   7.819   0.474  0.7250 -3.0590  1.8678
  585MOL0     H77210   9.283   7.534   0.490 -1.4079  1.2240  1.0305
  585MOL0     H77211   9.310   7.706   0.510  1.9812  0.9177 -1.8279
  585MOL0     H77212   9.507   7.693   0.364 -0.3869 -0.5239 -1.3777
  585MOL0     H77213   9.527   7.564   0.482 -2.7571 -1.9744  1.5648
  585MOL0     H77214   9.413   7.519   0.217  0.4832 -0.3102 -0.6565
  585MOL0     H77215   9.441   7.398   0.340 -2.7513  1.5086  0.7913
  585MOL0     H77216   9.685   7.413   0.323  1.9139 -0.2955 -1.5199
  585MOL0     H77217   9.611   7.366   0.170  0.2714 -1.8807  1.0522
  585MOL0     H77218   9.771   7.765   0.125  0.0288 -0.6940 -1.0051
  585MOL0     H77219   9.064   7.500   0.196 -0.2649 -1.7019  0.7417
  585MOL0     H77220   8.826   7.506   0.210  0.2528  0.1847 -0.2810
  586MOL0     O77221   2.516  10.432   4.693 -0.0785  0.1269  0.3336
  586MOL0     C77222   2.538  10.554   4.697  0.1045  0.3995 -0.1996
  586MOL0     O77223   2.440  10.641   4.704 -0.7653  0.1527  0.4237
  586MOL0     C77224   2.317  10.602   4.671 -0.2021  0.4503 -0.7338
  586MOL0     C77225   2.224  10.605   4.775  0.2575  0.6365 -1.6379
  586MOL0     C77226   2.095  10.559   4.747 -0.1574  1.2344  0.3516
  586MOL0     C77227   2.065  10.511   4.621 -0.1251  0.3313 -0.9014
  586MOL0     O77228   1.936  10.467   4.608 -0.0262  0.5506  0.9785
  586MOL0     C77229   1.904  10.374   4.504  0.6028  0.1679  0.3759
  586MOL0     C77230   1.768  10.312   4.537 -0.8148  0.4766  1.0002
  586MOL0     C77231   1.646  10.408   4.548 -0.2050  0.4164  0.1129
  586MOL0     C77232   1.519  10.333   4.609  0.3897 -0.0863  0.8731
  586MOL0     C77233   1.389  10.416   4.583 -0.0894 -0.3623  0.1001
  586MOL0     C77234   1.374  10.533   4.682 -0.4178  0.3597 -0.7829
  586MOL0     C77235   1.258  10.622   4.644 -0.0932 -0.2796  0.6700
  586MOL0     C77236   1.132  10.549   4.627  0.3553  0.6146  0.6248
  586MOL0     N77237   1.023  10.642   4.577 -0.0497 -0.2251  0.8201
  586MOL0     C77238   0.991  10.773   4.618 -0.6615  1.2195  0.1966
  586MOL0     C77239   0.884  10.803   4.537  0.7990 -0.5550 -0.1994
  586MOL0     C77240   0.839  10.942   4.512 -0.1819 -0.2749  0.7503
  586MOL0     C77241   0.690  10.963   4.527 -0.8269  0.3432 -0.4425
  586MOL0     C77242   0.619  10.928   4.398  0.2534  0.1572 -0.1246
  586MOL0     C77243   0.472  10.966   4.401 -0.5927 -0.0147  0.2022
  586MOL0     O77244   0.451  11.110   4.400  0.3981 -0.1227 -0.1014
  586MOL0     C77245   0.318  11.154   4.395 -0.8411  0.6713 -0.4205
  586MOL0     C77246   0.203  11.072   4.365  0.3490 -0.7435  0.1273
  586MOL0     C77247   0.079  11.142   4.361  0.4993 -0.6731  0.2941
  586MOL0     C77248   0.067  11.278   4.408  0.3764  0.4722  0.2811
  586MOL0     C77249  -0.059  11.353   4.400 -0.7552 -0.1660 -0.1229
  586MOL0     O77250  -0.166  11.274   4.354 -0.1730  0.5022 -0.1201
  586MOL0     C77251  -0.297  11.308   4.369 -0.7153  0.6054  0.5725
  586MOL0     C77252  -0.384  11.236   4.288  0.2278  0.0835  0.2620
  586MOL0     C77253  -0.525  11.247   4.313 -0.9937  0.3170 -0.6162
  586MOL0     C77254  -0.575  11.327   4.409  0.9575  0.9175 -0.2424
  586MOL0     O77255  -0.712  11.344   4.430 -0.7475 -0.1429 -0.1307
  586MOL0     C77256  -0.758  11.471   4.467  0.0335 -0.6759 -0.3899
  586MOL0     C77257  -0.906  11.483   4.435 -0.0507 -0.2812  0.0608
  586MOL0     C77258  -0.982  11.596   4.502 -0.1634 -0.8407 -0.3261
  586MOL0     C77259  -0.992  11.575   4.655  0.4222  0.4167 -0.5496
  586MOL0     C77260  -1.051  11.682   4.745  0.4021 -0.6975 -0.6598
  586MOL0     C77261  -1.192  11.722   4.707 -0.2420  0.7706 -0.0759
  586MOL0     C77262  -1.246  11.838   4.789  0.4241  0.2146 -0.6500
  586MOL0     C77263  -1.376  11.876   4.727 -0.6189 -0.2564 -0.5189
  586MOL0    Cl77264  -1.508  11.768   4.777 -0.2218 -0.2148  0.0776
  586MOL0     C77265  -0.487  11.402   4.487  0.0910 -0.1848  0.8843
  586MOL0     C77266  -0.348  11.396   4.466 -0.3992 -0.2238  0.3437
  586MOL0     O77267  -0.064  11.469   4.437  0.1463 -0.5549 -0.0183
  586MOL0     C77268   0.176  11.348   4.452 -0.0627 -0.3966 -0.0770
  586MOL0     C77269   0.303  11.285   4.439 -0.3320 -1.3015 -0.3509
  586MOL0     N77270   0.851  10.696   4.458 -0.2255  0.3078  0.0416
  586MOL0     N77271   0.938  10.601   4.477  0.4726 -0.5004 -0.1565
  586MOL0     C77272   2.161  10.506   4.515  0.4124 -0.3196  0.7856
  586MOL0     C77273   2.290  10.551   4.543  0.7632 -0.5021 -0.3903
  586MOL0     C77274   2.683  10.600   4.699 -0.3337 -0.0268  0.7760
  586MOL0     C77275   2.710  10.738   4.663 -0.5520 -0.2100  0.5336
  586MOL0     C77276   2.843  10.783   4.664 -0.2604 -0.1365  0.3781
  586MOL0     C77277   2.952  10.693   4.668  0.3336 -0.4488  0.3037
  586MOL0     O77278   3.086  10.729   4.641  0.4057  0.2557  0.1740
  586MOL0     C77279   3.165  10.742   4.753  0.3817  0.1855 -0.1167
  586MOL0     C77280   3.313  10.781   4.727  1.3837 -0.8173  0.1406
  586MOL0     C77281   3.330  10.928   4.677  0.2318  1.3886  0.6407
  586MOL0     C77282   3.473  10.955   4.642 -0.8789 -0.1828 -0.5110
  586MOL0     C77283   3.514  10.883   4.520  0.1513 -0.0181 -0.1025
  586MOL0     C77284   3.556  10.826   4.420  0.2302 -0.3861 -0.3042
  586MOL0     C77285   2.931  10.558   4.704  0.0907  0.3472  0.1048
  586MOL0     C77286   2.801  10.510   4.708  0.5146  1.0571 -1.0207
  586MOL0     H77287   2.267  10.618   4.873  5.1723 -0.0545 -3.4294
  586MOL0     H77288   2.016  10.542   4.819 -2.0791 -0.5886 -2.0089
  586MOL0     H77289   1.978  10.294   4.490 -1.7639 -1.7100 -2.9989
  586MOL0     H77290   1.889  10.431   4.411 -3.0370  1.5167  1.6165
  586MOL0     H77291   1.782  10.265   4.635 -1.7277 -0.8513  0.5273
  586MOL0     H77292   1.739  10.249   4.453  1.2286  1.4986 -0.5520
  586MOL0     H77293   1.620  10.447   4.449  0.5823  0.3650 -0.1243
  586MOL0     H77294   1.683  10.490   4.610 -1.0876  2.9837 -2.4830
  586MOL0     H77295   1.503  10.236   4.562  0.6631  0.8518 -1.2437
  586MOL0     H77296   1.531  10.327   4.718  1.2095 -2.3577  0.7037
  586MOL0     H77297   1.309  10.342   4.590  0.5155 -1.0752 -0.2642
  586MOL0     H77298   1.382  10.457   4.482 -0.9484  0.3892  0.4597
  586MOL0     H77299   1.467  10.591   4.678 -1.1934  1.5945 -1.5690
  586MOL0     H77300   1.354  10.496   4.783  1.5552 -1.9391 -1.1647
  586MOL0     H77301   1.245  10.686   4.732  0.5534  0.6984  0.0572
  586MOL0     H77302   1.294  10.675   4.556 -0.3960 -1.4895 -0.2162
  586MOL0     H77303   1.092  10.501   4.717 -1.8356  2.9841  1.0516
  586MOL0     H77304   1.149  10.478   4.546  1.1248  3.9400 -2.4161
  586MOL0     H77305   1.051  10.827   4.690 -0.3545 -1.2048  1.8640
  586MOL0     H77306   0.875  10.980   4.415 -1.0485  1.7536  1.1729
  586MOL0     H77307   0.888  11.006   4.586 -1.4156 -0.3923  1.6975
  586MOL0     H77308   0.667  11.065   4.559 -4.4269 -0.7064  0.8048
  586MOL0     H77309   0.653  10.899   4.608  0.2624  1.3913  0.9216
  586MOL0     H77310   0.672  10.992   4.326 -0.1298  0.1062 -0.4549
  586MOL0     H77311   0.633  10.827   4.358  1.0911  1.2089 -2.7054
  586MOL0     H77312   0.418  10.916   4.482  2.0153  0.9879  2.7326
  586MOL0     H77313   0.435  10.917   4.311 -1.0462  0.7014 -0.0141
  586MOL0     H77314   0.213  10.967   4.340 -0.4595 -1.7500  3.5265
  586MOL0     H77315  -0.001  11.081   4.319  2.2850 -1.2395 -2.5569
  586MOL0     H77316  -0.346  11.161   4.220  0.1574 -0.5062  0.8632
  586MOL0     H77317  -0.598  11.185   4.261 -0.2241 -0.7949 -0.4206
  586MOL0     H77318  -0.705  11.557   4.426  0.1289 -0.2790  0.5374
  586MOL0     H77319  -0.744  11.483   4.575 -3.0369  1.8047 -0.1111
  586MOL0     H77320  -0.953  11.386   4.456  0.3887 -0.6343 -0.5841
  586MOL0     H77321  -0.922  11.502   4.329 -0.1172 -1.0788 -0.0787
  586MOL0     H77322  -1.079  11.620   4.458  1.2761  1.3479 -2.6432
  586MOL0     H77323  -0.930  11.691   4.484 -0.2800 -0.1818  2.4515
  586MOL0     H77324  -1.050  11.484   4.669  1.0922 -0.0829 -0.9897
  586MOL0     H77325  -0.891  11.550   4.689 -0.6473 -2.6977  0.6249
  586MOL0     H77326  -0.993  11.775   4.746 -0.3436 -0.0916  3.6307
  586MOL0     H77327  -1.050  11.655   4.851  0.4251  2.7524  0.3428
  586MOL0     H77328  -1.252  11.636   4.739 -0.7300  1.1717  0.0992
  586MOL0     H77329  -1.197  11.726   4.598  1.2042 -1.5928 -0.2969
  586MOL0     H77330  -1.263  11.815   4.895 -0.7015 -1.1888 -1.0994
  586MOL0     H77331  -1.177  11.921   4.777 -1.2870  1.6863 -0.7084
  586MOL0     H77332  -1.361  11.869   4.619  2.2086 -1.1367 -0.1608
  586MOL0     H77333  -1.396  11.981   4.748  0.8063  0.4372 -2.2952
  586MOL0     H77334  -0.533  11.465   4.563 -0.8835 -2.1466  1.9787
  586MOL0     H77335  -0.289  11.457   4.534  2.0768 -0.8177 -1.1221
  586MOL0     H77336   0.168  11.443   4.504 -0.1970 -0.1426 -0.5479
  586MOL0     H77337   0.386  11.335   4.489 -0.1581 -1.7240 -0.2176
  586MOL0     H77338   2.147  10.462   4.417  1.5480 -1.0736  0.9315
  586MOL0     H77339   2.372  10.548   4.472  0.2476  1.5674 -1.1629
  586MOL0     H77340   2.633  10.805   4.624  1.0275  0.2264 -2.1023
  586MOL0     H77341   2.867  10.884   4.634 -1.1888  0.4225  1.4142
  586MOL0     H77342   3.172  10.643   4.799  1.0003  0.1716 -0.2302
  586MOL0     H77343   3.122  10.816   4.820  0.3564  0.5880 -0.5690
  586MOL0     H77344   3.377  10.769   4.815  3.3789  0.5869 -1.0372
  586MOL0     H77345   3.347  10.709   4.651 -0.6919 -0.7005 -0.9751
  586MOL0     H77346   3.288  11.007   4.740 -2.8860  1.2650 -1.0289
  586MOL0     H77347   3.280  10.938   4.580  2.1703 -2.2639 -0.9227
  586MOL0     H77348   3.486  11.060   4.613 -0.0631 -0.1843 -0.1799
  586MOL0     H77349   3.541  10.920   4.720 -0.0183 -1.1731 -1.6646
  586MOL0     H77350   3.589  10.780   4.329  0.4102 -0.8797  0.0062
  586MOL0     H77351   3.020  10.499   4.725 -0.5751 -1.0480 -0.8347
  586MOL0     H77352   2.790  10.403   4.723 -0.6318  1.1610 -1.0375
  587MOL0     O77353   6.255   4.530  10.679  0.4569  0.3292  0.2262
  587MOL0     C77354   6.351   4.527  10.755  0.0597 -0.3985  0.0642
  587MOL0     O77355   6.403   4.416  10.812  0.1180  0.0311  0.8480
  587MOL0     C77356   6.321   4.312  10.845  0.6093 -0.0844 -1.1284
  587MOL0     C77357   6.236   4.246  10.755 -0.0265  0.4264 -0.1223
  587MOL0     C77358   6.140   4.157  10.788  0.5200  0.0299 -0.8744
  587MOL0     C77359   6.128   4.125  10.925 -0.2676  0.3299 -0.9088
  587MOL0     O77360   6.045   4.024  10.969 -0.0785  0.0112 -0.2661
  587MOL0     C77361   5.920   4.030  10.900  0.7151  0.4876 -0.0039
  587MOL0     C77362   5.811   3.957  10.980 -0.7787 -0.0111 -0.5709
  587MOL0     C77363   5.666   3.983  10.921 -0.8002  0.2540  0.2454
  587MOL0     C77364   5.575   3.878  10.978 -0.2390 -0.7933 -0.4441
  587MOL0     C77365   5.433   3.901  10.943 -0.1404 -0.0179  0.6796
  587MOL0     C77366   5.359   3.766  10.968 -0.2822 -0.3137  0.3037
  587MOL0     C77367   5.215   3.784  10.934  0.7433  0.3215  0.0841
  587MOL0     C77368   5.143   3.657  10.990  0.5067  0.5970  0.4202
  587MOL0     N77369   5.156   3.540  10.901  0.1908  0.0784  0.7241
  587MOL0     C77370   5.228   3.526  10.777 -0.5738  0.8057 -1.0797
  587MOL0     C77371   5.195   3.402  10.733  0.7135  0.3514  0.5758
  587MOL0     C77372   5.246   3.350  10.610 -0.3095 -0.3576  0.0691
  587MOL0     C77373   5.386   3.285  10.630 -0.6856  0.2441  0.9002
  587MOL0     C77374   5.488   3.342  10.518  0.6048 -0.2265  0.5353
  587MOL0     C77375   5.634   3.322  10.562 -0.1895 -0.0917 -0.1419
  587MOL0     O77376   5.660   3.378  10.699 -0.0418 -0.4134  0.5617
  587MOL0     C77377   5.761   3.470  10.708 -0.6416 -1.2284 -0.4649
  587MOL0     C77378   5.739   3.611  10.695 -0.7360 -0.2701 -0.7046
  587MOL0     C77379   5.852   3.689  10.665  0.4425 -0.2107  0.1373
  587MOL0     C77380   5.988   3.632  10.678  0.5729  0.5888 -1.1208
  587MOL0     C77381   6.109   3.716  10.672 -0.5116 -0.6517 -0.0091
  587MOL0     O77382   6.230   3.665  10.689  0.1568 -0.3807 -0.4809
  587MOL0     C77383   6.334   3.750  10.684 -0.3353 -0.0522 -0.2317
  587MOL0     C77384   6.440   3.732  10.595 -0.3654 -0.3295 -0.3445
  587MOL0     C77385   6.552   3.816  10.588  0.3119 -0.1463  0.5206
  587MOL0     C77386   6.568   3.929  10.674 -0.2957  0.8347 -0.0469
  587MOL0     O77387   6.670   4.014  10.643 -0.4954  0.3505  0.1614
  587MOL0     C77388   6.705   4.090  10.758 -0.0219  0.6625  0.1939
  587MOL0     C77389   6.833   4.165  10.733  0.4895  0.9339 -0.0038
  587MOL0     C77390   6.859   4.277  10.832 -0.9545 -0.3270 -1.1607
  587MOL0     C77391   6.961   4.385  10.787  0.6318 -0.4902 -0.0845
  587MOL0     C77392   6.998   4.474  10.899  0.3849  0.4212  0.0750
  587MOL0     C77393   7.068   4.594  10.843 -1.6969 -0.5921  0.1598
  587MOL0     C77394   7.150   4.681  10.937  0.3131 -0.5655 -0.9791
  587MOL0     C77395   7.154   4.822  10.875 -0.2299 -0.3100  0.1747
  587MOL0    Cl77396   7.008   4.897  10.931 -0.0214 -0.1249  0.3606
  587MOL0     C77397   6.459   3.957  10.758  0.4831  0.3528  0.3301
  587MOL0     C77398   6.350   3.871  10.760 -1.4741 -0.1951  0.3844
  587MOL0     O77399   6.084   3.836  10.652 -0.2795 -0.1659  0.0407
  587MOL0     C77400   6.000   3.496  10.702 -0.2147  0.0519  0.0056
  587MOL0     C77401   5.886   3.420  10.710  0.5878 -0.4908 -0.1909
  587MOL0     N77402   5.115   3.333  10.821 -0.5607  0.0131 -0.0139
  587MOL0     N77403   5.087   3.423  10.912 -0.6995 -0.6194  0.1956
  587MOL0     C77404   6.216   4.183  11.018 -0.3713 -0.0012  0.4780
  587MOL0     C77405   6.309   4.281  10.980  0.1728 -0.0718  0.7866
  587MOL0     C77406   6.442   4.639  10.767  0.2491 -0.1878 -0.3264
  587MOL0     C77407   6.384   4.769  10.744 -0.5602  0.3901  0.3619
  587MOL0     C77408   6.469   4.878  10.759  0.0526 -0.6127  0.1135
  587MOL0     C77409   6.603   4.878  10.784 -0.6063 -0.0530 -0.0381
  587MOL0     O77410   6.691   4.986  10.778 -0.0104  0.1451  0.2705
  587MOL0     C77411   6.665   5.110  10.720 -0.4361 -0.6444 -0.5919
  587MOL0     C77412   6.689   5.106  10.570 -0.4739  0.3972  0.3766
  587MOL0     C77413   6.843   5.104  10.531  1.4211 -0.0808  0.4181
  587MOL0     C77414   6.850   5.063  10.381  0.0033 -0.2565  0.0071
  587MOL0     C77415   6.927   5.161  10.302 -0.1362 -0.5735  0.1637
  587MOL0     C77416   7.012   5.226  10.242  0.1188 -0.1438 -0.8058
  587MOL0     C77417   6.650   4.752  10.833  0.2637  0.2320  0.1259
  587MOL0     C77418   6.575   4.636  10.824  0.3190  0.3970  0.1235
  587MOL0     H77419   6.245   4.256  10.647  1.2851 -1.7998 -0.2912
  587MOL0     H77420   6.090   4.098  10.712 -1.0009  0.4294 -0.2306
  587MOL0     H77421   5.922   3.974  10.806  1.3750  2.1983 -1.0555
  587MOL0     H77422   5.892   4.134  10.881 -0.6148  0.3042  0.8367
  587MOL0     H77423   5.811   4.000  11.081 -1.8757  1.9078 -1.3402
  587MOL0     H77424   5.831   3.849  10.985  1.3348  0.2615 -2.0111
  587MOL0     H77425   5.663   3.973  10.812 -0.3134  2.8906 -0.0780
  587MOL0     H77426   5.630   4.079  10.959 -3.7849 -1.1543  1.3053
  587MOL0     H77427   5.612   3.783  10.937  1.4769  0.5949 -2.3629
  587MOL0     H77428   5.588   3.883  11.086  2.2300 -0.6229 -0.6802
  587MOL0     H77429   5.422   3.918  10.836  2.0652  1.8658  0.6722
  587MOL0     H77430   5.384   3.982  10.999  1.2855  0.8083  0.7930
  587MOL0     H77431   5.361   3.752  11.076 -4.2136  0.7118  0.6396
  587MOL0     H77432   5.410   3.695  10.903 -3.0007  1.3441 -4.1217
  587MOL0     H77433   5.175   3.869  10.991  2.4376  0.3440  1.3071
  587MOL0     H77434   5.203   3.792  10.826  1.8278  0.4193 -0.0342
  587MOL0     H77435   5.037   3.683  10.992  0.8105  1.8695  1.1213
  587MOL0     H77436   5.167   3.647  11.096 -1.0685  0.1951  0.7678
  587MOL0     H77437   5.304   3.588  10.731 -0.6249 -0.1010 -2.4176
  587MOL0     H77438   5.240   3.435  10.542 -1.0119 -0.1671  0.3595
  587MOL0     H77439   5.173   3.276  10.576  0.7445 -2.4857  2.1187
  587MOL0     H77440   5.380   3.176  10.622 -1.1573  0.1717  2.0163
  587MOL0     H77441   5.427   3.308  10.728 -2.7300  0.0604  1.8564
  587MOL0     H77442   5.475   3.281  10.428 -1.1598  0.8113  0.0465
  587MOL0     H77443   5.469   3.447  10.493 -0.4402 -0.0786  1.8388
  587MOL0     H77444   5.706   3.364  10.491  0.8964  1.6222  1.8342
  587MOL0     H77445   5.646   3.215  10.578 -1.1995 -0.1038  0.6359
  587MOL0     H77446   5.640   3.652  10.684 -1.3959 -0.7707  2.3705
  587MOL0     H77447   5.853   3.795  10.645  3.6442 -0.1751 -0.0885
  587MOL0     H77448   6.439   3.640  10.537  0.2426 -0.1918 -0.5792
  587MOL0     H77449   6.634   3.798  10.520  3.3478  2.1853  3.2561
  587MOL0     H77450   6.724   4.019  10.838 -3.2340 -0.4709  0.0802
  587MOL0     H77451   6.631   4.165  10.788  1.7877  3.2685 -1.3967
  587MOL0     H77452   6.833   4.200  10.629 -0.6183  2.4179  0.4562
  587MOL0     H77453   6.916   4.094  10.724 -1.9070 -1.9928 -0.5947
  587MOL0     H77454   6.883   4.240  10.932 -0.6361 -0.4447 -1.2789
  587MOL0     H77455   6.770   4.339  10.842 -0.9589 -0.3388 -1.1283
  587MOL0     H77456   7.052   4.334  10.755 -0.0900 -0.7531 -1.8196
  587MOL0     H77457   6.921   4.430  10.696  0.2789 -1.3109 -0.3482
  587MOL0     H77458   7.047   4.411  10.974  1.4727 -2.2579 -2.6882
  587MOL0     H77459   6.907   4.517  10.942 -0.3914 -1.9277  0.9174
  587MOL0     H77460   7.008   4.656  10.776  0.4233  1.9317  0.4629
  587MOL0     H77461   7.147   4.556  10.777 -2.3458 -0.7175 -0.5675
  587MOL0     H77462   7.119   4.677  11.042 -1.8343  0.4763 -1.4975
  587MOL0     H77463   7.256   4.657  10.941  0.7044  1.2548  1.1989
  587MOL0     H77464   7.161   4.805  10.768 -0.8721  1.4623 -0.1871
  587MOL0     H77465   7.236   4.891  10.900 -1.7380  0.9124  2.1091
  587MOL0     H77466   6.469   4.038  10.828  1.2133 -2.2634  3.5047
  587MOL0     H77467   6.277   3.894  10.837 -1.4122 -0.0856  0.4109
  587MOL0     H77468   6.092   3.446  10.728 -2.9883 -4.7075  1.8360
  587MOL0     H77469   5.907   3.314  10.719 -0.6701 -1.2707 -4.4253
  587MOL0     H77470   6.193   4.164  11.122 -1.6400  0.4467  0.2877
  587MOL0     H77471   6.374   4.327  11.054  0.9743 -1.7661  1.1924
  587MOL0     H77472   6.281   4.782  10.714 -1.3468 -1.6869  1.9181
  587MOL0     H77473   6.424   4.976  10.743 -1.0196 -1.0823  0.1916
  587MOL0     H77474   6.736   5.179  10.766  0.1113 -0.7812 -1.2038
  587MOL0     H77475   6.569   5.157  10.742  0.4205  2.3284 -2.5368
  587MOL0     H77476   6.643   5.011  10.541  0.0019 -0.0260  0.9738
  587MOL0     H77477   6.632   5.185  10.521  1.3616  2.2131  1.0444
  587MOL0     H77478   6.889   5.031  10.599  0.4372 -1.1976 -0.0976
  587MOL0     H77479   6.898   5.198  10.542  3.4791 -1.1264 -0.3127
  587MOL0     H77480   6.903   4.967  10.377  0.5827  0.1067 -2.4210
  587MOL0     H77481   6.755   5.049  10.329  0.1709 -0.1537 -0.3281
  587MOL0     H77482   7.079   5.266  10.168 -0.9493  2.0501 -0.6697
  587MOL0     H77483   6.746   4.725  10.875 -0.0784 -1.5912 -0.2028
  587MOL0     H77484   6.623   4.548  10.865 -1.5640 -0.3000  0.9311
  588MOL0     O77485   9.452   5.472   5.716  0.2945 -0.7336  0.0647
  588MOL0     C77486   9.412   5.492   5.829 -0.3485 -0.3351  0.0125
  588MOL0     O77487   9.285   5.534   5.860 -0.6053  0.1481 -0.2575
  588MOL0     C77488   9.182   5.547   5.767 -0.0821  0.5923 -0.0841
  588MOL0     C77489   9.070   5.615   5.815  0.0801 -0.3960  0.0942
  588MOL0     C77490   8.951   5.642   5.743  0.8806  0.1543  0.4942
  588MOL0     C77491   8.953   5.591   5.610 -0.6503  0.2612  1.0354
  588MOL0     O77492   8.852   5.624   5.527 -0.3460 -0.0344 -0.9033
  588MOL0     C77493   8.839   5.576   5.393 -0.7152 -0.1518 -0.2163
  588MOL0     C77494   8.720   5.643   5.321  0.5455 -0.2260  0.1182
  588MOL0     C77495   8.582   5.584   5.384  0.0638  0.5619 -0.1759
  588MOL0     C77496   8.481   5.581   5.279 -0.6833 -0.1437  0.7502
  588MOL0     C77497   8.346   5.525   5.336 -0.6479 -0.3773 -0.3620
  588MOL0     C77498   8.246   5.495   5.223  0.0691 -0.4521  0.1386
  588MOL0     C77499   8.280   5.369   5.138  0.2737  0.2183  0.0809
  588MOL0     C77500   8.250   5.239   5.228 -0.2736 -0.1464  0.5803
  588MOL0     N77501   8.110   5.216   5.244  0.8763  0.4263  0.5921
  588MOL0     C77502   8.020   5.153   5.153  0.4323 -0.3310 -0.2028
  588MOL0     C77503   7.917   5.128   5.229  0.3904  0.1324 -0.1987
  588MOL0     C77504   7.796   5.055   5.183 -0.3871  1.3069  0.0572
  588MOL0     C77505   7.675   5.094   5.269 -0.6857  0.5082  0.7275
  588MOL0     C77506   7.562   4.998   5.255 -0.2022 -0.2197 -0.7019
  588MOL0     C77507   7.423   5.063   5.236 -0.1653 -0.3957 -0.1021
  588MOL0     O77508   7.316   4.962   5.227 -0.0412 -0.4454  0.2894
  588MOL0     C77509   7.185   4.993   5.231  0.2211 -0.6327  1.0641
  588MOL0     C77510   7.083   4.912   5.278 -0.3767  0.9713 -0.6460
  588MOL0     C77511   6.950   4.942   5.280 -0.5352  0.1236  0.1046
  588MOL0     C77512   6.909   5.065   5.224 -1.1196  1.0448 -0.9548
  588MOL0     C77513   6.770   5.109   5.225 -0.6029  0.3195  0.0941
  588MOL0     O77514   6.690   5.026   5.301 -0.5328 -0.2077 -0.2085
  588MOL0     C77515   6.560   5.057   5.314  0.5223  0.1253  0.5043
  588MOL0     C77516   6.460   4.979   5.247  0.6705  0.1666 -1.2340
  588MOL0     C77517   6.327   5.008   5.273 -0.6487 -0.2299 -0.3079
  588MOL0     C77518   6.283   5.101   5.369 -0.1757 -0.8171  0.0644
  588MOL0     O77519   6.149   5.116   5.402  0.0461 -0.2516  0.9298
  588MOL0     C77520   6.122   5.115   5.543 -0.2427  0.3668  0.5208
  588MOL0     C77521   6.009   5.013   5.569  0.0688 -0.7640 -0.2734
  588MOL0     C77522   5.955   5.026   5.711  0.9616  0.7563  0.5083
  588MOL0     C77523   5.847   4.910   5.749 -0.0389 -0.6925 -0.3332
  588MOL0     C77524   5.770   4.935   5.879  0.3467 -0.1689 -0.4868
  588MOL0     C77525   5.644   4.840   5.877  0.9783  0.2914  0.0446
  588MOL0     C77526   5.590   4.829   6.023  0.4640 -0.3398 -0.7467
  588MOL0     C77527   5.442   4.783   6.020  1.2759  0.7255  0.2944
  588MOL0    Cl77528   5.376   4.785   6.185  0.2184  0.2953  0.1594
  588MOL0     C77529   6.387   5.182   5.421  0.0416  0.2952  0.3717
  588MOL0     C77530   6.521   5.162   5.390  0.3110  0.4752 -0.2558
  588MOL0     O77531   6.742   5.209   5.166 -0.8341 -0.0878  0.4581
  588MOL0     C77532   7.010   5.145   5.165  0.5840 -0.3486  0.4966
  588MOL0     C77533   7.144   5.112   5.169 -0.0972  0.4272 -1.0659
  588MOL0     N77534   7.942   5.175   5.355  0.2860  0.3386  0.3515
  588MOL0     N77535   8.052   5.231   5.365  1.3761 -0.3398 -0.4195
  588MOL0     C77536   9.060   5.511   5.568  0.3346  0.7587 -0.8380
  588MOL0     C77537   9.178   5.499   5.643  0.4824  0.9978 -0.0247
  588MOL0     C77538   9.519   5.485   5.940  0.2494 -0.0304 -0.3164
  588MOL0     C77539   9.502   5.526   6.075 -0.5524 -0.8777 -0.5945
  588MOL0     C77540   9.596   5.509   6.174 -1.1346 -0.4045 -0.3240
  588MOL0     C77541   9.716   5.442   6.141 -0.0447  0.3628 -0.3943
  588MOL0     O77542   9.787   5.399   6.258  0.2023  0.2965 -0.4248
  588MOL0     C77543   9.896   5.303   6.241 -0.0047  0.6167 -0.1028
  588MOL0     C77544  10.030   5.372   6.216  0.0376 -0.1516 -0.2117
  588MOL0     C77545  10.136   5.282   6.164 -0.2363  0.3813  0.1305
  588MOL0     C77546  10.268   5.359   6.140  0.5607 -0.4630  0.3237
  588MOL0     C77547  10.265   5.482   6.055  0.1098  0.0885  0.6388
  588MOL0     C77548  10.289   5.583   5.990  0.0300  0.2793 -0.3020
  588MOL0     C77549   9.730   5.395   6.007 -0.4069 -0.6455  0.5726
  588MOL0     C77550   9.638   5.423   5.905  0.5910 -0.6339 -0.1271
  588MOL0     H77551   9.082   5.652   5.916 -0.5772  0.9848 -0.2976
  588MOL0     H77552   8.870   5.695   5.793  2.4023  1.6943  1.4628
  588MOL0     H77553   8.822   5.468   5.389 -1.6896  0.0165 -1.7420
  588MOL0     H77554   8.928   5.611   5.341 -0.1854 -0.4524  0.4840
  588MOL0     H77555   8.727   5.607   5.217  3.1077  0.1243  0.1095
  588MOL0     H77556   8.716   5.752   5.322 -1.0755 -0.1986  3.5715
  588MOL0     H77557   8.543   5.627   5.477  1.0400  0.2725  0.3781
  588MOL0     H77558   8.600   5.481   5.416  2.0200  0.8418 -0.2969
  588MOL0     H77559   8.459   5.684   5.252 -1.0780  0.7413  3.9647
  588MOL0     H77560   8.511   5.517   5.196  2.2678  1.0176  0.8253
  588MOL0     H77561   8.299   5.605   5.394  0.8020 -0.3474  0.8063
  588MOL0     H77562   8.360   5.438   5.401  0.3561  0.7559  0.9900
  588MOL0     H77563   8.243   5.584   5.160 -2.4449 -0.0958  0.6602
  588MOL0     H77564   8.145   5.477   5.259  1.0352 -1.5934  2.4824
  588MOL0     H77565   8.230   5.367   5.041  0.6339 -1.6456 -0.1087
  588MOL0     H77566   8.387   5.367   5.113  0.0598 -0.4871 -0.8006
  588MOL0     H77567   8.298   5.247   5.326  0.3333  2.3901  0.1315
  588MOL0     H77568   8.287   5.146   5.182 -1.5107 -2.1647  3.3669
  588MOL0     H77569   8.044   5.124   5.051 -0.8238  3.3766 -1.7046
  588MOL0     H77570   7.815   4.950   5.204  1.1078  1.4369 -0.5030
  588MOL0     H77571   7.774   5.074   5.077 -0.1752 -0.1549 -0.2674
  588MOL0     H77572   7.637   5.195   5.254 -0.0628  0.9128  1.7261
  588MOL0     H77573   7.690   5.104   5.377 -2.0175 -2.0580  1.2301
  588MOL0     H77574   7.575   4.930   5.170  0.1422 -1.2243  0.1342
  588MOL0     H77575   7.555   4.928   5.339 -0.3025 -0.6342 -1.0563
  588MOL0     H77576   7.418   5.120   5.143  1.4008 -1.4859 -0.9075
  588MOL0     H77577   7.391   5.138   5.309 -0.5459 -0.0944 -0.5735
  588MOL0     H77578   7.111   4.818   5.324  0.9121  1.5704 -0.1619
  588MOL0     H77579   6.878   4.866   5.308  0.2625  0.4858  3.4885
  588MOL0     H77580   6.479   4.891   5.186 -3.0359 -1.7951  0.1504
  588MOL0     H77581   6.245   4.957   5.224 -1.5392 -1.5057  2.3410
  588MOL0     H77582   6.088   5.211   5.581 -1.2493  0.1897  0.1249
  588MOL0     H77583   6.203   5.073   5.603 -1.3933 -2.1499  0.4903
  588MOL0     H77584   6.056   4.915   5.558 -2.3908 -2.2177  1.1658
  588MOL0     H77585   5.925   5.007   5.499 -0.9170  0.2755  0.7765
  588MOL0     H77586   5.925   5.128   5.736 -2.6134 -0.2650  0.8458
  588MOL0     H77587   6.034   5.004   5.784 -0.2929 -0.6265  1.5171
  588MOL0     H77588   5.784   4.900   5.660  0.5038  1.4768 -1.0274
  588MOL0     H77589   5.915   4.824   5.750  2.5360  1.2178  0.7303
  588MOL0     H77590   5.721   5.033   5.884 -3.0911 -1.7916  1.3256
  588MOL0     H77591   5.830   4.911   5.967  0.9896  1.6951 -0.3627
  588MOL0     H77592   5.663   4.739   5.842  0.1555  0.6815 -1.6126
  588MOL0     H77593   5.572   4.885   5.808 -0.8401 -2.7844 -0.2436
  588MOL0     H77594   5.640   4.750   6.081  0.4804  1.8244  2.4472
  588MOL0     H77595   5.597   4.926   6.073 -0.9117 -1.7625  2.4710
  588MOL0     H77596   5.438   4.681   5.980 -2.1074 -1.1725  4.6955
  588MOL0     H77597   5.382   4.846   5.955 -1.3318 -0.6910  1.1944
  588MOL0     H77598   6.363   5.263   5.489 -0.2370 -0.2566  0.9483
  588MOL0     H77599   6.597   5.224   5.436  3.0358 -1.7963 -1.4397
  588MOL0     H77600   6.989   5.245   5.128  1.9422 -0.2935 -0.2045
  588MOL0     H77601   7.205   5.195   5.133 -0.1093  1.5337  1.2742
  588MOL0     H77602   9.051   5.463   5.471 -0.6468 -0.3220 -0.2401
  588MOL0     H77603   9.264   5.447   5.603  0.3570  2.0437 -1.8073
  588MOL0     H77604   9.408   5.565   6.112  1.5125  2.5377  1.5516
  588MOL0     H77605   9.589   5.540   6.278 -2.2912 -0.6465 -0.3148
  588MOL0     H77606   9.876   5.236   6.157 -1.1901  1.5828 -0.6281
  588MOL0     H77607   9.909   5.244   6.333 -1.9167 -0.6403 -0.5604
  588MOL0     H77608  10.017   5.451   6.141 -1.7689 -0.6488 -0.4560
  588MOL0     H77609  10.063   5.409   6.314  0.2776 -0.5450 -0.1407
  588MOL0     H77610  10.096   5.233   6.074  0.9264 -2.7747  1.1940
  588MOL0     H77611  10.155   5.198   6.231 -1.2111 -0.4224 -0.5743
  588MOL0     H77612  10.303   5.399   6.235  1.4502  1.7668 -0.8683
  588MOL0     H77613  10.344   5.296   6.094  0.6039  1.0969 -1.9302
  588MOL0     H77614  10.316   5.670   5.934 -0.9082 -0.8727 -2.6904
  588MOL0     H77615   9.817   5.341   5.971  0.1307  1.1814 -1.0534
  588MOL0     H77616   9.662   5.400   5.802  1.3376  0.3557 -0.1968
  589MOL0     O77617   9.592   5.003   1.705 -0.2089  0.5112 -0.1968
  589MOL0     C77618   9.664   5.055   1.617  0.7739 -0.0048  0.3879
  589MOL0     O77619   9.634   5.051   1.481 -0.1782  0.0888  0.1956
  589MOL0     C77620   9.524   4.993   1.424  0.2912  1.5492 -0.9497
  589MOL0     C77621   9.401   4.975   1.485 -0.4621  0.4782 -0.2947
  589MOL0     C77622   9.293   4.899   1.429 -0.7679 -0.0007 -0.7092
  589MOL0     C77623   9.314   4.839   1.297  0.3880  0.0421  0.1658
  589MOL0     O77624   9.212   4.776   1.232  0.2115  0.3040 -0.0610
  589MOL0     C77625   9.092   4.734   1.309  0.6671  0.4557 -0.1813
  589MOL0     C77626   9.010   4.621   1.241  0.0877  0.0198 -0.2251
  589MOL0     C77627   8.937   4.681   1.121 -0.3524  0.1324 -0.3120
  589MOL0     C77628   8.830   4.591   1.056 -0.7993 -0.1749  0.9685
  589MOL0     C77629   8.742   4.649   0.953  0.1381  0.2973  0.6699
  589MOL0     C77630   8.641   4.737   1.023 -0.1924  1.3590  0.1237
  589MOL0     C77631   8.565   4.820   0.920  0.7652  0.1541  0.2610
  589MOL0     C77632   8.487   4.735   0.831  0.4421 -0.7213  1.2210
  589MOL0     N77633   8.391   4.653   0.893 -0.2183 -0.9233 -0.6540
  589MOL0     C77634   8.357   4.533   0.830  0.0937 -1.2142 -0.4511
  589MOL0     C77635   8.291   4.470   0.914 -0.1022 -0.6350  0.2301
  589MOL0     C77636   8.249   4.328   0.913  0.8914  0.0482  0.2636
  589MOL0     C77637   8.132   4.303   0.813  0.3282 -0.3248  0.4181
  589MOL0     C77638   8.098   4.152   0.818  0.4659 -0.1085 -0.4274
  589MOL0     C77639   7.968   4.125   0.748 -0.1838 -0.2682 -0.5508
  589MOL0     O77640   7.938   3.981   0.749  0.9538  0.1159  0.1082
  589MOL0     C77641   7.810   3.943   0.721  0.0967 -0.1079 -0.2167
  589MOL0     C77642   7.770   3.813   0.746 -0.3244  0.0522 -0.4657
  589MOL0     C77643   7.636   3.780   0.723 -0.0277 -0.0154 -0.0562
  589MOL0     C77644   7.541   3.869   0.664 -0.7946 -0.2900 -0.7617
  589MOL0     C77645   7.404   3.829   0.642 -0.2755  0.2633  0.7378
  589MOL0     O77646   7.380   3.695   0.633  0.3137  0.0164  0.8133
  589MOL0     C77647   7.250   3.659   0.618  1.0512 -0.5635 -0.4252
  589MOL0     C77648   7.189   3.649   0.492  0.1542 -1.1867 -0.3929
  589MOL0     C77649   7.059   3.613   0.483  0.8077 -0.5718 -0.2873
  589MOL0     C77650   6.987   3.587   0.602 -0.8092 -0.3286  0.2917
  589MOL0     O77651   6.850   3.555   0.591  0.1067  0.0407 -0.0354
  589MOL0     C77652   6.778   3.522   0.712 -0.2363  0.4058  0.2546
  589MOL0     C77653   6.636   3.470   0.667 -0.4272  0.2411 -0.1283
  589MOL0     C77654   6.525   3.462   0.781  0.3911  0.0059  0.0176
  589MOL0     C77655   6.399   3.402   0.733  0.1980 -0.4973  0.2469
  589MOL0     C77656   6.284   3.446   0.819 -0.2157 -0.2410 -0.3281
  589MOL0     C77657   6.144   3.404   0.771  1.0834  0.4488 -0.0051
  589MOL0     C77658   6.049   3.414   0.894  0.0147  0.4301 -0.1906
  589MOL0     C77659   5.919   3.318   0.881  0.4532 -0.2466 -0.6519
  589MOL0    Cl77660   5.951   3.144   0.898  0.0737  0.4327 -0.3229
  589MOL0     C77661   7.055   3.580   0.724 -0.7137 -0.2912 -0.5939
  589MOL0     C77662   7.187   3.619   0.736 -0.3716  0.2095 -0.0384
  589MOL0     O77663   7.321   3.922   0.649  0.0861  0.2121 -0.3303
  589MOL0     C77664   7.583   4.000   0.643  0.1219  0.5260 -0.4231
  589MOL0     C77665   7.711   4.043   0.678 -0.1969 -0.4725  1.2117
  589MOL0     N77666   8.271   4.555   1.030 -0.1278 -0.4278  0.3195
  589MOL0     N77667   8.324   4.670   1.011  0.3308 -0.2788 -0.5993
  589MOL0     C77668   9.440   4.865   1.232  0.7571 -0.5877  0.4642
  589MOL0     C77669   9.549   4.925   1.301  0.7157 -0.3625 -0.3919
  589MOL0     C77670   9.783   5.142   1.652  0.6521 -0.9763 -0.2704
  589MOL0     C77671   9.815   5.169   1.781 -0.4068  0.5731 -0.0401
  589MOL0     C77672   9.926   5.253   1.805  0.1986 -0.3289 -0.5890
  589MOL0     C77673  10.012   5.296   1.702  0.1814 -0.2285 -0.0423
  589MOL0     O77674  10.125   5.372   1.722  0.2512  0.5776  0.4177
  589MOL0     C77675  10.159   5.400   1.858 -1.5368  0.5105  0.5186
  589MOL0     C77676  10.294   5.450   1.847  1.0941 -0.3759  0.4331
  589MOL0     C77677  10.308   5.593   1.803 -0.6497 -0.4855 -0.7500
  589MOL0     C77678  10.462   5.650   1.804  0.8698 -0.3451 -0.3266
  589MOL0     C77679  10.530   5.640   1.930  0.4542  0.2831  0.9015
  589MOL0     C77680  10.549   5.613   2.047  1.0091 -0.7290  0.1932
  589MOL0     C77681   9.981   5.264   1.573  0.2256  0.1070 -0.9891
  589MOL0     C77682   9.870   5.181   1.542 -0.1712 -0.3267  0.4020
  589MOL0     H77683   9.388   5.034   1.576 -0.0705  0.7233 -0.3950
  589MOL0     H77684   9.195   4.886   1.474 -0.9868 -0.2557 -1.2616
  589MOL0     H77685   9.024   4.819   1.321 -0.4835 -0.7228  2.4180
  589MOL0     H77686   9.112   4.691   1.407 -1.6810 -0.7959 -0.1875
  589MOL0     H77687   8.942   4.581   1.317  1.1921 -0.3476  0.6082
  589MOL0     H77688   9.071   4.540   1.200 -2.5686 -1.1983 -1.9948
  589MOL0     H77689   9.017   4.695   1.048  0.5122  1.3418  0.8139
  589MOL0     H77690   8.888   4.777   1.138 -0.5547  0.3389 -1.9613
  589MOL0     H77691   8.877   4.498   1.022  0.3307  0.8420 -0.4027
  589MOL0     H77692   8.777   4.557   1.146 -0.5655  1.2176  1.6617
  589MOL0     H77693   8.686   4.560   0.920  1.2148 -1.5748  3.4703
  589MOL0     H77694   8.795   4.710   0.881  0.6323  2.8113  2.9887
  589MOL0     H77695   8.690   4.806   1.092  1.7121 -2.1983  2.6505
  589MOL0     H77696   8.565   4.676   1.073 -0.1733  0.5708 -0.7764
  589MOL0     H77697   8.488   4.887   0.959  0.5241  0.6055 -0.9374
  589MOL0     H77698   8.635   4.880   0.860  0.0086  1.8045  0.9555
  589MOL0     H77699   8.555   4.672   0.773 -1.5030 -3.0151  1.2251
  589MOL0     H77700   8.416   4.782   0.762 -0.2084 -0.4102  2.0854
  589MOL0     H77701   8.405   4.510   0.735  1.0615  2.9161 -1.1492
  589MOL0     H77702   8.216   4.306   1.015 -0.6729  1.4984  0.1174
  589MOL0     H77703   8.340   4.280   0.875  1.2630  0.9059  0.0385
  589MOL0     H77704   8.159   4.342   0.714  0.4129  2.0609  1.2991
  589MOL0     H77705   8.053   4.370   0.849 -0.5614 -1.2011  0.1367
  589MOL0     H77706   8.171   4.088   0.768 -1.4739 -3.6337  0.9179
  589MOL0     H77707   8.103   4.112   0.919  1.2172 -0.8210 -0.7338
  589MOL0     H77708   7.970   4.177   0.652 -2.1495  0.7089 -0.1103
  589MOL0     H77709   7.895   4.181   0.807 -0.3742  1.1845 -2.1108
  589MOL0     H77710   7.846   3.751   0.791 -0.4986  0.0831 -0.1307
  589MOL0     H77711   7.597   3.685   0.759 -2.2093  1.1480  0.8752
  589MOL0     H77712   7.251   3.678   0.408  1.3201  0.8893  1.0903
  589MOL0     H77713   7.014   3.595   0.386 -1.1188 -3.2721  0.9717
  589MOL0     H77714   6.763   3.609   0.776 -1.1290 -0.8579  1.8416
  589MOL0     H77715   6.829   3.442   0.766  2.1576  0.9692 -1.0545
  589MOL0     H77716   6.658   3.376   0.616  2.3518  1.6763 -1.7838
  589MOL0     H77717   6.601   3.544   0.594  1.6606  0.0895 -1.3585
  589MOL0     H77718   6.503   3.563   0.818  2.7794  0.8508 -0.6590
  589MOL0     H77719   6.571   3.400   0.858  1.6320  0.9202  0.0488
  589MOL0     H77720   6.371   3.427   0.631 -0.5245  0.4658  0.6616
  589MOL0     H77721   6.412   3.294   0.748 -1.4767 -0.7751 -0.0410
  589MOL0     H77722   6.287   3.555   0.808  0.6985 -0.2907 -0.7469
  589MOL0     H77723   6.297   3.415   0.923 -0.7632 -0.0978 -0.2151
  589MOL0     H77724   6.158   3.298   0.744 -0.3174 -0.1390  1.3888
  589MOL0     H77725   6.103   3.463   0.689  0.5131  0.1436  0.0500
  589MOL0     H77726   6.105   3.398   0.987  1.8810  0.6014 -1.2484
  589MOL0     H77727   6.023   3.520   0.902 -1.1729  0.4452 -3.0143
  589MOL0     H77728   5.884   3.346   0.781  0.8029 -0.4076 -0.8201
  589MOL0     H77729   5.849   3.340   0.962  0.8490 -2.3941  0.3443
  589MOL0     H77730   7.005   3.575   0.820 -0.3200  0.1719 -0.3562
  589MOL0     H77731   7.231   3.624   0.835 -0.6709 -2.0579  0.2678
  589MOL0     H77732   7.511   4.063   0.592 -2.7618 -2.1724 -0.0146
  589MOL0     H77733   7.732   4.145   0.646 -1.3539 -0.3339  0.8557
  589MOL0     H77734   9.464   4.845   1.128 -0.8817  0.9342 -0.2655
  589MOL0     H77735   9.647   4.927   1.252  1.2044  4.0960  0.4143
  589MOL0     H77736   9.759   5.126   1.863 -0.5881  2.2114  0.7301
  589MOL0     H77737   9.940   5.288   1.907  0.4803 -0.2277 -0.6625
  589MOL0     H77738  10.162   5.306   1.913 -1.8416 -1.1362 -2.1120
  589MOL0     H77739  10.104   5.478   1.911 -1.9546  1.0053 -0.6006
  589MOL0     H77740  10.342   5.432   1.944  1.3855  1.0909  0.5852
  589MOL0     H77741  10.349   5.384   1.779  0.0032 -1.6069  0.6978
  589MOL0     H77742  10.254   5.654   1.876 -1.9766 -0.6398 -1.5885
  589MOL0     H77743  10.271   5.608   1.701  1.8747  0.8289 -1.5848
  589MOL0     H77744  10.519   5.608   1.721  0.2725 -1.0105 -0.4125
  589MOL0     H77745  10.458   5.755   1.773  3.2186  0.0318  0.4816
  589MOL0     H77746  10.557   5.580   2.149  1.1328  0.3249  0.5307
  589MOL0     H77747  10.036   5.294   1.485 -1.8396 -1.2926 -2.8330
  589MOL0     H77748   9.858   5.134   1.445 -0.2813 -2.1493  1.2597
  590MOL0     O77749   8.045   4.851   8.155  0.0029 -0.1616 -0.4452
  590MOL0     C77750   8.049   4.727   8.154  0.6178  0.4814 -0.0842
  590MOL0     O77751   7.968   4.644   8.229 -0.0855 -0.6012 -0.1359
  590MOL0     C77752   7.881   4.690   8.320 -0.2872 -0.7567  0.1842
  590MOL0     C77753   7.906   4.798   8.405  0.3775 -1.3719 -0.7541
  590MOL0     C77754   7.812   4.840   8.501  0.9489  0.6427  0.9742
  590MOL0     C77755   7.690   4.776   8.514  0.7426  1.0024  0.4819
  590MOL0     O77756   7.608   4.822   8.610 -0.2814 -0.4084 -0.3656
  590MOL0     C77757   7.491   4.744   8.648  0.0735 -0.6159  0.0260
  590MOL0     C77758   7.380   4.804   8.740 -0.4250  0.0422  0.2655
  590MOL0     C77759   7.268   4.704   8.761  0.4865 -0.6893 -0.4033
  590MOL0     C77760   7.159   4.776   8.830 -0.2607  0.4009 -0.6010
  590MOL0     C77761   7.046   4.675   8.854  0.4641 -0.0946  0.4833
  590MOL0     C77762   6.913   4.756   8.869  1.2561 -0.1060 -0.7612
  590MOL0     C77763   6.792   4.666   8.868 -0.1520  0.9452 -0.5502
  590MOL0     C77764   6.742   4.624   8.732  0.3277  0.2951  0.3768
  590MOL0     N77765   6.691   4.490   8.725  0.1860  0.0524 -0.0828
  590MOL0     C77766   6.639   4.416   8.829 -0.3584 -0.6116 -0.4766
  590MOL0     C77767   6.594   4.300   8.777 -0.4534 -0.3032 -0.9580
  590MOL0     C77768   6.526   4.198   8.858  0.4698  0.7485 -1.2424
  590MOL0     C77769   6.603   4.150   8.982 -0.9660 -0.2920 -0.0636
  590MOL0     C77770   6.507   4.053   9.069 -0.4237  0.1229 -0.7329
  590MOL0     C77771   6.404   4.132   9.141  0.7440 -1.0180 -0.2307
  590MOL0     O77772   6.459   4.251   9.195 -0.4317 -0.0529  0.7944
  590MOL0     C77773   6.372   4.323   9.276 -0.6929  0.4434  1.2437
  590MOL0     C77774   6.236   4.304   9.289 -0.7659 -0.7877 -0.4742
  590MOL0     C77775   6.159   4.398   9.353 -0.4007 -0.6776  0.7860
  590MOL0     C77776   6.220   4.515   9.409  0.0199 -0.3295  0.4410
  590MOL0     C77777   6.137   4.604   9.484  0.7381  0.8479  0.8937
  590MOL0     O77778   6.010   4.566   9.487  0.1242 -0.5811  0.3354
  590MOL0     C77779   5.914   4.641   9.530 -0.0735  0.8530 -0.0256
  590MOL0     C77780   5.789   4.615   9.464  0.3372 -0.1789 -0.2162
  590MOL0     C77781   5.673   4.665   9.518  1.2818 -0.9087  0.6243
  590MOL0     C77782   5.667   4.738   9.631  0.1041 -0.9148  0.2510
  590MOL0     O77783   5.554   4.774   9.688  0.6544 -0.7563  0.7627
  590MOL0     C77784   5.450   4.675   9.725  0.5050  0.8039  0.4218
  590MOL0     C77785   5.397   4.694   9.867 -0.2271 -0.3024  0.3743
  590MOL0     C77786   5.505   4.719   9.969 -0.3175  0.1898  0.2493
  590MOL0     C77787   5.446   4.789  10.090  0.5425 -0.5238  0.1166
  590MOL0     C77788   5.540   4.790  10.210  0.4862  0.0114  0.5495
  590MOL0     C77789   5.476   4.850  10.335  0.7005  0.9328 -0.1069
  590MOL0     C77790   5.499   5.009  10.332 -0.2335 -0.3494 -0.1982
  590MOL0     C77791   5.441   5.087  10.456 -0.1673 -0.4542  1.1186
  590MOL0    Cl77792   5.429   5.265  10.432 -0.0015  0.2290 -0.3942
  590MOL0     C77793   5.786   4.776   9.693 -0.0975  0.7184  0.4150
  590MOL0     C77794   5.908   4.725   9.640  0.0067  0.6642  0.0076
  590MOL0     O77795   6.187   4.710   9.521  0.7864 -0.3569  0.8204
  590MOL0     C77796   6.356   4.529   9.396  0.6567  0.4250  0.2924
  590MOL0     C77797   6.433   4.438   9.325 -0.9320  0.7270  0.3933
  590MOL0     N77798   6.636   4.292   8.644 -0.6656 -0.2939 -0.0598
  590MOL0     N77799   6.699   4.408   8.613  0.1166  0.2286 -0.3466
  590MOL0     C77800   7.664   4.671   8.427  0.2927 -0.0561  0.4201
  590MOL0     C77801   7.755   4.622   8.333  0.0246  0.3072  0.8011
  590MOL0     C77802   8.145   4.666   8.058 -0.2479  0.8925  0.1314
  590MOL0     C77803   8.150   4.523   8.033  0.9584 -0.3017  0.2280
  590MOL0     C77804   8.241   4.461   7.947 -0.5873 -0.1955 -0.3554
  590MOL0     C77805   8.328   4.535   7.870 -0.3112 -1.5608 -1.2223
  590MOL0     O77806   8.414   4.486   7.766  0.3037  0.0445  0.5536
  590MOL0     C77807   8.433   4.340   7.743  0.2716 -0.0161 -0.3350
  590MOL0     C77808   8.550   4.297   7.830 -0.4686  0.8868  0.0777
  590MOL0     C77809   8.687   4.348   7.786 -0.3174  0.1694 -0.2531
  590MOL0     C77810   8.742   4.276   7.656  0.2268 -0.9918  0.3493
  590MOL0     C77811   8.759   4.128   7.654  0.5605 -0.2215 -0.2353
  590MOL0     C77812   8.803   4.014   7.646  0.7130  0.7603 -0.4489
  590MOL0     C77813   8.333   4.674   7.892  1.0792 -0.5470  0.4574
  590MOL0     C77814   8.241   4.744   7.982 -0.2085 -1.0540 -0.3199
  590MOL0     H77815   7.997   4.856   8.394 -1.0047  0.5054 -3.0367
  590MOL0     H77816   7.829   4.915   8.578 -4.5135  1.8889  1.3788
  590MOL0     H77817   7.529   4.659   8.705  1.6946 -1.1268 -1.7157
  590MOL0     H77818   7.442   4.702   8.559 -0.3388 -0.3505  0.1228
  590MOL0     H77819   7.333   4.890   8.691 -0.5415  2.0354  3.5982
  590MOL0     H77820   7.434   4.845   8.826 -1.0676  5.1510 -1.3960
  590MOL0     H77821   7.298   4.618   8.822 -0.1918  1.1610  2.7925
  590MOL0     H77822   7.229   4.671   8.665 -1.6078 -1.8723  0.7735
  590MOL0     H77823   7.195   4.810   8.928 -1.7645 -1.9362  0.8626
  590MOL0     H77824   7.120   4.862   8.774 -1.5742  1.2815  1.4906
  590MOL0     H77825   7.063   4.618   8.946  0.3896 -0.9730 -0.0408
  590MOL0     H77826   7.027   4.600   8.777 -0.4299  0.0233  0.5792
  590MOL0     H77827   6.889   4.827   8.789 -2.8604  1.4877  1.5984
  590MOL0     H77828   6.912   4.815   8.961  0.9715  0.1869 -0.9489
  590MOL0     H77829   6.821   4.578   8.926  0.5212  1.1151 -0.6201
  590MOL0     H77830   6.713   4.713   8.927 -1.7948 -0.8558 -1.2305
  590MOL0     H77831   6.828   4.635   8.666 -0.4331 -2.0260 -1.1037
  590MOL0     H77832   6.660   4.692   8.707  0.3817  0.7489  1.3748
  590MOL0     H77833   6.636   4.436   8.935 -0.3409  0.6515 -0.7002
  590MOL0     H77834   6.506   4.112   8.793 -0.1406 -0.1397  0.0705
  590MOL0     H77835   6.430   4.244   8.884  0.9008  1.9297 -1.6955
  590MOL0     H77836   6.645   4.240   9.028 -0.0018 -0.4785 -0.5564
  590MOL0     H77837   6.688   4.093   8.944 -1.6002 -0.0757 -1.9312
  590MOL0     H77838   6.462   3.975   9.007  1.0736 -2.0803  0.8314
  590MOL0     H77839   6.561   3.996   9.146 -3.0953  0.4471  1.5661
  590MOL0     H77840   6.364   4.072   9.224 -1.0697  2.8183  1.9661
  590MOL0     H77841   6.319   4.151   9.075 -0.8249 -3.2123  1.0123
  590MOL0     H77842   6.172   4.227   9.247  0.4058 -3.0858  1.7032
  590MOL0     H77843   6.056   4.367   9.365  0.1552 -2.0511  2.3430
  590MOL0     H77844   5.772   4.547   9.382 -1.8810 -0.5506  0.4848
  590MOL0     H77845   5.578   4.654   9.467  1.0908  1.3299  0.3799
  590MOL0     H77846   5.493   4.575   9.716  1.2242  1.2290 -1.2454
  590MOL0     H77847   5.359   4.681   9.663  0.2522  0.2488  0.7317
  590MOL0     H77848   5.339   4.603   9.883 -2.3217  0.9861  0.5298
  590MOL0     H77849   5.321   4.772   9.874 -1.3014 -1.2466 -0.5128
  590MOL0     H77850   5.593   4.769   9.929 -1.4400  3.6181  1.6635
  590MOL0     H77851   5.528   4.616   9.999 -1.2434  0.5418  2.3323
  590MOL0     H77852   5.406   4.889  10.072  1.2710  0.2401  2.4348
  590MOL0     H77853   5.367   4.732  10.140 -0.1183  1.8405  1.9822
  590MOL0     H77854   5.636   4.837  10.188 -1.4107  4.7254  1.3216
  590MOL0     H77855   5.561   4.684  10.229  0.6045 -0.5301 -2.1656
  590MOL0     H77856   5.519   4.810  10.427  1.1401  0.2515 -0.6041
  590MOL0     H77857   5.369   4.832  10.349  0.9878  0.3536  1.5401
  590MOL0     H77858   5.604   5.040  10.323 -0.9535  2.9440  1.0750
  590MOL0     H77859   5.455   5.046  10.239  2.7575  1.6440 -0.9753
  590MOL0     H77860   5.504   5.066  10.542  0.8888 -0.8046  0.2808
  590MOL0     H77861   5.340   5.045  10.458 -0.3883 -0.2627 -1.5274
  590MOL0     H77862   5.789   4.832   9.786 -1.6237  0.8926  0.3772
  590MOL0     H77863   5.998   4.734   9.700 -0.4489  0.8456  0.6742
  590MOL0     H77864   6.406   4.605   9.455 -0.0970  1.5831 -0.5125
  590MOL0     H77865   6.542   4.437   9.317 -0.9684  0.8784 -0.1963
  590MOL0     H77866   7.572   4.613   8.432  0.8090 -1.7730 -4.4387
  590MOL0     H77867   7.740   4.546   8.256  0.0742  0.8315  0.2676
  590MOL0     H77868   8.078   4.467   8.092 -0.1175  2.4615  1.7385
  590MOL0     H77869   8.238   4.354   7.930  1.2054 -0.3504  0.1074
  590MOL0     H77870   8.457   4.336   7.636  0.7534 -1.3801 -0.1968
  590MOL0     H77871   8.341   4.284   7.763  0.0370  1.0673  1.9917
  590MOL0     H77872   8.545   4.292   7.939 -2.1338 -3.8300  0.0574
  590MOL0     H77873   8.541   4.190   7.809 -0.8151  0.7950  0.6729
  590MOL0     H77874   8.758   4.333   7.868 -0.9466 -0.4372  0.1915
  590MOL0     H77875   8.682   4.456   7.768  0.9911  0.0112 -1.8466
  590MOL0     H77876   8.668   4.305   7.582 -1.3590  0.9177  2.5478
  590MOL0     H77877   8.840   4.314   7.626  1.0244 -1.3474  2.3320
  590MOL0     H77878   8.841   3.914   7.637 -1.4999 -0.0913 -1.0285
  590MOL0     H77879   8.394   4.732   7.823  0.4633 -0.4032  0.0329
  590MOL0     H77880   8.253   4.850   7.999 -0.4876 -1.2256  1.0406
  591MOL0     O77881   4.594   0.637   3.062 -0.4904 -0.1328 -0.8624
  591MOL0     C77882   4.526   0.677   2.969  0.2490 -0.5251 -0.1745
  591MOL0     O77883   4.410   0.623   2.937 -0.5193 -0.3082  0.5330
  591MOL0     C77884   4.346   0.516   2.991  0.1928  0.4274 -1.0916
  591MOL0     C77885   4.229   0.489   2.926  0.2303  0.4806 -0.3042
  591MOL0     C77886   4.136   0.398   2.977 -0.2096 -0.2067  0.4716
  591MOL0     C77887   4.175   0.309   3.083  0.0318 -0.3757  0.1945
  591MOL0     O77888   4.103   0.209   3.142  0.5577 -0.6155  0.7247
  591MOL0     C77889   3.994   0.146   3.066  0.4420 -0.7118 -0.2138
  591MOL0     C77890   3.863   0.191   3.134 -0.3939 -0.2229 -0.0009
  591MOL0     C77891   3.727   0.156   3.065 -0.6713  0.7853  0.0122
  591MOL0     C77892   3.617   0.250   3.106 -0.4716 -0.3836 -0.9983
  591MOL0     C77893   3.471   0.211   3.067 -0.5652 -0.2704 -0.2149
  591MOL0     C77894   3.431   0.072   3.104  0.0454  0.0103 -0.9720
  591MOL0     C77895   3.273   0.063   3.094  0.6200  0.9413 -0.2085
  591MOL0     C77896   3.218  -0.083   3.102  0.7603 -0.3226  0.1297
  591MOL0     N77897   3.069  -0.079   3.091  1.0880 -0.1154  0.6368
  591MOL0     C77898   2.989  -0.050   3.203 -0.1120  0.4914  0.0847
  591MOL0     C77899   2.872  -0.016   3.151  0.0070 -0.0573 -1.0186
  591MOL0     C77900   2.748   0.029   3.230  0.1574 -0.7061  0.1927
  591MOL0     C77901   2.614  -0.031   3.179  1.3823  0.7011 -0.4804
  591MOL0     C77902   2.507   0.032   3.277  0.0784  0.1567 -0.3653
  591MOL0     C77903   2.371  -0.020   3.245 -0.0560  0.5036 -1.2252
  591MOL0     O77904   2.278   0.036   3.335  0.4873 -0.6651  0.1297
  591MOL0     C77905   2.146   0.045   3.294 -0.5369  0.4890  0.2762
  591MOL0     C77906   2.101   0.031   3.162  0.2469  0.3908 -0.7459
  591MOL0     C77907   1.969   0.052   3.137  0.4179  0.3030 -0.8920
  591MOL0     C77908   1.874   0.066   3.238  0.2119 -0.4215  0.4481
  591MOL0     C77909   1.729   0.071   3.223 -0.1143  0.5178 -0.4287
  591MOL0     O77910   1.660   0.115   3.327  0.1124 -0.3919 -0.5783
  591MOL0     C77911   1.530   0.139   3.308  0.0033  0.2017  0.0528
  591MOL0     C77912   1.486   0.262   3.265  1.5579  0.0782  0.0607
  591MOL0     C77913   1.348   0.289   3.248 -0.2639  1.1026 -0.6740
  591MOL0     C77914   1.258   0.180   3.259  0.5757 -0.4479  1.3265
  591MOL0     O77915   1.133   0.187   3.211  0.2257  0.1573 -0.3062
  591MOL0     C77916   1.061   0.305   3.261 -0.8412 -0.1652 -0.5680
  591MOL0     C77917   0.917   0.266   3.284 -0.6979  0.1045  0.0844
  591MOL0     C77918   0.829   0.385   3.326 -0.9915  0.5114  0.0277
  591MOL0     C77919   0.679   0.340   3.336 -0.0992 -0.2750 -0.1488
  591MOL0     C77920   0.590   0.440   3.419 -0.5458  0.4946 -0.5427
  591MOL0     C77921   0.458   0.380   3.473  0.0556  0.5801 -0.1513
  591MOL0     C77922   0.390   0.486   3.570  0.5659 -0.7477  0.4509
  591MOL0     C77923   0.235   0.467   3.568  0.2441 -0.6860 -0.3562
  591MOL0    Cl77924   0.154   0.563   3.693  0.0123  0.1102  0.1399
  591MOL0     C77925   1.301   0.058   3.304  0.1116 -0.5644 -0.6021
  591MOL0     C77926   1.440   0.031   3.328 -0.5546  0.2763  0.1347
  591MOL0     O77927   1.687   0.056   3.112  0.8232  0.0961 -0.2917
  591MOL0     C77928   1.924   0.069   3.368 -0.5291 -0.9473 -0.8709
  591MOL0     C77929   2.063   0.067   3.398 -0.4169  0.2708  0.1225
  591MOL0     N77930   2.878  -0.023   3.019  0.1378 -0.1151  0.4840
  591MOL0     N77931   2.989  -0.073   2.981 -0.6443  0.2710  0.1019
  591MOL0     C77932   4.297   0.336   3.151  0.8474 -0.4906  0.1576
  591MOL0     C77933   4.383   0.436   3.105  0.1463  0.4046 -0.6781
  591MOL0     C77934   4.588   0.776   2.875  0.1101  1.1844  0.5506
  591MOL0     C77935   4.712   0.835   2.896 -0.1337 -0.3963 -0.5102
  591MOL0     C77936   4.758   0.923   2.792  0.3566  0.6130  0.1444
  591MOL0     C77937   4.687   0.938   2.665 -0.1053 -1.0628  0.5606
  591MOL0     O77938   4.743   1.009   2.564  0.1333 -0.4775 -0.1702
  591MOL0     C77939   4.743   1.153   2.574 -0.3006 -0.3855  0.7090
  591MOL0     C77940   4.801   1.207   2.441 -1.1450  0.4280  0.5997
  591MOL0     C77941   4.715   1.193   2.318 -0.2611  0.1505 -0.2962
  591MOL0     C77942   4.762   1.284   2.205 -1.6922 -0.3009  0.9113
  591MOL0     C77943   4.891   1.233   2.141 -0.7671  0.0652 -0.7536
  591MOL0     C77944   4.999   1.193   2.095 -0.0001 -0.1000 -0.6941
  591MOL0     C77945   4.578   0.860   2.636 -0.6957  0.0540 -0.1624
  591MOL0     C77946   4.522   0.788   2.747  0.6153  0.6886 -0.2157
  591MOL0     H77947   4.191   0.557   2.850 -2.0962  0.1165  0.4548
  591MOL0     H77948   4.045   0.383   2.920  0.9441 -1.2274 -1.1796
  591MOL0     H77949   4.017   0.041   3.089 -0.6194 -0.8976  0.0768
  591MOL0     H77950   3.995   0.168   2.959  4.2611  1.2061  0.0411
  591MOL0     H77951   3.872   0.299   3.151  0.4052 -0.0734 -1.2785
  591MOL0     H77952   3.865   0.150   3.235  0.1818  0.8153  0.4306
  591MOL0     H77953   3.707   0.054   3.098  2.0971  0.1103 -0.1792
  591MOL0     H77954   3.745   0.163   2.958  2.2058  0.0123  0.3838
  591MOL0     H77955   3.605   0.245   3.215  1.8227  2.7360 -0.4419
  591MOL0     H77956   3.635   0.357   3.091 -4.7245  0.9374  1.5537
  591MOL0     H77957   3.455   0.233   2.961 -1.9530  2.0807  0.4171
  591MOL0     H77958   3.392   0.271   3.113 -0.4295 -1.1907  1.3226
  591MOL0     H77959   3.452   0.056   3.210 -1.1563  1.1047 -0.5410
  591MOL0     H77960   3.481  -0.003   3.043  0.0453 -0.8893  0.0940
  591MOL0     H77961   3.210   0.107   3.171 -2.1538 -0.8557 -1.2979
  591MOL0     H77962   3.242   0.119   3.005  2.2220  1.5394 -0.4387
  591MOL0     H77963   3.260  -0.131   3.190  1.5738  1.8964  1.0336
  591MOL0     H77964   3.255  -0.131   3.011  1.0243 -1.1381  0.6625
  591MOL0     H77965   3.025  -0.061   3.305  0.8139  1.3220 -0.1346
  591MOL0     H77966   2.747   0.137   3.213 -1.5987 -0.6072  0.7671
  591MOL0     H77967   2.773  -0.005   3.331  0.6759 -3.3243 -0.7430
  591MOL0     H77968   2.609  -0.139   3.192 -0.3226  0.8089  0.0590
  591MOL0     H77969   2.595   0.006   3.078  0.6769  3.8648  0.6667
  591MOL0     H77970   2.519  -0.010   3.377 -4.0971  2.1294  1.1982
  591MOL0     H77971   2.499   0.141   3.284  1.8608  0.2397  0.9473
  591MOL0     H77972   2.379  -0.128   3.263 -1.9575  0.6808  1.1153
  591MOL0     H77973   2.356   0.001   3.139 -3.0443 -0.4089 -1.0765
  591MOL0     H77974   2.156   0.003   3.073  1.4221 -1.7491  0.5390
  591MOL0     H77975   1.938   0.035   3.034  0.7998 -1.2876 -0.7720
  591MOL0     H77976   1.556   0.342   3.246  0.3301  1.0864 -0.3261
  591MOL0     H77977   1.312   0.388   3.224 -1.0144  0.3953 -2.6815
  591MOL0     H77978   1.074   0.379   3.182 -3.2667 -2.4535 -3.3742
  591MOL0     H77979   1.099   0.349   3.354 -5.4106 -0.0770  1.5450
  591MOL0     H77980   0.918   0.193   3.366  0.2739 -1.3770 -1.1720
  591MOL0     H77981   0.882   0.214   3.194  2.7074 -2.2126 -0.1004
  591MOL0     H77982   0.831   0.458   3.245 -0.7927 -0.8250 -1.2318
  591MOL0     H77983   0.865   0.419   3.423  0.9896  2.1196 -1.2021
  591MOL0     H77984   0.641   0.340   3.233  2.5158  0.7388 -1.2144
  591MOL0     H77985   0.670   0.246   3.391 -0.9181 -0.2267 -0.1860
  591MOL0     H77986   0.573   0.527   3.355  0.9186  1.4170  0.2811
  591MOL0     H77987   0.643   0.474   3.508  2.3330 -1.6960 -1.2692
  591MOL0     H77988   0.498   0.298   3.533  2.1437  2.5579  1.3715
  591MOL0     H77989   0.387   0.352   3.396  0.5571  0.1433 -0.4604
  591MOL0     H77990   0.427   0.475   3.672 -0.4641 -1.3650  0.7791
  591MOL0     H77991   0.411   0.585   3.528 -2.4210 -0.1941  0.0404
  591MOL0     H77992   0.198   0.365   3.577 -0.5528 -0.4692 -1.0330
  591MOL0     H77993   0.203   0.509   3.472  0.4342 -0.7109 -0.4319
  591MOL0     H77994   1.214  -0.008   3.305 -1.0777  0.9016  1.7818
  591MOL0     H77995   1.480  -0.057   3.377 -0.2724  1.2520  1.7174
  591MOL0     H77996   1.856   0.085   3.451  0.5750  1.4758 -0.3452
  591MOL0     H77997   2.104   0.088   3.497 -0.9098 -0.9674  0.6095
  591MOL0     H77998   4.326   0.288   3.244  0.3245  2.7040  2.1082
  591MOL0     H77999   4.478   0.451   3.156  0.0574 -4.0986  1.2411
  591MOL0     H78000   4.767   0.803   2.984  0.3799  1.7070 -0.0128
  591MOL0     H78001   4.860   0.958   2.804  1.4377 -1.8230 -1.3047
  591MOL0     H78002   4.798   1.178   2.665  0.4258 -0.1890  0.2291
  591MOL0     H78003   4.641   1.192   2.579  0.1190  1.1209 -1.1517
  591MOL0     H78004   4.828   1.312   2.453 -1.6165  0.4654  1.3981
  591MOL0     H78005   4.902   1.168   2.427 -0.8649  0.5466  2.0672
  591MOL0     H78006   4.612   1.210   2.352  0.6035  0.1657  2.5719
  591MOL0     H78007   4.730   1.088   2.290  1.0294 -0.1808  1.4856
  591MOL0     H78008   4.697   1.281   2.118 -0.4221 -2.1448 -0.0459
  591MOL0     H78009   4.790   1.383   2.243 -1.3025 -1.3132  3.4941
  591MOL0     H78010   5.099   1.184   2.058 -1.2214  1.3616 -4.9630
  591MOL0     H78011   4.534   0.850   2.537 -2.5342  0.2596  0.5970
  591MOL0     H78012   4.433   0.730   2.725  2.4035 -2.5365  0.3109
  592MOL0     O78013   4.194   5.480   7.992 -0.6339  0.4123  0.1241
  592MOL0     C78014   4.294   5.514   8.065  0.2196  0.0566  0.1125
  592MOL0     O78015   4.309   5.493   8.200 -0.0323 -0.1020 -0.3674
  592MOL0     C78016   4.219   5.430   8.278 -0.2636  0.2436 -0.1490
  592MOL0     C78017   4.079   5.470   8.265 -0.8533  0.1444  0.0775
  592MOL0     C78018   3.989   5.419   8.353  0.3524 -0.0665  0.2706
  592MOL0     C78019   4.020   5.334   8.455 -0.1418 -0.2950  0.3638
  592MOL0     O78020   3.926   5.275   8.535 -0.0284  0.3707 -0.2880
  592MOL0     C78021   3.924   5.317   8.670  0.9537 -0.2614 -0.0388
  592MOL0     C78022   3.808   5.237   8.731  0.3655 -0.5017  0.0243
  592MOL0     C78023   3.674   5.258   8.655  0.0148 -0.0882  0.2704
  592MOL0     C78024   3.552   5.203   8.745  0.3541  0.9771  0.8391
  592MOL0     C78025   3.413   5.181   8.683  0.0930  0.7206 -0.6838
  592MOL0     C78026   3.302   5.142   8.785  0.2572 -0.6392  0.3644
  592MOL0     C78027   3.166   5.120   8.711 -0.0178  0.2423  0.7479
  592MOL0     C78028   3.147   4.975   8.649  0.5584 -0.8557  0.5218
  592MOL0     N78029   3.047   4.971   8.538 -0.0536  0.4247  0.3070
  592MOL0     C78030   2.926   5.035   8.531  1.5917 -0.0074 -0.4311
  592MOL0     C78031   2.860   4.970   8.438  0.1895  0.2767  0.3358
  592MOL0     C78032   2.732   5.001   8.384 -0.0081 -0.4581  0.1042
  592MOL0     C78033   2.742   5.131   8.314  0.7067  0.2055 -0.3373
  592MOL0     C78034   2.627   5.140   8.209  0.0318 -0.5735 -0.5854
  592MOL0     C78035   2.647   5.269   8.130 -0.3543  0.2852  0.0823
  592MOL0     O78036   2.531   5.296   8.046 -0.7674  0.1166  0.3985
  592MOL0     C78037   2.410   5.306   8.106  0.8257 -0.5539 -0.0308
  592MOL0     C78038   2.299   5.244   8.050 -0.2463  0.0365  0.5843
  592MOL0     C78039   2.172   5.249   8.108  0.7182  0.8543  0.1823
  592MOL0     C78040   2.156   5.321   8.234 -0.5602 -0.4955  0.1189
  592MOL0     C78041   2.024   5.347   8.293 -0.1349 -0.0588  0.6716
  592MOL0     O78042   1.922   5.326   8.205 -0.2760  0.2890  0.2408
  592MOL0     C78043   1.797   5.318   8.248  0.0320 -0.7258  0.1988
  592MOL0     C78044   1.702   5.304   8.146 -0.3332  0.3275 -0.4402
  592MOL0     C78045   1.565   5.300   8.161  0.5688 -0.4839  0.1491
  592MOL0     C78046   1.510   5.297   8.288 -0.4221 -1.3271  0.4108
  592MOL0     O78047   1.374   5.286   8.321 -0.5505 -0.2057 -0.4933
  592MOL0     C78048   1.280   5.224   8.238 -0.2111 -0.3710 -0.6675
  592MOL0     C78049   1.139   5.239   8.300  0.1767 -0.0874  0.2622
  592MOL0     C78050   1.044   5.247   8.181 -0.6406 -0.6399 -0.5087
  592MOL0     C78051   0.901   5.220   8.219  0.6140 -0.4066  0.5125
  592MOL0     C78052   0.808   5.278   8.121  0.2303 -0.4656  0.0439
  592MOL0     C78053   0.670   5.240   8.166  0.0172  0.6443  0.5647
  592MOL0     C78054   0.561   5.273   8.057 -0.5706 -0.9172  0.3675
  592MOL0     C78055   0.453   5.170   8.053 -1.0737  0.1091  0.5812
  592MOL0    Cl78056   0.336   5.223   7.930 -0.3183  0.4501  0.2199
  592MOL0     C78057   1.602   5.310   8.398  0.8456  0.3108  1.2265
  592MOL0     C78058   1.739   5.318   8.377 -0.2898  0.6364 -0.0264
  592MOL0     O78059   2.003   5.398   8.405  0.2695  0.3110 -0.7124
  592MOL0     C78060   2.273   5.383   8.291 -0.0001 -0.2686 -0.5740
  592MOL0     C78061   2.396   5.380   8.217  0.8083  0.0624 -0.0431
  592MOL0     N78062   2.934   4.862   8.391  0.0794 -0.7613 -0.1142
  592MOL0     N78063   3.053   4.870   8.445 -0.0217 -0.3857 -0.4212
  592MOL0     C78064   4.155   5.295   8.471 -0.4788 -0.1974 -0.3048
  592MOL0     C78065   4.253   5.345   8.384 -0.3156 -0.0005  0.1851
  592MOL0     C78066   4.410   5.597   8.005  0.3458  0.4595  0.1896
  592MOL0     C78067   4.389   5.651   7.876  0.4567  0.2371  1.1335
  592MOL0     C78068   4.494   5.693   7.804 -0.9943  0.0374  0.3613
  592MOL0     C78069   4.620   5.708   7.863 -0.4866  0.6896  1.0617
  592MOL0     O78070   4.721   5.757   7.779  0.1527  0.2451 -0.0899
  592MOL0     C78071   4.785   5.875   7.834 -0.7324  0.9743  0.1331
  592MOL0     C78072   4.932   5.848   7.866 -0.0686 -0.0820 -0.1535
  592MOL0     C78073   5.024   5.808   7.754 -0.4324 -0.5589  0.0615
  592MOL0     C78074   5.167   5.783   7.805  0.3929  0.3647  0.1587
  592MOL0     C78075   5.259   5.789   7.693  0.6139 -0.0048 -0.4049
  592MOL0     C78076   5.346   5.790   7.607 -0.2347  0.6263  1.1921
  592MOL0     C78077   4.636   5.683   7.998 -0.4300 -0.6112 -0.3712
  592MOL0     C78078   4.533   5.617   8.070 -0.0663 -0.6587 -1.0903
  592MOL0     H78079   4.063   5.548   8.191  3.5232  1.9838  0.7690
  592MOL0     H78080   3.886   5.437   8.323  0.6849  0.0971 -0.8162
  592MOL0     H78081   3.905   5.424   8.688  0.5036 -0.8005  3.3112
  592MOL0     H78082   4.018   5.287   8.716  1.1012  2.6323  1.8304
  592MOL0     H78083   3.788   5.252   8.837 -2.7618  0.6666 -0.6278
  592MOL0     H78084   3.854   5.138   8.720  1.5191 -0.1972  1.6974
  592MOL0     H78085   3.687   5.201   8.562  1.8348 -1.2800  1.1990
  592MOL0     H78086   3.652   5.364   8.637  0.3177 -0.2664 -1.3864
  592MOL0     H78087   3.567   5.104   8.789  0.2887  1.7518  2.7099
  592MOL0     H78088   3.552   5.270   8.832  2.7334  1.0059  0.8808
  592MOL0     H78089   3.430   5.108   8.603  4.8448 -0.0137  0.6577
  592MOL0     H78090   3.394   5.281   8.645 -2.4842  1.1082  1.3713
  592MOL0     H78091   3.281   5.216   8.862 -1.9603 -0.8555  0.0308
  592MOL0     H78092   3.326   5.051   8.841 -1.6198 -0.1936  2.0043
  592MOL0     H78093   3.076   5.138   8.770  0.6153  1.8221  1.2680
  592MOL0     H78094   3.159   5.189   8.627  0.3048 -0.7674 -0.1436
  592MOL0     H78095   3.124   4.905   8.730 -3.2139  0.4833  0.7939
  592MOL0     H78096   3.250   4.942   8.629 -0.6232 -4.2287 -0.8309
  592MOL0     H78097   2.889   5.120   8.588  1.6784  0.6301 -1.3029
  592MOL0     H78098   2.652   5.002   8.459 -2.3864  1.2465 -2.2270
  592MOL0     H78099   2.696   4.918   8.321 -0.1484 -3.9872  4.3482
  592MOL0     H78100   2.843   5.132   8.272  1.0818  2.0555  0.5139
  592MOL0     H78101   2.732   5.204   8.395 -2.2627  1.9675 -2.1062
  592MOL0     H78102   2.630   5.055   8.140 -0.8593 -1.4315  0.3936
  592MOL0     H78103   2.533   5.142   8.265  1.8137  2.2072  2.6812
  592MOL0     H78104   2.730   5.249   8.061 -0.1968  1.3084 -0.0426
  592MOL0     H78105   2.671   5.350   8.199  2.6501 -0.3688 -0.0337
  592MOL0     H78106   2.319   5.196   7.955 -1.8881  1.6148 -0.6426
  592MOL0     H78107   2.081   5.213   8.061 -0.4408  3.4287  0.2630
  592MOL0     H78108   1.735   5.313   8.043 -0.8400 -1.8492 -0.8437
  592MOL0     H78109   1.500   5.284   8.076  1.0238 -1.6736  0.0132
  592MOL0     H78110   1.305   5.118   8.228  1.6597 -0.0487  0.2009
  592MOL0     H78111   1.281   5.269   8.138  0.6703 -1.7024 -1.2940
  592MOL0     H78112   1.129   5.326   8.366  1.7218  3.1540 -3.3581
  592MOL0     H78113   1.119   5.144   8.351 -0.3741  0.4973  1.1631
  592MOL0     H78114   1.078   5.193   8.092 -0.1688  3.2587 -2.9224
  592MOL0     H78115   1.055   5.352   8.155 -1.3361 -1.3422 -4.1745
  592MOL0     H78116   0.900   5.111   8.220 -1.0146 -0.4462 -0.6950
  592MOL0     H78117   0.884   5.255   8.321  2.7271  1.5155  0.2813
  592MOL0     H78118   0.844   5.238   8.025  3.0845  1.9669 -0.0555
  592MOL0     H78119   0.818   5.387   8.119  0.7236 -0.5146 -0.9470
  592MOL0     H78120   0.653   5.288   8.263  0.4372 -0.0119  0.9779
  592MOL0     H78121   0.660   5.132   8.180 -3.4964  0.1622 -3.6761
  592MOL0     H78122   0.515   5.372   8.069 -1.4680 -1.3237  0.3229
  592MOL0     H78123   0.620   5.276   7.965  0.7341 -0.8111  1.1688
  592MOL0     H78124   0.388   5.160   8.141 -1.9014 -2.9388 -0.2465
  592MOL0     H78125   0.489   5.067   8.046 -3.9414 -0.9141 -1.3729
  592MOL0     H78126   1.556   5.304   8.496  2.8572 -2.2649  2.1452
  592MOL0     H78127   1.792   5.315   8.472 -0.4399 -3.1852  0.1158
  592MOL0     H78128   2.263   5.438   8.384 -2.8652 -3.3436  1.1502
  592MOL0     H78129   2.471   5.447   8.257 -0.9725  0.8904  2.1240
  592MOL0     H78130   4.179   5.230   8.555  3.0396 -0.6493 -1.5010
  592MOL0     H78131   4.357   5.312   8.378 -0.4896 -0.3347 -1.7745
  592MOL0     H78132   4.294   5.646   7.824  1.3007  0.8625 -0.5627
  592MOL0     H78133   4.481   5.718   7.699  1.8861  0.2946 -0.0273
  592MOL0     H78134   4.740   5.895   7.932  0.5599  1.0148  0.7501
  592MOL0     H78135   4.775   5.959   7.765  2.7946  0.3843 -1.3594
  592MOL0     H78136   4.974   5.934   7.918 -1.2440  0.5623 -0.2402
  592MOL0     H78137   4.922   5.768   7.940 -0.5460 -0.8399 -1.0153
  592MOL0     H78138   5.025   5.892   7.684  0.7191 -2.9438 -2.9929
  592MOL0     H78139   4.996   5.721   7.694  2.1055 -0.5212 -1.3103
  592MOL0     H78140   5.183   5.857   7.885 -3.5830 -0.1166  1.6263
  592MOL0     H78141   5.188   5.689   7.859  1.7826  1.0180  0.8068
  592MOL0     H78142   5.424   5.806   7.536 -0.5108  1.1027  0.9971
  592MOL0     H78143   4.729   5.699   8.051 -0.6898 -2.8090  0.8608
  592MOL0     H78144   4.555   5.586   8.171  1.6606  1.0214 -0.8847
  593MOL0     O78145   0.872   1.026   1.811  0.3150  0.4689  0.3499
  593MOL0     C78146   0.922   1.060   1.921 -0.1458  0.5810  0.2283
  593MOL0     O78147   0.862   1.134   2.007 -0.8356 -0.1122 -0.7917
  593MOL0     C78148   0.732   1.165   1.998  0.6724  0.0406  0.2654
  593MOL0     C78149   0.633   1.063   1.980 -0.3616  0.0145  0.5472
  593MOL0     C78150   0.495   1.106   1.972  0.4278 -0.6407  0.4367
  593MOL0     C78151   0.450   1.240   1.983 -0.9122  0.1389  0.5412
  593MOL0     O78152   0.320   1.286   1.968 -0.4619  0.0368 -0.4623
  593MOL0     C78153   0.214   1.200   1.940  0.1358 -0.3035 -0.0562
  593MOL0     C78154   0.088   1.293   1.926  0.3143 -1.4901  0.2245
  593MOL0     C78155  -0.032   1.242   1.853  0.2725  0.8773 -0.5289
  593MOL0     C78156  -0.138   1.352   1.817  0.6772  0.3072 -0.0339
  593MOL0     C78157  -0.256   1.293   1.746  0.2469 -0.2234  0.2617
  593MOL0     C78158  -0.356   1.403   1.697 -0.2808  0.6461  0.2963
  593MOL0     C78159  -0.434   1.469   1.805 -0.2504 -0.0057 -0.6604
  593MOL0     C78160  -0.541   1.381   1.860  0.0019 -0.0423 -0.2930
  593MOL0     N78161  -0.641   1.448   1.947 -0.3142 -0.5128 -0.9250
  593MOL0     C78162  -0.763   1.509   1.912  0.3567 -0.6687 -0.0273
  593MOL0     C78163  -0.814   1.553   2.031 -1.2423  0.6214  0.0495
  593MOL0     C78164  -0.924   1.654   2.044 -0.2316 -0.8950  0.2846
  593MOL0     C78165  -1.054   1.609   1.973 -0.2087 -0.1680 -1.1197
  593MOL0     C78166  -1.176   1.694   2.013 -0.0507 -0.3772 -0.5187
  593MOL0     C78167  -1.305   1.648   1.951 -0.5118  0.7734  0.4287
  593MOL0     O78168  -1.406   1.738   1.995 -0.4541  1.1779  0.5974
  593MOL0     C78169  -1.525   1.722   1.924 -0.2128 -0.6090  0.3932
  593MOL0     C78170  -1.566   1.820   1.833 -0.3955 -0.5294 -0.3379
  593MOL0     C78171  -1.703   1.821   1.785  0.6031  0.9472 -0.6901
  593MOL0     C78172  -1.795   1.734   1.841  0.3461  0.0188  0.9066
  593MOL0     C78173  -1.936   1.735   1.797 -0.6176 -0.6748 -0.4956
  593MOL0     O78174  -2.017   1.653   1.874  0.0906  0.0988 -0.9811
  593MOL0     C78175  -2.153   1.675   1.874 -0.8949  0.1860 -0.2146
  593MOL0     C78176  -2.222   1.584   1.801  0.3124 -0.6516  0.5199
  593MOL0     C78177  -2.361   1.609   1.770 -0.0648  1.0163 -0.6429
  593MOL0     C78178  -2.425   1.722   1.819  0.1781  0.7776 -0.5764
  593MOL0     O78179  -2.551   1.761   1.804 -0.7981 -0.2266 -0.4266
  593MOL0     C78180  -2.665   1.672   1.767  0.5445  0.5853  0.4572
  593MOL0     C78181  -2.799   1.752   1.792  0.9980  0.1005 -0.1252
  593MOL0     C78182  -2.793   1.906   1.757  0.5094  0.7362 -0.2251
  593MOL0     C78183  -2.926   1.980   1.772 -0.0895  0.1858  0.1731
  593MOL0     C78184  -3.028   1.906   1.695  0.3356  0.8022  0.4251
  593MOL0     C78185  -3.146   1.999   1.658 -0.6093 -0.1588  0.3875
  593MOL0     C78186  -3.219   2.052   1.777 -0.5726 -0.7219 -1.0739
  593MOL0     C78187  -3.367   2.046   1.764 -0.1170 -0.4991  0.2212
  593MOL0    Cl78188  -3.420   2.095   1.919 -0.4320 -0.1184 -0.0348
  593MOL0     C78189  -2.347   1.808   1.897 -0.2010 -0.1098 -0.1910
  593MOL0     C78190  -2.213   1.787   1.922  0.0741 -0.4311 -0.0857
  593MOL0     O78191  -1.965   1.813   1.716 -0.2114 -0.0153 -0.2706
  593MOL0     C78192  -1.747   1.631   1.924 -0.4973 -0.1175 -0.3229
  593MOL0     C78193  -1.614   1.632   1.970  0.7318 -0.2829  0.5497
  593MOL0     N78194  -0.735   1.505   2.131 -0.9014  0.8511 -0.2239
  593MOL0     N78195  -0.636   1.444   2.087  0.3645 -0.1963  0.3300
  593MOL0     C78196   0.551   1.332   2.016  1.0315  0.5722 -0.2122
  593MOL0     C78197   0.688   1.294   2.023 -0.0652 -0.0767  0.0414
  593MOL0     C78198   1.053   1.020   1.954 -0.8013 -0.5859  0.2884
  593MOL0     C78199   1.143   0.979   1.855 -0.1037 -0.8875 -0.1867
  593MOL0     C78200   1.281   0.953   1.888  0.0696  0.2705  0.2925
  593MOL0     C78201   1.319   0.949   2.023  0.1295  0.6754  1.0408
  593MOL0     O78202   1.434   0.891   2.074  0.1907  0.6852  0.2790
  593MOL0     C78203   1.549   0.875   1.984  0.1682  0.4192  0.4236
  593MOL0     C78204   1.660   0.806   2.068  1.0345  0.4611  0.3207
  593MOL0     C78205   1.617   0.662   2.121  0.8986 -0.4699  0.3104
  593MOL0     C78206   1.735   0.590   2.188  0.0048 -0.3157  0.3007
  593MOL0     C78207   1.837   0.541   2.091  0.5555 -0.1321 -0.4305
  593MOL0     C78208   1.929   0.494   2.023  0.2205 -0.5159  0.2452
  593MOL0     C78209   1.227   0.990   2.121 -0.0573  1.0912 -1.0959
  593MOL0     C78210   1.104   1.041   2.082  0.1771  0.1434  0.0779
  593MOL0     H78211   0.659   0.958   1.982  0.8470  0.3076  0.6104
  593MOL0     H78212   0.418   1.030   1.965 -0.5796  0.4604 -1.4208
  593MOL0     H78213   0.193   1.154   2.037 -1.9359 -2.3230 -1.3580
  593MOL0     H78214   0.233   1.125   1.862  1.0724  0.3369 -0.4626
  593MOL0     H78215   0.126   1.387   1.883 -1.0286 -1.2153 -0.3903
  593MOL0     H78216   0.056   1.321   2.026 -1.2372  2.5935 -1.2227
  593MOL0     H78217  -0.069   1.156   1.910  1.8565  1.1325  0.9746
  593MOL0     H78218   0.003   1.190   1.764  1.7315 -0.4932  0.7889
  593MOL0     H78219  -0.173   1.388   1.914 -1.0100 -3.0833  0.7898
  593MOL0     H78220  -0.080   1.414   1.748 -0.4390  1.7256  0.2611
  593MOL0     H78221  -0.322   1.229   1.804 -2.8391  0.5328 -2.1592
  593MOL0     H78222  -0.218   1.237   1.660  1.7207 -1.1990  1.5004
  593MOL0     H78223  -0.429   1.357   1.629 -0.0826  3.3109 -1.9218
  593MOL0     H78224  -0.291   1.473   1.643 -0.4234  0.4853 -0.0864
  593MOL0     H78225  -0.367   1.492   1.888 -0.2571  0.3186 -0.7467
  593MOL0     H78226  -0.481   1.558   1.764 -1.7002 -0.1319  0.6030
  593MOL0     H78227  -0.492   1.297   1.911  2.2585  1.2005 -0.2861
  593MOL0     H78228  -0.595   1.338   1.776 -3.2274 -0.8543  2.0167
  593MOL0     H78229  -0.808   1.532   1.816  0.5323 -0.4462 -0.0571
  593MOL0     H78230  -0.893   1.751   2.004 -3.7862  0.7999  1.2411
  593MOL0     H78231  -0.943   1.654   2.152  0.7418  0.4417  0.4917
  593MOL0     H78232  -1.073   1.504   1.998 -0.6970 -0.0318 -0.8970
  593MOL0     H78233  -1.046   1.621   1.865 -0.9586  4.8197 -0.8352
  593MOL0     H78234  -1.185   1.691   2.122 -0.2963  0.8516 -0.4984
  593MOL0     H78235  -1.161   1.801   1.996  2.5710 -0.3029  1.5423
  593MOL0     H78236  -1.333   1.545   1.977 -0.0708  0.6487  0.4264
  593MOL0     H78237  -1.292   1.660   1.843  3.0837 -0.7134  0.5469
  593MOL0     H78238  -1.480   1.879   1.805 -2.0519  1.4133 -1.6124
  593MOL0     H78239  -1.718   1.889   1.702  2.3325 -1.4440 -3.1648
  593MOL0     H78240  -2.167   1.500   1.757  2.8039  0.6160  1.0369
  593MOL0     H78241  -2.420   1.542   1.708  1.3585  0.6021 -1.5915
  593MOL0     H78242  -2.661   1.574   1.816  0.9997  1.3109  1.9283
  593MOL0     H78243  -2.663   1.669   1.657 -1.5632  2.5161  0.3014
  593MOL0     H78244  -2.829   1.750   1.898  0.6580 -0.5931 -0.2333
  593MOL0     H78245  -2.878   1.709   1.731  1.7668  1.5472 -2.2646
  593MOL0     H78246  -2.763   1.924   1.653  0.3886  1.6357 -0.1097
  593MOL0     H78247  -2.715   1.954   1.816  0.1128  2.3673 -0.9604
  593MOL0     H78248  -2.955   2.008   1.874 -1.3300 -3.4072  0.9734
  593MOL0     H78249  -2.924   2.077   1.721 -1.3538 -1.8453 -4.2167
  593MOL0     H78250  -3.067   1.820   1.751  0.9828  0.5812  0.5495
  593MOL0     H78251  -2.989   1.859   1.604  0.5988  0.3900  0.7467
  593MOL0     H78252  -3.208   1.927   1.603  1.5099 -2.5210  0.9080
  593MOL0     H78253  -3.112   2.078   1.591  2.9839  1.0358  3.2513
  593MOL0     H78254  -3.185   1.988   1.859  0.6759 -1.2547 -1.9805
  593MOL0     H78255  -3.187   2.153   1.804 -0.4051 -0.6868 -1.4072
  593MOL0     H78256  -3.396   1.944   1.736  0.4923 -0.3517 -1.0049
  593MOL0     H78257  -3.402   2.112   1.685 -2.0271 -2.8338 -1.0242
  593MOL0     H78258  -2.393   1.901   1.929  0.2409  0.2396 -0.5585
  593MOL0     H78259  -2.135   1.857   1.952  1.1306 -2.3252  1.9648
  593MOL0     H78260  -1.811   1.550   1.958  1.7848 -2.0399 -0.3248
  593MOL0     H78261  -1.576   1.555   2.036  0.5695 -0.4017  0.5065
  593MOL0     H78262   0.523   1.433   2.043 -0.1900 -0.3537  2.3831
  593MOL0     H78263   0.757   1.372   2.054  0.1359 -0.0069 -0.5722
  593MOL0     H78264   1.099   0.966   1.757 -2.1325 -0.1404  0.5739
  593MOL0     H78265   1.329   0.913   1.800  0.2633 -2.5875  1.5896
  593MOL0     H78266   1.587   0.973   1.952 -0.4780  0.1659 -1.1983
  593MOL0     H78267   1.534   0.813   1.895 -1.3307  1.4438 -0.0747
  593MOL0     H78268   1.730   0.787   1.986 -1.9942  2.1350 -2.9244
  593MOL0     H78269   1.709   0.867   2.144  0.1792 -0.4900  1.6869
  593MOL0     H78270   1.565   0.603   2.045  1.7620 -1.9925  0.8671
  593MOL0     H78271   1.544   0.666   2.202  0.8589  2.6902  0.2330
  593MOL0     H78272   1.781   0.653   2.264 -1.0458  1.9206 -0.8226
  593MOL0     H78273   1.687   0.501   2.230 -4.5659  1.3666 -0.7346
  593MOL0     H78274   2.012   0.445   1.976  1.2541  0.2945  1.1700
  593MOL0     H78275   1.257   0.983   2.225  1.6184 -1.6948 -1.6512
  593MOL0     H78276   1.049   1.096   2.158  1.8875  1.2827  0.5551
  594MOL0     O78277   8.799   7.348  10.408 -0.5969  0.3553 -0.0872
  594MOL0     C78278   8.873   7.252  10.415  0.1851  0.6227 -0.6810
  594MOL0     O78279   8.839   7.118  10.366  0.6848 -0.8884  0.4742
  594MOL0     C78280   8.707   7.095  10.341  0.0546 -0.2934 -0.9481
  594MOL0     C78281   8.676   7.024  10.233  1.0705  0.6399  0.7634
  594MOL0     C78282   8.544   6.988  10.214 -0.1016  0.0362  0.4919
  594MOL0     C78283   8.436   7.028  10.296  0.2179  0.8466 -0.3416
  594MOL0     O78284   8.302   6.994  10.261 -0.3385 -0.2696  0.3352
  594MOL0     C78285   8.187   7.031  10.329  0.1554 -1.1648  0.2209
  594MOL0     C78286   8.082   6.978  10.236  0.3925 -0.5242 -0.1133
  594MOL0     C78287   7.937   6.970  10.302 -0.7552 -1.0553 -0.8322
  594MOL0     C78288   7.863   6.871  10.216  0.3158  0.9934 -0.8066
  594MOL0     C78289   7.722   6.875  10.273  0.7867  0.5238 -0.4219
  594MOL0     C78290   7.641   6.777  10.211  0.2280 -0.2725  0.5446
  594MOL0     C78291   7.501   6.799  10.274 -0.1039 -0.1847  0.5602
  594MOL0     C78292   7.404   6.701  10.207  0.5586  1.1323  0.1266
  594MOL0     N78293   7.266   6.710  10.253 -0.8664 -0.1931 -0.3314
  594MOL0     C78294   7.225   6.682  10.385 -0.2720  0.4180  1.0189
  594MOL0     C78295   7.087   6.695  10.379 -0.2164 -0.0102  0.1315
  594MOL0     C78296   7.001   6.701  10.503 -0.9803  0.6871 -0.7377
  594MOL0     C78297   6.949   6.560  10.538  0.1928  0.5437 -0.0265
  594MOL0     C78298   6.856   6.570  10.662 -0.2977 -0.1159  0.4036
  594MOL0     C78299   6.841   6.423  10.708 -0.0829  0.7019  0.9414
  594MOL0     O78300   6.748   6.388  10.804 -0.2162 -0.1350  0.1466
  594MOL0     C78301   6.617   6.392  10.778 -0.2795 -0.4363 -0.4508
  594MOL0     C78302   6.568   6.435  10.649  0.5305 -0.4650 -0.4676
  594MOL0     C78303   6.434   6.441  10.631  0.1013  0.2673  0.4341
  594MOL0     C78304   6.339   6.411  10.730  0.9347  0.2541  0.4711
  594MOL0     C78305   6.187   6.411  10.712  0.3239 -0.5920  0.6776
  594MOL0     O78306   6.100   6.382  10.813  0.2964 -0.6903 -0.9196
  594MOL0     C78307   5.968   6.358  10.798 -0.7656  0.8124 -0.6854
  594MOL0     C78308   5.907   6.241  10.846 -0.6373  0.1750  0.5541
  594MOL0     C78309   5.770   6.232  10.811  0.1754 -0.0711 -0.3272
  594MOL0     C78310   5.694   6.328  10.740 -0.5094 -0.3982  0.2150
  594MOL0     O78311   5.560   6.302  10.726 -0.1559  0.7014 -0.2612
  594MOL0     C78312   5.477   6.392  10.653 -0.6504 -0.1894 -0.0737
  594MOL0     C78313   5.336   6.378  10.703 -0.0715  0.5842  0.0643
  594MOL0     C78314   5.276   6.244  10.667 -0.4980  0.3234 -0.0682
  594MOL0     C78315   5.128   6.256  10.702 -0.4364 -0.7574  0.7190
  594MOL0     C78316   5.062   6.124  10.678 -0.1022  1.1240  0.5193
  594MOL0     C78317   4.916   6.121  10.724  0.5025 -0.2391  0.1984
  594MOL0     C78318   4.847   5.983  10.711  1.0854  0.7433  0.5369
  594MOL0     C78319   4.695   5.988  10.747  0.3039 -0.0484  0.0461
  594MOL0    Cl78320   4.598   6.108  10.643  0.4001  0.0078 -0.3708
  594MOL0     C78321   5.764   6.436  10.693 -0.3696  0.8119  0.5050
  594MOL0     C78322   5.899   6.459  10.734  0.5501 -0.1098  0.1065
  594MOL0     O78323   6.145   6.452  10.600  0.0698 -0.5590 -0.2186
  594MOL0     C78324   6.387   6.376  10.855  0.0013 -0.1495  0.7882
  594MOL0     C78325   6.528   6.373  10.879  0.6527  0.0763 -0.0306
  594MOL0     N78326   7.048   6.735  10.246 -0.8324  0.1257 -0.3611
  594MOL0     N78327   7.157   6.742  10.179  0.9976 -0.5424  0.5371
  594MOL0     C78328   8.470   7.109  10.405 -0.0825  0.4525 -0.5260
  594MOL0     C78329   8.608   7.135  10.431 -0.2265 -0.4465 -0.3336
  594MOL0     C78330   9.017   7.271  10.470 -0.0627 -0.1157  0.3306
  594MOL0     C78331   9.104   7.158  10.478  0.0189 -0.6660  0.0471
  594MOL0     C78332   9.239   7.175  10.514 -0.2338  0.2890  0.6305
  594MOL0     C78333   9.288   7.296  10.557  0.1507  0.5878 -0.4615
  594MOL0     O78334   9.420   7.297  10.602  0.1417  0.0612 -0.3048
  594MOL0     C78335   9.471   7.409  10.667 -0.9000  0.9856  0.8045
  594MOL0     C78336   9.606   7.371  10.722 -0.1344  0.5406 -0.7760
  594MOL0     C78337   9.702   7.333  10.622  1.1451  0.4624  0.4011
  594MOL0     C78338   9.832   7.285  10.687  0.5602  0.8652 -0.3200
  594MOL0     C78339   9.920   7.275  10.577 -0.3711  0.2738  0.1003
  594MOL0     C78340   9.991   7.252  10.488 -0.5982  0.5290 -0.1568
  594MOL0     C78341   9.208   7.405  10.551  0.1549 -0.4258  0.5245
  594MOL0     C78342   9.072   7.399  10.506 -1.0543 -0.1864 -0.2324
  594MOL0     H78343   8.753   7.000  10.161 -0.6660  0.9002 -1.2641
  594MOL0     H78344   8.517   6.916  10.137  2.5366  0.4849 -0.9628
  594MOL0     H78345   8.186   7.140  10.337 -0.5047 -1.2621  2.0126
  594MOL0     H78346   8.181   6.992  10.431  2.7036 -2.1878  0.0526
  594MOL0     H78347   8.101   6.882  10.188 -0.2375  0.7848 -3.2721
  594MOL0     H78348   8.080   7.045  10.149 -1.8271  1.6383  1.4347
  594MOL0     H78349   7.902   7.073  10.311  0.6836 -0.6779  1.6236
  594MOL0     H78350   7.952   6.926  10.402  0.0604  2.7283  0.8962
  594MOL0     H78351   7.859   6.904  10.112 -0.0391  0.0923 -1.0891
  594MOL0     H78352   7.903   6.769  10.211 -0.1604  0.8337 -1.6684
  594MOL0     H78353   7.676   6.974  10.263 -0.1692  0.2407  0.9978
  594MOL0     H78354   7.724   6.859  10.381  0.5488  0.6487 -0.3983
  594MOL0     H78355   7.687   6.680  10.227  3.2904  0.8240 -0.9535
  594MOL0     H78356   7.642   6.800  10.104  3.3628 -0.3755  0.4644
  594MOL0     H78357   7.509   6.765  10.378 -0.9785 -1.1754  0.3248
  594MOL0     H78358   7.459   6.900  10.272  0.6015  0.1854  2.6499
  594MOL0     H78359   7.445   6.599  10.214 -0.1677  0.7907 -0.4927
  594MOL0     H78360   7.397   6.727  10.101  0.9209  3.0630  0.5542
  594MOL0     H78361   7.292   6.673  10.470  1.6927  2.2499 -0.2313
  594MOL0     H78362   6.915   6.768  10.504 -2.2837 -0.9146 -1.3622
  594MOL0     H78363   7.063   6.734  10.587 -2.1481 -0.3905  0.6075
  594MOL0     H78364   7.038   6.498  10.552  0.8118  1.5372  0.5376
  594MOL0     H78365   6.899   6.536  10.444  1.7766 -0.4519 -0.6595
  594MOL0     H78366   6.890   6.616  10.755 -0.6039  0.4708  0.2248
  594MOL0     H78367   6.760   6.612  10.632 -1.1499 -1.9318  0.4194
  594MOL0     H78368   6.933   6.382  10.750  0.3125 -2.3391 -2.4232
  594MOL0     H78369   6.816   6.364  10.620 -0.3581 -1.0185  2.1350
  594MOL0     H78370   6.624   6.470  10.562  2.2734 -2.8410 -0.3817
  594MOL0     H78371   6.394   6.460  10.532  0.1098  2.5162  0.8189
  594MOL0     H78372   5.968   6.168  10.899  2.7826  0.8277 -2.1230
  594MOL0     H78373   5.703   6.151  10.840 -1.1062  1.8508  2.5985
  594MOL0     H78374   5.488   6.372  10.546 -1.2577  1.1266 -0.3983
  594MOL0     H78375   5.503   6.497  10.671 -0.6524  0.4414 -3.1845
  594MOL0     H78376   5.277   6.457  10.655  0.6993  1.4444  0.5106
  594MOL0     H78377   5.329   6.387  10.812 -0.8179 -1.2871  0.2028
  594MOL0     H78378   5.324   6.160  10.717 -1.0280 -0.6594 -1.1816
  594MOL0     H78379   5.281   6.225  10.559  0.7006  3.0726 -0.5900
  594MOL0     H78380   5.116   6.293  10.805  0.1153 -1.3080  0.9872
  594MOL0     H78381   5.085   6.342  10.650  1.5612  0.8924  1.5935
  594MOL0     H78382   5.117   6.058  10.746 -1.2106  1.7890  2.1090
  594MOL0     H78383   5.079   6.100  10.573 -0.6505 -1.5924  0.9625
  594MOL0     H78384   4.859   6.203  10.679  0.9873  0.8733  1.5122
  594MOL0     H78385   4.913   6.139  10.832 -0.2960 -0.2707  0.1876
  594MOL0     H78386   4.857   5.966  10.604  3.5287 -1.0927  0.9643
  594MOL0     H78387   4.902   5.903  10.763 -0.0911 -2.5541 -2.8944
  594MOL0     H78388   4.683   6.033  10.846  1.5086  2.7107 -0.9530
  594MOL0     H78389   4.652   5.888  10.738 -0.1161  0.2790 -2.4743
  594MOL0     H78390   5.732   6.516  10.627  2.8711  1.1786 -0.8055
  594MOL0     H78391   5.955   6.539  10.686  0.9776 -1.7591 -2.3077
  594MOL0     H78392   6.324   6.351  10.940  0.6510  0.1643  1.3801
  594MOL0     H78393   6.563   6.345  10.978 -0.0476  0.3591  0.3034
  594MOL0     H78394   8.393   7.151  10.468  1.9515  2.3466  0.8477
  594MOL0     H78395   8.637   7.193  10.518  0.9704 -3.2323  1.2391
  594MOL0     H78396   9.077   7.061  10.438  2.1641 -0.2476 -2.6526
  594MOL0     H78397   9.307   7.091  10.507  1.3336  1.5200  0.5387
  594MOL0     H78398   9.401   7.424  10.750  0.1866 -0.6978  2.0965
  594MOL0     H78399   9.475   7.499  10.604 -0.3943  0.9520  0.7845
  594MOL0     H78400   9.654   7.454  10.775  0.2432 -0.0077 -0.2313
  594MOL0     H78401   9.593   7.293  10.799 -1.4166  3.2148  1.9529
  594MOL0     H78402   9.725   7.418  10.557  2.2824 -0.6987 -0.7432
  594MOL0     H78403   9.660   7.252  10.562 -0.2798  1.7157 -0.3830
  594MOL0     H78404   9.881   7.357  10.753  1.0772  0.0655  0.1875
  594MOL0     H78405   9.812   7.193  10.741  2.3523  1.5298  1.5843
  594MOL0     H78406  10.054   7.217  10.409 -1.4166  1.4194 -1.2285
  594MOL0     H78407   9.227   7.510  10.569 -1.4205  0.3442 -1.8836
  594MOL0     H78408   9.023   7.495  10.515  1.7167  1.2846  0.3326
  595MOL0     O78409   2.989   5.279   3.536  0.6634  0.3376  0.1570
  595MOL0     C78410   3.009   5.255   3.415 -0.4523 -1.5751 -0.0520
  595MOL0     O78411   2.914   5.266   3.319 -0.8509  0.4499  0.5372
  595MOL0     C78412   2.780   5.273   3.354  0.2779 -0.0347  1.0354
  595MOL0     C78413   2.733   5.380   3.425 -0.1841 -0.5453  0.5121
  595MOL0     C78414   2.592   5.384   3.450 -0.2651  0.0982 -0.3522
  595MOL0     C78415   2.496   5.291   3.414 -1.0233  0.5215  0.8613
  595MOL0     O78416   2.360   5.320   3.448 -0.3611 -0.5631 -0.3318
  595MOL0     C78417   2.261   5.255   3.384  0.2035  0.3424 -0.6646
  595MOL0     C78418   2.134   5.337   3.408 -0.6242 -0.4794  0.4210
  595MOL0     C78419   2.019   5.259   3.342 -0.2279 -0.5492  0.1619
  595MOL0     C78420   2.032   5.230   3.191  0.6445  0.3307 -0.3054
  595MOL0     C78421   1.924   5.132   3.148  0.3201  0.1904  0.6211
  595MOL0     C78422   1.955   5.071   3.012  0.1299  0.0328  0.1891
  595MOL0     C78423   1.841   4.977   2.973  0.0386 -0.1860 -0.4291
  595MOL0     C78424   1.827   4.959   2.824  0.0244 -0.1040  0.2604
  595MOL0     N78425   1.692   4.914   2.800 -0.1512  1.0003 -0.3305
  595MOL0     C78426   1.592   4.993   2.750  0.8796  0.1259  0.2210
  595MOL0     C78427   1.480   4.902   2.739 -0.6307 -0.2026  0.8098
  595MOL0     C78428   1.341   4.924   2.704  0.7004 -0.8317  0.3922
  595MOL0     C78429   1.328   4.963   2.558  0.8952  0.7379  0.3527
  595MOL0     C78430   1.376   4.861   2.449  0.5601 -0.3574  0.7818
  595MOL0     C78431   1.328   4.711   2.454  0.1994  0.0729  0.3647
  595MOL0     O78432   1.202   4.701   2.524 -0.0503 -0.4906 -0.2943
  595MOL0     C78433   1.095   4.698   2.437  0.7747 -1.0534 -0.0098
  595MOL0     C78434   1.032   4.799   2.377 -0.5248 -0.8849 -0.0229
  595MOL0     C78435   0.919   4.779   2.302  0.6242 -0.0893  0.8572
  595MOL0     C78436   0.851   4.654   2.293 -1.0317 -0.0741 -0.6702
  595MOL0     C78437   0.720   4.641   2.230  0.0045  0.1771 -0.4438
  595MOL0     O78438   0.667   4.752   2.169  0.3436  0.2276 -0.2226
  595MOL0     C78439   0.543   4.762   2.110 -0.2048  0.4377 -0.0735
  595MOL0     C78440   0.423   4.726   2.189  0.9750 -0.0748  0.0760
  595MOL0     C78441   0.292   4.747   2.140  0.9475  0.2441 -1.1295
  595MOL0     C78442   0.269   4.795   2.008 -0.4460  0.3937  0.0251
  595MOL0     O78443   0.139   4.815   1.968  0.8064  0.6490 -0.8068
  595MOL0     C78444   0.111   4.844   1.837  0.6441  0.0549 -0.1805
  595MOL0     C78445  -0.028   4.893   1.826  0.3862 -0.2839 -0.1753
  595MOL0     C78446  -0.126   4.776   1.823 -0.5143  0.1914 -0.4285
  595MOL0     C78447  -0.256   4.841   1.822  0.8244  0.2950  0.7242
  595MOL0     C78448  -0.293   4.853   1.674 -0.5030 -0.0331  0.1175
  595MOL0     C78449  -0.443   4.861   1.647 -0.7527  0.0892  0.1200
  595MOL0     C78450  -0.489   4.872   1.502 -0.3582  1.0578 -0.0109
  595MOL0     C78451  -0.639   4.859   1.472  0.2937  0.0212  0.5452
  595MOL0    Cl78452  -0.732   4.949   1.585 -0.1363 -0.7692 -0.0735
  595MOL0     C78453   0.386   4.811   1.927  0.7497 -0.0697  0.7811
  595MOL0     C78454   0.515   4.793   1.978 -1.0768  0.0257 -0.8444
  595MOL0     O78455   0.674   4.526   2.224  0.2377 -0.1991 -0.0373
  595MOL0     C78456   0.913   4.542   2.371  0.1788 -1.0762  0.2817
  595MOL0     C78457   1.041   4.568   2.430 -0.1455 -0.3079  0.5961
  595MOL0     N78458   1.524   4.783   2.777 -0.2712 -0.1846  0.3275
  595MOL0     N78459   1.647   4.789   2.814 -0.3606  0.2835 -0.3552
  595MOL0     C78460   2.555   5.187   3.348  0.3508 -0.1179  0.1276
  595MOL0     C78461   2.692   5.171   3.314 -0.1137  0.0436 -0.0898
  595MOL0     C78462   3.158   5.236   3.367  0.1174 -0.7650  0.6411
  595MOL0     C78463   3.263   5.249   3.465 -0.7420  0.5473 -0.9413
  595MOL0     C78464   3.394   5.240   3.422 -0.2872 -0.2664 -0.2524
  595MOL0     C78465   3.427   5.212   3.289  0.4848 -0.0991 -1.2146
  595MOL0     O78466   3.550   5.203   3.226  0.7026  0.1099 -0.1213
  595MOL0     C78467   3.666   5.189   3.312 -0.2040  0.2853  1.4092
  595MOL0     C78468   3.682   5.058   3.383 -0.1702 -0.3109 -0.0401
  595MOL0     C78469   3.777   5.076   3.501  0.1455 -0.1074  0.6735
  595MOL0     C78470   3.919   5.038   3.466 -0.1535  0.0708  0.6298
  595MOL0     C78471   4.002   5.150   3.413 -0.5115  0.1717  0.1405
  595MOL0     C78472   4.079   5.230   3.359 -0.3735 -0.9732  0.1347
  595MOL0     C78473   3.323   5.187   3.208  0.3067 -0.1550  0.2171
  595MOL0     C78474   3.188   5.193   3.240  0.3282 -0.3135  0.9832
  595MOL0     H78475   2.787   5.471   3.451  2.1150 -1.7978  0.3552
  595MOL0     H78476   2.559   5.480   3.489  3.6517  1.3259  0.4008
  595MOL0     H78477   2.249   5.148   3.403  1.6978 -0.1818 -2.3273
  595MOL0     H78478   2.274   5.272   3.276 -1.3158 -2.2915 -1.3387
  595MOL0     H78479   2.128   5.439   3.368 -1.8197 -1.3486 -1.7262
  595MOL0     H78480   2.104   5.341   3.513 -0.0916 -0.3594  0.5725
  595MOL0     H78481   1.924   5.311   3.357 -0.5958 -1.3466  0.6570
  595MOL0     H78482   2.015   5.162   3.391 -0.0452 -0.0911  1.1097
  595MOL0     H78483   2.026   5.324   3.136  2.3587  0.0161 -1.0890
  595MOL0     H78484   2.129   5.184   3.172  1.0110  1.3821 -1.0523
  595MOL0     H78485   1.831   5.189   3.157  2.1041  3.8440 -1.6185
  595MOL0     H78486   1.913   5.041   3.208  2.6578 -0.6361 -0.1079
  595MOL0     H78487   2.047   5.012   3.010  0.6544  0.8453 -1.4701
  595MOL0     H78488   1.969   5.149   2.936 -0.0291 -1.9525 -2.0088
  595MOL0     H78489   1.847   4.888   3.036  1.2000  0.2917  0.1618
  595MOL0     H78490   1.754   5.036   3.005  0.4036  0.2775 -0.2605
  595MOL0     H78491   1.907   4.887   2.804 -0.6755 -1.0660  0.8560
  595MOL0     H78492   1.849   5.045   2.760  0.5833 -2.1383 -2.4518
  595MOL0     H78493   1.593   5.100   2.735  0.9984 -0.2775 -3.6990
  595MOL0     H78494   1.300   5.008   2.760  2.7144  0.1756  0.4697
  595MOL0     H78495   1.277   4.836   2.716  0.0092 -0.3977 -0.0373
  595MOL0     H78496   1.388   5.053   2.539  2.5853 -0.4538 -0.1991
  595MOL0     H78497   1.230   5.004   2.533 -0.8128 -2.0878  1.8683
  595MOL0     H78498   1.355   4.893   2.346  3.3877 -1.7597 -0.3591
  595MOL0     H78499   1.485   4.865   2.448  0.6997 -2.2838 -1.3419
  595MOL0     H78500   1.401   4.651   2.510 -0.0778  1.8258  2.7551
  595MOL0     H78501   1.315   4.668   2.355  0.2429 -1.1678  0.8812
  595MOL0     H78502   1.065   4.897   2.408  1.1091 -1.9708  1.9484
  595MOL0     H78503   0.875   4.857   2.241  0.3454 -1.7276 -1.1575
  595MOL0     H78504   0.432   4.684   2.288  0.0780 -1.6609 -0.4877
  595MOL0     H78505   0.204   4.739   2.203  1.7870  1.8767  0.3221
  595MOL0     H78506   0.114   4.756   1.773 -0.4194  2.3093 -3.6071
  595MOL0     H78507   0.185   4.919   1.808 -0.0864 -0.0035 -2.3270
  595MOL0     H78508  -0.046   4.938   1.728  1.4623  0.0307 -0.2385
  595MOL0     H78509  -0.049   4.961   1.909  2.5188  1.8011 -1.2462
  595MOL0     H78510  -0.113   4.719   1.916 -3.1447  1.2952  0.7085
  595MOL0     H78511  -0.107   4.710   1.738  1.7754 -0.5213  0.5407
  595MOL0     H78512  -0.314   4.766   1.876  1.9363 -2.7450 -1.9437
  595MOL0     H78513  -0.258   4.934   1.879  0.1941  0.6306  0.1654
  595MOL0     H78514  -0.255   4.762   1.627 -0.8636  1.2223 -2.8354
  595MOL0     H78515  -0.232   4.933   1.633 -0.6567 -0.9673 -2.0763
  595MOL0     H78516  -0.480   4.954   1.691 -0.5436  3.1578 -5.2787
  595MOL0     H78517  -0.491   4.771   1.686  0.3584 -0.7937 -0.5128
  595MOL0     H78518  -0.438   4.959   1.459  2.5676  0.8969  2.7334
  595MOL0     H78519  -0.448   4.779   1.461 -0.2895 -0.1432  2.5836
  595MOL0     H78520  -0.681   4.759   1.474 -2.4643  1.0253 -1.4413
  595MOL0     H78521  -0.643   4.886   1.366  2.5391  0.8299  0.6074
  595MOL0     H78522   0.381   4.852   1.827 -0.8591  0.5064  1.0677
  595MOL0     H78523   0.595   4.803   1.905 -1.0648 -2.6872 -1.3222
  595MOL0     H78524   0.864   4.446   2.372 -2.1403  0.0058 -1.2597
  595MOL0     H78525   1.090   4.483   2.475 -0.8645 -1.6710 -1.0937
  595MOL0     H78526   2.495   5.101   3.319 -0.7113 -0.2725  2.5366
  595MOL0     H78527   2.713   5.093   3.242  0.6994  0.9142 -0.8163
  595MOL0     H78528   3.232   5.262   3.568  2.5877  0.7059  0.1458
  595MOL0     H78529   3.474   5.256   3.494 -2.6528 -0.8315  2.7393
  595MOL0     H78530   3.691   5.271   3.380  2.2922 -0.3507  1.3618
  595MOL0     H78531   3.755   5.187   3.248 -0.1259 -0.9240  1.5248
  595MOL0     H78532   3.584   5.029   3.421 -1.7623  1.3398 -2.5669
  595MOL0     H78533   3.709   4.978   3.313 -0.5353  1.0950 -1.8526
  595MOL0     H78534   3.743   5.011   3.583  0.2295 -0.0138  0.7819
  595MOL0     H78535   3.777   5.177   3.542  2.2285 -0.4773  1.7106
  595MOL0     H78536   3.945   4.994   3.563 -2.9719 -1.2799  0.8916
  595MOL0     H78537   3.917   4.953   3.397  0.4187  0.8988 -0.4256
  595MOL0     H78538   4.143   5.288   3.295  0.3887 -0.5899  1.1969
  595MOL0     H78539   3.352   5.157   3.108  2.4781 -0.1249  0.7848
  595MOL0     H78540   3.119   5.176   3.158  2.2608  2.0998 -1.3209
  596MOL0     O78541  11.247   0.854   7.894 -0.7559 -0.0677 -0.4286
  596MOL0     C78542  11.287   0.956   7.949  0.1362 -0.4503  1.1048
  596MOL0     O78543  11.206   1.035   8.010 -0.0661  0.0263 -0.2237
  596MOL0     C78544  11.083   0.990   8.039 -0.2988  0.8513 -0.1811
  596MOL0     C78545  11.050   0.907   8.151 -0.3636  0.2370 -0.9033
  596MOL0     C78546  10.920   0.864   8.186  0.0441 -0.4418  0.1334
  596MOL0     C78547  10.815   0.910   8.107  0.1091  0.2742 -0.6095
  596MOL0     O78548  10.690   0.874   8.137  0.6809  0.3428 -0.3901
  596MOL0     C78549  10.609   0.806   8.035 -0.6008  0.4016 -0.6019
  596MOL0     C78550  10.484   0.761   8.111 -0.4001 -0.4287  0.9221
  596MOL0     C78551  10.360   0.725   8.027 -1.1107  0.4369  0.8236
  596MOL0     C78552  10.241   0.683   8.117 -0.1635 -0.7916 -0.1668
  596MOL0     C78553  10.124   0.641   8.039  0.4803  0.0316  0.1042
  596MOL0     C78554  10.039   0.762   7.985  0.5208  0.5216  0.1540
  596MOL0     C78555   9.934   0.711   7.875  0.0644 -0.1916 -0.5756
  596MOL0     C78556   9.816   0.642   7.949  0.2916 -1.1785 -0.8283
  596MOL0     N78557   9.700   0.626   7.864  0.0633  0.0466 -0.2432
  596MOL0     C78558   9.577   0.691   7.892 -0.3796  0.0913 -0.4124
  596MOL0     C78559   9.483   0.656   7.797 -1.1255 -0.3974  0.1504
  596MOL0     C78560   9.346   0.698   7.782 -0.2073 -0.1612 -0.4656
  596MOL0     C78561   9.319   0.788   7.659 -1.1579  0.5707  0.1748
  596MOL0     C78562   9.202   0.888   7.675 -0.0295 -1.1875 -0.4584
  596MOL0     C78563   9.080   0.836   7.752 -0.5952 -0.5266 -0.3145
  596MOL0     O78564   8.971   0.926   7.719 -0.6556  0.2755 -0.0711
  596MOL0     C78565   8.850   0.894   7.779 -0.3729  0.1445  0.2226
  596MOL0     C78566   8.828   0.803   7.887 -0.2986  1.3585  0.0733
  596MOL0     C78567   8.693   0.784   7.939 -0.4847 -0.4741  0.1008
  596MOL0     C78568   8.591   0.869   7.899  0.4304 -0.6357  0.5632
  596MOL0     C78569   8.452   0.840   7.946  0.1060  0.0693 -0.3488
  596MOL0     O78570   8.349   0.930   7.935 -0.6242 -0.5557 -0.1705
  596MOL0     C78571   8.214   0.894   7.958  0.0062 -1.0716 -0.1760
  596MOL0     C78572   8.152   0.918   8.087 -0.2536  0.4384  0.6094
  596MOL0     C78573   8.022   0.878   8.109  0.2236 -0.6762 -0.7218
  596MOL0     C78574   7.943   0.813   8.009  0.8350  0.1909 -0.6498
  596MOL0     O78575   7.813   0.786   8.027 -0.5250  0.2753  0.0884
  596MOL0     C78576   7.725   0.904   8.037  0.2131  0.5132  0.3438
  596MOL0     C78577   7.651   0.943   7.908  0.1335  0.7443  0.5735
  596MOL0     C78578   7.602   1.089   7.910 -0.2747  0.6230  0.1064
  596MOL0     C78579   7.463   1.107   7.971 -1.7181  0.1618  0.4846
  596MOL0     C78580   7.433   1.246   8.012  0.0773 -0.1964 -0.6933
  596MOL0     C78581   7.279   1.272   8.027  1.0695 -0.4253 -0.2972
  596MOL0     C78582   7.217   1.203   8.150 -0.1884  0.0526 -0.2612
  596MOL0     C78583   7.066   1.236   8.172 -0.2148 -0.6701 -0.4850
  596MOL0    Cl78584   6.956   1.168   8.031 -0.8326  0.0414 -0.6584
  596MOL0     C78585   8.004   0.797   7.886  0.0904 -0.0709 -0.5891
  596MOL0     C78586   8.137   0.832   7.855 -0.1213  0.0382  0.0569
  596MOL0     O78587   8.436   0.729   8.003  0.0982  0.4041  0.2450
  596MOL0     C78588   8.618   0.956   7.788  0.1395 -0.8366 -0.1716
  596MOL0     C78589   8.748   0.980   7.739 -0.5042  0.8176  0.3067
  596MOL0     N78590   9.551   0.558   7.721 -0.1150 -0.2146 -0.4823
  596MOL0     N78591   9.675   0.537   7.765  0.9004 -0.6780  0.1381
  596MOL0     C78592  10.847   1.006   7.996 -0.1771  0.2715  0.0313
  596MOL0     C78593  10.980   1.038   7.967  0.0345 -0.3143  0.7093
  596MOL0     C78594  11.428   0.993   7.921 -0.8932  0.0149  0.5845
  596MOL0     C78595  11.473   1.129   7.939  0.8850  0.0354  0.8484
  596MOL0     C78596  11.594   1.166   7.910 -0.0546 -0.7562  0.7196
  596MOL0     C78597  11.691   1.080   7.868 -0.2418  0.7160 -0.4597
  596MOL0     O78598  11.816   1.128   7.845  0.0942  0.5783 -0.4960
  596MOL0     C78599  11.920   1.031   7.840 -0.4844 -0.8744 -1.0200
  596MOL0     C78600  12.048   1.060   7.761  0.2732  0.7894 -0.7339
  596MOL0     C78601  12.141   1.154   7.831 -0.2902  0.0239  0.0641
  596MOL0     C78602  12.281   1.162   7.761  0.7206  0.2903  1.1438
  596MOL0     C78603  12.351   1.029   7.788 -0.3561 -1.4025  0.1304
  596MOL0     C78604  12.407   0.925   7.824 -0.7995  0.2780  0.8315
  596MOL0     C78605  11.651   0.946   7.846  0.1450 -0.6805  0.9689
  596MOL0     C78606  11.514   0.901   7.858 -0.4106 -0.5858  0.6587
  596MOL0     H78607  11.135   0.867   8.206 -0.9916 -1.8012 -1.3100
  596MOL0     H78608  10.891   0.809   8.275 -0.8950  2.3423  1.6922
  596MOL0     H78609  10.668   0.721   8.001 -2.9774 -1.2383 -0.9013
  596MOL0     H78610  10.584   0.874   7.952  0.5278  0.1211 -1.1837
  596MOL0     H78611  10.455   0.853   8.162  0.7515  1.8923 -2.2604
  596MOL0     H78612  10.512   0.676   8.175 -1.8851  0.3544  2.6774
  596MOL0     H78613  10.389   0.642   7.961  0.4403 -0.7403  2.8546
  596MOL0     H78614  10.328   0.815   7.973 -1.6930  1.3902  2.7006
  596MOL0     H78615  10.253   0.602   8.190 -3.6765 -1.9600 -0.7068
  596MOL0     H78616  10.218   0.768   8.181  0.5778  1.5802 -2.8355
  596MOL0     H78617  10.066   0.573   8.102 -1.3610  0.1416 -1.4044
  596MOL0     H78618  10.166   0.584   7.955  0.4084  0.5178 -0.2660
  596MOL0     H78619  10.100   0.833   7.928 -1.1747  3.5592  1.8573
  596MOL0     H78620   9.991   0.815   8.068 -0.4299  0.8550 -0.5991
  596MOL0     H78621   9.892   0.795   7.820 -1.0092 -0.1007  0.3555
  596MOL0     H78622   9.988   0.650   7.802 -1.5873 -2.8200  0.2412
  596MOL0     H78623   9.788   0.714   8.027 -2.6002  0.1561 -2.9025
  596MOL0     H78624   9.851   0.553   8.002  1.1139 -0.9254 -0.9345
  596MOL0     H78625   9.556   0.763   7.970 -0.0316 -0.9367  0.6399
  596MOL0     H78626   9.322   0.763   7.867 -1.1208 -2.0856  0.8395
  596MOL0     H78627   9.281   0.610   7.788 -0.6564  0.2109  0.4417
  596MOL0     H78628   9.288   0.719   7.581  2.4795  0.9371 -1.8401
  596MOL0     H78629   9.412   0.835   7.625 -0.4605 -0.8906 -0.0043
  596MOL0     H78630   9.244   0.976   7.725  0.2416  0.3670 -3.2064
  596MOL0     H78631   9.167   0.920   7.576 -0.1358  3.7797  0.9091
  596MOL0     H78632   9.098   0.843   7.860 -0.4828  2.3710 -0.4372
  596MOL0     H78633   9.050   0.734   7.727 -3.0837 -0.1891  0.9314
  596MOL0     H78634   8.908   0.747   7.934  0.3572  1.4878 -0.8763
  596MOL0     H78635   8.681   0.720   8.025 -1.2740  0.3945  0.6516
  596MOL0     H78636   8.212   0.958   8.169  2.1622 -1.8269  0.0965
  596MOL0     H78637   7.996   0.887   8.214  1.6770  1.8848 -0.4938
  596MOL0     H78638   7.772   0.997   8.071 -0.6307  1.2753 -0.4985
  596MOL0     H78639   7.640   0.878   8.101 -1.4884 -0.2231 -2.0704
  596MOL0     H78640   7.565   0.878   7.887  1.1426  0.1485 -2.0556
  596MOL0     H78641   7.725   0.924   7.830 -2.4655 -2.2726 -1.4098
  596MOL0     H78642   7.596   1.133   7.810 -0.1491  2.3140  0.8246
  596MOL0     H78643   7.674   1.140   7.974  0.1196  0.0653  0.1200
  596MOL0     H78644   7.386   1.076   7.899  0.9795 -1.9082 -1.7866
  596MOL0     H78645   7.454   1.057   8.068 -0.7144  0.5734  0.8023
  596MOL0     H78646   7.460   1.313   7.930 -0.3912  2.5013  1.2185
  596MOL0     H78647   7.488   1.266   8.104 -0.3120 -0.0743 -0.4856
  596MOL0     H78648   7.235   1.230   7.937  0.9345  1.3638 -1.1185
  596MOL0     H78649   7.266   1.379   8.009  4.2065 -0.2540 -2.3770
  596MOL0     H78650   7.229   1.094   8.148 -0.9101 -0.0288 -1.1560
  596MOL0     H78651   7.267   1.245   8.238  0.2443 -1.5646  0.3035
  596MOL0     H78652   7.068   1.344   8.194  3.7463 -0.7128  0.0546
  596MOL0     H78653   7.022   1.189   8.261  1.2351 -0.9132  0.1419
  596MOL0     H78654   7.930   0.758   7.816  0.2572 -0.6863 -0.4326
  596MOL0     H78655   8.174   0.829   7.753  2.5016 -1.8984  0.9463
  596MOL0     H78656   8.537   1.011   7.743 -0.1323 -0.4727  0.7424
  596MOL0     H78657   8.783   1.044   7.659  1.4111 -0.5092 -0.0027
  596MOL0     H78658  10.773   1.062   7.938  2.3076  1.0571 -2.6130
  596MOL0     H78659  11.000   1.105   7.884 -1.8263  0.3340  0.7424
  596MOL0     H78660  11.406   1.202   7.984 -2.1181 -2.5980  0.9449
  596MOL0     H78661  11.637   1.261   7.941  1.8117 -1.6253  0.9206
  596MOL0     H78662  11.886   0.936   7.799  1.7233 -1.6628 -1.1838
  596MOL0     H78663  11.944   1.006   7.944  0.3701 -0.1669 -1.0313
  596MOL0     H78664  12.109   0.970   7.748  0.0972  0.6345 -0.4983
  596MOL0     H78665  12.018   1.104   7.666 -1.9387 -1.3559 -1.1362
  596MOL0     H78666  12.152   1.130   7.937 -0.5288  0.1768  0.1252
  596MOL0     H78667  12.091   1.251   7.818  1.2437  0.8094 -0.2498
  596MOL0     H78668  12.274   1.195   7.657 -1.7762  4.8125  2.5077
  596MOL0     H78669  12.347   1.231   7.814 -0.3397  1.0848  1.4519
  596MOL0     H78670  12.454   0.838   7.866  0.9789  0.9258  0.2520
  596MOL0     H78671  11.712   0.861   7.816  1.1290  1.1350 -2.9009
  596MOL0     H78672  11.484   0.797   7.850 -1.6682 -0.3369  1.7160
  597MOL0     O78673   4.137   1.417  10.143  0.2896  0.2590 -0.3706
  597MOL0     C78674   4.050   1.507  10.151  0.4334  0.6552  0.6379
  597MOL0     O78675   4.079   1.642  10.169  0.1718  0.2433 -0.6742
  597MOL0     C78676   4.200   1.676  10.223 -0.6062 -0.5809 -0.4423
  597MOL0     C78677   4.305   1.746  10.153  0.1807  0.4522 -0.0361
  597MOL0     C78678   4.426   1.771  10.225 -1.0370 -0.4325  0.6058
  597MOL0     C78679   4.445   1.728  10.353 -0.7280 -0.3913  0.1460
  597MOL0     O78680   4.559   1.752  10.428  0.3013 -0.2836 -0.2809
  597MOL0     C78681   4.685   1.746  10.364  0.2173 -0.3452  0.0044
  597MOL0     C78682   4.739   1.889  10.344  1.6321 -0.8658  0.4166
  597MOL0     C78683   4.824   1.917  10.220  0.7225  0.2763  0.5563
  597MOL0     C78684   4.955   1.835  10.215  1.0097 -0.4929 -0.3536
  597MOL0     C78685   5.054   1.902  10.311 -0.0428  0.2774  0.6222
  597MOL0     C78686   5.108   2.039  10.277 -1.3298 -0.6699 -0.7199
  597MOL0     C78687   5.213   2.093  10.383 -0.4050 -0.2106  0.1671
  597MOL0     C78688   5.223   2.243  10.396  0.5478 -0.5745  0.6315
  597MOL0     N78689   5.103   2.322  10.429  0.2660  0.5155  0.3560
  597MOL0     C78690   5.042   2.298  10.559  0.2519 -1.1080  0.1818
  597MOL0     C78691   4.926   2.369  10.537  0.2289 -0.8084  0.5355
  597MOL0     C78692   4.812   2.360  10.630 -0.1101  0.5757  0.4224
  597MOL0     C78693   4.688   2.291  10.565 -0.9041  0.0300 -0.7151
  597MOL0     C78694   4.591   2.248  10.676  0.3767 -0.0554  0.1534
  597MOL0     C78695   4.477   2.159  10.632 -0.5537 -0.0426 -0.2178
  597MOL0     O78696   4.409   2.102  10.750 -0.5550 -0.2497  0.7437
  597MOL0     C78697   4.297   2.024  10.737 -1.0082 -0.1854 -0.2688
  597MOL0     C78698   4.200   2.029  10.837 -0.1776 -0.0369 -0.0250
  597MOL0     C78699   4.092   1.940  10.821 -0.0242 -0.2545  0.4769
  597MOL0     C78700   4.073   1.859  10.708 -0.1538  0.1583  0.2505
  597MOL0     C78701   3.948   1.775  10.702  0.4025 -0.5999  0.0993
  597MOL0     O78702   3.857   1.787  10.800  0.0888 -0.1847 -0.0526
  597MOL0     C78703   3.752   1.702  10.811  0.2278  0.1050 -0.2730
  597MOL0     C78704   3.630   1.749  10.860  0.8413  0.5842 -0.5677
  597MOL0     C78705   3.524   1.663  10.899 -0.4144 -0.4150  0.2420
  597MOL0     C78706   3.531   1.529  10.873  0.1877 -0.5002  0.3508
  597MOL0     O78707   3.423   1.446  10.895  0.7509 -0.6561 -0.2681
  597MOL0     C78708   3.291   1.493  10.913  0.7090  0.1446 -0.2845
  597MOL0     C78709   3.206   1.369  10.954  0.3015  0.3594 -0.3166
  597MOL0     C78710   3.063   1.408  11.004  0.3298  0.6489 -0.3770
  597MOL0     C78711   2.976   1.283  11.040  0.7509 -0.3274 -0.2692
  597MOL0     C78712   2.848   1.304  11.117  0.4343 -0.6129  0.5614
  597MOL0     C78713   2.751   1.396  11.038  0.3113 -0.0702 -0.0841
  597MOL0     C78714   2.609   1.411  11.080  0.6418  0.2007 -0.3114
  597MOL0     C78715   2.519   1.502  10.990  0.5424  1.1861 -0.3676
  597MOL0    Cl78716   2.577   1.674  10.993  0.0362  0.1785  0.0075
  597MOL0     C78717   3.648   1.482  10.808 -0.0819 -0.4645  0.0131
  597MOL0     C78718   3.758   1.559  10.782  0.3793 -0.5880  1.3086
  597MOL0     O78719   3.935   1.716  10.596  0.4939 -0.7924  0.7746
  597MOL0     C78720   4.176   1.867  10.612  0.7288  0.0430 -0.2984
  597MOL0     C78721   4.283   1.948  10.622 -0.6719 -0.6954 -0.8171
  597MOL0     N78722   4.925   2.440  10.420 -0.4171  0.9326  0.6168
  597MOL0     N78723   5.026   2.400  10.345  0.2281  0.1554 -0.5772
  597MOL0     C78724   4.340   1.657  10.417 -0.3878 -0.1500 -0.5004
  597MOL0     C78725   4.222   1.633  10.353  0.3378  0.3882  0.4732
  597MOL0     C78726   3.912   1.457  10.138 -0.0009  0.7147  0.4930
  597MOL0     C78727   3.899   1.318  10.102 -0.5895 -0.2765 -0.4777
  597MOL0     C78728   3.771   1.269  10.087  0.0505 -1.2830  0.2353
  597MOL0     C78729   3.650   1.339  10.086  0.2408 -0.2369 -0.2198
  597MOL0     O78730   3.521   1.290  10.079  0.4789 -0.4998  0.2207
  597MOL0     C78731   3.496   1.156  10.029 -0.7672 -0.4420  0.5091
  597MOL0     C78732   3.345   1.154  10.010  0.8476  1.0687  0.7853
  597MOL0     C78733   3.314   1.015   9.961 -0.3932  0.2445 -0.3426
  597MOL0     C78734   3.171   0.986   9.975 -0.0021  0.6210 -0.2523
  597MOL0     C78735   3.123   0.856   9.922  0.1174 -0.7929 -0.7274
  597MOL0     C78736   3.077   0.754   9.870 -0.3385 -0.2142 -0.5934
  597MOL0     C78737   3.667   1.480  10.114  0.1100 -0.5794  0.4232
  597MOL0     C78738   3.794   1.542  10.130  0.3020  0.8587  0.5629
  597MOL0     H78739   4.290   1.779  10.051 -2.0956  1.8171  0.6534
  597MOL0     H78740   4.510   1.810  10.168 -0.4837 -0.8386  1.1187
  597MOL0     H78741   4.676   1.695  10.267  3.2496 -1.2691  0.0973
  597MOL0     H78742   4.741   1.678  10.428 -1.3549 -2.2314 -0.5086
  597MOL0     H78743   4.774   1.921  10.443 -3.1651 -0.9657  2.3931
  597MOL0     H78744   4.650   1.949  10.325  2.3241  0.1622  0.2800
  597MOL0     H78745   4.844   2.025  10.217 -1.4807  0.8384  2.7332
  597MOL0     H78746   4.779   1.885  10.126  3.7701  0.6797 -1.1933
  597MOL0     H78747   4.931   1.730  10.234  2.7044 -1.8283 -4.3986
  597MOL0     H78748   4.980   1.840  10.108 -0.8663 -2.3094 -0.9379
  597MOL0     H78749   5.146   1.842  10.315  2.1922  3.1866 -2.2420
  597MOL0     H78750   5.014   1.896  10.413 -0.8467 -0.7592  0.2560
  597MOL0     H78751   5.023   2.107  10.270 -2.7137 -2.0776  1.2217
  597MOL0     H78752   5.164   2.033  10.183 -0.7074  1.9967 -0.6006
  597MOL0     H78753   5.188   2.050  10.480  0.2501  1.8423  1.2930
  597MOL0     H78754   5.309   2.058  10.343 -1.5380 -0.9125 -2.0899
  597MOL0     H78755   5.249   2.281  10.296 -0.2878 -0.6345  0.3899
  597MOL0     H78756   5.307   2.272  10.459 -1.9066 -0.2405  3.9909
  597MOL0     H78757   5.062   2.239  10.648 -1.0170  0.4568  1.5707
  597MOL0     H78758   4.785   2.458  10.669  2.0841  2.0568 -1.4994
  597MOL0     H78759   4.840   2.297  10.715 -1.1110 -1.0721 -0.4015
  597MOL0     H78760   4.727   2.202  10.515 -1.5406 -1.4521  1.2780
  597MOL0     H78761   4.643   2.356  10.489  1.1607  0.8807 -1.2986
  597MOL0     H78762   4.658   2.210  10.754  0.8343  2.2497  0.9699
  597MOL0     H78763   4.548   2.341  10.713 -0.5483 -0.0235 -0.9529
  597MOL0     H78764   4.530   2.083  10.572  0.8528  0.1499  0.7470
  597MOL0     H78765   4.403   2.209  10.569 -2.9840 -2.9947  0.0191
  597MOL0     H78766   4.204   2.111  10.907  1.4959  1.0858 -1.3644
  597MOL0     H78767   4.015   1.950  10.897  0.6345 -0.4570  1.1864
  597MOL0     H78768   3.621   1.857  10.870  0.4426  0.3257  3.7968
  597MOL0     H78769   3.443   1.710  10.955  0.3315  1.1342  0.0748
  597MOL0     H78770   3.247   1.545  10.827  1.1237  0.3883 -0.3544
  597MOL0     H78771   3.291   1.555  11.002  0.5850 -0.7698  0.3669
  597MOL0     H78772   3.253   1.318  11.038  2.0558 -1.4858 -2.2953
  597MOL0     H78773   3.211   1.294  10.875  0.0379  1.6100 -1.5569
  597MOL0     H78774   3.020   1.483  10.936  1.4329 -0.9319 -2.9743
  597MOL0     H78775   3.069   1.462  11.099  0.9248 -0.8042  0.4480
  597MOL0     H78776   2.938   1.247  10.943  0.9828  0.3655 -0.6227
  597MOL0     H78777   3.039   1.210  11.091  0.7885  0.2536  0.5219
  597MOL0     H78778   2.863   1.339  11.220 -0.4288  1.0957  0.1422
  597MOL0     H78779   2.798   1.206  11.122 -0.6013 -0.1390 -0.1288
  597MOL0     H78780   2.738   1.346  10.941 -0.5803 -2.4915  1.2169
  597MOL0     H78781   2.803   1.490  11.018 -3.0930  2.0456  0.1025
  597MOL0     H78782   2.566   1.312  11.095 -0.9264  1.0515  1.1964
  597MOL0     H78783   2.612   1.453  11.181  1.2628  0.5384 -0.4674
  597MOL0     H78784   2.420   1.491  11.036  0.8657 -0.2664  0.0474
  597MOL0     H78785   2.516   1.455  10.891 -0.9942 -0.4514  0.3783
  597MOL0     H78786   3.642   1.378  10.775  0.0569 -0.2569 -0.6903
  597MOL0     H78787   3.841   1.514  10.727 -2.3138  0.0172 -3.8672
  597MOL0     H78788   4.167   1.810  10.519  1.6415 -0.3917 -0.1294
  597MOL0     H78789   4.350   1.969  10.539  2.1332  2.6841  1.9464
  597MOL0     H78790   4.368   1.637  10.520  0.5821  2.8509 -0.0940
  597MOL0     H78791   4.135   1.587  10.399 -0.0625 -0.4943 -1.0985
  597MOL0     H78792   3.983   1.250  10.096 -0.5140 -0.2524  0.2185
  597MOL0     H78793   3.768   1.160  10.094  0.3133 -1.2638  0.6565
  597MOL0     H78794   3.524   1.100  10.119  2.0406  4.2476  2.9703
  597MOL0     H78795   3.544   1.127   9.935 -0.4284 -0.4285  0.6747
  597MOL0     H78796   3.296   1.178  10.105 -2.6658 -0.1852 -0.5196
  597MOL0     H78797   3.326   1.226   9.930  2.3994 -0.9858 -1.5732
  597MOL0     H78798   3.378   0.938  10.005  1.5872  0.6476 -2.3689
  597MOL0     H78799   3.343   1.017   9.856  0.0573  0.0670 -0.2229
  597MOL0     H78800   3.147   1.011  10.078  2.0311  0.4229  0.3119
  597MOL0     H78801   3.131   1.061   9.907  1.3749 -0.7045 -2.6748
  597MOL0     H78802   3.043   0.668   9.816 -0.2094  0.2549 -1.4315
  597MOL0     H78803   3.582   1.548  10.115 -0.6811 -1.5407  0.5939
  597MOL0     H78804   3.804   1.650  10.126  0.9596  0.7937 -3.2106
  598MOL0     O78805   2.056   6.422   9.153 -0.0914  0.5134  0.3632
  598MOL0     C78806   2.168   6.463   9.171  0.1768 -0.3793 -0.2859
  598MOL0     O78807   2.195   6.602   9.193 -0.7354  0.0759 -0.5584
  598MOL0     C78808   2.085   6.693   9.211  0.0812  0.5637 -0.3401
  598MOL0     C78809   2.095   6.822   9.157 -0.1562  0.3721 -0.5912
  598MOL0     C78810   1.978   6.908   9.166  0.5903 -0.0243 -0.1377
  598MOL0     C78811   1.868   6.877   9.239 -0.8493  0.2324  0.0309
  598MOL0     O78812   1.767   6.974   9.234 -0.4622 -0.3919 -0.4525
  598MOL0     C78813   1.638   6.935   9.294  0.3059 -0.3174  1.1499
  598MOL0     C78814   1.542   7.050   9.299  0.6109  0.5107 -0.1542
  598MOL0     C78815   1.411   6.992   9.353 -0.1861  0.7425 -0.9455
  598MOL0     C78816   1.309   7.104   9.388 -1.5912 -0.0449 -0.7466
  598MOL0     C78817   1.180   7.053   9.454 -0.3523  0.7830 -0.1164
  598MOL0     C78818   1.110   6.944   9.368  0.5863  0.0316 -0.3193
  598MOL0     C78819   0.971   6.916   9.415  0.5138  0.3203 -0.5580
  598MOL0     C78820   0.916   6.796   9.340 -0.0716 -0.2813 -0.3058
  598MOL0     N78821   0.764   6.783   9.357 -0.3297 -0.3484 -0.6380
  598MOL0     C78822   0.666   6.829   9.272 -0.2332 -0.5441  0.5564
  598MOL0     C78823   0.548   6.788   9.328  0.4510  0.4604  0.8298
  598MOL0     C78824   0.427   6.786   9.247 -0.4365 -0.2631 -0.6053
  598MOL0     C78825   0.356   6.918   9.219 -0.2773 -0.6214  0.4924
  598MOL0     C78826   0.223   6.899   9.142 -0.0465 -0.0431 -0.6783
  598MOL0     C78827   0.114   6.841   9.228 -0.0174  0.4420 -0.2011
  598MOL0     O78828   0.015   6.788   9.142 -0.0218 -0.8263 -0.1060
  598MOL0     C78829  -0.106   6.754   9.196  0.7584 -0.4061  1.1069
  598MOL0     C78830  -0.209   6.707   9.106  0.0389  0.1205  0.1942
  598MOL0     C78831  -0.329   6.664   9.154 -0.5769  0.3051  0.6209
  598MOL0     C78832  -0.358   6.666   9.289 -0.1532 -0.0983 -0.0207
  598MOL0     C78833  -0.478   6.600   9.334  0.4865  0.0560 -0.5235
  598MOL0     O78834  -0.504   6.594   9.465 -0.6040 -0.5120  0.5130
  598MOL0     C78835  -0.629   6.558   9.517 -0.6349  0.1219 -0.4567
  598MOL0     C78836  -0.715   6.459   9.464  0.5094  0.8439  0.0319
  598MOL0     C78837  -0.833   6.423   9.534  0.4835  0.6141 -0.8102
  598MOL0     C78838  -0.867   6.478   9.651 -0.6662 -0.1506 -0.1958
  598MOL0     O78839  -0.983   6.438   9.703  0.5376  0.4406  0.0112
  598MOL0     C78840  -1.070   6.528   9.776 -0.4950 -0.2205  0.4879
  598MOL0     C78841  -1.214   6.482   9.794 -0.1977  0.9174  0.7747
  598MOL0     C78842  -1.296   6.587   9.854 -0.1401 -0.0318  0.4557
  598MOL0     C78843  -1.443   6.547   9.868 -0.6869  0.3805  0.0082
  598MOL0     C78844  -1.527   6.668   9.878 -1.3561 -0.0113 -0.8741
  598MOL0     C78845  -1.677   6.639   9.884 -0.4830 -0.0604  0.3726
  598MOL0     C78846  -1.747   6.780   9.903 -0.2570  1.3913  0.2796
  598MOL0     C78847  -1.881   6.788   9.832 -0.8137  0.5170  0.2461
  598MOL0    Cl78848  -1.998   6.691   9.929 -0.2246  0.0877  0.7917
  598MOL0     C78849  -0.793   6.592   9.692  0.3317 -0.1978  0.1391
  598MOL0     C78850  -0.668   6.620   9.634  0.1395 -0.3733  0.0259
  598MOL0     O78851  -0.558   6.572   9.250  0.1030  0.2497  0.3106
  598MOL0     C78852  -0.263   6.719   9.373  0.6644 -0.5219 -0.5536
  598MOL0     C78853  -0.138   6.756   9.329  0.6026  0.2272  0.1424
  598MOL0     N78854   0.578   6.712   9.437 -0.0412 -0.0572 -0.7515
  598MOL0     N78855   0.706   6.711   9.452  0.2883  0.3342 -0.1475
  598MOL0     C78856   1.875   6.758   9.307 -0.5829  0.3152 -0.0111
  598MOL0     C78857   1.973   6.664   9.290  0.0535  0.3565  0.7706
  598MOL0     C78858   2.274   6.376   9.164  1.3615  0.2636  0.6388
  598MOL0     C78859   2.405   6.419   9.149 -0.0588 -1.2685  0.0798
  598MOL0     C78860   2.512   6.322   9.133  0.5163  0.7924 -0.5167
  598MOL0     C78861   2.486   6.185   9.144  0.4756  0.4777 -0.3293
  598MOL0     O78862   2.593   6.092   9.143 -0.9935  0.1740 -0.3377
  598MOL0     C78863   2.720   6.138   9.080 -0.1205  0.3140 -0.1502
  598MOL0     C78864   2.811   6.018   9.056 -0.3242 -0.1087 -0.5679
  598MOL0     C78865   2.865   5.958   9.195 -0.5131 -0.3261  0.4173
  598MOL0     C78866   2.846   5.810   9.221  0.0807  0.5513  0.9076
  598MOL0     C78867   2.708   5.764   9.248 -0.5301  0.2290 -0.5042
  598MOL0     C78868   2.593   5.725   9.257  0.1779 -0.7143 -0.4156
  598MOL0     C78869   2.355   6.144   9.154  0.4964  0.3173 -0.3694
  598MOL0     C78870   2.249   6.235   9.167 -0.0490 -0.5290  0.1226
  598MOL0     H78871   2.186   6.839   9.100 -0.3485 -0.9575 -1.3410
  598MOL0     H78872   1.974   6.999   9.108 -0.3593  0.8140  1.2016
  598MOL0     H78873   1.655   6.899   9.396 -2.5334  0.2239  1.8992
  598MOL0     H78874   1.581   6.855   9.244 -0.6112  0.7555  0.4344
  598MOL0     H78875   1.532   7.092   9.199  2.9995  0.8080 -0.3145
  598MOL0     H78876   1.574   7.136   9.358  0.0497 -0.7589  2.1509
  598MOL0     H78877   1.424   6.935   9.445  0.1928 -0.2459 -1.5982
  598MOL0     H78878   1.367   6.933   9.272  1.6017 -0.2292 -1.2607
  598MOL0     H78879   1.358   7.170   9.460  1.4593 -1.0912 -1.7062
  598MOL0     H78880   1.284   7.156   9.295 -1.4116 -0.1160 -0.8354
  598MOL0     H78881   1.109   7.136   9.465 -0.5258  0.7497 -0.9470
  598MOL0     H78882   1.200   7.015   9.555 -1.8948 -0.4026 -0.2304
  598MOL0     H78883   1.171   6.854   9.377  1.0877  0.4505  0.6119
  598MOL0     H78884   1.116   6.991   9.269  0.3586 -0.1703 -0.4317
  598MOL0     H78885   0.975   6.878   9.518  1.1063  0.8399 -0.3870
  598MOL0     H78886   0.913   7.009   9.404  2.6372  2.5394  4.1092
  598MOL0     H78887   0.976   6.713   9.380  2.2062  0.9771 -0.9609
  598MOL0     H78888   0.941   6.801   9.234  3.0010 -0.1643  0.3301
  598MOL0     H78889   0.668   6.889   9.182 -1.8451  1.9033  1.9992
  598MOL0     H78890   0.362   6.711   9.292  1.4465 -0.8466  1.2887
  598MOL0     H78891   0.454   6.744   9.149  0.9820 -0.6181 -0.0821
  598MOL0     H78892   0.420   6.991   9.169 -1.9610  0.1763 -0.6174
  598MOL0     H78893   0.332   6.978   9.307  1.1224 -0.8671  1.0749
  598MOL0     H78894   0.189   6.992   9.096 -0.8577 -1.0201 -2.1640
  598MOL0     H78895   0.240   6.831   9.058  0.7526 -0.4709 -0.1781
  598MOL0     H78896   0.081   6.934   9.275 -3.2043 -0.3468 -0.6044
  598MOL0     H78897   0.158   6.760   9.287  3.7247  1.5684 -1.1754
  598MOL0     H78898  -0.186   6.703   9.000 -1.7645  1.8407 -0.3275
  598MOL0     H78899  -0.402   6.611   9.093 -2.6792  1.3530  2.1057
  598MOL0     H78900  -0.704   6.408   9.369  2.1633  2.3482 -0.6561
  598MOL0     H78901  -0.899   6.347   9.493  0.0912 -0.1171  1.1077
  598MOL0     H78902  -1.076   6.626   9.727  1.8325 -1.4145 -2.5031
  598MOL0     H78903  -1.025   6.549   9.874  1.2617  1.1761 -0.5638
  598MOL0     H78904  -1.230   6.391   9.853 -0.3802 -1.1279 -2.1830
  598MOL0     H78905  -1.249   6.444   9.698 -0.4490  2.4464  0.2387
  598MOL0     H78906  -1.284   6.678   9.795  0.0049 -1.1819 -1.3835
  598MOL0     H78907  -1.271   6.602   9.959  3.1206  0.8568 -0.3281
  598MOL0     H78908  -1.478   6.488   9.783 -3.4506  2.1299 -0.2146
  598MOL0     H78909  -1.455   6.497   9.965  0.7960  2.6310  1.4776
  598MOL0     H78910  -1.507   6.726   9.787  0.7678 -0.8916 -1.0026
  598MOL0     H78911  -1.503   6.734   9.962 -0.3612  0.8196 -1.7884
  598MOL0     H78912  -1.699   6.559   9.955  0.2992 -0.0383  0.6557
  598MOL0     H78913  -1.708   6.594   9.790  2.9252  0.2506 -1.0216
  598MOL0     H78914  -1.753   6.786  10.012 -0.5661 -3.0376  0.6625
  598MOL0     H78915  -1.677   6.858   9.870  0.3899  0.6826 -0.0523
  598MOL0     H78916  -1.873   6.765   9.726  0.4973 -0.0972  0.4519
  598MOL0     H78917  -1.919   6.890   9.823 -1.0991  0.2878 -1.4528
  598MOL0     H78918  -0.828   6.639   9.784 -0.4320 -0.9514  0.2406
  598MOL0     H78919  -0.601   6.690   9.682  0.4365 -0.3016 -0.4900
  598MOL0     H78920  -0.285   6.718   9.479 -2.3816  1.1588 -1.0435
  598MOL0     H78921  -0.059   6.793   9.394  2.7735 -0.6724 -1.8328
  598MOL0     H78922   1.795   6.730   9.374  0.3249  1.7884  1.7442
  598MOL0     H78923   1.964   6.570   9.342 -1.0710 -1.0848 -1.8690
  598MOL0     H78924   2.424   6.526   9.149 -2.7338 -0.6917  1.5099
  598MOL0     H78925   2.610   6.368   9.133  1.6050 -1.2879  1.5437
  598MOL0     H78926   2.772   6.207   9.147  0.0203 -0.7879  0.9214
  598MOL0     H78927   2.695   6.184   8.984  1.1720  3.6443  0.9813
  598MOL0     H78928   2.757   5.941   8.999  1.9127 -2.3888  0.2291
  598MOL0     H78929   2.896   6.049   8.996 -0.4588 -0.0994 -0.7567
  598MOL0     H78930   2.832   6.018   9.281  0.3092  0.2732  0.3286
  598MOL0     H78931   2.974   5.965   9.196 -0.3695 -1.9666 -0.4862
  598MOL0     H78932   2.888   5.749   9.140 -2.1994  1.5345 -1.1472
  598MOL0     H78933   2.906   5.786   9.309 -0.0238 -2.7831  0.1995
  598MOL0     H78934   2.498   5.675   9.262  0.2748 -0.8889 -0.3199
  598MOL0     H78935   2.337   6.039   9.132 -1.6363  0.1880  1.6692
  598MOL0     H78936   2.147   6.201   9.175 -0.6820  1.2486  0.0928
  599MOL0     O78937   3.263   8.243   5.653  0.1982 -0.5731  0.1620
  599MOL0     C78938   3.304   8.361   5.673  0.6591  0.6079  1.2189
  599MOL0     O78939   3.240   8.473   5.640 -0.3729  0.1189 -0.3403
  599MOL0     C78940   3.105   8.484   5.607  0.3791  0.3539 -0.0643
  599MOL0     C78941   3.060   8.466   5.481 -1.1519 -1.3692  0.6740
  599MOL0     C78942   2.928   8.493   5.451 -0.8026  0.3996 -0.0338
  599MOL0     C78943   2.837   8.541   5.549 -1.4711 -0.1547  0.1698
  599MOL0     O78944   2.714   8.577   5.499 -0.7631 -0.7006 -0.8214
  599MOL0     C78945   2.606   8.523   5.571  0.3589  0.0859  0.1108
  599MOL0     C78946   2.471   8.591   5.547 -0.6784  0.2599 -0.1974
  599MOL0     C78947   2.357   8.536   5.623  0.2048  0.1324 -0.4866
  599MOL0     C78948   2.221   8.574   5.563 -0.5925  0.8595  1.1025
  599MOL0     C78949   2.105   8.521   5.649  0.0897  0.5212  0.1322
  599MOL0     C78950   1.960   8.530   5.585 -0.2682 -0.0918  0.1838
  599MOL0     C78951   1.931   8.676   5.555  0.7322 -0.8824  0.2908
  599MOL0     C78952   1.785   8.720   5.513  0.2124  0.4373  0.1374
  599MOL0     N78953   1.695   8.715   5.625 -0.1368  0.0308 -0.3994
  599MOL0     C78954   1.654   8.589   5.671  1.1306 -0.3351 -0.3141
  599MOL0     C78955   1.549   8.623   5.744  0.3760  0.1280 -0.8634
  599MOL0     C78956   1.453   8.521   5.795  0.1585 -0.4666  0.1713
  599MOL0     C78957   1.381   8.449   5.682  0.9345 -0.6856  0.2822
  599MOL0     C78958   1.314   8.549   5.587  0.2951 -0.3750 -0.0883
  599MOL0     C78959   1.194   8.611   5.653 -0.5715 -0.6409  0.7281
  599MOL0     O78960   1.113   8.677   5.545  0.9504 -0.9371  0.4024
  599MOL0     C78961   0.976   8.675   5.547  0.9224 -0.8270  1.1774
  599MOL0     C78962   0.911   8.681   5.428 -0.3546 -0.8841 -0.3488
  599MOL0     C78963   0.772   8.682   5.417 -0.0953  0.4188 -0.0869
  599MOL0     C78964   0.688   8.689   5.530  0.3960  0.6804 -1.0284
  599MOL0     C78965   0.538   8.717   5.523  0.8518 -0.6260 -0.0002
  599MOL0     O78966   0.494   8.771   5.407 -0.1406 -0.5907 -0.0474
  599MOL0     C78967   0.369   8.812   5.398  0.1233  0.6146  0.0501
  599MOL0     C78968   0.274   8.750   5.307 -0.1316  0.6989  0.1838
  599MOL0     C78969   0.143   8.783   5.308  0.9493 -0.3948  0.5540
  599MOL0     C78970   0.093   8.896   5.383  0.1298 -0.1978  0.9103
  599MOL0     O78971  -0.045   8.935   5.390 -0.1933 -0.3685 -0.3831
  599MOL0     C78972  -0.144   8.865   5.315  0.0430 -0.2093  0.0224
  599MOL0     C78973  -0.286   8.905   5.325 -0.1007  0.7724 -0.5854
  599MOL0     C78974  -0.297   9.050   5.315 -0.3601 -0.2927  0.0845
  599MOL0     C78975  -0.435   9.106   5.312 -0.2378 -0.6101 -0.1389
  599MOL0     C78976  -0.495   9.109   5.451  0.2908 -0.0000 -0.2730
  599MOL0     C78977  -0.609   9.209   5.468 -0.2154  0.4890 -0.4718
  599MOL0     C78978  -0.684   9.189   5.606  0.2534  0.2457  0.8394
  599MOL0     C78979  -0.765   9.304   5.661  1.2118 -0.7842 -0.6436
  599MOL0    Cl78980  -0.886   9.357   5.545 -0.1350  0.2664  0.1815
  599MOL0     C78981   0.194   8.968   5.456  0.5413  0.2135  0.6918
  599MOL0     C78982   0.325   8.927   5.470  0.0242  1.0801 -0.1264
  599MOL0     O78983   0.472   8.688   5.622 -0.0337 -0.2752 -0.5657
  599MOL0     C78984   0.754   8.687   5.658  1.2325  0.3571  0.1776
  599MOL0     C78985   0.900   8.687   5.666  0.1307  0.1537 -0.1677
  599MOL0     N78986   1.533   8.758   5.755  0.2134 -0.2485  0.5399
  599MOL0     N78987   1.628   8.820   5.685  0.6008 -0.8108  0.2308
  599MOL0     C78988   2.890   8.572   5.674 -1.2441  0.0094  0.7676
  599MOL0     C78989   3.024   8.532   5.708  0.3160  0.2586  0.4892
  599MOL0     C78990   3.436   8.364   5.727  0.6466  0.0947 -1.0916
  599MOL0     C78991   3.533   8.261   5.696  0.2181 -0.1620  0.1701
  599MOL0     C78992   3.673   8.284   5.734  0.6931 -0.9719  0.5343
  599MOL0     C78993   3.715   8.403   5.796  0.4001 -0.1066 -0.2958
  599MOL0     O78994   3.851   8.414   5.824  1.1336 -0.0168 -0.1444
  599MOL0     C78995   3.898   8.523   5.898  0.0876  0.3350  0.7319
  599MOL0     C78996   4.057   8.512   5.909  0.0996 -0.6290 -0.0475
  599MOL0     C78997   4.120   8.522   5.767 -0.1917 -0.4830 -0.2610
  599MOL0     C78998   4.275   8.549   5.759  0.7215  0.4059  0.4906
  599MOL0     C78999   4.345   8.444   5.832  0.9015 -0.1307  0.4691
  599MOL0     C79000   4.396   8.345   5.890 -0.2268  0.1904 -0.2760
  599MOL0     C79001   3.624   8.506   5.823 -0.0700 -0.2607  0.1920
  599MOL0     C79002   3.491   8.484   5.789  0.6692 -0.2013 -0.5432
  599MOL0     H79003   3.138   8.428   5.416 -0.9436  0.2666 -0.0775
  599MOL0     H79004   2.888   8.490   5.350  0.7513  0.4002 -0.6770
  599MOL0     H79005   2.627   8.516   5.678  0.9268 -0.9793 -0.0592
  599MOL0     H79006   2.603   8.416   5.546  2.7993  0.0411 -0.1752
  599MOL0     H79007   2.447   8.598   5.440  0.9877 -0.1306 -0.6335
  599MOL0     H79008   2.475   8.696   5.578 -0.7824  0.3935 -0.6308
  599MOL0     H79009   2.364   8.580   5.723 -0.9204  2.8067 -1.4656
  599MOL0     H79010   2.373   8.428   5.620  0.9583  0.2387 -0.5020
  599MOL0     H79011   2.214   8.678   5.529  1.6484  0.8382  0.4070
  599MOL0     H79012   2.212   8.519   5.469 -0.8660 -1.2581  2.3147
  599MOL0     H79013   2.104   8.577   5.743  3.5548  2.2631 -0.6862
  599MOL0     H79014   2.133   8.417   5.666 -1.5527  0.0715  0.1859
  599MOL0     H79015   1.899   8.491   5.668  3.2407  1.2098  3.6882
  599MOL0     H79016   1.954   8.464   5.498 -0.7039 -0.1851  0.2768
  599MOL0     H79017   1.953   8.724   5.651 -1.6424 -2.6888  1.8487
  599MOL0     H79018   2.004   8.700   5.477 -0.6635 -0.3954 -0.9201
  599MOL0     H79019   1.734   8.659   5.438 -0.2801 -1.4984  1.9418
  599MOL0     H79020   1.796   8.821   5.471 -1.2183 -1.6768 -6.4319
  599MOL0     H79021   1.681   8.484   5.664 -0.5024 -0.7100 -1.4888
  599MOL0     H79022   1.371   8.555   5.859  0.5765 -0.1785  0.5611
  599MOL0     H79023   1.502   8.446   5.858 -0.9300 -0.2329  1.3330
  599MOL0     H79024   1.310   8.378   5.726 -1.8849  2.0971  0.5852
  599MOL0     H79025   1.459   8.396   5.626  1.2627 -0.9901  1.0133
  599MOL0     H79026   1.387   8.624   5.554  1.8454 -0.7459  2.2679
  599MOL0     H79027   1.273   8.491   5.504  1.5073  0.4571 -1.3113
  599MOL0     H79028   1.227   8.678   5.733 -0.3155 -2.7276  2.4432
  599MOL0     H79029   1.135   8.530   5.696 -0.4350 -2.1805 -1.7466
  599MOL0     H79030   0.970   8.662   5.339 -1.3683 -2.7025 -0.6906
  599MOL0     H79031   0.727   8.673   5.319 -3.0101 -1.8195  1.3256
  599MOL0     H79032   0.306   8.658   5.259 -1.6376  0.0842  0.3175
  599MOL0     H79033   0.074   8.726   5.246  0.8302  0.8192 -0.4681
  599MOL0     H79034  -0.148   8.757   5.330  0.6450 -0.5963 -2.2648
  599MOL0     H79035  -0.100   8.881   5.216  0.2296  1.3861  0.3392
  599MOL0     H79036  -0.333   8.875   5.419 -1.5316  0.3442 -1.4036
  599MOL0     H79037  -0.358   8.854   5.259 -1.5172  0.5548  1.0616
  599MOL0     H79038  -0.245   9.094   5.230  1.9369  0.7337  1.9012
  599MOL0     H79039  -0.237   9.098   5.393  0.4239 -0.6786 -0.2688
  599MOL0     H79040  -0.412   9.203   5.266  1.3515 -2.2090 -3.0755
  599MOL0     H79041  -0.504   9.052   5.247 -0.0469 -1.4258  0.3225
  599MOL0     H79042  -0.421   9.123   5.530  2.5290 -2.4130 -1.7785
  599MOL0     H79043  -0.538   9.009   5.462 -1.6123  0.7142 -0.8932
  599MOL0     H79044  -0.668   9.181   5.381 -0.0602 -0.5290 -0.2624
  599MOL0     H79045  -0.572   9.312   5.471  2.1394 -0.2903  2.1737
  599MOL0     H79046  -0.739   9.095   5.604  3.3513 -1.6875  0.4455
  599MOL0     H79047  -0.597   9.179   5.670  0.8098 -0.9671 -0.0756
  599MOL0     H79048  -0.705   9.393   5.681 -1.9387  0.9502  1.9865
  599MOL0     H79049  -0.816   9.275   5.753  0.2584 -1.1445 -1.2678
  599MOL0     H79050   0.166   9.065   5.496 -2.1458 -0.7122  1.2862
  599MOL0     H79051   0.376   8.993   5.539 -0.4088 -0.3772  1.6767
  599MOL0     H79052   0.695   8.709   5.746 -0.1183 -0.3343 -0.5293
  599MOL0     H79053   0.955   8.690   5.759  0.2376 -0.5255 -0.2066
  599MOL0     H79054   2.823   8.620   5.745  0.4202  0.4911  2.0676
  599MOL0     H79055   3.063   8.539   5.809 -1.6058 -0.8585  1.3605
  599MOL0     H79056   3.506   8.175   5.635 -0.1357 -0.3991  0.6495
  599MOL0     H79057   3.739   8.202   5.704  0.2984 -0.9234 -0.4990
  599MOL0     H79058   3.864   8.528   6.002  1.9451  1.3172  1.3309
  599MOL0     H79059   3.883   8.621   5.851  3.8119  1.7002  2.1025
  599MOL0     H79060   4.095   8.597   5.966  0.2330 -2.2927  2.5341
  599MOL0     H79061   4.098   8.431   5.971  0.9845  1.0166  1.6324
  599MOL0     H79062   4.068   8.607   5.720 -1.6250 -0.2863  1.5640
  599MOL0     H79063   4.087   8.436   5.708 -3.1498 -1.8484  2.9951
  599MOL0     H79064   4.310   8.549   5.655  0.7856 -2.6465  0.4210
  599MOL0     H79065   4.276   8.644   5.813 -3.9282  1.4109 -0.7887
  599MOL0     H79066   4.452   8.262   5.928  2.7030  1.3399 -1.7564
  599MOL0     H79067   3.656   8.609   5.831 -0.5753 -0.1063  0.2767
  599MOL0     H79068   3.422   8.566   5.801 -0.3920 -1.1756  0.2577
  600MOL0     O79069   8.802   1.369   8.430  0.5176  0.2183  0.0789
  600MOL0     C79070   8.912   1.427   8.397  0.8127 -0.3748  0.7463
  600MOL0     O79071   8.921   1.544   8.335 -1.0687 -0.2997  1.0024
  600MOL0     C79072   8.814   1.631   8.331  0.4967 -0.4066 -0.0369
  600MOL0     C79073   8.690   1.610   8.272 -0.5549  0.4185  0.2985
  600MOL0     C79074   8.596   1.707   8.254 -0.1467  0.2632  0.0440
  600MOL0     C79075   8.621   1.833   8.317 -0.0104 -0.7400 -0.1751
  600MOL0     O79076   8.535   1.938   8.313  0.0342 -0.9580  0.5606
  600MOL0     C79077   8.425   1.924   8.225  0.6342  0.3863 -0.1027
  600MOL0     C79078   8.368   2.060   8.204  0.6455  0.4437  0.0515
  600MOL0     C79079   8.235   2.064   8.122  0.0240 -0.3222  0.4718
  600MOL0     C79080   8.179   2.205   8.108  0.2707  0.0867 -0.4106
  600MOL0     C79081   8.049   2.193   8.033 -0.0162  0.5323 -0.2052
  600MOL0     C79082   7.993   2.339   7.995  0.1741  0.4934  0.4788
  600MOL0     C79083   8.097   2.422   7.925 -0.1517 -0.8400  0.2468
  600MOL0     C79084   8.145   2.379   7.788 -0.6505 -0.0090 -0.8840
  600MOL0     N79085   8.026   2.360   7.705 -0.4083 -0.8853  0.3690
  600MOL0     C79086   7.976   2.453   7.622 -0.4472  0.6861 -0.9724
  600MOL0     C79087   7.872   2.384   7.566  0.0893  0.1125 -0.5026
  600MOL0     C79088   7.796   2.439   7.450  0.4608  0.0434 -0.6084
  600MOL0     C79089   7.844   2.371   7.321 -0.1522 -0.1483  0.1933
  600MOL0     C79090   7.778   2.233   7.289  0.0652  0.1367  0.0878
  600MOL0     C79091   7.633   2.250   7.237  0.5135  0.4008  0.2584
  600MOL0     O79092   7.565   2.130   7.197  0.5792  0.2026  0.2870
  600MOL0     C79093   7.429   2.147   7.186 -0.6884 -0.3206  0.0046
  600MOL0     C79094   7.356   2.267   7.191 -0.2842  0.1909 -0.1855
  600MOL0     C79095   7.221   2.270   7.161  0.4752 -0.1634 -0.1502
  600MOL0     C79096   7.139   2.154   7.135  0.1998 -0.1554  0.5033
  600MOL0     C79097   7.000   2.174   7.102 -0.3574  1.0692  0.4499
  600MOL0     O79098   6.942   2.290   7.118 -0.7319 -0.0851  0.6302
  600MOL0     C79099   6.813   2.305   7.071  0.3916 -1.0643 -0.0257
  600MOL0     C79100   6.716   2.369   7.153 -0.2065 -0.8808 -1.1131
  600MOL0     C79101   6.582   2.381   7.110 -0.3471  0.1660  0.2209
  600MOL0     C79102   6.551   2.341   6.984  0.9629  0.2114 -0.1465
  600MOL0     O79103   6.421   2.365   6.956  1.0636 -0.9196 -0.0460
  600MOL0     C79104   6.366   2.291   6.836 -0.0496 -0.2047 -0.6299
  600MOL0     C79105   6.223   2.343   6.808 -0.6872 -0.1986 -0.9746
  600MOL0     C79106   6.131   2.317   6.933 -1.1381 -0.2400  0.1917
  600MOL0     C79107   5.992   2.355   6.887  0.1575 -0.6437 -0.2176
  600MOL0     C79108   5.894   2.335   7.003  0.5830  0.8677  0.2278
  600MOL0     C79109   5.752   2.345   6.957  0.3143 -0.4104 -0.2793
  600MOL0     C79110   5.718   2.246   6.848 -0.2391 -0.0157 -0.0732
  600MOL0     C79111   5.567   2.206   6.855 -0.2313  0.1143 -1.0929
  600MOL0    Cl79112   5.464   2.345   6.826  0.1646  0.3067 -1.1527
  600MOL0     C79113   6.652   2.292   6.892 -0.3828  0.9092  0.0886
  600MOL0     C79114   6.777   2.259   6.943 -0.1907 -0.2528 -1.1266
  600MOL0     O79115   6.941   2.072   7.063 -0.1821 -0.2813 -0.5678
  600MOL0     C79116   7.220   2.034   7.128  0.9531 -0.3564  0.2258
  600MOL0     C79117   7.356   2.026   7.163  0.9343 -0.1049 -0.0363
  600MOL0     N79118   7.876   2.250   7.603 -0.0100 -0.5074 -0.3619
  600MOL0     N79119   7.970   2.246   7.699  0.1514 -0.9995  0.2841
  600MOL0     C79120   8.739   1.850   8.384  0.1392  0.2996  0.0830
  600MOL0     C79121   8.839   1.751   8.378  0.2587  0.3646  1.3873
  600MOL0     C79122   9.033   1.359   8.435 -0.7856 -0.2571  0.4684
  600MOL0     C79123   9.156   1.402   8.378  0.6284  0.2878 -0.1559
  600MOL0     C79124   9.275   1.338   8.409 -0.4599  1.4644  0.5059
  600MOL0     C79125   9.283   1.223   8.486 -0.4640 -0.1875  0.1514
  600MOL0     O79126   9.388   1.145   8.516  0.0791 -0.7222 -0.3273
  600MOL0     C79127   9.516   1.180   8.474  0.9551  0.1458  0.6307
  600MOL0     C79128   9.616   1.126   8.572 -0.3591  0.1599 -0.5379
  600MOL0     C79129   9.751   1.144   8.506 -0.5042 -0.9796  1.1275
  600MOL0     C79130   9.866   1.116   8.605  0.8475  0.2833 -0.6836
  600MOL0     C79131   9.854   0.981   8.677 -0.3348 -0.5153  0.3809
  600MOL0     C79132   9.857   0.863   8.720 -0.2208 -0.2694 -0.7198
  600MOL0     C79133   9.158   1.177   8.538 -0.7946 -0.1348  0.1990
  600MOL0     C79134   9.040   1.244   8.516 -0.5839  0.5204  0.4041
  600MOL0     H79135   8.665   1.515   8.226  0.2577  0.2622  0.1678
  600MOL0     H79136   8.513   1.686   8.187  0.2136  1.0829 -0.6914
  600MOL0     H79137   8.360   1.851   8.274  1.0604  0.1707  0.1513
  600MOL0     H79138   8.454   1.876   8.131  1.8271 -0.7703  0.8101
  600MOL0     H79139   8.452   2.102   8.148  1.9306 -1.1987  0.6672
  600MOL0     H79140   8.363   2.118   8.297  1.1479  1.4446 -0.5321
  600MOL0     H79141   8.155   2.005   8.168 -1.8210  0.7501 -1.2176
  600MOL0     H79142   8.265   2.028   8.023 -1.2185  2.9048 -1.1885
  600MOL0     H79143   8.160   2.264   8.199  0.9795  2.8353 -1.9150
  600MOL0     H79144   8.267   2.251   8.061  1.6402 -0.0539  1.8697
  600MOL0     H79145   7.972   2.145   8.094 -1.9181  3.6049  0.0276
  600MOL0     H79146   8.065   2.134   7.943  1.7561 -0.3473  0.6417
  600MOL0     H79147   7.953   2.393   8.081 -1.2122 -2.0156  1.5293
  600MOL0     H79148   7.910   2.323   7.925 -0.4970  1.7493  0.9632
  600MOL0     H79149   8.068   2.528   7.923  0.6208 -0.6230 -0.2190
  600MOL0     H79150   8.191   2.432   7.980  1.3142 -0.2885 -2.1746
  600MOL0     H79151   8.211   2.292   7.783 -0.2958  0.1953  0.1622
  600MOL0     H79152   8.197   2.468   7.753 -0.0713 -0.1022 -0.2565
  600MOL0     H79153   8.005   2.557   7.621 -1.9377  1.1307 -1.0235
  600MOL0     H79154   7.830   2.542   7.454 -1.5073  0.6993  1.1704
  600MOL0     H79155   7.687   2.429   7.455  0.5069 -0.1893 -0.0577
  600MOL0     H79156   7.953   2.362   7.321 -0.2480 -1.5209  0.4284
  600MOL0     H79157   7.839   2.450   7.245  1.1030  0.6631  0.9126
  600MOL0     H79158   7.837   2.176   7.217  0.1601  0.9357 -0.4848
  600MOL0     H79159   7.794   2.173   7.379  1.1681  0.5668  0.2045
  600MOL0     H79160   7.646   2.317   7.151 -1.2519 -0.8084 -1.0340
  600MOL0     H79161   7.584   2.300   7.321  1.7656 -1.8943  2.5037
  600MOL0     H79162   7.410   2.359   7.210 -0.5236  0.5946 -1.3716
  600MOL0     H79163   7.171   2.366   7.163  0.9080  0.0854 -0.8541
  600MOL0     H79164   6.759   2.408   7.244 -2.3810  0.4387 -0.5755
  600MOL0     H79165   6.510   2.425   7.178 -0.2777  0.3149  0.1990
  600MOL0     H79166   6.364   2.182   6.848 -1.0037 -0.2329 -0.9612
  600MOL0     H79167   6.425   2.312   6.746 -0.2716  3.4917 -0.0643
  600MOL0     H79168   6.183   2.289   6.722  1.0128 -0.6169 -1.5482
  600MOL0     H79169   6.230   2.447   6.772 -0.8631  0.5316  0.9867
  600MOL0     H79170   6.160   2.368   7.025  1.3677  2.3681 -1.8383
  600MOL0     H79171   6.131   2.214   6.968 -2.2825  0.3949  2.1885
  600MOL0     H79172   5.997   2.459   6.852  1.3641  0.4735  2.9671
  600MOL0     H79173   5.960   2.292   6.803  2.3218 -2.3711  0.1645
  600MOL0     H79174   5.895   2.413   7.080  1.0018  0.0666  1.0447
  600MOL0     H79175   5.919   2.237   7.044  2.0031  1.5031  0.9526
  600MOL0     H79176   5.735   2.450   6.928  1.1750  0.0164  0.7254
  600MOL0     H79177   5.678   2.335   7.037 -0.5908 -0.6151 -1.1082
  600MOL0     H79178   5.735   2.306   6.758  0.8771  0.9782  0.7612
  600MOL0     H79179   5.773   2.152   6.853  0.3505  0.3124 -0.1683
  600MOL0     H79180   5.541   2.147   6.942 -0.9389  1.9361 -0.0112
  600MOL0     H79181   5.552   2.140   6.769 -3.1901 -0.6663 -0.0770
  600MOL0     H79182   6.641   2.282   6.785 -1.1618 -1.7208  0.3542
  600MOL0     H79183   6.856   2.212   6.886 -2.0526 -1.6743 -2.6589
  600MOL0     H79184   7.163   1.944   7.106 -1.7063  1.2442  0.1796
  600MOL0     H79185   7.410   1.932   7.164  0.3114 -0.4649  0.1341
  600MOL0     H79186   8.769   1.940   8.436  0.9589  1.0043 -1.5343
  600MOL0     H79187   8.937   1.782   8.414  0.8474  1.6669 -1.1206
  600MOL0     H79188   9.165   1.488   8.313 -0.2041 -0.0317 -0.6972
  600MOL0     H79189   9.366   1.365   8.357  0.4234 -0.9419  0.6953
  600MOL0     H79190   9.530   1.289   8.472  1.1480  0.1178  0.4664
  600MOL0     H79191   9.535   1.140   8.374  1.5258  0.9633  0.3991
  600MOL0     H79192   9.610   1.184   8.664 -1.3963 -0.8596  0.0703
  600MOL0     H79193   9.591   1.023   8.602  3.0885 -0.3649  1.0004
  600MOL0     H79194   9.755   1.247   8.470  1.1367 -1.0399  1.0702
  600MOL0     H79195   9.763   1.087   8.414  0.6982 -0.5504  0.9987
  600MOL0     H79196   9.966   1.119   8.559  0.9809 -0.5951 -0.4628
  600MOL0     H79197   9.864   1.186   8.689  0.6404 -1.1973  0.6022
  600MOL0     H79198   9.834   0.764   8.753 -3.0439  1.3997  3.0247
  600MOL0     H79199   9.164   1.088   8.600 -0.4221 -0.6050 -0.5020
  600MOL0     H79200   8.945   1.207   8.554 -0.5363  1.5560  1.5968
  601MOL0     O79201  10.068  10.329   9.749  0.0436 -0.0401 -0.3559
  601MOL0     C79202  10.092  10.360   9.868  0.3775  0.1670  0.0352
  601MOL0     O79203   9.999  10.401   9.955  0.7663  0.3041  0.3855
  601MOL0     C79204   9.878  10.457   9.918 -0.2204 -0.1587  0.4453
  601MOL0     C79205   9.776  10.458  10.017 -0.6155  0.9419 -0.5677
  601MOL0     C79206   9.652  10.512   9.995 -0.1369  0.2928  1.1376
  601MOL0     C79207   9.626  10.562   9.869  0.0827  0.6092  0.0105
  601MOL0     O79208   9.493  10.610   9.848 -0.4103  0.5621  0.2651
  601MOL0     C79209   9.481  10.702   9.737  0.4028 -0.7003  0.2828
  601MOL0     C79210   9.340  10.753   9.734  0.4989 -0.2518  0.1829
  601MOL0     C79211   9.229  10.641   9.720  0.2626  1.0625  0.4038
  601MOL0     C79212   9.089  10.688   9.767  0.5115  0.3248  0.7757
  601MOL0     C79213   8.967  10.590   9.723  0.5086 -0.2376 -0.5038
  601MOL0     C79214   8.834  10.623   9.789 -0.0286 -0.2645  0.0520
  601MOL0     C79215   8.740  10.510   9.770 -0.0980 -0.2027 -0.6363
  601MOL0     C79216   8.622  10.535   9.861  0.5531 -0.4245  0.9279
  601MOL0     N79217   8.515  10.435   9.833  0.1652 -0.0122 -1.1449
  601MOL0     C79218   8.461  10.387   9.712  0.2696  0.2577  0.5647
  601MOL0     C79219   8.356  10.307   9.740  0.0659  0.0814 -0.2436
  601MOL0     C79220   8.261  10.227   9.644 -0.9695  0.6674  0.1351
  601MOL0     C79221   8.120  10.276   9.657 -0.0156 -0.4432 -0.2363
  601MOL0     C79222   8.099  10.428   9.672 -0.8878 -0.2992  0.6172
  601MOL0     C79223   7.947  10.462   9.675  0.1019  0.1884 -0.0213
  601MOL0     O79224   7.864  10.389   9.570 -0.6151 -0.7819 -0.6617
  601MOL0     C79225   7.728  10.396   9.583  0.5015  0.1226 -0.3556
  601MOL0     C79226   7.664  10.500   9.650 -0.3509  0.2687 -0.2369
  601MOL0     C79227   7.522  10.500   9.668  0.4636  0.0996  0.0578
  601MOL0     C79228   7.443  10.401   9.623  0.5740  0.0629  0.8467
  601MOL0     C79229   7.291  10.404   9.643  1.0695  0.8678 -0.9894
  601MOL0     O79230   7.239  10.526   9.675 -0.0258  0.6198 -0.3868
  601MOL0     C79231   7.106  10.561   9.654  0.5094  0.4369 -0.0290
  601MOL0     C79232   7.012  10.479   9.587  0.6274  0.7908  0.2386
  601MOL0     C79233   6.885  10.514   9.567  0.0364 -0.8368 -0.2997
  601MOL0     C79234   6.839  10.639   9.602 -0.6323  0.3695 -0.0872
  601MOL0     O79235   6.707  10.656   9.574  0.3274 -0.1949  0.2541
  601MOL0     C79236   6.630  10.769   9.626 -0.1717  0.4731 -0.9468
  601MOL0     C79237   6.480  10.739   9.615  0.3308  0.5915 -0.1537
  601MOL0     C79238   6.387  10.820   9.707 -0.3866  0.0869  0.6489
  601MOL0     C79239   6.246  10.766   9.694 -0.3195  0.6629 -1.1816
  601MOL0     C79240   6.141  10.828   9.795  0.2287  0.4025  0.7066
  601MOL0     C79241   6.005  10.797   9.739  0.4379  0.4454  0.2901
  601MOL0     C79242   5.889  10.859   9.811  0.0957 -0.3502 -0.4058
  601MOL0     C79243   5.757  10.800   9.776  0.5484  0.7419 -0.1336
  601MOL0    Cl79244   5.735  10.624   9.809  0.1044  0.6397  0.3612
  601MOL0     C79245   6.928  10.723   9.673  0.0482  0.3646  0.0304
  601MOL0     C79246   7.054  10.689   9.697  0.2390 -0.3406  0.0510
  601MOL0     O79247   7.233  10.292   9.637  0.3385 -0.8181  1.0946
  601MOL0     C79248   7.510  10.299   9.548 -0.2707 -0.2005 -0.2975
  601MOL0     C79249   7.649  10.296   9.530  0.5776  0.4286  0.0131
  601MOL0     N79250   8.361  10.305   9.880  0.1946 -0.3210 -0.1999
  601MOL0     N79251   8.447  10.385   9.938 -0.2796  0.6325  0.1132
  601MOL0     C79252   9.721  10.549   9.766 -1.0844  0.8748 -0.7929
  601MOL0     C79253   9.850  10.502   9.791 -0.3549 -0.6547  0.0033
  601MOL0     C79254  10.234  10.369   9.905 -0.2195  0.2658 -0.5141
  601MOL0     C79255  10.281  10.450  10.011 -0.2778  0.0536  0.1453
  601MOL0     C79256  10.420  10.470  10.029 -1.0067 -0.0642 -0.7130
  601MOL0     C79257  10.516  10.398   9.951  0.2746 -0.5748  0.0776
  601MOL0     O79258  10.649  10.408   9.990  0.5494 -0.0789  0.6442
  601MOL0     C79259  10.750  10.415   9.884  0.1174  0.0316 -0.7205
  601MOL0     C79260  10.871  10.496   9.940  1.0654  1.2278 -0.6336
  601MOL0     C79261  11.001  10.473   9.858  0.3456  1.4218  0.7006
  601MOL0     C79262  11.123  10.554   9.906 -0.3794 -1.0127 -0.4266
  601MOL0     C79263  11.255  10.521   9.861 -0.4738  0.5742  0.4326
  601MOL0     C79264  11.372  10.504   9.843  0.3682  0.4091 -0.3682
  601MOL0     C79265  10.467  10.328   9.839 -0.1592  1.3623 -0.2955
  601MOL0     C79266  10.328  10.315   9.815 -0.9728 -0.1128 -0.1956
  601MOL0     H79267   9.786  10.421  10.118  2.5738 -0.2425 -1.1916
  601MOL0     H79268   9.579  10.501  10.074  0.9962 -0.4225  2.1214
  601MOL0     H79269   9.500  10.653   9.642  2.0207 -2.2960  1.3671
  601MOL0     H79270   9.549  10.786   9.751  0.1789 -0.5370  0.4038
  601MOL0     H79271   9.339  10.829   9.656  1.9659 -1.8796 -1.5244
  601MOL0     H79272   9.327  10.794   9.835 -1.7310 -3.8470  1.5307
  601MOL0     H79273   9.252  10.550   9.775 -1.6559 -0.7134 -1.5495
  601MOL0     H79274   9.219  10.614   9.614  2.8940  1.8662 -0.1489
  601MOL0     H79275   9.083  10.693   9.876  0.7321 -3.4524  1.0786
  601MOL0     H79276   9.063  10.787   9.728  1.8542  1.0242  1.5743
  601MOL0     H79277   9.000  10.495   9.767  1.0875 -0.0180 -0.4472
  601MOL0     H79278   8.948  10.566   9.618  1.0905  3.2492 -1.5195
  601MOL0     H79279   8.792  10.715   9.747 -1.5190 -0.1324  1.6891
  601MOL0     H79280   8.845  10.649   9.895  0.9820  1.9847 -0.5544
  601MOL0     H79281   8.722  10.492   9.664  1.4413 -0.9471 -0.8136
  601MOL0     H79282   8.782  10.416   9.810 -0.4572 -0.2843 -0.4500
  601MOL0     H79283   8.582  10.637   9.851  0.1001 -0.7067 -0.3342
  601MOL0     H79284   8.658  10.520   9.963 -0.3126 -0.5611  1.2260
  601MOL0     H79285   8.509  10.414   9.619 -0.1840  2.6057  0.9587
  601MOL0     H79286   8.266  10.120   9.665 -0.0222  0.1607 -2.3149
  601MOL0     H79287   8.307  10.240   9.545 -0.9197  0.9057  0.1875
  601MOL0     H79288   8.095  10.224   9.750 -1.5091 -2.1847 -1.5391
  601MOL0     H79289   8.073  10.226   9.572  2.1793  0.0280 -1.8408
  601MOL0     H79290   8.137  10.464   9.769 -0.9153 -0.2913  0.6246
  601MOL0     H79291   8.136  10.492   9.592 -0.8362 -0.1065  0.7936
  601MOL0     H79292   7.928  10.568   9.662  0.4240 -0.0658 -3.6374
  601MOL0     H79293   7.914  10.436   9.776 -1.7300  1.7519 -0.1791
  601MOL0     H79294   7.713  10.586   9.694 -0.7965  0.6825 -0.5436
  601MOL0     H79295   7.478  10.579   9.728  2.7483  1.1616  0.4465
  601MOL0     H79296   7.025  10.380   9.546 -1.2191  1.1210 -1.2479
  601MOL0     H79297   6.824  10.456   9.498 -1.1453  1.2127 -1.0488
  601MOL0     H79298   6.663  10.858   9.572  1.3038 -1.2176 -3.0241
  601MOL0     H79299   6.657  10.778   9.732 -0.7283 -3.0854 -0.3630
  601MOL0     H79300   6.471  10.636   9.651  1.7772 -0.7491 -3.2241
  601MOL0     H79301   6.446  10.748   9.511  0.5585  1.3877 -0.1572
  601MOL0     H79302   6.382  10.923   9.670  0.7865 -0.7012 -1.9561
  601MOL0     H79303   6.416  10.825   9.812 -1.5120  1.6221  0.9170
  601MOL0     H79304   6.208  10.777   9.592 -0.9175 -0.1831 -1.0552
  601MOL0     H79305   6.253  10.660   9.718  4.4980  1.3047  1.6717
  601MOL0     H79306   6.167  10.934   9.797  0.8931  0.3200 -1.2375
  601MOL0     H79307   6.142  10.783   9.895 -1.1049  0.4597  0.7661
  601MOL0     H79308   5.992  10.689   9.736  2.5315  0.1526 -1.5364
  601MOL0     H79309   6.003  10.820   9.632  3.6916 -1.7384 -0.3843
  601MOL0     H79310   5.907  10.838   9.917  2.3639 -0.3868 -0.7610
  601MOL0     H79311   5.887  10.967   9.797  0.3954 -0.6436 -3.6345
  601MOL0     H79312   5.738  10.828   9.672 -1.1229  0.8563  0.1672
  601MOL0     H79313   5.680  10.840   9.844  1.5030 -2.0342  2.8695
  601MOL0     H79314   6.884  10.814   9.713 -2.5201 -1.2998  1.3123
  601MOL0     H79315   7.116  10.754   9.758  0.8105  0.2483 -1.1226
  601MOL0     H79316   7.449  10.218   9.509 -1.0708  0.7513 -1.0636
  601MOL0     H79317   7.702  10.218   9.477 -2.3284 -1.4368 -0.3584
  601MOL0     H79318   9.702  10.588   9.667 -1.3587  2.8142 -0.0298
  601MOL0     H79319   9.919  10.498   9.708 -2.9561 -1.3420 -2.2945
  601MOL0     H79320  10.201  10.493  10.071 -1.6235 -3.5810  1.2387
  601MOL0     H79321  10.458  10.533  10.109 -0.4048 -0.5026 -0.6475
  601MOL0     H79322  10.725  10.466   9.790 -1.4384  1.3251  0.3460
  601MOL0     H79323  10.782  10.314   9.857  0.8642  0.7638 -2.8733
  601MOL0     H79324  10.854  10.603   9.935 -0.0477  0.9950 -2.4568
  601MOL0     H79325  10.892  10.465  10.043  0.6767 -1.6864 -1.3303
  601MOL0     H79326  10.986  10.488   9.751  0.4177  0.5451  0.5602
  601MOL0     H79327  11.030  10.368   9.867  0.4798  1.5548  2.0312
  601MOL0     H79328  11.097  10.659   9.886  1.4719 -0.5295 -0.4697
  601MOL0     H79329  11.113  10.539  10.014 -1.9548 -0.3888 -0.4461
  601MOL0     H79330  11.477  10.501   9.822  0.4017  1.1989 -0.3172
  601MOL0     H79331  10.541  10.271   9.783 -1.9666 -0.0233 -1.3937
  601MOL0     H79332  10.287  10.266   9.727 -2.1336  0.2799  0.1144
  602MOL0     O79333   1.288  11.037  11.081 -0.6348 -0.5857  0.8740
  602MOL0     C79334   1.351  11.085  10.987  0.2184 -0.5851 -0.3181
  602MOL0     O79335   1.285  11.139  10.884  0.0365 -0.2144  0.0128
  602MOL0     C79336   1.144  11.138  10.871 -1.0814  0.1521 -0.1636
  602MOL0     C79337   1.095  11.064  10.768 -0.4190  0.1322  0.7087
  602MOL0     C79338   0.958  11.053  10.753 -0.5487 -0.1029  1.0451
  602MOL0     C79339   0.865  11.104  10.837 -0.7530 -0.5017 -0.3205
  602MOL0     O79340   0.725  11.094  10.830  0.2154  0.8015 -0.0131
  602MOL0     C79341   0.653  11.037  10.721  0.0976 -0.6054  1.2229
  602MOL0     C79342   0.509  11.085  10.731  0.7171 -0.4987 -0.6941
  602MOL0     C79343   0.501  11.244  10.724 -0.2472  0.5104  0.1616
  602MOL0     C79344   0.358  11.302  10.731 -0.5158  0.1939 -0.2950
  602MOL0     C79345   0.351  11.452  10.700  0.4044  0.7525  0.0775
  602MOL0     C79346   0.379  11.488  10.557  0.2709 -0.5500 -0.9083
  602MOL0     C79347   0.276  11.438  10.452  0.9255  0.7614  0.5581
  602MOL0     C79348   0.316  11.504  10.314 -0.2790  0.5447 -0.1352
  602MOL0     N79349   0.260  11.634  10.280  0.4281  0.4153  0.2691
  602MOL0     C79350   0.157  11.658  10.187  0.7099 -0.5413 -0.0068
  602MOL0     C79351   0.139  11.796  10.193 -0.6371 -0.9364  0.3602
  602MOL0     C79352   0.022  11.872  10.133  1.0604  0.1852  0.4631
  602MOL0     C79353   0.043  11.960  10.005 -0.1704 -0.0540  0.0862
  602MOL0     C79354   0.164  12.056  10.024 -0.7424  0.1256  0.4532
  602MOL0     C79355   0.126  12.144  10.136  0.2752 -0.5644  0.6193
  602MOL0     O79356   0.214  12.263  10.137  0.2965  0.1619  0.7746
  602MOL0     C79357   0.347  12.245  10.142 -0.3908 -0.1931 -1.0837
  602MOL0     C79358   0.401  12.183  10.257 -0.7187 -0.0807 -0.0586
  602MOL0     C79359   0.541  12.156  10.262  0.3823 -0.4144 -0.7717
  602MOL0     C79360   0.621  12.197  10.154 -0.6356 -0.3923  1.0600
  602MOL0     C79361   0.768  12.177  10.168 -0.1368  0.5211 -1.1785
  602MOL0     O79362   0.823  12.116  10.276  0.1454  0.5689 -0.4374
  602MOL0     C79363   0.959  12.106  10.292 -0.0659 -0.3525 -0.2712
  602MOL0     C79364   1.051  12.210  10.263 -0.5892  0.6333 -1.4265
  602MOL0     C79365   1.186  12.197  10.293  0.7350 -0.1712  0.6954
  602MOL0     C79366   1.236  12.078  10.342  0.7097  0.5770 -0.9887
  602MOL0     O79367   1.371  12.055  10.375 -0.0789 -0.8051 -0.1772
  602MOL0     C79368   1.466  12.167  10.348 -0.6497 -0.5801  0.2415
  602MOL0     C79369   1.600  12.108  10.291 -0.0528 -0.3114  0.5413
  602MOL0     C79370   1.698  12.221  10.254 -0.6959  0.0880 -0.5637
  602MOL0     C79371   1.771  12.178  10.132  0.2965 -0.6205  0.4063
  602MOL0     C79372   1.904  12.251  10.118  0.4243  0.0789 -0.3219
  602MOL0     C79373   2.002  12.206  10.228 -0.2229 -0.5514  0.9517
  602MOL0     C79374   2.142  12.258  10.200  0.2295  0.1703 -0.4409
  602MOL0     C79375   2.236  12.248  10.321  0.5426  0.7169 -0.1793
  602MOL0    Cl79376   2.394  12.315  10.259  0.0762 -0.1674  0.0195
  602MOL0     C79377   1.151  11.973  10.372 -0.3967 -0.1744  0.1138
  602MOL0     C79378   1.009  11.993  10.354 -0.0986  1.3428 -0.8233
  602MOL0     O79379   0.833  12.207  10.068  0.1527  0.8549  0.4963
  602MOL0     C79380   0.565  12.261  10.044  0.0717 -1.3360 -0.4393
  602MOL0     C79381   0.427  12.287  10.034  0.4507  0.4686  0.0521
  602MOL0     N79382   0.248  11.848  10.271  0.6702 -0.5942  0.6104
  602MOL0     N79383   0.317  11.748  10.315  0.6461 -0.8063 -0.0052
  602MOL0     C79384   0.916  11.182  10.948  0.0604  0.0817  0.0011
  602MOL0     C79385   1.052  11.197  10.964  0.1046 -0.5457 -0.3112
  602MOL0     C79386   1.499  11.075  10.973  0.6736  0.0797 -0.0631
  602MOL0     C79387   1.570  10.979  11.041  0.6988  0.0484  0.3943
  602MOL0     C79388   1.707  10.957  11.015  0.4528  0.4240  0.2788
  602MOL0     C79389   1.780  11.048  10.939 -0.0482 -0.4039 -0.1441
  602MOL0     O79390   1.920  11.025  10.938 -0.5158 -0.3439 -0.0880
  602MOL0     C79391   2.009  11.113  10.870  0.4082 -0.2593  0.0297
  602MOL0     C79392   2.155  11.075  10.884 -0.4766 -0.3097 -0.7956
  602MOL0     C79393   2.193  10.943  10.814  0.5653 -0.7669  0.8083
  602MOL0     C79394   2.323  10.889  10.857 -0.3473 -0.2353  0.3158
  602MOL0     C79395   2.324  10.835  10.997  0.0586  0.5698 -0.5611
  602MOL0     C79396   2.333  10.789  11.111 -0.2178 -0.4753 -0.3979
  602MOL0     C79397   1.706  11.142  10.867  0.1292  0.8236 -0.0953
  602MOL0     C79398   1.566  11.153  10.877 -0.3315 -0.7171 -0.0772
  602MOL0     H79399   1.167  11.016  10.701 -1.6217  0.0869 -0.5978
  602MOL0     H79400   0.936  10.996  10.662 -0.4039  0.8435  0.4035
  602MOL0     H79401   0.651  10.928  10.720 -0.0468 -0.6123  0.0441
  602MOL0     H79402   0.695  11.068  10.625 -0.2883 -1.4227  0.7761
  602MOL0     H79403   0.475  11.055  10.831 -2.8710 -2.1771 -2.2657
  602MOL0     H79404   0.443  11.043  10.655 -1.2796  0.0577  0.6528
  602MOL0     H79405   0.544  11.273  10.627 -0.6567  1.0049  0.1221
  602MOL0     H79406   0.552  11.303  10.801 -0.3529  2.4542 -1.1837
  602MOL0     H79407   0.303  11.248  10.654  1.1601  0.9483 -2.0819
  602MOL0     H79408   0.307  11.283  10.827 -0.5748 -0.4344 -0.4415
  602MOL0     H79409   0.420  11.508  10.764 -1.1273  2.5488  0.2441
  602MOL0     H79410   0.256  11.498  10.727 -0.4941 -1.6768  1.3468
  602MOL0     H79411   0.478  11.460  10.519  0.5157 -0.2083 -0.5298
  602MOL0     H79412   0.381  11.597  10.567  2.1129 -0.6732  0.7030
  602MOL0     H79413   0.275  11.329  10.438 -2.0822  0.5015  1.9395
  602MOL0     H79414   0.176  11.464  10.488  0.6562  1.5371 -0.6667
  602MOL0     H79415   0.286  11.432  10.237 -3.1573 -0.2697  1.5620
  602MOL0     H79416   0.424  11.521  10.315 -0.5600  2.7095 -1.1390
  602MOL0     H79417   0.090  11.597  10.127  1.3071  0.7036 -2.0227
  602MOL0     H79418  -0.015  11.942  10.208  1.4604  0.1617  0.6862
  602MOL0     H79419  -0.060  11.802  10.116  1.7239 -0.5457  0.2344
  602MOL0     H79420  -0.049  12.019   9.999  0.1639  0.8636  2.8618
  602MOL0     H79421   0.052  11.899   9.914  2.0927 -0.9630  0.8537
  602MOL0     H79422   0.260  12.011  10.050 -0.0733  2.1668  1.7923
  602MOL0     H79423   0.164  12.116   9.932 -1.1250 -0.8678 -0.2164
  602MOL0     H79424   0.139  12.087  10.229  1.9436  0.1075  0.8257
  602MOL0     H79425   0.021  12.172  10.124  0.4645  0.1449  0.6282
  602MOL0     H79426   0.336  12.160  10.341 -0.9505  0.8935  0.0301
  602MOL0     H79427   0.584  12.099  10.344 -0.3493 -2.0259 -1.4631
  602MOL0     H79428   1.011  12.308  10.241 -0.7825  1.1436  0.9371
  602MOL0     H79429   1.249  12.285  10.290  0.8354 -0.2375  0.8304
  602MOL0     H79430   1.489  12.211  10.445  0.6552 -0.4476 -0.1129
  602MOL0     H79431   1.435  12.244  10.277 -0.6102  0.0031  0.8407
  602MOL0     H79432   1.572  12.062  10.196  3.0252  0.7349 -1.0053
  602MOL0     H79433   1.642  12.031  10.357 -1.0366  0.5342  2.2449
  602MOL0     H79434   1.771  12.233  10.334 -0.1147 -0.8546 -0.9314
  602MOL0     H79435   1.637  12.308  10.230 -2.3553 -1.1277 -0.9609
  602MOL0     H79436   1.783  12.069  10.133  1.4927 -0.5032  0.9135
  602MOL0     H79437   1.702  12.206  10.052  0.4654  0.4444  0.6282
  602MOL0     H79438   1.898  12.360  10.119  0.8601  0.1047  0.0183
  602MOL0     H79439   1.958  12.217  10.029  3.5696  2.1205  0.6300
  602MOL0     H79440   2.008  12.097  10.235  2.3908 -0.5259  0.2212
  602MOL0     H79441   1.971  12.254  10.321  2.8577  3.7283  0.0507
  602MOL0     H79442   2.184  12.200  10.118 -1.3019  0.2653 -1.3490
  602MOL0     H79443   2.142  12.363  10.167 -0.0189  0.1821 -0.4044
  602MOL0     H79444   2.264  12.144  10.341  0.6044  0.4855 -1.3852
  602MOL0     H79445   2.195  12.299  10.408 -0.5269  0.9267 -0.7871
  602MOL0     H79446   1.180  11.879  10.416  1.5542  2.0622  4.1669
  602MOL0     H79447   0.945  11.911  10.386  1.7121  0.1230 -0.1272
  602MOL0     H79448   0.623  12.306   9.964  1.4034 -0.4266  0.9817
  602MOL0     H79449   0.385  12.340   9.949  1.3497 -1.2214 -1.5079
  602MOL0     H79450   0.854  11.237  11.017  1.3032  3.8618 -1.6055
  602MOL0     H79451   1.090  11.258  11.045 -1.0575 -2.2519  1.6065
  602MOL0     H79452   1.525  10.913  11.115  3.0013 -0.2596  1.5834
  602MOL0     H79453   1.762  10.881  11.069  1.6251  0.7993 -0.3638
  602MOL0     H79454   1.982  11.215  10.900 -1.3250 -0.0515 -2.0028
  602MOL0     H79455   1.995  11.106  10.762  5.5180  0.1787 -0.9375
  602MOL0     H79456   2.221  11.154  10.845  0.1211 -1.6734 -2.6916
  602MOL0     H79457   2.185  11.061  10.988  2.8859 -2.1269 -1.8762
  602MOL0     H79458   2.194  10.950  10.705 -0.8176  3.5046  0.8999
  602MOL0     H79459   2.112  10.877  10.846 -0.5170  1.2664  2.4964
  602MOL0     H79460   2.358  10.810  10.791  0.2564 -0.9080  1.4169
  602MOL0     H79461   2.403  10.964  10.849 -1.3447  0.6469 -2.5589
  602MOL0     H79462   2.346  10.746  11.208 -2.6923  0.2890  0.3508
  602MOL0     H79463   1.764  11.204  10.800  0.2243 -0.1910 -0.9894
  602MOL0     H79464   1.512  11.230  10.822 -1.1188  0.1162  1.7731
  603MOL0     O79465   8.920   5.577   2.295 -0.7257 -0.4196  0.2033
  603MOL0     C79466   8.964   5.613   2.186  0.0596 -0.2814  0.0944
  603MOL0     O79467   8.900   5.595   2.065  0.1696 -0.3824 -0.1851
  603MOL0     C79468   8.775   5.525   2.052 -0.2746 -0.1305 -1.4512
  603MOL0     C79469   8.693   5.464   2.148  0.1365  0.3196  0.1475
  603MOL0     C79470   8.572   5.395   2.118 -1.4889 -0.8074  0.4407
  603MOL0     C79471   8.541   5.370   1.988  0.2150 -0.2705  0.4023
  603MOL0     O79472   8.432   5.292   1.973  0.3405  0.2743  0.4129
  603MOL0     C79473   8.450   5.178   1.879 -0.3232  0.2950 -0.0891
  603MOL0     C79474   8.393   5.190   1.737  0.1518  0.2162 -0.4712
  603MOL0     C79475   8.242   5.159   1.749 -0.8321 -0.3254 -0.8789
  603MOL0     C79476   8.162   5.176   1.610  0.2300 -0.5696  0.4909
  603MOL0     C79477   8.019   5.146   1.613  0.6247  0.0034  0.1945
  603MOL0     C79478   7.963   5.007   1.667 -0.3459 -0.0357 -0.2659
  603MOL0     C79479   7.854   4.949   1.581  0.6339 -0.1804 -0.4216
  603MOL0     C79480   7.713   4.989   1.622  0.2876  0.2332  1.0347
  603MOL0     N79481   7.612   4.922   1.543 -0.1143 -0.0411 -0.0463
  603MOL0     C79482   7.536   4.812   1.563  0.2063 -0.7705 -0.7209
  603MOL0     C79483   7.448   4.795   1.465  0.6737 -0.5631 -0.1565
  603MOL0     C79484   7.360   4.673   1.463 -0.5593 -0.3643 -0.3846
  603MOL0     C79485   7.278   4.663   1.334 -0.1622 -0.7854  0.0772
  603MOL0     C79486   7.180   4.789   1.325 -0.7359 -1.0708 -0.4139
  603MOL0     C79487   7.115   4.776   1.192  0.7279 -0.6111 -0.3228
  603MOL0     O79488   7.011   4.865   1.194 -0.0069  0.2518 -0.2500
  603MOL0     C79489   6.929   4.872   1.079  0.3684  0.2423 -0.0941
  603MOL0     C79490   6.900   4.784   0.978 -0.4182  0.5824  0.2021
  603MOL0     C79491   6.820   4.810   0.870  0.5177  0.0178 -0.0552
  603MOL0     C79492   6.729   4.915   0.877  0.7386 -0.2198  0.2027
  603MOL0     C79493   6.631   4.952   0.775  0.5778  0.7272 -0.2588
  603MOL0     O79494   6.534   5.044   0.805 -0.0516  0.4498  0.6522
  603MOL0     C79495   6.415   5.060   0.739 -0.2192  0.0219  0.1088
  603MOL0     C79496   6.315   5.127   0.814  0.0258  0.0285  0.5658
  603MOL0     C79497   6.202   5.177   0.758  0.2830  0.3743  0.0146
  603MOL0     C79498   6.180   5.146   0.619  0.2458  0.9154  0.7006
  603MOL0     O79499   6.057   5.191   0.574 -0.3711  0.2672 -0.2501
  603MOL0     C79500   6.048   5.318   0.510 -0.6299 -1.3519  0.0864
  603MOL0     C79501   6.015   5.447   0.602 -0.0426  0.4239 -0.1508
  603MOL0     C79502   5.974   5.573   0.525  0.0036  0.8048  0.3198
  603MOL0     C79503   5.836   5.564   0.457  0.2869 -0.1610 -0.1465
  603MOL0     C79504   5.793   5.708   0.428 -0.1407 -0.0331 -0.5451
  603MOL0     C79505   5.682   5.700   0.321 -0.4248 -0.0459 -0.6187
  603MOL0     C79506   5.663   5.836   0.251  0.6919 -0.0806 -0.8952
  603MOL0     C79507   5.597   5.937   0.343 -0.7462 -0.0902 -0.1082
  603MOL0    Cl79508   5.561   6.087   0.246 -0.6778 -0.1648  0.1548
  603MOL0     C79509   6.266   5.066   0.549 -0.7221 -0.5877  0.3160
  603MOL0     C79510   6.383   5.021   0.609 -0.2769  0.8898 -0.0986
  603MOL0     O79511   6.623   4.880   0.675  0.2945 -0.4218 -0.2574
  603MOL0     C79512   6.743   5.008   0.985 -0.1018 -1.0464 -0.7877
  603MOL0     C79513   6.840   4.978   1.079 -0.8630 -0.0920  0.0063
  603MOL0     N79514   7.481   4.889   1.371 -0.5128 -0.4274 -0.3125
  603MOL0     N79515   7.574   4.965   1.418  0.4368 -0.3331 -0.2326
  603MOL0     C79516   8.632   5.416   1.889  0.0902  0.7201 -0.4033
  603MOL0     C79517   8.751   5.492   1.918  0.2965 -0.7950  0.0197
  603MOL0     C79518   9.101   5.677   2.190 -1.5749  0.3349  0.8203
  603MOL0     C79519   9.166   5.718   2.070  0.6335  0.2328  0.2882
  603MOL0     C79520   9.295   5.761   2.079 -0.0865  1.0462  0.3367
  603MOL0     C79521   9.370   5.757   2.201 -1.1959 -0.3191  0.7118
  603MOL0     O79522   9.493   5.829   2.191 -0.1029 -0.1142 -0.4305
  603MOL0     C79523   9.611   5.772   2.143  0.5550 -0.1657  0.5600
  603MOL0     C79524   9.727   5.842   2.207 -0.6797  0.4754  0.4957
  603MOL0     C79525   9.860   5.786   2.143 -0.6856  0.4847  0.2056
  603MOL0     C79526   9.897   5.645   2.190  0.0701  0.2706 -0.3753
  603MOL0     C79527  10.045   5.631   2.191 -0.0884  0.1208 -0.3236
  603MOL0     C79528  10.162   5.645   2.180 -0.3509 -0.0552  0.5748
  603MOL0     C79529   9.314   5.717   2.315 -0.5585  0.0348 -0.5519
  603MOL0     C79530   9.181   5.671   2.310  0.0451 -0.4100 -0.4840
  603MOL0     H79531   8.729   5.462   2.250  0.5788  0.1566 -0.0084
  603MOL0     H79532   8.509   5.353   2.197  0.6042 -2.3726  1.3727
  603MOL0     H79533   8.414   5.084   1.922 -0.7076  1.4493  2.3081
  603MOL0     H79534   8.557   5.173   1.858 -0.3078  3.2870 -1.2664
  603MOL0     H79535   8.429   5.120   1.661 -0.9957  1.2729 -2.0493
  603MOL0     H79536   8.421   5.285   1.691 -0.6522  1.2344  1.0506
  603MOL0     H79537   8.193   5.235   1.811 -1.1013 -0.5054 -0.8714
  603MOL0     H79538   8.229   5.057   1.786  1.6566 -1.0200 -1.6976
  603MOL0     H79539   8.167   5.275   1.563  2.3462 -1.4063 -1.2449
  603MOL0     H79540   8.216   5.115   1.537 -2.2671 -0.1792 -1.8311
  603MOL0     H79541   7.994   5.138   1.507  0.9270  1.9413 -0.0522
  603MOL0     H79542   7.952   5.221   1.657  2.3765  1.1965  0.9523
  603MOL0     H79543   7.928   5.016   1.771  0.8466 -0.1065  0.1565
  603MOL0     H79544   8.039   4.929   1.664  1.9899  2.1368 -2.2387
  603MOL0     H79545   7.876   4.968   1.475 -0.2619 -0.5846 -0.6842
  603MOL0     H79546   7.851   4.840   1.582 -0.4678 -0.1672 -1.2624
  603MOL0     H79547   7.692   5.094   1.598  0.0585 -0.6547 -3.8469
  603MOL0     H79548   7.699   4.963   1.727  3.2834  0.0183  1.4641
  603MOL0     H79549   7.552   4.750   1.651  1.8927  0.9999  0.2993
  603MOL0     H79550   7.286   4.671   1.544  0.8676  1.3755  1.0399
  603MOL0     H79551   7.426   4.587   1.480 -0.8925 -0.1587  2.3441
  603MOL0     H79552   7.225   4.567   1.331  0.3344 -1.0745  0.3858
  603MOL0     H79553   7.346   4.672   1.249 -0.7245  5.7879 -0.1746
  603MOL0     H79554   7.106   4.785   1.405  0.0052  0.5453  0.3820
  603MOL0     H79555   7.237   4.882   1.331  0.9001 -2.1219  2.1860
  603MOL0     H79556   7.074   4.678   1.167 -0.8549  0.5348 -2.6848
  603MOL0     H79557   7.191   4.793   1.115  2.5439 -2.6488  0.8907
  603MOL0     H79558   6.962   4.695   0.974 -1.6128 -0.2450 -1.2066
  603MOL0     H79559   6.820   4.745   0.783 -0.0087 -1.5289  1.0583
  603MOL0     H79560   6.346   5.145   0.917  2.8837 -5.4426  1.0345
  603MOL0     H79561   6.127   5.230   0.816 -1.1854 -5.1567  3.9619
  603MOL0     H79562   5.954   5.313   0.453  0.3703  2.5023 -2.2951
  603MOL0     H79563   6.125   5.329   0.434 -1.3210 -0.7477 -0.5534
  603MOL0     H79564   6.110   5.476   0.649 -0.4163 -0.5734  1.2576
  603MOL0     H79565   5.937   5.428   0.675  0.7404  0.3708  0.6957
  603MOL0     H79566   6.049   5.584   0.447  0.0324  1.3057  0.4181
  603MOL0     H79567   5.991   5.659   0.590  0.0900  0.4837  0.7247
  603MOL0     H79568   5.847   5.503   0.367  0.8523 -0.0012 -0.1929
  603MOL0     H79569   5.770   5.507   0.522  0.6287  1.1643  1.4332
  603MOL0     H79570   5.880   5.765   0.393  1.4321 -3.1277 -2.0046
  603MOL0     H79571   5.760   5.766   0.515 -1.4740 -0.7606 -0.5287
  603MOL0     H79572   5.589   5.654   0.357 -0.9407  1.2159 -0.3008
  603MOL0     H79573   5.714   5.632   0.241  0.2819 -0.5214  0.0493
  603MOL0     H79574   5.755   5.880   0.211 -0.0004  0.2748 -2.1336
  603MOL0     H79575   5.596   5.827   0.166 -1.7981 -1.2111  1.0650
  603MOL0     H79576   5.655   5.968   0.430  0.1831  0.7406 -0.9820
  603MOL0     H79577   5.506   5.884   0.372 -1.0342 -1.2713 -2.8497
  603MOL0     H79578   6.255   5.044   0.444 -2.3093  3.9988 -0.7314
  603MOL0     H79579   6.450   4.957   0.551 -0.2125 -1.3340  2.2681
  603MOL0     H79580   6.696   5.105   0.990  0.0322 -0.9872 -0.6695
  603MOL0     H79581   6.840   5.054   1.157 -2.0844  1.1819 -1.1680
  603MOL0     H79582   8.601   5.397   1.787 -3.0129 -1.7726  0.8454
  603MOL0     H79583   8.806   5.527   1.831  1.5768  0.0216  1.1298
  603MOL0     H79584   9.108   5.725   1.979  3.6394 -0.3135 -1.7920
  603MOL0     H79585   9.353   5.800   1.996  0.6536 -0.2744  0.1937
  603MOL0     H79586   9.611   5.793   2.036  0.2166  0.7998  0.7389
  603MOL0     H79587   9.608   5.663   2.148  2.9321 -0.6578 -3.8270
  603MOL0     H79588   9.721   5.949   2.185  0.7621  0.0676 -2.3841
  603MOL0     H79589   9.730   5.828   2.315  1.8377  1.2975  0.6058
  603MOL0     H79590   9.940   5.856   2.171 -0.8274  0.7377 -0.0139
  603MOL0     H79591   9.851   5.786   2.034 -0.4431  2.2104  0.1469
  603MOL0     H79592   9.866   5.633   2.294 -1.6841  1.8200 -0.6748
  603MOL0     H79593   9.848   5.565   2.133  3.4912 -1.4693 -1.1199
  603MOL0     H79594  10.264   5.658   2.152 -0.2882 -0.0792  0.7976
  603MOL0     H79595   9.373   5.714   2.406 -1.1815 -1.2749 -0.1718
  603MOL0     H79596   9.127   5.651   2.402 -0.4847  1.7478 -0.2695
  604MOL0     O79597   9.240   2.693  10.872 -0.1578  0.2034 -0.2751
  604MOL0     C79598   9.314   2.633  10.791 -0.6624 -0.7391 -0.8465
  604MOL0     O79599   9.275   2.528  10.707  0.1464  0.3402 -0.0902
  604MOL0     C79600   9.144   2.482  10.693  0.4268  1.1052  0.6334
  604MOL0     C79601   9.028   2.537  10.741  0.4130  0.6898  0.0995
  604MOL0     C79602   8.902   2.481  10.716  0.4824 -0.1143 -0.8242
  604MOL0     C79603   8.893   2.359  10.648  0.0843  0.1452 -0.3531
  604MOL0     O79604   8.772   2.291  10.627  0.5565  0.0716 -0.0621
  604MOL0     C79605   8.647   2.348  10.671 -1.4540  0.5304  0.2578
  604MOL0     C79606   8.536   2.256  10.625  0.4045 -0.1878  0.4041
  604MOL0     C79607   8.391   2.322  10.601 -0.7881 -0.2611 -0.0660
  604MOL0     C79608   8.391   2.448  10.506  0.2170 -0.2641 -0.5073
  604MOL0     C79609   8.248   2.480  10.453  0.3058 -0.5104 -0.9354
  604MOL0     C79610   8.136   2.482  10.566 -0.0940  0.3005  0.1429
  604MOL0     C79611   7.999   2.474  10.502 -0.2126  0.1309 -0.2913
  604MOL0     C79612   7.967   2.599  10.439  1.1846 -0.4438 -0.2476
  604MOL0     N79613   7.824   2.608  10.395  1.5628 -0.9043  0.5165
  604MOL0     C79614   7.767   2.552  10.285  0.2734  0.1269  0.5131
  604MOL0     C79615   7.633   2.575  10.292  0.8095 -1.2929  0.2538
  604MOL0     C79616   7.531   2.545  10.188  0.7272 -0.1014  0.2720
  604MOL0     C79617   7.452   2.416  10.220  0.0583 -0.1393  0.1006
  604MOL0     C79618   7.348   2.370  10.111 -0.5632  0.2657  0.3945
  604MOL0     C79619   7.250   2.483  10.061  0.3775 -0.2166 -0.3755
  604MOL0     O79620   7.213   2.556  10.176  0.3485  0.5441  0.1847
  604MOL0     C79621   7.083   2.555  10.213  0.0730  0.8175  0.2183
  604MOL0     C79622   6.983   2.463  10.176  0.1545  0.0755 -0.3916
  604MOL0     C79623   6.849   2.478  10.224 -0.1568 -0.1744 -0.1387
  604MOL0     C79624   6.823   2.573  10.320 -0.7867 -0.1532 -0.6452
  604MOL0     C79625   6.693   2.590  10.381  0.2951  0.2313  0.0967
  604MOL0     O79626   6.603   2.503  10.335  0.3770  0.4884  0.2517
  604MOL0     C79627   6.474   2.499  10.372  0.5700 -0.8935 -1.1758
  604MOL0     C79628   6.413   2.377  10.406 -0.2743  0.9662  0.4165
  604MOL0     C79629   6.280   2.376  10.437 -0.0944 -0.3439 -1.0268
  604MOL0     C79630   6.206   2.491  10.454 -0.3682  1.0030  0.6472
  604MOL0     O79631   6.072   2.465  10.465  0.6483  0.7765 -0.4969
  604MOL0     C79632   5.983   2.566  10.500  0.5047  0.3232  0.1727
  604MOL0     C79633   5.848   2.496  10.537 -1.1142  0.4071 -0.2555
  604MOL0     C79634   5.733   2.584  10.593 -0.6239  0.4089  0.2365
  604MOL0     C79635   5.616   2.491  10.621  0.0153 -0.1565  0.7263
  604MOL0     C79636   5.490   2.570  10.675 -0.0095  0.3716 -0.2261
  604MOL0     C79637   5.379   2.472  10.727  0.3039  0.2562  0.5919
  604MOL0     C79638   5.278   2.547  10.810  0.0864  0.6638  0.3517
  604MOL0     C79639   5.190   2.450  10.900  0.5591 -0.2810  0.0349
  604MOL0    Cl79640   5.064   2.545  10.979  0.0590  0.4669 -0.3773
  604MOL0     C79641   6.268   2.612  10.436 -0.0842 -0.1354 -0.2746
  604MOL0     C79642   6.401   2.619  10.394  0.2374  0.5670 -0.0518
  604MOL0     O79643   6.675   2.671  10.471 -0.0528 -0.5808  0.5421
  604MOL0     C79644   6.934   2.667  10.363  0.3363 -1.3101  0.5564
  604MOL0     C79645   7.062   2.653  10.312  0.6725 -0.2349  0.9033
  604MOL0     N79646   7.609   2.635  10.411  0.3238 -0.5356  0.0735
  604MOL0     N79647   7.719   2.659  10.468 -0.6548 -1.1019  0.3430
  604MOL0     C79648   9.009   2.298  10.604  0.4911  0.1400 -0.1994
  604MOL0     C79649   9.131   2.361  10.628 -0.0256  0.0947 -0.3708
  604MOL0     C79650   9.463   2.667  10.794  0.8808 -0.1726 -0.7864
  604MOL0     C79651   9.506   2.772  10.874 -0.1305  0.4159 -0.1343
  604MOL0     C79652   9.636   2.823  10.869  0.0072  0.5902  0.9328
  604MOL0     C79653   9.736   2.761  10.789 -0.5692  0.3387  0.5139
  604MOL0     O79654   9.859   2.821  10.776  0.1252 -0.3185  0.0763
  604MOL0     C79655   9.964   2.727  10.795 -0.5149  0.3471  0.7003
  604MOL0     C79656  10.095   2.807  10.837  0.6318 -0.1137  0.5691
  604MOL0     C79657  10.221   2.718  10.832 -1.1697  0.4225  0.0600
  604MOL0     C79658  10.355   2.795  10.837  0.0343  0.6212  1.0865
  604MOL0     C79659  10.476   2.716  10.806  0.3930  0.8179  0.2277
  604MOL0     C79660  10.580   2.648  10.788  0.4747  0.2400  0.1380
  604MOL0     C79661   9.690   2.642  10.709 -0.2838 -0.3125 -0.3281
  604MOL0     C79662   9.557   2.603  10.711  0.2653  0.1482 -0.6957
  604MOL0     H79663   9.030   2.632  10.792 -1.5976 -1.3024  4.4021
  604MOL0     H79664   8.813   2.519  10.765 -1.0012 -1.0142 -2.6706
  604MOL0     H79665   8.639   2.449  10.631  1.4408  0.0462 -1.8990
  604MOL0     H79666   8.657   2.362  10.779  2.2307 -0.2197  0.1742
  604MOL0     H79667   8.526   2.185  10.708 -0.6211  0.8914  1.2444
  604MOL0     H79668   8.573   2.202  10.538  1.5436 -2.2466  2.0615
  604MOL0     H79669   8.357   2.346  10.702  0.5116  1.5527 -0.0116
  604MOL0     H79670   8.323   2.246  10.562  0.0416 -1.8130  1.4071
  604MOL0     H79671   8.433   2.533  10.560 -1.1201  2.2157 -3.1194
  604MOL0     H79672   8.449   2.435  10.414 -2.4857  0.7136 -2.4789
  604MOL0     H79673   8.219   2.401  10.383  0.7533  0.4872 -2.2772
  604MOL0     H79674   8.248   2.575  10.399 -1.5799  1.2726  1.9354
  604MOL0     H79675   8.138   2.570  10.631 -1.5353  1.3395 -1.1319
  604MOL0     H79676   8.129   2.395  10.632 -2.7964  1.3488  1.4147
  604MOL0     H79677   7.988   2.394  10.429 -0.4653 -0.2063  0.1097
  604MOL0     H79678   7.922   2.461  10.580 -0.6814 -0.6805 -0.8755
  604MOL0     H79679   8.030   2.617  10.352 -0.6107  2.6965 -1.0596
  604MOL0     H79680   7.976   2.676  10.517 -0.5695  0.3768 -0.8022
  604MOL0     H79681   7.816   2.491  10.211  0.0128 -0.9691  1.2190
  604MOL0     H79682   7.587   2.519  10.098 -1.1327  1.2591 -1.3395
  604MOL0     H79683   7.459   2.626  10.171 -0.2657 -0.9298  0.4168
  604MOL0     H79684   7.401   2.444  10.313 -3.3596 -0.5673 -1.5033
  604MOL0     H79685   7.519   2.334  10.246 -0.8936 -1.6209 -1.8470
  604MOL0     H79686   7.395   2.333  10.020  0.3134 -1.9036  1.6321
  604MOL0     H79687   7.300   2.282  10.156 -1.2343  1.1302  1.4039
  604MOL0     H79688   7.168   2.438  10.005 -0.6950  1.8459 -0.5276
  604MOL0     H79689   7.295   2.547   9.984  0.0925  0.3883 -0.0451
  604MOL0     H79690   7.000   2.376  10.114  2.6209 -0.9056  1.4745
  604MOL0     H79691   6.764   2.423  10.184 -0.9729 -0.3648  1.7807
  604MOL0     H79692   6.464   2.281  10.400  1.8419  1.9168  2.1193
  604MOL0     H79693   6.235   2.278  10.450 -0.9769 -0.1231 -2.1714
  604MOL0     H79694   5.973   2.637  10.418 -0.7479  0.5859  0.5255
  604MOL0     H79695   6.020   2.611  10.593  0.0265 -1.5857  1.3404
  604MOL0     H79696   5.869   2.425  10.617 -0.7301  0.4101 -0.3558
  604MOL0     H79697   5.829   2.441  10.444  3.2649  0.1760 -1.2087
  604MOL0     H79698   5.717   2.659  10.515  1.1415 -0.9815 -1.5730
  604MOL0     H79699   5.766   2.634  10.685 -1.0235  0.4493  0.3574
  604MOL0     H79700   5.581   2.448  10.527  1.8713 -2.9306  1.1807
  604MOL0     H79701   5.656   2.410  10.682 -1.5640 -0.4898  1.3532
  604MOL0     H79702   5.453   2.641  10.601  0.7403  0.5513 -0.4357
  604MOL0     H79703   5.537   2.617  10.761 -0.6310 -0.2911  0.4888
  604MOL0     H79704   5.429   2.406  10.798  0.2258 -1.1176 -0.6032
  604MOL0     H79705   5.331   2.416  10.646 -0.4388  2.0055 -0.2307
  604MOL0     H79706   5.338   2.599  10.885  0.6305 -0.3136  0.6037
  604MOL0     H79707   5.225   2.621  10.749  1.9337  0.4397 -1.6855
  604MOL0     H79708   5.253   2.392  10.968  2.9125  2.1369  0.0260
  604MOL0     H79709   5.150   2.369  10.838  0.2223  0.3933 -0.6352
  604MOL0     H79710   6.213   2.705  10.428  1.3314  0.8865  1.2884
  604MOL0     H79711   6.451   2.713  10.372 -0.2487  0.8769  0.1509
  604MOL0     H79712   6.931   2.750  10.433  1.3312 -1.9202  1.3473
  604MOL0     H79713   7.146   2.717  10.337  0.3598  1.2375 -1.4700
  604MOL0     H79714   9.005   2.213  10.537 -0.3956 -0.2314  0.3054
  604MOL0     H79715   9.213   2.326  10.567 -1.6034 -1.1701 -1.8483
  604MOL0     H79716   9.426   2.823  10.928 -2.5996 -0.4803 -2.6805
  604MOL0     H79717   9.674   2.911  10.920 -1.1546  2.5436 -1.3983
  604MOL0     H79718   9.983   2.687  10.695 -1.7944  3.6016 -0.9736
  604MOL0     H79719   9.949   2.643  10.864  0.4982 -1.8557 -1.5846
  604MOL0     H79720  10.104   2.887  10.763  0.7394 -1.1275 -0.5475
  604MOL0     H79721  10.077   2.845  10.938 -0.6817  0.7371  0.0391
  604MOL0     H79722  10.222   2.656  10.741  1.4514  2.3860 -1.4021
  604MOL0     H79723  10.221   2.662  10.926 -0.0348  1.1308  0.4980
  604MOL0     H79724  10.346   2.870  10.757 -0.7466 -2.2711 -1.7418
  604MOL0     H79725  10.362   2.841  10.936  4.2879  1.7375  0.4965
  604MOL0     H79726  10.669   2.591  10.771  0.2741 -0.3514  0.9641
  604MOL0     H79727   9.776   2.601  10.656  2.8103  2.9611  1.6925
  604MOL0     H79728   9.507   2.521  10.659  1.0044  0.2117 -1.5424
  605MOL0     O79729   9.696   5.146   4.737 -0.3784  0.0334  0.7800
  605MOL0     C79730   9.611   5.161   4.824  0.0601 -0.1520 -0.1199
  605MOL0     O79731   9.627   5.239   4.937  0.8894  0.0829  0.6172
  605MOL0     C79732   9.749   5.279   4.965  0.0965  0.7764 -0.4146
  605MOL0     C79733   9.778   5.412   4.979 -0.1634 -0.6612 -0.3360
  605MOL0     C79734   9.907   5.460   5.024 -0.0995  0.3500 -0.3810
  605MOL0     C79735   9.999   5.367   5.078 -0.2517 -0.0256  0.1702
  605MOL0     O79736  10.108   5.418   5.145 -0.5893  0.4051 -0.3716
  605MOL0     C79737  10.179   5.343   5.241 -0.3911 -0.5209  0.9417
  605MOL0     C79738  10.295   5.426   5.293  0.1196  0.6430  0.4054
  605MOL0     C79739  10.404   5.443   5.189  0.2401 -0.5088 -0.0667
  605MOL0     C79740  10.506   5.541   5.234  0.4360 -0.5107 -0.3426
  605MOL0     C79741  10.631   5.537   5.146  0.3567  0.1796 -0.4147
  605MOL0     C79742  10.749   5.640   5.175  1.0877 -0.0194  0.8253
  605MOL0     C79743  10.839   5.626   5.294  0.4942 -0.0166  0.1889
  605MOL0     C79744  10.957   5.726   5.285 -0.7484  0.0626  1.1494
  605MOL0     N79745  10.928   5.863   5.331  0.8463 -0.5548  0.4491
  605MOL0     C79746  10.899   5.968   5.254 -1.2908 -0.0615 -0.1191
  605MOL0     C79747  10.837   6.052   5.334 -0.6024 -0.4642 -0.2827
  605MOL0     C79748  10.788   6.182   5.281 -1.8077  0.3280 -0.2910
  605MOL0     C79749  10.881   6.296   5.292 -0.3996 -0.0244 -0.3692
  605MOL0     C79750  10.830   6.424   5.226 -0.1385  0.8962  1.1151
  605MOL0     C79751  10.681   6.452   5.224 -0.1738  0.2445 -0.4468
  605MOL0     O79752  10.652   6.575   5.152  0.2088 -0.5919 -0.2059
  605MOL0     C79753  10.527   6.623   5.159  0.9500  0.2882 -0.0290
  605MOL0     C79754  10.425   6.546   5.211  0.3923 -0.3647  1.0356
  605MOL0     C79755  10.295   6.589   5.224  0.3757  0.5580 -0.1318
  605MOL0     C79756  10.263   6.714   5.175  0.1780  0.3953  1.0408
  605MOL0     C79757  10.125   6.752   5.161  0.8633  0.3280 -0.3323
  605MOL0     O79758  10.102   6.879   5.109  0.1980  0.7202 -0.0649
  605MOL0     C79759   9.970   6.920   5.095  0.0056 -0.2902  0.2642
  605MOL0     C79760   9.920   7.007   5.187 -0.0752 -0.8575  0.3261
  605MOL0     C79761   9.782   7.046   5.182  0.4197 -0.2426  0.2120
  605MOL0     C79762   9.701   7.003   5.083  0.4904 -0.5119 -0.1262
  605MOL0     O79763   9.571   7.041   5.100  0.0414 -0.1740 -0.3216
  605MOL0     C79764   9.475   6.951   5.032  0.2558  0.1287  0.3486
  605MOL0     C79765   9.340   6.968   5.102 -0.7088 -0.5027 -0.4900
  605MOL0     C79766   9.232   6.895   5.027  0.3416  0.5156  0.4418
  605MOL0     C79767   9.092   6.895   5.101 -0.9134 -0.9342 -0.2020
  605MOL0     C79768   8.984   6.830   5.017 -0.5750 -0.2212  0.0309
  605MOL0     C79769   8.847   6.853   5.103  0.3809  0.5523  0.3109
  605MOL0     C79770   8.727   6.794   5.029 -0.0939 -0.7282  0.0320
  605MOL0     C79771   8.677   6.884   4.908 -0.2480  0.0707 -0.4013
  605MOL0    Cl79772   8.776   6.840   4.765  0.2348 -0.2087  0.2100
  605MOL0     C79773   9.756   6.919   4.982  0.5563 -1.2184  0.6305
  605MOL0     C79774   9.888   6.875   4.992 -0.0157 -0.4386 -0.1390
  605MOL0     O79775  10.036   6.671   5.186 -0.1607 -0.2140 -1.0707
  605MOL0     C79776  10.365   6.795   5.121 -0.2877  0.3988 -0.2216
  605MOL0     C79777  10.497   6.757   5.115  0.3372  0.6061 -0.2305
  605MOL0     N79778  10.860   6.018   5.463 -0.5252  0.6006 -0.0631
  605MOL0     N79779  10.903   5.904   5.461 -0.6643  0.6222 -0.1145
  605MOL0     C79780   9.966   5.230   5.067 -0.3029 -0.3830  0.2385
  605MOL0     C79781   9.851   5.186   5.008  0.7586 -0.1676 -1.3652
  605MOL0     C79782   9.472   5.122   4.804  0.6581 -0.2740 -0.1448
  605MOL0     C79783   9.378   5.137   4.907  0.3535 -1.0602 -0.6382
  605MOL0     C79784   9.247   5.107   4.882  0.2029 -0.1721  0.0762
  605MOL0     C79785   9.201   5.067   4.758  0.7076  0.7474  0.5635
  605MOL0     O79786   9.067   5.049   4.752 -0.3282  0.3084 -0.9171
  605MOL0     C79787   9.003   5.120   4.644 -0.1972 -0.8965  0.1798
  605MOL0     C79788   8.863   5.183   4.674 -0.9275  0.1298 -0.5901
  605MOL0     C79789   8.811   5.263   4.555 -0.1747 -0.0854 -0.4024
  605MOL0     C79790   8.856   5.405   4.553  0.1709  1.0996  0.1386
  605MOL0     C79791   8.776   5.486   4.451 -0.2533 -1.7018  0.3357
  605MOL0     C79792   8.722   5.564   4.364  0.4184  0.4958 -1.6336
  605MOL0     C79793   9.287   5.070   4.653  0.0293 -0.3539  0.7133
  605MOL0     C79794   9.415   5.096   4.673  0.3667  0.3325  0.2677
  605MOL0     H79795   9.707   5.483   4.940 -0.6426 -0.2851  1.1292
  605MOL0     H79796   9.916   5.568   5.019 -2.3158  0.6514  0.5646
  605MOL0     H79797  10.224   5.256   5.193  1.4478 -1.0458  3.4190
  605MOL0     H79798  10.117   5.307   5.324 -1.3969 -1.1749 -0.0682
  605MOL0     H79799  10.334   5.384   5.386  0.2665  3.5277  1.7634
  605MOL0     H79800  10.258   5.522   5.331 -1.6778  0.1139  0.0508
  605MOL0     H79801  10.359   5.474   5.094  1.5803 -2.7837 -1.5343
  605MOL0     H79802  10.450   5.347   5.163  1.7103  0.2313 -0.2918
  605MOL0     H79803  10.473   5.645   5.234 -0.2664 -0.7091  1.0472
  605MOL0     H79804  10.533   5.531   5.340  0.4117 -1.8625 -0.4377
  605MOL0     H79805  10.614   5.551   5.039  3.3616  1.7114 -0.8124
  605MOL0     H79806  10.681   5.440   5.150  1.5239  0.7298 -0.9705
  605MOL0     H79807  10.704   5.739   5.183  0.8146 -0.1307  0.7060
  605MOL0     H79808  10.810   5.630   5.085  0.4358 -2.4186  0.5759
  605MOL0     H79809  10.789   5.643   5.390  1.3190 -0.7900  0.7720
  605MOL0     H79810  10.876   5.524   5.306  1.0529  0.2436  0.7511
  605MOL0     H79811  10.981   5.748   5.181  0.9918  3.1099  2.0628
  605MOL0     H79812  11.044   5.674   5.328 -1.9707 -2.8907  0.3417
  605MOL0     H79813  10.915   5.975   5.147  0.5978 -1.8010 -0.0147
  605MOL0     H79814  10.707   6.206   5.350 -0.5169 -0.7552  1.6916
  605MOL0     H79815  10.761   6.170   5.175  0.6272 -0.1864 -0.9189
  605MOL0     H79816  10.980   6.274   5.250 -0.3217  1.9735 -1.3326
  605MOL0     H79817  10.898   6.315   5.398  2.5865  2.6026 -1.1496
  605MOL0     H79818  10.873   6.511   5.276 -2.4940  3.4426 -0.9522
  605MOL0     H79819  10.867   6.417   5.124  0.0868  1.8167  1.1279
  605MOL0     H79820  10.651   6.461   5.329  2.5126 -1.6077  0.6143
  605MOL0     H79821  10.620   6.373   5.178 -0.9234 -0.0692  1.0274
  605MOL0     H79822  10.440   6.443   5.241  2.7361 -0.0657  1.0447
  605MOL0     H79823  10.221   6.521   5.263 -1.4109  2.2752 -0.3601
  605MOL0     H79824   9.979   7.054   5.265  2.0702  0.5033 -1.9361
  605MOL0     H79825   9.750   7.108   5.265 -2.2510 -1.1917  0.0040
  605MOL0     H79826   9.513   6.849   5.043  2.1393  0.6813 -0.6040
  605MOL0     H79827   9.459   6.967   4.925 -0.5062  0.7571  0.5433
  605MOL0     H79828   9.320   7.074   5.117 -0.4206 -0.0316 -2.9210
  605MOL0     H79829   9.351   6.913   5.196  4.7221 -0.7033 -0.9068
  605MOL0     H79830   9.269   6.793   5.015  2.0385  0.8828  2.1032
  605MOL0     H79831   9.219   6.935   4.926  0.4061  0.4526  0.4089
  605MOL0     H79832   9.111   6.835   5.191  0.1163  1.9429  1.6280
  605MOL0     H79833   9.055   6.996   5.119 -2.2305 -1.6993  1.6609
  605MOL0     H79834   9.013   6.728   4.992  0.7024  0.0286  0.4395
  605MOL0     H79835   8.976   6.886   4.924 -1.5828  0.0642  0.2735
  605MOL0     H79836   8.829   6.961   5.103 -0.5074  0.4907 -2.3578
  605MOL0     H79837   8.863   6.810   5.202  0.6414 -0.3091 -0.0850
  605MOL0     H79838   8.734   6.688   5.002 -1.2696 -0.3889 -1.8618
  605MOL0     H79839   8.653   6.794   5.109  0.4908 -4.4745  0.7793
  605MOL0     H79840   8.698   6.986   4.940  2.0387 -0.7536  0.9953
  605MOL0     H79841   8.571   6.866   4.886 -0.0181 -0.9780 -0.7157
  605MOL0     H79842   9.692   6.896   4.898  2.1270 -0.9822 -0.6904
  605MOL0     H79843   9.938   6.814   4.917 -0.0716 -1.4436  0.6224
  605MOL0     H79844  10.326   6.886   5.077 -0.1399 -0.8471 -3.1763
  605MOL0     H79845  10.578   6.823   5.085 -0.3468  1.6004  0.0659
  605MOL0     H79846  10.038   5.153   5.094 -1.1659 -0.4766  2.5360
  605MOL0     H79847   9.825   5.083   4.987  0.1664 -0.0735 -1.1074
  605MOL0     H79848   9.407   5.173   5.005  0.7924  0.4444 -1.2974
  605MOL0     H79849   9.169   5.132   4.953 -1.8854 -0.4547 -1.9680
  605MOL0     H79850   8.995   5.072   4.545 -1.2493 -0.1060 -0.1357
  605MOL0     H79851   9.068   5.206   4.628  2.2797 -2.0774  3.0160
  605MOL0     H79852   8.795   5.101   4.696  0.0379  0.1832  3.2099
  605MOL0     H79853   8.872   5.234   4.770 -0.4029 -0.7831 -0.1342
  605MOL0     H79854   8.701   5.262   4.563 -0.4083 -1.7353 -2.7050
  605MOL0     H79855   8.839   5.201   4.469 -2.4644 -2.9339  0.6993
  605MOL0     H79856   8.835   5.443   4.653  0.7191  0.3554  0.5551
  605MOL0     H79857   8.964   5.410   4.533  0.2656 -0.6692  0.0510
  605MOL0     H79858   8.667   5.633   4.303  1.8063  1.4768 -1.8368
  605MOL0     H79859   9.258   5.048   4.551  0.0649  0.8552  0.4289
  605MOL0     H79860   9.475   5.090   4.583 -1.6681 -1.1963 -1.0836
  606MOL0     O79861   8.224   2.370  11.059 -0.1791  0.3025 -0.2761
  606MOL0     C79862   8.278   2.272  11.119  0.3990 -0.4464 -0.2322
  606MOL0     O79863   8.210   2.168  11.183  0.0125  0.4213 -0.1023
  606MOL0     C79864   8.071   2.145  11.175 -1.3010 -0.0336  0.6606
  606MOL0     C79865   8.036   2.015  11.197  0.3551  0.0844  0.8423
  606MOL0     C79866   7.893   1.977  11.198 -0.0633 -0.1295  0.5674
  606MOL0     C79867   7.796   2.078  11.178 -0.0843  0.4654  0.1453
  606MOL0     O79868   7.668   2.038  11.187  0.2671 -0.6547  0.0612
  606MOL0     C79869   7.566   2.104  11.103  0.0922 -0.7808  0.2140
  606MOL0     C79870   7.448   2.011  11.102  0.9647  0.3381 -0.5927
  606MOL0     C79871   7.317   2.073  11.066  0.1467 -0.0773  0.4697
  606MOL0     C79872   7.196   1.983  11.081  0.2002 -0.0696 -0.4590
  606MOL0     C79873   7.066   2.066  11.057  0.7921 -0.1227 -0.6767
  606MOL0     C79874   6.933   1.996  11.093 -0.8968  0.1121  0.2250
  606MOL0     C79875   6.905   1.877  10.991 -0.7888  0.0162 -0.5247
  606MOL0     C79876   6.861   1.920  10.850  0.3327  0.6232  0.1468
  606MOL0     N79877   6.732   1.852  10.817  0.2027  1.1541 -0.3348
  606MOL0     C79878   6.710   1.718  10.796  0.5126 -0.1617  0.8113
  606MOL0     C79879   6.573   1.706  10.773 -0.0119  0.6867 -0.0612
  606MOL0     C79880   6.491   1.589  10.758 -1.2802 -0.2193  0.5073
  606MOL0     C79881   6.399   1.598  10.631  0.5179  0.0558  0.5595
  606MOL0     C79882   6.318   1.464  10.618  0.2647 -0.3178 -0.4008
  606MOL0     C79883   6.292   1.428  10.472 -0.7022  0.1874 -0.6524
  606MOL0     O79884   6.210   1.527  10.402  0.2692  0.6504 -0.4104
  606MOL0     C79885   6.092   1.490  10.352  0.1516  0.4507 -0.2558
  606MOL0     C79886   6.054   1.536  10.230  0.9839 -0.1187 -1.0808
  606MOL0     C79887   5.918   1.515  10.183 -0.8630 -0.3606 -0.4333
  606MOL0     C79888   5.829   1.426  10.260 -0.3444  0.1630 -0.1215
  606MOL0     C79889   5.705   1.390  10.206  0.9031 -1.4091  0.2445
  606MOL0     O79890   5.642   1.287  10.272 -0.3009 -0.5577  1.0746
  606MOL0     C79891   5.515   1.239  10.236 -0.1245 -0.1130 -0.7301
  606MOL0     C79892   5.496   1.183  10.109 -0.6045  0.4820 -0.3679
  606MOL0     C79893   5.370   1.142  10.069 -0.1042 -0.1403  0.8748
  606MOL0     C79894   5.258   1.162  10.146 -0.0372  0.0498 -0.5601
  606MOL0     O79895   5.142   1.133  10.091  0.2014  0.7531  0.1866
  606MOL0     C79896   5.033   1.087  10.174 -0.1455 -0.6203  0.0710
  606MOL0     C79897   4.913   1.041  10.086 -1.3480  0.1792 -0.4980
  606MOL0     C79898   4.948   0.932   9.984  0.6544  0.3754  1.1278
  606MOL0     C79899   5.061   0.843  10.006 -0.5630  0.0343  1.4199
  606MOL0     C79900   5.037   0.744  10.122 -0.5983  0.0614 -0.3595
  606MOL0     C79901   5.087   0.599  10.105  0.0164 -1.2529  0.1067
  606MOL0     C79902   4.990   0.521  10.016 -0.4767 -1.1364 -0.1261
  606MOL0     C79903   5.057   0.404   9.953 -0.3704 -0.2281  0.0802
  606MOL0    Cl79904   5.133   0.298  10.079  0.0128  0.3012 -0.4320
  606MOL0     C79905   5.273   1.209  10.279 -0.0539 -0.5230  0.6510
  606MOL0     C79906   5.407   1.248  10.322 -0.0762  0.0341 -0.0117
  606MOL0     O79907   5.664   1.451  10.104 -0.0113  0.1954 -1.2808
  606MOL0     C79908   5.868   1.380  10.383 -0.4550  0.1334  0.0042
  606MOL0     C79909   6.003   1.405  10.423 -0.3665  0.0283 -0.4831
  606MOL0     N79910   6.519   1.834  10.788 -0.3696 -0.4521 -0.1203
  606MOL0     N79911   6.614   1.922  10.814  0.1273 -0.4177  0.3659
  606MOL0     C79912   7.835   2.214  11.156 -0.8214  0.4196 -0.4895
  606MOL0     C79913   7.974   2.243  11.147  0.1709  0.0822 -0.1322
  606MOL0     C79914   8.425   2.253  11.114  1.2411 -0.1727  0.1076
  606MOL0     C79915   8.478   2.126  11.149  0.0173  0.4266  0.0716
  606MOL0     C79916   8.613   2.112  11.142  0.2325 -0.1030  0.5202
  606MOL0     C79917   8.696   2.211  11.088  0.1295  0.6015  0.0721
  606MOL0     O79918   8.828   2.174  11.062 -0.1237  0.9512  0.2617
  606MOL0     C79919   8.932   2.275  11.033 -0.7430 -0.1131 -1.8259
  606MOL0     C79920   8.986   2.332  11.166 -0.0515  0.5485  0.1140
  606MOL0     C79921   9.026   2.233  11.278  0.2916 -0.4696  0.6119
  606MOL0     C79922   9.119   2.120  11.205  0.3215  0.6805 -1.0236
  606MOL0     C79923   9.128   2.019  11.312  0.6057  0.3545  0.5878
  606MOL0     C79924   9.144   1.944  11.402  0.4982 -0.5101 -0.4454
  606MOL0     C79925   8.639   2.339  11.062 -0.7246 -0.1102 -1.1296
  606MOL0     C79926   8.507   2.362  11.068 -0.3189 -0.2938 -0.1497
  606MOL0     H79927   8.109   1.935  11.210 -0.9059 -1.0287  1.4517
  606MOL0     H79928   7.861   1.875  11.212 -1.7077  0.4755  1.5011
  606MOL0     H79929   7.599   2.132  11.002  2.2595 -0.0636  1.0778
  606MOL0     H79930   7.536   2.201  11.143 -1.6593 -1.1910 -0.0241
  606MOL0     H79931   7.425   1.967  11.200 -2.2910 -0.5963 -1.6536
  606MOL0     H79932   7.463   1.927  11.033 -1.9265  0.4254 -1.4523
  606MOL0     H79933   7.318   2.109  10.963  0.3581 -0.5679  0.2958
  606MOL0     H79934   7.302   2.161  11.129  0.6607  1.9075 -2.0151
  606MOL0     H79935   7.203   1.896  11.016 -0.4489 -1.9861  1.9201
  606MOL0     H79936   7.201   1.943  11.182  2.6882 -1.6004 -1.0912
  606MOL0     H79937   7.067   2.089  10.950 -0.5647 -2.8265 -1.3388
  606MOL0     H79938   7.065   2.154  11.123 -2.8464 -0.6010  0.1156
  606MOL0     H79939   6.864   2.080  11.098  1.2634  1.9213  2.4007
  606MOL0     H79940   6.948   1.963  11.196 -2.7306  0.8892  0.7904
  606MOL0     H79941   6.996   1.819  10.976 -0.1335  1.2486 -1.5413
  606MOL0     H79942   6.834   1.810  11.039  1.7566 -2.2798  0.2700
  606MOL0     H79943   6.934   1.913  10.769  0.0039  0.7601 -0.1698
  606MOL0     H79944   6.844   2.027  10.862  0.6898  0.4548  2.4800
  606MOL0     H79945   6.780   1.635  10.799 -0.8553 -1.3624  0.5702
  606MOL0     H79946   6.424   1.572  10.842  0.6301  1.5694  2.5433
  606MOL0     H79947   6.561   1.506  10.770  1.6223  2.0708  0.7437
  606MOL0     H79948   6.460   1.605  10.540  2.3804 -3.4728  1.3306
  606MOL0     H79949   6.331   1.683  10.630 -2.6811 -2.2560  2.1561
  606MOL0     H79950   6.369   1.382  10.669  2.3616  2.3123  2.1184
  606MOL0     H79951   6.230   1.474  10.681  0.3636  1.4181 -0.4831
  606MOL0     H79952   6.244   1.330  10.476  1.1564 -0.7533 -0.8735
  606MOL0     H79953   6.388   1.413  10.422 -0.8929  0.9940 -1.2800
  606MOL0     H79954   6.121   1.599  10.173  1.8665 -2.1114 -2.3449
  606MOL0     H79955   5.874   1.565  10.098 -0.1517 -0.3905 -0.8277
  606MOL0     H79956   5.581   1.170  10.044  1.2540 -2.5063  2.3704
  606MOL0     H79957   5.356   1.106   9.968 -3.3466  2.4659  0.2329
  606MOL0     H79958   4.995   1.163  10.242 -2.5270 -1.8846  0.2422
  606MOL0     H79959   5.080   1.009  10.235 -0.7243 -1.4426 -0.5087
  606MOL0     H79960   4.873   1.131  10.037 -2.0708  0.4588  0.5715
  606MOL0     H79961   4.835   1.015  10.158  2.4193 -0.1004  3.9783
  606MOL0     H79962   4.962   0.980   9.887 -0.2752 -0.7196  0.4254
  606MOL0     H79963   4.854   0.883   9.957  0.7029  2.3988 -3.7251
  606MOL0     H79964   5.074   0.787   9.913 -0.3009  0.9794  0.8678
  606MOL0     H79965   5.155   0.899  10.004  0.8766 -2.0170 -3.2090
  606MOL0     H79966   4.941   0.755  10.172 -1.3717 -0.5694 -1.6392
  606MOL0     H79967   5.101   0.776  10.205  1.1847 -1.2047 -1.1663
  606MOL0     H79968   5.100   0.554  10.204  3.1165 -2.8083 -0.8775
  606MOL0     H79969   5.182   0.595  10.051 -0.2534  0.1647 -0.5127
  606MOL0     H79970   4.911   0.480  10.080 -1.1395 -0.7751 -0.6998
  606MOL0     H79971   4.933   0.581   9.945  0.1724  1.3023  1.3169
  606MOL0     H79972   5.133   0.435   9.881  0.7562 -0.2617  1.2270
  606MOL0     H79973   4.977   0.348   9.902 -1.2116  0.0952  1.0007
  606MOL0     H79974   5.189   1.215  10.347 -0.5337 -1.4907  0.1591
  606MOL0     H79975   5.426   1.291  10.420 -0.2866 -2.7689  1.3407
  606MOL0     H79976   5.813   1.306  10.440 -1.3769 -0.3626 -1.4611
  606MOL0     H79977   6.039   1.348  10.508  0.5635 -2.5805 -2.5055
  606MOL0     H79978   7.769   2.299  11.147  1.4427  2.6408  1.9364
  606MOL0     H79979   8.009   2.344  11.125  1.3786 -0.9922 -3.9557
  606MOL0     H79980   8.420   2.039  11.180  0.8210 -0.2036 -0.1588
  606MOL0     H79981   8.649   2.015  11.177 -0.3647 -1.3175 -1.9607
  606MOL0     H79982   8.896   2.353  10.965  3.1707  2.0410 -1.7435
  606MOL0     H79983   9.005   2.213  10.979  0.5310  0.1644 -0.4716
  606MOL0     H79984   9.080   2.384  11.146  0.2374 -0.9418 -2.8496
  606MOL0     H79985   8.911   2.401  11.207  1.8075  0.9787  3.0995
  606MOL0     H79986   8.937   2.190  11.326 -0.4405  0.9537  0.5779
  606MOL0     H79987   9.084   2.278  11.359 -2.2339  0.4071  2.0580
  606MOL0     H79988   9.068   2.066  11.125  0.6221 -0.0691 -0.7179
  606MOL0     H79989   9.216   2.157  11.170  1.7796 -0.5527  1.4447
  606MOL0     H79990   9.180   1.883  11.483 -0.0962 -0.9993 -0.5424
  606MOL0     H79991   8.709   2.421  11.050 -2.5585  2.6084  3.7697
  606MOL0     H79992   8.477   2.464  11.043  1.8823 -0.0193 -2.0460
  607MOL0     O79993   8.780   8.394   1.700 -0.7548  0.2344 -0.2758
  607MOL0     C79994   8.701   8.459   1.773 -0.0326 -0.0850  0.4824
  607MOL0     O79995   8.729   8.586   1.820 -0.0847 -0.3598 -0.5161
  607MOL0     C79996   8.853   8.638   1.818 -0.4032  0.1639  0.0027
  607MOL0     C79997   8.895   8.703   1.934  0.6685  0.0033 -0.1832
  607MOL0     C79998   9.015   8.772   1.938 -0.5065  0.0404  0.8399
  607MOL0     C79999   9.107   8.763   1.827  0.2471 -1.1762 -0.5338
  607MOL0     O80000   9.228   8.823   1.828 -0.5149 -0.1688 -0.3743
  607MOL0     C80001   9.307   8.827   1.951  0.8578  0.5291  1.4151
  607MOL0     C80002   9.437   8.903   1.918 -0.1499 -0.4638  0.1819
  607MOL0     C80003   9.515   8.928   2.044  0.4957 -0.3288  0.3015
  607MOL0     C80004   9.638   9.017   2.024  1.0778 -1.2325 -0.1335
  607MOL0     C80005   9.751   8.935   1.966  0.4689 -0.4058 -0.9515
  607MOL0     C80006   9.893   8.995   1.984  0.0469 -0.3324  0.0669
  607MOL0     C80007   9.933   9.012   2.138 -0.1991 -0.8203  0.3023
  607MOL0     C80008  10.081   9.057   2.152  0.5266 -0.0260  0.1524
  607MOL0     N80009  10.191   9.000   2.071  0.7505 -0.2892 -0.1306
  607MOL0     C80010  10.245   8.870   2.090 -0.3073 -0.5491  1.2164
  607MOL0     C80011  10.313   8.849   1.972  0.5564  0.5792 -0.2495
  607MOL0     C80012  10.385   8.724   1.934 -0.7521 -0.8412  1.1311
  607MOL0     C80013  10.538   8.731   1.954  0.1465 -0.1921 -0.8695
  607MOL0     C80014  10.613   8.610   1.884  0.5613  0.4608  0.1019
  607MOL0     C80015  10.755   8.588   1.939  0.0911  0.2684  0.7896
  607MOL0     O80016  10.833   8.495   1.858  0.0067 -0.2452  0.3088
  607MOL0     C80017  10.946   8.536   1.789 -0.1049  0.4632 -0.2305
  607MOL0     C80018  11.051   8.608   1.847 -0.0827 -0.6313 -0.0117
  607MOL0     C80019  11.174   8.618   1.793  0.0195 -0.5974  0.3695
  607MOL0     C80020  11.198   8.567   1.661  0.2364  0.1448 -0.1536
  607MOL0     C80021  11.328   8.553   1.607 -0.5664 -0.2963 -0.0197
  607MOL0     O80022  11.429   8.596   1.682  0.0708  0.0643  0.2278
  607MOL0     C80023  11.545   8.625   1.615 -0.3681 -0.3967 -0.5263
  607MOL0     C80024  11.549   8.710   1.499  0.2919 -0.9642 -0.4255
  607MOL0     C80025  11.668   8.741   1.431  0.4631 -0.1639 -0.4151
  607MOL0     C80026  11.788   8.685   1.469  0.7482  0.2926 -0.3201
  607MOL0     O80027  11.896   8.717   1.393  0.3264 -0.1375 -0.7084
  607MOL0     C80028  12.025   8.707   1.453  0.0143 -0.2535  0.0518
  607MOL0     C80029  12.122   8.794   1.377 -0.2817 -0.8631  0.4758
  607MOL0     C80030  12.144   8.743   1.235  0.1600 -0.1105 -0.1757
  607MOL0     C80031  12.253   8.819   1.161 -0.0577  0.4694 -0.0290
  607MOL0     C80032  12.256   8.783   1.010  0.1793  0.9881 -0.2911
  607MOL0     C80033  12.375   8.867   0.941 -0.3410  0.4583 -1.3213
  607MOL0     C80034  12.415   8.817   0.801  0.7003 -0.3481  0.4799
  607MOL0     C80035  12.521   8.709   0.813 -0.4704 -0.2328  0.2286
  607MOL0    Cl80036  12.580   8.702   0.645  0.1950  0.1017 -0.0159
  607MOL0     C80037  11.787   8.601   1.583 -0.2335 -0.1019 -0.1858
  607MOL0     C80038  11.665   8.570   1.660 -0.3023 -0.1725  0.0945
  607MOL0     O80039  11.338   8.505   1.492  0.3826 -0.1471 -0.0778
  607MOL0     C80040  11.081   8.519   1.592 -1.0612 -0.0661  0.6323
  607MOL0     C80041  10.965   8.493   1.660  0.8622 -0.2478  1.2564
  607MOL0     N80042  10.298   8.952   1.890  0.2353  0.6149 -0.1744
  607MOL0     N80043  10.215   9.032   1.946 -0.0867 -0.2426 -0.2735
  607MOL0     C80044   9.053   8.711   1.705 -0.6086 -0.3723  0.1802
  607MOL0     C80045   8.929   8.646   1.704  0.1627  0.1261 -0.0403
  607MOL0     C80046   8.565   8.405   1.801 -0.3886  0.6874 -0.1758
  607MOL0     C80047   8.544   8.268   1.792 -0.0532 -0.2978 -0.5922
  607MOL0     C80048   8.409   8.221   1.807 -0.1534  0.5299 -1.0446
  607MOL0     C80049   8.301   8.302   1.828 -0.0113 -0.6872 -0.4239
  607MOL0     O80050   8.170   8.255   1.840  0.1151 -0.1046 -0.9331
  607MOL0     C80051   8.128   8.124   1.804  0.3280  0.0927 -0.8571
  607MOL0     C80052   7.993   8.104   1.866 -0.3685  0.8517 -0.1195
  607MOL0     C80053   7.932   7.964   1.844  0.0392  0.2793  0.2101
  607MOL0     C80054   7.843   7.953   1.714  0.2728  0.2968  0.0980
  607MOL0     C80055   7.927   7.956   1.592 -1.0126 -0.4758 -0.4025
  607MOL0     C80056   8.019   7.941   1.511  0.1758 -0.0171 -0.5827
  607MOL0     C80057   8.325   8.445   1.840  0.2709  0.5870 -0.9186
  607MOL0     C80058   8.457   8.492   1.827  0.4724  0.0394  0.1183
  607MOL0     H80059   8.835   8.695   2.024 -0.4486 -2.9803 -1.0536
  607MOL0     H80060   9.041   8.837   2.020  4.2431 -0.0646 -0.2848
  607MOL0     H80061   9.336   8.728   1.986 -1.0220 -1.2666 -1.6925
  607MOL0     H80062   9.250   8.878   2.029  0.6411  0.2589  1.4315
  607MOL0     H80063   9.416   9.006   1.888 -0.0746  0.0045  1.6719
  607MOL0     H80064   9.495   8.856   1.838  0.8336 -2.0659  1.7793
  607MOL0     H80065   9.540   8.833   2.090  0.6518 -0.2894  0.2991
  607MOL0     H80066   9.453   8.974   2.121  1.8639  1.0017  0.6618
  607MOL0     H80067   9.617   9.102   1.958 -0.3557  0.9669  2.8566
  607MOL0     H80068   9.671   9.075   2.111  2.1880 -1.2179 -0.5548
  607MOL0     H80069   9.725   8.920   1.861  1.8758 -0.3529 -1.3353
  607MOL0     H80070   9.764   8.840   2.018  0.1553 -0.0125 -0.1393
  607MOL0     H80071   9.898   9.096   1.942 -0.8754  0.5587  1.9610
  607MOL0     H80072   9.964   8.930   1.933  0.0119 -1.4648  1.3843
  607MOL0     H80073   9.874   9.083   2.196  0.3496  0.7158 -0.9457
  607MOL0     H80074   9.920   8.913   2.182  1.0480 -1.8168 -1.4235
  607MOL0     H80075  10.107   9.040   2.257  0.8041 -1.1049 -0.0758
  607MOL0     H80076  10.084   9.166   2.148 -0.9491 -0.0097 -1.9007
  607MOL0     H80077  10.224   8.800   2.170 -2.2135 -2.3496 -0.7395
  607MOL0     H80078  10.368   8.715   1.827 -1.5108  2.6978  0.8179
  607MOL0     H80079  10.338   8.644   1.992 -0.1059 -0.9720  1.4876
  607MOL0     H80080  10.560   8.738   2.061 -0.8918 -2.1804 -0.4985
  607MOL0     H80081  10.567   8.826   1.908  0.0303  0.2297 -0.0936
  607MOL0     H80082  10.545   8.524   1.889  0.3419  0.3606 -2.8244
  607MOL0     H80083  10.628   8.624   1.776  2.3998 -1.4262  0.0571
  607MOL0     H80084  10.756   8.550   2.042  0.2403  1.1078  1.0998
  607MOL0     H80085  10.802   8.687   1.941 -0.8048  0.7247 -0.1974
  607MOL0     H80086  11.040   8.643   1.949 -0.5729  0.8050 -0.5194
  607MOL0     H80087  11.248   8.658   1.860 -1.2467  1.3122  0.6932
  607MOL0     H80088  11.458   8.759   1.463  0.1562 -0.9618 -0.0829
  607MOL0     H80089  11.662   8.792   1.335 -0.4080 -0.6915 -0.6450
  607MOL0     H80090  12.065   8.606   1.465 -0.3836 -0.4970 -0.5994
  607MOL0     H80091  12.012   8.754   1.551 -2.3523  3.1484 -1.6664
  607MOL0     H80092  12.217   8.798   1.430  0.8050  0.8199 -1.4776
  607MOL0     H80093  12.091   8.899   1.376 -0.2722 -0.8361 -2.1032
  607MOL0     H80094  12.052   8.754   1.176  0.1398 -0.8170 -0.2798
  607MOL0     H80095  12.163   8.636   1.242  0.2005  0.0171  3.1049
  607MOL0     H80096  12.229   8.926   1.170 -0.1009  0.3960  0.8209
  607MOL0     H80097  12.346   8.796   1.214  1.2928  1.0680 -2.0065
  607MOL0     H80098  12.164   8.790   0.952 -1.9114 -4.6778  1.6473
  607MOL0     H80099  12.295   8.681   1.012  1.5852  1.5022 -0.1860
  607MOL0     H80100  12.462   8.859   1.007 -1.9385 -0.9282  0.7689
  607MOL0     H80101  12.331   8.966   0.931  3.0669  2.0614 -2.0145
  607MOL0     H80102  12.339   8.768   0.739  1.0694 -0.6583  0.2711
  607MOL0     H80103  12.445   8.906   0.745 -2.7627 -0.2537 -1.4923
  607MOL0     H80104  12.484   8.611   0.841  0.1083 -1.0936 -1.8300
  607MOL0     H80105  12.599   8.740   0.883  1.5576  0.6728 -2.2650
  607MOL0     H80106  11.878   8.552   1.617  0.4793  1.4771  0.2926
  607MOL0     H80107  11.682   8.505   1.746  1.0860  0.9975  0.7302
  607MOL0     H80108  11.090   8.493   1.487  0.1431  2.4468  0.0301
  607MOL0     H80109  10.889   8.445   1.599 -0.9268 -1.7323  4.4357
  607MOL0     H80110   9.131   8.713   1.629  0.0085  0.0529  0.8162
  607MOL0     H80111   8.886   8.609   1.611  0.4015  0.5618 -0.3270
  607MOL0     H80112   8.634   8.209   1.779 -1.6535 -2.7060 -1.3486
  607MOL0     H80113   8.393   8.114   1.797  1.7345 -0.0006  0.7734
  607MOL0     H80114   8.195   8.056   1.858  3.1234  2.3401 -1.2566
  607MOL0     H80115   8.130   8.108   1.696  0.6397 -3.1886 -0.4770
  607MOL0     H80116   8.000   8.139   1.969  1.4543 -0.8436  0.3829
  607MOL0     H80117   7.938   8.177   1.805  2.4612  0.8242 -3.0002
  607MOL0     H80118   7.873   7.945   1.934 -2.3099  3.0963 -0.5515
  607MOL0     H80119   8.011   7.890   1.838 -0.3155 -0.0502 -0.6119
  607MOL0     H80120   7.800   7.853   1.717  2.9349 -0.9492 -0.5481
  607MOL0     H80121   7.765   8.030   1.716  1.0022  1.0496  1.6015
  607MOL0     H80122   8.100   7.920   1.444 -1.0412  0.2442 -2.1962
  607MOL0     H80123   8.235   8.503   1.859 -0.5474 -1.2686  1.4733
  607MOL0     H80124   8.473   8.599   1.823  1.2510 -0.0174  1.2760
  608MOL0     O80125   2.497   3.237   5.888  0.6168 -0.0624  0.1114
  608MOL0     C80126   2.548   3.130   5.862  0.5426 -0.6761  0.3973
  608MOL0     O80127   2.516   3.006   5.911 -0.1398 -0.1360  0.2451
  608MOL0     C80128   2.399   3.000   5.983 -0.7968 -0.1402 -0.0974
  608MOL0     C80129   2.399   2.969   6.120  0.6643  0.3070  0.3966
  608MOL0     C80130   2.284   2.959   6.196  1.0976  0.1498  0.2533
  608MOL0     C80131   2.163   2.975   6.129  0.6690 -0.7641 -0.7081
  608MOL0     O80132   2.040   2.968   6.189 -0.2383  0.2735 -0.1178
  608MOL0     C80133   2.004   2.951   6.331  0.4585  0.5349 -0.0708
  608MOL0     C80134   1.859   2.996   6.361  0.4556  0.2074 -0.1264
  608MOL0     C80135   1.754   2.932   6.266 -0.4404  0.3703  0.1416
  608MOL0     C80136   1.633   3.034   6.265  0.5215  0.0157  0.5700
  608MOL0     C80137   1.541   3.019   6.393 -0.5158 -0.7773 -0.3037
  608MOL0     C80138   1.530   2.882   6.464 -0.0914  0.0995 -0.8919
  608MOL0     C80139   1.431   2.914   6.583 -0.8340  0.3917  0.2378
  608MOL0     C80140   1.299   2.846   6.548 -0.5045 -0.1737  0.3990
  608MOL0     N80141   1.204   2.868   6.651 -0.3826  0.3741 -0.2815
  608MOL0     C80142   1.069   2.820   6.646  0.0992 -1.3772 -0.5918
  608MOL0     C80143   1.006   2.888   6.747  1.0700  0.5594 -0.5259
  608MOL0     C80144   0.863   2.872   6.783 -0.7394  0.0976  0.6382
  608MOL0     C80145   0.796   3.011   6.793  0.0755 -0.3643  0.5223
  608MOL0     C80146   0.674   3.000   6.884 -0.5285  1.0924 -0.5390
  608MOL0     C80147   0.617   3.143   6.902 -0.1636 -0.0633  0.5960
  608MOL0     O80148   0.549   3.189   6.786 -0.1266 -0.1557 -0.8282
  608MOL0     C80149   0.414   3.167   6.779  0.0794 -0.2975  0.9936
  608MOL0     C80150   0.319   3.191   6.888  0.0716  0.1174 -0.3548
  608MOL0     C80151   0.180   3.180   6.874 -0.8292  0.7515 -0.4674
  608MOL0     C80152   0.137   3.160   6.744 -0.1513  0.0233  0.1651
  608MOL0     C80153  -0.007   3.173   6.714 -0.9579 -0.3174  0.8863
  608MOL0     O80154  -0.084   3.223   6.811  0.7128 -0.1976  0.5403
  608MOL0     C80155  -0.218   3.237   6.781 -0.2509  0.3525  0.3317
  608MOL0     C80156  -0.260   3.350   6.707 -0.2023  0.8241  0.4960
  608MOL0     C80157  -0.398   3.369   6.678 -0.4574  0.9739  0.3810
  608MOL0     C80158  -0.496   3.277   6.711 -0.0114  0.2786 -0.9937
  608MOL0     O80159  -0.626   3.297   6.664 -0.1050 -0.2229 -0.2137
  608MOL0     C80160  -0.713   3.181   6.651  0.1990  0.0312 -0.4637
  608MOL0     C80161  -0.816   3.160   6.776  1.2315  0.7005  0.4196
  608MOL0     C80162  -0.952   3.075   6.737 -0.2283 -0.3257 -0.5308
  608MOL0     C80163  -1.043   3.034   6.858  0.4937  0.0437  0.1556
  608MOL0     C80164  -1.142   2.921   6.819 -0.4530 -1.0341 -0.3727
  608MOL0     C80165  -1.200   2.873   6.954  0.6797 -0.4203  0.0144
  608MOL0     C80166  -1.268   2.988   7.041  0.6446  0.8169  0.2810
  608MOL0     C80167  -1.357   2.919   7.152 -0.4872 -0.0908 -0.6176
  608MOL0    Cl80168  -1.461   3.033   7.241 -0.4864  0.0479  0.4479
  608MOL0     C80169  -0.450   3.156   6.777  0.4240  0.3169  0.5274
  608MOL0     C80170  -0.311   3.136   6.815 -0.1976 -0.3518  0.2045
  608MOL0     O80171  -0.050   3.117   6.615 -1.1857 -0.5465  0.1018
  608MOL0     C80172   0.231   3.129   6.637  0.0384  0.2066 -0.8192
  608MOL0     C80173   0.369   3.134   6.652  0.8722  0.1076 -0.7988
  608MOL0     N80174   1.097   2.969   6.807  0.0173  0.9688 -0.1130
  608MOL0     N80175   1.218   2.950   6.757  0.3299  1.1824  0.0572
  608MOL0     C80176   2.152   3.002   5.998 -0.0329 -0.1103 -0.1096
  608MOL0     C80177   2.278   3.013   5.920  0.6787 -0.4984  0.0741
  608MOL0     C80178   2.676   3.123   5.787 -0.6377 -0.5864  0.2111
  608MOL0     C80179   2.742   3.002   5.767  0.7477  0.3370 -0.2180
  608MOL0     C80180   2.833   3.005   5.664 -0.8998  0.3380 -0.8236
  608MOL0     C80181   2.879   3.122   5.594 -0.0053  0.4730 -1.4604
  608MOL0     O80182   2.969   3.098   5.494 -0.3293  0.5454 -0.5773
  608MOL0     C80183   3.035   3.212   5.432 -0.0740 -0.4128 -0.5744
  608MOL0     C80184   3.140   3.153   5.335 -0.6925 -0.2567  0.0985
  608MOL0     C80185   3.104   3.184   5.190  0.3023 -0.6906 -0.2068
  608MOL0     C80186   3.167   3.103   5.075 -0.8878 -0.5184 -0.2200
  608MOL0     C80187   3.304   3.155   5.058 -0.4632 -0.7853 -0.4361
  608MOL0     C80188   3.414   3.207   5.055 -0.2349  0.0850 -0.6667
  608MOL0     C80189   2.832   3.244   5.630  0.0587  0.0268 -0.1473
  608MOL0     C80190   2.726   3.246   5.729  0.2582 -0.0694  0.1671
  608MOL0     H80191   2.499   2.960   6.160  1.5081 -1.3692 -1.8966
  608MOL0     H80192   2.285   2.940   6.303 -2.2378  0.8754  0.5255
  608MOL0     H80193   2.083   2.995   6.393  2.1842  0.0378 -1.8023
  608MOL0     H80194   2.002   2.842   6.343 -1.6828  0.5189 -0.1795
  608MOL0     H80195   1.849   3.104   6.350 -3.7662  0.0340  0.3725
  608MOL0     H80196   1.834   2.969   6.464  0.1812  0.3364 -0.1578
  608MOL0     H80197   1.727   2.833   6.305  0.4933  1.2084  3.2133
  608MOL0     H80198   1.785   2.918   6.162 -2.4464  0.2238 -0.4729
  608MOL0     H80199   1.659   3.140   6.262 -2.7707  0.9215 -2.4043
  608MOL0     H80200   1.568   3.019   6.178  1.5828  1.6572 -0.5761
  608MOL0     H80201   1.444   3.064   6.372  0.3430  1.8146  0.8821
  608MOL0     H80202   1.583   3.084   6.470 -1.9965 -2.9986  2.5638
  608MOL0     H80203   1.626   2.852   6.509  1.5222  0.6469 -3.7607
  608MOL0     H80204   1.482   2.800   6.411 -2.1126 -0.3722  1.4448
  608MOL0     H80205   1.477   2.872   6.673 -0.6684  0.0616  0.0004
  608MOL0     H80206   1.418   3.022   6.594  0.2007  0.7115 -1.2813
  608MOL0     H80207   1.323   2.740   6.557  5.1019  0.7320 -0.3186
  608MOL0     H80208   1.261   2.870   6.448 -3.2878 -1.2495  1.0914
  608MOL0     H80209   1.022   2.757   6.571  0.0870 -0.7957 -1.0736
  608MOL0     H80210   0.860   2.822   6.880  2.3315 -1.0810  0.2231
  608MOL0     H80211   0.804   2.811   6.713  0.6235 -1.6358  0.9218
  608MOL0     H80212   0.772   3.034   6.689  0.9314  0.3961  0.4812
  608MOL0     H80213   0.866   3.084   6.834 -2.1704  1.0004  2.1203
  608MOL0     H80214   0.597   2.929   6.853 -1.2426  2.6547 -2.5650
  608MOL0     H80215   0.719   2.970   6.979  1.3396  2.0842 -1.0633
  608MOL0     H80216   0.698   3.215   6.920 -2.1064  2.7063 -1.0216
  608MOL0     H80217   0.556   3.152   6.992 -0.6525  3.0352  0.0666
  608MOL0     H80218   0.366   3.221   6.982 -0.7968  1.6096 -0.3512
  608MOL0     H80219   0.109   3.199   6.955  1.5834  1.0380  1.7081
  608MOL0     H80220  -0.192   3.432   6.685 -0.1275  0.4686 -0.7058
  608MOL0     H80221  -0.440   3.451   6.622  0.7566 -0.4001 -2.7293
  608MOL0     H80222  -0.659   3.088   6.629 -1.0886 -0.5629 -1.2744
  608MOL0     H80223  -0.780   3.198   6.565 -1.2064 -1.4234  0.2851
  608MOL0     H80224  -0.854   3.253   6.818  0.5367 -0.8668  3.5330
  608MOL0     H80225  -0.766   3.099   6.852 -2.0888 -1.5799  0.9472
  608MOL0     H80226  -0.933   2.991   6.670 -2.4351 -1.5933  0.3295
  608MOL0     H80227  -1.002   3.145   6.668 -0.5611  0.3268  0.3521
  608MOL0     H80228  -0.980   3.006   6.942 -0.7842 -1.9692  0.5030
  608MOL0     H80229  -1.100   3.121   6.892 -1.2168 -1.3284  0.9225
  608MOL0     H80230  -1.085   2.839   6.774  2.8470  2.0953 -2.4727
  608MOL0     H80231  -1.229   2.951   6.760 -0.2593 -1.3415 -0.8194
  608MOL0     H80232  -1.126   2.829   7.022 -2.2330 -2.1440  2.3153
  608MOL0     H80233  -1.271   2.793   6.930 -0.0824  0.4807 -0.8310
  608MOL0     H80234  -1.190   3.042   7.096  1.6720 -2.6338  2.5033
  608MOL0     H80235  -1.336   3.051   6.984 -1.2470 -2.1568 -0.9836
  608MOL0     H80236  -1.294   2.871   7.228  1.1036 -1.1199 -2.5127
  608MOL0     H80237  -1.422   2.847   7.101 -2.6749  0.9959  0.4764
  608MOL0     H80238  -0.514   3.069   6.791 -2.9945  2.6261  0.4128
  608MOL0     H80239  -0.286   3.046   6.872 -0.9862  0.9415  2.7669
  608MOL0     H80240   0.200   3.107   6.535 -2.8340 -0.5516  0.1391
  608MOL0     H80241   0.446   3.111   6.579 -0.4779 -2.8576 -1.4418
  608MOL0     H80242   2.055   3.006   5.950  1.4968  0.3091 -3.4184
  608MOL0     H80243   2.257   3.033   5.815 -1.6722  0.3928  0.6678
  608MOL0     H80244   2.722   2.906   5.816  3.9843  0.0022  0.6466
  608MOL0     H80245   2.868   2.912   5.621 -1.1612  0.4533 -1.2976
  608MOL0     H80246   3.083   3.280   5.503  0.4780 -0.1795 -1.1585
  608MOL0     H80247   2.967   3.274   5.372 -0.2882 -0.7284 -0.6565
  608MOL0     H80248   3.241   3.184   5.363 -0.9090  0.3164  0.2563
  608MOL0     H80249   3.134   3.045   5.351 -0.1827 -0.3025 -0.0087
  608MOL0     H80250   3.123   3.289   5.170  0.5002 -0.4070  1.3649
  608MOL0     H80251   3.000   3.152   5.178  0.7418 -1.8300 -1.1570
  608MOL0     H80252   3.169   2.995   5.097  1.7138 -0.7962 -1.4737
  608MOL0     H80253   3.108   3.114   4.983  0.8406 -0.0773 -1.3241
  608MOL0     H80254   3.516   3.239   5.052 -0.5839  1.3017 -0.2443
  608MOL0     H80255   2.855   3.335   5.576  1.4080 -0.6924 -0.8248
  608MOL0     H80256   2.672   3.339   5.744  0.6218  0.2993 -0.7740
  609MOL0     O80257   9.615   9.834   7.652 -1.1147 -0.2070 -0.6909
  609MOL0     C80258   9.666   9.744   7.591  0.0189 -0.8036  0.4135
  609MOL0     O80259   9.800   9.724   7.571 -0.3450 -0.3502  0.0189
  609MOL0     C80260   9.896   9.789   7.645 -0.4992 -0.8138  0.1551
  609MOL0     C80261   9.888   9.807   7.779 -0.4686  0.0390 -0.1028
  609MOL0     C80262   9.982   9.890   7.852 -0.6246 -0.4613  0.7301
  609MOL0     C80263  10.095   9.934   7.782 -0.2442  0.4622 -0.1313
  609MOL0     O80264  10.186  10.014   7.844  0.3361 -0.0248  0.0500
  609MOL0     C80265  10.226   9.987   7.977  0.8208 -0.1981  0.0623
  609MOL0     C80266  10.356  10.050   7.988 -0.8498 -0.5723 -0.4753
  609MOL0     C80267  10.419  10.055   8.128 -0.1971  0.1263 -0.1705
  609MOL0     C80268  10.556  10.122   8.129  0.1611 -0.2473 -0.5824
  609MOL0     C80269  10.626  10.086   8.262 -0.2017 -0.5026 -0.4229
  609MOL0     C80270  10.756  10.169   8.284  0.1308 -0.0522  0.4453
  609MOL0     C80271  10.826  10.113   8.408  0.0521 -0.0609 -0.0105
  609MOL0     C80272  10.971  10.164   8.405  0.9499  0.1329 -0.5488
  609MOL0     N80273  11.021  10.124   8.547 -0.5656 -0.4297  0.1118
  609MOL0     C80274  11.048  10.006   8.601 -0.4554  0.6796 -0.2720
  609MOL0     C80275  11.114  10.023   8.716 -0.6564 -0.1998 -0.3824
  609MOL0     C80276  11.172   9.922   8.813  0.1625 -1.1793  0.2395
  609MOL0     C80277  11.077   9.808   8.852  0.1911  0.3509  0.0883
  609MOL0     C80278  10.961   9.847   8.938  0.6066  0.6718 -0.4933
  609MOL0     C80279  10.856   9.930   8.867  0.2436 -0.9590 -0.7749
  609MOL0     O80280  10.802   9.872   8.747 -0.5036 -0.0702  0.0136
  609MOL0     C80281  10.685   9.920   8.697  0.0638 -0.8936  0.6765
  609MOL0     C80282  10.592  10.012   8.757 -0.3414  0.0444 -0.4299
  609MOL0     C80283  10.473  10.038   8.699  0.5359 -0.0321 -0.3931
  609MOL0     C80284  10.439   9.970   8.582  0.0328 -0.1721  0.2402
  609MOL0     C80285  10.309   9.965   8.532  0.2606  0.3347 -0.8036
  609MOL0     O80286  10.280   9.877   8.431 -0.1379 -0.6492  0.0468
  609MOL0     C80287  10.156   9.859   8.368  0.6542 -0.4142  0.1902
  609MOL0     C80288  10.043   9.941   8.384 -0.1790 -0.2400 -0.0307
  609MOL0     C80289   9.933   9.914   8.295 -0.7878 -0.6827  0.1805
  609MOL0     C80290   9.925   9.808   8.212  0.0559 -0.0026  0.0079
  609MOL0     O80291   9.820   9.771   8.132 -0.0713 -0.4532 -0.7483
  609MOL0     C80292   9.699   9.840   8.164 -0.9639 -0.2006  0.4894
  609MOL0     C80293   9.572   9.771   8.101 -0.9781 -0.0244 -1.1529
  609MOL0     C80294   9.525   9.650   8.174  0.0800  0.2540 -0.2732
  609MOL0     C80295   9.416   9.583   8.097  0.9800 -0.1650 -0.3208
  609MOL0     C80296   9.303   9.683   8.049 -0.4246  1.2530 -0.4500
  609MOL0     C80297   9.176   9.606   8.000  0.8603  0.2300  0.2371
  609MOL0     C80298   9.072   9.701   7.949 -0.1384  0.5791  0.7677
  609MOL0     C80299   8.936   9.635   7.932 -1.0117 -0.1891 -0.4145
  609MOL0    Cl80300   8.953   9.493   7.833  0.0645 -0.0293  0.0403
  609MOL0     C80301  10.040   9.734   8.200 -0.0102  0.9697 -0.1659
  609MOL0     C80302  10.157   9.768   8.263 -0.4947 -0.2101  0.1108
  609MOL0     O80303  10.231  10.049   8.578 -0.4113 -0.2659 -0.1285
  609MOL0     C80304  10.536   9.898   8.518 -0.1922  0.0067  0.3794
  609MOL0     C80305  10.660   9.876   8.571  0.7490  0.6204  0.1960
  609MOL0     N80306  11.123  10.164   8.729 -0.3441 -0.4071  0.9027
  609MOL0     N80307  11.074  10.224   8.623  0.4110 -0.1121 -0.3421
  609MOL0     C80308  10.115   9.889   7.650  0.3506 -0.4520 -0.2978
  609MOL0     C80309  10.013   9.820   7.583 -1.4387 -0.4578  0.8874
  609MOL0     C80310   9.563   9.648   7.519 -0.2967 -0.2065 -0.1295
  609MOL0     C80311   9.614   9.551   7.431 -0.2348 -0.3641  0.3088
  609MOL0     C80312   9.522   9.464   7.369  0.8264  0.5212  0.7290
  609MOL0     C80313   9.386   9.471   7.390  0.7028 -0.1193 -0.3464
  609MOL0     O80314   9.296   9.380   7.336  0.0359  0.5812  0.4423
  609MOL0     C80315   9.160   9.406   7.345 -1.0469 -0.4739  0.0687
  609MOL0     C80316   9.076   9.290   7.284  0.5581  0.2254 -0.1709
  609MOL0     C80317   8.929   9.344   7.260 -0.0991  0.2080 -0.1977
  609MOL0     C80318   8.824   9.234   7.253  0.3905  0.0061 -0.3135
  609MOL0     C80319   8.823   9.163   7.378  0.2144  0.1999  0.1965
  609MOL0     C80320   8.815   9.121   7.490 -0.1065  1.1173 -0.4314
  609MOL0     C80321   9.343   9.569   7.481 -0.1094  0.5453 -0.7987
  609MOL0     C80322   9.429   9.658   7.551  0.5013  1.2481 -0.1637
  609MOL0     H80323   9.815   9.754   7.839 -1.6397  1.9982  0.2558
  609MOL0     H80324   9.963   9.922   7.954  2.5906  1.1049  0.9570
  609MOL0     H80325  10.244   9.881   7.996 -0.5328 -1.6505 -5.1433
  609MOL0     H80326  10.156  10.026   8.051  0.5662  2.2586 -1.3693
  609MOL0     H80327  10.354  10.155   7.957 -0.5030 -0.8895 -1.6341
  609MOL0     H80328  10.433   9.997   7.932  0.5064  0.8864 -0.0594
  609MOL0     H80329  10.440   9.951   8.155  1.5080 -0.0688 -1.9798
  609MOL0     H80330  10.350  10.105   8.197 -0.7088 -2.7323  1.5501
  609MOL0     H80331  10.622  10.089   8.048 -0.6496 -0.4340 -1.1744
  609MOL0     H80332  10.541  10.230   8.134  2.1968  0.2096 -2.6127
  609MOL0     H80333  10.646   9.980   8.248  2.1980  0.0575 -1.6941
  609MOL0     H80334  10.558  10.113   8.344  0.1396 -0.4348 -0.1592
  609MOL0     H80335  10.739  10.277   8.286  2.2254  0.3375 -0.3890
  609MOL0     H80336  10.815  10.157   8.192 -3.2110  1.3094 -2.0581
  609MOL0     H80337  10.779  10.141   8.503  0.3246 -0.8179  0.3613
  609MOL0     H80338  10.827  10.004   8.393 -2.3416 -0.2588  0.9204
  609MOL0     H80339  10.960  10.272   8.389  1.0494 -0.0497 -1.9950
  609MOL0     H80340  11.030  10.119   8.325  0.3367 -1.2431 -0.2660
  609MOL0     H80341  11.007   9.913   8.564  0.2123  0.1441  0.3377
  609MOL0     H80342  11.188   9.988   8.899 -0.6015  2.5944 -2.2755
  609MOL0     H80343  11.268   9.892   8.769  1.9398  4.1740 -0.2734
  609MOL0     H80344  11.136   9.734   8.907  3.1321  1.6045 -1.1628
  609MOL0     H80345  11.045   9.760   8.759  0.9112  0.6369 -0.3148
  609MOL0     H80346  10.903   9.756   8.958 -0.6845  1.3344 -1.0854
  609MOL0     H80347  11.004   9.896   9.025 -1.4069 -0.2597  1.1071
  609MOL0     H80348  10.898  10.026   8.836  3.1030 -1.9750 -0.3451
  609MOL0     H80349  10.780   9.955   8.941  0.3903 -2.7819  0.0483
  609MOL0     H80350  10.605  10.067   8.849  1.3575 -0.6387 -0.2234
  609MOL0     H80351  10.403  10.102   8.750 -0.8277  0.7856 -3.0880
  609MOL0     H80352  10.044  10.020   8.459 -2.0822 -2.1183  2.0925
  609MOL0     H80353   9.857   9.991   8.283  1.2888  1.5578  0.5181
  609MOL0     H80354   9.709   9.938   8.117  1.9854 -1.2732 -1.4131
  609MOL0     H80355   9.693   9.855   8.273  2.3395  1.6236  0.5749
  609MOL0     H80356   9.594   9.739   7.999  2.4296  0.6474 -0.7568
  609MOL0     H80357   9.496   9.850   8.105 -0.0709  0.8193  0.8975
  609MOL0     H80358   9.490   9.673   8.275  1.8636 -0.2642  0.4989
  609MOL0     H80359   9.612   9.585   8.182  2.4535  3.4027  2.0117
  609MOL0     H80360   9.452   9.541   8.003  1.2300 -0.2587 -0.1852
  609MOL0     H80361   9.368   9.506   8.158  0.7190  0.7591  0.6644
  609MOL0     H80362   9.343   9.751   7.972  0.4621  2.1747  0.7793
  609MOL0     H80363   9.274   9.754   8.126  0.1606 -0.0421  1.0170
  609MOL0     H80364   9.134   9.540   8.077 -1.6535  1.6319  0.1419
  609MOL0     H80365   9.205   9.530   7.927 -0.5714 -1.2958  1.1980
  609MOL0     H80366   9.047   9.783   8.016 -2.3746 -1.0878  2.1017
  609MOL0     H80367   9.094   9.745   7.851 -0.3882  0.8973  0.8526
  609MOL0     H80368   8.861   9.700   7.886 -1.7223 -0.2133  0.6781
  609MOL0     H80369   8.902   9.604   8.031 -1.5789 -3.3486 -1.5069
  609MOL0     H80370  10.038   9.639   8.148  0.0941  0.6958  0.3143
  609MOL0     H80371  10.233   9.692   8.248 -1.3216 -0.8971 -0.7443
  609MOL0     H80372  10.505   9.847   8.427  1.7347 -1.5801  0.5139
  609MOL0     H80373  10.729   9.814   8.514  0.6997 -1.4640  2.2645
  609MOL0     H80374  10.207   9.910   7.595  1.8217 -2.6166  1.1910
  609MOL0     H80375  10.022   9.794   7.478 -0.7329  0.1235  0.7967
  609MOL0     H80376   9.720   9.550   7.405 -0.2612  2.6676 -0.3342
  609MOL0     H80377   9.552   9.391   7.295  1.7430  0.6668  0.9493
  609MOL0     H80378   9.136   9.486   7.274 -1.0921  1.1380  1.8118
  609MOL0     H80379   9.129   9.414   7.450 -2.4101  0.1199 -0.3499
  609MOL0     H80380   9.122   9.278   7.186 -1.6298  3.0657 -1.7125
  609MOL0     H80381   9.079   9.202   7.349  1.3477  0.8142  0.6074
  609MOL0     H80382   8.929   9.399   7.166 -1.4666  0.1262 -0.2668
  609MOL0     H80383   8.905   9.407   7.346  0.5675  0.0698  0.1015
  609MOL0     H80384   8.729   9.285   7.236 -1.3182 -2.9003 -0.1323
  609MOL0     H80385   8.849   9.165   7.172  1.8580 -0.7331  0.7193
  609MOL0     H80386   8.823   9.084   7.590  1.4023  0.0738 -0.9098
  609MOL0     H80387   9.237   9.591   7.495 -0.0483 -0.2762  1.3167
  609MOL0     H80388   9.395   9.738   7.615  0.0956  2.7325 -2.1554
  610MOL0     O80389   8.187  10.989   7.765 -0.1098  0.1019  0.2291
  610MOL0     C80390   8.279  10.980   7.689 -1.0872  0.3358 -0.4538
  610MOL0     O80391   8.294  11.033   7.559  0.0206  0.2574  0.3854
  610MOL0     C80392   8.207  11.117   7.504 -0.4017  0.6015 -0.5556
  610MOL0     C80393   8.155  11.099   7.377  0.2673 -0.3266 -0.4271
  610MOL0     C80394   8.056  11.189   7.314  0.4074  1.2219  0.7324
  610MOL0     C80395   8.009  11.294   7.384  0.6882 -0.5520 -0.3484
  610MOL0     O80396   7.922  11.379   7.321  0.2301  0.4508 -0.4468
  610MOL0     C80397   7.869  11.485   7.398  0.5873  0.6107  0.4707
  610MOL0     C80398   7.735  11.543   7.349 -0.0883  0.7862  0.4733
  610MOL0     C80399   7.764  11.603   7.206  0.2189 -0.3463 -0.0017
  610MOL0     C80400   7.630  11.659   7.150  0.6193 -0.3972 -0.4400
  610MOL0     C80401   7.568  11.774   7.235 -0.4715  0.4885 -0.2920
  610MOL0     C80402   7.421  11.769   7.224  1.0911 -0.5201  0.3406
  610MOL0     C80403   7.356  11.895   7.279 -0.6520 -0.8259  0.4300
  610MOL0     C80404   7.208  11.901   7.284 -0.2316 -0.4250 -0.6357
  610MOL0     N80405   7.140  11.839   7.175 -0.4217 -0.1823  0.5727
  610MOL0     C80406   7.118  11.703   7.154  0.3259 -0.8272  0.3430
  610MOL0     C80407   7.066  11.698   7.027  0.9733  0.4662 -0.1509
  610MOL0     C80408   7.045  11.574   6.949 -0.6101  0.0819  0.4929
  610MOL0     C80409   6.891  11.572   6.909  0.2335  0.7577  0.5379
  610MOL0     C80410   6.823  11.432   6.918  0.4104  0.9052  0.1093
  610MOL0     C80411   6.669  11.435   6.883 -0.1350  0.1576 -0.4126
  610MOL0     O80412   6.618  11.306   6.927 -0.0102 -0.0883  0.3553
  610MOL0     C80413   6.491  11.269   6.894  1.0478  0.0395  0.0081
  610MOL0     C80414   6.408  11.325   6.786  0.7150  0.6437  1.0782
  610MOL0     C80415   6.279  11.282   6.765 -0.4229  0.6332  0.4967
  610MOL0     C80416   6.235  11.170   6.837  0.1077  1.0991 -0.0382
  610MOL0     C80417   6.104  11.119   6.816  0.8292  0.1652  0.2917
  610MOL0     O80418   6.048  11.156   6.693  0.1874  0.1472 -0.0882
  610MOL0     C80419   5.915  11.144   6.679  0.1341  0.7385  0.1222
  610MOL0     C80420   5.828  11.254   6.693 -0.3814  0.2421  0.8486
  610MOL0     C80421   5.692  11.253   6.643 -0.1377  0.2047 -0.7641
  610MOL0     C80422   5.644  11.138   6.582  0.4841  0.1672  0.4578
  610MOL0     O80423   5.522  11.154   6.521  0.4030 -0.5521 -0.5553
  610MOL0     C80424   5.451  11.038   6.469 -0.3235 -0.0670 -0.3390
  610MOL0     C80425   5.340  11.066   6.374  0.0298  0.7583  0.0945
  610MOL0     C80426   5.305  10.942   6.294 -1.0391  0.4857 -0.2045
  610MOL0     C80427   5.215  10.849   6.378 -0.3936 -0.2212 -0.2811
  610MOL0     C80428   5.148  10.739   6.292 -0.1293 -0.3130 -0.4134
  610MOL0     C80429   5.054  10.660   6.385  0.7241  0.9876  0.4151
  610MOL0     C80430   5.132  10.564   6.477 -0.0387 -0.6881 -0.0434
  610MOL0     C80431   5.058  10.538   6.605  0.9281 -0.4275  0.0634
  610MOL0    Cl80432   5.046  10.673   6.719  0.1287 -0.1693  0.0159
  610MOL0     C80433   5.725  11.028   6.576 -0.1342 -0.1499  0.3667
  610MOL0     C80434   5.853  11.033   6.621 -0.0639 -0.5035 -0.2392
  610MOL0     O80435   6.047  11.065   6.907 -0.7708  0.4115  0.1212
  610MOL0     C80436   6.313  11.109   6.937 -0.7495  0.2380  0.1539
  610MOL0     C80437   6.440  11.164   6.968 -1.7267  0.3681 -0.0463
  610MOL0     N80438   7.053  11.824   6.979 -0.2818  0.1002  0.1004
  610MOL0     N80439   7.101  11.906   7.070 -0.0517  0.0674 -0.2764
  610MOL0     C80440   8.061  11.312   7.516  0.0257 -0.3435 -0.4218
  610MOL0     C80441   8.159  11.227   7.580 -0.1235 -0.6386  0.7998
  610MOL0     C80442   8.395  10.898   7.754  0.2744 -1.2359 -0.6764
  610MOL0     C80443   8.378  10.832   7.877  0.3282  0.2097 -0.6743
  610MOL0     C80444   8.487  10.775   7.943  1.0615  0.1068 -0.5401
  610MOL0     C80445   8.614  10.773   7.888 -0.3661  0.2120  0.3901
  610MOL0     O80446   8.716  10.726   7.961 -0.1976 -0.0316  0.6008
  610MOL0     C80447   8.821  10.825   7.976  0.8751  0.7632  0.0219
  610MOL0     C80448   8.949  10.783   7.891  0.1389  0.7194 -0.8146
  610MOL0     C80449   9.088  10.841   7.917 -0.0757  0.0136  0.1246
  610MOL0     C80450   9.136  10.785   8.051  0.2715  0.1286  0.3080
  610MOL0     C80451   9.274  10.830   8.075  0.3584  0.3015 -0.4147
  610MOL0     C80452   9.374  10.877   8.113  0.1080  0.2935 -0.4496
  610MOL0     C80453   8.631  10.825   7.758 -0.2108 -1.1050 -1.0967
  610MOL0     C80454   8.515  10.873   7.690 -0.3466 -0.8858  0.5780
  610MOL0     H80455   8.176  11.003   7.330  0.6177 -0.8761  0.8207
  610MOL0     H80456   8.002  11.161   7.224  0.0920  2.4152  0.5376
  610MOL0     H80457   7.945  11.563   7.390  3.2529 -1.4948  3.1000
  610MOL0     H80458   7.859  11.465   7.505 -0.2864 -0.7474  0.1572
  610MOL0     H80459   7.696  11.616   7.420 -0.2870 -0.7261  1.9730
  610MOL0     H80460   7.657  11.467   7.338 -2.1855  3.0322 -1.5238
  610MOL0     H80461   7.810  11.531   7.138 -3.1550 -2.2308 -0.5177
  610MOL0     H80462   7.841  11.680   7.219  2.2418 -2.5382  2.0088
  610MOL0     H80463   7.641  11.690   7.046  1.0694 -2.6125 -1.1192
  610MOL0     H80464   7.567  11.569   7.144  0.2529 -0.0397 -2.8527
  610MOL0     H80465   7.611  11.868   7.200 -1.2809  0.5864 -1.0497
  610MOL0     H80466   7.599  11.770   7.340 -0.0947  2.2356 -0.3108
  610MOL0     H80467   7.383  11.680   7.275 -0.1372 -0.2348 -0.0526
  610MOL0     H80468   7.388  11.767   7.120 -3.1114 -0.0484  1.5163
  610MOL0     H80469   7.400  11.920   7.376 -0.3439  0.9330 -0.1397
  610MOL0     H80470   7.377  11.975   7.208 -3.2697  0.2519  0.7624
  610MOL0     H80471   7.177  12.005   7.294 -3.3391 -1.0606 -2.4103
  610MOL0     H80472   7.179  11.858   7.380 -0.9998 -0.2583 -0.7869
  610MOL0     H80473   7.153  11.623   7.218  0.6891  0.0785  1.3081
  610MOL0     H80474   7.064  11.487   7.012 -0.8987 -0.4810 -0.1761
  610MOL0     H80475   7.105  11.582   6.858 -1.8786  2.0179 -0.2303
  610MOL0     H80476   6.882  11.599   6.804 -0.7050  1.0055  0.6752
  610MOL0     H80477   6.831  11.639   6.971 -1.6765  1.0568 -1.5087
  610MOL0     H80478   6.877  11.359   6.857 -0.5764 -0.6984  1.0837
  610MOL0     H80479   6.833  11.408   7.024  3.0194  0.2845 -0.2062
  610MOL0     H80480   6.655  11.444   6.775 -0.9175 -0.3631 -0.3585
  610MOL0     H80481   6.619  11.515   6.939  0.8651  0.1772  0.5004
  610MOL0     H80482   6.443  11.407   6.725 -0.4725 -0.2830 -0.9632
  610MOL0     H80483   6.220  11.333   6.690  1.0048 -0.2146 -1.2586
  610MOL0     H80484   5.863  11.354   6.718  1.5564 -0.3630  0.7316
  610MOL0     H80485   5.632  11.343   6.631 -0.8646 -0.3447 -1.3558
  610MOL0     H80486   5.424  10.966   6.547  2.3996 -0.9126 -0.0449
  610MOL0     H80487   5.523  10.974   6.416 -0.7279 -1.1143  0.3359
  610MOL0     H80488   5.371  11.143   6.304  0.6708 -1.1023 -1.7620
  610MOL0     H80489   5.253  11.104   6.428 -0.6291 -2.8690  1.9039
  610MOL0     H80490   5.396  10.886   6.268 -2.1482 -1.0851 -0.8311
  610MOL0     H80491   5.259  10.977   6.202  2.3763  2.6445 -1.2848
  610MOL0     H80492   5.268  10.795   6.457  0.0587  1.1867  0.4093
  610MOL0     H80493   5.146  10.915   6.431  2.1512  0.2611  2.7281
  610MOL0     H80494   5.221  10.679   6.238  0.1739 -0.0223 -0.3341
  610MOL0     H80495   5.081  10.776   6.213 -1.5595 -1.0053  0.4257
  610MOL0     H80496   4.990  10.599   6.322  4.0229 -0.5766 -1.6955
  610MOL0     H80497   4.988  10.721   6.447 -2.3349 -1.2069 -0.4950
  610MOL0     H80498   5.162  10.470   6.430  2.6103  0.0299  0.0566
  610MOL0     H80499   5.222  10.609   6.518 -0.4029  1.6580 -1.6420
  610MOL0     H80500   5.108  10.458   6.661  1.2574  2.2044  3.9340
  610MOL0     H80501   4.956  10.522   6.570  0.9763 -0.7258  0.0547
  610MOL0     H80502   5.695  10.926   6.553  0.8403 -0.1571 -1.0471
  610MOL0     H80503   5.921  10.948   6.612 -1.2302 -1.3962 -0.9338
  610MOL0     H80504   6.298  11.008   6.975  0.3771 -1.0832 -2.6181
  610MOL0     H80505   6.495  11.110   7.045  0.4116  1.0656 -1.0234
  610MOL0     H80506   8.033  11.400   7.574 -0.4639  0.4508 -1.8084
  610MOL0     H80507   8.175  11.250   7.685  2.7584 -0.5946  0.4161
  610MOL0     H80508   8.289  10.845   7.938 -0.1144 -1.6461 -0.8518
  610MOL0     H80509   8.484  10.731   8.042 -0.4299 -1.6167 -1.3160
  610MOL0     H80510   8.851  10.818   8.081 -0.1205 -1.6046  0.2077
  610MOL0     H80511   8.796  10.927   7.947  1.1107  0.9686  0.5283
  610MOL0     H80512   8.961  10.674   7.896  1.8642  0.8273 -1.8811
  610MOL0     H80513   8.914  10.799   7.789 -0.3497  1.8040 -0.4882
  610MOL0     H80514   9.081  10.950   7.919  3.5189  0.3778  0.9208
  610MOL0     H80515   9.156  10.805   7.839  0.7964 -0.7328  1.1974
  610MOL0     H80516   9.067  10.811   8.131 -2.3631  4.4000 -2.9294
  610MOL0     H80517   9.150  10.676   8.050  1.8324  0.3073  0.4616
  610MOL0     H80518   9.465  10.905   8.163  1.1955 -1.3140 -1.4332
  610MOL0     H80519   8.727  10.815   7.708  0.2157  1.6910 -0.9773
  610MOL0     H80520   8.525  10.897   7.585 -2.4457  1.7227  0.8604
  611MOL0     O80521   7.075   3.279   6.983 -0.4311 -0.8288 -0.5374
  611MOL0     C80522   7.091   3.196   6.896  1.2202 -0.2013  0.5985
  611MOL0     O80523   6.999   3.161   6.801  0.0354 -0.7218  0.5813
  611MOL0     C80524   6.882   3.227   6.806  0.3143 -0.5057 -0.3523
  611MOL0     C80525   6.786   3.221   6.914 -0.0318 -0.2699  0.3179
  611MOL0     C80526   6.656   3.280   6.895 -0.2789  0.3785  0.2361
  611MOL0     C80527   6.624   3.350   6.776  0.5351 -0.6422 -0.4052
  611MOL0     O80528   6.501   3.408   6.764  0.0908  0.6366 -0.4972
  611MOL0     C80529   6.421   3.430   6.882  0.6716 -0.5062  0.2528
  611MOL0     C80530   6.289   3.478   6.826  0.7419 -0.3879 -0.2930
  611MOL0     C80531   6.181   3.492   6.929 -0.2677 -0.5998  0.6480
  611MOL0     C80532   6.051   3.508   6.850  0.4949  0.1943 -0.2574
  611MOL0     C80533   5.923   3.519   6.930 -0.5170  0.7206 -0.5348
  611MOL0     C80534   5.886   3.399   7.014 -0.3744  0.4883  0.0580
  611MOL0     C80535   5.748   3.409   7.080  0.4637  0.7290 -0.5980
  611MOL0     C80536   5.715   3.293   7.162 -0.4812  0.8391  0.1790
  611MOL0     N80537   5.599   3.300   7.246 -0.9485  0.0931  0.4149
  611MOL0     C80538   5.488   3.235   7.231  0.8112  0.0390 -0.6023
  611MOL0     C80539   5.420   3.260   7.348  0.3397  0.6936  0.4668
  611MOL0     C80540   5.287   3.204   7.380 -0.2628  0.1495  0.0270
  611MOL0     C80541   5.281   3.051   7.349  0.4345  0.0007  0.5309
  611MOL0     C80542   5.141   2.999   7.371 -0.3481  0.1229 -0.6083
  611MOL0     C80543   5.113   2.944   7.516 -0.6547  0.0743  0.3013
  611MOL0     O80544   4.990   2.877   7.514 -0.1440 -0.1441 -0.1027
  611MOL0     C80545   4.955   2.814   7.630 -0.0116 -0.6627  0.2175
  611MOL0     C80546   4.992   2.862   7.755  1.0344 -0.6516  0.2567
  611MOL0     C80547   4.926   2.800   7.866 -0.5229 -0.1914 -1.1204
  611MOL0     C80548   4.838   2.685   7.857 -0.1571  0.2069  0.1713
  611MOL0     C80549   4.768   2.627   7.974 -0.8022  0.1927  0.8085
  611MOL0     O80550   4.799   2.674   8.095 -0.5072  0.3257 -0.0617
  611MOL0     C80551   4.732   2.609   8.194 -0.2138 -0.3017  0.0947
  611MOL0     C80552   4.795   2.504   8.263  0.8762 -0.7608 -0.7508
  611MOL0     C80553   4.724   2.440   8.361 -0.0343  0.6272 -0.9177
  611MOL0     C80554   4.596   2.467   8.399  0.0949 -0.2282 -0.3624
  611MOL0     O80555   4.527   2.383   8.496  0.3065  0.8739 -0.1773
  611MOL0     C80556   4.560   2.237   8.507 -0.6582 -0.5569  0.2410
  611MOL0     C80557   4.550   2.159   8.374 -0.3810  0.7617  0.4254
  611MOL0     C80558   4.428   2.082   8.331 -0.1574 -0.0735  0.4231
  611MOL0     C80559   4.295   2.155   8.326 -0.2195 -0.7615 -0.0019
  611MOL0     C80560   4.175   2.058   8.329  0.6685 -0.9547  0.1912
  611MOL0     C80561   4.035   2.139   8.312 -0.2044 -0.2889 -0.6589
  611MOL0     C80562   3.918   2.047   8.303 -0.4240  1.2222 -0.2809
  611MOL0     C80563   3.911   1.946   8.421 -1.0353 -0.2253  0.2240
  611MOL0    Cl80564   3.761   1.843   8.384  0.3481  0.4446  0.8058
  611MOL0     C80565   4.535   2.568   8.336  0.0156 -0.2486 -0.7118
  611MOL0     C80566   4.602   2.646   8.235 -0.1794  0.1927 -0.1457
  611MOL0     O80567   4.686   2.538   7.959 -0.0317  0.1225  0.7453
  611MOL0     C80568   4.806   2.640   7.733 -0.2922  0.0265  0.1980
  611MOL0     C80569   4.867   2.710   7.623  0.1090 -0.1898  0.4909
  611MOL0     N80570   5.497   3.332   7.430 -0.8814  0.5911  0.4074
  611MOL0     N80571   5.603   3.368   7.368 -0.6132  1.0777  0.5939
  611MOL0     C80572   6.717   3.354   6.674  0.0013  0.2782  0.0097
  611MOL0     C80573   6.840   3.291   6.690  0.4697  0.4795  0.2641
  611MOL0     C80574   7.222   3.123   6.889  0.6490  0.2473  0.5861
  611MOL0     C80575   7.333   3.178   6.946 -0.4331  0.3737  0.2658
  611MOL0     C80576   7.453   3.123   6.944 -0.7611  0.6839  0.3250
  611MOL0     C80577   7.474   2.993   6.890 -0.8268 -0.6034 -0.5000
  611MOL0     O80578   7.588   2.918   6.884 -0.5564  0.4008  0.3187
  611MOL0     C80579   7.718   2.976   6.922 -0.4263  0.2529  0.3922
  611MOL0     C80580   7.793   3.055   6.814 -0.4907 -0.1516 -0.3839
  611MOL0     C80581   7.909   3.142   6.876 -0.0064 -0.0692 -0.9401
  611MOL0     C80582   8.012   3.198   6.780 -0.7008 -1.1233 -0.4246
  611MOL0     C80583   7.974   3.323   6.716 -0.8120  0.5630  0.1106
  611MOL0     C80584   7.921   3.421   6.669  0.0263 -0.0277 -0.1219
  611MOL0     C80585   7.364   2.933   6.824 -0.0245 -0.6521 -0.9402
  611MOL0     C80586   7.237   2.998   6.827 -0.4769  0.5888  0.3875
  611MOL0     H80587   6.811   3.164   7.003  1.3175  0.8434  0.6971
  611MOL0     H80588   6.591   3.288   6.981 -1.2721 -0.4406 -0.4166
  611MOL0     H80589   6.466   3.500   6.954  1.4254  0.9705 -1.5554
  611MOL0     H80590   6.391   3.336   6.929  1.6783 -1.3099 -0.6315
  611MOL0     H80591   6.261   3.401   6.753 -1.1778 -1.3680  1.4047
  611MOL0     H80592   6.289   3.561   6.754 -2.5286  0.3694  0.4369
  611MOL0     H80593   6.199   3.586   6.982  0.2071 -0.8370  0.9132
  611MOL0     H80594   6.177   3.408   7.000  0.5487  0.4927  2.0443
  611MOL0     H80595   6.050   3.602   6.795 -2.5593 -0.5188 -1.6238
  611MOL0     H80596   6.030   3.433   6.774  0.5051  1.2684 -1.3446
  611MOL0     H80597   5.834   3.544   6.872  0.2033 -0.9990 -2.4867
  611MOL0     H80598   5.941   3.603   6.998 -1.3969  1.3839 -1.1122
  611MOL0     H80599   5.964   3.389   7.090 -0.6648  0.2438  0.3267
  611MOL0     H80600   5.878   3.309   6.953 -0.2719 -0.1908  1.0184
  611MOL0     H80601   5.754   3.495   7.147  1.9699 -1.0434  1.6808
  611MOL0     H80602   5.667   3.428   7.010  1.7247  1.4553 -1.9306
  611MOL0     H80603   5.800   3.275   7.229  0.1229 -0.4190 -0.8753
  611MOL0     H80604   5.716   3.202   7.102  0.7608  1.1714 -0.3558
  611MOL0     H80605   5.456   3.178   7.145  2.8792 -0.6923 -0.9402
  611MOL0     H80606   5.215   3.269   7.330  2.2927  2.1245 -1.3464
  611MOL0     H80607   5.263   3.215   7.486 -0.6952 -2.5499  0.2928
  611MOL0     H80608   5.343   2.989   7.416 -0.2142 -0.3147  0.8455
  611MOL0     H80609   5.324   3.022   7.253  2.3659  1.5324  0.8784
  611MOL0     H80610   5.069   3.078   7.347  1.1423  0.7928 -3.2479
  611MOL0     H80611   5.115   2.921   7.299 -2.9648  0.9336 -0.6540
  611MOL0     H80612   5.115   3.030   7.584 -0.2806  0.1445  0.2067
  611MOL0     H80613   5.191   2.874   7.547 -1.3467 -0.4817  0.7980
  611MOL0     H80614   5.057   2.948   7.769 -1.0775  1.4172 -1.7020
  611MOL0     H80615   4.959   2.843   7.960  2.4350 -3.0048 -0.7014
  611MOL0     H80616   4.901   2.480   8.256  1.9497  2.2444  2.3075
  611MOL0     H80617   4.774   2.374   8.431 -0.6369 -1.2303 -2.1884
  611MOL0     H80618   4.500   2.198   8.590 -2.0841  0.2737 -0.3635
  611MOL0     H80619   4.665   2.226   8.536 -0.7881 -2.8150  0.0269
  611MOL0     H80620   4.635   2.090   8.372 -1.2100 -0.3450  1.3797
  611MOL0     H80621   4.580   2.230   8.297 -0.3252  1.1003  0.7602
  611MOL0     H80622   4.400   2.002   8.401  0.0213  0.4110  1.0500
  611MOL0     H80623   4.443   2.028   8.237 -3.2779  1.9772 -1.4233
  611MOL0     H80624   4.292   2.227   8.407 -0.6471  0.9367 -1.4604
  611MOL0     H80625   4.301   2.205   8.229  1.0282 -2.3446 -0.8045
  611MOL0     H80626   4.170   2.016   8.430  0.8859  0.6001  0.8851
  611MOL0     H80627   4.181   1.981   8.251  0.4457 -2.1600  1.3269
  611MOL0     H80628   4.042   2.195   8.218 -0.4370 -0.0368 -0.5245
  611MOL0     H80629   4.026   2.207   8.397 -0.1570  1.8281 -2.2592
  611MOL0     H80630   3.823   2.100   8.294 -0.9282  0.2395 -0.9894
  611MOL0     H80631   3.938   1.999   8.206  1.1525  1.4563 -0.0960
  611MOL0     H80632   3.897   2.012   8.506  1.2166 -1.3882  1.5949
  611MOL0     H80633   3.998   1.880   8.423 -0.2793  0.6331 -1.6627
  611MOL0     H80634   4.437   2.600   8.369 -0.4741 -1.6918 -0.7133
  611MOL0     H80635   4.550   2.721   8.175  1.7983  0.6997 -1.3358
  611MOL0     H80636   4.755   2.547   7.712  2.2161 -0.9833 -2.0913
  611MOL0     H80637   4.840   2.671   7.525 -1.6836  0.1747  0.8171
  611MOL0     H80638   6.690   3.403   6.581 -0.4707  1.4275  0.7299
  611MOL0     H80639   6.903   3.296   6.602  2.5718 -0.6613  1.6364
  611MOL0     H80640   7.325   3.267   7.008 -0.2870  0.4075  0.2360
  611MOL0     H80641   7.538   3.161   7.001  0.3499  0.6391 -1.2369
  611MOL0     H80642   7.781   2.899   6.967  0.1957  0.8220  0.5221
  611MOL0     H80643   7.708   3.055   6.997  4.4663  0.1279  1.5190
  611MOL0     H80644   7.815   2.987   6.731 -0.4371 -2.1784  1.1992
  611MOL0     H80645   7.727   3.130   6.770 -1.3734  0.0838  1.2459
  611MOL0     H80646   7.966   3.070   6.936 -1.5079  0.3889  1.1512
  611MOL0     H80647   7.862   3.226   6.929 -3.2476 -0.1077 -3.4374
  611MOL0     H80648   8.099   3.222   6.842 -0.8009 -0.9396 -0.3567
  611MOL0     H80649   8.042   3.125   6.704  1.7776 -0.8590  0.2105
  611MOL0     H80650   7.860   3.498   6.626 -2.2775 -1.3297  0.6134
  611MOL0     H80651   7.383   2.843   6.767  2.2740 -1.0347  0.3093
  611MOL0     H80652   7.153   2.950   6.778 -2.2894  0.9455  2.9083
  612MOL0     O80653   8.477   8.123   4.312  0.0975  0.0754  0.7570
  612MOL0     C80654   8.573   8.047   4.281  0.0411  0.2126  0.1288
  612MOL0     O80655   8.577   7.910   4.297  0.5211 -0.5552  0.4074
  612MOL0     C80656   8.458   7.846   4.328 -0.2647 -0.5601  0.0607
  612MOL0     C80657   8.338   7.859   4.250 -0.6465 -0.1105  0.4102
  612MOL0     C80658   8.221   7.802   4.289 -0.7490  0.5210  0.8410
  612MOL0     C80659   8.219   7.735   4.416 -0.0852 -0.3021 -0.2934
  612MOL0     O80660   8.102   7.682   4.467 -0.4766 -0.6824 -0.0072
  612MOL0     C80661   7.992   7.626   4.395 -0.8515  0.1760  0.4809
  612MOL0     C80662   7.853   7.655   4.466 -0.7605 -0.6818 -0.1690
  612MOL0     C80663   7.843   7.585   4.598 -0.2381  0.3887 -0.5016
  612MOL0     C80664   7.708   7.626   4.679 -0.0184 -0.5281 -0.0157
  612MOL0     C80665   7.698   7.538   4.806  1.2214 -0.2824  0.2756
  612MOL0     C80666   7.597   7.588   4.908  0.6149 -0.0499 -0.3829
  612MOL0     C80667   7.456   7.593   4.850  0.3793  0.2874  0.0235
  612MOL0     C80668   7.360   7.677   4.946  0.2479 -1.3756  0.0438
  612MOL0     N80669   7.239   7.601   4.998  0.4104  0.1355 -0.1981
  612MOL0     C80670   7.136   7.557   4.925  0.3305  0.2652 -0.1677
  612MOL0     C80671   7.039   7.512   5.012 -0.7004 -0.3849  0.4561
  612MOL0     C80672   6.914   7.454   4.974  0.0841 -0.0238 -0.3256
  612MOL0     C80673   6.826   7.429   5.097  0.1255  0.3540  1.2271
  612MOL0     C80674   6.787   7.550   5.179  0.4671  0.2191  0.0997
  612MOL0     C80675   6.672   7.520   5.272  0.8528  0.5058  1.1347
  612MOL0     O80676   6.556   7.501   5.192  0.4564 -0.6658 -0.9879
  612MOL0     C80677   6.439   7.446   5.242 -0.4818 -0.4752 -0.7097
  612MOL0     C80678   6.328   7.524   5.256 -0.0137  0.0078  0.1964
  612MOL0     C80679   6.200   7.473   5.285 -0.3833  0.1962 -0.3187
  612MOL0     C80680   6.194   7.337   5.322 -0.4453 -0.1970 -0.1004
  612MOL0     C80681   6.071   7.277   5.361 -0.1301 -0.1049  0.0507
  612MOL0     O80682   6.064   7.186   5.456 -0.1553  0.0238 -0.6244
  612MOL0     C80683   5.946   7.129   5.487  0.2117 -0.3526  0.0007
  612MOL0     C80684   5.919   6.997   5.444 -0.3423 -0.5668 -0.3103
  612MOL0     C80685   5.805   6.932   5.480  0.4076 -0.3143 -0.2345
  612MOL0     C80686   5.716   6.985   5.573  0.0046  0.3438  0.1737
  612MOL0     O80687   5.605   6.927   5.622 -0.3156  0.3397 -0.2818
  612MOL0     C80688   5.574   6.791   5.574 -0.0882 -0.7144 -0.2723
  612MOL0     C80689   5.446   6.724   5.625 -0.0077 -0.3767 -0.5531
  612MOL0     C80690   5.461   6.572   5.603  0.7684  0.6007 -0.6924
  612MOL0     C80691   5.422   6.536   5.456  0.0411  0.0717  0.7726
  612MOL0     C80692   5.367   6.394   5.449  0.5606 -0.1233 -0.5700
  612MOL0     C80693   5.332   6.358   5.301 -0.4424 -1.0915 -0.1848
  612MOL0     C80694   5.260   6.219   5.289 -0.8750 -0.0172  0.7631
  612MOL0     C80695   5.367   6.104   5.293  0.6909  1.3161 -0.6309
  612MOL0    Cl80696   5.318   5.940   5.327 -0.3005 -0.1503 -0.2577
  612MOL0     C80697   5.752   7.105   5.628  0.5717 -0.3536  0.3663
  612MOL0     C80698   5.865   7.179   5.585  0.3322 -1.0133  0.1697
  612MOL0     O80699   5.979   7.322   5.290  0.0202 -0.1345 -0.1278
  612MOL0     C80700   6.309   7.252   5.324  0.5165  0.3202  0.6310
  612MOL0     C80701   6.432   7.312   5.272  0.0302 -0.0487 -0.2905
  612MOL0     N80702   7.098   7.525   5.141  0.4305 -0.0857  0.6128
  612MOL0     N80703   7.211   7.580   5.131  0.2269 -0.7012 -0.9800
  612MOL0     C80704   8.337   7.719   4.486 -0.1061  0.9135  0.3248
  612MOL0     C80705   8.460   7.774   4.443 -0.2927  0.5003  0.3331
  612MOL0     C80706   8.702   8.107   4.227  1.4564 -1.0950  0.0185
  612MOL0     C80707   8.727   8.249   4.219 -1.4798 -0.1944 -0.6516
  612MOL0     C80708   8.847   8.297   4.166 -1.2514  0.0542  0.1395
  612MOL0     C80709   8.949   8.215   4.120 -0.7649 -0.0147  0.8977
  612MOL0     O80710   9.068   8.275   4.072  0.5343 -0.4988 -0.1403
  612MOL0     C80711   9.181   8.192   4.030 -0.2520 -0.7583 -0.8389
  612MOL0     C80712   9.187   8.195   3.875 -0.8465 -0.1735 -0.4510
  612MOL0     C80713   9.289   8.082   3.828 -0.4229  1.2827  0.8234
  612MOL0     C80714   9.347   8.090   3.686 -0.1992  0.1821 -0.7944
  612MOL0     C80715   9.397   8.225   3.650 -0.2944  0.1178  1.1298
  612MOL0     C80716   9.434   8.333   3.597  0.4696  0.6751  0.2291
  612MOL0     C80717   8.928   8.076   4.136  0.2976 -0.5140  0.0576
  612MOL0     C80718   8.810   8.029   4.195  0.3269  0.4340  0.3609
  612MOL0     H80719   8.327   7.921   4.161 -0.3784  0.9916  1.1258
  612MOL0     H80720   8.138   7.807   4.220  1.9194 -0.0093 -2.6873
  612MOL0     H80721   8.006   7.521   4.369 -0.1013 -0.2547  2.5065
  612MOL0     H80722   7.991   7.681   4.300 -0.5517 -1.9617 -0.8291
  612MOL0     H80723   7.772   7.632   4.396  0.1284 -1.6350 -0.9069
  612MOL0     H80724   7.838   7.760   4.493 -0.9322 -0.2438 -1.8549
  612MOL0     H80725   7.931   7.598   4.662  0.6470  1.7356 -1.9307
  612MOL0     H80726   7.840   7.477   4.581 -1.7104 -0.4887  4.0441
  612MOL0     H80727   7.713   7.733   4.701  0.8453 -0.2810 -1.3258
  612MOL0     H80728   7.615   7.623   4.622 -0.5036  1.6857  0.5375
  612MOL0     H80729   7.794   7.538   4.858  0.7471 -2.0084  1.2239
  612MOL0     H80730   7.676   7.432   4.791  1.4597 -0.1461 -1.1975
  612MOL0     H80731   7.626   7.689   4.938 -0.4251 -0.0984  0.8797
  612MOL0     H80732   7.597   7.527   4.999  1.1218  2.2629  1.2544
  612MOL0     H80733   7.461   7.646   4.754  0.4619  1.1134  0.4812
  612MOL0     H80734   7.419   7.491   4.839  0.9732 -0.0960  1.4599
  612MOL0     H80735   7.324   7.764   4.890  1.6834 -1.7010 -1.4611
  612MOL0     H80736   7.416   7.726   5.026 -0.7252  1.7259 -0.9960
  612MOL0     H80737   7.134   7.578   4.818  0.2148  0.5458 -0.1133
  612MOL0     H80738   6.918   7.364   4.911 -1.0427  0.3391 -0.9310
  612MOL0     H80739   6.865   7.531   4.914 -0.6890  1.4014  2.0314
  612MOL0     H80740   6.873   7.360   5.168  0.5248  1.7866  2.4118
  612MOL0     H80741   6.734   7.381   5.060  0.6570 -1.1406  1.7533
  612MOL0     H80742   6.868   7.594   5.237  1.5405  1.4138 -2.1648
  612MOL0     H80743   6.757   7.624   5.104 -0.1587  0.4667  0.5846
  612MOL0     H80744   6.656   7.601   5.344  2.3384  1.3577  0.5585
  612MOL0     H80745   6.707   7.429   5.322  2.2550  1.5643  2.1706
  612MOL0     H80746   6.329   7.630   5.232  3.4911 -0.0127 -0.2805
  612MOL0     H80747   6.102   7.519   5.284  0.2543  1.6819  1.5443
  612MOL0     H80748   5.989   6.953   5.374 -0.8312  0.5066 -1.5293
  612MOL0     H80749   5.793   6.829   5.447  1.5899 -2.1731  4.2443
  612MOL0     H80750   5.665   6.734   5.595  0.7479 -0.2815 -2.4447
  612MOL0     H80751   5.551   6.797   5.468  2.3519 -3.5024 -1.0947
  612MOL0     H80752   5.355   6.754   5.571 -1.0792  0.8020  1.7531
  612MOL0     H80753   5.436   6.727   5.734 -0.4764 -0.5204 -0.5877
  612MOL0     H80754   5.397   6.525   5.678  2.0722 -3.6732 -1.9689
  612MOL0     H80755   5.565   6.553   5.629  1.1178  2.6693 -0.3993
  612MOL0     H80756   5.339   6.598   5.420 -0.3987 -1.9398 -1.9908
  612MOL0     H80757   5.511   6.547   5.393 -0.9278  0.6061 -0.5374
  612MOL0     H80758   5.270   6.389   5.499 -1.0655  1.5230 -3.3626
  612MOL0     H80759   5.436   6.318   5.489 -1.4974 -2.0506 -0.5063
  612MOL0     H80760   5.422   6.349   5.239 -1.1076  0.6786 -1.5188
  612MOL0     H80761   5.259   6.434   5.271  0.2509 -1.4249 -3.0564
  612MOL0     H80762   5.185   6.203   5.366  0.9961  1.6617  3.0850
  612MOL0     H80763   5.215   6.210   5.189  2.5317  0.8761 -1.0246
  612MOL0     H80764   5.441   6.129   5.370  0.4035 -0.0768  0.1392
  612MOL0     H80765   5.423   6.111   5.200 -1.6838  3.4909 -2.0298
  612MOL0     H80766   5.679   7.150   5.695 -0.9885 -1.8501 -0.2446
  612MOL0     H80767   5.894   7.275   5.628 -0.1890  0.1584 -1.9773
  612MOL0     H80768   6.291   7.146   5.338  2.5392 -0.3406 -1.3696
  612MOL0     H80769   6.517   7.248   5.247  0.3252 -0.6504  2.0520
  612MOL0     H80770   8.338   7.665   4.580  0.8035  2.6168  1.3572
  612MOL0     H80771   8.550   7.759   4.501  0.0460  0.5853 -0.1764
  612MOL0     H80772   8.646   8.318   4.238 -2.6914 -1.3839 -1.2737
  612MOL0     H80773   8.866   8.402   4.146 -3.7270  0.2274 -1.6720
  612MOL0     H80774   9.180   8.092   4.074 -1.5398  0.6195  2.5418
  612MOL0     H80775   9.274   8.245   4.057 -0.6547 -0.6001  0.2506
  612MOL0     H80776   9.088   8.166   3.838  0.0130 -2.0432 -1.4574
  612MOL0     H80777   9.219   8.294   3.844 -0.1968 -0.3168 -0.2494
  612MOL0     H80778   9.236   7.986   3.838 -3.5602  3.0080  2.3867
  612MOL0     H80779   9.379   8.084   3.890  0.4761  1.5185 -0.4723
  612MOL0     H80780   9.432   8.023   3.673  2.0727  3.0557 -1.5765
  612MOL0     H80781   9.260   8.070   3.622 -0.4774  1.2620 -0.7725
  612MOL0     H80782   9.472   8.421   3.550  1.9361 -1.1702 -2.2408
  612MOL0     H80783   9.006   8.006   4.108  0.2788 -1.0290  1.2241
  612MOL0     H80784   8.794   7.922   4.197  0.3504  0.3293 -2.2543
  613MOL0     O80785   9.253  11.189   8.617  0.4128 -0.2353  0.7452
  613MOL0     C80786   9.317  11.187   8.506 -0.5554  0.3850  0.6316
  613MOL0     O80787   9.275  11.229   8.379 -0.2434 -1.1145  0.0930
  613MOL0     C80788   9.142  11.251   8.369 -0.1142  0.1586 -1.0331
  613MOL0     C80789   9.068  11.338   8.447  0.9548 -0.4258  0.5654
  613MOL0     C80790   8.930  11.358   8.424 -0.0299 -0.2481 -0.3955
  613MOL0     C80791   8.867  11.282   8.323 -0.1017  1.0063  1.0024
  613MOL0     O80792   8.731  11.286   8.298  0.7602  0.0528 -0.2125
  613MOL0     C80793   8.646  11.395   8.339 -0.7151  0.5920 -0.0698
  613MOL0     C80794   8.529  11.394   8.246  0.2179  0.4458  0.5944
  613MOL0     C80795   8.414  11.489   8.303 -0.6008 -0.8354 -0.0113
  613MOL0     C80796   8.293  11.492   8.212 -0.8755  0.3716 -0.4568
  613MOL0     C80797   8.276  11.627   8.147  0.1072 -0.0599 -0.2423
  613MOL0     C80798   8.178  11.625   8.032 -0.7038  0.2535 -0.0770
  613MOL0     C80799   8.027  11.651   8.061  0.5926 -0.9799 -0.0847
  613MOL0     C80800   7.956  11.551   8.156  0.1127  0.4526 -0.3573
  613MOL0     N80801   7.814  11.579   8.177 -0.1411  0.8383  0.0577
  613MOL0     C80802   7.735  11.672   8.129  0.0900 -0.4674 -0.3393
  613MOL0     C80803   7.608  11.643   8.155 -0.2933  0.2630  0.3716
  613MOL0     C80804   7.486  11.723   8.111 -0.1958 -0.1471 -0.1167
  613MOL0     C80805   7.412  11.759   8.240 -0.0353 -0.5104 -0.1026
  613MOL0     C80806   7.321  11.885   8.245  0.0233 -0.1958  0.0806
  613MOL0     C80807   7.183  11.858   8.175 -0.6203 -0.6946 -0.3502
  613MOL0     O80808   7.112  11.972   8.230  0.4217 -0.3360 -0.1741
  613MOL0     C80809   6.975  11.972   8.190 -0.5339 -0.9403  0.1470
  613MOL0     C80810   6.904  11.870   8.124  0.2089 -1.4499  0.3378
  613MOL0     C80811   6.771  11.879   8.102 -0.3258  0.0534 -0.0825
  613MOL0     C80812   6.698  11.983   8.156  0.0808  0.2355 -1.4388
  613MOL0     C80813   6.551  11.992   8.136 -0.4726  0.0855 -1.0674
  613MOL0     O80814   6.485  11.885   8.073  0.2023 -0.0103  0.1471
  613MOL0     C80815   6.359  11.922   8.033 -0.3809 -0.8494  0.7773
  613MOL0     C80816   6.335  12.035   7.953  0.2134 -0.2546  0.7387
  613MOL0     C80817   6.198  12.070   7.930  0.2207  0.6445  0.1206
  613MOL0     C80818   6.087  11.988   7.959 -0.1470 -0.5314  1.0545
  613MOL0     O80819   5.966  12.044   7.929  0.5751  0.4797  0.1518
  613MOL0     C80820   5.872  11.964   7.854 -0.1721  0.3365  0.2544
  613MOL0     C80821   5.729  12.034   7.850 -0.7133  0.1173 -0.3447
  613MOL0     C80822   5.720  12.162   7.761  0.3296  0.1092  0.2648
  613MOL0     C80823   5.734  12.283   7.854 -0.6154  0.3028  0.2147
  613MOL0     C80824   5.718  12.420   7.782  0.5914 -0.7778 -0.5665
  613MOL0     C80825   5.800  12.454   7.658  0.2927 -0.9800  0.4707
  613MOL0     C80826   5.946  12.457   7.699  0.0078  0.9548  0.3535
  613MOL0     C80827   5.972  12.588   7.773  0.5352  0.7372 -0.0325
  613MOL0    Cl80828   6.143  12.622   7.798 -0.6315  0.1994 -0.1152
  613MOL0     C80829   6.112  11.878   8.041  0.5114 -0.0295  0.1157
  613MOL0     C80830   6.244  11.847   8.075  0.5709 -0.5137  0.7720
  613MOL0     O80831   6.496  12.099   8.170  0.4406  0.0714  0.2410
  613MOL0     C80832   6.764  12.091   8.220  0.2813 -0.3560  0.1459
  613MOL0     C80833   6.902  12.084   8.232  0.0031  0.6659 -0.1097
  613MOL0     N80834   7.608  11.515   8.206 -0.8144 -0.0954 -0.1042
  613MOL0     N80835   7.725  11.481   8.233 -0.4221  0.5120 -0.0376
  613MOL0     C80836   8.940  11.197   8.236  0.0066  0.3571 -0.1828
  613MOL0     C80837   9.075  11.181   8.266 -0.3176 -0.2814  0.3738
  613MOL0     C80838   9.447  11.115   8.514 -0.5173 -0.6129  0.5939
  613MOL0     C80839   9.499  11.050   8.635  1.0204 -0.4279  0.5639
  613MOL0     C80840   9.605  10.965   8.634 -0.3446  0.4177  0.3271
  613MOL0     C80841   9.677  10.938   8.519  0.3323 -0.5475  0.1661
  613MOL0     O80842   9.793  10.870   8.518  0.3967  0.6861 -0.5957
  613MOL0     C80843   9.892  10.925   8.602  0.3350 -0.1250 -0.1560
  613MOL0     C80844   9.934  10.817   8.700 -0.5759  0.8670 -1.3953
  613MOL0     C80845  10.084  10.818   8.723  0.4717  0.3688  0.3223
  613MOL0     C80846  10.140  10.714   8.819 -0.1663  0.4137 -0.0661
  613MOL0     C80847  10.098  10.749   8.956  0.2561 -0.1670 -0.3503
  613MOL0     C80848  10.058  10.791   9.065  0.2539 -0.3010  0.2160
  613MOL0     C80849   9.628  10.999   8.404  0.3765 -0.7932 -0.2745
  613MOL0     C80850   9.519  11.087   8.401  0.0030  0.1181  0.0584
  613MOL0     H80851   9.117  11.401   8.521 -1.3035  3.1729 -0.7311
  613MOL0     H80852   8.889  11.429   8.496 -0.0122 -2.4494  1.9354
  613MOL0     H80853   8.698  11.491   8.336 -1.2696  0.8731 -1.7727
  613MOL0     H80854   8.621  11.383   8.445 -1.9108  3.8106  0.1358
  613MOL0     H80855   8.501  11.289   8.234 -0.0752  0.6544 -0.6541
  613MOL0     H80856   8.563  11.426   8.147  0.6020 -0.7467  0.3244
  613MOL0     H80857   8.447  11.593   8.319 -2.2233 -0.3041  0.0264
  613MOL0     H80858   8.386  11.452   8.402 -0.7154 -3.4204 -0.9493
  613MOL0     H80859   8.314  11.422   8.130  2.5986 -0.2426  0.7913
  613MOL0     H80860   8.200  11.468   8.264  0.4739  0.2866  2.0796
  613MOL0     H80861   8.372  11.663   8.109 -0.7192 -1.2254 -3.8706
  613MOL0     H80862   8.235  11.686   8.230  0.8843 -1.4578  1.1827
  613MOL0     H80863   8.212  11.538   7.975 -0.1590  0.6116 -0.3052
  613MOL0     H80864   8.214  11.696   7.956  1.0049  1.4493  1.7634
  613MOL0     H80865   8.023  11.754   8.099 -1.1362 -0.3565 -1.7925
  613MOL0     H80866   7.972  11.657   7.967 -1.0875  2.1149  0.9665
  613MOL0     H80867   8.011  11.552   8.250  1.1562 -4.5301 -0.6312
  613MOL0     H80868   7.955  11.449   8.116 -2.3749  1.0396 -2.0495
  613MOL0     H80869   7.766  11.758   8.070 -0.8200 -1.2963 -2.1032
  613MOL0     H80870   7.419  11.682   8.035  1.1755 -0.2474 -1.3097
  613MOL0     H80871   7.519  11.814   8.061 -2.9600  0.6151 -0.6990
  613MOL0     H80872   7.480  11.782   8.322 -0.6891  0.2047  0.2537
  613MOL0     H80873   7.348  11.673   8.264 -1.8156  0.1404 -2.1992
  613MOL0     H80874   7.308  11.900   8.352  0.8948 -1.9855  0.4747
  613MOL0     H80875   7.369  11.973   8.201  1.0099  0.9179  3.1830
  613MOL0     H80876   7.151  11.759   8.207  1.7860 -1.5136 -0.2888
  613MOL0     H80877   7.195  11.870   8.066  2.1459  2.2562  0.1320
  613MOL0     H80878   6.953  11.777   8.097  2.6058 -1.0587  2.9184
  613MOL0     H80879   6.719  11.801   8.048 -0.9856 -2.2256  3.4841
  613MOL0     H80880   6.419  12.097   7.925  1.9470 -2.9783 -0.4878
  613MOL0     H80881   6.171  12.157   7.872 -0.1005  0.2538 -0.3306
  613MOL0     H80882   5.854  11.872   7.911  0.5922 -0.2347 -0.3947
  613MOL0     H80883   5.898  11.929   7.754 -0.3917 -1.0442  0.6605
  613MOL0     H80884   5.719  12.055   7.957  4.4959  3.1502 -0.1216
  613MOL0     H80885   5.653  11.960   7.822 -0.4505 -1.4705  2.6586
  613MOL0     H80886   5.630  12.155   7.700  0.4247 -1.5593  0.2595
  613MOL0     H80887   5.802  12.176   7.690 -0.7408  3.1710 -0.5350
  613MOL0     H80888   5.648  12.289   7.923 -0.9505  2.4576 -0.3232
  613MOL0     H80889   5.828  12.284   7.910 -0.4055  1.9860 -0.1290
  613MOL0     H80890   5.733  12.505   7.850 -0.4535  2.7941 -4.3229
  613MOL0     H80891   5.615  12.410   7.745  0.1461  1.2069  0.0043
  613MOL0     H80892   5.766  12.542   7.603  1.4920 -1.4792 -1.1684
  613MOL0     H80893   5.779  12.381   7.579  2.1042  0.7687 -1.7860
  613MOL0     H80894   5.959  12.362   7.750 -1.5462  0.3996 -0.2345
  613MOL0     H80895   6.012  12.441   7.613 -0.3777  1.1493  0.0187
  613MOL0     H80896   5.924  12.596   7.871  3.9732  1.2953  1.7505
  613MOL0     H80897   5.930  12.672   7.717  0.2796  0.8328  0.2987
  613MOL0     H80898   6.020  11.829   8.069 -2.2750  3.9575 -1.2287
  613MOL0     H80899   6.255  11.759   8.137  2.3527 -0.5045  0.5369
  613MOL0     H80900   6.708  12.179   8.250 -1.1193 -0.9302 -0.6369
  613MOL0     H80901   6.946  12.173   8.277  1.6842 -0.6486  0.9744
  613MOL0     H80902   8.889  11.138   8.160 -1.3382 -0.8694  1.6054
  613MOL0     H80903   9.130  11.125   8.191  3.1589  2.8042  0.3005
  613MOL0     H80904   9.444  11.064   8.727 -0.5830  1.1602 -0.5609
  613MOL0     H80905   9.640  10.917   8.725 -0.4229  1.4638  0.9266
  613MOL0     H80906   9.852  11.016   8.649 -1.8658 -0.8213 -0.5985
  613MOL0     H80907   9.975  10.951   8.536 -0.1544 -1.3676 -1.2886
  613MOL0     H80908   9.885  10.825   8.798 -2.1798 -2.7131 -1.7664
  613MOL0     H80909   9.917  10.714   8.668  2.6946  0.2309 -1.4345
  613MOL0     H80910  10.130  10.917   8.739  1.2910  0.1835 -0.7794
  613MOL0     H80911  10.131  10.784   8.630 -0.4321 -2.2852  0.7595
  613MOL0     H80912  10.108  10.616   8.785 -2.5057  1.7232 -1.9762
  613MOL0     H80913  10.249  10.699   8.815  0.0176  1.6825 -0.3022
  613MOL0     H80914  10.018  10.829   9.157 -1.4350  1.5386 -1.1749
  613MOL0     H80915   9.691  10.986   8.316  0.4869 -0.3200 -0.2694
  613MOL0     H80916   9.503  11.131   8.304 -0.2702  0.4121  0.2345
  614MOL0     O80917   5.122   8.785   6.746  0.5557  0.1353  0.5095
  614MOL0     C80918   5.203   8.880   6.731 -0.7776 -0.4108  0.1200
  614MOL0     O80919   5.171   9.010   6.690  0.1643 -0.1771 -0.2811
  614MOL0     C80920   5.037   9.039   6.674 -0.7113 -0.1418 -0.1159
  614MOL0     C80921   4.980   9.128   6.768 -0.2795  0.2587  0.2705
  614MOL0     C80922   4.845   9.166   6.748  0.3225  0.0843  0.1997
  614MOL0     C80923   4.770   9.124   6.646  0.1079  0.5946  0.3065
  614MOL0     O80924   4.635   9.158   6.635 -0.0148 -0.4484 -0.3362
  614MOL0     C80925   4.565   9.126   6.513  0.8350  0.8349  0.4367
  614MOL0     C80926   4.421   9.189   6.528 -0.5052  0.4434 -0.5038
  614MOL0     C80927   4.331   9.134   6.649  0.3040 -0.2746  0.2037
  614MOL0     C80928   4.191   9.207   6.650 -0.1355  0.6779 -0.3284
  614MOL0     C80929   4.103   9.133   6.751  1.1780 -0.8992  0.6325
  614MOL0     C80930   3.974   9.215   6.780  0.2669  1.1760  0.3551
  614MOL0     C80931   3.893   9.149   6.903  0.0937 -0.0997 -0.3684
  614MOL0     C80932   3.780   9.251   6.946  0.3277  0.0042 -0.0551
  614MOL0     N80933   3.665   9.203   7.026  0.3194 -0.3613  0.0601
  614MOL0     C80934   3.569   9.129   6.971  0.2936 -0.6093 -0.2430
  614MOL0     C80935   3.482   9.107   7.072  0.5243  0.2138 -0.5723
  614MOL0     C80936   3.356   9.023   7.078  0.0445  0.1784  0.9576
  614MOL0     C80937   3.238   9.095   7.017  0.5466  1.0001 -0.3232
  614MOL0     C80938   3.119   8.993   7.017 -0.4344 -0.7642  0.4592
  614MOL0     C80939   2.980   9.069   6.999 -0.9346  0.8982 -0.7951
  614MOL0     O80940   2.885   9.049   7.109  0.7560  0.0460  0.0865
  614MOL0     C80941   2.749   9.075   7.107  0.2561  1.1680  0.3347
  614MOL0     C80942   2.661   9.069   6.994  0.9753  1.2090  0.4106
  614MOL0     C80943   2.527   9.082   7.008  0.3586 -0.3119  0.3759
  614MOL0     C80944   2.465   9.107   7.134  0.2295  0.3002  0.5081
  614MOL0     C80945   2.325   9.125   7.146  1.2324 -1.4803  0.9417
  614MOL0     O80946   2.279   9.188   7.262 -0.1719 -0.7701 -0.3676
  614MOL0     C80947   2.154   9.234   7.280  0.1687  0.4504 -0.4900
  614MOL0     C80948   2.099   9.247   7.407  0.0258  0.2363 -0.4480
  614MOL0     C80949   1.979   9.306   7.429 -0.3174 -0.5695 -0.4527
  614MOL0     C80950   1.905   9.379   7.334  0.9008  0.1422  0.4373
  614MOL0     O80951   1.800   9.465   7.358 -0.0162 -0.0213 -1.1392
  614MOL0     C80952   1.740   9.469   7.485  0.5537 -0.6877  0.1754
  614MOL0     C80953   1.607   9.539   7.474 -0.0108 -0.0098  0.4047
  614MOL0     C80954   1.503   9.459   7.380  0.7000 -0.0461  0.3492
  614MOL0     C80955   1.374   9.536   7.355  0.2712  0.4730  0.4275
  614MOL0     C80956   1.288   9.447   7.264  0.7360  0.4624  1.0068
  614MOL0     C80957   1.164   9.535   7.216 -0.1827 -0.8910 -0.1176
  614MOL0     C80958   1.085   9.450   7.124  0.3774  0.0262  0.0992
  614MOL0     C80959   0.983   9.546   7.063  0.7841  0.1807  0.1558
  614MOL0    Cl80960   0.896   9.645   7.199 -0.0111 -0.0817  0.1026
  614MOL0     C80961   1.966   9.376   7.203  0.3423  0.2353  0.6864
  614MOL0     C80962   2.085   9.304   7.180  0.9025 -0.8111  0.0861
  614MOL0     O80963   2.254   9.095   7.052 -0.0208 -0.0818 -0.5108
  614MOL0     C80964   2.550   9.111   7.246 -0.9941  0.6051  0.0662
  614MOL0     C80965   2.692   9.097   7.232  0.2603 -0.2592  0.8935
  614MOL0     N80966   3.529   9.181   7.185  0.2064  0.8320  0.8449
  614MOL0     N80967   3.628   9.240   7.147  0.0180 -0.5130  0.4727
  614MOL0     C80968   4.829   9.027   6.559  0.4261 -0.1027 -0.3075
  614MOL0     C80969   4.959   8.989   6.568 -0.4473  0.7459 -1.0823
  614MOL0     C80970   5.343   8.853   6.752 -0.2839 -0.4610 -0.0315
  614MOL0     C80971   5.436   8.965   6.753  0.0721  0.6695  0.7593
  614MOL0     C80972   5.576   8.945   6.769  0.3628  0.3351 -0.5194
  614MOL0     C80973   5.620   8.811   6.790  0.4976 -1.1042 -0.1007
  614MOL0     O80974   5.755   8.804   6.811 -0.0057 -0.2123 -0.7419
  614MOL0     C80975   5.808   8.676   6.837  0.4400 -0.2564 -0.2126
  614MOL0     C80976   5.957   8.676   6.864  0.0773  0.1304  0.3115
  614MOL0     C80977   5.978   8.673   7.015  1.2005 -0.3096  0.2814
  614MOL0     C80978   6.133   8.659   7.058 -0.0911 -0.1718  0.2375
  614MOL0     C80979   6.215   8.779   7.021  0.7838  0.4488 -0.2863
  614MOL0     C80980   6.272   8.884   6.996 -0.3080 -0.0151 -0.2985
  614MOL0     C80981   5.531   8.703   6.784  0.1815 -0.2432 -0.0798
  614MOL0     C80982   5.397   8.729   6.760 -0.6924  0.2194  0.0681
  614MOL0     H80983   5.033   9.151   6.860  1.3320 -1.6106 -0.1324
  614MOL0     H80984   4.799   9.234   6.819  3.1953  0.5231  1.8057
  614MOL0     H80985   4.558   9.019   6.492  0.1009  0.3107  3.0633
  614MOL0     H80986   4.630   9.174   6.438 -0.5767  1.5936 -0.3576
  614MOL0     H80987   4.376   9.184   6.429 -0.5313  1.0928 -0.5287
  614MOL0     H80988   4.433   9.294   6.555  0.9541  0.2168 -0.1992
  614MOL0     H80989   4.377   9.127   6.748 -0.0230 -0.8718  0.3166
  614MOL0     H80990   4.326   9.029   6.618  0.0478  0.3138 -1.8890
  614MOL0     H80991   4.196   9.313   6.676  0.7301  1.4839 -3.3470
  614MOL0     H80992   4.155   9.198   6.547  0.8907  1.1084 -0.7452
  614MOL0     H80993   4.165   9.115   6.840 -1.2767 -1.3968  2.3411
  614MOL0     H80994   4.075   9.036   6.710 -0.7494  0.1787 -0.7339
  614MOL0     H80995   3.913   9.220   6.689  0.4943  1.2493  0.2052
  614MOL0     H80996   4.009   9.311   6.818  0.3942  0.7697  1.2772
  614MOL0     H80997   3.863   9.045   6.891 -0.3972 -0.4190  2.7749
  614MOL0     H80998   3.962   9.142   6.987 -1.1148  1.3815  0.8171
  614MOL0     H80999   3.738   9.274   6.847  2.9646  0.2864 -1.1760
  614MOL0     H81000   3.829   9.336   6.994  0.1533 -0.3685  0.7852
  614MOL0     H81001   3.545   9.079   6.878 -1.1674 -0.0303 -0.2072
  614MOL0     H81002   3.353   8.992   7.183  0.5188 -1.5078  0.5052
  614MOL0     H81003   3.376   8.927   7.028 -2.5242  0.7207 -1.3072
  614MOL0     H81004   3.269   9.124   6.916  3.1104  0.5926  0.2927
  614MOL0     H81005   3.216   9.177   7.085  3.0734 -0.2687  2.2030
  614MOL0     H81006   3.139   8.921   6.937  1.8543 -2.2746  2.2422
  614MOL0     H81007   3.124   8.935   7.109 -2.9190 -1.8728 -0.0281
  614MOL0     H81008   2.938   9.040   6.902  0.5564  2.4064 -1.9410
  614MOL0     H81009   3.005   9.175   6.987 -0.8700  0.6715 -3.0221
  614MOL0     H81010   2.691   9.050   6.891 -2.2462  0.5806 -0.5263
  614MOL0     H81011   2.462   9.070   6.922 -0.0001 -2.9271  0.9244
  614MOL0     H81012   2.148   9.197   7.490 -2.0559 -0.9918  0.1029
  614MOL0     H81013   1.940   9.299   7.530  1.2517  1.2544  0.3462
  614MOL0     H81014   1.799   9.533   7.552  0.4291 -1.7358  1.3312
  614MOL0     H81015   1.723   9.373   7.534  1.3280 -0.6540  0.5331
  614MOL0     H81016   1.625   9.640   7.434 -0.4114  0.9417  2.4738
  614MOL0     H81017   1.567   9.554   7.574  3.1117  1.3390  1.5650
  614MOL0     H81018   1.475   9.361   7.421  1.0145 -0.1669  0.2802
  614MOL0     H81019   1.554   9.446   7.283  0.7407  1.8947  0.0856
  614MOL0     H81020   1.321   9.553   7.449 -1.9293  0.2086 -0.6892
  614MOL0     H81021   1.381   9.636   7.311 -3.2239  0.3387 -0.7949
  614MOL0     H81022   1.249   9.364   7.324  1.2431 -0.6461 -0.1595
  614MOL0     H81023   1.351   9.413   7.182 -1.2021 -0.4203 -0.2042
  614MOL0     H81024   1.208   9.613   7.152 -1.6556 -0.9280 -1.2096
  614MOL0     H81025   1.107   9.568   7.303 -0.3935  1.3474 -1.0330
  614MOL0     H81026   1.157   9.413   7.050 -0.1708  1.9668 -1.4847
  614MOL0     H81027   1.048   9.363   7.180 -1.2913  0.4516 -0.2983
  614MOL0     H81028   0.903   9.488   7.017  1.5046  0.7232 -1.8726
  614MOL0     H81029   1.026   9.614   6.990 -4.8095  2.0331 -1.9024
  614MOL0     H81030   1.928   9.455   7.139 -1.2217  0.9548  2.4380
  614MOL0     H81031   2.127   9.312   7.080  0.7301  1.6475  0.1422
  614MOL0     H81032   2.498   9.118   7.341 -3.0531  1.8781 -1.1032
  614MOL0     H81033   2.762   9.096   7.316  0.9513 -1.1814  0.3270
  614MOL0     H81034   4.769   8.979   6.483 -0.4602 -3.7152  2.3907
  614MOL0     H81035   5.003   8.918   6.499  2.1662  1.5125 -0.2863
  614MOL0     H81036   5.394   9.065   6.758 -1.5779  0.0565  0.0032
  614MOL0     H81037   5.639   9.031   6.785 -2.3650  2.3972 -0.1460
  614MOL0     H81038   5.790   8.619   6.745 -1.5830 -3.0613  1.7483
  614MOL0     H81039   5.744   8.623   6.908 -0.6934  1.4211  0.0621
  614MOL0     H81040   5.999   8.596   6.802  3.1178  1.7574  0.0915
  614MOL0     H81041   6.004   8.767   6.826 -2.3974  1.3987  0.1477
  614MOL0     H81042   5.921   8.586   7.049  1.9133 -1.2614 -0.8893
  614MOL0     H81043   5.940   8.764   7.062  3.0215  0.7318 -0.1590
  614MOL0     H81044   6.132   8.642   7.166 -1.0079 -2.0533 -0.0162
  614MOL0     H81045   6.181   8.572   7.011 -2.1197 -0.4007 -1.5816
  614MOL0     H81046   6.296   8.987   6.979 -0.4734  0.3208  1.3640
  614MOL0     H81047   5.572   8.603   6.796  0.9144 -0.3956 -3.0895
  614MOL0     H81048   5.324   8.649   6.755 -0.6066  0.1044  0.5267
  615MOL0     O81049   8.854   4.313   1.589  0.1423 -0.2110  0.0853
  615MOL0     C81050   8.824   4.432   1.564 -0.3872  0.0590  0.0968
  615MOL0     O81051   8.711   4.475   1.492 -0.9766  0.2135 -0.9124
  615MOL0     C81052   8.615   4.394   1.444 -1.0490 -0.6780 -0.1871
  615MOL0     C81053   8.544   4.447   1.338 -0.3859 -0.5550  0.5204
  615MOL0     C81054   8.437   4.379   1.285  0.6043  0.3209 -0.2168
  615MOL0     C81055   8.386   4.261   1.343  0.2285  0.3772 -0.2903
  615MOL0     O81056   8.270   4.193   1.305  0.4336 -1.5263 -0.2924
  615MOL0     C81057   8.234   4.061   1.346 -0.1686 -0.2145 -0.1135
  615MOL0     C81058   8.151   3.993   1.246 -0.2166  0.6581  0.0602
  615MOL0     C81059   8.002   4.021   1.255 -0.2033 -0.3003 -0.1992
  615MOL0     C81060   7.921   3.940   1.157  0.8345  0.1831  0.3931
  615MOL0     C81061   7.781   3.905   1.220 -0.1624  0.1618  0.0260
  615MOL0     C81062   7.678   3.873   1.116 -0.5063  0.0513  0.4516
  615MOL0     C81063   7.540   3.839   1.152  0.4096  0.2518  0.2679
  615MOL0     C81064   7.460   3.829   1.029  0.1708  0.2431 -0.5831
  615MOL0     N81065   7.315   3.829   1.044 -1.1391  0.2560  0.2209
  615MOL0     C81066   7.218   3.886   0.967 -0.2700 -0.6395  0.5712
  615MOL0     C81067   7.103   3.856   1.030 -0.2668  0.1878  0.1050
  615MOL0     C81068   6.972   3.912   0.991 -0.3421  1.2974 -0.0356
  615MOL0     C81069   6.883   3.803   0.927  0.2564 -0.3872  0.3516
  615MOL0     C81070   6.742   3.852   0.914 -0.2433 -0.7066 -0.3412
  615MOL0     C81071   6.651   3.801   1.029  0.1549 -0.3843  0.4924
  615MOL0     O81072   6.529   3.875   1.030 -0.5025 -0.1654 -0.6259
  615MOL0     C81073   6.411   3.801   1.070 -0.5286  0.1953 -0.1427
  615MOL0     C81074   6.282   3.833   1.027 -0.2794 -0.3330 -0.8301
  615MOL0     C81075   6.171   3.763   1.067 -0.3177  0.2575  0.3518
  615MOL0     C81076   6.181   3.651   1.147  0.3371  0.4478  0.2409
  615MOL0     C81077   6.068   3.565   1.192 -0.8298 -0.1368 -0.2718
  615MOL0     O81078   5.945   3.621   1.165  0.2380 -0.8691  0.5233
  615MOL0     C81079   5.831   3.559   1.210 -0.2711 -0.0240 -0.3779
  615MOL0     C81080   5.720   3.646   1.217 -0.3626 -0.0889 -0.9570
  615MOL0     C81081   5.591   3.599   1.260  0.1470 -0.4472  0.4878
  615MOL0     C81082   5.570   3.469   1.302  0.1022 -0.9826  1.2110
  615MOL0     O81083   5.457   3.419   1.343 -0.2764 -0.3894  0.1577
  615MOL0     C81084   5.334   3.457   1.286  1.4948 -0.1078 -0.0889
  615MOL0     C81085   5.213   3.392   1.361 -0.5755 -0.2208 -0.7168
  615MOL0     C81086   5.080   3.421   1.304  1.0958 -0.1117  0.6009
  615MOL0     C81087   5.026   3.563   1.334 -1.2729 -0.3057 -0.6095
  615MOL0     C81088   4.942   3.585   1.464  0.8394  0.3497 -0.3553
  615MOL0     C81089   4.920   3.729   1.497 -0.4301  0.5505 -0.0193
  615MOL0     C81090   4.832   3.760   1.623  0.5243 -0.5510 -0.1593
  615MOL0     C81091   4.698   3.676   1.629 -0.9238 -1.3262 -0.6131
  615MOL0    Cl81092   4.607   3.714   1.489  0.1452 -0.3828 -0.1070
  615MOL0     C81093   5.680   3.387   1.284 -0.6589 -0.2340  0.6869
  615MOL0     C81094   5.807   3.425   1.238  0.2418 -0.5404  0.3202
  615MOL0     O81095   6.093   3.461   1.255  0.3704  0.2647 -0.1791
  615MOL0     C81096   6.306   3.622   1.203 -0.0926 -0.0097  0.4946
  615MOL0     C81097   6.413   3.703   1.170 -0.1268  0.3537  0.8113
  615MOL0     N81098   7.135   3.758   1.122  0.8116  0.1854  0.0589
  615MOL0     N81099   7.264   3.732   1.118 -0.0031  0.4452  0.1436
  615MOL0     C81100   8.466   4.206   1.447 -0.9049 -0.3554  0.6739
  615MOL0     C81101   8.580   4.273   1.501 -1.0079 -0.3164 -1.1510
  615MOL0     C81102   8.913   4.539   1.603  0.2966 -0.3039  0.2935
  615MOL0     C81103   8.867   4.674   1.606 -0.7004  1.1337 -0.0209
  615MOL0     C81104   8.950   4.773   1.658 -0.2869 -0.1797  0.1173
  615MOL0     C81105   9.078   4.748   1.705  0.3256  0.3616  0.5179
  615MOL0     O81106   9.151   4.845   1.766 -0.4485 -0.4188  0.8195
  615MOL0     C81107   9.260   4.821   1.865  0.1971  0.0738  0.3268
  615MOL0     C81108   9.205   4.757   1.993 -0.1817  0.3728 -1.1090
  615MOL0     C81109   9.309   4.760   2.114  0.2040  1.0438  0.1539
  615MOL0     C81110   9.230   4.777   2.245  0.6847 -0.3569  0.3569
  615MOL0     C81111   9.137   4.669   2.270 -0.3715  0.1947  0.8513
  615MOL0     C81112   9.063   4.574   2.291 -0.5227  0.1664 -0.0107
  615MOL0     C81113   9.124   4.615   1.706  0.3087  0.7509  1.8149
  615MOL0     C81114   9.043   4.509   1.649  0.2209  0.3454 -0.5193
  615MOL0     H81115   8.554   4.546   1.297 -0.4805  0.3952  2.6502
  615MOL0     H81116   8.378   4.430   1.210 -0.6377  1.3066  1.3774
  615MOL0     H81117   8.193   4.069   1.447 -0.6945  2.3475 -0.4586
  615MOL0     H81118   8.335   4.019   1.351  0.5070  1.4186  2.7416
  615MOL0     H81119   8.158   3.884   1.250 -0.9571  0.5279 -1.5233
  615MOL0     H81120   8.178   4.016   1.143  0.2518  1.1295  0.2821
  615MOL0     H81121   7.973   4.126   1.248 -0.0048 -0.2757 -0.7788
  615MOL0     H81122   7.980   3.988   1.357  0.0323 -1.4627 -0.5115
  615MOL0     H81123   7.909   4.006   1.071  2.3364  2.2509  1.6942
  615MOL0     H81124   7.968   3.845   1.129 -1.1935 -0.2252 -2.0170
  615MOL0     H81125   7.751   3.995   1.274 -1.0747  0.4808 -0.9825
  615MOL0     H81126   7.800   3.819   1.286  0.7359 -0.5640 -1.1472
  615MOL0     H81127   7.714   3.793   1.050 -1.5207 -0.5592  0.6033
  615MOL0     H81128   7.676   3.956   1.045 -0.6730 -0.2083  0.1493
  615MOL0     H81129   7.530   3.746   1.208 -0.3204 -0.2758 -0.7019
  615MOL0     H81130   7.503   3.911   1.226 -1.0731 -1.2759  1.0643
  615MOL0     H81131   7.485   3.735   0.979  1.6508  0.8925 -1.1063
  615MOL0     H81132   7.489   3.913   0.964  0.1786  0.5487 -0.1911
  615MOL0     H81133   7.240   3.952   0.884  3.6280  1.6695  3.0645
  615MOL0     H81134   6.979   4.006   0.936  1.7850  1.1319 -0.1215
  615MOL0     H81135   6.925   3.954   1.080 -0.5045 -0.4649  0.7618
  615MOL0     H81136   6.897   3.715   0.990  1.5012  1.5810  3.0286
  615MOL0     H81137   6.921   3.792   0.825  1.1249 -0.8737  0.7194
  615MOL0     H81138   6.736   3.961   0.914  2.6267 -0.4731 -0.4389
  615MOL0     H81139   6.703   3.814   0.819  1.7994 -1.7701 -0.8261
  615MOL0     H81140   6.703   3.809   1.125  2.9603  0.6107 -0.9973
  615MOL0     H81141   6.640   3.696   1.001 -0.3008  0.6936 -4.3743
  615MOL0     H81142   6.268   3.915   0.958 -0.3501 -0.2092 -0.6704
  615MOL0     H81143   6.075   3.793   1.025 -0.5256  0.2529  0.8254
  615MOL0     H81144   5.727   3.753   1.200 -1.8205 -0.1610 -2.1304
  615MOL0     H81145   5.504   3.662   1.273 -1.3304 -2.2348 -0.4275
  615MOL0     H81146   5.324   3.431   1.180  3.3825  0.1499 -0.3652
  615MOL0     H81147   5.331   3.567   1.291 -1.0858 -0.0933 -0.2060
  615MOL0     H81148   5.218   3.421   1.467  2.0422  0.5958 -1.0128
  615MOL0     H81149   5.220   3.283   1.365  0.1355 -0.1471  1.7247
  615MOL0     H81150   5.004   3.350   1.337 -0.1472  1.4709  1.2764
  615MOL0     H81151   5.091   3.418   1.195  0.9373  2.5816  0.4429
  615MOL0     H81152   5.115   3.626   1.329 -0.7297 -0.9755  0.3139
  615MOL0     H81153   4.970   3.603   1.249  0.8771  2.1305 -0.9969
  615MOL0     H81154   4.999   3.535   1.543  2.2196  2.4043  0.0278
  615MOL0     H81155   4.846   3.536   1.443  0.2692  1.8590 -1.3640
  615MOL0     H81156   4.873   3.776   1.410  2.5482  1.8428 -1.0530
  615MOL0     H81157   5.016   3.778   1.510 -0.0764 -0.2250  0.3375
  615MOL0     H81158   4.886   3.733   1.714 -0.7374  1.6292  1.3014
  615MOL0     H81159   4.801   3.864   1.615  0.4906 -0.6378 -1.4398
  615MOL0     H81160   4.643   3.695   1.721  1.2492  1.9545  0.2111
  615MOL0     H81161   4.712   3.568   1.623 -0.4500 -1.3108  0.0925
  615MOL0     H81162   5.672   3.286   1.323 -4.0445  0.2026  1.4563
  615MOL0     H81163   5.890   3.357   1.225  0.4417  0.0309 -1.8383
  615MOL0     H81164   6.328   3.533   1.260  0.1661  0.7736  1.6424
  615MOL0     H81165   6.511   3.685   1.213 -0.4978 -1.0697  1.0941
  615MOL0     H81166   8.446   4.116   1.505  4.6909  0.0916  4.1734
  615MOL0     H81167   8.617   4.227   1.592  0.0045  0.5336 -1.1145
  615MOL0     H81168   8.765   4.692   1.575 -0.3005  1.7796 -1.0076
  615MOL0     H81169   8.901   4.870   1.669  2.1341  0.9614  1.8608
  615MOL0     H81170   9.298   4.918   1.899 -0.8416 -0.2807  2.6829
  615MOL0     H81171   9.349   4.767   1.832  0.3407  0.3204  0.3088
  615MOL0     H81172   9.112   4.808   2.020  0.0404 -0.9828  2.8652
  615MOL0     H81173   9.187   4.651   1.975  2.6175  0.0053 -2.2899
  615MOL0     H81174   9.383   4.840   2.110 -0.0462  1.3519  1.3791
  615MOL0     H81175   9.365   4.666   2.115 -1.7992 -0.3353 -2.4854
  615MOL0     H81176   9.300   4.799   2.326  0.0160 -2.2240  1.5014
  615MOL0     H81177   9.167   4.866   2.235  1.0447 -0.1465 -0.0624
  615MOL0     H81178   9.007   4.485   2.307 -1.0768  0.3928 -0.6469
  615MOL0     H81179   9.222   4.589   1.745  1.3460  1.1155 -0.3348
  615MOL0     H81180   9.081   4.408   1.651  0.2303  0.2921 -2.3205
  616MOL0     O81181  10.989   8.953   0.924 -0.1095 -0.3914 -0.5949
  616MOL0     C81182  11.023   8.841   0.949 -1.2374  0.7091 -0.7606
  616MOL0     O81183  10.935   8.731   0.955  0.3004 -0.7876 -0.5406
  616MOL0     C81184  10.799   8.761   0.997 -1.2130 -0.0545  0.1659
  616MOL0     C81185  10.710   8.671   0.948  0.5072  0.0933 -0.8226
  616MOL0     C81186  10.575   8.680   0.994 -0.2674  0.4009  0.7304
  616MOL0     C81187  10.519   8.782   1.079  0.4509 -0.4255  0.7082
  616MOL0     O81188  10.382   8.780   1.101 -0.4511  0.0159  0.2380
  616MOL0     C81189  10.328   8.888   1.178  0.1119  0.1658  0.4686
  616MOL0     C81190  10.183   8.900   1.154  1.0349 -0.1060 -0.0888
  616MOL0     C81191  10.103   8.926   1.285 -0.0468 -0.4152  0.3814
  616MOL0     C81192   9.963   8.980   1.261  0.3120  0.2238  0.0679
  616MOL0     C81193   9.875   8.887   1.171 -0.9129  0.7719  0.0014
  616MOL0     C81194   9.852   8.749   1.234 -0.1428  0.3638 -0.4417
  616MOL0     C81195   9.742   8.689   1.147 -0.1684 -0.1272 -0.1720
  616MOL0     C81196   9.722   8.543   1.180 -0.1125  0.4342  0.1394
  616MOL0     N81197   9.676   8.520   1.316  0.1838  0.3333  0.3492
  616MOL0     C81198   9.562   8.574   1.366 -0.5240 -0.2177 -0.2462
  616MOL0     C81199   9.538   8.526   1.493  0.2992 -0.2918  0.6203
  616MOL0     C81200   9.426   8.558   1.587 -0.0773  0.7086 -0.1221
  616MOL0     C81201   9.359   8.438   1.650  0.3845  0.0895  1.0394
  616MOL0     C81202   9.282   8.349   1.543  0.2875 -0.1737 -1.4130
  616MOL0     C81203   9.150   8.279   1.602 -0.1232  0.4158 -0.4761
  616MOL0     O81204   9.141   8.147   1.561 -0.0219 -0.5742 -0.5190
  616MOL0     C81205   9.018   8.095   1.601  0.2214  0.0814  0.3470
  616MOL0     C81206   8.960   8.113   1.729 -0.7189  0.9340 -0.0489
  616MOL0     C81207   8.839   8.046   1.751 -0.9553  0.2390 -0.2208
  616MOL0     C81208   8.779   7.967   1.654 -0.1602  0.1326 -0.2331
  616MOL0     C81209   8.643   7.906   1.687 -1.0511  0.0750  0.4897
  616MOL0     O81210   8.566   7.850   1.590  0.4329  0.7708  0.5934
  616MOL0     C81211   8.463   7.772   1.639  0.2359  0.7818  0.4809
  616MOL0     C81212   8.486   7.652   1.704 -0.0802  0.1418  0.0526
  616MOL0     C81213   8.389   7.575   1.756  0.5393  0.1832 -1.0151
  616MOL0     C81214   8.249   7.603   1.741  0.9311  0.5743  0.0430
  616MOL0     O81215   8.143   7.541   1.804  0.2275 -0.1428 -0.0514
  616MOL0     C81216   8.174   7.436   1.891  0.5805 -0.3298  0.3950
  616MOL0     C81217   8.054   7.414   1.981  0.5608  0.3269  0.0458
  616MOL0     C81218   7.969   7.287   1.936 -0.0131  0.4484  0.2080
  616MOL0     C81219   7.857   7.266   2.037  0.2216 -0.0379 -0.1541
  616MOL0     C81220   7.748   7.157   1.998 -0.7999  0.0393 -0.1680
  616MOL0     C81221   7.649   7.135   2.114 -0.6483 -0.5614 -0.3975
  616MOL0     C81222   7.527   7.062   2.056  0.6356 -0.7558  0.6458
  616MOL0     C81223   7.433   7.015   2.170 -0.0050  0.5720 -0.4524
  616MOL0    Cl81224   7.291   6.939   2.107  0.3059  0.3839  0.0661
  616MOL0     C81225   8.228   7.731   1.684 -0.5273  0.1321 -0.9025
  616MOL0     C81226   8.325   7.815   1.628  0.7981 -0.2773 -0.6591
  616MOL0     O81227   8.615   7.912   1.805  0.0113  0.1805 -0.0943
  616MOL0     C81228   8.835   7.948   1.531 -0.9942 -0.0493 -0.2288
  616MOL0     C81229   8.959   8.014   1.508  0.3625  0.2049  0.5859
  616MOL0     N81230   9.632   8.421   1.512 -0.2686  0.0595  0.1184
  616MOL0     N81231   9.710   8.427   1.403 -0.2238  0.7815 -0.5364
  616MOL0     C81232  10.617   8.876   1.126 -0.0336  1.0307  0.3274
  616MOL0     C81233  10.751   8.863   1.082  0.3909  0.3822 -0.5956
  616MOL0     C81234  11.163   8.804   0.965 -0.3001  0.3037 -0.4761
  616MOL0     C81235  11.270   8.878   0.909  0.7516 -0.3298 -0.1855
  616MOL0     C81236  11.400   8.832   0.926 -0.3217 -0.9314 -0.9952
  616MOL0     C81237  11.431   8.709   0.981  0.3023 -0.4790  0.4390
  616MOL0     O81238  11.549   8.651   0.998  0.2997  0.0249  0.8970
  616MOL0     C81239  11.645   8.752   1.013  0.1710 -0.2195  0.0624
  616MOL0     C81240  11.776   8.685   1.047 -0.4636 -0.1860  0.9897
  616MOL0     C81241  11.838   8.593   0.937 -0.6287 -0.9171  0.7604
  616MOL0     C81242  11.965   8.527   0.987  0.5929  0.1330 -0.2452
  616MOL0     C81243  12.032   8.465   0.872 -0.5476  0.6316  0.5859
  616MOL0     C81244  12.104   8.404   0.791  0.9386  0.4138  0.6602
  616MOL0     C81245  11.329   8.629   1.020  0.3486 -0.3447  0.7015
  616MOL0     C81246  11.194   8.674   1.021  0.1445 -0.4440 -0.1024
  616MOL0     H81247  10.749   8.597   0.879 -1.0265  0.0925 -1.7292
  616MOL0     H81248  10.509   8.605   0.952  1.2666 -0.8898  0.5266
  616MOL0     H81249  10.371   8.982   1.141  0.1315 -0.0869 -0.1607
  616MOL0     H81250  10.351   8.884   1.285  1.6093  1.2534  0.2199
  616MOL0     H81251  10.153   8.800   1.121  0.8390 -0.5026  1.2206
  616MOL0     H81252  10.159   8.974   1.078 -1.2152 -1.6019 -0.9468
  616MOL0     H81253  10.154   9.004   1.342 -0.7963  1.7775 -1.8175
  616MOL0     H81254  10.106   8.839   1.352  1.0213 -1.8674 -1.4340
  616MOL0     H81255   9.906   8.999   1.353 -0.1629  1.0895 -0.3860
  616MOL0     H81256   9.953   9.072   1.203 -2.7999  0.0765  0.1703
  616MOL0     H81257   9.926   8.867   1.076 -0.9704 -1.3319  0.3571
  616MOL0     H81258   9.774   8.925   1.156 -1.4166 -0.4549  0.1761
  616MOL0     H81259   9.817   8.765   1.336  0.6296  1.1719 -0.2937
  616MOL0     H81260   9.945   8.693   1.235 -0.1441  0.3438 -1.0168
  616MOL0     H81261   9.651   8.747   1.162  0.2710 -0.1882  3.6338
  616MOL0     H81262   9.778   8.697   1.044 -1.3664  4.3653 -0.4072
  616MOL0     H81263   9.823   8.501   1.177  0.0988  0.9004  0.5451
  616MOL0     H81264   9.661   8.489   1.108  0.6336 -0.6401  0.2912
  616MOL0     H81265   9.494   8.641   1.313 -2.2561  0.2204  2.3424
  616MOL0     H81266   9.349   8.608   1.527 -2.6069 -3.0399 -0.3574
  616MOL0     H81267   9.451   8.618   1.674 -2.9076  1.0147  0.5916
  616MOL0     H81268   9.287   8.474   1.725 -0.0991 -0.0073  0.6279
  616MOL0     H81269   9.436   8.377   1.698 -1.2468 -0.7532  2.7091
  616MOL0     H81270   9.265   8.407   1.452  2.1946  2.4712 -0.1948
  616MOL0     H81271   9.344   8.267   1.508 -0.5610 -0.6194 -1.9008
  616MOL0     H81272   9.064   8.341   1.574 -0.6901 -0.3112 -0.3870
  616MOL0     H81273   9.152   8.291   1.711 -1.4106  0.2230 -0.4152
  616MOL0     H81274   8.987   8.188   1.803 -0.2764  1.0517 -0.3254
  616MOL0     H81275   8.791   8.055   1.848 -1.9397 -0.7570 -0.5944
  616MOL0     H81276   8.588   7.613   1.700  0.0110  0.2688  0.9280
  616MOL0     H81277   8.425   7.482   1.800  0.7606  0.3621 -0.8147
  616MOL0     H81278   8.250   7.465   1.964 -0.4657  0.0643  1.3706
  616MOL0     H81279   8.217   7.345   1.850  0.0314 -1.8814  3.0286
  616MOL0     H81280   7.984   7.498   1.983  0.0693  0.1457 -3.3413
  616MOL0     H81281   8.087   7.401   2.084  0.6455 -1.9515 -0.2313
  616MOL0     H81282   8.036   7.203   1.916  0.8659  0.5353  2.4460
  616MOL0     H81283   7.918   7.317   1.844 -0.7461 -1.1313  0.0643
  616MOL0     H81284   7.917   7.237   2.124 -1.2601  0.0098  0.9297
  616MOL0     H81285   7.800   7.356   2.060 -3.6451 -2.2739 -0.1123
  616MOL0     H81286   7.800   7.068   1.962 -1.3037 -0.7826  1.0658
  616MOL0     H81287   7.686   7.209   1.924  0.7627  1.2567 -0.6772
  616MOL0     H81288   7.618   7.232   2.155 -1.4508 -1.0300  0.1201
  616MOL0     H81289   7.701   7.075   2.189  1.0154  0.0104 -1.0405
  616MOL0     H81290   7.467   7.131   1.996  1.4429  0.8337  1.6197
  616MOL0     H81291   7.540   6.988   1.977 -3.4427  0.7106 -1.7175
  616MOL0     H81292   7.398   7.100   2.229 -1.5546 -1.7837  2.2505
  616MOL0     H81293   7.464   6.950   2.252 -5.3371 -0.4002  1.1544
  616MOL0     H81294   8.128   7.773   1.682 -0.5990  0.0073 -0.1832
  616MOL0     H81295   8.281   7.908   1.595 -0.3551  0.1771  1.8894
  616MOL0     H81296   8.793   7.883   1.455  0.0156 -1.7487  0.6023
  616MOL0     H81297   9.003   8.002   1.409 -2.4993  0.5973 -0.8188
  616MOL0     H81298  10.601   8.968   1.181 -1.7251  1.5178 -0.9074
  616MOL0     H81299  10.826   8.924   1.132 -1.5654  1.6443  0.9211
  616MOL0     H81300  11.254   8.976   0.867  0.6677  0.9727  2.6639
  616MOL0     H81301  11.477   8.900   0.889  1.7665 -2.9982 -0.6958
  616MOL0     H81302  11.618   8.827   1.088 -0.2317  0.0889 -0.3783
  616MOL0     H81303  11.666   8.799   0.916  0.6239 -1.3063 -0.3799
  616MOL0     H81304  11.846   8.770   1.051  1.6863 -1.8269  0.2970
  616MOL0     H81305  11.795   8.638   1.144  0.2854 -0.0466  0.9200
  616MOL0     H81306  11.856   8.649   0.845 -0.9107  1.2141  1.9283
  616MOL0     H81307  11.758   8.523   0.910 -1.2256  0.7988 -2.4520
  616MOL0     H81308  12.035   8.598   1.032  0.8673  0.5471 -1.3010
  616MOL0     H81309  11.933   8.452   1.060  1.1450 -1.1768 -1.3043
  616MOL0     H81310  12.150   8.344   0.715  0.8508 -0.0492  0.9600
  616MOL0     H81311  11.348   8.535   1.070  3.7802  0.5026  1.1964
  616MOL0     H81312  11.122   8.597   1.049  1.2104 -1.8583 -1.0794
  617MOL0     O81313   8.652   3.306   0.140 -0.4830  0.7871  0.0945
  617MOL0     C81314   8.731   3.291   0.046  1.1728 -0.9823  0.2736
  617MOL0     O81315   8.704   3.245  -0.083 -0.2790  0.1563  0.1966
  617MOL0     C81316   8.573   3.216  -0.101  0.3165  0.3142 -0.6727
  617MOL0     C81317   8.534   3.085  -0.093  0.1077  0.8605  0.1712
  617MOL0     C81318   8.395   3.059  -0.124  0.7541 -0.6864 -0.1946
  617MOL0     C81319   8.305   3.164  -0.146  0.8716 -0.3825  1.0964
  617MOL0     O81320   8.180   3.142  -0.191 -0.3076 -0.3590 -0.1355
  617MOL0     C81321   8.174   3.123  -0.333  0.2279 -1.2145  0.1123
  617MOL0     C81322   8.045   3.050  -0.378 -0.8416 -0.4973  0.1329
  617MOL0     C81323   7.924   3.145  -0.358 -0.2699  0.3561 -0.6032
  617MOL0     C81324   7.787   3.081  -0.405 -0.1705  0.6216  0.5284
  617MOL0     C81325   7.671   3.169  -0.365  0.9189  0.2686  0.1500
  617MOL0     C81326   7.536   3.104  -0.406  1.1462 -1.4988 -0.0593
  617MOL0     C81327   7.425   3.201  -0.350 -0.4758  0.5891  0.7889
  617MOL0     C81328   7.296   3.153  -0.413 -0.1288  0.0617 -0.0322
  617MOL0     N81329   7.185   3.246  -0.377  0.3327  0.6493  0.1505
  617MOL0     C81330   7.064   3.208  -0.316 -1.1759 -0.1366 -0.0122
  617MOL0     C81331   6.991   3.322  -0.313  0.8005  0.7574 -0.5262
  617MOL0     C81332   6.853   3.333  -0.254 -0.2284  0.0400  0.7115
  617MOL0     C81333   6.750   3.307  -0.365  0.6820 -0.4470 -0.7680
  617MOL0     C81334   6.749   3.167  -0.441  0.4920 -0.8034  0.0848
  617MOL0     C81335   6.615   3.154  -0.514  0.5428 -0.1849  0.6791
  617MOL0     O81336   6.602   3.255  -0.617 -0.5721  0.0400 -0.6039
  617MOL0     C81337   6.480   3.259  -0.681 -0.5861 -0.2092  0.4600
  617MOL0     C81338   6.357   3.211  -0.625 -0.0136  0.2061 -0.3395
  617MOL0     C81339   6.238   3.217  -0.708  0.3458 -0.1775 -0.1064
  617MOL0     C81340   6.234   3.272  -0.833 -0.5394 -0.2138 -1.0337
  617MOL0     C81341   6.113   3.290  -0.919  0.1867 -0.3898  0.4727
  617MOL0     O81342   6.141   3.328  -1.051 -0.5108  0.3703 -0.1851
  617MOL0     C81343   6.042   3.330  -1.152  0.9204  0.5100 -0.1064
  617MOL0     C81344   6.058   3.251  -1.270  0.2472 -0.2878  0.4105
  617MOL0     C81345   5.955   3.267  -1.370  0.0376  0.3036  0.0179
  617MOL0     C81346   5.847   3.357  -1.346 -0.1164  0.7986  0.2330
  617MOL0     O81347   5.747   3.388  -1.430  0.2453 -0.1883  0.3949
  617MOL0     C81348   5.787   3.408  -1.567  0.8314  0.0039  0.5150
  617MOL0     C81349   5.666   3.387  -1.660  0.1086 -0.9481 -0.4192
  617MOL0     C81350   5.598   3.253  -1.646 -0.6078  0.8318 -0.4934
  617MOL0     C81351   5.468   3.239  -1.724 -1.0435  0.7873  0.1067
  617MOL0     C81352   5.393   3.105  -1.697  0.2673  0.0230  0.8793
  617MOL0     C81353   5.486   2.972  -1.684 -0.3668 -0.4179  0.9138
  617MOL0     C81354   5.399   2.853  -1.678  1.4101 -1.1303  0.1688
  617MOL0     C81355   5.467   2.718  -1.701 -0.8170  0.1737 -0.3184
  617MOL0    Cl81356   5.595   2.688  -1.582  0.0043 -0.0022  0.3188
  617MOL0     C81357   5.847   3.444  -1.239 -0.4648  0.6627 -1.0554
  617MOL0     C81358   5.939   3.425  -1.131 -0.4443 -0.5361 -0.0203
  617MOL0     O81359   6.005   3.255  -0.874  0.2834 -0.6759  0.9721
  617MOL0     C81360   6.347   3.331  -0.884 -0.5674 -0.5416 -0.5039
  617MOL0     C81361   6.467   3.314  -0.807  0.0138  0.6372  0.1003
  617MOL0     N81362   7.064   3.423  -0.374  0.2055 -0.3573 -0.4960
  617MOL0     N81363   7.176   3.374  -0.421 -0.3538  0.0644 -0.6301
  617MOL0     C81364   8.344   3.296  -0.137 -0.0441 -0.0244  0.3176
  617MOL0     C81365   8.479   3.321  -0.116 -0.0602 -0.0383  0.1956
  617MOL0     C81366   8.866   3.345   0.065  0.0883  0.6380 -1.1401
  617MOL0     C81367   8.909   3.375   0.197  0.6085 -0.4150 -0.4636
  617MOL0     C81368   9.033   3.432   0.225 -0.4988  0.4172  0.6114
  617MOL0     C81369   9.117   3.455   0.112  0.2268  0.2945 -0.6842
  617MOL0     O81370   9.241   3.497   0.145  0.1074 -0.4957  0.2317
  617MOL0     C81371   9.338   3.534   0.049 -0.4522  0.1855  0.0551
  617MOL0     C81372   9.418   3.409   0.004 -0.0586 -0.3962 -0.1411
  617MOL0     C81373   9.503   3.349   0.117  0.2857  0.0451 -0.0891
  617MOL0     C81374   9.648   3.384   0.095 -1.0418  0.2184  0.6050
  617MOL0     C81375   9.680   3.527   0.135  0.1949  0.5266 -0.4033
  617MOL0     C81376   9.712   3.635   0.181 -0.6254  0.1856 -0.0615
  617MOL0     C81377   9.081   3.431  -0.019  0.4255 -0.2676  0.0018
  617MOL0     C81378   8.954   3.366  -0.041 -0.2022 -1.5723 -0.0029
  617MOL0     H81379   8.597   2.999  -0.074 -1.6163 -0.4584  0.0991
  617MOL0     H81380   8.355   2.958  -0.129 -3.5670  0.8328 -0.2215
  617MOL0     H81381   8.252   3.063  -0.379  1.2603 -0.7735  1.2368
  617MOL0     H81382   8.183   3.221  -0.381 -2.0476 -0.9918 -0.0027
  617MOL0     H81383   8.022   2.950  -0.340 -1.2370  0.5656  2.9699
  617MOL0     H81384   8.065   3.058  -0.485  1.9999  1.0868  0.6977
  617MOL0     H81385   7.943   3.240  -0.409 -2.5192  0.5716 -1.1357
  617MOL0     H81386   7.925   3.163  -0.250 -0.5880  1.7844 -0.8174
  617MOL0     H81387   7.792   3.073  -0.514 -0.3581  1.0498  0.4851
  617MOL0     H81388   7.774   2.984  -0.356  1.8636  1.2991  2.5299
  617MOL0     H81389   7.678   3.272  -0.401 -2.5903  0.8267  0.6884
  617MOL0     H81390   7.671   3.158  -0.256  0.3474 -0.5411  0.0780
  617MOL0     H81391   7.524   3.013  -0.347  0.7741 -0.2558  1.8689
  617MOL0     H81392   7.543   3.087  -0.514  1.2633 -2.5825  0.1108
  617MOL0     H81393   7.425   3.197  -0.241  2.2867  0.9110  0.8817
  617MOL0     H81394   7.455   3.304  -0.374  0.9294 -0.0792 -0.5198
  617MOL0     H81395   7.271   3.050  -0.384  0.5502  0.2772  1.3946
  617MOL0     H81396   7.300   3.149  -0.522  1.6689  0.5870 -0.0091
  617MOL0     H81397   7.045   3.111  -0.271 -3.5525  1.2577  2.3076
  617MOL0     H81398   6.846   3.436  -0.218 -1.2265  1.4844 -3.1607
  617MOL0     H81399   6.837   3.267  -0.169  0.1228 -1.4007 -0.3078
  617MOL0     H81400   6.749   3.384  -0.442 -1.5499  1.5959  1.1482
  617MOL0     H81401   6.654   3.317  -0.315 -0.4647  0.0269 -2.9567
  617MOL0     H81402   6.831   3.160  -0.512  0.6275  3.1684 -0.3747
  617MOL0     H81403   6.755   3.092  -0.362 -0.0832  0.7688  1.6948
  617MOL0     H81404   6.530   3.153  -0.445 -1.5352 -2.3089 -1.6531
  617MOL0     H81405   6.603   3.055  -0.559 -0.0957 -0.5838  1.7000
  617MOL0     H81406   6.350   3.181  -0.521  0.3798 -0.6757 -0.5604
  617MOL0     H81407   6.151   3.160  -0.678  1.2523 -1.7372 -0.3157
  617MOL0     H81408   6.135   3.175  -1.278  1.1624  0.7225 -0.7353
  617MOL0     H81409   5.972   3.205  -1.457 -0.8577  0.4427 -0.2627
  617MOL0     H81410   5.877   3.353  -1.597 -0.2155 -1.0911 -0.7657
  617MOL0     H81411   5.818   3.513  -1.565 -1.6608  0.8032  0.3223
  617MOL0     H81412   5.688   3.418  -1.763  1.4499  3.3661  0.9220
  617MOL0     H81413   5.591   3.461  -1.632  2.3620  0.7569  1.5874
  617MOL0     H81414   5.577   3.222  -1.543  1.7025 -4.2185 -1.2572
  617MOL0     H81415   5.674   3.188  -1.689  1.5005  2.7717  0.0663
  617MOL0     H81416   5.401   3.321  -1.698  1.1975  3.2340 -1.3766
  617MOL0     H81417   5.491   3.258  -1.829  0.3962  1.1317  0.4643
  617MOL0     H81418   5.327   3.086  -1.782  2.2215 -1.8234 -0.3338
  617MOL0     H81419   5.343   3.117  -1.600 -1.3285  2.3525 -0.1479
  617MOL0     H81420   5.559   2.972  -1.602 -1.5715 -3.0514  2.0828
  617MOL0     H81421   5.544   2.962  -1.776  0.6682  0.3251  1.4578
  617MOL0     H81422   5.349   2.848  -1.580  0.6048  2.7921  0.1065
  617MOL0     H81423   5.320   2.867  -1.752  1.3992  1.6966  0.5960
  617MOL0     H81424   5.499   2.711  -1.806 -2.7837 -2.9472 -0.8588
  617MOL0     H81425   5.409   2.626  -1.690  1.0977 -0.9864  0.6653
  617MOL0     H81426   5.773   3.523  -1.249  0.9469  1.6870 -4.9652
  617MOL0     H81427   5.930   3.492  -1.046 -1.5509  1.6358 -1.7409
  617MOL0     H81428   6.343   3.397  -0.970 -3.2032  2.2419  1.5495
  617MOL0     H81429   6.558   3.356  -0.848 -1.0594  0.7990 -2.2618
  617MOL0     H81430   8.284   3.382  -0.164 -0.3453 -1.0722 -2.6275
  617MOL0     H81431   8.507   3.425  -0.108 -0.0355 -0.0231 -0.0867
  617MOL0     H81432   8.843   3.358   0.281 -0.6287  2.7073 -0.6400
  617MOL0     H81433   9.072   3.455   0.323 -0.6862 -1.6159  1.2096
  617MOL0     H81434   9.410   3.604   0.091  0.7641  0.9085 -2.9890
  617MOL0     H81435   9.282   3.585  -0.031 -1.6022 -0.7145  0.2564
  617MOL0     H81436   9.345   3.334  -0.026  0.6779 -0.9167 -0.6699
  617MOL0     H81437   9.474   3.439  -0.085  1.3771  0.2991  0.9562
  617MOL0     H81438   9.500   3.240   0.103 -2.4396  0.0652 -0.1947
  617MOL0     H81439   9.457   3.381   0.211 -3.3252 -4.5297  0.0963
  617MOL0     H81440   9.707   3.319   0.161 -0.4688  2.1086  2.0361
  617MOL0     H81441   9.676   3.373  -0.010  1.3510  1.9113  0.9862
  617MOL0     H81442   9.752   3.730   0.212 -0.2118  0.6166 -1.8213
  617MOL0     H81443   9.151   3.441  -0.102 -0.4708  2.2566 -0.5447
  617MOL0     H81444   8.917   3.349  -0.141 -0.7362 -1.1223  0.1151
  618MOL0     O81445   9.286   1.624   5.889 -0.2983 -0.0599  0.1579
  618MOL0     C81446   9.298   1.501   5.854 -0.2952 -0.2271 -0.7584
  618MOL0     O81447   9.198   1.429   5.804  0.1878  0.0537 -0.0053
  618MOL0     C81448   9.081   1.499   5.763  0.2127 -0.0614 -0.9198
  618MOL0     C81449   9.088   1.607   5.680 -0.7302  0.3711 -0.6785
  618MOL0     C81450   8.973   1.676   5.657 -0.0665 -0.2548 -0.0977
  618MOL0     C81451   8.848   1.632   5.705 -0.1289  0.5396  0.3545
  618MOL0     O81452   8.732   1.699   5.681 -0.0745  0.0141 -0.0424
  618MOL0     C81453   8.722   1.830   5.747  0.3973 -1.3364 -0.5594
  618MOL0     C81454   8.574   1.875   5.743  0.8144 -0.6734 -0.4060
  618MOL0     C81455   8.508   1.882   5.616 -0.1115 -0.0810  0.0969
  618MOL0     C81456   8.360   1.915   5.624 -0.0454 -0.4991  0.1977
  618MOL0     C81457   8.288   1.881   5.492  0.1341  0.5814  0.2504
  618MOL0     C81458   8.311   1.982   5.374  0.9602 -0.3346 -0.1225
  618MOL0     C81459   8.263   2.133   5.392 -0.0493 -0.0195  0.7949
  618MOL0     C81460   8.136   2.148   5.472 -0.2595  0.2155 -0.6921
  618MOL0     N81461   8.031   2.070   5.405  0.4512 -0.4057 -0.1278
  618MOL0     C81462   7.988   2.091   5.272  0.4679 -0.3806 -0.2538
  618MOL0     C81463   7.874   2.018   5.267  0.1043 -0.2611 -0.5340
  618MOL0     C81464   7.786   1.995   5.152  0.7897 -0.2769 -0.3697
  618MOL0     C81465   7.628   1.991   5.180 -0.1208  0.1845  0.2760
  618MOL0     C81466   7.544   1.974   5.052  0.2332  1.0113 -1.0767
  618MOL0     C81467   7.405   1.932   5.090  0.0300  0.8377  0.1219
  618MOL0     O81468   7.327   2.029   5.015  0.3486  0.3796 -0.0952
  618MOL0     C81469   7.194   2.016   4.984  0.9986  0.0429  0.4275
  618MOL0     C81470   7.132   1.895   4.991 -0.3162 -0.0584 -0.4269
  618MOL0     C81471   7.007   1.876   4.930  0.5675 -0.6201 -0.2583
  618MOL0     C81472   6.938   1.978   4.874  0.3843 -0.2580  0.0850
  618MOL0     C81473   6.818   1.942   4.804 -0.8578  0.4986  0.1555
  618MOL0     O81474   6.753   2.049   4.743  0.3532  0.3212  0.2289
  618MOL0     C81475   6.624   2.035   4.681 -0.8762  0.6880  0.1140
  618MOL0     C81476   6.510   2.098   4.705  0.3512  0.1848  1.1308
  618MOL0     C81477   6.395   2.082   4.628  0.2022  0.6112  0.0760
  618MOL0     C81478   6.394   1.999   4.523  0.3682  0.2103 -0.2114
  618MOL0     O81479   6.288   1.967   4.442  0.0271  0.3074  0.6526
  618MOL0     C81480   6.152   2.029   4.459  0.3171 -0.5767  0.0047
  618MOL0     C81481   6.070   1.970   4.347  0.6018 -0.3539 -0.0217
  618MOL0     C81482   5.933   2.029   4.355 -0.9948  0.2929 -0.2013
  618MOL0     C81483   5.879   2.046   4.213  0.3305  0.2192  0.3812
  618MOL0     C81484   5.847   1.911   4.151 -0.0423  0.4921  0.0627
  618MOL0     C81485   5.783   1.930   4.004  0.6787  0.0961  0.8874
  618MOL0     C81486   5.767   1.799   3.917 -0.0007  0.0567 -0.6998
  618MOL0     C81487   5.621   1.746   3.929  0.3811  0.4859  0.6751
  618MOL0    Cl81488   5.492   1.865   3.885  0.5574  0.3167  0.5575
  618MOL0     C81489   6.509   1.932   4.490 -1.2112  0.1010  0.3113
  618MOL0     C81490   6.626   1.937   4.573 -0.5442  0.1184 -0.9828
  618MOL0     O81491   6.782   1.828   4.798 -0.5850 -0.3071  0.1715
  618MOL0     C81492   7.000   2.104   4.866 -0.3783 -0.3717 -0.1273
  618MOL0     C81493   7.125   2.126   4.928 -0.5830  0.5858  0.6410
  618MOL0     N81494   7.858   1.954   5.390 -0.2224 -0.2790  0.7179
  618MOL0     N81495   7.948   1.983   5.479  0.0694 -0.0780  0.1803
  618MOL0     C81496   8.848   1.522   5.791 -0.9255 -0.0035  0.0743
  618MOL0     C81497   8.966   1.460   5.828  0.2560 -0.0073  0.8148
  618MOL0     C81498   9.439   1.447   5.870  0.9574  0.0450  0.1889
  618MOL0     C81499   9.545   1.508   5.943 -0.2016  0.4056  1.2173
  618MOL0     C81500   9.668   1.443   5.960 -0.4166 -0.6133 -0.0906
  618MOL0     C81501   9.689   1.309   5.924  0.2388 -0.9613 -0.4388
  618MOL0     O81502   9.805   1.234   5.936 -0.0411  0.0973 -0.2726
  618MOL0     C81503   9.920   1.286   6.002  0.4351  0.3049  1.3003
  618MOL0     C81504  10.050   1.196   5.978  0.3378 -0.0996  0.5241
  618MOL0     C81505  10.156   1.250   6.066 -0.1439  0.5714  0.1372
  618MOL0     C81506  10.286   1.184   6.035 -0.2413  0.0873 -0.4296
  618MOL0     C81507  10.298   1.069   6.127 -0.6319 -0.0874 -0.7018
  618MOL0     C81508  10.330   0.975   6.194  0.6635  1.0394 -0.0190
  618MOL0     C81509   9.587   1.248   5.859 -0.4247 -0.1989  0.7940
  618MOL0     C81510   9.464   1.313   5.833 -0.2266  1.1572 -0.5117
  618MOL0     H81511   9.175   1.656   5.637  0.9101  2.9631  4.6118
  618MOL0     H81512   8.965   1.768   5.600  2.8648  1.1608  1.5284
  618MOL0     H81513   8.777   1.908   5.694  1.0710 -0.3322  1.5078
  618MOL0     H81514   8.758   1.816   5.849 -1.6072  0.6130  0.4984
  618MOL0     H81515   8.567   1.979   5.777 -2.1301 -0.7308 -0.5143
  618MOL0     H81516   8.525   1.818   5.822  0.4476 -1.9838 -1.5333
  618MOL0     H81517   8.525   1.784   5.572  1.1217 -1.0933  2.6475
  618MOL0     H81518   8.544   1.961   5.549 -2.8425  1.2981  0.1191
  618MOL0     H81519   8.315   1.869   5.712 -0.9898 -2.0023 -1.0116
  618MOL0     H81520   8.347   2.021   5.650  1.4375  0.1814 -1.5952
  618MOL0     H81521   8.184   1.864   5.520  0.4432 -1.0446  0.5183
  618MOL0     H81522   8.319   1.783   5.455 -0.5902  1.0393 -1.7304
  618MOL0     H81523   8.261   1.945   5.284  1.6008  1.8336 -1.4355
  618MOL0     H81524   8.417   1.997   5.352  1.1621  1.1519  1.6213
  618MOL0     H81525   8.344   2.196   5.429  1.9409 -0.7075 -2.0469
  618MOL0     H81526   8.254   2.167   5.288 -1.3900  2.8347  1.7404
  618MOL0     H81527   8.109   2.254   5.481  1.9636  0.8232 -0.5484
  618MOL0     H81528   8.154   2.112   5.574  1.3556  1.4582 -0.4943
  618MOL0     H81529   8.020   2.159   5.193  2.2676  1.9969  2.3009
  618MOL0     H81530   7.818   1.902   5.104  0.0458 -1.7914  1.8987
  618MOL0     H81531   7.796   2.074   5.077  1.3536 -1.1598 -1.2501
  618MOL0     H81532   7.605   2.086   5.229 -1.9915  0.4936 -1.1152
  618MOL0     H81533   7.620   1.917   5.260  1.1871 -1.5410 -1.1098
  618MOL0     H81534   7.551   2.071   5.002  2.5847  0.9671 -0.9370
  618MOL0     H81535   7.596   1.904   4.985 -0.0031  0.9155 -1.1596
  618MOL0     H81536   7.391   1.941   5.198  0.1451  1.5182  0.0892
  618MOL0     H81537   7.391   1.828   5.059  2.8130  0.2103  0.6828
  618MOL0     H81538   7.177   1.808   5.039 -0.0405  1.0376  1.3847
  618MOL0     H81539   6.974   1.774   4.917  0.0185 -0.3990 -0.6150
  618MOL0     H81540   6.504   2.177   4.779  1.1255 -0.8814  2.3805
  618MOL0     H81541   6.314   2.151   4.651  3.6538  5.1753  0.0779
  618MOL0     H81542   6.166   2.138   4.462  1.1444 -0.6949  0.5539
  618MOL0     H81543   6.113   1.994   4.555 -1.7146  4.7731  1.4985
  618MOL0     H81544   6.055   1.864   4.371  1.1667 -1.0116 -2.3181
  618MOL0     H81545   6.118   1.999   4.253 -0.2863  2.7226  0.3625
  618MOL0     H81546   5.950   2.127   4.401  1.1946  0.4082 -1.1347
  618MOL0     H81547   5.875   1.968   4.424  0.6327 -0.4971  0.5247
  618MOL0     H81548   5.783   2.098   4.201 -0.2957 -1.3576 -2.4711
  618MOL0     H81549   5.946   2.098   4.145  0.2787  2.4390  1.9286
  618MOL0     H81550   5.775   1.841   4.195  1.0915 -0.7756 -0.0280
  618MOL0     H81551   5.939   1.857   4.128  0.3560  0.9822  0.4865
  618MOL0     H81552   5.852   1.993   3.947 -1.2674  1.7460  0.2347
  618MOL0     H81553   5.686   1.979   4.010  0.3757 -0.5397  1.2787
  618MOL0     H81554   5.810   1.812   3.817  2.5307 -1.8567  0.0390
  618MOL0     H81555   5.819   1.722   3.974  1.5595  1.5037 -0.1021
  618MOL0     H81556   5.608   1.732   4.036  0.6402  1.6406  0.8716
  618MOL0     H81557   5.598   1.649   3.884 -1.4852  0.4626  1.5984
  618MOL0     H81558   6.494   1.855   4.415  0.8213 -1.2717  1.2201
  618MOL0     H81559   6.707   1.866   4.556 -0.5176  0.4780 -2.4773
  618MOL0     H81560   6.935   2.176   4.818  2.8432  0.0165 -4.4713
  618MOL0     H81561   7.165   2.227   4.930  2.5532 -0.5331  0.0464
  618MOL0     H81562   8.763   1.490   5.850  0.5372  1.4147  3.1587
  618MOL0     H81563   8.969   1.387   5.908  2.0994 -1.3278 -0.3665
  618MOL0     H81564   9.536   1.612   5.972 -1.1659 -0.1262  3.0053
  618MOL0     H81565   9.747   1.497   6.011 -0.6496  2.1790 -2.4501
  618MOL0     H81566   9.899   1.293   6.109  0.7855  1.6064  1.3037
  618MOL0     H81567   9.952   1.377   5.949  3.6036 -1.1366  0.4854
  618MOL0     H81568  10.032   1.093   6.012 -0.9325 -0.8958 -2.2562
  618MOL0     H81569  10.084   1.198   5.874  0.7064  0.1149  0.6496
  618MOL0     H81570  10.126   1.255   6.170 -1.1224 -0.8118 -0.0468
  618MOL0     H81571  10.164   1.353   6.029 -1.5143  0.5547 -0.2486
  618MOL0     H81572  10.278   1.137   5.937  0.0123 -1.7883  0.4158
  618MOL0     H81573  10.379   1.242   6.037  1.2734 -2.2504  0.3594
  618MOL0     H81574  10.365   0.886   6.243 -1.8429 -1.3135 -2.1524
  618MOL0     H81575   9.595   1.153   5.808 -2.0464  0.9470 -1.7932
  618MOL0     H81576   9.387   1.258   5.780 -1.9278  2.2429  0.7407
  619MOL0     O81577   2.521   4.746   3.670 -0.2877  0.0173 -0.7812
  619MOL0     C81578   2.579   4.856   3.657  0.3111 -1.0207  0.2069
  619MOL0     O81579   2.516   4.978   3.638 -0.1370  0.8410  0.8681
  619MOL0     C81580   2.378   4.967   3.630 -0.2924 -0.6996 -0.4544
  619MOL0     C81581   2.297   5.045   3.719  0.8118 -0.2626  0.0283
  619MOL0     C81582   2.157   5.043   3.704 -0.2999  0.5914  0.2706
  619MOL0     C81583   2.095   4.954   3.620  0.2705 -0.4243 -0.1439
  619MOL0     O81584   1.966   4.927   3.632  0.6543  0.8056  0.4855
  619MOL0     C81585   1.879   4.960   3.743 -0.6849 -0.8333  0.2871
  619MOL0     C81586   1.816   5.087   3.705  0.0918 -0.1365  0.2397
  619MOL0     C81587   1.705   5.078   3.601  0.0740 -0.0353  0.0150
  619MOL0     C81588   1.609   5.199   3.621  1.7975  0.9499  1.3214
  619MOL0     C81589   1.507   5.219   3.507 -0.3284 -0.9173 -0.0283
  619MOL0     C81590   1.413   5.329   3.550 -0.4289 -0.3788  0.8681
  619MOL0     C81591   1.277   5.318   3.470 -0.4003  0.3841  0.7903
  619MOL0     C81592   1.192   5.219   3.547 -0.6118  0.8359 -0.1771
  619MOL0     N81593   1.063   5.200   3.476  0.6031 -0.1630  0.3355
  619MOL0     C81594   1.050   5.153   3.345  0.1390 -0.1975 -0.4691
  619MOL0     C81595   0.913   5.168   3.325  0.0861  0.5515  0.0159
  619MOL0     C81596   0.827   5.106   3.218 -0.0478 -0.4065 -0.2035
  619MOL0     C81597   0.844   4.951   3.233 -0.4887  0.1429 -0.1900
  619MOL0     C81598   0.773   4.867   3.124  0.5486 -0.3620 -0.2807
  619MOL0     C81599   0.631   4.896   3.090 -0.5819 -0.1566 -1.0145
  619MOL0     O81600   0.556   4.892   3.206  0.4473  0.0190 -0.1405
  619MOL0     C81601   0.419   4.937   3.191  0.2002 -0.0505  0.4522
  619MOL0     C81602   0.376   5.045   3.114 -0.1435  0.1390  0.8163
  619MOL0     C81603   0.249   5.086   3.097  1.2746 -0.5594  0.2688
  619MOL0     C81604   0.149   4.999   3.155 -0.5171  1.0666  0.3199
  619MOL0     C81605   0.007   5.034   3.143  0.2374 -0.1110  0.3429
  619MOL0     O81606  -0.086   4.966   3.220 -0.0032 -0.1602 -0.1227
  619MOL0     C81607  -0.224   5.000   3.217  0.1396  1.5232  0.0968
  619MOL0     C81608  -0.287   4.985   3.334  0.5514 -0.5953 -0.9391
  619MOL0     C81609  -0.425   5.008   3.357  0.2003  1.1551 -0.8534
  619MOL0     C81610  -0.507   5.047   3.247 -0.9496  0.3073  0.2821
  619MOL0     O81611  -0.636   5.068   3.247 -0.4410  0.5110 -0.0282
  619MOL0     C81612  -0.705   5.051   3.370 -0.4571 -0.3327 -0.6491
  619MOL0     C81613  -0.848   5.044   3.326  0.1126  0.3768 -0.5472
  619MOL0     C81614  -0.936   5.046   3.456  0.1711  0.7179 -0.2222
  619MOL0     C81615  -1.089   5.035   3.419  0.3969 -0.1151 -0.0798
  619MOL0     C81616  -1.189   5.097   3.516  0.2300  0.4949 -0.6783
  619MOL0     C81617  -1.203   5.244   3.480  0.6132 -0.3934 -0.7584
  619MOL0     C81618  -1.328   5.305   3.537  0.3901  0.2084  0.2605
  619MOL0     C81619  -1.456   5.253   3.477  0.0315  0.1120 -0.7764
  619MOL0    Cl81620  -1.601   5.335   3.545  0.0311  0.3599  0.4966
  619MOL0     C81621  -0.441   5.076   3.125 -0.3701  0.4246  0.4798
  619MOL0     C81622  -0.309   5.042   3.105  0.1550  0.4358  0.1971
  619MOL0     O81623  -0.010   5.126   3.065  0.3060 -0.2866 -1.3286
  619MOL0     C81624   0.192   4.889   3.227  0.9020  0.4205  0.7052
  619MOL0     C81625   0.323   4.862   3.246 -1.1818  0.4944 -0.2824
  619MOL0     N81626   0.859   5.230   3.432  0.6870 -0.0807 -1.0656
  619MOL0     N81627   0.943   5.235   3.527 -0.1967  0.6283 -0.5445
  619MOL0     C81628   2.179   4.882   3.534  0.5781  0.5260  0.3581
  619MOL0     C81629   2.314   4.897   3.531 -0.1155  0.0397  0.6246
  619MOL0     C81630   2.728   4.865   3.660 -0.1822  1.4368 -0.0673
  619MOL0     C81631   2.808   4.982   3.639  0.4737 -0.0320  0.2405
  619MOL0     C81632   2.939   4.961   3.626  0.1170 -0.7560  0.6222
  619MOL0     C81633   3.003   4.840   3.655  0.5923 -0.7549 -0.5575
  619MOL0     O81634   3.134   4.822   3.644 -0.3464 -0.2939 -0.5372
  619MOL0     C81635   3.207   4.898   3.544  1.5314  0.2747  0.2374
  619MOL0     C81636   3.158   4.862   3.399 -0.2464  0.0288 -0.8849
  619MOL0     C81637   3.200   4.718   3.377  0.1311 -0.3835  0.5888
  619MOL0     C81638   3.350   4.698   3.340 -1.0357 -0.3112 -0.1096
  619MOL0     C81639   3.404   4.777   3.222  0.3860  0.6207 -0.0820
  619MOL0     C81640   3.444   4.843   3.128 -0.0031 -0.0855  0.1171
  619MOL0     C81641   2.926   4.735   3.705  0.6961 -0.0889  0.8791
  619MOL0     C81642   2.791   4.752   3.711 -0.2543  0.0481  0.1285
  619MOL0     H81643   2.346   5.113   3.789 -0.3955  0.2220  0.4209
  619MOL0     H81644   2.107   5.114   3.769  0.0051 -0.7069  1.9872
  619MOL0     H81645   1.934   4.969   3.837  0.7216 -2.5766 -0.2972
  619MOL0     H81646   1.801   4.887   3.770 -1.4585  0.0659  0.5435
  619MOL0     H81647   1.884   5.165   3.671 -1.8912  0.9543 -1.4051
  619MOL0     H81648   1.775   5.120   3.801  0.1557 -0.6816  0.4616
  619MOL0     H81649   1.652   4.984   3.621 -1.3777  0.9092  0.7457
  619MOL0     H81650   1.744   5.082   3.499 -1.0123  0.5388 -0.3937
  619MOL0     H81651   1.551   5.177   3.711 -0.3237  1.6996  0.2093
  619MOL0     H81652   1.654   5.298   3.625  0.6877  1.5645 -0.3778
  619MOL0     H81653   1.446   5.128   3.505 -0.4040 -0.8528 -0.5584
  619MOL0     H81654   1.559   5.247   3.415  2.9472 -0.7962  1.6946
  619MOL0     H81655   1.446   5.424   3.506  1.0825 -2.0218 -1.8719
  619MOL0     H81656   1.398   5.341   3.657 -1.7127  2.7653  0.4675
  619MOL0     H81657   1.231   5.417   3.467  0.7920  1.0796  2.9356
  619MOL0     H81658   1.297   5.280   3.370 -0.7237 -1.5615  1.4259
  619MOL0     H81659   1.175   5.243   3.652 -2.9255  0.7010 -0.4460
  619MOL0     H81660   1.251   5.127   3.546 -0.0426  1.0323  3.1143
  619MOL0     H81661   1.128   5.120   3.278 -0.6663  2.0152 -2.6547
  619MOL0     H81662   0.855   5.141   3.118  1.1224 -0.0251  0.2398
  619MOL0     H81663   0.721   5.134   3.223 -0.3494 -1.6981  1.2881
  619MOL0     H81664   0.806   4.923   3.332 -1.3312  0.0951 -0.5236
  619MOL0     H81665   0.947   4.914   3.237 -0.5562 -0.0169  2.9620
  619MOL0     H81666   0.830   4.859   3.031 -0.8981  1.3358 -1.3730
  619MOL0     H81667   0.776   4.764   3.162  1.6727  0.9052  3.4554
  619MOL0     H81668   0.594   4.827   3.014 -0.1303  0.0394 -1.4195
  619MOL0     H81669   0.636   4.996   3.046  0.2893  0.1045 -0.3511
  619MOL0     H81670   0.448   5.114   3.073 -2.6952  2.9898  0.8073
  619MOL0     H81671   0.232   5.177   3.040 -3.8725 -2.2672 -1.5459
  619MOL0     H81672  -0.229   4.946   3.417 -0.9688 -0.8286  0.0522
  619MOL0     H81673  -0.456   4.979   3.457 -1.8466  1.9816 -1.2120
  619MOL0     H81674  -0.696   5.140   3.434 -2.5091 -0.3198 -0.3117
  619MOL0     H81675  -0.672   4.962   3.424 -0.4394 -0.5291 -0.9809
  619MOL0     H81676  -0.869   4.955   3.266 -3.9456  3.3176 -4.1170
  619MOL0     H81677  -0.879   5.126   3.261 -0.9340 -0.7576 -1.5365
  619MOL0     H81678  -0.916   5.145   3.499 -0.1235 -0.3013  2.4078
  619MOL0     H81679  -0.907   4.972   3.531 -0.9559 -0.0080 -0.4736
  619MOL0     H81680  -1.118   5.079   3.323 -1.9906  0.4929  0.8376
  619MOL0     H81681  -1.112   4.929   3.409 -1.6606 -0.0589  2.7509
  619MOL0     H81682  -1.159   5.086   3.621 -2.3675 -1.4617 -0.0507
  619MOL0     H81683  -1.284   5.044   3.504  0.3825  0.3374 -1.2401
  619MOL0     H81684  -1.210   5.263   3.372  1.5828  0.9757 -0.6087
  619MOL0     H81685  -1.115   5.302   3.508  1.0573 -1.3648 -0.1170
  619MOL0     H81686  -1.318   5.285   3.644 -1.6681 -1.6678  0.1715
  619MOL0     H81687  -1.312   5.406   3.498 -0.9814 -0.0891 -1.1147
  619MOL0     H81688  -1.463   5.148   3.507  3.4891  0.0597  0.2833
  619MOL0     H81689  -1.462   5.249   3.368  0.8379  0.7803 -0.8566
  619MOL0     H81690  -0.503   5.117   3.045  0.5241 -0.7437 -0.8532
  619MOL0     H81691  -0.261   5.047   3.008 -1.1081 -1.6379 -0.5926
  619MOL0     H81692   0.120   4.827   3.280 -1.1160  3.3372  1.6497
  619MOL0     H81693   0.341   4.775   3.309  2.6316  0.0044 -1.7946
  619MOL0     H81694   2.131   4.808   3.471 -1.2215  0.0496  2.1613
  619MOL0     H81695   2.373   4.852   3.452 -0.9599  1.4865 -0.9078
  619MOL0     H81696   2.771   5.081   3.615  1.2722  0.0678 -0.6172
  619MOL0     H81697   2.994   5.049   3.594 -0.4075 -0.2617  1.0599
  619MOL0     H81698   3.311   4.872   3.566  1.4786 -0.3500 -0.2233
  619MOL0     H81699   3.192   5.005   3.563 -1.7474  0.2309 -1.4191
  619MOL0     H81700   3.049   4.860   3.401 -0.2416  0.3112  1.2485
  619MOL0     H81701   3.204   4.929   3.326 -0.0822 -0.3181 -1.1055
  619MOL0     H81702   3.145   4.679   3.291  3.4757  1.9663 -2.9246
  619MOL0     H81703   3.180   4.652   3.462  2.7981 -0.8993  0.9124
  619MOL0     H81704   3.413   4.718   3.427 -0.4449 -1.3158 -0.2882
  619MOL0     H81705   3.356   4.592   3.315  0.5297 -0.1576 -0.5040
  619MOL0     H81706   3.468   4.903   3.042 -0.2790  0.9146  0.7271
  619MOL0     H81707   2.969   4.637   3.723  1.2286  0.0199  0.2524
  619MOL0     H81708   2.741   4.664   3.749  0.0147 -0.7204 -1.2582
  620MOL0     O81709  10.680   5.010   2.708  0.6701  0.3452  0.1085
  620MOL0     C81710  10.703   5.119   2.753 -0.0064 -0.9223 -0.0962
  620MOL0     O81711  10.607   5.201   2.817 -0.4755  0.7443 -0.0735
  620MOL0     C81712  10.483   5.149   2.844 -0.2101 -0.1347 -0.3992
  620MOL0     C81713  10.405   5.108   2.736  0.2953  0.0488  0.2609
  620MOL0     C81714  10.268   5.093   2.753  0.4450  0.3249  0.2412
  620MOL0     C81715  10.213   5.093   2.878  0.2002 -0.3294 -1.1476
  620MOL0     O81716  10.082   5.079   2.898 -0.8069  0.2681  0.6743
  620MOL0     C81717  10.038   4.964   2.972  0.1002  0.7626  0.1304
  620MOL0     C81718   9.906   5.025   3.038  0.8042  0.7000 -0.1613
  620MOL0     C81719   9.820   4.921   3.116 -0.5260 -0.0376 -0.2407
  620MOL0     C81720   9.874   4.889   3.252  0.0671  0.4001 -0.3039
  620MOL0     C81721   9.776   4.793   3.316 -0.4934 -0.5233 -0.5707
  620MOL0     C81722   9.790   4.790   3.473 -0.2265  0.2207 -0.7543
  620MOL0     C81723   9.697   4.694   3.540  0.1044  0.1384 -0.2377
  620MOL0     C81724   9.750   4.553   3.523 -0.1189  0.0431  0.8348
  620MOL0     N81725   9.685   4.461   3.606 -0.1012  0.1848  0.3653
  620MOL0     C81726   9.588   4.367   3.565 -1.3585  1.1840 -0.2330
  620MOL0     C81727   9.552   4.311   3.679  0.5287 -0.4831 -0.4376
  620MOL0     C81728   9.449   4.205   3.707 -0.3454 -0.4661  0.2224
  620MOL0     C81729   9.307   4.256   3.732 -0.2449 -0.4268  0.5321
  620MOL0     C81730   9.297   4.363   3.843  0.3816  0.5959 -0.2786
  620MOL0     C81731   9.147   4.373   3.890 -0.0487 -1.2174  0.2590
  620MOL0     O81732   9.116   4.263   3.962 -0.1941  0.3412  0.2453
  620MOL0     C81733   8.994   4.258   4.029 -0.8715  0.5998  1.0900
  620MOL0     C81734   8.899   4.352   4.027  0.0430  0.0681  0.6064
  620MOL0     C81735   8.770   4.326   4.074 -0.3632 -0.5967 -0.4304
  620MOL0     C81736   8.733   4.204   4.130  0.6351 -0.3501  0.0073
  620MOL0     C81737   8.597   4.183   4.182  0.1395  0.2061  0.0937
  620MOL0     O81738   8.514   4.295   4.173  0.3873  0.0756 -0.4654
  620MOL0     C81739   8.386   4.289   4.224  0.0305 -0.2221  0.5572
  620MOL0     C81740   8.285   4.366   4.155 -0.3017  0.4394  0.3328
  620MOL0     C81741   8.153   4.362   4.205 -0.4518  0.1490 -0.1638
  620MOL0     C81742   8.120   4.299   4.320 -0.2170  0.4195  0.4608
  620MOL0     O81743   7.984   4.283   4.363  0.3499  0.4359  0.6235
  620MOL0     C81744   7.878   4.306   4.260 -0.0430  0.1216 -0.6093
  620MOL0     C81745   7.755   4.242   4.310  0.0613 -0.3163 -0.6422
  620MOL0     C81746   7.703   4.312   4.438  0.0529  0.1324 -0.2066
  620MOL0     C81747   7.558   4.267   4.472 -0.1873 -0.4168  0.4006
  620MOL0     C81748   7.532   4.285   4.619 -0.2431  0.0889  0.1820
  620MOL0     C81749   7.448   4.410   4.633 -0.4641 -0.6584 -1.0008
  620MOL0     C81750   7.416   4.449   4.783  0.6616 -0.3083  0.4507
  620MOL0     C81751   7.325   4.566   4.787 -0.8008 -0.5725 -0.1154
  620MOL0    Cl81752   7.182   4.544   4.666  0.4168 -0.1412  0.6537
  620MOL0     C81753   8.216   4.228   4.389 -0.2135 -0.0417  0.3540
  620MOL0     C81754   8.341   4.218   4.338 -1.1117 -0.8492 -1.0483
  620MOL0     O81755   8.567   4.081   4.240 -0.8831  0.5457 -0.5414
  620MOL0     C81756   8.833   4.108   4.143  0.6298 -0.1798 -0.4837
  620MOL0     C81757   8.965   4.138   4.088 -0.1459 -0.6603  0.0191
  620MOL0     N81758   9.625   4.357   3.783 -0.5557 -0.9302  0.1247
  620MOL0     N81759   9.717   4.435   3.735 -0.3543  0.3126  0.6641
  620MOL0     C81760  10.285   5.137   2.989  0.0484 -0.4677  0.0687
  620MOL0     C81761  10.422   5.169   2.966  0.2253  0.3621  0.2078
  620MOL0     C81762  10.843   5.172   2.733 -0.4917 -0.5572  0.9941
  620MOL0     C81763  10.929   5.109   2.638  0.5579  0.3248 -0.1898
  620MOL0     C81764  11.058   5.159   2.626 -0.0246 -0.5034  0.4592
  620MOL0     C81765  11.094   5.271   2.705 -1.0872  0.1612  0.3952
  620MOL0     O81766  11.224   5.314   2.697 -0.5077  0.3688  0.0787
  620MOL0     C81767  11.284   5.405   2.786 -0.4940  0.4305  0.4531
  620MOL0     C81768  11.430   5.449   2.758  0.1708 -0.1005 -0.0852
  620MOL0     C81769  11.508   5.339   2.683  0.1661 -0.2907 -0.2113
  620MOL0     C81770  11.654   5.378   2.655  0.4349 -0.6835  0.0478
  620MOL0     C81771  11.736   5.384   2.781  0.3895  0.1845  0.3848
  620MOL0     C81772  11.814   5.376   2.878 -1.0042  0.1155 -0.3520
  620MOL0     C81773  11.006   5.342   2.791 -0.8666 -0.1284  0.5650
  620MOL0     C81774  10.882   5.291   2.806  0.1560 -0.1466  0.5021
  620MOL0     H81775  10.460   5.106   2.642 -0.8956  0.3354 -0.4599
  620MOL0     H81776  10.196   5.063   2.677  0.1928  2.0498 -0.2505
  620MOL0     H81777  10.089   4.928   3.062 -0.2569 -0.8132 -0.2824
  620MOL0     H81778  10.014   4.878   2.909 -0.1275 -0.1464  1.4084
  620MOL0     H81779   9.844   5.077   2.964  0.7846 -1.0705 -1.4750
  620MOL0     H81780   9.942   5.087   3.119 -2.0256  0.1017  1.7040
  620MOL0     H81781   9.817   4.831   3.056  1.0858 -1.1713  1.2603
  620MOL0     H81782   9.718   4.957   3.131  0.1634  1.6849  0.6924
  620MOL0     H81783   9.976   4.849   3.239  0.9825  2.4372  0.1858
  620MOL0     H81784   9.881   4.981   3.310  0.2399 -0.0955  0.4717
  620MOL0     H81785   9.792   4.690   3.281  0.4040 -1.9354  3.3616
  620MOL0     H81786   9.677   4.836   3.301 -0.1731  0.8797  1.0291
  620MOL0     H81787   9.783   4.891   3.514 -2.3351  0.8913 -2.6104
  620MOL0     H81788   9.894   4.762   3.493 -0.7220 -3.3167 -2.2791
  620MOL0     H81789   9.669   4.710   3.645 -3.7447  0.1750 -1.1377
  620MOL0     H81790   9.594   4.693   3.502  0.8856 -3.3135 -2.7194
  620MOL0     H81791   9.857   4.558   3.548  0.3224  0.7184 -1.0314
  620MOL0     H81792   9.744   4.512   3.422 -0.9351  0.8957  0.5314
  620MOL0     H81793   9.540   4.351   3.469 -3.3497  2.0163  0.5703
  620MOL0     H81794   9.481   4.144   3.792  0.6898  1.0053  0.9170
  620MOL0     H81795   9.447   4.147   3.614 -1.0312  1.0185 -0.7304
  620MOL0     H81796   9.250   4.176   3.779 -2.0835  2.2553  3.2503
  620MOL0     H81797   9.261   4.287   3.637  1.4143  1.7648  0.3631
  620MOL0     H81798   9.368   4.344   3.924  4.1208  2.4988 -2.8448
  620MOL0     H81799   9.335   4.461   3.813 -0.7629  1.3481  0.6142
  620MOL0     H81800   9.068   4.388   3.816  1.2790  0.3620 -0.9010
  620MOL0     H81801   9.143   4.458   3.959 -0.5794 -0.8653 -0.1886
  620MOL0     H81802   8.915   4.452   3.987 -1.0026  0.3633  0.9052
  620MOL0     H81803   8.700   4.409   4.071 -1.3265 -1.4092 -1.3733
  620MOL0     H81804   8.301   4.415   4.060  1.3596 -1.9531 -0.7245
  620MOL0     H81805   8.083   4.429   4.155  1.6021  4.1703  1.8292
  620MOL0     H81806   7.903   4.269   4.161  0.8290  1.7316 -1.0149
  620MOL0     H81807   7.859   4.410   4.232 -0.8835 -0.2422 -1.4463
  620MOL0     H81808   7.780   4.140   4.340 -1.3508 -0.6201 -0.4201
  620MOL0     H81809   7.678   4.231   4.234  1.1412 -1.0067 -1.6735
  620MOL0     H81810   7.694   4.421   4.432  2.1039  0.2978 -1.1516
  620MOL0     H81811   7.785   4.301   4.509 -0.6985  0.6621  0.7650
  620MOL0     H81812   7.488   4.329   4.415 -1.2023 -1.2501  0.7044
  620MOL0     H81813   7.535   4.163   4.448  0.3005 -0.5774  0.6239
  620MOL0     H81814   7.629   4.288   4.671  0.5686 -3.9089 -0.7183
  620MOL0     H81815   7.470   4.201   4.652  2.1353 -2.0708 -0.5281
  620MOL0     H81816   7.360   4.399   4.570 -2.0742  1.3363  0.7696
  620MOL0     H81817   7.502   4.494   4.586 -0.3705 -0.7042 -0.9766
  620MOL0     H81818   7.381   4.367   4.846 -1.4952  0.4061  0.2400
  620MOL0     H81819   7.507   4.486   4.830  0.1445 -0.6787  1.7657
  620MOL0     H81820   7.377   4.659   4.762 -0.5770  0.1546  2.6872
  620MOL0     H81821   7.283   4.579   4.887  0.1675  1.5414  0.0598
  620MOL0     H81822   8.186   4.170   4.476  1.6998 -0.6266  0.6662
  620MOL0     H81823   8.418   4.170   4.397 -1.1418 -1.3636 -1.4282
  620MOL0     H81824   8.813   4.012   4.189  2.0022 -0.6891 -0.8891
  620MOL0     H81825   9.045   4.065   4.098  1.7640  0.8591 -2.5799
  620MOL0     H81826  10.245   5.154   3.088  0.9473  1.5458  0.1325
  620MOL0     H81827  10.479   5.209   3.049  0.1744  0.9518 -0.0383
  620MOL0     H81828  10.894   5.027   2.577 -0.7926  1.1021 -0.4883
  620MOL0     H81829  11.136   5.120   2.561  0.1168 -0.9657  0.8972
  620MOL0     H81830  11.282   5.370   2.890 -1.8757  2.8526  1.3324
  620MOL0     H81831  11.232   5.501   2.783 -0.1963  0.6601  1.7919
  620MOL0     H81832  11.422   5.544   2.703 -0.8105 -1.3862 -2.3036
  620MOL0     H81833  11.478   5.476   2.852 -0.8581 -2.4663  1.1783
  620MOL0     H81834  11.466   5.339   2.583 -2.3485  1.7021  0.7303
  620MOL0     H81835  11.499   5.242   2.732 -1.2901 -0.0460  0.0607
  620MOL0     H81836  11.700   5.298   2.597  2.4037  1.0683 -0.9274
  620MOL0     H81837  11.665   5.470   2.597 -0.1802 -1.4110 -1.2530
  620MOL0     H81838  11.889   5.395   2.953 -1.4627 -0.0386  0.1543
  620MOL0     H81839  11.045   5.423   2.851 -2.5300  1.3918 -0.2821
  620MOL0     H81840  10.808   5.343   2.866 -2.7159 -2.0816 -1.1142
  621MOL0     O81841   9.716   0.596   9.359 -0.0464 -0.5043  0.0850
  621MOL0     C81842   9.713   0.709   9.393  0.6139 -0.0986 -0.0345
  621MOL0     O81843   9.608   0.795   9.389  0.3065 -0.7432  0.6338
  621MOL0     C81844   9.489   0.754   9.341 -0.1977 -0.3018 -0.3992
  621MOL0     C81845   9.455   0.646   9.251 -0.0874  0.2359  0.9149
  621MOL0     C81846   9.327   0.620   9.212  0.7594 -0.0771  0.3849
  621MOL0     C81847   9.230   0.709   9.244  0.2017 -0.5773  0.0474
  621MOL0     O81848   9.089   0.694   9.231  0.7763 -0.0151  0.3072
  621MOL0     C81849   9.051   0.583   9.146  0.3631 -0.0261  1.9163
  621MOL0     C81850   9.058   0.619   9.001 -0.1034 -0.0800  0.5101
  621MOL0     C81851   8.927   0.591   8.911 -0.1642 -0.3966  0.2063
  621MOL0     C81852   8.813   0.674   8.974  0.0691  0.1178  0.7149
  621MOL0     C81853   8.698   0.681   8.864 -0.0050  0.0475  0.3266
  621MOL0     C81854   8.580   0.753   8.932  0.4168 -0.4848 -0.1836
  621MOL0     C81855   8.473   0.752   8.836  0.0820  0.2174 -0.5785
  621MOL0     C81856   8.363   0.855   8.873 -0.3721 -0.3296  0.0399
  621MOL0     N81857   8.265   0.850   8.764 -0.5748  0.4105 -0.0904
  621MOL0     C81858   8.277   0.876   8.631  1.1853  0.0532 -0.0542
  621MOL0     C81859   8.154   0.883   8.584  0.1107  0.2409 -0.0953
  621MOL0     C81860   8.115   0.945   8.448 -1.0076  0.2179 -0.0375
  621MOL0     C81861   8.098   1.095   8.447 -0.2904 -0.4878  0.2929
  621MOL0     C81862   7.990   1.136   8.557  0.1061  1.0127 -0.5205
  621MOL0     C81863   7.937   1.275   8.544 -0.4769  0.2491  0.4098
  621MOL0     O81864   7.833   1.295   8.448  0.1566 -0.4397 -0.6028
  621MOL0     C81865   7.699   1.281   8.479 -0.1805 -0.0498  0.6515
  621MOL0     C81866   7.650   1.216   8.593 -0.2735  0.5391  0.8276
  621MOL0     C81867   7.512   1.217   8.615  0.0153 -0.3605 -0.6998
  621MOL0     C81868   7.409   1.283   8.539  0.3858  0.0098 -0.1354
  621MOL0     C81869   7.263   1.260   8.557  0.1955  0.8694 -0.3134
  621MOL0     O81870   7.184   1.354   8.501 -0.1585  0.3083  0.3436
  621MOL0     C81871   7.049   1.350   8.505 -0.6324  0.3543 -0.3730
  621MOL0     C81872   6.970   1.233   8.517 -1.0420 -0.2368 -0.3686
  621MOL0     C81873   6.829   1.250   8.517 -0.3033 -0.0875  0.3867
  621MOL0     C81874   6.764   1.377   8.539 -0.1478 -0.3305 -0.8158
  621MOL0     O81875   6.628   1.391   8.568 -0.7714 -0.3103 -0.0605
  621MOL0     C81876   6.546   1.273   8.571  0.4058 -0.3717 -0.2185
  621MOL0     C81877   6.402   1.304   8.587  0.6340  0.3014 -0.2800
  621MOL0     C81878   6.324   1.181   8.619  1.0268  0.0215 -0.2058
  621MOL0     C81879   6.181   1.236   8.628  0.4034  0.2890 -0.7730
  621MOL0     C81880   6.072   1.149   8.700 -0.3775  0.9342 -0.0666
  621MOL0     C81881   5.935   1.227   8.715 -0.2172 -0.5093  0.9681
  621MOL0     C81882   5.839   1.171   8.813  0.2921 -0.2217  0.1677
  621MOL0     C81883   5.766   1.063   8.762  0.6593 -0.1943  0.6190
  621MOL0    Cl81884   5.641   1.015   8.878  0.3343 -0.1408  0.0949
  621MOL0     C81885   6.842   1.492   8.521 -0.7479 -0.7142 -0.1873
  621MOL0     C81886   6.982   1.479   8.498  0.6741 -0.1282 -0.1747
  621MOL0     O81887   7.231   1.165   8.632  0.2325 -0.4048 -0.2192
  621MOL0     C81888   7.463   1.359   8.428 -0.5479  0.8321  0.0352
  621MOL0     C81889   7.607   1.350   8.399  0.4333 -0.5096  0.3221
  621MOL0     N81890   8.064   0.851   8.684  0.9161 -0.0542  0.0695
  621MOL0     N81891   8.130   0.830   8.790 -0.0751  0.3641  0.0120
  621MOL0     C81892   9.259   0.824   9.314  0.1542 -0.3208  0.6460
  621MOL0     C81893   9.388   0.840   9.364  0.1235  0.4241  0.4022
  621MOL0     C81894   9.833   0.768   9.441  0.2470 -0.4379 -0.5118
  621MOL0     C81895   9.962   0.744   9.386 -0.1056  0.0306 -0.2878
  621MOL0     C81896  10.069   0.822   9.422 -0.1291 -0.3939 -0.6696
  621MOL0     C81897  10.054   0.912   9.536  0.4971  0.4504  0.1134
  621MOL0     O81898  10.149   0.996   9.588  0.1888 -0.8930 -0.6476
  621MOL0     C81899  10.272   1.005   9.517  0.5517 -0.6006  0.2448
  621MOL0     C81900  10.361   1.085   9.610  0.0043  0.0832 -0.4660
  621MOL0     C81901  10.503   1.112   9.570  0.3395  0.3693  0.2131
  621MOL0     C81902  10.512   1.232   9.481 -0.4867 -0.6061  0.0390
  621MOL0     C81903  10.460   1.214   9.343  0.4535  0.0570  0.2389
  621MOL0     C81904  10.410   1.220   9.233  0.3561 -0.6415  0.2379
  621MOL0     C81905   9.931   0.931   9.595 -0.1191  0.1786  0.3052
  621MOL0     C81906   9.818   0.865   9.546  1.4308  0.2568  0.6673
  621MOL0     H81907   9.539   0.591   9.210 -0.8662  0.8904 -1.7491
  621MOL0     H81908   9.328   0.538   9.141  4.1656  3.0795 -3.8075
  621MOL0     H81909   8.950   0.556   9.177 -0.7253  0.1533 -1.1478
  621MOL0     H81910   9.111   0.493   9.159 -0.8049 -0.7658  2.2721
  621MOL0     H81911   9.148   0.574   8.960  0.3154 -0.5287  1.8594
  621MOL0     H81912   9.068   0.728   8.998  3.7209 -0.3404 -1.5469
  621MOL0     H81913   8.908   0.484   8.924 -1.9147 -0.5597 -2.8764
  621MOL0     H81914   8.948   0.613   8.806  0.1601  0.0568  0.3585
  621MOL0     H81915   8.771   0.628   9.063  0.0160  1.7967  1.6036
  621MOL0     H81916   8.849   0.776   8.994 -1.0528  1.0324 -1.5229
  621MOL0     H81917   8.667   0.580   8.837 -1.5700  0.9248 -1.4159
  621MOL0     H81918   8.730   0.730   8.771  2.1984 -2.5384 -0.3982
  621MOL0     H81919   8.603   0.859   8.943  1.2061 -0.6800  0.1335
  621MOL0     H81920   8.558   0.703   9.027  3.3400 -0.7660  0.4337
  621MOL0     H81921   8.502   0.783   8.735 -2.2950 -0.0054 -1.3904
  621MOL0     H81922   8.439   0.648   8.835  1.0985 -0.1228 -0.6229
  621MOL0     H81923   8.412   0.953   8.878  0.3232 -0.5233 -2.0756
  621MOL0     H81924   8.331   0.828   8.974  0.9854  1.2762  0.9548
  621MOL0     H81925   8.370   0.904   8.583  1.9696 -2.6895 -0.3270
  621MOL0     H81926   8.017   0.912   8.413 -2.4813  0.9514  3.0788
  621MOL0     H81927   8.191   0.915   8.375 -2.8565 -0.4489 -1.7918
  621MOL0     H81928   8.050   1.116   8.351 -1.0900  1.6608  1.1120
  621MOL0     H81929   8.193   1.147   8.458 -1.0178  0.7912  0.7492
  621MOL0     H81930   7.902   1.071   8.558  1.6122 -1.3608 -3.8709
  621MOL0     H81931   8.038   1.120   8.654 -1.2389  0.9748  0.1754
  621MOL0     H81932   8.030   1.325   8.515  0.6658 -2.2773 -0.5788
  621MOL0     H81933   7.904   1.307   8.643  0.4481 -1.3339  1.2528
  621MOL0     H81934   7.704   1.146   8.657 -1.6375 -2.4475 -1.0455
  621MOL0     H81935   7.478   1.144   8.688 -0.1026 -1.9621 -2.2863
  621MOL0     H81936   7.022   1.138   8.516  0.9801  0.7442  1.9103
  621MOL0     H81937   6.770   1.159   8.519 -3.1638  1.6649  1.6635
  621MOL0     H81938   6.577   1.205   8.650  0.2371  2.5958  2.6053
  621MOL0     H81939   6.549   1.218   8.477 -1.5116 -3.7919  1.5421
  621MOL0     H81940   6.355   1.347   8.497  1.1049  0.9792 -0.2089
  621MOL0     H81941   6.383   1.381   8.662 -3.1949 -1.2337  0.5509
  621MOL0     H81942   6.359   1.127   8.708 -0.7889  0.7391  0.9918
  621MOL0     H81943   6.321   1.093   8.553 -1.0891 -1.3893  1.6424
  621MOL0     H81944   6.180   1.328   8.688 -0.7185 -0.2667  0.1038
  621MOL0     H81945   6.137   1.252   8.529 -2.7954 -1.2099  0.2707
  621MOL0     H81946   6.101   1.098   8.792  1.1277  0.8261 -0.5751
  621MOL0     H81947   6.063   1.062   8.634 -0.3803  0.5509  0.4345
  621MOL0     H81948   5.888   1.230   8.616  0.4386  1.1003  0.6767
  621MOL0     H81949   5.951   1.334   8.732  0.2318  0.2682 -3.3163
  621MOL0     H81950   5.890   1.147   8.907  2.3653 -3.5171 -1.6032
  621MOL0     H81951   5.779   1.257   8.844  0.1863 -0.0598 -0.4767
  621MOL0     H81952   5.840   0.985   8.740  1.1816  0.7452 -1.1133
  621MOL0     H81953   5.721   1.088   8.665  2.3953  1.8156  0.2457
  621MOL0     H81954   6.792   1.585   8.543 -3.9337 -1.9016 -1.8546
  621MOL0     H81955   7.043   1.566   8.475  1.7329 -1.1268 -1.3001
  621MOL0     H81956   7.389   1.415   8.371 -3.0434 -0.9435  1.2961
  621MOL0     H81957   7.642   1.408   8.315 -0.3388 -2.1439 -1.1949
  621MOL0     H81958   9.181   0.898   9.330  1.1670  0.6737  1.0776
  621MOL0     H81959   9.407   0.932   9.418  0.5705  0.9343 -0.6140
  621MOL0     H81960   9.967   0.675   9.302  1.9596  0.6841 -0.7437
  621MOL0     H81961  10.161   0.807   9.366 -0.1588 -0.5147 -0.6859
  621MOL0     H81962  10.261   1.062   9.424  0.3147  0.9614  1.1999
  621MOL0     H81963  10.310   0.906   9.490 -2.2331 -2.0678  1.3333
  621MOL0     H81964  10.324   1.184   9.637 -1.2434 -1.1052  2.6822
  621MOL0     H81965  10.361   1.034   9.707 -0.3408 -1.6830 -1.3444
  621MOL0     H81966  10.554   1.031   9.517 -0.0874 -1.0188  1.8228
  621MOL0     H81967  10.561   1.129   9.661  1.9793 -1.2164 -0.4600
  621MOL0     H81968  10.464   1.323   9.521  0.8535  1.2959 -2.3918
  621MOL0     H81969  10.620   1.242   9.465 -0.5469  0.8808  0.3409
  621MOL0     H81970  10.360   1.224   9.139 -0.9253  0.8769  0.9427
  621MOL0     H81971   9.922   1.006   9.673 -1.3982 -0.3038  0.6562
  621MOL0     H81972   9.714   0.886   9.571  0.5035 -0.1869 -2.3595
  622MOL0     O81973   4.986   1.057   6.212 -0.1496  0.1829  0.4690
  622MOL0     C81974   5.018   1.149   6.290  0.1725  0.8141 -0.1704
  622MOL0     O81975   4.939   1.184   6.389  0.0437  0.2792  0.6150
  622MOL0     C81976   4.817   1.125   6.424  0.2885  0.5253  0.3422
  622MOL0     C81977   4.744   1.208   6.515  0.4171 -0.2544 -1.0488
  622MOL0     C81978   4.621   1.172   6.570  0.6092 -0.4785  0.7439
  622MOL0     C81979   4.568   1.047   6.527  0.8142 -0.6617  0.6592
  622MOL0     O81980   4.446   1.014   6.582  0.3029 -0.2217 -0.1427
  622MOL0     C81981   4.353   0.919   6.512 -0.3532  0.1899 -0.8048
  622MOL0     C81982   4.206   0.951   6.548 -0.6039  0.5480  0.0075
  622MOL0     C81983   4.166   0.931   6.695  0.1212  0.0424 -0.0378
  622MOL0     C81984   4.026   0.980   6.732 -0.2170  0.2407  0.8939
  622MOL0     C81985   3.928   0.881   6.658 -0.0964  0.4965 -1.4578
  622MOL0     C81986   3.788   0.909   6.713 -0.1469  0.3453 -0.1524
  622MOL0     C81987   3.681   0.816   6.657 -0.0690  0.1759  0.8824
  622MOL0     C81988   3.669   0.685   6.738 -0.2852 -0.5596 -0.3231
  622MOL0     N81989   3.537   0.619   6.711 -0.9114  1.1981  0.0313
  622MOL0     C81990   3.509   0.521   6.614  0.1254 -0.0402  0.4661
  622MOL0     C81991   3.369   0.502   6.630 -0.3936  0.0857  0.0821
  622MOL0     C81992   3.286   0.397   6.561  0.6808 -0.4181  0.1078
  622MOL0     C81993   3.153   0.455   6.496  0.6125  0.6335 -0.4383
  622MOL0     C81994   3.182   0.554   6.393 -0.1012 -0.3295  0.1929
  622MOL0     C81995   3.076   0.645   6.355  0.3974  0.0215  0.5780
  622MOL0     O81996   2.982   0.585   6.271  0.2319 -0.5340  0.0496
  622MOL0     C81997   2.874   0.514   6.330 -0.8526 -0.3617 -0.2322
  622MOL0     C81998   2.836   0.381   6.285  0.2199  0.4373  0.5847
  622MOL0     C81999   2.720   0.318   6.331  0.9483 -0.3885  0.5026
  622MOL0     C82000   2.633   0.377   6.424  0.1316 -0.2989 -0.0780
  622MOL0     C82001   2.507   0.312   6.455 -0.1505  0.2439  0.3759
  622MOL0     O82002   2.493   0.175   6.418  0.0015  0.2724  0.4704
  622MOL0     C82003   2.374   0.107   6.436 -0.6729 -0.3297  0.3184
  622MOL0     C82004   2.309   0.097   6.554  0.9359  0.8778 -0.4930
  622MOL0     C82005   2.182   0.047   6.573 -0.0526 -0.3050 -0.5847
  622MOL0     C82006   2.123  -0.025   6.468 -0.4896 -0.2887 -0.6491
  622MOL0     O82007   2.002  -0.074   6.505  0.0908 -0.1287  0.3271
  622MOL0     C82008   1.900  -0.101   6.407  0.4437 -0.7071  0.8229
  622MOL0     C82009   1.772  -0.117   6.477 -0.6061  0.1216  0.0107
  622MOL0     C82010   1.736   0.012   6.548  0.1243 -0.0847 -0.6159
  622MOL0     C82011   1.590  -0.006   6.603  0.1542  0.5416 -0.0479
  622MOL0     C82012   1.559   0.126   6.673  0.2264  1.2855  0.2450
  622MOL0     C82013   1.647   0.164   6.794  0.6439  0.1894  0.2033
  622MOL0     C82014   1.648   0.053   6.902  0.1826 -0.0266  0.3132
  622MOL0     C82015   1.766   0.087   6.991 -0.1338  0.3469 -0.4004
  622MOL0    Cl82016   1.924   0.059   6.916 -0.0114  0.0476  0.7479
  622MOL0     C82017   2.194  -0.028   6.346  0.9198  0.0197  0.9277
  622MOL0     C82018   2.323   0.037   6.333 -0.8062  0.2460  1.0386
  622MOL0     O82019   2.412   0.380   6.499 -0.2427  0.2870 -0.0192
  622MOL0     C82020   2.671   0.506   6.473 -0.1845  0.0676 -0.2301
  622MOL0     C82021   2.792   0.562   6.431 -0.9569  0.0449  0.2827
  622MOL0     N82022   3.319   0.587   6.731 -0.5710  0.7390 -0.4617
  622MOL0     N82023   3.421   0.654   6.769 -0.1750 -0.1584 -0.4258
  622MOL0     C82024   4.641   0.965   6.458  0.9001 -0.1826 -1.0236
  622MOL0     C82025   4.761   1.001   6.397  0.4706  0.1093 -0.3022
  622MOL0     C82026   5.152   1.203   6.266 -0.2165  0.2051 -0.8596
  622MOL0     C82027   5.206   1.278   6.368 -0.7716 -0.4617  0.4604
  622MOL0     C82028   5.337   1.334   6.347  0.2637 -0.5445  0.1429
  622MOL0     C82029   5.402   1.331   6.222  0.3166  0.8538 -0.0406
  622MOL0     O82030   5.522   1.387   6.189  0.1732 -0.1502  0.9140
  622MOL0     C82031   5.568   1.497   6.263  0.2324  0.2665 -0.8370
  622MOL0     C82032   5.686   1.550   6.185  0.4914  0.1417 -1.3861
  622MOL0     C82033   5.739   1.667   6.272 -0.2512 -0.3855 -0.0392
  622MOL0     C82034   5.868   1.740   6.217  0.7190 -0.1860 -0.1711
  622MOL0     C82035   5.836   1.788   6.078 -0.0409  0.5763 -0.7717
  622MOL0     C82036   5.793   1.841   5.978 -0.2134 -0.6833 -0.0698
  622MOL0     C82037   5.344   1.241   6.126 -1.4193 -0.9071 -0.5817
  622MOL0     C82038   5.220   1.193   6.142 -0.2969  0.5693 -0.3896
  622MOL0     H82039   4.782   1.307   6.537  1.6411 -0.6030 -1.5693
  622MOL0     H82040   4.564   1.243   6.628 -2.4944 -1.9210 -0.3511
  622MOL0     H82041   4.379   0.816   6.538  1.4229  1.1074  1.5085
  622MOL0     H82042   4.373   0.937   6.406  2.8632  0.2891 -0.2858
  622MOL0     H82043   4.155   0.883   6.479  0.7854 -3.9815  3.0073
  622MOL0     H82044   4.204   1.056   6.515  4.7329  0.3935 -1.7917
  622MOL0     H82045   4.238   1.003   6.734 -0.9410  0.9265  0.3336
  622MOL0     H82046   4.184   0.831   6.736 -1.2859 -0.2194  0.0168
  622MOL0     H82047   4.014   0.988   6.840 -0.2896  0.1594  0.8923
  622MOL0     H82048   4.001   1.079   6.691 -1.5804 -0.6792 -0.6072
  622MOL0     H82049   3.951   0.775   6.671 -0.6546  0.6348  1.3877
  622MOL0     H82050   3.941   0.900   6.551  1.9339  1.7083 -1.0628
  622MOL0     H82051   3.761   1.014   6.699 -0.7440  0.1841 -0.2699
  622MOL0     H82052   3.787   0.893   6.821 -2.6299 -0.4225 -0.2150
  622MOL0     H82053   3.582   0.861   6.668 -1.2152 -1.7333 -0.9413
  622MOL0     H82054   3.694   0.799   6.550  0.8652 -0.8161  1.1272
  622MOL0     H82055   3.677   0.713   6.844  1.1675  1.2802 -0.8736
  622MOL0     H82056   3.755   0.622   6.713  0.4300 -0.3282  1.4171
  622MOL0     H82057   3.584   0.475   6.552 -0.4432 -0.6529  0.2142
  622MOL0     H82058   3.259   0.327   6.640  2.8448 -0.6015  0.7301
  622MOL0     H82059   3.348   0.337   6.494 -0.0792 -0.1463 -0.8686
  622MOL0     H82060   3.084   0.493   6.572 -1.0719 -1.4496 -0.8349
  622MOL0     H82061   3.112   0.367   6.446 -0.2756 -0.0419  1.3602
  622MOL0     H82062   3.268   0.611   6.428  0.4450 -0.3831 -1.0216
  622MOL0     H82063   3.219   0.498   6.307  0.2528 -0.3945  0.3882
  622MOL0     H82064   3.126   0.724   6.298  0.7194  1.0037  2.1584
  622MOL0     H82065   3.025   0.697   6.437  0.0315  2.4182 -1.0595
  622MOL0     H82066   2.890   0.315   6.218 -1.0452 -0.6849  0.6355
  622MOL0     H82067   2.695   0.218   6.296 -1.2993 -0.3218  1.7590
  622MOL0     H82068   2.350   0.146   6.642  0.7734  1.6377 -0.8317
  622MOL0     H82069   2.122   0.054   6.663 -1.4072 -2.0209 -1.2906
  622MOL0     H82070   1.919  -0.186   6.341 -1.6835 -0.8496  0.3100
  622MOL0     H82071   1.886  -0.008   6.351 -3.5916 -2.5097 -1.5854
  622MOL0     H82072   1.773  -0.203   6.545 -3.0055 -1.5394 -1.8765
  622MOL0     H82073   1.700  -0.144   6.400  1.2354 -0.3129 -1.6290
  622MOL0     H82074   1.737   0.093   6.474  0.3375  0.4005 -0.0930
  622MOL0     H82075   1.810   0.040   6.625 -0.6967  0.2700  0.0570
  622MOL0     H82076   1.524  -0.009   6.516 -2.6520  0.0918  1.9754
  622MOL0     H82077   1.578  -0.093   6.669  2.1497 -0.0212 -0.3508
  622MOL0     H82078   1.456   0.121   6.709 -0.2080 -1.3411 -1.1092
  622MOL0     H82079   1.567   0.211   6.604  2.3247 -0.4438 -1.8157
  622MOL0     H82080   1.599   0.250   6.843  3.2658  2.7737 -1.4197
  622MOL0     H82081   1.747   0.195   6.762  0.5686  0.3325  0.1055
  622MOL0     H82082   1.548   0.051   6.949 -1.2736 -0.8506 -2.6286
  622MOL0     H82083   1.663  -0.046   6.860  0.2451 -0.9334  2.3246
  622MOL0     H82084   1.776   0.024   7.079 -3.6025  0.3512  0.1234
  622MOL0     H82085   1.758   0.193   7.017 -3.8168  0.5467 -1.7749
  622MOL0     H82086   2.151  -0.080   6.261  0.9768  0.8405  0.3871
  622MOL0     H82087   2.358   0.036   6.230 -3.6592 -0.3356 -0.0332
  622MOL0     H82088   2.607   0.562   6.540 -0.3043  3.5887 -2.9750
  622MOL0     H82089   2.815   0.659   6.474 -3.2815  0.3528  0.9625
  622MOL0     H82090   4.602   0.867   6.432  0.5044 -0.8794  1.8410
  622MOL0     H82091   4.818   0.923   6.348  0.9215 -0.6945  1.4279
  622MOL0     H82092   5.166   1.308   6.465  0.3496 -2.0676  1.4808
  622MOL0     H82093   5.389   1.397   6.419  1.8695 -1.3953 -0.2179
  622MOL0     H82094   5.595   1.468   6.365  1.8349  0.6903 -1.1011
  622MOL0     H82095   5.487   1.570   6.266  0.9525  1.0507  0.3300
  622MOL0     H82096   5.768   1.480   6.169  2.1184  1.6707 -0.0892
  622MOL0     H82097   5.643   1.588   6.091 -1.6664 -1.4133 -1.1032
  622MOL0     H82098   5.763   1.629   6.371 -1.5505  2.5387  1.5291
  622MOL0     H82099   5.661   1.743   6.285 -0.6337 -0.7324 -0.2693
  622MOL0     H82100   5.904   1.824   6.278  0.0280  0.8067 -1.0873
  622MOL0     H82101   5.947   1.666   6.209  0.0272 -1.3673  2.6349
  622MOL0     H82102   5.750   1.890   5.894 -1.8437 -2.7704 -0.5654
  622MOL0     H82103   5.409   1.226   6.040  2.2141 -0.5645  1.8907
  622MOL0     H82104   5.189   1.134   6.056  1.5543  0.2747 -0.8854
  623MOL0     O82105   7.828   1.711   1.978 -0.1698  0.6577  0.2671
  623MOL0     C82106   7.838   1.713   2.096 -1.3211  0.6934  0.1042
  623MOL0     O82107   7.733   1.690   2.183 -0.3453  0.9880  0.3003
  623MOL0     C82108   7.608   1.705   2.135 -0.4540 -0.0974 -0.0636
  623MOL0     C82109   7.576   1.819   2.066  0.2826 -0.2261  0.2870
  623MOL0     C82110   7.435   1.843   2.040 -0.1323  0.5610 -0.4941
  623MOL0     C82111   7.336   1.750   2.085 -0.7003 -0.9152  0.3945
  623MOL0     O82112   7.205   1.795   2.077 -0.0180  0.0293  0.1810
  623MOL0     C82113   7.121   1.789   2.196 -0.0540  0.1091  1.3632
  623MOL0     C82114   7.042   1.652   2.221 -0.0553 -0.1291 -0.3255
  623MOL0     C82115   6.953   1.619   2.103  0.6452  1.0957  0.0026
  623MOL0     C82116   6.869   1.489   2.133 -0.4933 -0.3410  0.5674
  623MOL0     C82117   6.733   1.509   2.197 -0.2634  0.8857  0.0930
  623MOL0     C82118   6.628   1.586   2.119 -0.4341  0.5838 -0.1570
  623MOL0     C82119   6.487   1.561   2.164  0.0786  0.3217  0.3795
  623MOL0     C82120   6.472   1.626   2.306  0.0917 -0.4847  0.5868
  623MOL0     N82121   6.324   1.618   2.332  0.0874  0.3890 -0.0721
  623MOL0     C82122   6.227   1.721   2.333 -0.0149 -0.0972 -0.6923
  623MOL0     C82123   6.111   1.662   2.376 -0.0954  0.7704  0.3767
  623MOL0     C82124   5.967   1.713   2.374 -0.7637  0.1041 -0.0938
  623MOL0     C82125   5.917   1.755   2.241  0.2520  0.1302 -0.2804
  623MOL0     C82126   5.793   1.844   2.239 -0.3114 -0.3502  0.2305
  623MOL0     C82127   5.654   1.777   2.243 -0.0579  0.9158  0.2163
  623MOL0     O82128   5.550   1.854   2.301  0.5563  1.2108 -0.0190
  623MOL0     C82129   5.430   1.790   2.319  0.0840  0.6656  0.1957
  623MOL0     C82130   5.386   1.660   2.283 -0.2088 -0.1735  0.1352
  623MOL0     C82131   5.257   1.618   2.306  0.1922 -0.4238  1.2210
  623MOL0     C82132   5.168   1.696   2.383 -0.5688  0.0489  0.5251
  623MOL0     C82133   5.031   1.645   2.412  0.8353 -0.0630 -0.0166
  623MOL0     O82134   4.928   1.735   2.446 -0.2237 -0.0264 -0.5068
  623MOL0     C82135   4.802   1.684   2.460 -0.7582 -0.3944 -0.2818
  623MOL0     C82136   4.740   1.628   2.353 -0.3064  0.5735  0.9149
  623MOL0     C82137   4.604   1.589   2.370 -0.7340 -0.5499  0.8945
  623MOL0     C82138   4.533   1.609   2.484 -0.3675  0.2243 -0.3833
  623MOL0     O82139   4.410   1.561   2.514  0.5105 -0.2198  0.4268
  623MOL0     C82140   4.352   1.467   2.429  0.1572 -0.5557 -0.1901
  623MOL0     C82141   4.226   1.431   2.498  0.3749  0.2095  0.2547
  623MOL0     C82142   4.154   1.340   2.405 -0.9254  0.2456  0.6306
  623MOL0     C82143   4.009   1.327   2.433  0.1120  0.3531 -0.3227
  623MOL0     C82144   3.972   1.303   2.574  0.3901  0.9087  0.5526
  623MOL0     C82145   3.821   1.259   2.611  0.2520  0.1709 -0.4315
  623MOL0     C82146   3.778   1.136   2.536  0.0293 -1.1561  0.6971
  623MOL0     C82147   3.630   1.125   2.552 -0.5413  0.4165  0.8976
  623MOL0    Cl82148   3.572   1.062   2.714 -0.2956 -0.0753 -0.1505
  623MOL0     C82149   4.606   1.664   2.589 -0.5437  0.0001  0.3433
  623MOL0     C82150   4.738   1.700   2.578 -1.1726 -0.3347 -0.3467
  623MOL0     O82151   5.020   1.524   2.399 -0.6145 -0.3346  0.0871
  623MOL0     C82152   5.206   1.827   2.426 -0.0246  0.0170 -0.7122
  623MOL0     C82153   5.339   1.872   2.389  0.4915  0.6351  0.7773
  623MOL0     N82154   6.143   1.530   2.404  0.5888  0.0579 -0.2269
  623MOL0     N82155   6.260   1.505   2.368 -0.1526  0.3556 -0.3087
  623MOL0     C82156   7.381   1.634   2.139 -0.4461  0.1552  0.3560
  623MOL0     C82157   7.518   1.612   2.162 -0.4363 -0.1687 -0.0584
  623MOL0     C82158   7.960   1.754   2.153 -0.3730  0.0457 -1.2526
  623MOL0     C82159   8.068   1.795   2.068  0.5785  0.2846  0.8664
  623MOL0     C82160   8.178   1.859   2.116 -0.7620  0.8783  0.0173
  623MOL0     C82161   8.193   1.887   2.254 -0.2069 -0.1283 -0.4451
  623MOL0     O82162   8.289   1.966   2.309  0.7040  0.4709 -0.4881
  623MOL0     C82163   8.337   2.077   2.236  1.1039  0.7370  0.2399
  623MOL0     C82164   8.475   2.028   2.173 -0.6994 -0.0772  0.1655
  623MOL0     C82165   8.537   2.155   2.119 -1.2952 -0.4451  0.8288
  623MOL0     C82166   8.689   2.134   2.066 -0.6841 -0.1139 -0.2205
  623MOL0     C82167   8.776   2.112   2.181  0.0397  0.6580  0.3127
  623MOL0     C82168   8.853   2.093   2.272 -0.9666  0.1341  0.0678
  623MOL0     C82169   8.096   1.834   2.349 -0.1679  0.9961 -0.0931
  623MOL0     C82170   7.983   1.767   2.293  0.7445 -0.3458  0.7738
  623MOL0     H82171   7.651   1.886   2.026 -0.2899  0.4549  0.3168
  623MOL0     H82172   7.400   1.939   2.005  0.0335  0.6809 -0.3366
  623MOL0     H82173   7.053   1.869   2.166  0.9749  0.5113  0.0042
  623MOL0     H82174   7.168   1.818   2.290 -0.0080 -5.1443  3.3461
  623MOL0     H82175   6.977   1.664   2.307  0.7968  2.3071  0.0632
  623MOL0     H82176   7.105   1.569   2.254 -1.8824 -1.4090  0.0397
  623MOL0     H82177   7.017   1.589   2.019  0.2434 -0.5563  0.2405
  623MOL0     H82178   6.890   1.699   2.063  1.0054  0.5909 -1.6631
  623MOL0     H82179   6.845   1.453   2.032 -2.2652 -0.4614  1.0148
  623MOL0     H82180   6.924   1.422   2.201 -3.8089  0.7795  4.7809
  623MOL0     H82181   6.733   1.536   2.303 -0.8253  1.0996  0.0447
  623MOL0     H82182   6.695   1.407   2.201  0.0617  0.8099  2.1473
  623MOL0     H82183   6.643   1.557   2.015  0.3849 -3.5225  0.9334
  623MOL0     H82184   6.657   1.691   2.131  1.6942 -0.1745  2.6671
  623MOL0     H82185   6.418   1.615   2.099  1.5832  0.8449 -0.8387
  623MOL0     H82186   6.460   1.455   2.156  0.6530  0.1844  0.1845
  623MOL0     H82187   6.513   1.727   2.310 -2.8754  0.9249 -1.2880
  623MOL0     H82188   6.522   1.555   2.372  1.6730 -0.6026 -0.6983
  623MOL0     H82189   6.244   1.823   2.301 -0.6951 -0.1468 -1.2249
  623MOL0     H82190   5.992   1.800   2.436  1.2458  0.9034 -1.9260
  623MOL0     H82191   5.907   1.640   2.429 -0.5355  0.6488  0.9203
  623MOL0     H82192   5.894   1.666   2.182  3.1384 -1.5315  0.9046
  623MOL0     H82193   5.996   1.813   2.191  1.1700 -0.4702  0.4346
  623MOL0     H82194   5.800   1.918   2.319 -2.1560 -0.1907  0.3019
  623MOL0     H82195   5.803   1.906   2.150  1.4484  0.7361  1.1378
  623MOL0     H82196   5.662   1.678   2.288 -1.1262  0.6684 -0.1138
  623MOL0     H82197   5.623   1.750   2.142 -1.4250  0.8565  0.6374
  623MOL0     H82198   5.446   1.582   2.237 -2.6231 -1.2467 -1.3742
  623MOL0     H82199   5.225   1.520   2.271 -0.1055  0.4174 -1.0478
  623MOL0     H82200   4.794   1.612   2.259 -0.2241 -4.2887  1.5420
  623MOL0     H82201   4.561   1.547   2.279 -0.9527  2.8723 -0.7296
  623MOL0     H82202   4.424   1.385   2.418 -0.7492 -1.4483  0.3775
  623MOL0     H82203   4.330   1.511   2.331 -1.3990  1.4496  0.9899
  623MOL0     H82204   4.163   1.510   2.538  1.1513  0.2630  1.3973
  623MOL0     H82205   4.251   1.380   2.591 -1.6677 -2.5593 -0.5949
  623MOL0     H82206   4.198   1.240   2.408 -1.0132  0.2175  1.0598
  623MOL0     H82207   4.156   1.369   2.300  0.4724 -3.0069 -0.3478
  623MOL0     H82208   3.961   1.417   2.394 -0.8992  0.8342  1.8766
  623MOL0     H82209   3.975   1.235   2.383 -0.4876  0.6834 -0.5412
  623MOL0     H82210   4.004   1.388   2.634  0.3006 -0.4246  2.5716
  623MOL0     H82211   4.017   1.210   2.607  1.0319  0.9718 -0.1236
  623MOL0     H82212   3.756   1.346   2.597 -0.7384 -0.3445  0.8353
  623MOL0     H82213   3.830   1.229   2.716 -3.0258 -0.2438 -0.1901
  623MOL0     H82214   3.792   1.149   2.428 -0.3367  2.9758  0.9907
  623MOL0     H82215   3.828   1.044   2.568 -1.0140 -1.8690  0.3009
  623MOL0     H82216   3.595   1.053   2.478  0.4476  3.1369 -2.4340
  623MOL0     H82217   3.591   1.223   2.522  0.0251  0.9021  1.7015
  623MOL0     H82218   4.550   1.679   2.680  0.3154  1.2661  0.6842
  623MOL0     H82219   4.780   1.740   2.670 -4.0913  0.0126  0.9653
  623MOL0     H82220   5.142   1.899   2.475  1.4524  1.1316 -0.3461
  623MOL0     H82221   5.380   1.969   2.417 -1.0524  1.2198  1.1249
  623MOL0     H82222   7.310   1.560   2.173  0.4766 -2.2115 -2.4479
  623MOL0     H82223   7.556   1.521   2.207 -0.5442 -0.1363  0.0964
  623MOL0     H82224   8.062   1.776   1.961 -3.3510  2.0818  0.5929
  623MOL0     H82225   8.250   1.890   2.041 -0.7037 -3.0234 -1.7796
  623MOL0     H82226   8.346   2.158   2.309  1.7394 -1.2554  2.4991
  623MOL0     H82227   8.265   2.109   2.160  2.5085 -1.2688 -2.1339
  623MOL0     H82228   8.540   1.991   2.253 -2.3361 -2.8651  0.3328
  623MOL0     H82229   8.459   1.951   2.097 -1.8854 -1.4746  1.7526
  623MOL0     H82230   8.542   2.231   2.197 -1.9060  1.7525 -1.1481
  623MOL0     H82231   8.487   2.202   2.033 -2.4601 -0.9142  1.2288
  623MOL0     H82232   8.693   2.053   1.992  0.7390  2.5140 -3.2623
  623MOL0     H82233   8.727   2.224   2.017 -2.2910  1.7202  1.6892
  623MOL0     H82234   8.908   2.089   2.364  5.5104  1.5254 -3.2204
  623MOL0     H82235   8.098   1.858   2.454 -1.4859  1.9789 -0.2601
  623MOL0     H82236   7.906   1.728   2.359 -0.2279  2.2953  1.3245
  624MOL0     O82237   3.420   5.120  10.262  0.0937  0.5683 -0.2881
  624MOL0     C82238   3.448   5.099  10.383 -0.1122  0.1716  0.9994
  624MOL0     O82239   3.375   5.024  10.474 -0.1831 -0.6859  0.3792
  624MOL0     C82240   3.266   4.949  10.417 -0.0175 -0.5287 -0.1500
  624MOL0     C82241   3.273   4.815  10.388  0.0162 -0.8992 -0.8239
  624MOL0     C82242   3.160   4.750  10.348 -0.0042  0.4871  0.0131
  624MOL0     C82243   3.044   4.824  10.327  0.7816 -0.4628 -0.2448
  624MOL0     O82244   2.933   4.762  10.286 -0.0187 -0.2747 -0.0327
  624MOL0     C82245   2.904   4.615  10.314 -1.1543 -0.9631 -0.3905
  624MOL0     C82246   2.758   4.589  10.273  0.5026  0.4907  0.0353
  624MOL0     C82247   2.721   4.444  10.311  0.1569  0.3590 -0.3580
  624MOL0     C82248   2.577   4.419  10.260  0.7623  1.5939 -1.4230
  624MOL0     C82249   2.546   4.271  10.258  0.0357  0.2466 -0.7395
  624MOL0     C82250   2.399   4.228  10.258 -0.2236 -0.3006  0.8550
  624MOL0     C82251   2.392   4.077  10.250 -1.3199  1.2021  0.4005
  624MOL0     C82252   2.246   4.040  10.216  1.0158 -0.5772 -0.3618
  624MOL0     N82253   2.186   4.069  10.085  0.4091 -0.5677 -0.3710
  624MOL0     C82254   2.222   4.028   9.964 -0.8945 -0.7658 -1.7241
  624MOL0     C82255   2.140   4.072   9.873 -0.4161 -0.2954 -0.4728
  624MOL0     C82256   2.156   4.051   9.724  0.4642 -0.2735 -0.8297
  624MOL0     C82257   2.030   3.970   9.662 -0.3857 -0.7217 -0.4126
  624MOL0     C82258   1.892   4.052   9.666  0.3175  0.6529 -0.3472
  624MOL0     C82259   1.774   3.961   9.720 -0.0644 -0.5470  1.0619
  624MOL0     O82260   1.663   4.048   9.727  0.4916  0.5276 -0.5168
  624MOL0     C82261   1.546   4.020   9.659 -0.4039 -0.9748  0.1800
  624MOL0     C82262   1.532   3.937   9.545  0.2933  0.0948  0.0730
  624MOL0     C82263   1.401   3.911   9.499  0.5586 -0.4826 -0.4328
  624MOL0     C82264   1.287   3.970   9.551 -0.8302  0.7430 -0.7138
  624MOL0     C82265   1.163   3.905   9.519  0.6647 -0.0438  0.4754
  624MOL0     O82266   1.043   3.967   9.548 -0.7442 -0.9715 -0.3943
  624MOL0     C82267   0.935   3.883   9.545  0.0972 -0.0868 -0.0597
  624MOL0     C82268   0.880   3.827   9.652  0.5493 -0.2916 -0.2499
  624MOL0     C82269   0.766   3.741   9.642  0.2663  0.8853 -0.5838
  624MOL0     C82270   0.695   3.736   9.518 -0.1220 -0.6673 -0.2623
  624MOL0     O82271   0.571   3.673   9.504 -0.2614 -0.6161  0.0803
  624MOL0     C82272   0.482   3.701   9.605  0.8127  0.1505 -0.3437
  624MOL0     C82273   0.337   3.640   9.577 -0.2552  0.9468 -0.0424
  624MOL0     C82274   0.261   3.701   9.455 -0.3782 -0.0482  0.5148
  624MOL0     C82275   0.276   3.626   9.324  0.8959  0.3573  0.2610
  624MOL0     C82276   0.249   3.714   9.207  0.9281 -0.0779  0.6710
  624MOL0     C82277   0.370   3.806   9.178 -0.0633  0.5289  0.3675
  624MOL0     C82278   0.331   3.902   9.058 -0.5171 -0.1294 -0.0139
  624MOL0     C82279   0.459   3.969   9.002 -0.6351  0.3735 -0.2426
  624MOL0    Cl82280   0.586   3.857   8.930  0.3861  0.0604 -0.1211
  624MOL0     C82281   0.745   3.802   9.408  0.5776  0.1336 -0.3229
  624MOL0     C82282   0.867   3.882   9.424 -0.3327  1.0792  0.3216
  624MOL0     O82283   1.174   3.793   9.468  0.1882 -0.3930  0.0486
  624MOL0     C82284   1.312   4.065   9.654 -0.5701 -0.7964  0.1115
  624MOL0     C82285   1.438   4.095   9.703  0.3743  0.0906 -0.4978
  624MOL0     N82286   2.061   4.158   9.945  0.1548  0.5077 -0.4876
  624MOL0     N82287   2.084   4.154  10.072 -0.1239 -0.3822 -0.7026
  624MOL0     C82288   3.042   4.965  10.335  0.1524  0.0873 -0.1445
  624MOL0     C82289   3.156   5.026  10.377  0.7364  0.0915 -0.0976
  624MOL0     C82290   3.569   5.169  10.443 -0.7302 -0.0728  0.4573
  624MOL0     C82291   3.602   5.154  10.572 -0.6381  0.2491  0.5854
  624MOL0     C82292   3.704   5.228  10.632 -0.3841 -0.8257  0.2509
  624MOL0     C82293   3.775   5.326  10.561  0.2362 -0.5482 -0.9506
  624MOL0     O82294   3.879   5.387  10.638 -0.8156  0.8148  0.4790
  624MOL0     C82295   3.936   5.504  10.563  0.7772 -0.7284 -0.5748
  624MOL0     C82296   4.024   5.577  10.660  0.5901 -0.1445 -0.0811
  624MOL0     C82297   4.146   5.492  10.697 -0.1030  0.4169  0.5273
  624MOL0     C82298   4.239   5.548  10.806  0.6585 -0.0686  0.2029
  624MOL0     C82299   4.350   5.459  10.841 -0.3011  0.4425  0.3910
  624MOL0     C82300   4.455   5.405  10.861  0.0718  0.3670  0.2052
  624MOL0     C82301   3.747   5.332  10.422  0.0377 -0.0708 -0.3657
  624MOL0     C82302   3.651   5.247  10.359  0.1761 -0.1086  0.2743
  624MOL0     H82303   3.364   4.767  10.424 -0.1791 -0.8479 -0.2569
  624MOL0     H82304   3.163   4.642  10.354 -1.6479  0.4426  0.4840
  624MOL0     H82305   2.925   4.610  10.422  0.4071  1.0506 -0.5345
  624MOL0     H82306   2.976   4.555  10.258 -1.7485 -0.8266 -1.3215
  624MOL0     H82307   2.749   4.603  10.165 -1.5820  0.2144  0.1279
  624MOL0     H82308   2.689   4.660  10.319 -0.1718  0.9820 -1.6578
  624MOL0     H82309   2.732   4.436  10.419  0.5129 -0.4838 -0.4518
  624MOL0     H82310   2.792   4.381  10.257  0.3429 -0.2155  0.5365
  624MOL0     H82311   2.508   4.467  10.330 -0.3381 -1.1193 -0.5258
  624MOL0     H82312   2.564   4.474  10.166  2.7223  3.1164 -0.8532
  624MOL0     H82313   2.601   4.232  10.345 -0.9827  1.2404  0.3842
  624MOL0     H82314   2.600   4.229  10.173  3.4161 -1.3631  1.9236
  624MOL0     H82315   2.345   4.280  10.179  0.9577  0.1268  0.3061
  624MOL0     H82316   2.355   4.263  10.352  2.1756  4.0127  0.6484
  624MOL0     H82317   2.455   4.042  10.168 -3.0249 -0.2579 -0.3349
  624MOL0     H82318   2.435   4.031  10.339  3.5045 -1.3306 -2.8259
  624MOL0     H82319   2.187   4.097  10.289 -1.5935  2.2100 -4.2670
  624MOL0     H82320   2.228   3.934  10.238 -1.0090 -0.4988 -1.4046
  624MOL0     H82321   2.310   3.967   9.950  0.2545 -0.2282  2.1079
  624MOL0     H82322   2.255   4.019   9.689  1.6324  0.5946  1.4785
  624MOL0     H82323   2.150   4.148   9.674 -0.5639 -0.4408 -1.0584
  624MOL0     H82324   2.022   3.873   9.711  3.9191  0.1288  2.4572
  624MOL0     H82325   2.061   3.970   9.557 -0.7968 -0.4710 -0.5384
  624MOL0     H82326   1.900   4.140   9.729  3.6950 -0.6543  1.2837
  624MOL0     H82327   1.870   4.089   9.565  2.5259 -0.2895 -1.2407
  624MOL0     H82328   1.782   3.919   9.821 -0.6697 -3.2805  0.0643
  624MOL0     H82329   1.756   3.879   9.650  0.1523 -0.1119  0.4926
  624MOL0     H82330   1.616   3.889   9.496  1.9157  3.0281 -0.3147
  624MOL0     H82331   1.391   3.836   9.421  0.5214 -0.2966 -0.6076
  624MOL0     H82332   0.924   3.834   9.751  2.2890  0.5292 -1.0447
  624MOL0     H82333   0.732   3.680   9.725 -0.9882 -0.2597 -1.8850
  624MOL0     H82334   0.481   3.810   9.619 -0.9025  0.2477 -0.9176
  624MOL0     H82335   0.522   3.660   9.698 -2.4975 -1.2855  0.6190
  624MOL0     H82336   0.280   3.655   9.669 -1.9773 -3.1321 -0.2285
  624MOL0     H82337   0.341   3.531   9.570 -4.2337  0.6265  0.5008
  624MOL0     H82338   0.291   3.806   9.447 -1.3186  0.0984 -1.7317
  624MOL0     H82339   0.155   3.714   9.475 -0.7934  1.0985 -2.0266
  624MOL0     H82340   0.379   3.587   9.321  0.7138 -0.0988 -0.1415
  624MOL0     H82341   0.213   3.537   9.320 -2.4272  2.5740 -1.2341
  624MOL0     H82342   0.161   3.777   9.222  0.2567 -0.8325 -0.0212
  624MOL0     H82343   0.228   3.648   9.123  0.8708  0.8027 -0.0238
  624MOL0     H82344   0.455   3.743   9.149 -1.4796 -1.4632  0.3351
  624MOL0     H82345   0.399   3.848   9.275 -0.8873 -1.3906  1.5110
  624MOL0     H82346   0.282   3.852   8.974  1.2850 -0.3770 -0.9674
  624MOL0     H82347   0.257   3.970   9.099  2.9684  3.6211  0.6939
  624MOL0     H82348   0.499   4.022   9.089 -0.5136 -1.0782  0.6171
  624MOL0     H82349   0.431   4.038   8.922  0.6159 -0.4861 -1.4703
  624MOL0     H82350   0.694   3.785   9.314 -1.7491 -0.0234  0.9089
  624MOL0     H82351   0.902   3.936   9.337 -1.7586  0.3672 -0.7312
  624MOL0     H82352   1.233   4.130   9.691 -2.6686 -1.5600 -2.6921
  624MOL0     H82353   1.459   4.178   9.770 -0.1489 -0.1223 -0.0615
  624MOL0     H82354   2.953   5.016  10.300  0.5935 -0.1868 -1.7188
  624MOL0     H82355   3.166   5.134  10.385 -1.6164  0.3431 -0.0312
  624MOL0     H82356   3.544   5.090  10.637 -1.0166  2.1584  2.2392
  624MOL0     H82357   3.734   5.221  10.736  0.0049  1.8893  0.3854
  624MOL0     H82358   3.854   5.570  10.531  2.8568  2.3376  0.0326
  624MOL0     H82359   3.989   5.470  10.474  0.4168  2.2111 -2.0599
  624MOL0     H82360   4.065   5.669  10.617 -1.2464  0.2036 -1.1854
  624MOL0     H82361   3.962   5.602  10.747 -0.0756 -5.1261  1.1506
  624MOL0     H82362   4.198   5.457  10.608 -3.7100 -1.6657 -0.9713
  624MOL0     H82363   4.111   5.397  10.738 -0.6659  1.5984  3.0059
  624MOL0     H82364   4.291   5.638  10.772 -1.8877  1.5529  0.3126
  624MOL0     H82365   4.177   5.580  10.891 -0.4827 -0.5450 -0.4289
  624MOL0     H82366   4.553   5.369  10.882  0.2762  0.5942 -0.3580
  624MOL0     H82367   3.799   5.398  10.352 -2.9788 -0.1409 -2.8855
  624MOL0     H82368   3.630   5.245  10.253 -3.1732 -2.7299  0.8108
  625MOL0     O82369   1.078   7.646   8.058  0.1456  0.7391 -0.0489
  625MOL0     C82370   1.172   7.602   7.989  0.1953  0.2456 -0.8337
  625MOL0     O82371   1.164   7.496   7.901  0.0531 -0.5638 -0.0131
  625MOL0     C82372   1.044   7.439   7.875  0.2491 -0.3000  1.2389
  625MOL0     C82373   0.973   7.489   7.759 -0.0150  0.5461  0.3295
  625MOL0     C82374   0.859   7.426   7.721  0.4690  0.2005  0.0759
  625MOL0     C82375   0.818   7.302   7.783  0.0099  0.4613 -0.5051
  625MOL0     O82376   0.710   7.232   7.745  0.4113 -0.3317  0.4293
  625MOL0     C82377   0.670   7.223   7.604  0.2650  0.5095 -0.1291
  625MOL0     C82378   0.607   7.082   7.577 -1.1817 -0.3278  0.2939
  625MOL0     C82379   0.586   7.063   7.427  0.7404  0.0776 -0.4546
  625MOL0     C82380   0.504   6.929   7.406  0.1681  0.8728 -0.0289
  625MOL0     C82381   0.409   6.950   7.288 -0.6867 -0.4727  0.2289
  625MOL0     C82382   0.476   6.970   7.155 -0.4531 -0.7972 -0.4939
  625MOL0     C82383   0.387   6.940   7.033 -0.4283  0.4724 -0.7419
  625MOL0     C82384   0.464   6.994   6.908 -0.0493 -0.0905  1.0006
  625MOL0     N82385   0.436   6.917   6.782  0.2624  0.1406  0.0526
  625MOL0     C82386   0.313   6.865   6.739  0.4386 -0.3245 -0.3958
  625MOL0     C82387   0.346   6.775   6.645  0.3082  0.4420 -0.2254
  625MOL0     C82388   0.245   6.690   6.580  0.8976 -0.5845 -0.1775
  625MOL0     C82389   0.222   6.557   6.653 -0.1236  0.2767 -0.0682
  625MOL0     C82390   0.126   6.461   6.575 -0.1224 -0.1532  0.8075
  625MOL0     C82391   0.102   6.322   6.640  0.3897 -0.7278 -0.7446
  625MOL0     O82392   0.041   6.231   6.552  0.0322  0.0361 -0.2520
  625MOL0     C82393  -0.096   6.215   6.558  0.0261 -0.5496  0.2137
  625MOL0     C82394  -0.155   6.112   6.495  1.2290  0.7595 -0.7788
  625MOL0     C82395  -0.291   6.106   6.470  0.4024 -0.4264  0.1075
  625MOL0     C82396  -0.373   6.209   6.524  0.2885  0.2520 -0.1480
  625MOL0     C82397  -0.518   6.202   6.510 -0.1492  0.6989 -0.1474
  625MOL0     O82398  -0.585   6.322   6.521 -0.5694  0.3114  0.2258
  625MOL0     C82399  -0.718   6.321   6.498 -0.2029 -0.2770 -0.2021
  625MOL0     C82400  -0.756   6.374   6.375 -0.7359  0.1293  0.5684
  625MOL0     C82401  -0.900   6.389   6.337 -0.7016  1.2082 -0.7632
  625MOL0     C82402  -0.993   6.323   6.414 -0.6172  0.2055  0.1414
  625MOL0     O82403  -1.128   6.313   6.379  0.5533  0.8134 -0.4985
  625MOL0     C82404  -1.218   6.371   6.476  0.3152 -0.6407  0.5247
  625MOL0     C82405  -1.354   6.393   6.422  0.6862  0.1514 -0.2063
  625MOL0     C82406  -1.432   6.272   6.371 -1.4908 -0.0726 -0.1380
  625MOL0     C82407  -1.567   6.298   6.314  0.3639 -0.0750 -0.1098
  625MOL0     C82408  -1.566   6.388   6.185  0.4689  1.7665 -0.3017
  625MOL0     C82409  -1.703   6.392   6.128  0.0032  0.5420  1.3948
  625MOL0     C82410  -1.699   6.465   5.996  0.1733  0.1757  0.5183
  625MOL0     C82411  -1.812   6.571   5.990 -0.0309 -0.6864 -1.4791
  625MOL0    Cl82412  -1.795   6.706   6.119  0.2743 -0.1780  0.6650
  625MOL0     C82413  -0.945   6.250   6.526  0.2167  0.2192  0.5724
  625MOL0     C82414  -0.810   6.260   6.584  0.5878 -0.5755  0.3399
  625MOL0     O82415  -0.567   6.092   6.476  0.6676  0.4095 -0.3311
  625MOL0     C82416  -0.311   6.314   6.600  1.2573 -0.5923 -0.8667
  625MOL0     C82417  -0.176   6.322   6.612  0.3301  0.4251 -1.5095
  625MOL0     N82418   0.477   6.787   6.621 -0.5324  0.2981 -0.4279
  625MOL0     N82419   0.528   6.870   6.698  0.0826  0.5461  0.2379
  625MOL0     C82420   0.887   7.248   7.893  0.4388  0.0515  0.7119
  625MOL0     C82421   0.994   7.327   7.943 -0.1290 -0.3420  0.2578
  625MOL0     C82422   1.301   7.664   8.005 -0.5918 -0.2073 -0.5285
  625MOL0     C82423   1.410   7.615   7.934  0.1339  0.8727 -0.7637
  625MOL0     C82424   1.538   7.653   7.969 -0.9237  0.6132 -0.1633
  625MOL0     C82425   1.565   7.735   8.077 -0.4455 -0.1889 -0.7617
  625MOL0     O82426   1.694   7.779   8.121  0.5444  0.2072  0.0941
  625MOL0     C82427   1.796   7.684   8.101  0.0030 -0.0034 -0.0123
  625MOL0     C82428   1.779   7.583   8.212  0.3071 -0.8974 -0.3902
  625MOL0     C82429   1.902   7.514   8.260  0.3650  0.3984  0.2271
  625MOL0     C82430   1.948   7.409   8.158  0.1784  0.0565 -0.7785
  625MOL0     C82431   1.847   7.317   8.104 -0.0531 -0.4377 -1.0256
  625MOL0     C82432   1.759   7.246   8.068 -0.5692  0.8244 -0.6323
  625MOL0     C82433   1.456   7.784   8.156 -0.8893 -0.0164 -0.3305
  625MOL0     C82434   1.327   7.749   8.117 -0.3064 -0.3675  0.5263
  625MOL0     H82435   1.002   7.568   7.692  0.8096  0.6571  0.8069
  625MOL0     H82436   0.807   7.487   7.647  0.5315  1.4408  1.0315
  625MOL0     H82437   0.762   7.234   7.545  0.9384  0.3189  0.8408
  625MOL0     H82438   0.597   7.300   7.578 -1.0455 -0.8939 -0.7576
  625MOL0     H82439   0.521   7.064   7.642  0.5862 -2.7666  2.1554
  625MOL0     H82440   0.686   7.015   7.613  0.9938  2.5856  1.3431
  625MOL0     H82441   0.679   7.070   7.370  1.9684 -1.0335  1.2721
  625MOL0     H82442   0.523   7.148   7.400  1.4879  0.6561 -0.4275
  625MOL0     H82443   0.563   6.838   7.396 -1.2240  0.0301 -0.8648
  625MOL0     H82444   0.439   6.914   7.492  1.7231 -2.1924  0.7401
  625MOL0     H82445   0.339   7.029   7.316 -3.0681 -1.3534 -2.7080
  625MOL0     H82446   0.347   6.861   7.269 -0.6152  0.0101 -2.7685
  625MOL0     H82447   0.561   6.902   7.143 -0.6087 -0.5855 -3.2600
  625MOL0     H82448   0.520   7.070   7.145  1.7258 -1.6722 -0.3752
  625MOL0     H82449   0.386   6.831   7.031  1.1794  0.4026  0.1322
  625MOL0     H82450   0.288   6.983   7.045 -1.4358 -2.1658  1.3244
  625MOL0     H82451   0.573   6.990   6.921  0.5321  1.8209 -2.2338
  625MOL0     H82452   0.439   7.097   6.884 -1.7768 -1.2289 -2.8022
  625MOL0     H82453   0.213   6.891   6.771  1.8320  3.2327  1.7517
  625MOL0     H82454   0.285   6.673   6.479 -1.0064 -0.6830 -0.9509
  625MOL0     H82455   0.150   6.745   6.579 -0.0015 -2.1026 -0.5007
  625MOL0     H82456   0.168   6.587   6.743 -0.6068 -2.4803  0.6290
  625MOL0     H82457   0.311   6.495   6.667 -1.1170 -1.1306  0.1202
  625MOL0     H82458   0.025   6.502   6.560  0.3244  0.3022 -1.3168
  625MOL0     H82459   0.163   6.450   6.473 -2.2714  0.0949 -0.0539
  625MOL0     H82460   0.056   6.330   6.738 -1.1890  0.0286 -1.5218
  625MOL0     H82461   0.204   6.283   6.652  1.5200  1.0413 -3.4959
  625MOL0     H82462  -0.095   6.037   6.445  2.2014  1.2893 -0.4307
  625MOL0     H82463  -0.339   6.019   6.427  1.4903 -1.8092  1.5784
  625MOL0     H82464  -0.678   6.390   6.301  0.3808 -2.9544  0.9017
  625MOL0     H82465  -0.922   6.439   6.243 -2.1045  1.6022 -0.2438
  625MOL0     H82466  -1.179   6.469   6.506 -2.1865 -0.1490  2.4952
  625MOL0     H82467  -1.227   6.310   6.567  3.0965  2.0001  2.8336
  625MOL0     H82468  -1.347   6.456   6.332  1.1463  0.6363  0.1678
  625MOL0     H82469  -1.414   6.440   6.500  0.7459 -0.6426  0.3235
  625MOL0     H82470  -1.439   6.205   6.457  0.6018 -1.5615 -1.0524
  625MOL0     H82471  -1.375   6.232   6.287 -0.9121  1.4822 -0.5072
  625MOL0     H82472  -1.617   6.207   6.282 -1.0181  0.9456 -0.9418
  625MOL0     H82473  -1.621   6.346   6.395 -0.8279  0.4687 -1.1940
  625MOL0     H82474  -1.495   6.340   6.117 -0.3343 -1.3897  0.9153
  625MOL0     H82475  -1.540   6.493   6.204 -2.1381  2.6960 -1.4292
  625MOL0     H82476  -1.760   6.440   6.208  2.2526  1.0526  2.7653
  625MOL0     H82477  -1.745   6.293   6.111  0.1123  0.9197 -1.7595
  625MOL0     H82478  -1.598   6.503   5.977 -0.1813  0.5605 -0.7237
  625MOL0     H82479  -1.732   6.395   5.919  1.3665  0.6458 -0.4577
  625MOL0     H82480  -1.908   6.521   6.006 -0.9055  1.3435  0.0608
  625MOL0     H82481  -1.813   6.620   5.892  0.8713 -0.1071 -1.2041
  625MOL0     H82482  -1.018   6.184   6.572  0.8307 -1.1044 -0.3036
  625MOL0     H82483  -0.774   6.232   6.682  0.7075  4.2591  1.9547
  625MOL0     H82484  -0.381   6.383   6.646  2.0573 -0.8855  0.8462
  625MOL0     H82485  -0.138   6.411   6.662  0.5608  0.2824 -1.4256
  625MOL0     H82486   0.847   7.155   7.932 -2.1000 -0.8633 -3.4491
  625MOL0     H82487   1.037   7.296   8.037  0.2539  1.8493  0.8548
  625MOL0     H82488   1.388   7.551   7.849  1.3461 -1.2446  0.4367
  625MOL0     H82489   1.609   7.625   7.892 -2.2704  0.6559 -1.4638
  625MOL0     H82490   1.893   7.734   8.107 -0.1075  0.1570  0.4530
  625MOL0     H82491   1.795   7.632   8.004 -0.0772 -1.7618  0.8913
  625MOL0     H82492   1.737   7.634   8.299 -1.3848 -0.5446 -1.3668
  625MOL0     H82493   1.701   7.513   8.179 -0.1391  0.9120 -3.5677
  625MOL0     H82494   1.881   7.464   8.355 -3.8364  0.6819 -0.3524
  625MOL0     H82495   1.978   7.591   8.278  1.8002 -0.9650  0.2378
  625MOL0     H82496   1.995   7.458   8.073 -1.3536  0.8185 -1.2038
  625MOL0     H82497   2.023   7.347   8.210 -1.3758  0.4832  2.2082
  625MOL0     H82498   1.692   7.171   8.034 -1.0758  1.1297 -0.3137
  625MOL0     H82499   1.483   7.852   8.236 -0.1419  1.0132 -1.4214
  625MOL0     H82500   1.246   7.792   8.174  0.3332  2.4666 -0.5214
  626MOL0     O82501   2.988   3.453   2.498 -0.2680 -0.4796  0.3885
  626MOL0     C82502   3.072   3.479   2.410 -0.3513 -1.4092  0.4226
  626MOL0     O82503   3.043   3.528   2.286 -0.3636  0.4764  0.1543
  626MOL0     C82504   2.908   3.554   2.253  1.1225 -0.4347  0.4446
  626MOL0     C82505   2.844   3.483   2.150 -0.9293  0.0561  0.2837
  626MOL0     C82506   2.722   3.518   2.108 -0.0464 -0.4828 -0.1510
  626MOL0     C82507   2.649   3.618   2.173 -0.2404 -0.3751 -0.3148
  626MOL0     O82508   2.527   3.654   2.118 -0.6273 -0.0981 -0.5452
  626MOL0     C82509   2.431   3.717   2.204 -0.9197 -0.3650  0.4779
  626MOL0     C82510   2.298   3.695   2.142  0.1129 -0.4485 -0.2014
  626MOL0     C82511   2.241   3.554   2.133  0.5363  0.0650  0.4233
  626MOL0     C82512   2.086   3.547   2.101  0.4022  0.6765 -0.4090
  626MOL0     C82513   2.059   3.561   1.949 -0.5925  0.4939 -0.4563
  626MOL0     C82514   1.913   3.532   1.918  0.6554  0.2996 -0.7863
  626MOL0     C82515   1.896   3.547   1.763  0.2994 -0.9906 -1.1795
  626MOL0     C82516   1.745   3.544   1.743  0.1208 -0.1710  1.0418
  626MOL0     N82517   1.713   3.563   1.603  0.3253  0.1285  0.5887
  626MOL0     C82518   1.663   3.675   1.542 -0.9171  0.2876 -0.5196
  626MOL0     C82519   1.631   3.639   1.418 -0.2403  0.0815  0.0298
  626MOL0     C82520   1.542   3.722   1.334  0.4148  1.1088  0.9509
  626MOL0     C82521   1.458   3.633   1.224  0.9721 -0.8275 -0.6581
  626MOL0     C82522   1.388   3.732   1.132  0.1280  0.8246 -0.6123
  626MOL0     C82523   1.484   3.801   1.036  0.0980 -0.9762  0.4053
  626MOL0     O82524   1.418   3.882   0.937 -0.4091  0.7058 -0.3459
  626MOL0     C82525   1.501   3.957   0.857 -0.0757 -0.6479 -0.1109
  626MOL0     C82526   1.438   4.023   0.754 -0.0652 -0.5887 -0.6351
  626MOL0     C82527   1.497   4.120   0.670 -0.1860  0.7982 -0.1413
  626MOL0     C82528   1.636   4.136   0.676 -0.2946 -0.4669 -0.3345
  626MOL0     C82529   1.708   4.221   0.582  0.8517  0.4907  0.9660
  626MOL0     O82530   1.844   4.189   0.571 -0.0487 -0.3065  0.9274
  626MOL0     C82531   1.925   4.260   0.477 -0.0853 -0.5525 -0.4806
  626MOL0     C82532   2.041   4.324   0.537  0.2368 -0.6578 -0.1272
  626MOL0     C82533   2.130   4.393   0.451 -0.0137 -0.0700 -0.0199
  626MOL0     C82534   2.105   4.406   0.312  0.3168 -0.4389 -0.3352
  626MOL0     O82535   2.208   4.458   0.244  0.4472 -0.6457 -0.2441
  626MOL0     C82536   2.216   4.431   0.102  0.3156  0.7277 -0.4173
  626MOL0     C82537   2.354   4.439   0.039 -0.1122  0.2663 -0.0212
  626MOL0     C82538   2.425   4.568   0.064  0.2586 -0.9564 -0.4081
  626MOL0     C82539   2.574   4.570   0.019 -0.3067  0.6339  0.0061
  626MOL0     C82540   2.643   4.699   0.024 -0.7288  0.4753 -0.2639
  626MOL0     C82541   2.790   4.677  -0.004  0.1635  0.2097 -0.7746
  626MOL0     C82542   2.873   4.808  -0.002  1.3406 -0.3702  0.2571
  626MOL0     C82543   3.017   4.787  -0.058 -0.4724  1.0933 -0.0645
  626MOL0    Cl82544   3.134   4.920  -0.013  0.4021  0.2085 -0.5624
  626MOL0     C82545   1.984   4.355   0.266 -0.0404 -0.7030  0.3530
  626MOL0     C82546   1.891   4.284   0.347 -0.7406  0.1094 -0.9375
  626MOL0     O82547   1.646   4.301   0.509 -0.2070 -0.2272 -0.1320
  626MOL0     C82548   1.709   4.056   0.774  0.4812 -0.9675  0.1102
  626MOL0     C82549   1.645   3.971   0.865 -0.4507  0.0966  0.4563
  626MOL0     N82550   1.665   3.507   1.400  0.4630  0.8372 -0.5385
  626MOL0     N82551   1.722   3.467   1.508 -0.1386  0.8357 -0.1051
  626MOL0     C82552   2.711   3.692   2.275  0.4575  0.4081  0.0344
  626MOL0     C82553   2.842   3.653   2.316  0.8622 -0.1080  0.5099
  626MOL0     C82554   3.218   3.456   2.459 -0.1893 -0.7345  0.1122
  626MOL0     C82555   3.265   3.454   2.591  0.3649 -1.0162 -0.3103
  626MOL0     C82556   3.394   3.433   2.628 -0.2401  0.7865  0.1945
  626MOL0     C82557   3.494   3.401   2.525  0.3343  0.3533 -0.4390
  626MOL0     O82558   3.628   3.375   2.557  0.9101 -0.4784 -0.8089
  626MOL0     C82559   3.724   3.346   2.464  0.4402 -0.3963 -0.2392
  626MOL0     C82560   3.857   3.286   2.520  0.4769  0.3743 -0.0427
  626MOL0     C82561   3.835   3.134   2.553  0.5423  0.4383 -1.0471
  626MOL0     C82562   3.973   3.065   2.563  0.0706 -0.4704  0.9729
  626MOL0     C82563   4.011   3.029   2.432  0.7102  0.3261  1.0004
  626MOL0     C82564   4.048   2.987   2.325 -0.0780 -0.0692 -0.4380
  626MOL0     C82565   3.454   3.413   2.389 -0.3659 -0.1981  0.2273
  626MOL0     C82566   3.319   3.422   2.357  0.3544 -0.6545 -0.2064
  626MOL0     H82567   2.899   3.416   2.084 -0.1856  2.9161 -2.2514
  626MOL0     H82568   2.687   3.479   2.013  0.4342  0.8795 -0.9238
  626MOL0     H82569   2.464   3.821   2.209  3.2907 -1.5058  0.7380
  626MOL0     H82570   2.436   3.665   2.300  0.9909 -3.6719 -1.2261
  626MOL0     H82571   2.295   3.738   2.042 -0.3973 -0.1892 -0.0810
  626MOL0     H82572   2.230   3.757   2.203  1.9058  1.5890 -0.1594
  626MOL0     H82573   2.253   3.514   2.234  0.4417 -0.5777  0.1845
  626MOL0     H82574   2.299   3.500   2.057 -3.1497 -2.5255 -0.8207
  626MOL0     H82575   2.057   3.449   2.139 -0.3658  1.2515  0.5310
  626MOL0     H82576   2.036   3.626   2.157  1.6350  0.6888  0.7390
  626MOL0     H82577   2.119   3.490   1.891 -3.7208 -3.8381  1.0375
  626MOL0     H82578   2.069   3.664   1.915  1.0392 -0.5914 -3.7476
  626MOL0     H82579   1.854   3.587   1.992  4.4992  1.5596  1.6406
  626MOL0     H82580   1.910   3.426   1.946 -1.6731  0.1331 -1.4472
  626MOL0     H82581   1.948   3.638   1.733 -0.8112  0.4042  0.8046
  626MOL0     H82582   1.947   3.459   1.724  2.8690  0.4290 -1.2242
  626MOL0     H82583   1.684   3.611   1.804  0.3499  1.9467 -0.9263
  626MOL0     H82584   1.721   3.442   1.775  0.9779 -0.6650  0.1724
  626MOL0     H82585   1.633   3.764   1.596 -0.0978 -0.8004  1.8970
  626MOL0     H82586   1.608   3.792   1.283 -0.4114  0.5404 -1.0062
  626MOL0     H82587   1.465   3.767   1.398 -1.8195 -0.9537 -0.0991
  626MOL0     H82588   1.386   3.570   1.278  0.3747  2.2709  2.5684
  626MOL0     H82589   1.529   3.570   1.170  1.1132  0.1707 -1.6638
  626MOL0     H82590   1.308   3.681   1.078 -0.8182 -0.4650  1.8411
  626MOL0     H82591   1.340   3.811   1.190 -0.1202  1.8808 -2.1856
  626MOL0     H82592   1.536   3.721   0.982 -0.6795 -0.7416 -0.7381
  626MOL0     H82593   1.565   3.852   1.088  0.9395 -1.6552 -0.2068
  626MOL0     H82594   1.333   4.010   0.727 -0.4970 -2.9748  1.7678
  626MOL0     H82595   1.438   4.177   0.599  0.6644  1.5147 -0.2927
  626MOL0     H82596   2.059   4.309   0.643  1.9323 -1.0212 -0.4295
  626MOL0     H82597   2.226   4.431   0.484  0.4996 -1.2823 -0.0690
  626MOL0     H82598   2.162   4.508   0.047 -2.9654 -1.0301  0.0477
  626MOL0     H82599   2.180   4.330   0.080 -0.8285  1.2915 -1.2939
  626MOL0     H82600   2.343   4.413  -0.066 -2.0243  4.2906 -1.0314
  626MOL0     H82601   2.416   4.361   0.083 -2.3998 -1.2121  0.7684
  626MOL0     H82602   2.422   4.588   0.172  0.7252 -3.0162  0.0176
  626MOL0     H82603   2.375   4.651   0.013 -1.2312 -0.4893  1.6517
  626MOL0     H82604   2.637   4.503   0.079  1.1483  2.8104  1.0236
  626MOL0     H82605   2.578   4.524  -0.080 -0.1961 -0.2301  0.3987
  626MOL0     H82606   2.633   4.734   0.127 -1.4533  0.4267 -0.3165
  626MOL0     H82607   2.605   4.768  -0.051  2.6999  1.1744 -1.5315
  626MOL0     H82608   2.803   4.639  -0.106  4.5011 -0.4174 -0.1743
  626MOL0     H82609   2.823   4.603   0.070  0.5191  0.9032 -0.2272
  626MOL0     H82610   2.820   4.887  -0.057  2.7155  2.4313  2.6718
  626MOL0     H82611   2.871   4.830   0.106 -2.3497 -1.6617  0.6092
  626MOL0     H82612   3.016   4.763  -0.165  0.1979 -2.4125  0.6117
  626MOL0     H82613   3.052   4.700  -0.003 -0.5031  1.8177  1.1279
  626MOL0     H82614   1.954   4.371   0.163  0.9598  0.4506  0.2195
  626MOL0     H82615   1.798   4.251   0.303 -1.0911 -0.4644  0.2038
  626MOL0     H82616   1.816   4.072   0.775  0.0760  2.4967 -0.3180
  626MOL0     H82617   1.714   3.926   0.935  2.7712 -0.1649 -2.6127
  626MOL0     H82618   2.645   3.761   2.328 -0.6785  0.9324 -1.9734
  626MOL0     H82619   2.893   3.697   2.401  0.1705 -1.9023  1.8955
  626MOL0     H82620   3.197   3.487   2.669 -2.3780 -0.6107 -2.6645
  626MOL0     H82621   3.425   3.428   2.731  0.3365  0.3453  0.0041
  626MOL0     H82622   3.748   3.426   2.393 -0.1820 -0.4428 -0.5004
  626MOL0     H82623   3.683   3.263   2.407  0.3027  1.3420 -2.8055
  626MOL0     H82624   3.939   3.300   2.450  1.4443  1.7596  1.2960
  626MOL0     H82625   3.890   3.336   2.612  1.8544  0.5946 -0.6426
  626MOL0     H82626   3.775   3.080   2.480  2.0531 -3.3879  0.2504
  626MOL0     H82627   3.788   3.120   2.651  0.0305 -2.0153 -1.5831
  626MOL0     H82628   4.058   3.123   2.603  0.0362  1.9686 -2.1051
  626MOL0     H82629   3.957   2.973   2.620  0.9606 -1.0850  0.2627
  626MOL0     H82630   4.088   2.954   2.231  2.3863  3.2568 -0.7376
  626MOL0     H82631   3.530   3.402   2.313 -0.3754 -0.4194  0.2502
  626MOL0     H82632   3.297   3.425   2.251  1.1807 -0.1964 -0.3772
  627MOL0     O82633  10.587   8.082   4.772  0.3669  0.5445 -0.2363
  627MOL0     C82634  10.671   8.161   4.745 -0.5523  0.6316  0.2274
  627MOL0     O82635  10.656   8.300   4.719 -0.5416 -0.0236 -1.2196
  627MOL0     C82636  10.568   8.376   4.797 -0.1314 -0.3656  0.2923
  627MOL0     C82637  10.516   8.335   4.922 -0.3614 -0.3158 -0.3223
  627MOL0     C82638  10.444   8.431   4.997  0.0069 -0.4128  0.6018
  627MOL0     C82639  10.409   8.554   4.937 -0.0817 -0.2012  0.2250
  627MOL0     O82640  10.327   8.645   5.001  0.5060 -0.7424  0.0214
  627MOL0     C82641  10.217   8.697   4.928 -0.3654 -0.0675  0.6407
  627MOL0     C82642  10.135   8.766   5.025  0.4785 -0.4704  0.3517
  627MOL0     C82643  10.180   8.912   5.028 -0.1615 -0.3452 -0.0517
  627MOL0     C82644  10.097   8.994   5.120 -0.2112 -0.1579 -0.6188
  627MOL0     C82645   9.951   9.011   5.070  0.2128  0.0726 -0.4703
  627MOL0     C82646   9.844   8.948   5.165  0.2533  0.1721 -0.3717
  627MOL0     C82647   9.822   9.035   5.287 -0.0451 -0.3729 -0.4211
  627MOL0     C82648   9.773   8.954   5.405  0.7926 -0.9987 -0.5637
  627MOL0     N82649   9.637   8.886   5.383  0.0872 -0.6548  0.8244
  627MOL0     C82650   9.527   8.962   5.341 -0.2744 -0.3926  0.2572
  627MOL0     C82651   9.430   8.865   5.329  0.4493  0.5052  0.7642
  627MOL0     C82652   9.289   8.900   5.286 -0.0258  0.4226  0.1804
  627MOL0     C82653   9.207   8.929   5.401  0.4263 -0.3842 -0.7102
  627MOL0     C82654   9.118   8.825   5.448  0.5704 -0.1974 -0.6187
  627MOL0     C82655   9.054   8.870   5.575 -0.1623  0.5957  0.3444
  627MOL0     O82656   8.963   8.984   5.561 -0.1702  0.0868  0.9106
  627MOL0     C82657   8.826   8.967   5.554  0.3239 -0.4516  0.4376
  627MOL0     C82658   8.766   8.852   5.509  0.1090 -0.3730 -0.1894
  627MOL0     C82659   8.629   8.850   5.492 -0.6044 -0.3948  0.1101
  627MOL0     C82660   8.544   8.958   5.519  0.1904 -0.1361  0.0353
  627MOL0     C82661   8.403   8.960   5.478  0.0361  0.3784 -0.2687
  627MOL0     O82662   8.339   9.080   5.499  0.1743  0.6922 -0.4538
  627MOL0     C82663   8.201   9.071   5.493  0.5394  0.0660  0.0628
  627MOL0     C82664   8.126   9.097   5.615 -0.4991  0.8006 -0.0674
  627MOL0     C82665   7.984   9.083   5.609  0.1369 -0.5454 -0.3129
  627MOL0     C82666   7.915   9.047   5.491 -0.2632  0.7760 -0.2851
  627MOL0     O82667   7.780   9.023   5.506 -0.1790 -0.9704 -0.0750
  627MOL0     C82668   7.707   8.971   5.389 -0.5193 -1.3777 -1.7003
  627MOL0     C82669   7.557   8.954   5.405  0.5939  0.9032  0.3832
  627MOL0     C82670   7.506   8.850   5.507  0.2908  0.5655  0.0558
  627MOL0     C82671   7.352   8.861   5.523  0.4925  0.4880  0.1864
  627MOL0     C82672   7.296   8.759   5.626 -0.6625 -0.1718  0.1137
  627MOL0     C82673   7.155   8.801   5.673  0.1148 -0.3404 -0.8545
  627MOL0     C82674   7.101   8.718   5.782  0.4525  0.1496 -0.2263
  627MOL0     C82675   6.957   8.759   5.819 -1.1469  0.7318 -0.0144
  627MOL0    Cl82676   6.849   8.775   5.671  0.0780 -0.3442 -0.3949
  627MOL0     C82677   7.985   9.025   5.373  0.4233 -0.2708  0.0100
  627MOL0     C82678   8.124   9.035   5.372 -0.5078 -0.3288 -0.5153
  627MOL0     O82679   8.345   8.850   5.448 -0.2675  0.7811 -0.3852
  627MOL0     C82680   8.612   9.073   5.563 -0.0155  0.5948  0.4839
  627MOL0     C82681   8.750   9.074   5.584 -0.1099  0.7049 -0.8527
  627MOL0     N82682   9.483   8.744   5.363  0.0067  0.0562 -0.2433
  627MOL0     N82683   9.606   8.761   5.394 -0.7306 -0.1501 -0.6259
  627MOL0     C82684  10.459   8.587   4.811 -0.5287  0.0317 -1.0862
  627MOL0     C82685  10.539   8.502   4.746  0.3799 -0.1531 -0.2517
  627MOL0     C82686  10.812   8.105   4.726 -0.1425  0.0199 -0.0284
  627MOL0     C82687  10.917   8.191   4.693 -0.0251  0.4436  0.3091
  627MOL0     C82688  11.045   8.140   4.662 -0.2586  0.5394  0.7683
  627MOL0     C82689  11.070   8.006   4.681 -0.5218  0.1245  0.2232
  627MOL0     O82690  11.196   7.965   4.637 -0.0296  0.2862  0.0603
  627MOL0     C82691  11.274   7.866   4.712 -0.4461  0.1398 -0.1506
  627MOL0     C82692  11.414   7.854   4.649  0.8597 -0.0154  0.1374
  627MOL0     C82693  11.482   7.727   4.701 -0.9078  0.4455  0.1165
  627MOL0     C82694  11.627   7.705   4.666 -0.6896 -0.1013  0.4828
  627MOL0     C82695  11.724   7.812   4.723  0.6113  0.7235  0.1309
  627MOL0     C82696  11.798   7.902   4.748  0.1821  0.3325 -0.5279
  627MOL0     C82697  10.971   7.921   4.727  0.4309 -0.5719  0.0722
  627MOL0     C82698  10.842   7.969   4.733 -0.4374  0.1133  0.3657
  627MOL0     H82699  10.544   8.245   4.977 -0.7840 -1.2779 -1.6232
  627MOL0     H82700  10.415   8.415   5.100  5.5295 -1.0866  2.3354
  627MOL0     H82701  10.171   8.611   4.879  0.8145  0.1867 -0.9648
  627MOL0     H82702  10.243   8.760   4.843 -3.5610  1.9530  0.9734
  627MOL0     H82703  10.136   8.715   5.122  1.6421 -0.6224  0.2721
  627MOL0     H82704  10.034   8.763   4.982 -0.4003  0.1003  2.2673
  627MOL0     H82705  10.174   8.963   4.931  0.1463 -2.7704 -1.4266
  627MOL0     H82706  10.280   8.928   5.069 -0.9778  3.0057  0.9626
  627MOL0     H82707  10.099   8.949   5.220 -2.9305  1.7078  0.3941
  627MOL0     H82708  10.137   9.095   5.132  2.2023 -0.6208 -3.6265
  627MOL0     H82709   9.934   8.969   4.971 -4.3823  1.6324 -0.5625
  627MOL0     H82710   9.936   9.119   5.061 -3.3049 -0.3611 -1.2386
  627MOL0     H82711   9.888   8.854   5.200  0.8710  1.4603  2.4998
  627MOL0     H82712   9.751   8.930   5.110 -1.4649 -0.3323  2.5046
  627MOL0     H82713   9.906   9.098   5.317 -1.6073  0.9126  1.5225
  627MOL0     H82714   9.745   9.106   5.255 -0.8206 -0.7735  0.4979
  627MOL0     H82715   9.761   9.027   5.486  1.4306 -1.3480 -0.1486
  627MOL0     H82716   9.852   8.888   5.441 -0.7798 -1.3052  2.7291
  627MOL0     H82717   9.508   9.068   5.327 -2.1142  0.0033  4.3677
  627MOL0     H82718   9.237   8.827   5.224 -0.2283  0.9699 -0.3069
  627MOL0     H82719   9.290   8.989   5.223  0.4376  0.6494  0.5004
  627MOL0     H82720   9.146   9.016   5.375  1.5245  0.1534 -1.5946
  627MOL0     H82721   9.283   8.962   5.474 -1.6647  1.7624  0.6493
  627MOL0     H82722   9.048   8.799   5.369 -1.0534 -0.1933  0.7486
  627MOL0     H82723   9.177   8.736   5.471 -0.1700 -0.9755 -1.6562
  627MOL0     H82724   9.141   8.901   5.633 -0.2638  1.1346  0.2085
  627MOL0     H82725   9.004   8.785   5.624 -2.3020  1.6487  0.0911
  627MOL0     H82726   8.817   8.761   5.480 -0.2193 -0.6706  0.1511
  627MOL0     H82727   8.595   8.755   5.451  0.4845  0.0783 -2.0625
  627MOL0     H82728   8.175   9.123   5.708  2.5161  1.6343 -1.7420
  627MOL0     H82729   7.917   9.091   5.694  0.0793 -0.8747 -0.3269
  627MOL0     H82730   7.752   8.872   5.372  2.9457 -0.5854  1.3686
  627MOL0     H82731   7.721   9.036   5.302  4.2249  3.5967  2.0539
  627MOL0     H82732   7.513   8.928   5.308 -2.9022  2.7464  1.3076
  627MOL0     H82733   7.515   9.053   5.421 -1.0773  0.5351 -1.2573
  627MOL0     H82734   7.561   8.878   5.597  0.2337  1.3694 -0.1546
  627MOL0     H82735   7.534   8.749   5.476  0.4861  1.2267 -2.1492
  627MOL0     H82736   7.341   8.963   5.561  1.5399  1.5119 -2.0526
  627MOL0     H82737   7.301   8.858   5.427  1.1065  1.6460 -0.1948
  627MOL0     H82738   7.370   8.763   5.707 -1.0899  1.3134  0.4482
  627MOL0     H82739   7.296   8.654   5.594  0.6688 -0.4758  0.9936
  627MOL0     H82740   7.090   8.804   5.586 -1.3768  4.2611  0.1111
  627MOL0     H82741   7.170   8.904   5.709  3.2260 -1.1547  0.5612
  627MOL0     H82742   7.121   8.613   5.761  0.0703  0.3000 -1.4438
  627MOL0     H82743   7.166   8.739   5.868  0.4060  1.0491 -0.3960
  627MOL0     H82744   6.970   8.861   5.858  0.5464  0.3957  0.3685
  627MOL0     H82745   6.916   8.689   5.892  1.2292  0.1633  0.8490
  627MOL0     H82746   7.927   8.988   5.290  0.5135 -2.3965  0.8407
  627MOL0     H82747   8.175   8.993   5.286 -0.8951 -0.5807 -0.6261
  627MOL0     H82748   8.568   9.171   5.584  0.5617  0.5645  1.9326
  627MOL0     H82749   8.784   9.172   5.615 -0.2529  0.4127  0.2516
  627MOL0     H82750  10.445   8.678   4.753 -0.9702  0.3840 -0.4362
  627MOL0     H82751  10.594   8.532   4.658 -0.4417  1.8739 -0.1275
  627MOL0     H82752  10.900   8.297   4.677 -0.1317  0.3075 -0.4878
  627MOL0     H82753  11.123   8.210   4.633 -0.6247  2.2807  3.6173
  627MOL0     H82754  11.237   7.763   4.705  3.3853 -1.6090  2.1215
  627MOL0     H82755  11.285   7.893   4.818  0.7980 -1.6365  0.2307
  627MOL0     H82756  11.394   7.835   4.543  3.6588  1.8746 -0.8200
  627MOL0     H82757  11.473   7.945   4.658  0.4242  0.4395 -1.3858
  627MOL0     H82758  11.430   7.636   4.669  2.6343 -2.4034  1.7958
  627MOL0     H82759  11.484   7.729   4.810  2.2210  0.5079  0.1277
  627MOL0     H82760  11.654   7.610   4.714  0.8066  0.3078  0.4865
  627MOL0     H82761  11.650   7.692   4.560 -0.0902  0.0707  0.5904
  627MOL0     H82762  11.881   7.967   4.766 -0.4925  0.9458  0.4633
  627MOL0     H82763  11.001   7.821   4.755 -1.5895 -0.4720  2.9403
  627MOL0     H82764  10.764   7.898   4.762  0.8638 -0.6723  2.1218
  628MOL0     O82765   9.425   7.866   4.485  0.1458  0.8437 -0.6792
  628MOL0     C82766   9.407   7.942   4.392 -0.5680  0.4068 -0.3154
  628MOL0     O82767   9.293   8.000   4.361 -0.1444 -0.6455  0.5073
  628MOL0     C82768   9.179   7.985   4.439  0.1351  0.3313  0.0795
  628MOL0     C82769   9.137   7.870   4.507  0.4978 -0.3528 -0.2586
  628MOL0     C82770   9.004   7.860   4.553 -0.5924  0.9741 -0.3838
  628MOL0     C82771   8.916   7.971   4.541  1.0164  0.4872  0.3635
  628MOL0     O82772   8.794   7.986   4.603 -0.1115  0.4082  0.4447
  628MOL0     C82773   8.777   7.912   4.726  0.0401  0.0185 -0.5150
  628MOL0     C82774   8.650   7.972   4.801  0.7422  0.9077 -0.2274
  628MOL0     C82775   8.522   7.901   4.736  0.0942 -0.5327 -0.8681
  628MOL0     C82776   8.401   7.919   4.830 -0.2072 -0.9975 -0.3784
  628MOL0     C82777   8.363   8.063   4.865  0.2114 -0.0870 -1.8991
  628MOL0     C82778   8.217   8.091   4.862 -0.2825 -0.1354 -0.0458
  628MOL0     C82779   8.196   8.239   4.892  0.3492 -0.1121  0.9852
  628MOL0     C82780   8.042   8.268   4.853 -0.5701  0.1253  0.0013
  628MOL0     N82781   8.003   8.392   4.925 -0.8848  0.1848  0.4286
  628MOL0     C82782   8.088   8.494   4.947  0.4736 -0.2060  0.1308
  628MOL0     C82783   8.013   8.583   5.025  0.8894 -0.1676  0.7364
  628MOL0     C82784   8.072   8.717   5.052  0.3847  0.2718 -0.3198
  628MOL0     C82785   8.158   8.733   5.180 -0.0375  0.9480  0.5170
  628MOL0     C82786   8.262   8.617   5.217  0.0953 -0.1926 -0.1094
  628MOL0     C82787   8.403   8.615   5.168 -0.1195 -0.6831 -0.0383
  628MOL0     O82788   8.382   8.614   5.029  0.5181 -0.3673  0.0470
  628MOL0     C82789   8.471   8.686   4.957 -0.6345  0.0855  0.6235
  628MOL0     C82790   8.427   8.721   4.836  1.1735 -0.0337 -0.5893
  628MOL0     C82791   8.503   8.802   4.743  0.3876  0.1818  0.1334
  628MOL0     C82792   8.629   8.851   4.782 -0.4188 -0.1321  0.5864
  628MOL0     C82793   8.718   8.931   4.700  0.8050  0.1032 -0.7942
  628MOL0     O82794   8.857   8.933   4.735  0.1660  0.7558  0.3966
  628MOL0     C82795   8.940   9.013   4.658 -0.1968 -0.1940 -0.2249
  628MOL0     C82796   9.069   8.970   4.622 -0.9048 -0.1014 -0.2103
  628MOL0     C82797   9.151   9.037   4.538 -0.6382 -0.6939 -0.6874
  628MOL0     C82798   9.122   9.169   4.510 -0.2758  0.2710  0.5489
  628MOL0     O82799   9.212   9.248   4.437 -0.1161  0.2130  0.3037
  628MOL0     C82800   9.354   9.227   4.440 -1.3062 -0.9469  0.4317
  628MOL0     C82801   9.422   9.344   4.369 -0.4680  0.8184 -1.4556
  628MOL0     C82802   9.573   9.346   4.384  0.3616 -0.2136  0.3124
  628MOL0     C82803   9.627   9.450   4.291  0.7381  0.5899  0.5316
  628MOL0     C82804   9.769   9.499   4.323 -0.0490 -0.1187 -0.2401
  628MOL0     C82805   9.874   9.389   4.331 -0.0133 -0.1422  0.1900
  628MOL0     C82806  10.019   9.440   4.361  0.5365  0.4783  1.0843
  628MOL0     C82807  10.038   9.497   4.502  1.0473 -0.7389  0.3474
  628MOL0    Cl82808  10.052   9.363   4.620 -0.0418  0.1469 -0.1136
  628MOL0     C82809   8.999   9.220   4.542 -0.4883 -0.2575  0.5813
  628MOL0     C82810   8.910   9.144   4.618 -0.1999 -0.5045 -0.2859
  628MOL0     O82811   8.671   8.986   4.596 -0.4504 -0.1758 -1.6374
  628MOL0     C82812   8.672   8.806   4.905 -0.2259  0.4363 -0.5865
  628MOL0     C82813   8.599   8.725   4.996  0.5339  0.0297  0.2745
  628MOL0     N82814   7.886   8.539   5.033 -0.4884  0.1616 -0.8514
  628MOL0     N82815   7.877   8.422   4.972 -0.8348  0.5260 -0.0159
  628MOL0     C82816   8.968   8.090   4.483 -0.2245  0.0611 -0.3209
  628MOL0     C82817   9.097   8.103   4.428 -0.6514  0.5311 -0.3080
  628MOL0     C82818   9.524   7.959   4.299 -0.2306  0.7476  0.0491
  628MOL0     C82819   9.534   8.082   4.233 -0.5990  0.2202  0.9408
  628MOL0     C82820   9.628   8.090   4.120 -0.6217 -0.4016 -0.6559
  628MOL0     C82821   9.725   7.982   4.095  0.2899 -0.5856 -0.2171
  628MOL0     O82822   9.819   8.000   3.993  0.8963  0.8641 -0.1657
  628MOL0     C82823   9.872   7.888   3.924 -0.3592 -0.5628 -0.4198
  628MOL0     C82824  10.022   7.876   3.956  0.2229 -0.5400 -0.1367
  628MOL0     C82825  10.092   8.008   3.929 -0.0787  0.3905  0.3023
  628MOL0     C82826  10.251   7.995   3.936 -0.2029 -1.0386 -0.5896
  628MOL0     C82827  10.288   7.894   3.825 -0.0845 -0.3052 -0.0027
  628MOL0     C82828  10.325   7.802   3.753  0.4809  0.2442 -0.6726
  628MOL0     C82829   9.706   7.863   4.173  0.2205 -0.2958  1.2021
  628MOL0     C82830   9.605   7.850   4.265  0.7071  0.5507  0.2455
  628MOL0     H82831   9.202   7.784   4.515  2.2173  1.0081  1.4534
  628MOL0     H82832   8.963   7.764   4.584 -1.5786  0.9217 -1.7726
  628MOL0     H82833   8.863   7.931   4.791 -1.4436  1.6107  1.1031
  628MOL0     H82834   8.769   7.806   4.701  1.3019 -0.5967  1.4449
  628MOL0     H82835   8.645   8.081   4.797  0.8705  0.9946  1.3775
  628MOL0     H82836   8.648   7.946   4.907  0.4641  0.2643 -0.3826
  628MOL0     H82837   8.546   7.795   4.722 -1.6182 -0.9546 -0.8042
  628MOL0     H82838   8.505   7.957   4.643  0.3377  2.9655  1.0117
  628MOL0     H82839   8.317   7.870   4.779  1.1326 -1.0037 -2.7153
  628MOL0     H82840   8.421   7.859   4.919  1.1038 -0.9341 -0.6191
  628MOL0     H82841   8.410   8.132   4.795  0.7353  0.3949 -1.1004
  628MOL0     H82842   8.399   8.088   4.966 -4.2091 -3.6802  0.9932
  628MOL0     H82843   8.160   8.031   4.934  0.7638  0.5657  1.4203
  628MOL0     H82844   8.168   8.072   4.766  0.3066  1.0033 -0.5851
  628MOL0     H82845   8.217   8.255   4.998  2.9143 -0.3401  0.5681
  628MOL0     H82846   8.259   8.301   4.829  0.2368  1.8526  2.7058
  628MOL0     H82847   7.986   8.175   4.857 -0.7205 -0.0112 -3.0561
  628MOL0     H82848   8.029   8.286   4.746 -0.7127 -2.0428 -0.3746
  628MOL0     H82849   8.189   8.514   4.914 -0.1882  1.6545 -0.9301
  628MOL0     H82850   7.996   8.793   5.075 -0.6736 -1.2947  1.6635
  628MOL0     H82851   8.131   8.743   4.964  0.1311  0.0845 -0.5480
  628MOL0     H82852   8.087   8.731   5.263  0.2949  1.3971  0.8079
  628MOL0     H82853   8.222   8.821   5.175  1.0807  0.1305  0.0974
  628MOL0     H82854   8.275   8.628   5.326 -1.9377  0.2207  0.1390
  628MOL0     H82855   8.210   8.523   5.195 -0.7645 -0.0123  1.0283
  628MOL0     H82856   8.459   8.526   5.200 -1.0952 -1.5593 -0.6811
  628MOL0     H82857   8.455   8.706   5.199  0.9338 -1.9728  2.1730
  628MOL0     H82858   8.329   8.690   4.801  0.6569 -1.4500  1.8894
  628MOL0     H82859   8.470   8.824   4.642  3.8225  1.3074 -0.9039
  628MOL0     H82860   9.102   8.877   4.666 -1.8785  0.1776  1.1795
  628MOL0     H82861   9.252   9.008   4.513 -1.3242 -2.2236 -1.8668
  628MOL0     H82862   9.378   9.135   4.386 -0.3962  0.4587 -1.6875
  628MOL0     H82863   9.394   9.224   4.542  0.1775  1.4827 -0.0054
  628MOL0     H82864   9.375   9.436   4.406 -1.2470 -0.9106  2.4128
  628MOL0     H82865   9.391   9.339   4.265 -2.4455 -1.9148 -0.8446
  628MOL0     H82866   9.611   9.243   4.384 -4.3911 -2.2258 -1.3096
  628MOL0     H82867   9.609   9.373   4.484 -0.6753  0.2151  0.5792
  628MOL0     H82868   9.629   9.413   4.188 -2.1045  2.6893 -0.4073
  628MOL0     H82869   9.565   9.540   4.281 -0.0638 -0.1942 -2.8399
  628MOL0     H82870   9.774   9.552   4.419  0.9729  0.9484 -0.8669
  628MOL0     H82871   9.811   9.569   4.251  2.8136 -1.6995 -0.2384
  628MOL0     H82872   9.875   9.330   4.239  0.0205 -1.4280  0.9847
  628MOL0     H82873   9.845   9.315   4.406 -0.3555  1.1550  1.3907
  628MOL0     H82874  10.093   9.365   4.333  0.5917  0.6319  0.8167
  628MOL0     H82875  10.036   9.524   4.293  1.5278 -1.0285 -0.6260
  628MOL0     H82876   9.953   9.562   4.526  1.1121 -0.0559 -1.1739
  628MOL0     H82877  10.131   9.555   4.503  0.7501 -0.2577  1.1457
  628MOL0     H82878   8.972   9.315   4.496  1.1163  0.1968  0.5346
  628MOL0     H82879   8.812   9.186   4.637  0.6896  0.9955  1.2088
  628MOL0     H82880   8.772   8.835   4.936 -0.4069  3.2237 -2.2686
  628MOL0     H82881   8.631   8.707   5.098  0.9720  1.6586  0.4684
  628MOL0     H82882   8.900   8.173   4.499 -0.5464 -0.4317  1.1170
  628MOL0     H82883   9.131   8.194   4.379 -1.1989  0.7253 -0.3361
  628MOL0     H82884   9.460   8.155   4.264  0.9112  2.0173  0.5603
  628MOL0     H82885   9.627   8.184   4.066 -0.5754 -0.0135  0.0121
  628MOL0     H82886   9.861   7.902   3.816 -3.2625  1.0919 -0.0090
  628MOL0     H82887   9.822   7.793   3.947  2.4610 -1.7028  1.5976
  628MOL0     H82888  10.029   7.849   4.062 -1.8571  0.3756  0.2981
  628MOL0     H82889  10.059   7.794   3.894 -0.9074  1.0694 -3.1399
  628MOL0     H82890  10.068   8.078   4.009 -0.1515  1.1776 -0.3952
  628MOL0     H82891  10.062   8.050   3.832 -0.0101 -0.7225 -0.2222
  628MOL0     H82892  10.295   8.092   3.912 -1.0166 -0.2291  1.0284
  628MOL0     H82893  10.276   7.965   4.038  1.0773  1.2723 -0.1693
  628MOL0     H82894  10.352   7.716   3.696 -2.4773 -2.7112  1.9590
  628MOL0     H82895   9.777   7.786   4.145  2.3462  1.9789 -0.0421
  628MOL0     H82896   9.586   7.760   4.324 -0.5579 -0.8701 -2.1648
  629MOL0     O82897   8.647  10.719   0.316  0.6152  1.2302 -0.4869
  629MOL0     C82898   8.672  10.731   0.436  0.2803 -0.3277 -0.4387
  629MOL0     O82899   8.587  10.728   0.549  0.5307 -0.8496  0.1147
  629MOL0     C82900   8.463  10.676   0.532 -0.5001 -0.3509 -0.3796
  629MOL0     C82901   8.446  10.556   0.469 -0.0748  0.5739 -0.2000
  629MOL0     C82902   8.315  10.490   0.476  0.5150  0.4117  0.6175
  629MOL0     C82903   8.202  10.548   0.536 -0.5789  0.1842  0.3938
  629MOL0     O82904   8.081  10.483   0.561 -0.5404 -0.2601 -0.0743
  629MOL0     C82905   8.040  10.383   0.465 -0.6127 -0.8154 -0.0982
  629MOL0     C82906   7.894  10.359   0.477 -0.0852  0.4032 -0.4005
  629MOL0     C82907   7.838  10.278   0.359  0.6152  0.4966  0.5152
  629MOL0     C82908   7.695  10.239   0.397 -0.1007  0.9514 -1.2302
  629MOL0     C82909   7.647  10.145   0.295 -1.0446 -0.1245 -0.1420
  629MOL0     C82910   7.541  10.046   0.342 -0.5506  0.1816 -0.3328
  629MOL0     C82911   7.453   9.995   0.232 -0.1449  1.0617  0.5563
  629MOL0     C82912   7.352   9.879   0.259  0.0901  0.5340 -0.0017
  629MOL0     N82913   7.235   9.939   0.314 -0.0726  0.2223 -0.8750
  629MOL0     C82914   7.142  10.008   0.229 -0.4458  0.3064 -0.3145
  629MOL0     C82915   7.028  10.002   0.300  0.2543 -1.2628 -0.2215
  629MOL0     C82916   6.895  10.074   0.269  0.0850  0.6625 -0.2807
  629MOL0     C82917   6.797   9.970   0.226  0.3376  1.0882  0.2093
  629MOL0     C82918   6.749   9.877   0.348 -0.0282 -0.2821 -0.4773
  629MOL0     C82919   6.648   9.775   0.288  1.1446 -0.1171  0.1120
  629MOL0     O82920   6.512   9.838   0.279  0.0737  0.4964 -0.6966
  629MOL0     C82921   6.412   9.750   0.242 -0.1445 -0.7692  0.5818
  629MOL0     C82922   6.287   9.756   0.305  0.5175  0.1824  0.3271
  629MOL0     C82923   6.201   9.645   0.305 -0.0005 -0.5934  0.2726
  629MOL0     C82924   6.230   9.527   0.245 -0.5450  0.4007 -0.3059
  629MOL0     C82925   6.128   9.422   0.224 -0.9242  0.0608 -0.0468
  629MOL0     O82926   6.010   9.425   0.294  0.3115  0.6429 -0.6356
  629MOL0     C82927   5.905   9.355   0.233  0.3951  0.2880 -0.3188
  629MOL0     C82928   5.883   9.343   0.100  0.0930  0.2377  0.7212
  629MOL0     C82929   5.767   9.273   0.062  0.4339  1.0701 -0.4562
  629MOL0     C82930   5.674   9.212   0.147 -0.3890 -0.4485 -0.4466
  629MOL0     O82931   5.563   9.152   0.094  0.2760 -0.4381  0.2567
  629MOL0     C82932   5.456   9.121   0.173  0.9249 -0.0151 -0.2746
  629MOL0     C82933   5.493   8.992   0.257 -0.4252  0.5129  1.0250
  629MOL0     C82934   5.417   8.989   0.399  0.3461 -0.6182  0.4261
  629MOL0     C82935   5.267   8.988   0.385  0.3775 -0.4338 -1.1351
  629MOL0     C82936   5.179   8.986   0.512  0.0959 -0.2863 -0.3032
  629MOL0     C82937   5.026   8.963   0.469 -0.5251  0.1210  0.5042
  629MOL0     C82938   4.940   8.984   0.596  0.8747  0.0838  0.5489
  629MOL0     C82939   4.810   8.889   0.588  0.0383 -0.0828  0.7886
  629MOL0    Cl82940   4.860   8.714   0.567 -0.6520 -0.1014 -0.3148
  629MOL0     C82941   5.709   9.217   0.282 -0.0309  0.1333  0.1760
  629MOL0     C82942   5.819   9.293   0.323 -0.4639  0.3911 -0.8603
  629MOL0     O82943   6.157   9.333   0.137  0.1772 -0.1387  0.0391
  629MOL0     C82944   6.349   9.518   0.164 -0.4335 -0.8683 -1.4073
  629MOL0     C82945   6.438   9.627   0.169 -0.0591  0.2696  0.7595
  629MOL0     N82946   7.056   9.942   0.421  0.5353  0.2239 -0.2208
  629MOL0     N82947   7.178   9.898   0.424  0.2385  0.2389 -0.9501
  629MOL0     C82948   8.225  10.678   0.593  0.6440  0.0493 -0.8243
  629MOL0     C82949   8.352  10.741   0.593 -0.4245  0.0266  0.0389
  629MOL0     C82950   8.813  10.756   0.472  0.3282 -0.1812  0.6751
  629MOL0     C82951   8.905  10.816   0.378  0.5207  0.0463 -0.5282
  629MOL0     C82952   9.028  10.863   0.426 -0.0371  0.0353  0.2573
  629MOL0     C82953   9.062  10.838   0.551 -0.9774 -0.2951 -0.5495
  629MOL0     O82954   9.186  10.870   0.596 -0.3231  0.4997  0.3507
  629MOL0     C82955   9.213  10.973   0.683  0.3782 -0.8538  0.0548
  629MOL0     C82956   9.327  10.958   0.783  1.8240 -0.0949  0.6716
  629MOL0     C82957   9.472  10.961   0.734  0.7353  0.4828 -0.6475
  629MOL0     C82958   9.555  11.038   0.833 -0.6510 -0.4282 -0.0468
  629MOL0     C82959   9.588  11.176   0.787 -1.0835  0.5694 -0.9305
  629MOL0     C82960   9.606  11.290   0.748  0.4705  0.4053 -0.9746
  629MOL0     C82961   8.981  10.778   0.636  0.0320  0.0248 -0.7469
  629MOL0     C82962   8.857  10.733   0.595  0.6208  0.1406  0.4936
  629MOL0     H82963   8.534  10.508   0.427  0.4778  0.6667  0.8144
  629MOL0     H82964   8.311  10.391   0.431 -1.3416  0.0425  1.5209
  629MOL0     H82965   8.088  10.287   0.486 -2.1738 -1.2562  1.6514
  629MOL0     H82966   8.058  10.424   0.365  0.6991 -0.9391  0.0592
  629MOL0     H82967   7.837  10.452   0.492 -0.4499 -0.1071  1.6768
  629MOL0     H82968   7.878  10.306   0.571  0.2420  3.1240  1.3140
  629MOL0     H82969   7.900  10.189   0.343 -0.1021  0.4823 -2.9462
  629MOL0     H82970   7.827  10.337   0.268 -3.9142  1.3329  1.3869
  629MOL0     H82971   7.693  10.190   0.495 -5.0789  2.4130 -0.3412
  629MOL0     H82972   7.636  10.329   0.414 -0.3960  0.4048  0.9608
  629MOL0     H82973   7.719  10.078   0.248 -1.5447 -1.4317  0.8714
  629MOL0     H82974   7.614  10.206   0.211  0.3305 -1.0250 -1.3746
  629MOL0     H82975   7.478  10.090   0.420 -0.7917 -1.0498  0.1967
  629MOL0     H82976   7.598   9.969   0.396 -1.1534 -0.1799 -0.2021
  629MOL0     H82977   7.395  10.080   0.197 -0.9184  2.0254  3.8452
  629MOL0     H82978   7.522   9.951   0.160 -1.6590 -2.4345  1.0064
  629MOL0     H82979   7.397   9.802   0.323 -0.3338  0.0113 -0.3190
  629MOL0     H82980   7.331   9.828   0.165  1.6390 -2.3311  1.0603
  629MOL0     H82981   7.166  10.053   0.134 -1.2899  0.0456 -0.6558
  629MOL0     H82982   6.922  10.132   0.181 -0.7565 -1.1955 -1.8703
  629MOL0     H82983   6.853  10.128   0.354 -0.5635 -1.9519  1.1986
  629MOL0     H82984   6.849   9.903   0.157 -1.1552 -1.6825  1.5555
  629MOL0     H82985   6.715  10.021   0.174  0.3887  0.5595 -0.3978
  629MOL0     H82986   6.832   9.817   0.386 -0.3425 -1.2292 -1.2409
  629MOL0     H82987   6.708   9.947   0.421 -1.3073 -1.7446  0.2769
  629MOL0     H82988   6.652   9.690   0.357 -1.5646  0.4734  1.1082
  629MOL0     H82989   6.680   9.738   0.190 -3.3436  0.0669 -1.6206
  629MOL0     H82990   6.259   9.841   0.367  1.9843  0.1661  1.0658
  629MOL0     H82991   6.106   9.645   0.357  0.2772 -1.3419  0.7982
  629MOL0     H82992   5.956   9.389   0.034  1.1641 -0.5745  1.3069
  629MOL0     H82993   5.743   9.292  -0.042 -2.2106 -0.0782 -0.1423
  629MOL0     H82994   5.367   9.100   0.113  0.3781  1.1683  0.0886
  629MOL0     H82995   5.434   9.204   0.241 -2.2119 -1.2377  0.3959
  629MOL0     H82996   5.601   8.977   0.265 -0.4027 -0.3465 -0.5267
  629MOL0     H82997   5.464   8.909   0.193 -2.0320 -0.1896  2.5914
  629MOL0     H82998   5.445   9.074   0.462  0.5506  0.7431 -1.4426
  629MOL0     H82999   5.449   8.907   0.464  0.8930  0.8785  2.1301
  629MOL0     H83000   5.243   9.084   0.339  0.4974  0.3794  0.4419
  629MOL0     H83001   5.221   8.910   0.324 -5.0451 -1.9144  3.9100
  629MOL0     H83002   5.192   9.072   0.578  1.2592 -2.0410  1.9063
  629MOL0     H83003   5.212   8.896   0.566  0.5060 -0.1560 -0.3382
  629MOL0     H83004   5.009   8.860   0.438  0.7818 -0.5465  1.8883
  629MOL0     H83005   5.004   9.039   0.394  1.5483 -2.3270 -2.8644
  629MOL0     H83006   4.998   8.956   0.684 -1.4784 -1.3254  1.7307
  629MOL0     H83007   4.914   9.090   0.605 -0.9042 -0.3273  0.5650
  629MOL0     H83008   4.750   8.925   0.504 -1.4617  0.9738  2.2218
  629MOL0     H83009   4.757   8.885   0.684 -1.7666 -3.3298 -0.2202
  629MOL0     H83010   5.637   9.177   0.353 -0.6513 -1.5444 -1.3157
  629MOL0     H83011   5.844   9.302   0.428  0.6076 -1.8209 -0.8688
  629MOL0     H83012   6.365   9.427   0.108 -0.0183 -0.3402 -2.1585
  629MOL0     H83013   6.531   9.612   0.115  0.8293  1.4924  1.8690
  629MOL0     H83014   8.149  10.738   0.641  0.1382 -1.9123  0.9551
  629MOL0     H83015   8.356  10.833   0.650  2.0537 -0.1884  0.3196
  629MOL0     H83016   8.873  10.849   0.279 -1.7332  2.5769  0.8960
  629MOL0     H83017   9.075  10.918   0.345 -0.4267  1.0076  0.6741
  629MOL0     H83018   9.135  10.998   0.755  1.8294 -0.5426  1.6041
  629MOL0     H83019   9.227  11.056   0.612 -5.2063  0.9617  0.6085
  629MOL0     H83020   9.319  11.041   0.853  2.0373 -1.3931  2.3068
  629MOL0     H83021   9.307  10.874   0.851 -4.3052  1.5436  1.4675
  629MOL0     H83022   9.465  11.017   0.640 -2.5001  0.5056 -0.4706
  629MOL0     H83023   9.509  10.861   0.709  0.0783  0.9320 -3.8281
  629MOL0     H83024   9.502  11.054   0.927  1.5757  1.0034  1.0447
  629MOL0     H83025   9.648  10.987   0.861 -0.0291  1.6281  1.9376
  629MOL0     H83026   9.625  11.382   0.697 -1.5722 -0.9066 -4.4162
  629MOL0     H83027   9.022  10.766   0.735  0.6802 -0.2380 -1.0414
  629MOL0     H83028   8.790  10.689   0.668 -2.2948  0.9444 -1.5326
  630MOL0     O83029   6.689   8.461   1.579 -0.2572  0.3354  0.7133
  630MOL0     C83030   6.720   8.346   1.558 -0.6217 -0.0395  0.9551
  630MOL0     O83031   6.648   8.235   1.587  0.5320 -0.1220  0.6813
  630MOL0     C83032   6.517   8.257   1.628 -0.2173  0.4829 -0.5727
  630MOL0     C83033   6.425   8.184   1.559 -0.2677 -0.1136  0.1485
  630MOL0     C83034   6.294   8.167   1.608 -0.3916 -0.7825 -0.5683
  630MOL0     C83035   6.253   8.230   1.733  0.4822 -0.2669 -0.6285
  630MOL0     O83036   6.128   8.209   1.796 -0.4870  0.2062  0.7912
  630MOL0     C83037   6.024   8.133   1.731  0.0759  0.4769 -0.0138
  630MOL0     C83038   5.916   8.114   1.830  1.1163  1.1535 -0.5219
  630MOL0     C83039   5.819   8.040   1.750 -0.2806 -0.4920  0.0655
  630MOL0     C83040   5.687   8.037   1.838  0.2705 -0.0170  0.0638
  630MOL0     C83041   5.580   7.951   1.773 -0.1264  0.2294 -0.3824
  630MOL0     C83042   5.461   7.967   1.861 -0.0274  0.5207  0.0197
  630MOL0     C83043   5.354   7.863   1.831  0.9665 -0.0342 -0.0087
  630MOL0     C83044   5.212   7.927   1.830 -0.3622  0.6258  0.1569
  630MOL0     N83045   5.110   7.821   1.792 -0.1102 -0.1509  0.6080
  630MOL0     C83046   5.052   7.802   1.671 -0.0373 -0.3239  0.4175
  630MOL0     C83047   5.009   7.673   1.672  1.0360 -0.6074  0.4921
  630MOL0     C83048   4.936   7.600   1.562  0.6201 -0.2816  0.0101
  630MOL0     C83049   4.781   7.602   1.585 -0.3160  0.7068  0.0137
  630MOL0     C83050   4.715   7.463   1.617  0.2133 -0.6138 -0.0399
  630MOL0     C83051   4.567   7.480   1.650 -0.2012 -0.9256  0.6203
  630MOL0     O83052   4.485   7.550   1.544  0.7721 -0.2729 -0.1620
  630MOL0     C83053   4.350   7.552   1.556  1.1935  0.2010  0.1597
  630MOL0     C83054   4.288   7.579   1.682 -0.3965 -0.2629 -0.0556
  630MOL0     C83055   4.145   7.575   1.699  0.5293  0.6749  0.1296
  630MOL0     C83056   4.065   7.528   1.587  0.3511 -0.3651  0.0181
  630MOL0     C83057   3.916   7.512   1.603  0.1938 -0.1409  0.0433
  630MOL0     O83058   3.845   7.431   1.509 -0.1337 -0.1181  0.2964
  630MOL0     C83059   3.702   7.444   1.501 -0.9931  0.4775 -0.3773
  630MOL0     C83060   3.648   7.550   1.435  0.4050 -0.3347  0.1670
  630MOL0     C83061   3.512   7.567   1.430  0.1424  0.0369 -1.0231
  630MOL0     C83062   3.430   7.477   1.496  0.2475  0.6104  0.9665
  630MOL0     O83063   3.292   7.503   1.483  0.4660  0.3015  0.3508
  630MOL0     C83064   3.191   7.434   1.558 -0.3783 -0.8850 -0.8731
  630MOL0     C83065   3.046   7.467   1.510 -0.3040 -0.2023  0.3355
  630MOL0     C83066   3.016   7.611   1.497 -0.1079 -1.0420 -0.7940
  630MOL0     C83067   2.880   7.636   1.432 -0.3917 -0.1808 -0.5001
  630MOL0     C83068   2.853   7.779   1.409 -0.4171  0.5935  0.9224
  630MOL0     C83069   2.943   7.835   1.301 -0.2241 -0.7104  1.2112
  630MOL0     C83070   2.894   7.984   1.272  0.5354 -0.3894  0.7009
  630MOL0     C83071   2.974   8.026   1.154 -0.2127  0.0082  0.2128
  630MOL0    Cl83072   2.913   8.185   1.095  0.2696 -0.2093 -0.3286
  630MOL0     C83073   3.475   7.365   1.563 -0.4575 -0.3905 -0.0461
  630MOL0     C83074   3.619   7.352   1.557  0.8883  0.5848 -0.5044
  630MOL0     O83075   3.868   7.594   1.682  0.8320  0.2184 -0.0962
  630MOL0     C83076   4.124   7.503   1.463 -0.6686  0.1824  0.2098
  630MOL0     C83077   4.263   7.514   1.453 -0.0800 -0.2188 -0.5098
  630MOL0     N83078   5.033   7.620   1.794 -0.6054 -0.1439 -0.0522
  630MOL0     N83079   5.100   7.708   1.863 -0.2995  1.3729 -0.4899
  630MOL0     C83080   6.350   8.301   1.802 -0.0587 -0.0052 -0.1462
  630MOL0     C83081   6.475   8.312   1.750  1.1142  0.5072 -1.1239
  630MOL0     C83082   6.856   8.323   1.507 -0.0837 -0.1478  0.0233
  630MOL0     C83083   6.903   8.188   1.504  0.3536  0.2863  0.4337
  630MOL0     C83084   7.038   8.168   1.479 -0.2999  0.9059  0.5791
  630MOL0     C83085   7.121   8.266   1.416 -0.1404 -0.1412  0.1415
  630MOL0     O83086   7.245   8.229   1.367  0.2413  0.1005 -0.3865
  630MOL0     C83087   7.315   8.330   1.288  0.4880  0.2492 -1.1203
  630MOL0     C83088   7.439   8.266   1.214  0.6740  0.2033  1.0244
  630MOL0     C83089   7.554   8.240   1.309  0.6007  0.4952  0.6472
  630MOL0     C83090   7.674   8.179   1.234  0.0775  0.7521  0.6725
  630MOL0     C83091   7.730   8.272   1.140  0.0493 -0.7011  0.7295
  630MOL0     C83092   7.780   8.346   1.054 -0.5163 -0.1050 -0.7137
  630MOL0     C83093   7.067   8.392   1.413  0.2256 -0.1924  0.3128
  630MOL0     C83094   6.938   8.427   1.453  1.1457  0.1680 -0.6784
  630MOL0     H83095   6.461   8.137   1.469  0.4507  4.3524 -2.1712
  630MOL0     H83096   6.228   8.112   1.542  0.3778  0.2042 -2.2275
  630MOL0     H83097   6.055   8.037   1.689  0.0767  0.8829 -0.9744
  630MOL0     H83098   5.991   8.203   1.653  4.4783  1.0210 -1.6460
  630MOL0     H83099   5.873   8.208   1.865  0.4267  1.1102 -1.2185
  630MOL0     H83100   5.949   8.063   1.921  1.8337  2.4902 -0.0200
  630MOL0     H83101   5.858   7.944   1.716  1.7789 -0.0963  1.1441
  630MOL0     H83102   5.797   8.102   1.662  1.0880 -2.4049 -1.7397
  630MOL0     H83103   5.723   8.002   1.935  2.3213  2.9834  0.5063
  630MOL0     H83104   5.654   8.141   1.849  0.7141  0.1861 -0.4770
  630MOL0     H83105   5.620   7.849   1.765 -1.8181 -0.4347 -0.6860
  630MOL0     H83106   5.553   7.980   1.671 -0.7063 -0.9199 -0.5652
  630MOL0     H83107   5.417   8.067   1.851  1.4802  1.4006  1.6159
  630MOL0     H83108   5.486   7.958   1.967 -2.9093  1.2019  0.8440
  630MOL0     H83109   5.368   7.837   1.726 -0.9034 -0.7111 -0.1172
  630MOL0     H83110   5.364   7.772   1.891 -4.7321  0.1729  1.8204
  630MOL0     H83111   5.208   8.013   1.762 -1.1621 -0.9973 -1.9543
  630MOL0     H83112   5.183   7.955   1.932  0.0872  0.6575  0.2778
  630MOL0     H83113   5.043   7.862   1.582 -0.3043 -1.2376 -0.1845
  630MOL0     H83114   4.966   7.494   1.559 -0.6921 -0.6752 -0.1058
  630MOL0     H83115   4.961   7.650   1.469 -0.9950  0.1152 -0.2510
  630MOL0     H83116   4.734   7.643   1.495  1.5513  1.2895 -0.7454
  630MOL0     H83117   4.770   7.677   1.663  3.7063 -1.5834  3.1700
  630MOL0     H83118   4.716   7.397   1.530 -1.2436  0.3858 -0.8693
  630MOL0     H83119   4.762   7.417   1.704 -0.5886 -2.4546 -0.5411
  630MOL0     H83120   4.565   7.540   1.741  0.5680 -1.6479  1.1291
  630MOL0     H83121   4.525   7.385   1.685 -0.4743 -0.3347  1.9422
  630MOL0     H83122   4.353   7.603   1.766 -3.5541  0.4756  2.4010
  630MOL0     H83123   4.093   7.598   1.791  0.0896  1.5773 -0.3340
  630MOL0     H83124   3.716   7.602   1.369  2.2575 -1.7945  0.8282
  630MOL0     H83125   3.470   7.656   1.384  1.0083  0.5695 -0.8026
  630MOL0     H83126   3.204   7.468   1.661 -1.6265 -2.5571 -0.1186
  630MOL0     H83127   3.213   7.326   1.559  2.6400 -0.3653  0.1813
  630MOL0     H83128   2.988   7.430   1.595 -1.9131  1.8975  0.2127
  630MOL0     H83129   3.011   7.420   1.418 -1.8759  0.4270  0.5784
  630MOL0     H83130   3.098   7.662   1.445  0.9400 -1.0739  0.7496
  630MOL0     H83131   3.021   7.663   1.593  0.5875  0.4291 -1.5935
  630MOL0     H83132   2.870   7.578   1.339 -1.1332 -1.4735  0.3414
  630MOL0     H83133   2.805   7.604   1.505  1.4435 -2.8896  0.3697
  630MOL0     H83134   2.866   7.826   1.507 -3.4833 -0.3872  1.9307
  630MOL0     H83135   2.749   7.788   1.375 -0.7778 -2.9325  0.7069
  630MOL0     H83136   2.955   7.763   1.219 -1.2450 -4.6862  4.1899
  630MOL0     H83137   3.037   7.855   1.352 -0.9780  1.2212  1.9423
  630MOL0     H83138   2.790   7.975   1.239  0.9580 -3.2920 -0.0404
  630MOL0     H83139   2.910   8.058   1.351  2.9735  2.3047 -2.0547
  630MOL0     H83140   2.963   7.955   1.072 -1.2677  0.8680 -0.4236
  630MOL0     H83141   3.078   8.045   1.182  0.5602  1.4500 -3.1117
  630MOL0     H83142   3.409   7.295   1.614 -2.4944  0.1271 -1.8041
  630MOL0     H83143   3.661   7.260   1.595 -2.5578 -0.0940  2.1982
  630MOL0     H83144   4.073   7.484   1.369 -2.6159  3.8022  0.3894
  630MOL0     H83145   4.318   7.492   1.362  1.8173  2.7723 -0.2280
  630MOL0     H83146   6.322   8.327   1.904 -1.7103 -0.2113 -0.5105
  630MOL0     H83147   6.552   8.360   1.810  2.3975 -3.2089  0.4858
  630MOL0     H83148   6.834   8.107   1.526  2.5425 -1.5568  0.8537
  630MOL0     H83149   7.066   8.067   1.508 -1.3328  0.0834 -1.1259
  630MOL0     H83150   7.337   8.409   1.361 -2.4350  0.1383  0.0053
  630MOL0     H83151   7.244   8.384   1.225 -1.4233 -0.0171  0.6853
  630MOL0     H83152   7.403   8.173   1.168  0.1866  0.0566  1.6825
  630MOL0     H83153   7.468   8.331   1.131 -2.4149 -0.8839 -1.1189
  630MOL0     H83154   7.515   8.161   1.374  0.8455 -1.2297 -1.1704
  630MOL0     H83155   7.601   8.320   1.366  1.5890 -0.1928  0.8287
  630MOL0     H83156   7.752   8.167   1.310 -0.6410 -0.9382  1.2033
  630MOL0     H83157   7.647   8.080   1.194  1.7001  0.1934  0.8515
  630MOL0     H83158   7.838   8.417   0.998  1.1116 -0.6159  0.2630
  630MOL0     H83159   7.130   8.470   1.372 -0.5338 -0.1295 -0.7580
  630MOL0     H83160   6.902   8.529   1.456  1.3366  0.2270 -0.3418
  631MOL0     O83161   8.824   1.945   0.934 -0.5420 -0.5201  0.3515
  631MOL0     C83162   8.839   1.916   0.814 -0.4558 -0.4202 -0.5548
  631MOL0     O83163   8.744   1.854   0.739 -0.6459  0.4417 -0.2229
  631MOL0     C83164   8.616   1.829   0.784  0.1570  0.2553 -1.2369
  631MOL0     C83165   8.513   1.830   0.691  0.3043  0.1585 -0.1731
  631MOL0     C83166   8.385   1.782   0.727  0.0003  0.3767 -0.7510
  631MOL0     C83167   8.355   1.748   0.855  0.8762 -0.0801  0.3542
  631MOL0     O83168   8.228   1.699   0.879  1.1494  0.1498 -0.3341
  631MOL0     C83169   8.217   1.557   0.910  0.5027 -0.0653  1.1075
  631MOL0     C83170   8.245   1.459   0.797 -0.0325 -0.2399  0.2472
  631MOL0     C83171   8.128   1.430   0.708  0.4586  0.0480 -0.2565
  631MOL0     C83172   8.091   1.542   0.607  1.1559 -0.6504 -0.3416
  631MOL0     C83173   7.962   1.514   0.533 -0.1776 -0.9921 -0.3603
  631MOL0     C83174   7.839   1.561   0.617 -0.1607  0.1078  0.0993
  631MOL0     C83175   7.714   1.513   0.560 -0.5494 -0.2136  0.0545
  631MOL0     C83176   7.600   1.568   0.651 -0.3210 -0.2709 -0.5958
  631MOL0     N83177   7.460   1.530   0.632  0.2146  0.1829  0.1257
  631MOL0     C83178   7.415   1.462   0.521  1.0607 -0.1424  0.7476
  631MOL0     C83179   7.275   1.459   0.534  0.4924  0.7024  1.1123
  631MOL0     C83180   7.187   1.383   0.437 -0.6787 -0.5070 -0.1120
  631MOL0     C83181   7.043   1.377   0.493 -0.6237  0.3818  0.7293
  631MOL0     C83182   6.952   1.289   0.397 -0.7946  0.1094  0.4171
  631MOL0     C83183   6.795   1.321   0.410 -0.2152  0.0370  0.2572
  631MOL0     O83184   6.733   1.257   0.295  0.5706 -0.5328 -0.8395
  631MOL0     C83185   6.602   1.230   0.297  0.1536 -0.3994 -0.0325
  631MOL0     C83186   6.548   1.166   0.188  1.2111  0.4548  0.1243
  631MOL0     C83187   6.413   1.122   0.198  0.6824  0.6001 -1.0921
  631MOL0     C83188   6.331   1.144   0.310  0.1621 -0.6538  0.0915
  631MOL0     C83189   6.189   1.097   0.318 -0.7914 -0.3315 -0.6324
  631MOL0     O83190   6.116   1.138   0.429 -0.4411 -0.2298  0.3805
  631MOL0     C83191   5.991   1.087   0.440  0.3969  0.2432 -0.0177
  631MOL0     C83192   5.902   1.091   0.334  0.3491  0.4469 -0.0254
  631MOL0     C83193   5.772   1.057   0.363 -0.7881  0.7107  0.5400
  631MOL0     C83194   5.725   1.020   0.491  0.6215  0.2350  0.5146
  631MOL0     O83195   5.601   0.972   0.516 -0.1524 -0.7330 -0.6100
  631MOL0     C83196   5.513   0.947   0.409  0.9325  0.2730  0.5086
  631MOL0     C83197   5.378   0.882   0.444 -0.5345 -0.5496  0.1172
  631MOL0     C83198   5.304   0.847   0.319  0.5370  0.0061 -0.2221
  631MOL0     C83199   5.179   0.768   0.340  0.6933  0.5096 -0.3146
  631MOL0     C83200   5.112   0.717   0.206 -0.3643  0.0001  0.9130
  631MOL0     C83201   5.014   0.592   0.219 -0.9307 -0.7960 -0.0051
  631MOL0     C83202   4.944   0.558   0.089 -0.5301  0.0281 -0.0763
  631MOL0     C83203   4.860   0.438   0.118 -0.5408  0.3911  0.7587
  631MOL0    Cl83204   4.732   0.462   0.236 -0.0276 -0.1006  0.0484
  631MOL0     C83205   5.821   1.019   0.594 -0.2993  0.0684  0.3326
  631MOL0     C83206   5.954   1.059   0.573 -0.5387  0.3091 -0.0641
  631MOL0     O83207   6.150   1.021   0.232 -0.4240 -0.1877  0.6136
  631MOL0     C83208   6.390   1.225   0.412 -0.1316  0.8343  1.0050
  631MOL0     C83209   6.523   1.272   0.406 -0.0148  0.3017 -0.3894
  631MOL0     N83210   7.247   1.534   0.646 -0.5867 -0.1286 -0.1340
  631MOL0     N83211   7.356   1.570   0.704 -0.5429  0.1302 -0.1622
  631MOL0     C83212   8.451   1.752   0.955 -0.0660  0.5823 -0.0433
  631MOL0     C83213   8.583   1.788   0.917 -0.1990 -0.9713  0.2388
  631MOL0     C83214   8.971   1.933   0.751  0.0901 -0.1010 -0.8442
  631MOL0     C83215   9.088   1.971   0.826 -0.7420 -0.0602  0.1710
  631MOL0     C83216   9.212   1.990   0.757 -0.0402 -0.9210  1.3271
  631MOL0     C83217   9.218   1.973   0.619 -0.2073  0.4651  0.0989
  631MOL0     O83218   9.339   1.994   0.549 -0.2515 -0.6529 -0.0875
  631MOL0     C83219   9.339   2.013   0.409  0.2748  0.5920 -1.3623
  631MOL0     C83220   9.466   2.074   0.360 -0.3187  0.1570  0.2724
  631MOL0     C83221   9.459   2.055   0.204 -0.4656 -0.2491 -0.4170
  631MOL0     C83222   9.517   2.164   0.129 -0.1161 -0.2574  1.0205
  631MOL0     C83223   9.659   2.153   0.117 -0.1228  0.1618 -0.4699
  631MOL0     C83224   9.783   2.133   0.110 -0.3506 -0.3100  0.8581
  631MOL0     C83225   9.092   1.950   0.548 -0.6114  0.8378 -0.4875
  631MOL0     C83226   8.974   1.923   0.616 -0.6792 -0.1230  0.2232
  631MOL0     H83227   8.537   1.863   0.590 -1.0154  5.4112  0.9640
  631MOL0     H83228   8.304   1.749   0.663 -0.0847 -2.8740  0.7986
  631MOL0     H83229   8.113   1.544   0.942  0.4233 -0.4833  0.7042
  631MOL0     H83230   8.280   1.524   0.993  2.1496 -1.6681 -0.6806
  631MOL0     H83231   8.269   1.364   0.846 -2.0198 -0.7264  0.3451
  631MOL0     H83232   8.332   1.487   0.737  1.9680 -0.4663  2.8654
  631MOL0     H83233   8.049   1.418   0.782  2.1633 -2.2849  1.3227
  631MOL0     H83234   8.150   1.342   0.646 -0.4459  1.3451 -2.5515
  631MOL0     H83235   8.086   1.645   0.642  2.2059  0.8425 -4.1163
  631MOL0     H83236   8.181   1.536   0.544  1.0606  0.9665 -0.6629
  631MOL0     H83237   7.962   1.413   0.491  3.3657 -2.1840  2.0649
  631MOL0     H83238   7.959   1.583   0.449 -0.9687  3.2460  2.8146
  631MOL0     H83239   7.833   1.670   0.621  3.6566  0.4506 -0.4447
  631MOL0     H83240   7.843   1.518   0.718  0.8503  2.8518  1.3296
  631MOL0     H83241   7.708   1.548   0.457  3.3934  2.2014  0.4467
  631MOL0     H83242   7.703   1.404   0.564  0.6282 -0.3128  1.1030
  631MOL0     H83243   7.594   1.677   0.658  0.4582 -0.3112  1.0710
  631MOL0     H83244   7.622   1.529   0.751 -2.4431 -0.5873 -0.1952
  631MOL0     H83245   7.474   1.414   0.443  0.8355  1.8748 -0.7257
  631MOL0     H83246   7.217   1.279   0.431 -1.9285 -0.8108 -2.2341
  631MOL0     H83247   7.184   1.427   0.337  0.4609 -0.1341  0.0114
  631MOL0     H83248   7.007   1.480   0.504 -1.3478  0.3301 -0.8932
  631MOL0     H83249   7.041   1.332   0.592 -1.5554  0.6403  0.8316
  631MOL0     H83250   6.975   1.310   0.293 -1.0573  2.9960  0.8473
  631MOL0     H83251   6.970   1.184   0.422  1.5417  0.3410 -0.0531
  631MOL0     H83252   6.764   1.425   0.405 -2.9575 -0.7555 -1.8332
  631MOL0     H83253   6.764   1.281   0.507 -0.3450  0.2225  0.2929
  631MOL0     H83254   6.626   1.158   0.113  2.0988 -0.1668  1.0833
  631MOL0     H83255   6.362   1.061   0.125 -1.5271 -0.7774  1.4056
  631MOL0     H83256   5.920   1.117   0.230 -1.9883 -2.2997 -1.2714
  631MOL0     H83257   5.707   1.061   0.276 -0.9076 -1.6335  0.4560
  631MOL0     H83258   5.565   0.873   0.348 -0.2028  1.1050 -1.5643
  631MOL0     H83259   5.500   1.034   0.344  0.1641  0.0713  0.3820
  631MOL0     H83260   5.309   0.952   0.492 -0.1094 -1.5561  2.3088
  631MOL0     H83261   5.398   0.797   0.509 -3.8142 -2.4413 -1.1076
  631MOL0     H83262   5.370   0.784   0.257  1.9486  0.6887  0.5305
  631MOL0     H83263   5.288   0.937   0.259  0.7265 -0.6366 -1.2678
  631MOL0     H83264   5.212   0.685   0.403 -0.2295 -0.5408 -1.1719
  631MOL0     H83265   5.107   0.823   0.402  2.6181  1.1237  1.5262
  631MOL0     H83266   5.187   0.692   0.131 -0.3822  2.3214  0.0174
  631MOL0     H83267   5.055   0.797   0.157  2.1599  0.4361 -1.5726
  631MOL0     H83268   4.942   0.620   0.296  1.5090  1.1677  1.7251
  631MOL0     H83269   5.072   0.503   0.243 -0.1732 -0.0959  0.8306
  631MOL0     H83270   4.895   0.655   0.072  2.5241  2.0300  1.6928
  631MOL0     H83271   5.012   0.534   0.006  0.7752 -1.9772  1.4903
  631MOL0     H83272   4.928   0.359   0.150 -0.4381  0.0998 -0.1602
  631MOL0     H83273   4.821   0.402   0.023 -1.5087  0.1533  1.2390
  631MOL0     H83274   5.783   0.969   0.682 -0.3340  0.1349  0.3554
  631MOL0     H83275   6.011   1.063   0.665 -2.3221 -1.0904  1.1676
  631MOL0     H83276   6.328   1.253   0.496 -1.6747  1.1726 -0.2011
  631MOL0     H83277   6.565   1.330   0.488 -4.9661  1.5449  1.6098
  631MOL0     H83278   8.440   1.707   1.053  1.1961  0.6160  0.1309
  631MOL0     H83279   8.649   1.767   1.000 -1.4513 -0.6143  1.3631
  631MOL0     H83280   9.084   2.005   0.929 -1.0525  2.0408 -0.4987
  631MOL0     H83281   9.309   2.013   0.800  0.9130  0.1752 -1.2110
  631MOL0     H83282   9.251   2.071   0.381 -0.2962  1.7525  2.2888
  631MOL0     H83283   9.338   1.911   0.370  0.1598  0.5117 -1.1524
  631MOL0     H83284   9.463   2.180   0.387 -1.1225  0.1003  0.4395
  631MOL0     H83285   9.559   2.035   0.402  0.8264  3.0647  0.6649
  631MOL0     H83286   9.358   2.081   0.172 -1.0157 -0.7731  0.8192
  631MOL0     H83287   9.484   1.958   0.160 -2.7085 -0.1878 -1.9768
  631MOL0     H83288   9.470   2.175   0.031 -0.4750 -0.2142  1.1949
  631MOL0     H83289   9.484   2.252   0.186 -2.3789 -1.0369  1.0241
  631MOL0     H83290   9.882   2.093   0.106  0.5282  1.3091  3.5772
  631MOL0     H83291   9.104   1.946   0.440  3.6940 -0.6367 -0.1640
  631MOL0     H83292   8.880   1.908   0.565 -0.1525 -3.1085 -0.0434
  632MOL0     O83293   9.866   8.593   2.319 -0.5668 -0.6602 -0.1623
  632MOL0     C83294   9.878   8.471   2.285  0.3535 -1.2668 -0.4344
  632MOL0     O83295   9.784   8.378   2.316  0.6324  0.3015 -0.3513
  632MOL0     C83296   9.702   8.410   2.417 -0.0603  0.1495 -0.1581
  632MOL0     C83297   9.748   8.473   2.535  0.4542 -0.2545 -0.3313
  632MOL0     C83298   9.650   8.516   2.628 -0.6252  0.3863 -0.1413
  632MOL0     C83299   9.528   8.463   2.627  0.6426  0.0155 -0.3049
  632MOL0     O83300   9.437   8.506   2.727  0.3960 -0.1993 -0.8039
  632MOL0     C83301   9.305   8.447   2.735  2.0508 -0.4667 -0.5952
  632MOL0     C83302   9.243   8.496   2.869  0.5630  0.9664 -0.2606
  632MOL0     C83303   9.088   8.475   2.861  0.0033  0.3859  0.0980
  632MOL0     C83304   9.018   8.520   2.989  0.6973 -0.1440  0.2787
  632MOL0     C83305   8.866   8.462   2.989  0.2680 -0.3308  1.7655
  632MOL0     C83306   8.786   8.515   2.861 -0.3561 -0.0780 -0.6322
  632MOL0     C83307   8.639   8.452   2.844 -0.2445  0.0905  0.3047
  632MOL0     C83308   8.568   8.497   2.723 -0.3115 -0.0700 -0.2827
  632MOL0     N83309   8.426   8.467   2.725  0.1103  0.4031 -0.3852
  632MOL0     C83310   8.330   8.540   2.785  0.4113 -0.9071  1.9472
  632MOL0     C83311   8.213   8.464   2.771  0.2008  0.8198 -0.3120
  632MOL0     C83312   8.078   8.484   2.836 -0.8622  0.0175 -0.9112
  632MOL0     C83313   7.967   8.548   2.747  0.1757 -1.0171  0.6316
  632MOL0     C83314   7.936   8.468   2.618  0.1646 -0.0405  0.5196
  632MOL0     C83315   7.878   8.326   2.646 -0.6255  0.7058 -0.1473
  632MOL0     O83316   7.776   8.313   2.752  0.4989 -0.3727  0.3635
  632MOL0     C83317   7.652   8.330   2.704 -0.4808  0.4050 -0.8381
  632MOL0     C83318   7.620   8.393   2.575 -0.0494  0.1996  0.0502
  632MOL0     C83319   7.491   8.417   2.538  0.0293 -0.4041 -0.4924
  632MOL0     C83320   7.391   8.354   2.622  0.4150 -0.7883 -0.3543
  632MOL0     C83321   7.246   8.358   2.596  0.0805 -0.6329  0.0093
  632MOL0     O83322   7.153   8.344   2.696  0.1537  0.7999  0.1592
  632MOL0     C83323   7.022   8.331   2.657 -0.3214 -0.1779 -0.4661
  632MOL0     C83324   6.975   8.242   2.563  0.2488  0.1487  1.1915
  632MOL0     C83325   6.840   8.233   2.550  0.4040  0.1875 -0.1737
  632MOL0     C83326   6.752   8.326   2.607  0.9627 -0.2506 -0.0020
  632MOL0     O83327   6.617   8.330   2.598  0.5631 -0.0334  0.5579
  632MOL0     C83328   6.556   8.207   2.581  0.9310 -0.6903 -1.0168
  632MOL0     C83329   6.401   8.234   2.568  0.5399 -0.3648 -0.0742
  632MOL0     C83330   6.326   8.104   2.533  0.5053 -0.2615  0.1536
  632MOL0     C83331   6.176   8.115   2.545 -0.5470  0.3401  0.1737
  632MOL0     C83332   6.099   7.986   2.494  0.7381 -0.7495 -0.1406
  632MOL0     C83333   5.945   8.014   2.499  0.0951  0.5541 -0.3146
  632MOL0     C83334   5.873   7.896   2.439 -1.1812  0.6203 -0.0761
  632MOL0     C83335   5.719   7.905   2.444 -0.0380  0.0717  0.1320
  632MOL0    Cl83336   5.664   7.797   2.308  0.2192 -0.5900  0.1215
  632MOL0     C83337   6.801   8.426   2.694 -0.1098  0.4529  0.1809
  632MOL0     C83338   6.937   8.419   2.721  0.2440  0.1896  0.0508
  632MOL0     O83339   7.217   8.384   2.485 -0.2621 -0.6465  0.7473
  632MOL0     C83340   7.423   8.281   2.741 -0.1381  0.2262 -0.0273
  632MOL0     C83341   7.551   8.276   2.781 -0.1440  0.4750  0.1175
  632MOL0     N83342   8.245   8.354   2.690 -0.1163  0.9502 -0.2259
  632MOL0     N83343   8.373   8.357   2.667 -0.1296 -0.3995 -0.8056
  632MOL0     C83344   9.485   8.382   2.517 -0.1677 -0.4459  0.7106
  632MOL0     C83345   9.577   8.360   2.409  0.7528 -0.0856 -0.7209
  632MOL0     C83346  10.003   8.423   2.227 -0.7878 -0.1077 -0.1571
  632MOL0     C83347  10.007   8.289   2.176  0.7652  0.3492  0.2491
  632MOL0     C83348  10.123   8.239   2.121  0.9632 -0.4915  0.2979
  632MOL0     C83349  10.239   8.306   2.124  0.6974 -1.1624 -0.0943
  632MOL0     O83350  10.340   8.251   2.055 -0.0951 -0.8601  0.2148
  632MOL0     C83351  10.429   8.175   2.139  0.7822 -0.4420 -0.9193
  632MOL0     C83352  10.572   8.233   2.141  0.0959  0.2490 -0.3099
  632MOL0     C83353  10.657   8.217   2.012 -0.5256 -0.9209  0.5675
  632MOL0     C83354  10.797   8.154   2.038  0.4391  0.2607 -0.2882
  632MOL0     C83355  10.903   8.249   2.080  0.1258 -0.5528  0.6481
  632MOL0     C83356  10.992   8.333   2.099  0.6482  0.3953  0.4997
  632MOL0     C83357  10.247   8.435   2.179 -0.3211  0.6554 -0.7742
  632MOL0     C83358  10.126   8.491   2.234  0.5995  0.1317 -0.2358
  632MOL0     H83359   9.851   8.502   2.549 -0.1470  1.2522  1.3802
  632MOL0     H83360   9.682   8.579   2.711  1.8185  3.2576 -2.9506
  632MOL0     H83361   9.302   8.337   2.729  0.9085 -0.4407 -0.7917
  632MOL0     H83362   9.246   8.493   2.656  0.1550 -3.6051 -1.1970
  632MOL0     H83363   9.262   8.603   2.880  2.2538  0.5604  1.1980
  632MOL0     H83364   9.288   8.436   2.949 -3.4053 -0.4153  1.1897
  632MOL0     H83365   9.068   8.368   2.849 -0.4102  0.6441 -1.7789
  632MOL0     H83366   9.048   8.521   2.771 -4.3547 -1.7314  0.6590
  632MOL0     H83367   9.059   8.494   3.088 -0.6184  0.5209  1.0200
  632MOL0     H83368   9.018   8.628   2.976  4.2477 -0.2829 -2.7736
  632MOL0     H83369   8.819   8.483   3.086  0.6444 -0.3604  1.9543
  632MOL0     H83370   8.865   8.353   2.985  0.6522 -0.2842 -0.0110
  632MOL0     H83371   8.842   8.492   2.770  0.6036 -2.3558  0.4602
  632MOL0     H83372   8.780   8.624   2.865 -3.8811 -0.1287 -0.9920
  632MOL0     H83373   8.635   8.343   2.844 -2.3864  0.0739 -1.5854
  632MOL0     H83374   8.577   8.475   2.931 -1.4603 -0.6928 -0.3214
  632MOL0     H83375   8.624   8.463   2.636  2.7393  0.8064  1.2154
  632MOL0     H83376   8.583   8.605   2.732 -3.2524  0.3124  1.5032
  632MOL0     H83377   8.330   8.640   2.825 -1.4731 -1.3210  3.0689
  632MOL0     H83378   8.089   8.544   2.926 -2.6182  1.2206 -1.4368
  632MOL0     H83379   8.041   8.390   2.878 -1.6274  0.7618  0.1442
  632MOL0     H83380   7.994   8.651   2.724  0.1072 -1.4141 -1.4412
  632MOL0     H83381   7.877   8.554   2.809 -1.0598 -0.7998 -1.1066
  632MOL0     H83382   7.871   8.534   2.561  0.7832  1.3362  1.3647
  632MOL0     H83383   8.022   8.453   2.551 -0.3105  1.5752 -0.5062
  632MOL0     H83384   7.965   8.272   2.684  1.0135  2.1179 -1.7433
  632MOL0     H83385   7.849   8.260   2.563  1.4238  0.3142 -0.5988
  632MOL0     H83386   7.699   8.424   2.508  0.5259  0.0376  0.6475
  632MOL0     H83387   7.468   8.474   2.449 -2.8351  1.4616  1.3009
  632MOL0     H83388   7.037   8.168   2.513  0.9308  1.2549  0.3620
  632MOL0     H83389   6.805   8.147   2.495 -4.4606  1.0551  1.1484
  632MOL0     H83390   6.567   8.138   2.665  2.4215 -0.3932 -0.9500
  632MOL0     H83391   6.594   8.155   2.493  1.1217  0.5453 -1.6925
  632MOL0     H83392   6.387   8.312   2.492 -3.7808  0.6328  1.4574
  632MOL0     H83393   6.380   8.274   2.668  0.9772  1.0117 -0.5050
  632MOL0     H83394   6.362   8.034   2.608 -0.5010 -2.2611 -1.1549
  632MOL0     H83395   6.349   8.065   2.434  1.2049 -0.8087  0.5221
  632MOL0     H83396   6.151   8.122   2.652 -1.3249  0.5847 -0.0157
  632MOL0     H83397   6.145   8.212   2.503  0.0946  2.5827  4.3322
  632MOL0     H83398   6.125   7.902   2.559 -1.7864 -0.3025  1.5797
  632MOL0     H83399   6.130   7.975   2.390  2.0800 -0.2607  0.1808
  632MOL0     H83400   5.918   8.102   2.440 -3.5798 -0.4524 -0.3416
  632MOL0     H83401   5.921   8.029   2.605 -0.6832  0.8356 -0.5257
  632MOL0     H83402   5.905   7.891   2.335  0.6262  0.7734  0.4299
  632MOL0     H83403   5.908   7.802   2.481  1.4659  1.1370 -0.9179
  632MOL0     H83404   5.692   8.011   2.436 -1.1561 -0.1553  0.7270
  632MOL0     H83405   5.690   7.869   2.543  1.8288 -0.7587  0.4261
  632MOL0     H83406   6.750   8.508   2.744 -0.5517 -0.9188  2.0955
  632MOL0     H83407   6.969   8.509   2.772 -0.7291 -0.5335  2.0562
  632MOL0     H83408   7.347   8.245   2.810  0.5728  0.1683  0.7472
  632MOL0     H83409   7.571   8.221   2.872 -3.0498  0.3256  0.7492
  632MOL0     H83410   9.380   8.357   2.512 -1.6039  4.4843  1.1122
  632MOL0     H83411   9.548   8.291   2.330 -0.6380 -1.5334  0.9570
  632MOL0     H83412   9.917   8.229   2.161  0.7379  0.1602  1.0816
  632MOL0     H83413  10.131   8.143   2.071 -1.7725  0.5457 -2.4558
  632MOL0     H83414  10.428   8.073   2.100 -0.0746 -1.0414  0.6091
  632MOL0     H83415  10.392   8.167   2.242 -0.8368 -0.9913 -1.5122
  632MOL0     H83416  10.578   8.340   2.165  1.4123 -0.1101  1.1475
  632MOL0     H83417  10.615   8.183   2.229  1.2913 -4.1413 -3.0877
  632MOL0     H83418  10.677   8.315   1.967  0.2315 -1.2242  0.2158
  632MOL0     H83419  10.605   8.155   1.939 -1.9090 -0.6251  1.2788
  632MOL0     H83420  10.787   8.084   2.122  3.8008  1.6573  1.4595
  632MOL0     H83421  10.836   8.105   1.948 -0.3261 -0.0520 -0.4596
  632MOL0     H83422  11.073   8.394   2.134  0.5534  0.2951  0.9008
  632MOL0     H83423  10.337   8.495   2.171  0.3762 -0.2389  0.0514
  632MOL0     H83424  10.117   8.595   2.266  1.3091  0.1708 -0.1452
  633MOL0     O83425   5.677   8.580   8.114  0.2913 -0.0824  0.1770
  633MOL0     C83426   5.789   8.565   8.060  1.5686 -0.7437 -0.5129
  633MOL0     O83427   5.805   8.567   7.926  0.4317 -0.5647  0.7612
  633MOL0     C83428   5.723   8.504   7.832 -0.0916  0.1529 -0.4511
  633MOL0     C83429   5.714   8.540   7.698 -0.7038 -0.1160  0.0597
  633MOL0     C83430   5.632   8.482   7.603  0.1034 -0.0712  0.7032
  633MOL0     C83431   5.551   8.371   7.642  0.2001 -0.0241  0.7300
  633MOL0     O83432   5.455   8.301   7.573 -0.0651 -0.2060  0.0632
  633MOL0     C83433   5.399   8.367   7.454 -1.0999  1.1107 -0.2464
  633MOL0     C83434   5.325   8.263   7.385  0.6035  0.2500 -0.6523
  633MOL0     C83435   5.256   8.308   7.255  0.7750 -0.0211  0.1701
  633MOL0     C83436   5.153   8.206   7.200 -0.4680  1.4042  0.8288
  633MOL0     C83437   5.029   8.175   7.280  1.4174 -0.1758 -0.3057
  633MOL0     C83438   4.946   8.302   7.323  0.1694 -0.0024  0.3802
  633MOL0     C83439   4.881   8.272   7.462 -0.0597  0.5452 -0.2765
  633MOL0     C83440   4.763   8.170   7.458 -0.3997  0.5936  0.3680
  633MOL0     N83441   4.716   8.131   7.595 -0.5519 -0.4102 -0.1649
  633MOL0     C83442   4.586   8.097   7.629 -1.0280 -0.3536  0.2205
  633MOL0     C83443   4.588   8.079   7.765  0.2223  0.2635 -0.1639
  633MOL0     C83444   4.479   8.061   7.867 -0.3382 -0.0153 -0.6278
  633MOL0     C83445   4.363   7.973   7.821  0.4878 -0.0215  0.5016
  633MOL0     C83446   4.239   8.047   7.789 -0.6182 -0.3489  0.5550
  633MOL0     C83447   4.116   7.952   7.780  0.5065  0.1200 -0.3742
  633MOL0     O83448   4.002   8.035   7.745  0.2051 -0.1220 -0.0699
  633MOL0     C83449   3.893   7.965   7.721 -0.6541  0.0976 -0.3262
  633MOL0     C83450   3.796   7.943   7.819  0.1158  0.4095 -0.0494
  633MOL0     C83451   3.679   7.883   7.788  0.4326 -0.2297 -0.6119
  633MOL0     C83452   3.658   7.836   7.655  0.2708  0.0036  0.7173
  633MOL0     C83453   3.532   7.760   7.620 -0.4783  0.3080 -0.2712
  633MOL0     O83454   3.456   7.709   7.726  0.2266  0.3242 -0.2131
  633MOL0     C83455   3.332   7.649   7.703 -0.4296  0.1338 -0.6547
  633MOL0     C83456   3.226   7.692   7.780 -0.5671  1.2590 -1.1599
  633MOL0     C83457   3.097   7.638   7.748 -0.7220 -0.7821 -0.3720
  633MOL0     C83458   3.076   7.553   7.642 -0.1492 -0.5460  0.2029
  633MOL0     O83459   2.964   7.484   7.612 -0.1127  0.4190  0.3862
  633MOL0     C83460   2.843   7.515   7.677 -0.8271 -0.0559  0.3538
  633MOL0     C83461   2.730   7.414   7.649 -0.3583 -0.1916 -0.2261
  633MOL0     C83462   2.605   7.432   7.741  0.2047 -0.1365  0.2487
  633MOL0     C83463   2.508   7.311   7.726 -1.0100 -0.7178  0.2409
  633MOL0     C83464   2.368   7.336   7.784  0.5879  0.2659 -0.4264
  633MOL0     C83465   2.299   7.209   7.833 -0.4448 -0.2489  0.5718
  633MOL0     C83466   2.148   7.238   7.844  0.1883  0.6183 -0.3913
  633MOL0     C83467   2.069   7.115   7.884 -0.3271 -0.3255 -0.1162
  633MOL0    Cl83468   2.121   7.089   8.055  0.6043  0.6331  0.0755
  633MOL0     C83469   3.189   7.501   7.582 -0.3060 -0.4153  0.7553
  633MOL0     C83470   3.314   7.554   7.597 -0.7772 -0.9810  0.3998
  633MOL0     O83471   3.503   7.748   7.499 -0.0795  1.2888  1.0407
  633MOL0     C83472   3.763   7.841   7.557  0.1760 -0.2122 -0.5891
  633MOL0     C83473   3.880   7.909   7.597 -0.9757  0.3480  0.3876
  633MOL0     N83474   4.713   8.091   7.813  0.7516 -0.1831 -0.7239
  633MOL0     N83475   4.790   8.122   7.707  0.3725 -0.2642 -0.5729
  633MOL0     C83476   5.574   8.312   7.769 -0.0140  0.0715  0.9208
  633MOL0     C83477   5.648   8.381   7.863  0.5662 -0.1211 -0.6184
  633MOL0     C83478   5.907   8.555   8.141 -0.8304  0.2809  0.7714
  633MOL0     C83479   5.897   8.553   8.280 -0.2619 -0.2972 -0.0921
  633MOL0     C83480   6.020   8.535   8.357  0.1804  0.7892  0.2677
  633MOL0     C83481   6.148   8.524   8.291 -0.8451  0.6740  0.2277
  633MOL0     O83482   6.267   8.498   8.366  0.5917  0.4314 -0.1721
  633MOL0     C83483   6.389   8.455   8.306  0.1599  0.0077 -0.3723
  633MOL0     C83484   6.506   8.447   8.397  0.9143  0.1015 -0.4047
  633MOL0     C83485   6.508   8.328   8.484  0.0632  0.3848 -0.4491
  633MOL0     C83486   6.621   8.332   8.593 -0.3273  0.1356  0.0988
  633MOL0     C83487   6.610   8.439   8.687 -0.0101 -0.4563 -0.1516
  633MOL0     C83488   6.586   8.526   8.769 -0.0634  0.2685 -0.9764
  633MOL0     C83489   6.156   8.530   8.153  0.1714  1.0548 -0.0451
  633MOL0     C83490   6.039   8.548   8.076  0.5608 -0.3945 -0.2419
  633MOL0     H83491   5.782   8.616   7.661 -1.8290  0.6265 -0.5417
  633MOL0     H83492   5.615   8.513   7.501 -4.7224 -0.7207  1.0599
  633MOL0     H83493   5.478   8.407   7.390  0.5664  0.8782  1.5789
  633MOL0     H83494   5.330   8.448   7.478 -0.0771  2.7823 -2.6239
  633MOL0     H83495   5.243   8.235   7.451  2.0052 -0.2615  0.9432
  633MOL0     H83496   5.391   8.177   7.370 -2.1235 -2.2916  0.8246
  633MOL0     H83497   5.336   8.324   7.182  0.1806 -2.6315 -1.1598
  633MOL0     H83498   5.204   8.401   7.280 -0.6553 -1.4035  2.7417
  633MOL0     H83499   5.108   8.250   7.111  1.1662 -1.2443 -1.4564
  633MOL0     H83500   5.203   8.114   7.169  2.8050  3.0392  0.8409
  633MOL0     H83501   5.065   8.127   7.371 -0.7398  1.0343  1.2650
  633MOL0     H83502   4.955   8.112   7.230  0.6586  0.4578  0.0061
  633MOL0     H83503   4.875   8.331   7.245 -1.2141 -3.0107  0.3782
  633MOL0     H83504   5.006   8.390   7.345  0.9699 -0.4005 -0.1558
  633MOL0     H83505   4.956   8.238   7.534  1.8012  2.6691 -1.1027
  633MOL0     H83506   4.845   8.364   7.510 -0.0229  0.5380 -0.2348
  633MOL0     H83507   4.793   8.079   7.405  0.3231  1.9667 -1.7107
  633MOL0     H83508   4.680   8.208   7.397  0.2914 -1.3504 -1.9824
  633MOL0     H83509   4.503   8.082   7.560 -1.7473 -0.9815  1.1934
  633MOL0     H83510   4.425   8.152   7.894 -3.1047 -2.0599  1.2896
  633MOL0     H83511   4.530   8.025   7.957 -1.0678 -1.4469 -0.7522
  633MOL0     H83512   4.346   7.907   7.907 -1.6467  0.1423  0.2558
  633MOL0     H83513   4.380   7.909   7.734  0.6878 -1.5436  1.6307
  633MOL0     H83514   4.219   8.122   7.866  2.2640  0.5233  0.5661
  633MOL0     H83515   4.254   8.103   7.696 -0.8816 -0.5589  0.3859
  633MOL0     H83516   4.097   7.896   7.872 -2.1809  2.6312  0.7673
  633MOL0     H83517   4.136   7.885   7.695  1.7573  0.6599 -0.5306
  633MOL0     H83518   3.806   7.980   7.921 -1.1173  1.9443 -0.4395
  633MOL0     H83519   3.601   7.873   7.863 -0.0253  2.2436 -0.6970
  633MOL0     H83520   3.232   7.771   7.854  0.6066 -0.2895  0.5300
  633MOL0     H83521   3.010   7.693   7.782 -2.3056 -3.3166 -0.0796
  633MOL0     H83522   2.804   7.606   7.630 -0.0210 -2.0255 -4.6723
  633MOL0     H83523   2.863   7.518   7.785 -0.2190 -2.2297  0.3382
  633MOL0     H83524   2.776   7.316   7.662 -1.6938 -1.0019 -1.2680
  633MOL0     H83525   2.697   7.409   7.545  0.6224 -0.5734 -0.5294
  633MOL0     H83526   2.553   7.518   7.699  0.3384 -0.1072  0.1415
  633MOL0     H83527   2.627   7.450   7.847 -0.4602  1.1772  0.1868
  633MOL0     H83528   2.498   7.285   7.620  1.1274 -1.6495  0.2148
  633MOL0     H83529   2.553   7.221   7.769  2.0560 -0.2475 -1.6644
  633MOL0     H83530   2.301   7.379   7.710 -2.1871 -0.6316  1.4054
  633MOL0     H83531   2.367   7.414   7.861 -1.0158 -1.0073  0.9356
  633MOL0     H83532   2.349   7.180   7.925 -1.7894 -2.3988  0.6942
  633MOL0     H83533   2.313   7.129   7.759 -2.5317  0.4070 -0.6246
  633MOL0     H83534   2.136   7.321   7.915  2.9498  0.7554  0.0348
  633MOL0     H83535   2.092   7.266   7.755  1.0649 -1.8841 -1.8429
  633MOL0     H83536   2.076   7.022   7.827  2.1692 -1.2275  1.5091
  633MOL0     H83537   1.961   7.136   7.889  0.2101  2.5655  3.2678
  633MOL0     H83538   3.178   7.431   7.500  1.4754  1.6257 -1.3902
  633MOL0     H83539   3.395   7.526   7.531  0.4042  0.5577  1.1277
  633MOL0     H83540   3.743   7.793   7.461 -4.5392  0.9623 -0.4287
  633MOL0     H83541   3.964   7.911   7.527  1.3372 -0.0428  2.9819
  633MOL0     H83542   5.523   8.220   7.797  0.2421 -0.1448  0.6768
  633MOL0     H83543   5.670   8.345   7.963 -2.1002 -1.2827 -0.3750
  633MOL0     H83544   5.804   8.556   8.337  0.0901 -0.3144  0.4984
  633MOL0     H83545   6.007   8.528   8.465 -0.8219 -2.2742  0.0276
  633MOL0     H83546   6.426   8.529   8.235  0.1857  0.0185 -0.3473
  633MOL0     H83547   6.371   8.361   8.253 -2.0409  1.2521 -1.9903
  633MOL0     H83548   6.596   8.437   8.335  2.2624 -2.5409  1.7946
  633MOL0     H83549   6.511   8.541   8.453 -0.5122  0.0610 -0.1576
  633MOL0     H83550   6.515   8.237   8.425 -3.1290 -0.4431  0.2475
  633MOL0     H83551   6.416   8.305   8.539 -1.6194 -1.5809 -3.7145
  633MOL0     H83552   6.624   8.233   8.640  2.1699  0.1060  0.0524
  633MOL0     H83553   6.716   8.342   8.539 -0.4428  0.1484 -0.1020
  633MOL0     H83554   6.576   8.609   8.836  0.2751  0.5534 -1.2785
  633MOL0     H83555   6.256   8.511   8.116 -0.4447 -2.3640 -0.2300
  633MOL0     H83556   6.036   8.545   7.967 -2.9054  0.2668 -0.3019
  634MOL0     O83557   7.479   9.213   0.028  0.2880 -1.2219 -0.2926
  634MOL0     C83558   7.510   9.100   0.052  0.0702  1.2550 -0.5558
  634MOL0     O83559   7.419   8.994   0.039 -0.6288 -0.0386 -0.2237
  634MOL0     C83560   7.284   9.007   0.024  0.0627 -0.4450 -0.2454
  634MOL0     C83561   7.206   9.110   0.072  0.6032  0.5992 -0.1098
  634MOL0     C83562   7.076   9.115   0.027 -0.2236 -1.6897 -0.4106
  634MOL0     C83563   7.020   9.021  -0.053  0.3634 -0.1549  1.4211
  634MOL0     O83564   6.887   9.035  -0.082  0.5682 -0.0782  0.2572
  634MOL0     C83565   6.849   8.983  -0.214 -0.2905  0.7142 -0.1752
  634MOL0     C83566   6.706   9.033  -0.257  0.0652  0.9286 -0.0994
  634MOL0     C83567   6.596   8.937  -0.201  0.3118  0.0146  0.6214
  634MOL0     C83568   6.452   8.988  -0.230 -0.5090  0.0867  0.0586
  634MOL0     C83569   6.343   8.884  -0.210  0.3673 -0.3640  0.0135
  634MOL0     C83570   6.216   8.952  -0.265  0.8046 -0.5459 -0.9108
  634MOL0     C83571   6.141   9.019  -0.154 -0.1330 -0.2915  0.3869
  634MOL0     C83572   6.020   9.098  -0.194  0.5141  0.0680  0.1355
  634MOL0     N83573   5.898   9.011  -0.193 -0.0328 -1.0290  0.7985
  634MOL0     C83574   5.840   8.950  -0.083  0.8096 -0.3435  0.2594
  634MOL0     C83575   5.732   8.884  -0.133  0.0225 -0.1156 -0.2339
  634MOL0     C83576   5.641   8.799  -0.046 -0.2317 -0.5512 -0.0587
  634MOL0     C83577   5.550   8.700  -0.139 -0.7080 -0.0366  0.7054
  634MOL0     C83578   5.436   8.640  -0.066  0.5940  0.5137 -0.2056
  634MOL0     C83579   5.481   8.521   0.022  0.2729  0.0836 -0.3516
  634MOL0     O83580   5.375   8.485   0.115 -0.3016 -0.2776 -0.1255
  634MOL0     C83581   5.386   8.529   0.249  0.7271  0.3609 -0.4934
  634MOL0     C83582   5.271   8.486   0.324 -0.4685 -0.3400 -0.8274
  634MOL0     C83583   5.263   8.527   0.456 -0.6965  0.2475  0.7608
  634MOL0     C83584   5.354   8.609   0.520  0.0861 -0.5109 -0.2481
  634MOL0     C83585   5.337   8.661   0.661 -0.7552  0.4384 -0.4746
  634MOL0     O83586   5.234   8.604   0.733  0.3070  0.0190 -0.7233
  634MOL0     C83587   5.248   8.598   0.878 -0.2057  0.2554  0.5869
  634MOL0     C83588   5.128   8.581   0.945 -0.1650  0.7261  0.1877
  634MOL0     C83589   5.111   8.533   1.077  0.4696 -0.0095  0.2396
  634MOL0     C83590   5.232   8.541   1.160  0.6258 -0.2509 -0.0417
  634MOL0     O83591   5.234   8.506   1.294  0.0247 -0.3846 -0.2423
  634MOL0     C83592   5.103   8.508   1.365 -0.1434  0.5347 -0.3601
  634MOL0     C83593   5.133   8.463   1.513 -0.4090 -0.3294 -0.1060
  634MOL0     C83594   4.991   8.444   1.582 -0.5111 -0.6996  0.0672
  634MOL0     C83595   4.899   8.328   1.515  0.1179  0.4357 -0.4119
  634MOL0     C83596   4.797   8.255   1.598 -0.0354  1.2554 -0.5214
  634MOL0     C83597   4.855   8.157   1.705  0.4067  0.3258 -0.0529
  634MOL0     C83598   4.742   8.070   1.767 -1.0434 -0.0194 -0.4171
  634MOL0     C83599   4.800   7.971   1.871 -0.6255  0.7905  0.3371
  634MOL0    Cl83600   4.900   8.044   2.007  0.3404  0.0112 -0.3284
  634MOL0     C83601   5.348   8.571   1.095  0.5139  0.5743  1.4346
  634MOL0     C83602   5.357   8.609   0.958  0.5305 -0.4870  0.4491
  634MOL0     O83603   5.426   8.737   0.709  0.8634  0.0732  0.0592
  634MOL0     C83604   5.469   8.643   0.438  0.1085 -0.5265 -0.0051
  634MOL0     C83605   5.479   8.611   0.305 -0.0841  0.2644 -0.6000
  634MOL0     N83606   5.715   8.903  -0.269 -0.4542  0.4911 -0.2212
  634MOL0     N83607   5.814   8.985  -0.299  0.4803  1.2023 -0.6490
  634MOL0     C83608   7.097   8.920  -0.100  0.1718  0.5107  0.2081
  634MOL0     C83609   7.227   8.911  -0.055  0.5284  0.1618 -0.3271
  634MOL0     C83610   7.642   9.081   0.107  0.4647  0.6855 -0.2460
  634MOL0     C83611   7.722   9.183   0.149 -0.6538 -0.3986 -0.4691
  634MOL0     C83612   7.850   9.160   0.198 -0.7967 -0.0612 -0.1979
  634MOL0     C83613   7.908   9.029   0.190  0.0107 -0.4025 -0.9411
  634MOL0     O83614   8.038   8.990   0.229  0.4637  0.7736  0.0799
  634MOL0     C83615   8.125   9.085   0.293 -0.5062 -0.1692  0.0359
  634MOL0     C83616   8.176   9.194   0.196 -0.3177 -0.1686  0.3866
  634MOL0     C83617   8.325   9.243   0.225 -0.3953 -0.1673 -0.0771
  634MOL0     C83618   8.430   9.130   0.204 -0.2225 -0.1032 -0.9557
  634MOL0     C83619   8.426   9.089   0.059  0.0909 -0.0459 -0.1795
  634MOL0     C83620   8.400   9.067  -0.062 -0.7067 -0.1522 -0.3278
  634MOL0     C83621   7.825   8.925   0.157 -0.2356  1.0484  0.6721
  634MOL0     C83622   7.696   8.951   0.117 -0.1542 -0.2184 -0.4160
  634MOL0     H83623   7.254   9.194   0.120  1.0820  0.9395 -1.1591
  634MOL0     H83624   7.013   9.196   0.063 -0.6346 -3.6538  4.0122
  634MOL0     H83625   6.861   8.874  -0.217  0.7748  0.8251 -0.3119
  634MOL0     H83626   6.921   9.027  -0.283  0.7344  2.3949  1.8574
  634MOL0     H83627   6.679   9.036  -0.363 -4.5977 -0.5120  0.7769
  634MOL0     H83628   6.692   9.133  -0.215 -0.3027  0.0701  1.9489
  634MOL0     H83629   6.611   8.936  -0.092 -2.1227  3.9543  1.1609
  634MOL0     H83630   6.610   8.837  -0.243  0.5623  0.4150 -0.2654
  634MOL0     H83631   6.427   9.067  -0.158 -0.4239  0.4618 -0.3235
  634MOL0     H83632   6.440   9.027  -0.332  0.0750  1.4126  0.4729
  634MOL0     H83633   6.329   8.854  -0.106 -1.1613  1.9865  0.5765
  634MOL0     H83634   6.354   8.799  -0.277 -3.8088 -2.7275  1.8994
  634MOL0     H83635   6.150   8.870  -0.295  0.2446 -0.9344  1.2196
  634MOL0     H83636   6.230   9.022  -0.349 -2.6106  1.8655  0.3280
  634MOL0     H83637   6.109   8.937  -0.089 -1.6616 -0.4978 -0.5678
  634MOL0     H83638   6.214   9.080  -0.100  0.2324 -1.0055  0.7165
  634MOL0     H83639   6.038   9.144  -0.292  2.3933 -0.6121  0.1062
  634MOL0     H83640   5.998   9.178  -0.124  1.0152  0.5911 -0.2931
  634MOL0     H83641   5.866   8.954   0.022 -0.0192 -0.9484  0.5030
  634MOL0     H83642   5.577   8.868   0.011  1.2428  0.4899  0.3781
  634MOL0     H83643   5.697   8.741   0.027 -0.8663  1.4499  2.1236
  634MOL0     H83644   5.610   8.620  -0.183 -0.2837  0.8371 -0.3596
  634MOL0     H83645   5.512   8.761  -0.221 -2.8208 -1.9657  0.1532
  634MOL0     H83646   5.398   8.721  -0.003  2.3593  1.2051  0.0513
  634MOL0     H83647   5.357   8.599  -0.129 -0.5332  1.0914  0.7810
  634MOL0     H83648   5.577   8.538   0.071  0.2980  1.6359 -0.8711
  634MOL0     H83649   5.498   8.441  -0.051  0.7581 -1.5458  1.4868
  634MOL0     H83650   5.204   8.416   0.276  0.7083 -1.4376 -0.9287
  634MOL0     H83651   5.184   8.474   0.509  0.5552 -0.3089  2.1427
  634MOL0     H83652   5.040   8.583   0.881  1.0297 -1.7809 -1.7177
  634MOL0     H83653   5.010   8.514   1.112 -0.3503  2.9704 -0.2130
  634MOL0     H83654   5.035   8.428   1.331 -0.9219  0.3810  1.4505
  634MOL0     H83655   5.044   8.599   1.358 -3.6393 -1.5899 -1.1563
  634MOL0     H83656   5.199   8.534   1.562  1.2678 -1.7052 -0.2625
  634MOL0     H83657   5.191   8.371   1.501 -0.1419 -0.1624 -0.1117
  634MOL0     H83658   4.940   8.541   1.586  2.1692  0.8633 -1.0371
  634MOL0     H83659   5.020   8.413   1.683  2.2905  0.1260 -0.4026
  634MOL0     H83660   4.849   8.372   1.428 -0.2672  1.6120  0.3877
  634MOL0     H83661   4.971   8.256   1.475  0.7477  1.1685 -0.6188
  634MOL0     H83662   4.752   8.188   1.523  0.0210  1.8463 -1.0940
  634MOL0     H83663   4.720   8.319   1.643 -1.1911  0.1927 -0.9026
  634MOL0     H83664   4.910   8.220   1.776  2.6184 -0.9311 -0.5620
  634MOL0     H83665   4.932   8.092   1.663  0.1736  0.8945 -1.4024
  634MOL0     H83666   4.675   8.141   1.817 -0.7765 -0.7525  1.0293
  634MOL0     H83667   4.694   8.018   1.684 -1.6373 -1.0075  0.5323
  634MOL0     H83668   4.858   7.897   1.815 -1.4380  2.2890 -2.6948
  634MOL0     H83669   4.718   7.916   1.918 -1.0103  1.0570 -0.0157
  634MOL0     H83670   5.436   8.580   1.158  0.1648  2.1938  1.7470
  634MOL0     H83671   5.458   8.631   0.923 -0.2399  1.7537 -0.5447
  634MOL0     H83672   5.553   8.698   0.479  0.5712 -0.9058 -0.4394
  634MOL0     H83673   5.563   8.630   0.239 -0.5520 -0.5137 -1.4561
  634MOL0     H83674   7.055   8.836  -0.154  1.1691  0.0047  0.1975
  634MOL0     H83675   7.284   8.824  -0.087 -3.1480 -2.4432 -0.4760
  634MOL0     H83676   7.691   9.287   0.155  0.7885 -0.0413  1.7743
  634MOL0     H83677   7.910   9.240   0.240 -2.8010  1.0818  0.6637
  634MOL0     H83678   8.210   9.021   0.320 -2.5826 -1.8988  2.9723
  634MOL0     H83679   8.093   9.126   0.389 -1.8866  0.9207 -0.8456
  634MOL0     H83680   8.166   9.149   0.097  0.9239 -2.7291  1.3166
  634MOL0     H83681   8.108   9.275   0.222  1.0267  0.1779  3.2511
  634MOL0     H83682   8.340   9.273   0.329  3.2859 -0.5277 -0.3803
  634MOL0     H83683   8.348   9.326   0.158  2.0462  0.0708  0.9593
  634MOL0     H83684   8.523   9.184   0.226 -0.3213  0.8599 -2.7154
  634MOL0     H83685   8.426   9.043   0.270  2.0232  0.0445 -0.5515
  634MOL0     H83686   8.386   9.061  -0.168  1.2952  0.4547 -0.6812
  634MOL0     H83687   7.863   8.823   0.154 -1.1976  0.6564  1.2672
  634MOL0     H83688   7.630   8.866   0.102  1.1658 -1.1919 -0.8961
  635MOL0     O83689   8.021   2.941   4.168  0.1999 -0.5637 -0.1267
  635MOL0     C83690   8.091   2.929   4.068  0.3502  0.1203  0.3907
  635MOL0     O83691   8.040   2.906   3.940 -0.0068  0.4350  0.5274
  635MOL0     C83692   7.903   2.922   3.925 -0.5554  0.2280 -0.2955
  635MOL0     C83693   7.859   3.049   3.917  1.0564 -0.3261 -0.7485
  635MOL0     C83694   7.721   3.084   3.914 -0.2393  0.4670 -0.5205
  635MOL0     C83695   7.631   2.975   3.918  0.0711 -0.2796 -0.0875
  635MOL0     O83696   7.496   3.009   3.909 -0.2915  0.4231 -0.4329
  635MOL0     C83697   7.399   2.918   3.971 -0.0440 -0.1114 -0.2609
  635MOL0     C83698   7.256   2.978   3.948 -0.1257 -0.2468 -0.0713
  635MOL0     C83699   7.235   3.032   3.808  0.0447 -0.4967 -0.1855
  635MOL0     C83700   7.084   3.068   3.804  0.1157 -0.0272 -0.1702
  635MOL0     C83701   7.055   3.126   3.664 -0.1364 -0.3464 -0.4360
  635MOL0     C83702   6.909   3.188   3.657 -0.3901 -0.2182  0.0588
  635MOL0     C83703   6.803   3.085   3.686  0.6608 -0.3746 -1.1993
  635MOL0     C83704   6.676   3.133   3.634  0.8617 -0.7289 -0.1252
  635MOL0     N83705   6.574   3.039   3.587 -0.6440 -0.1486 -0.4077
  635MOL0     C83706   6.446   3.025   3.626  0.1292  0.6269  0.5520
  635MOL0     C83707   6.389   2.935   3.544 -0.7204 -0.3315  1.0660
  635MOL0     C83708   6.252   2.906   3.540  0.1046  0.2085 -0.0899
  635MOL0     C83709   6.169   3.003   3.456 -1.2979  1.1147  0.1773
  635MOL0     C83710   6.124   3.105   3.548 -0.1623 -0.0715 -0.0973
  635MOL0     C83711   5.980   3.139   3.523 -0.0699 -0.4483  0.2766
  635MOL0     O83712   5.884   3.038   3.558  0.0387  0.1876  0.7006
  635MOL0     C83713   5.765   3.037   3.499  0.4125 -0.7745  0.0503
  635MOL0     C83714   5.743   3.014   3.369  0.6162  0.5321  0.3904
  635MOL0     C83715   5.609   3.006   3.317  0.2650  0.2295 -0.5561
  635MOL0     C83716   5.501   3.022   3.409  0.1056  0.9419 -0.0194
  635MOL0     C83717   5.360   3.018   3.357 -0.9816 -0.3133  1.0336
  635MOL0     O83718   5.263   3.070   3.435 -0.6377  0.1722  0.5343
  635MOL0     C83719   5.141   3.089   3.382  0.3800  0.2934  0.8511
  635MOL0     C83720   5.091   3.103   3.244 -0.2820 -0.5001  0.6635
  635MOL0     C83721   4.959   3.132   3.213 -0.0387 -0.1646 -0.7238
  635MOL0     C83722   4.864   3.153   3.322 -0.3879  1.0283 -0.5592
  635MOL0     O83723   4.728   3.168   3.316  0.5665 -0.9474 -0.0310
  635MOL0     C83724   4.681   3.219   3.187 -0.4005  0.0056 -0.2892
  635MOL0     C83725   4.539   3.277   3.186 -0.4255 -1.0527 -0.1918
  635MOL0     C83726   4.492   3.352   3.057 -0.0329 -0.0985  0.4813
  635MOL0     C83727   4.463   3.255   2.948  0.2758  0.0619 -0.4412
  635MOL0     C83728   4.429   3.336   2.829  0.0180 -0.3746  0.7698
  635MOL0     C83729   4.389   3.225   2.724  0.1604  0.0612 -0.0162
  635MOL0     C83730   4.422   3.261   2.576  0.4649  0.4688  0.6393
  635MOL0     C83731   4.346   3.166   2.485 -0.0824 -0.2059  0.7504
  635MOL0    Cl83732   4.420   3.005   2.495 -0.3741  0.0937  0.1803
  635MOL0     C83733   4.914   3.146   3.453  0.7601  0.6090  0.2633
  635MOL0     C83734   5.051   3.114   3.483  0.2979  0.1219 -0.3767
  635MOL0     O83735   5.352   2.980   3.242 -0.0700 -0.2821 -0.2928
  635MOL0     C83736   5.533   3.055   3.542  1.3882  0.6708  0.2111
  635MOL0     C83737   5.664   3.069   3.580  0.2741  0.0405 -0.0446
  635MOL0     N83738   6.483   2.896   3.454 -1.3440 -0.2349  0.2475
  635MOL0     N83739   6.600   2.961   3.481  0.5521  0.3051  0.0081
  635MOL0     C83740   7.676   2.839   3.927 -0.1762  0.3500  0.2789
  635MOL0     C83741   7.814   2.820   3.938  0.4340  0.4967 -0.2293
  635MOL0     C83742   8.234   2.933   4.085 -1.2378  0.7037 -0.5761
  635MOL0     C83743   8.307   2.878   3.979 -0.5743 -0.1346  0.0734
  635MOL0     C83744   8.447   2.872   3.991 -0.0936  0.1706  0.5823
  635MOL0     C83745   8.510   2.924   4.105 -0.1603  0.3518  0.6992
  635MOL0     O83746   8.644   2.902   4.104  0.1568 -0.3704 -0.3893
  635MOL0     C83747   8.709   2.934   4.230  0.2468 -0.0188  0.1959
  635MOL0     C83748   8.858   2.901   4.226 -0.2268  0.7560 -0.0689
  635MOL0     C83749   8.930   3.013   4.135  0.0888 -0.3729 -1.1313
  635MOL0     C83750   9.076   3.001   4.130 -0.4651  0.3868 -0.5557
  635MOL0     C83751   9.112   2.892   4.029 -0.1944 -0.0495 -0.6169
  635MOL0     C83752   9.159   2.824   3.933 -0.1814  0.5304  0.3639
  635MOL0     C83753   8.425   2.979   4.206 -0.8382  0.0054 -0.6061
  635MOL0     C83754   8.288   2.986   4.196 -0.5751  0.1267  0.0949
  635MOL0     H83755   7.927   3.131   3.896 -0.8986  1.3091 -1.0158
  635MOL0     H83756   7.685   3.185   3.903  0.5990  0.8381  0.0334
  635MOL0     H83757   7.419   2.897   4.076  1.4781  0.6914 -0.3603
  635MOL0     H83758   7.405   2.822   3.919 -2.2251  1.0336 -2.8730
  635MOL0     H83759   7.246   3.057   4.023 -0.4948 -2.2658  2.1157
  635MOL0     H83760   7.185   2.895   3.951  0.2003 -0.5221  0.0113
  635MOL0     H83761   7.259   2.953   3.737 -0.3582 -0.7318 -0.0632
  635MOL0     H83762   7.300   3.114   3.776 -0.0564  0.3240  1.5547
  635MOL0     H83763   7.028   2.980   3.834  0.2409 -0.8203 -2.1290
  635MOL0     H83764   7.053   3.142   3.879 -3.1922 -0.9027 -0.5232
  635MOL0     H83765   7.071   3.042   3.595  2.4600 -1.0986  0.9615
  635MOL0     H83766   7.133   3.196   3.633  1.3664 -1.3137  0.9981
  635MOL0     H83767   6.904   3.236   3.559  0.3115  2.1570  1.1302
  635MOL0     H83768   6.893   3.262   3.735  1.0313 -0.6109  0.7672
  635MOL0     H83769   6.834   2.990   3.640  2.4563 -1.2403  1.5370
  635MOL0     H83770   6.796   3.058   3.792  0.2673  2.4537 -0.4246
  635MOL0     H83771   6.681   3.211   3.557  0.9192  0.5452  1.1228
  635MOL0     H83772   6.635   3.196   3.714  2.1642 -0.7460  0.5991
  635MOL0     H83773   6.401   3.068   3.715  0.8443 -2.1400  2.3770
  635MOL0     H83774   6.207   2.881   3.636 -4.2592 -0.9886 -2.2097
  635MOL0     H83775   6.238   2.810   3.488  0.4008 -0.1116  0.4125
  635MOL0     H83776   6.083   2.948   3.415 -0.5244 -0.1164  0.1503
  635MOL0     H83777   6.219   3.034   3.364  3.6131 -3.1433  0.9565
  635MOL0     H83778   6.138   3.077   3.653 -0.6475  1.2073  0.3325
  635MOL0     H83779   6.183   3.194   3.527  0.0418 -0.6546 -2.1592
  635MOL0     H83780   5.962   3.165   3.418 -0.5057 -1.6936  0.0203
  635MOL0     H83781   5.956   3.228   3.582 -2.0858 -2.0788  2.0725
  635MOL0     H83782   5.824   2.999   3.298 -1.2997  1.1093 -2.0638
  635MOL0     H83783   5.597   2.997   3.209  0.2585  0.1749 -0.5509
  635MOL0     H83784   5.150   3.091   3.154 -1.7287  1.1838 -0.5917
  635MOL0     H83785   4.933   3.155   3.110  0.8828  0.3720 -0.8430
  635MOL0     H83786   4.674   3.140   3.111 -1.9085  0.1252 -0.2938
  635MOL0     H83787   4.752   3.298   3.162 -0.8065  1.1053  1.7658
  635MOL0     H83788   4.523   3.354   3.263 -1.1272 -0.1705 -1.1814
  635MOL0     H83789   4.475   3.199   3.229 -0.5531 -0.2659  1.1171
  635MOL0     H83790   4.568   3.425   3.031 -2.0142  2.2106  0.8365
  635MOL0     H83791   4.403   3.412   3.078 -1.2049 -1.0477 -1.4797
  635MOL0     H83792   4.550   3.192   2.928 -0.9503 -3.0552  2.9587
  635MOL0     H83793   4.381   3.190   2.980  0.1594 -1.2131 -3.0697
  635MOL0     H83794   4.530   3.372   2.804 -0.7453  1.5871  0.3844
  635MOL0     H83795   4.351   3.409   2.848 -0.1733 -0.2442 -0.4122
  635MOL0     H83796   4.285   3.195   2.739 -0.1064  1.6147  1.5390
  635MOL0     H83797   4.445   3.132   2.735  0.7241  0.4662  0.5670
  635MOL0     H83798   4.391   3.361   2.543 -1.6977 -0.5915 -0.8547
  635MOL0     H83799   4.528   3.255   2.551  0.6779 -0.5708  1.7101
  635MOL0     H83800   4.350   3.197   2.381 -1.7470  1.7017  1.1991
  635MOL0     H83801   4.239   3.167   2.510 -1.3297 -1.8567 -3.6198
  635MOL0     H83802   4.845   3.161   3.535  1.7518  2.6953  0.7778
  635MOL0     H83803   5.092   3.130   3.583 -0.9122 -3.5030  0.8557
  635MOL0     H83804   5.455   3.073   3.616  1.5445 -0.4240  0.6677
  635MOL0     H83805   5.678   3.082   3.687 -2.5053  1.1920  0.2698
  635MOL0     H83806   7.610   2.755   3.905 -1.1466  1.0033  0.6115
  635MOL0     H83807   7.844   2.716   3.954  0.4414  0.1658 -2.1733
  635MOL0     H83808   8.249   2.843   3.894 -1.4435  1.6870 -0.1308
  635MOL0     H83809   8.499   2.821   3.911 -0.5072  0.9991 -0.2373
  635MOL0     H83810   8.655   2.871   4.302 -2.3030 -2.5952 -3.5766
  635MOL0     H83811   8.690   3.034   4.269 -1.2009 -0.2579  0.1704
  635MOL0     H83812   8.901   2.889   4.326  0.8542  0.7706 -0.5175
  635MOL0     H83813   8.875   2.804   4.178  0.1775  1.1669 -0.7731
  635MOL0     H83814   8.910   3.114   4.172 -1.8675 -1.5707  1.4480
  635MOL0     H83815   8.902   3.006   4.029 -0.0861 -2.6426 -0.9749
  635MOL0     H83816   9.110   3.097   4.090  0.1271 -0.7983 -3.0966
  635MOL0     H83817   9.117   2.979   4.229  0.3711 -0.1897 -1.0153
  635MOL0     H83818   9.191   2.763   3.852  1.1090  0.4749  0.8951
  635MOL0     H83819   8.472   3.010   4.299  0.6017 -1.3623 -0.8475
  635MOL0     H83820   8.239   3.041   4.276  1.5168  0.5948  1.1214
  636MOL0     O83821  10.929   8.834   2.160 -0.0401  0.0554  0.0524
  636MOL0     C83822  10.935   8.916   2.249  0.4919 -0.9465  0.1365
  636MOL0     O83823  11.050   8.954   2.317 -0.0840 -0.4043 -0.0572
  636MOL0     C83824  11.170   8.903   2.272 -0.7926 -0.2759 -0.2870
  636MOL0     C83825  11.282   8.973   2.238 -0.7526 -0.2474  1.1314
  636MOL0     C83826  11.400   8.911   2.198  0.3695 -0.3538  0.0069
  636MOL0     C83827  11.406   8.774   2.187 -0.1242 -0.6216 -0.2967
  636MOL0     O83828  11.513   8.725   2.127  0.1173  0.6782  0.3506
  636MOL0     C83829  11.584   8.621   2.200  0.5177  0.2594  0.6421
  636MOL0     C83830  11.540   8.479   2.159  0.9519 -0.2956 -0.5162
  636MOL0     C83831  11.491   8.453   2.018 -0.0101 -0.2472 -0.8119
  636MOL0     C83832  11.422   8.317   2.008  0.0268  0.1522  0.5618
  636MOL0     C83833  11.356   8.296   1.876  0.9196 -0.4234 -0.4039
  636MOL0     C83834  11.307   8.151   1.855 -0.9032  0.1293 -0.8029
  636MOL0     C83835  11.210   8.140   1.741  0.0128 -0.5645 -0.1948
  636MOL0     C83836  11.271   8.185   1.608 -0.0000 -0.9929 -0.7137
  636MOL0     N83837  11.196   8.149   1.492  0.5136  0.0460  0.2849
  636MOL0     C83838  11.208   8.019   1.439 -0.1136 -0.3987  0.6298
  636MOL0     C83839  11.156   8.027   1.314 -0.4567 -0.0304 -0.2597
  636MOL0     C83840  11.157   7.919   1.212 -0.7494 -1.0431 -0.3160
  636MOL0     C83841  11.070   7.803   1.244 -0.7247  0.3478 -0.3290
  636MOL0     C83842  11.107   7.679   1.153  0.1928 -0.2494  0.7068
  636MOL0     C83843  11.035   7.549   1.192  0.7518 -0.9128  0.2214
  636MOL0     O83844  10.890   7.568   1.149  0.1207  0.4220 -0.1421
  636MOL0     C83845  10.807   7.484   1.201 -0.5002 -0.2088 -0.3936
  636MOL0     C83846  10.840   7.365   1.265 -0.0129 -0.2411  0.4958
  636MOL0     C83847  10.744   7.278   1.317 -1.0575 -0.3582 -0.7251
  636MOL0     C83848  10.608   7.311   1.318 -0.4476  0.4861  0.6038
  636MOL0     C83849  10.513   7.219   1.373  0.8330 -0.1862 -0.1074
  636MOL0     O83850  10.400   7.284   1.424  0.3726  0.7357 -0.0075
  636MOL0     C83851  10.283   7.213   1.453  0.0184  0.4485 -0.4634
  636MOL0     C83852  10.230   7.096   1.400  0.0890  0.1761  0.1017
  636MOL0     C83853  10.114   7.033   1.453  0.6321 -0.4165  0.4240
  636MOL0     C83854  10.034   7.096   1.544  0.0834 -0.4637 -0.2420
  636MOL0     O83855   9.921   7.041   1.593  0.5045 -0.7403 -0.2017
  636MOL0     C83856   9.802   7.090   1.530 -0.4974 -0.4920  0.2084
  636MOL0     C83857   9.683   7.044   1.619 -0.4653 -0.2539  0.3551
  636MOL0     C83858   9.549   7.073   1.555  0.1003 -0.3127  0.1850
  636MOL0     C83859   9.439   7.033   1.650  0.2655 -0.6651 -0.5423
  636MOL0     C83860   9.304   7.103   1.621 -0.5348 -0.5699 -0.2956
  636MOL0     C83861   9.195   7.079   1.729  0.8650  0.7464  0.2246
  636MOL0     C83862   9.186   6.927   1.746 -0.4309 -0.3171 -0.2865
  636MOL0     C83863   9.064   6.901   1.834  0.4840 -0.3837 -0.4454
  636MOL0    Cl83864   9.009   6.715   1.847  0.4372 -0.1949  0.4127
  636MOL0     C83865  10.088   7.214   1.609 -0.2786  0.2907  0.0181
  636MOL0     C83866  10.202   7.268   1.565 -0.0472 -0.5419 -0.1629
  636MOL0     O83867  10.528   7.098   1.358 -0.3756 -0.2655  0.3105
  636MOL0     C83868  10.576   7.434   1.250  0.2667 -0.1721  0.0054
  636MOL0     C83869  10.677   7.516   1.201 -0.6625 -0.5438 -0.2719
  636MOL0     N83870  11.108   8.157   1.315 -0.7246 -0.6677  0.0499
  636MOL0     N83871  11.128   8.228   1.414  0.5280 -0.7953 -0.3661
  636MOL0     C83872  11.298   8.701   2.231 -0.6956  0.3612 -0.0452
  636MOL0     C83873  11.182   8.764   2.275  0.0032  1.0077 -0.2009
  636MOL0     C83874  10.808   8.986   2.283  0.6684 -0.1150  0.7735
  636MOL0     C83875  10.687   8.954   2.214 -0.1796 -0.7107  0.3185
  636MOL0     C83876  10.574   9.031   2.231  0.4772  0.5852 -0.1452
  636MOL0     C83877  10.574   9.132   2.322 -0.1908 -0.5424 -0.0650
  636MOL0     O83878  10.462   9.221   2.321  0.8082 -0.1836 -0.0170
  636MOL0     C83879  10.491   9.362   2.323 -1.1975 -1.0125  0.3580
  636MOL0     C83880  10.440   9.414   2.460  0.1110  0.2253  0.3992
  636MOL0     C83881  10.288   9.446   2.467 -1.0353  0.0601  0.1678
  636MOL0     C83882  10.240   9.494   2.602 -0.3446  0.0369 -0.4225
  636MOL0     C83883  10.095   9.485   2.624  0.4558  0.3240 -0.3362
  636MOL0     C83884   9.983   9.489   2.671 -0.1316  1.0581  0.7745
  636MOL0     C83885  10.688   9.156   2.404  0.7542 -0.7126 -0.0582
  636MOL0     C83886  10.804   9.090   2.373 -0.6079 -0.2699 -0.4026
  636MOL0     H83887  11.285   9.082   2.239 -0.0774 -0.1466 -1.8553
  636MOL0     H83888  11.487   8.968   2.170  1.1862 -1.5411  0.0570
  636MOL0     H83889  11.560   8.620   2.307  0.3459  1.0464  0.6118
  636MOL0     H83890  11.691   8.638   2.193  0.4534  0.2382 -0.6816
  636MOL0     H83891  11.477   8.430   2.234  3.1971  2.5940  3.6909
  636MOL0     H83892  11.642   8.440   2.161  1.6966  1.5657  1.7751
  636MOL0     H83893  11.579   8.458   1.954  1.1511  0.4472  0.7940
  636MOL0     H83894  11.429   8.541   2.000  3.9234  4.2382  4.3034
  636MOL0     H83895  11.494   8.235   2.008 -1.5753 -1.3667 -1.6558
  636MOL0     H83896  11.345   8.297   2.084  0.2010  0.0817  0.7201
  636MOL0     H83897  11.411   8.337   1.792 -2.1954  2.1134 -1.3939
  636MOL0     H83898  11.260   8.349   1.877  1.1902  0.1180  1.2906
  636MOL0     H83899  11.257   8.100   1.939  0.3325  2.4001  1.4569
  636MOL0     H83900  11.398   8.092   1.841  1.5382  2.6522  2.6131
  636MOL0     H83901  11.186   8.035   1.722 -2.8825 -0.4292  1.9921
  636MOL0     H83902  11.118   8.190   1.773  1.2392  0.0900  2.5978
  636MOL0     H83903  11.371   8.143   1.594  0.6696  0.3885 -0.2509
  636MOL0     H83904  11.272   8.293   1.625 -0.9652 -1.4574  3.1590
  636MOL0     H83905  11.265   7.936   1.479  0.5167 -0.0103  0.5409
  636MOL0     H83906  11.263   7.906   1.190 -0.4213  2.5612 -1.4395
  636MOL0     H83907  11.111   7.970   1.127 -2.8282  1.6037  2.1724
  636MOL0     H83908  10.968   7.842   1.245 -0.3174  1.5045  1.4889
  636MOL0     H83909  11.085   7.777   1.349 -1.2819  1.7467  0.1180
  636MOL0     H83910  11.072   7.698   1.051  1.3139 -2.8424 -0.2467
  636MOL0     H83911  11.213   7.653   1.159 -0.3513 -3.3481 -1.1604
  636MOL0     H83912  11.045   7.529   1.299 -0.5466  1.7562  0.9076
  636MOL0     H83913  11.082   7.465   1.139 -2.1784 -1.9612 -0.8944
  636MOL0     H83914  10.941   7.324   1.269 -0.1451 -0.6691 -0.3404
  636MOL0     H83915  10.781   7.182   1.353 -0.4165  0.1198 -0.0720
  636MOL0     H83916  10.285   7.042   1.323  2.4875  0.5850  1.4423
  636MOL0     H83917  10.078   6.939   1.413 -1.3686  1.4625 -2.6361
  636MOL0     H83918   9.803   7.042   1.432  3.2195 -1.8666  0.7583
  636MOL0     H83919   9.798   7.197   1.507  0.3557 -0.4675  0.1594
  636MOL0     H83920   9.693   7.091   1.717 -0.0108  1.4823 -0.4789
  636MOL0     H83921   9.692   6.935   1.627  0.7529 -0.3546 -1.5803
  636MOL0     H83922   9.539   7.020   1.459  3.6910 -0.8049 -0.0273
  636MOL0     H83923   9.540   7.181   1.538  2.0649 -0.1628 -0.0759
  636MOL0     H83924   9.425   6.925   1.644 -2.6650 -0.8158  3.9939
  636MOL0     H83925   9.466   7.056   1.754 -1.8364  0.3646 -0.1667
  636MOL0     H83926   9.262   7.071   1.526 -0.8471  0.2124 -0.4288
  636MOL0     H83927   9.326   7.210   1.616 -1.3113 -0.4367 -1.0708
  636MOL0     H83928   9.101   7.116   1.686 -0.5527 -3.7202 -1.0723
  636MOL0     H83929   9.230   7.125   1.822  1.7058 -2.8588  1.8680
  636MOL0     H83930   9.172   6.887   1.645  3.9596 -2.3418 -0.3630
  636MOL0     H83931   9.275   6.884   1.794 -0.2155  0.2792 -0.1538
  636MOL0     H83932   8.973   6.954   1.803 -1.0430 -2.3874  0.3920
  636MOL0     H83933   9.084   6.922   1.939 -1.3530 -1.8252  0.2566
  636MOL0     H83934  10.027   7.271   1.678 -2.6394 -2.5060  0.4247
  636MOL0     H83935  10.245   7.361   1.599  0.5412 -0.9611  0.2757
  636MOL0     H83936  10.473   7.467   1.243 -0.2961 -1.9264 -0.5177
  636MOL0     H83937  10.639   7.606   1.154  2.1239  1.4179  0.9857
  636MOL0     H83938  11.296   8.593   2.221 -2.7276  0.2774  0.7896
  636MOL0     H83939  11.096   8.707   2.308 -0.5333  2.8044  1.6995
  636MOL0     H83940  10.699   8.878   2.138  0.6388  0.2831 -0.5897
  636MOL0     H83941  10.484   9.025   2.169  1.7427  2.4164 -2.3257
  636MOL0     H83942  10.437   9.410   2.241  1.8475 -0.5464 -1.5288
  636MOL0     H83943  10.598   9.376   2.304 -0.1698 -3.8475  3.0282
  636MOL0     H83944  10.479   9.350   2.540  1.7913  0.3946 -0.2282
  636MOL0     H83945  10.489   9.511   2.472 -0.6902  0.6103  0.6010
  636MOL0     H83946  10.230   9.358   2.439 -1.2102 -0.3555  1.7087
  636MOL0     H83947  10.257   9.518   2.392 -3.1821 -1.4539 -0.4947
  636MOL0     H83948  10.285   9.432   2.680 -0.6781  0.1125 -0.1657
  636MOL0     H83949  10.282   9.595   2.613  1.5311 -0.7400 -0.1478
  636MOL0     H83950   9.893   9.469   2.726 -1.1684 -0.2888 -1.2677
  636MOL0     H83951  10.687   9.239   2.475  1.6347 -0.2943 -0.5103
  636MOL0     H83952  10.889   9.132   2.425  0.0334 -2.0297  0.0663
  637MOL0     O83953   7.069   7.247   4.108 -0.3029  0.0944 -0.3963
  637MOL0     C83954   7.133   7.154   4.054 -0.3141  0.7823 -0.2936
  637MOL0     O83955   7.103   7.019   4.071  0.1605  0.1725  0.8514
  637MOL0     C83956   7.010   6.985   4.167  0.0830 -0.5751 -0.0675
  637MOL0     C83957   6.995   7.058   4.284  0.1817  0.0003  0.2861
  637MOL0     C83958   6.891   7.026   4.374  1.2716 -0.3047 -0.2903
  637MOL0     C83959   6.810   6.916   4.356  0.8535  0.6582 -1.2367
  637MOL0     O83960   6.718   6.911   4.452  0.9619  0.1887 -0.0709
  637MOL0     C83961   6.601   6.839   4.433 -0.0178  0.1249 -0.6188
  637MOL0     C83962   6.501   6.893   4.540 -0.5842  0.1671  0.3917
  637MOL0     C83963   6.364   6.849   4.505  0.2611 -0.0914 -0.9028
  637MOL0     C83964   6.266   6.933   4.585 -0.6037 -0.1276 -0.2401
  637MOL0     C83965   6.123   6.909   4.550 -0.3518  0.0418  0.8149
  637MOL0     C83966   6.028   6.941   4.667 -0.7045  0.0079  0.3610
  637MOL0     C83967   5.891   6.961   4.617 -0.1540 -0.6729 -0.1187
  637MOL0     C83968   5.805   7.042   4.723 -0.1646 -0.4256  0.1774
  637MOL0     N83969   5.661   7.008   4.718 -0.4964 -0.4664  0.3567
  637MOL0     C83970   5.579   7.093   4.649 -0.0878 -0.0356 -0.3596
  637MOL0     C83971   5.462   7.029   4.674  0.4974 -0.4094  0.9072
  637MOL0     C83972   5.335   7.070   4.608 -0.1167  0.2498  0.2672
  637MOL0     C83973   5.234   7.139   4.699  0.5447 -0.1288  0.2405
  637MOL0     C83974   5.150   7.038   4.776 -0.4168 -0.5897 -0.1670
  637MOL0     C83975   5.042   7.101   4.856  0.6608  0.1051 -0.2138
  637MOL0     O83976   4.960   7.169   4.760 -0.4946  0.0419 -0.0675
  637MOL0     C83977   4.837   7.203   4.811 -0.5827 -0.2919 -0.0409
  637MOL0     C83978   4.821   7.243   4.939 -0.6618 -1.0263  0.0905
  637MOL0     C83979   4.694   7.254   5.002 -0.4709  0.9698  0.5964
  637MOL0     C83980   4.581   7.220   4.931  0.5777 -0.9762 -0.0382
  637MOL0     C83981   4.449   7.220   4.997 -0.2358 -0.7619 -0.9253
  637MOL0     O83982   4.343   7.238   4.911 -0.1175 -0.0430  0.6456
  637MOL0     C83983   4.214   7.229   4.962 -0.6159 -0.2211  0.0320
  637MOL0     C83984   4.176   7.136   5.066 -0.2768  0.5125 -0.7786
  637MOL0     C83985   4.049   7.130   5.117 -0.2820  0.7279 -0.1392
  637MOL0     C83986   3.944   7.211   5.063 -0.5566 -0.0054  0.1801
  637MOL0     O83987   3.810   7.198   5.105 -0.3725  0.0403  0.2439
  637MOL0     C83988   3.754   7.064   5.082 -0.2476 -0.2537 -0.1939
  637MOL0     C83989   3.623   7.035   5.159 -0.2082  0.2355 -0.3815
  637MOL0     C83990   3.524   7.149   5.132  0.9805  0.3569 -0.3496
  637MOL0     C83991   3.378   7.118   5.147 -0.4310  0.0387  1.1917
  637MOL0     C83992   3.315   7.031   5.038 -0.9054  0.2402 -0.9325
  637MOL0     C83993   3.170   7.068   5.024  0.9668 -0.9545  0.4633
  637MOL0     C83994   3.102   6.982   4.918 -0.4236 -0.1121 -1.1035
  637MOL0     C83995   3.013   6.872   4.982  0.1456  0.4501  0.1059
  637MOL0    Cl83996   2.905   6.795   4.850  0.0661  0.2133 -0.2839
  637MOL0     C83997   3.986   7.300   4.962  0.2012 -0.0440 -0.5105
  637MOL0     C83998   4.113   7.314   4.909 -0.2376 -0.2057 -0.5622
  637MOL0     O83999   4.448   7.211   5.122 -0.0718 -0.1547  0.1835
  637MOL0     C84000   4.600   7.191   4.795  0.7565  0.2413  0.1850
  637MOL0     C84001   4.725   7.178   4.736  0.0585  0.2224  0.5878
  637MOL0     N84002   5.481   6.913   4.743  0.2565  0.3788 -0.0601
  637MOL0     N84003   5.606   6.904   4.766  0.0541  0.3930 -0.4043
  637MOL0     C84004   6.832   6.832   4.243  0.4530 -0.0780 -0.5518
  637MOL0     C84005   6.931   6.866   4.151 -0.3879  0.0323 -0.0514
  637MOL0     C84006   7.243   7.185   3.971 -0.1805  0.3918 -0.1014
  637MOL0     C84007   7.340   7.095   3.941 -0.6021 -0.1639 -1.0164
  637MOL0     C84008   7.462   7.133   3.879  0.2285  0.2737  0.5207
  637MOL0     C84009   7.501   7.265   3.859  0.2874  0.1365  0.0577
  637MOL0     O84010   7.623   7.287   3.823 -0.0326  0.0939  0.6414
  637MOL0     C84011   7.688   7.397   3.885 -0.3948  0.5840 -0.7506
  637MOL0     C84012   7.719   7.380   4.036 -1.1102  0.1527 -0.4998
  637MOL0     C84013   7.854   7.310   4.060  0.5610 -0.1094 -0.1521
  637MOL0     C84014   7.834   7.155   4.056 -0.1081 -0.1111  0.1198
  637MOL0     C84015   7.959   7.073   4.075  0.1111  0.2387  0.0333
  637MOL0     C84016   8.059   7.008   4.093 -0.4771 -0.3019 -0.4180
  637MOL0     C84017   7.396   7.352   3.874 -0.5835 -0.4141 -1.2647
  637MOL0     C84018   7.270   7.319   3.929  0.0341  0.1609  1.1913
  637MOL0     H84019   7.064   7.139   4.305 -1.3325  2.1240 -2.3613
  637MOL0     H84020   6.873   7.097   4.454  1.5394 -1.8631  1.2271
  637MOL0     H84021   6.621   6.733   4.454  0.6554  0.6458  1.6748
  637MOL0     H84022   6.563   6.842   4.331 -0.9350 -4.0364 -0.5825
  637MOL0     H84023   6.510   7.002   4.534  0.3545  0.0210 -2.1735
  637MOL0     H84024   6.528   6.868   4.643  2.4906 -2.2407 -0.8307
  637MOL0     H84025   6.344   6.742   4.509 -3.2009  0.4626  2.5358
  637MOL0     H84026   6.346   6.879   4.401  0.6144  2.5839 -0.2753
  637MOL0     H84027   6.282   6.905   4.689  1.4211  1.6978  0.0171
  637MOL0     H84028   6.285   7.041   4.579  0.5751 -0.1413  2.2193
  637MOL0     H84029   6.105   6.804   4.525  2.8193 -0.5719  0.6920
  637MOL0     H84030   6.092   6.973   4.467 -2.8027  0.0053  1.6134
  637MOL0     H84031   6.060   7.038   4.707  0.0449  1.0250 -2.4572
  637MOL0     H84032   6.026   6.863   4.743  0.4147 -0.3934 -0.0016
  637MOL0     H84033   5.892   7.027   4.529 -0.4845  1.5797  1.4635
  637MOL0     H84034   5.837   6.867   4.606 -1.7668  0.2196 -0.2103
  637MOL0     H84035   5.816   7.149   4.706  1.1413 -0.1353  2.5135
  637MOL0     H84036   5.844   7.027   4.824  1.5922 -0.0414 -0.4089
  637MOL0     H84037   5.605   7.178   4.587  0.1179  0.7578  0.7937
  637MOL0     H84038   5.274   6.996   4.556 -2.2283  2.7136 -1.0268
  637MOL0     H84039   5.368   7.149   4.539  3.8767 -1.5239 -0.1470
  637MOL0     H84040   5.181   7.209   4.633  2.9320  3.1784  1.5531
  637MOL0     H84041   5.280   7.211   4.767  0.4781  2.7391 -2.4828
  637MOL0     H84042   5.098   6.981   4.700 -2.7194 -0.2986  1.1084
  637MOL0     H84043   5.216   6.967   4.828  0.2786  0.1933  0.0534
  637MOL0     H84044   5.083   7.174   4.928  0.2555  0.6423 -0.5230
  637MOL0     H84045   4.982   7.023   4.902 -2.2996  1.2672 -1.8648
  637MOL0     H84046   4.901   7.278   5.004 -1.2479  0.5223  0.0188
  637MOL0     H84047   4.701   7.271   5.109 -0.3234  0.1769  0.7256
  637MOL0     H84048   4.249   7.074   5.118  0.5580  0.3358 -2.1127
  637MOL0     H84049   4.033   7.060   5.198  1.4354  0.7583  0.2801
  637MOL0     H84050   3.824   6.986   5.114 -2.0624 -1.1592  1.8210
  637MOL0     H84051   3.735   7.050   4.975 -0.0770 -4.4360  0.1572
  637MOL0     H84052   3.642   7.040   5.266 -1.5453  1.8547 -0.1793
  637MOL0     H84053   3.581   6.938   5.131  0.2914  0.6934 -2.9625
  637MOL0     H84054   3.540   7.199   5.036 -1.1450  0.1235 -0.8723
  637MOL0     H84055   3.554   7.225   5.205 -0.3941  0.1525  0.4628
  637MOL0     H84056   3.364   7.063   5.241 -1.0741 -0.4449  0.8196
  637MOL0     H84057   3.324   7.210   5.172 -0.4416  0.9140 -1.7323
  637MOL0     H84058   3.319   6.927   5.074 -1.1770  1.8494  4.8466
  637MOL0     H84059   3.358   7.042   4.938  2.1593  1.3167  0.3927
  637MOL0     H84060   3.161   7.173   4.994 -0.5482 -0.6791  1.7658
  637MOL0     H84061   3.118   7.061   5.120  3.5407 -0.2101  1.9846
  637MOL0     H84062   3.049   7.054   4.854  1.6302  2.6955  0.1830
  637MOL0     H84063   3.165   6.931   4.846 -0.2857 -1.2475 -0.2029
  637MOL0     H84064   2.962   6.893   5.076 -0.5885 -2.0484  0.3301
  637MOL0     H84065   3.084   6.792   5.004 -1.6326 -1.0576  0.6564
  637MOL0     H84066   3.904   7.364   4.930 -0.3937 -1.2767 -1.5931
  637MOL0     H84067   4.134   7.385   4.830  0.9224 -2.0485 -2.0253
  637MOL0     H84068   4.514   7.157   4.738 -0.1152  2.7825 -0.1063
  637MOL0     H84069   4.722   7.156   4.630  2.0580  1.4192  0.2261
  637MOL0     H84070   6.767   6.751   4.215 -1.5908  1.1540  0.3443
  637MOL0     H84071   6.946   6.801   4.065 -1.5312  0.6783 -0.7654
  637MOL0     H84072   7.328   6.994   3.980  1.1429  1.4337  4.7332
  637MOL0     H84073   7.545   7.066   3.859  1.2645  2.4099 -3.2093
  637MOL0     H84074   7.629   7.488   3.869 -0.0147  0.5734 -2.3793
  637MOL0     H84075   7.783   7.408   3.831  1.0702 -0.1213  1.5293
  637MOL0     H84076   7.726   7.483   4.072  2.8368  0.6397 -2.0600
  637MOL0     H84077   7.645   7.315   4.082 -1.4210  1.9659  1.7920
  637MOL0     H84078   7.896   7.331   4.158 -1.3068 -0.2665  0.7316
  637MOL0     H84079   7.922   7.346   3.983 -3.2362  0.9895 -3.3684
  637MOL0     H84080   7.747   7.111   4.105 -3.0034  1.6813 -3.0066
  637MOL0     H84081   7.818   7.134   3.950  2.9771  0.8182 -0.6522
  637MOL0     H84082   8.159   6.970   4.101  0.1199  1.3544  0.5454
  637MOL0     H84083   7.417   7.455   3.846  0.5866 -1.2044 -3.5934
  637MOL0     H84084   7.189   7.391   3.921  0.8158  0.8947 -0.7045
  638MOL0     O84085   4.888   0.587   1.346  0.1175  0.3704  0.5716
  638MOL0     C84086   4.866   0.694   1.410  0.2305 -0.3193  0.0426
  638MOL0     O84087   4.758   0.717   1.502 -0.8340 -0.2365  1.2221
  638MOL0     C84088   4.662   0.632   1.541  0.2162  0.5775  0.2051
  638MOL0     C84089   4.611   0.533   1.467  0.4009 -0.1250 -0.0207
  638MOL0     C84090   4.502   0.457   1.516  0.2936 -0.6401  0.5835
  638MOL0     C84091   4.433   0.499   1.633  0.1413 -0.0821 -0.1167
  638MOL0     O84092   4.321   0.427   1.662  0.3333  0.1829 -0.3250
  638MOL0     C84093   4.331   0.371   1.789  0.2643 -0.5837  0.4814
  638MOL0     C84094   4.258   0.439   1.905 -0.7128 -0.8319  0.9121
  638MOL0     C84095   4.104   0.421   1.892  0.0240  0.3516  0.0170
  638MOL0     C84096   4.027   0.488   2.007 -0.3568  0.4507 -0.5145
  638MOL0     C84097   3.884   0.469   1.983  0.4268  0.4003  0.6525
  638MOL0     C84098   3.785   0.516   2.095  0.2094  0.5296 -0.2862
  638MOL0     C84099   3.793   0.450   2.236 -0.6586  0.6916 -0.0674
  638MOL0     C84100   3.813   0.297   2.240 -0.2228 -0.7093 -0.8220
  638MOL0     N84101   3.697   0.231   2.170  0.2817 -0.5266 -0.3186
  638MOL0     C84102   3.573   0.257   2.217  1.0882 -0.1064  0.0974
  638MOL0     C84103   3.496   0.207   2.128  0.7457  0.9539 -0.2108
  638MOL0     C84104   3.348   0.187   2.144  0.1227  0.1489 -0.6668
  638MOL0     C84105   3.300   0.052   2.091  0.0663  0.3187  0.3620
  638MOL0     C84106   3.168   0.020   2.163  0.2397  0.6033  0.2517
  638MOL0     C84107   3.128  -0.121   2.118  0.2780 -0.6281 -0.2921
  638MOL0     O84108   3.016  -0.123   2.032  0.6580  1.1406  0.7038
  638MOL0     C84109   2.889  -0.086   2.075 -0.0043 -0.2881  0.9163
  638MOL0     C84110   2.843  -0.089   2.204 -0.1818 -0.2361 -0.0548
  638MOL0     C84111   2.712  -0.069   2.248  0.2741 -0.1065 -0.1073
  638MOL0     C84112   2.611  -0.043   2.147  0.3218 -0.4987 -0.4349
  638MOL0     C84113   2.470  -0.021   2.181 -0.3686 -1.1020  0.4226
  638MOL0     O84114   2.373  -0.034   2.080  0.6406  0.3886  0.2428
  638MOL0     C84115   2.246  -0.000   2.103 -0.6489  0.4208 -0.0579
  638MOL0     C84116   2.164  -0.108   2.142  0.1486  0.3100 -0.1824
  638MOL0     C84117   2.038  -0.080   2.197  1.4003 -0.0563  0.5586
  638MOL0     C84118   1.989   0.058   2.188 -0.9155  0.3509  0.3068
  638MOL0     O84119   1.862   0.076   2.232  0.3005  0.5319 -1.1282
  638MOL0     C84120   1.776   0.045   2.132 -0.0692  0.4876  0.1194
  638MOL0     C84121   1.634   0.029   2.186  0.3105 -0.8944 -0.2013
  638MOL0     C84122   1.579   0.166   2.233  0.4442  0.2140  0.0742
  638MOL0     C84123   1.433   0.135   2.291 -0.2778  0.0145 -0.2875
  638MOL0     C84124   1.386   0.245   2.389  1.1091  0.0673 -0.0938
  638MOL0     C84125   1.301   0.342   2.314  0.0038  0.4452 -0.2349
  638MOL0     C84126   1.292   0.483   2.380 -0.4460 -0.0929 -0.2511
  638MOL0     C84127   1.168   0.558   2.343 -0.4991  0.3489 -0.4380
  638MOL0    Cl84128   1.036   0.486   2.433  0.0394  0.2334  0.1380
  638MOL0     C84129   2.074   0.163   2.151  0.3237 -0.0347 -0.4089
  638MOL0     C84130   2.203   0.134   2.120  0.0838  0.2135 -0.7495
  638MOL0     O84131   2.440   0.010   2.295 -0.3312  0.1288  0.6025
  638MOL0     C84132   2.659  -0.051   2.018  0.0963  0.4551 -0.2883
  638MOL0     C84133   2.792  -0.066   1.980  0.0857  0.2753  0.1239
  638MOL0     N84134   3.579   0.149   2.027 -0.8828  0.4568  0.2229
  638MOL0     N84135   3.703   0.177   2.045 -0.5937 -0.0766  0.3854
  638MOL0     C84136   4.475   0.607   1.701 -1.4547 -0.8553  0.3994
  638MOL0     C84137   4.591   0.672   1.662  0.1484  0.8241  0.1715
  638MOL0     C84138   4.961   0.801   1.410 -0.3852  0.0126  0.1809
  638MOL0     C84139   5.074   0.798   1.324  0.5091  0.1627 -0.3701
  638MOL0     C84140   5.169   0.898   1.323 -0.0935 -0.1805  0.4956
  638MOL0     C84141   5.143   1.016   1.403 -0.9059  0.7863  0.0743
  638MOL0     O84142   5.237   1.112   1.397 -0.1206 -0.4239 -0.5613
  638MOL0     C84143   5.323   1.100   1.509  0.5952  0.7851  1.0004
  638MOL0     C84144   5.438   1.202   1.490 -0.4365  0.0628  0.3102
  638MOL0     C84145   5.556   1.185   1.590 -0.2737 -0.3397 -0.0004
  638MOL0     C84146   5.669   1.282   1.558 -0.7708  0.2888  0.2340
  638MOL0     C84147   5.777   1.272   1.649 -0.0852  0.3889  0.7127
  638MOL0     C84148   5.866   1.261   1.730 -0.4643 -0.5921 -0.2642
  638MOL0     C84149   5.038   1.024   1.489 -1.1438  1.1263  0.8661
  638MOL0     C84150   4.949   0.915   1.492 -0.1233 -0.1798 -0.0194
  638MOL0     H84151   4.656   0.500   1.374 -0.3170  0.8308 -0.7336
  638MOL0     H84152   4.457   0.380   1.454 -0.1579 -0.5542  0.7994
  638MOL0     H84153   4.437   0.365   1.815  0.7324  2.8363 -0.1378
  638MOL0     H84154   4.281   0.274   1.782  0.5849 -1.0303  3.1887
  638MOL0     H84155   4.293   0.542   1.904  0.3231 -1.1303 -1.8432
  638MOL0     H84156   4.301   0.393   1.995  3.4203 -0.7346 -0.8047
  638MOL0     H84157   4.086   0.314   1.885  2.4538  0.0249 -3.2520
  638MOL0     H84158   4.067   0.478   1.805  0.1201 -0.6393 -0.6841
  638MOL0     H84159   4.055   0.458   2.108 -2.0242  1.1314  0.1790
  638MOL0     H84160   4.045   0.596   2.008  0.7105  0.3039  1.0735
  638MOL0     H84161   3.869   0.363   1.959 -2.0247  0.7793  0.2704
  638MOL0     H84162   3.865   0.534   1.898 -0.4147 -0.7585 -0.0696
  638MOL0     H84163   3.684   0.496   2.058  1.0416 -0.8971 -1.8969
  638MOL0     H84164   3.781   0.624   2.115 -2.5485  0.5339 -0.5459
  638MOL0     H84165   3.879   0.496   2.284 -1.2643  0.7659  0.9669
  638MOL0     H84166   3.703   0.468   2.295  0.1617  0.5973  1.2372
  638MOL0     H84167   3.807   0.271   2.346 -1.6665  0.7819 -0.4899
  638MOL0     H84168   3.913   0.278   2.203  0.7774 -0.1935  1.4265
  638MOL0     H84169   3.549   0.315   2.306 -3.1373  0.8301 -1.4306
  638MOL0     H84170   3.292   0.269   2.097 -2.7478 -0.9457  0.6163
  638MOL0     H84171   3.312   0.197   2.247  0.0695  0.6437 -0.7296
  638MOL0     H84172   3.371  -0.028   2.115  1.1642  0.0609 -3.1518
  638MOL0     H84173   3.292   0.053   1.982  3.0297 -0.8389  0.0391
  638MOL0     H84174   3.167   0.028   2.272 -0.2431 -2.9605  0.6136
  638MOL0     H84175   3.094   0.088   2.119 -0.8054 -0.7879 -0.2428
  638MOL0     H84176   3.111  -0.198   2.195 -0.9933  0.7188  0.8222
  638MOL0     H84177   3.213  -0.169   2.068  1.4787 -1.1850  2.1104
  638MOL0     H84178   2.918  -0.103   2.281  1.6503 -0.5346 -1.8159
  638MOL0     H84179   2.694  -0.091   2.353  0.4995 -5.8861 -0.9723
  638MOL0     H84180   2.206  -0.206   2.125  0.7910  0.7679 -1.3426
  638MOL0     H84181   1.978  -0.158   2.242 -1.4012  1.6629  0.0483
  638MOL0     H84182   1.806  -0.048   2.083 -0.2494 -0.4615  1.7453
  638MOL0     H84183   1.774   0.124   2.057  0.3081 -0.5908 -1.0589
  638MOL0     H84184   1.628  -0.045   2.266 -3.2067 -2.2156 -1.4617
  638MOL0     H84185   1.576  -0.003   2.098  0.9212  0.9879 -1.3539
  638MOL0     H84186   1.574   0.250   2.163  0.4409  0.6185  0.5515
  638MOL0     H84187   1.648   0.194   2.313 -0.9892  0.6487  1.2110
  638MOL0     H84188   1.366   0.133   2.204  0.5656  2.6137 -1.0827
  638MOL0     H84189   1.427   0.035   2.334 -2.3157  0.0912 -0.2809
  638MOL0     H84190   1.476   0.296   2.425  2.0015 -0.9126 -0.8570
  638MOL0     H84191   1.337   0.199   2.475  0.7176  0.7656  0.0621
  638MOL0     H84192   1.201   0.301   2.298 -0.2992  1.4350 -0.9929
  638MOL0     H84193   1.342   0.364   2.214 -0.6100 -1.7361 -1.0125
  638MOL0     H84194   1.293   0.466   2.488  2.6568 -2.0425 -0.4265
  638MOL0     H84195   1.382   0.539   2.353  0.3007 -0.2040  1.8044
  638MOL0     H84196   1.140   0.567   2.238  0.1294  0.4478 -0.6022
  638MOL0     H84197   1.169   0.663   2.377 -0.2270  0.0262  0.5930
  638MOL0     H84198   2.018   0.256   2.144  0.3080  0.4912  3.9203
  638MOL0     H84199   2.266   0.217   2.092 -0.5501  1.4369  1.2249
  638MOL0     H84200   2.581  -0.053   1.942 -1.8823  2.3471  1.5409
  638MOL0     H84201   2.815  -0.083   1.875  1.9350  0.4193  0.4682
  638MOL0     H84202   4.439   0.651   1.793  1.8492  3.7639 -0.1815
  638MOL0     H84203   4.628   0.763   1.708  0.2203  0.8704  0.0233
  638MOL0     H84204   5.087   0.710   1.261 -1.2609 -1.1710  0.9959
  638MOL0     H84205   5.259   0.884   1.265  0.1546  1.6517  0.3822
  638MOL0     H84206   5.357   0.996   1.511  2.0166  1.1970 -0.0608
  638MOL0     H84207   5.275   1.120   1.605 -2.7384  0.1935 -0.3840
  638MOL0     H84208   5.475   1.207   1.388 -2.9423 -0.3000 -0.6950
  638MOL0     H84209   5.401   1.303   1.507  1.3139  0.6176  1.0185
  638MOL0     H84210   5.585   1.080   1.602 -0.3244 -0.1656  1.9980
  638MOL0     H84211   5.522   1.204   1.692  1.9301 -0.0005  0.7451
  638MOL0     H84212   5.708   1.262   1.458 -3.8473  3.1397 -1.7402
  638MOL0     H84213   5.649   1.390   1.562  2.7579  1.1082 -0.9454
  638MOL0     H84214   5.942   1.222   1.795 -0.2258 -0.2734 -0.3486
  638MOL0     H84215   5.023   1.098   1.567 -4.0425  1.0468  0.5159
  638MOL0     H84216   4.870   0.916   1.567  0.2311  2.5094  0.4044
  639MOL0     O84217   6.881   6.500   2.261 -0.2168 -0.1289 -0.8707
  639MOL0     C84218   6.893   6.485   2.141  0.4261 -0.9420  0.1796
  639MOL0     O84219   6.786   6.468   2.052  0.5305  0.2983 -0.0088
  639MOL0     C84220   6.664   6.420   2.100  0.3592 -0.6690  0.4464
  639MOL0     C84221   6.550   6.476   2.054 -0.0388  0.9350  0.2487
  639MOL0     C84222   6.422   6.456   2.114 -0.6000 -0.5032  0.0345
  639MOL0     C84223   6.413   6.357   2.213 -0.4573  0.6113  0.2535
  639MOL0     O84224   6.293   6.318   2.273  0.2854 -0.4647  0.1358
  639MOL0     C84225   6.181   6.314   2.186 -0.2399  0.1375  0.5971
  639MOL0     C84226   6.053   6.243   2.256  0.0356 -0.5377  0.4466
  639MOL0     C84227   5.925   6.243   2.173  0.2032  0.7676 -0.2325
  639MOL0     C84228   5.831   6.145   2.244  1.1345 -0.1995  0.6676
  639MOL0     C84229   5.684   6.173   2.187 -0.9449 -0.6631  0.1100
  639MOL0     C84230   5.593   6.043   2.190  0.0058  0.3823  0.2336
  639MOL0     C84231   5.453   6.077   2.138 -0.0909  1.3669  0.6863
  639MOL0     C84232   5.346   5.964   2.151 -0.2196 -0.7314 -0.3400
  639MOL0     N84233   5.229   5.993   2.068 -0.7012  0.3692 -0.0940
  639MOL0     C84234   5.146   5.893   2.023  0.5193  0.2899 -0.0064
  639MOL0     C84235   5.020   5.948   2.000 -0.5257 -0.6270 -0.2857
  639MOL0     C84236   4.907   5.867   1.951 -0.3006  0.9471 -0.3274
  639MOL0     C84237   4.786   5.875   2.047  0.9661  0.0746 -0.4931
  639MOL0     C84238   4.664   5.786   2.011 -0.1061 -0.4202 -0.5391
  639MOL0     C84239   4.529   5.841   2.061 -1.9613  0.3092 -0.4772
  639MOL0     O84240   4.434   5.805   1.962 -1.1110  0.7409 -0.1805
  639MOL0     C84241   4.307   5.809   2.007 -0.1386  0.7467  0.0947
  639MOL0     C84242   4.245   5.690   2.051 -0.3764  0.2590 -0.6102
  639MOL0     C84243   4.105   5.690   2.084 -0.7347 -0.4877  0.3983
  639MOL0     C84244   4.027   5.800   2.068  0.2476 -0.6454  0.1922
  639MOL0     C84245   3.880   5.796   2.089 -0.0756  0.2986  0.1061
  639MOL0     O84246   3.814   5.909   2.049  0.2769  0.1688 -0.3565
  639MOL0     C84247   3.679   5.907   2.064  0.4029 -0.7295 -0.5454
  639MOL0     C84248   3.607   5.934   1.944 -0.1851 -0.5793  0.2488
  639MOL0     C84249   3.469   5.935   1.953  0.7399 -0.8120 -0.5708
  639MOL0     C84250   3.405   5.902   2.079 -0.0811  0.2773  0.7900
  639MOL0     O84251   3.270   5.887   2.106 -0.4093  0.2373  0.4895
  639MOL0     C84252   3.192   5.871   1.989  0.9810 -0.2751 -0.6872
  639MOL0     C84253   3.047   5.810   1.999 -0.0664 -0.2135 -0.5737
  639MOL0     C84254   3.014   5.732   2.131 -0.2074 -0.0261  0.3819
  639MOL0     C84255   2.856   5.724   2.142  0.3168  0.2250  0.4469
  639MOL0     C84256   2.813   5.649   2.271  0.1867 -0.9445 -0.0443
  639MOL0     C84257   2.657   5.640   2.281  0.7137  0.2972 -0.0671
  639MOL0     C84258   2.620   5.537   2.392 -0.0457  0.3831  0.5427
  639MOL0     C84259   2.472   5.505   2.391 -0.9855  0.0863 -0.4055
  639MOL0    Cl84260   2.421   5.425   2.240  0.0184  0.5166  0.8108
  639MOL0     C84261   3.478   5.875   2.191  0.3186  0.6194 -0.3046
  639MOL0     C84262   3.616   5.881   2.185  0.4005 -0.1363  0.3346
  639MOL0     O84263   3.827   5.696   2.140  0.2189  0.5520  0.2561
  639MOL0     C84264   4.092   5.916   2.026 -0.1881 -0.5168  0.0559
  639MOL0     C84265   4.228   5.922   1.998 -0.3938  0.6126  0.8697
  639MOL0     N84266   5.034   6.087   2.008 -0.1301 -0.4255 -0.6485
  639MOL0     N84267   5.150   6.109   2.061 -0.3414 -0.2492 -0.0262
  639MOL0     C84268   6.530   6.285   2.242 -0.0167 -0.3677 -0.7305
  639MOL0     C84269   6.652   6.314   2.188 -0.0484  0.3870  0.4394
  639MOL0     C84270   7.036   6.501   2.104 -0.5506  0.5923  0.9846
  639MOL0     C84271   7.136   6.535   2.192 -0.3932  0.1487  0.5439
  639MOL0     C84272   7.260   6.557   2.146 -0.1414 -0.9277  0.4251
  639MOL0     C84273   7.292   6.548   2.010  0.3804 -0.7900  0.5407
  639MOL0     O84274   7.415   6.581   1.960 -1.1748 -0.4127  0.2104
  639MOL0     C84275   7.507   6.636   2.050 -0.2446  0.2644 -0.7325
  639MOL0     C84276   7.637   6.682   1.978  0.8305  0.5554  0.2843
  639MOL0     C84277   7.714   6.555   1.930 -0.4341  0.3659  0.0587
  639MOL0     C84278   7.855   6.595   1.907  0.7737  0.2090 -0.4997
  639MOL0     C84279   7.872   6.706   1.808  0.4080  0.2294  0.0927
  639MOL0     C84280   7.880   6.795   1.726  0.3594 -0.1614  0.7206
  639MOL0     C84281   7.194   6.517   1.922 -0.0421 -0.0896 -0.2578
  639MOL0     C84282   7.065   6.489   1.968 -0.1215 -1.0597  0.9755
  639MOL0     H84283   6.556   6.542   1.968 -0.8871  1.7893  0.8306
  639MOL0     H84284   6.335   6.509   2.078 -0.0525  0.0720 -0.4780
  639MOL0     H84285   6.212   6.277   2.088  1.7963 -0.2090  1.3273
  639MOL0     H84286   6.158   6.421   2.177  1.8050  0.6061  0.4148
  639MOL0     H84287   6.030   6.306   2.342 -0.9240  0.0779 -0.2466
  639MOL0     H84288   6.097   6.145   2.279  0.8917 -0.5591 -1.0800
  639MOL0     H84289   5.952   6.214   2.071  0.8883  0.5708  0.0037
  639MOL0     H84290   5.865   6.334   2.171  0.2927  0.8124 -1.2206
  639MOL0     H84291   5.859   6.042   2.224  3.0596  0.3712  0.2477
  639MOL0     H84292   5.822   6.152   2.353 -2.9018  0.1125  0.4908
  639MOL0     H84293   5.698   6.211   2.086 -0.3425 -1.2969 -0.0548
  639MOL0     H84294   5.641   6.245   2.258 -3.6780 -3.1441  1.2069
  639MOL0     H84295   5.585   6.006   2.293 -1.9730  1.3144  0.4751
  639MOL0     H84296   5.641   5.967   2.128  0.7282  0.8268  0.2422
  639MOL0     H84297   5.411   6.155   2.201 -3.4801 -1.1920  1.9109
  639MOL0     H84298   5.456   6.109   2.034  1.5359  1.6182  0.7742
  639MOL0     H84299   5.311   5.960   2.255 -1.8733  5.9157 -0.2073
  639MOL0     H84300   5.381   5.866   2.116 -2.6552 -1.1400 -1.9706
  639MOL0     H84301   5.160   5.787   2.010  1.2175  0.3358  0.3019
  639MOL0     H84302   4.931   5.761   1.946 -3.0633  0.3075 -1.7082
  639MOL0     H84303   4.884   5.885   1.846 -1.6800  0.4689 -0.1226
  639MOL0     H84304   4.757   5.980   2.041  3.1934  0.7975  0.4612
  639MOL0     H84305   4.821   5.865   2.150  0.3629 -0.2963 -0.3182
  639MOL0     H84306   4.651   5.786   1.902 -1.1176  1.4366 -0.4659
  639MOL0     H84307   4.692   5.687   2.047  4.4545  1.2824  1.4275
  639MOL0     H84308   4.535   5.950   2.059 -0.2600  0.2640  0.4314
  639MOL0     H84309   4.518   5.792   2.158 -0.6024 -3.3810 -1.9981
  639MOL0     H84310   4.301   5.597   2.050 -1.7523 -0.6046  0.3961
  639MOL0     H84311   4.059   5.593   2.095 -0.4628 -1.0878 -2.8147
  639MOL0     H84312   3.663   5.955   1.853 -1.1926  2.5076  0.2196
  639MOL0     H84313   3.400   5.948   1.871 -0.8113  1.3625  0.9563
  639MOL0     H84314   3.252   5.802   1.928 -0.6968 -0.7398 -1.8861
  639MOL0     H84315   3.173   5.964   1.934 -1.6291  0.7256  1.6496
  639MOL0     H84316   3.031   5.745   1.912 -1.2055  0.1814 -0.6725
  639MOL0     H84317   2.977   5.893   1.989 -2.3201 -1.9286  0.2118
  639MOL0     H84318   3.056   5.776   2.222  1.9756 -3.2140  1.1011
  639MOL0     H84319   3.052   5.630   2.125 -1.3823 -0.4090 -2.4361
  639MOL0     H84320   2.814   5.824   2.148 -1.8092 -0.6066  0.2320
  639MOL0     H84321   2.812   5.678   2.053  1.7971  1.9712 -1.2848
  639MOL0     H84322   2.851   5.719   2.345 -1.9957  1.6241 -1.1692
  639MOL0     H84323   2.870   5.556   2.277 -0.0768 -1.0393  1.6479
  639MOL0     H84324   2.617   5.619   2.181  3.2883  1.7897 -1.5287
  639MOL0     H84325   2.615   5.738   2.306  0.3668 -0.3206  1.8925
  639MOL0     H84326   2.671   5.443   2.371  0.4520  0.9792 -1.1351
  639MOL0     H84327   2.634   5.585   2.490 -0.3854  0.5096  0.5302
  639MOL0     H84328   2.401   5.587   2.407 -0.0456  1.0762 -1.1028
  639MOL0     H84329   2.461   5.429   2.468  0.8356 -0.4470 -0.6375
  639MOL0     H84330   3.433   5.822   2.274 -0.0891  1.5307  0.0625
  639MOL0     H84331   3.681   5.855   2.268  1.6008  1.4628 -0.0577
  639MOL0     H84332   4.039   6.009   2.005  0.0894  0.2068  2.2953
  639MOL0     H84333   4.271   6.006   1.945 -1.2504 -0.5318 -1.8448
  639MOL0     H84334   6.518   6.200   2.308  0.3581  1.0502  1.2770
  639MOL0     H84335   6.734   6.257   2.231  0.9999  0.5216 -1.3107
  639MOL0     H84336   7.105   6.548   2.295 -2.4863 -1.9698  0.2906
  639MOL0     H84337   7.334   6.581   2.222 -0.5117 -0.6903  0.7127
  639MOL0     H84338   7.528   6.552   2.118  1.1626  1.4848  0.4130
  639MOL0     H84339   7.462   6.718   2.106 -0.6330  0.7563 -1.7575
  639MOL0     H84340   7.604   6.745   1.895 -0.6385 -1.7340 -0.9680
  639MOL0     H84341   7.704   6.746   2.036 -2.2718  3.3954  1.0059
  639MOL0     H84342   7.682   6.534   1.827 -1.6113  2.2195  0.0028
  639MOL0     H84343   7.716   6.469   1.998 -1.8207  1.6142  1.7661
  639MOL0     H84344   7.909   6.610   2.001  1.0856  0.5208 -0.7249
  639MOL0     H84345   7.910   6.514   1.857  1.5852  0.4959 -0.0954
  639MOL0     H84346   7.886   6.877   1.657 -1.6140 -0.7404 -0.2225
  639MOL0     H84347   7.211   6.515   1.815 -0.2624 -2.0134 -0.2967
  639MOL0     H84348   6.989   6.468   1.893 -0.0965 -0.3310  0.7394
  640MOL0     O84349   2.097   5.288   0.736 -0.8633 -0.2400  1.1412
  640MOL0     C84350   2.170   5.242   0.825 -0.3966 -0.7940 -0.2388
  640MOL0     O84351   2.136   5.143   0.911 -0.6904  0.1798 -0.2266
  640MOL0     C84352   2.019   5.070   0.897 -0.3627 -1.0539 -0.4493
  640MOL0     C84353   1.969   5.054   1.024  0.4700 -0.6457 -0.3330
  640MOL0     C84354   1.837   5.011   1.027  0.9236 -0.4994  0.1749
  640MOL0     C84355   1.759   4.983   0.912 -0.2849 -0.2697 -0.3965
  640MOL0     O84356   1.629   4.940   0.920 -0.1587 -0.2515 -0.2517
  640MOL0     C84357   1.555   4.936   1.038 -0.1377 -0.7794  0.2841
  640MOL0     C84358   1.413   4.917   1.005  0.6017  0.9764 -0.0794
  640MOL0     C84359   1.359   5.045   0.940  0.7530  0.0684 -0.1342
  640MOL0     C84360   1.221   5.024   0.866  0.2164  0.6056  0.5531
  640MOL0     C84361   1.149   5.163   0.852  0.3134  0.2383 -0.5523
  640MOL0     C84362   0.998   5.134   0.836 -0.0831 -0.3889 -0.0310
  640MOL0     C84363   0.936   5.046   0.723 -0.1147  0.5559 -0.6871
  640MOL0     C84364   0.936   5.126   0.598  1.1400 -0.3258  0.4009
  640MOL0     N84365   1.065   5.147   0.537  0.2116 -0.4256  0.3335
  640MOL0     C84366   1.151   5.046   0.520  0.1283 -1.1848  0.8976
  640MOL0     C84367   1.260   5.102   0.461 -0.0790  0.1016 -0.0856
  640MOL0     C84368   1.376   5.021   0.404 -0.3569 -0.1474  0.4206
  640MOL0     C84369   1.438   4.948   0.520 -0.4937 -0.2712 -0.0521
  640MOL0     C84370   1.560   4.875   0.470  0.0708  0.3716 -0.1832
  640MOL0     C84371   1.681   4.952   0.407 -0.1187  0.6122  0.2327
  640MOL0     O84372   1.782   4.845   0.398  0.4392 -0.5696 -0.1489
  640MOL0     C84373   1.914   4.869   0.404  0.2163  0.0478 -0.7753
  640MOL0     C84374   1.971   4.988   0.426  0.0865 -0.6413 -0.4019
  640MOL0     C84375   2.105   5.015   0.445  0.6254  0.5332 -0.2654
  640MOL0     C84376   2.198   4.914   0.426  0.5653  0.9543 -0.4841
  640MOL0     C84377   2.347   4.932   0.437 -0.7562  0.0330 -0.2389
  640MOL0     O84378   2.391   5.057   0.493  0.8979  0.3791  0.0420
  640MOL0     C84379   2.510   5.069   0.556 -0.5991  0.3040 -0.2835
  640MOL0     C84380   2.601   4.959   0.591  0.1412 -0.3222  1.1685
  640MOL0     C84381   2.721   4.990   0.648 -0.9980  0.1989  0.4812
  640MOL0     C84382   2.763   5.119   0.668  0.0356 -0.7307 -0.0187
  640MOL0     O84383   2.881   5.129   0.730 -0.3426 -0.1999  0.0785
  640MOL0     C84384   2.878   5.155   0.872 -0.4191  1.2195 -0.3198
  640MOL0     C84385   2.931   5.290   0.919  0.4836  0.6915  0.6605
  640MOL0     C84386   2.954   5.296   1.076  0.0973  0.6385  0.4515
  640MOL0     C84387   3.030   5.433   1.093  0.0255 -0.9687 -0.3659
  640MOL0     C84388   3.146   5.428   1.192  0.0069 -0.1950  0.5087
  640MOL0     C84389   3.275   5.472   1.115  0.3577 -0.3305  0.1848
  640MOL0     C84390   3.412   5.443   1.182  0.2220 -0.5291 -0.1312
  640MOL0     C84391   3.435   5.539   1.308 -0.1892  0.1485  0.4071
  640MOL0    Cl84392   3.396   5.465   1.459  0.2179 -0.3646  0.1212
  640MOL0     C84393   2.670   5.231   0.640 -0.2523 -1.0958 -0.0082
  640MOL0     C84394   2.549   5.199   0.579  0.1650 -0.4967  0.1025
  640MOL0     O84395   2.426   4.847   0.392  0.0227  0.6835 -0.1265
  640MOL0     C84396   2.136   4.782   0.408 -0.8125  0.1084  0.1308
  640MOL0     C84397   1.997   4.767   0.393  0.5925  1.1887 -0.9094
  640MOL0     N84398   1.229   5.237   0.437 -0.1644 -0.2742  0.2744
  640MOL0     N84399   1.111   5.250   0.480  0.5169 -0.0872  0.2329
  640MOL0     C84400   1.818   4.997   0.786  0.2139  0.0314 -0.2289
  640MOL0     C84401   1.951   5.040   0.776  1.3393 -0.0502  1.0754
  640MOL0     C84402   2.300   5.304   0.851 -0.3601 -1.2112  0.2142
  640MOL0     C84403   2.394   5.248   0.933 -0.4369 -0.3130  0.3410
  640MOL0     C84404   2.508   5.319   0.977  0.8148 -1.0733 -0.2349
  640MOL0     C84405   2.535   5.452   0.921 -0.7059 -0.2935 -0.4245
  640MOL0     O84406   2.648   5.508   0.967 -0.6211 -0.6239  0.2517
  640MOL0     C84407   2.707   5.623   0.896 -0.8097 -0.0078  0.3718
  640MOL0     C84408   2.832   5.688   0.944  0.2094  0.2201  0.0948
  640MOL0     C84409   2.866   5.808   0.859 -0.3876  0.6669  0.2550
  640MOL0     C84410   2.945   5.769   0.731  0.5449 -0.1853 -0.3568
  640MOL0     C84411   3.068   5.690   0.759  0.0253  0.7261 -0.1159
  640MOL0     C84412   3.154   5.607   0.789  0.2132 -0.1842  0.1105
  640MOL0     C84413   2.448   5.506   0.823  0.2793  0.3004  0.2161
  640MOL0     C84414   2.329   5.430   0.798 -0.0670  0.0878 -0.3828
  640MOL0     H84415   2.024   5.082   1.113 -0.1668 -0.3982 -0.0176
  640MOL0     H84416   1.777   4.995   1.116  0.3730  1.0048  0.1085
  640MOL0     H84417   1.562   5.029   1.095 -0.2816 -0.6950  0.1655
  640MOL0     H84418   1.601   4.867   1.110  3.0584 -1.5123 -2.2022
  640MOL0     H84419   1.345   4.903   1.090 -1.3660  1.0155 -1.5789
  640MOL0     H84420   1.406   4.835   0.933  1.8836  2.4674 -1.9890
  640MOL0     H84421   1.436   5.086   0.874 -0.4523  3.1266  0.1809
  640MOL0     H84422   1.352   5.115   1.023  0.1221 -0.8420  0.5986
  640MOL0     H84423   1.212   4.959   0.778 -1.2836 -0.1791  1.2570
  640MOL0     H84424   1.165   4.956   0.931  2.0171 -1.2435  0.2752
  640MOL0     H84425   1.192   5.199   0.758  1.5186 -0.0682 -0.1421
  640MOL0     H84426   1.169   5.232   0.933  1.0536  0.0625 -0.5748
  640MOL0     H84427   0.956   5.234   0.842  0.4153 -0.2068  0.7025
  640MOL0     H84428   0.969   5.080   0.927  1.2067 -0.7197  0.2061
  640MOL0     H84429   0.992   4.954   0.709  0.1586  0.8239 -1.3978
  640MOL0     H84430   0.831   5.021   0.745 -0.3489  1.9343 -0.1429
  640MOL0     H84431   0.895   5.225   0.623  1.2144 -0.4379  0.9750
  640MOL0     H84432   0.865   5.085   0.525 -0.8059  1.0985  1.3852
  640MOL0     H84433   1.141   4.943   0.554  1.8728 -2.1032 -1.1506
  640MOL0     H84434   1.446   5.085   0.349 -1.1290  1.4950  1.2604
  640MOL0     H84435   1.334   4.956   0.326 -0.4578 -0.5867  0.8383
  640MOL0     H84436   1.367   4.873   0.557 -0.1692 -0.4322  0.2474
  640MOL0     H84437   1.450   5.018   0.603 -1.1219 -2.9453  2.4934
  640MOL0     H84438   1.606   4.830   0.559  0.2634 -0.0423 -0.4910
  640MOL0     H84439   1.529   4.801   0.396  0.9683  0.8571 -1.0699
  640MOL0     H84440   1.707   5.032   0.476 -2.3169 -0.4371  2.4054
  640MOL0     H84441   1.652   4.986   0.307 -0.5934 -0.1167  0.1112
  640MOL0     H84442   1.918   5.082   0.432 -2.0247 -1.7810 -0.1381
  640MOL0     H84443   2.146   5.114   0.467 -0.7857  0.7024  1.9484
  640MOL0     H84444   2.577   4.854   0.574  0.5618 -0.0091 -1.8709
  640MOL0     H84445   2.780   4.908   0.686 -1.0306  1.1185  2.7155
  640MOL0     H84446   2.946   5.078   0.909 -0.1754 -0.1941 -3.4087
  640MOL0     H84447   2.776   5.146   0.912 -0.7928  0.2411 -1.4463
  640MOL0     H84448   2.851   5.359   0.891 -0.2458  0.2209  1.5370
  640MOL0     H84449   3.026   5.307   0.867  0.0070  2.4703  0.3192
  640MOL0     H84450   3.020   5.213   1.101 -0.6483 -0.0857  0.0801
  640MOL0     H84451   2.858   5.288   1.128  0.3837  1.2587  1.0893
  640MOL0     H84452   3.056   5.469   0.993  0.7913 -1.9019 -0.5279
  640MOL0     H84453   2.958   5.503   1.135  0.3524 -0.3622 -0.8002
  640MOL0     H84454   3.157   5.326   1.231 -0.1270 -0.5886 -0.4432
  640MOL0     H84455   3.133   5.488   1.283 -2.3710  1.0337 -0.5436
  640MOL0     H84456   3.268   5.579   1.092 -0.9507 -0.1688  1.2173
  640MOL0     H84457   3.278   5.414   1.023  2.6139  1.9838 -1.3551
  640MOL0     H84458   3.418   5.339   1.213 -1.9285 -0.7690 -0.3731
  640MOL0     H84459   3.494   5.458   1.112  0.2548  0.1630  0.0401
  640MOL0     H84460   3.380   5.633   1.298  0.7308  0.4788 -2.2527
  640MOL0     H84461   3.542   5.561   1.311  0.2434 -1.7047  3.1570
  640MOL0     H84462   2.680   5.337   0.661 -0.0023 -0.8261 -1.4439
  640MOL0     H84463   2.491   5.280   0.536  1.0369 -0.4144 -0.9644
  640MOL0     H84464   2.203   4.703   0.373 -1.6133  0.8137 -3.4102
  640MOL0     H84465   1.956   4.672   0.363  2.7814 -0.9513  2.2062
  640MOL0     H84466   1.762   4.982   0.695  1.1838  0.2937 -0.8807
  640MOL0     H84467   1.983   5.058   0.674 -3.5242  0.2563 -0.7046
  640MOL0     H84468   2.380   5.145   0.965  0.4189 -1.0305 -1.4734
  640MOL0     H84469   2.574   5.284   1.056  0.8941  0.8177  0.5983
  640MOL0     H84470   2.629   5.699   0.892 -0.3005  0.4864 -1.5479
  640MOL0     H84471   2.716   5.589   0.792  0.2993  0.1469  0.4074
  640MOL0     H84472   2.804   5.705   1.048  0.9658  0.3346  0.2825
  640MOL0     H84473   2.922   5.627   0.947  1.7352  2.1512 -2.0788
  640MOL0     H84474   2.914   5.880   0.927 -1.4230  2.1043 -0.4826
  640MOL0     H84475   2.771   5.855   0.831 -1.9522 -1.7072  1.2568
  640MOL0     H84476   2.886   5.702   0.668  0.1065  1.0253 -1.2778
  640MOL0     H84477   2.963   5.862   0.676 -1.1269  1.2619  1.4231
  640MOL0     H84478   3.219   5.528   0.820  1.0841  0.7762  0.8007
  640MOL0     H84479   2.454   5.603   0.774 -2.1126  0.1018 -0.6121
  640MOL0     H84480   2.247   5.471   0.740 -0.9047 -1.9047 -0.6865
  641MOL0     O84481   3.463  10.013   6.595 -0.8345  0.7758  0.9415
  641MOL0     C84482   3.554  10.030   6.679 -0.3602  0.6949 -0.0669
  641MOL0     O84483   3.539  10.014   6.814 -0.2355  0.5092 -0.3642
  641MOL0     C84484   3.417  10.010   6.877 -0.7579 -0.3953 -0.4923
  641MOL0     C84485   3.404   9.939   6.994  0.9286  1.0437  0.3860
  641MOL0     C84486   3.278   9.924   7.054 -0.4116  0.0088  0.6913
  641MOL0     C84487   3.166   9.993   7.005 -0.4486 -0.7101  0.1919
  641MOL0     O84488   3.056   9.969   7.068 -0.0121 -0.3707 -0.3064
  641MOL0     C84489   2.934   9.942   7.012  0.4090  0.3464  0.0126
  641MOL0     C84490   2.834   9.873   7.105 -0.2804  0.2883 -0.2239
  641MOL0     C84491   2.798   9.969   7.220  0.2319 -0.6062  0.1242
  641MOL0     C84492   2.716   9.897   7.323  0.0297  0.2145  0.4547
  641MOL0     C84493   2.696   9.988   7.436 -0.2604 -0.3128 -0.1705
  641MOL0     C84494   2.604   9.931   7.545  0.5226  0.3491  0.3786
  641MOL0     C84495   2.596  10.031   7.660  0.3273  0.9424  0.6053
  641MOL0     C84496   2.547  10.175   7.636  0.9524  0.0449 -0.4650
  641MOL0     N84497   2.416  10.169   7.580  0.5735  0.9469 -0.1018
  641MOL0     C84498   2.383  10.174   7.444 -0.2261 -0.9089 -0.2802
  641MOL0     C84499   2.244  10.174   7.438 -0.5731  0.5634 -0.0736
  641MOL0     C84500   2.165  10.218   7.314  0.8061 -0.3362  0.1354
  641MOL0     C84501   2.207  10.182   7.170 -0.3256  0.2726 -0.8604
  641MOL0     C84502   2.235  10.027   7.166  0.1719  0.6541  0.6229
  641MOL0     C84503   2.306   9.998   7.036 -0.3708  0.0776 -0.4559
  641MOL0     O84504   2.438  10.056   7.045 -0.5030  0.7390  1.1671
  641MOL0     C84505   2.523  10.062   6.943 -0.2418 -0.0796 -0.6738
  641MOL0     C84506   2.607  10.170   6.943  0.2382  0.4070  0.3925
  641MOL0     C84507   2.707  10.184   6.843  0.9306 -0.0657  0.9066
  641MOL0     C84508   2.725  10.085   6.748  0.3138  0.6216  0.4033
  641MOL0     C84509   2.838  10.082   6.659  0.3470  0.0025 -1.0364
  641MOL0     O84510   2.922  10.182   6.673 -0.6006 -0.0582  0.2372
  641MOL0     C84511   3.038  10.196   6.582 -0.2505  0.3325 -0.2044
  641MOL0     C84512   3.118  10.088   6.536 -0.2097 -0.8474  0.4057
  641MOL0     C84513   3.207  10.123   6.434  0.7225 -0.2744  0.4124
  641MOL0     C84514   3.221  10.255   6.389 -0.2181  0.2964  0.2545
  641MOL0     O84515   3.303  10.297   6.288 -0.2371 -0.0700 -0.6564
  641MOL0     C84516   3.371  10.191   6.223 -0.2477  0.7011  0.2541
  641MOL0     C84517   3.453  10.214   6.101 -0.4424  1.2330  0.2032
  641MOL0     C84518   3.563  10.316   6.133  0.2282 -0.0410  0.7636
  641MOL0     C84519   3.664  10.338   6.019 -0.4288  0.0796 -0.0698
  641MOL0     C84520   3.752  10.215   5.994 -0.4704 -0.5926  0.2415
  641MOL0     C84521   3.842  10.227   5.876 -0.2553  0.7927 -0.3296
  641MOL0     C84522   3.791  10.184   5.745  0.2294 -0.3780  0.5172
  641MOL0     C84523   3.883  10.228   5.628  0.0223  0.5162  0.0853
  641MOL0    Cl84524   4.036  10.143   5.639  0.3239  0.3960  0.0838
  641MOL0     C84525   3.139  10.351   6.438  0.2747  0.6316  0.2079
  641MOL0     C84526   3.053  10.324   6.535 -0.7410 -1.0333 -0.3360
  641MOL0     O84527   2.856   9.988   6.581  0.8765 -0.4862  0.3979
  641MOL0     C84528   2.632   9.977   6.737  0.0956 -0.3303  0.2627
  641MOL0     C84529   2.523   9.973   6.829 -0.5898  0.9117 -1.0541
  641MOL0     N84530   2.197  10.173   7.571 -0.4506 -0.6838 -0.2666
  641MOL0     N84531   2.297  10.162   7.653 -0.1050 -1.3100 -0.1832
  641MOL0     C84532   3.182  10.074   6.884 -0.4751 -0.2388 -0.0313
  641MOL0     C84533   3.310  10.079   6.824 -0.6736 -0.2346  0.1773
  641MOL0     C84534   3.691  10.076   6.631  0.3936  0.1817  0.3694
  641MOL0     C84535   3.787  10.085   6.726 -0.1087 -0.5799 -0.5598
  641MOL0     C84536   3.922  10.113   6.695 -0.0059  0.6679  0.2533
  641MOL0     C84537   3.958  10.136   6.559  0.9133  0.5479 -0.7684
  641MOL0     O84538   4.084  10.136   6.499  0.5417 -0.3642  0.5093
  641MOL0     C84539   4.185  10.104   6.592 -0.3405  0.1163 -0.1988
  641MOL0     C84540   4.228  10.224   6.678  0.2279  0.2541 -0.3390
  641MOL0     C84541   4.376  10.269   6.653  0.1569 -0.1631  1.7153
  641MOL0     C84542   4.436  10.337   6.785 -0.1636  0.0831  0.6069
  641MOL0     C84543   4.569  10.386   6.744  0.6603  0.3468 -0.6184
  641MOL0     C84544   4.675  10.430   6.711 -0.1203 -0.2447  0.5349
  641MOL0     C84545   3.852  10.141   6.468  0.7016  0.0151  0.3738
  641MOL0     C84546   3.722  10.109   6.497 -0.4170  0.1986  0.4642
  641MOL0     H84547   3.491   9.883   7.027 -0.6901 -0.9625  1.4666
  641MOL0     H84548   3.258   9.862   7.140  0.3779 -2.7749 -1.0166
  641MOL0     H84549   2.945   9.878   6.923 -0.7661 -2.2491  1.6188
  641MOL0     H84550   2.898  10.041   6.984 -1.9821 -0.9213 -1.8686
  641MOL0     H84551   2.878   9.777   7.133 -2.3779 -0.5211  0.4641
  641MOL0     H84552   2.744   9.838   7.053 -0.3280 -0.3592  0.2906
  641MOL0     H84553   2.744  10.058   7.187  1.4576  0.5031  0.9911
  641MOL0     H84554   2.893   9.998   7.267  1.4122  2.8170 -3.7198
  641MOL0     H84555   2.617   9.871   7.283  0.3273 -1.2222  0.6066
  641MOL0     H84556   2.755   9.798   7.347 -0.0904 -0.1685 -0.8437
  641MOL0     H84557   2.653  10.082   7.398 -0.3021 -0.4936 -0.5748
  641MOL0     H84558   2.790  10.009   7.487 -0.5486  1.2069 -0.2095
  641MOL0     H84559   2.643   9.838   7.587  1.5420  0.1076 -1.0239
  641MOL0     H84560   2.508   9.925   7.494  1.3402  2.3706 -1.5735
  641MOL0     H84561   2.517   9.992   7.725  1.1228 -2.6120 -0.3245
  641MOL0     H84562   2.696  10.053   7.698  0.6972  0.2609  0.0590
  641MOL0     H84563   2.619  10.244   7.593  1.8997  0.4276  1.6151
  641MOL0     H84564   2.539  10.224   7.734 -0.6976  0.0629 -0.5702
  641MOL0     H84565   2.449  10.191   7.360  0.3910  0.9977  0.5395
  641MOL0     H84566   2.149  10.326   7.325 -2.7491 -0.6526 -0.7867
  641MOL0     H84567   2.063  10.180   7.323 -0.2166  2.0412 -0.7038
  641MOL0     H84568   2.298  10.235   7.139 -1.1277  2.0351 -0.3645
  641MOL0     H84569   2.124  10.202   7.102  0.1317 -0.7583 -1.7444
  641MOL0     H84570   2.293   9.997   7.254  1.4711 -0.0584 -0.4441
  641MOL0     H84571   2.138   9.978   7.176 -0.1283  1.4717  2.1093
  641MOL0     H84572   2.246  10.039   6.954 -0.4400  3.2011  1.0261
  641MOL0     H84573   2.315   9.890   7.020  2.2053  0.0463  0.6730
  641MOL0     H84574   2.585  10.239   7.024 -1.9733  1.3818 -0.9364
  641MOL0     H84575   2.767  10.274   6.838  2.7761 -1.3141 -1.0972
  641MOL0     H84576   3.110   9.982   6.558  0.6044 -1.1204 -0.5397
  641MOL0     H84577   3.264  10.038   6.396 -1.3570 -1.0582 -1.1961
  641MOL0     H84578   3.305  10.111   6.189  0.8577 -0.2051  0.1813
  641MOL0     H84579   3.433  10.136   6.295 -0.6408  0.4943  0.4368
  641MOL0     H84580   3.381  10.249   6.027 -1.1169 -1.2387 -0.4072
  641MOL0     H84581   3.491  10.117   6.067  0.2807  1.4745  0.2963
  641MOL0     H84582   3.614  10.284   6.225 -0.8686 -0.5750  1.1994
  641MOL0     H84583   3.520  10.417   6.138 -2.7780 -1.1462 -0.5961
  641MOL0     H84584   3.617  10.372   5.926  1.1516  0.1562 -0.8842
  641MOL0     H84585   3.721  10.430   6.038 -0.6535  0.3879 -0.8463
  641MOL0     H84586   3.682  10.132   5.982 -1.7854  0.6330 -0.9883
  641MOL0     H84587   3.813  10.207   6.084 -1.9821 -2.1335  1.2007
  641MOL0     H84588   3.931  10.167   5.897 -1.5674 -0.7423  1.1682
  641MOL0     H84589   3.873  10.332   5.877  1.5082  0.3352 -1.4397
  641MOL0     H84590   3.779  10.076   5.733 -2.2994 -0.0090 -0.9536
  641MOL0     H84591   3.692  10.225   5.726 -0.4980 -3.0282 -2.2144
  641MOL0     H84592   3.891  10.337   5.631 -0.1142  0.5173  0.3689
  641MOL0     H84593   3.834  10.199   5.534  0.7311  2.1574 -0.8266
  641MOL0     H84594   3.139  10.451   6.396  0.6960  0.5597  0.0270
  641MOL0     H84595   2.993  10.409   6.565 -1.3437 -0.9787 -1.6283
  641MOL0     H84596   2.645   9.911   6.652  0.8935  2.7027 -2.1623
  641MOL0     H84597   2.443   9.900   6.820 -1.3715  1.9148 -2.7801
  641MOL0     H84598   3.092  10.113   6.838 -0.6372 -2.2845 -1.5611
  641MOL0     H84599   3.321  10.145   6.739  0.8863 -0.1162  0.4408
  641MOL0     H84600   3.768  10.074   6.832 -0.1036 -0.6205 -0.5632
  641MOL0     H84601   3.992  10.120   6.778 -1.9369  2.8464  1.8204
  641MOL0     H84602   4.267  10.059   6.535 -0.6055 -0.8003  0.1173
  641MOL0     H84603   4.147  10.023   6.657 -0.0531  0.3159  0.2237
  641MOL0     H84604   4.156  10.304   6.666  1.8888  2.0320  0.9104
  641MOL0     H84605   4.221  10.194   6.783 -0.9985  0.4017 -0.3647
  641MOL0     H84606   4.378  10.345   6.574  0.4001 -1.7259  0.1563
  641MOL0     H84607   4.442  10.187   6.624  2.8017  2.4741 -0.2517
  641MOL0     H84608   4.374  10.420   6.821 -3.4785 -1.8917 -0.0565
  641MOL0     H84609   4.452  10.265   6.865  1.6377  2.4256  2.5209
  641MOL0     H84610   4.775  10.458   6.686 -0.8041  2.1165  0.1650
  641MOL0     H84611   3.873  10.174   6.367 -0.7676  0.4988  0.2092
  641MOL0     H84612   3.646  10.097   6.421 -0.8653 -3.6343  1.2726
  642MOL0     O84613  11.174   2.816   3.697  0.3828 -0.0489 -0.3452
  642MOL0     C84614  11.215   2.847   3.811  0.3624 -1.0737  1.4970
  642MOL0     O84615  11.145   2.895   3.912 -0.4337  0.4407  0.6131
  642MOL0     C84616  11.011   2.913   3.911 -0.1036 -0.1171  0.1015
  642MOL0     C84617  10.934   2.910   4.029 -0.1394  0.5770  0.0378
  642MOL0     C84618  10.795   2.932   4.029 -0.6580  0.8346 -0.4211
  642MOL0     C84619  10.723   2.974   3.918  0.3995 -0.3866  0.1789
  642MOL0     O84620  10.594   3.021   3.938  0.6569 -0.1439 -0.4461
  642MOL0     C84621  10.497   2.942   4.009 -0.9221 -0.0017  0.5921
  642MOL0     C84622  10.479   2.811   3.936 -0.1501  0.6179  0.1104
  642MOL0     C84623  10.355   2.752   3.995 -0.8174 -0.2397 -0.7289
  642MOL0     C84624  10.376   2.677   4.124  0.4726 -0.1744  0.8148
  642MOL0     C84625  10.262   2.570   4.144  0.0161 -1.1512 -0.1020
  642MOL0     C84626  10.263   2.526   4.289  0.8544  0.0656 -0.1091
  642MOL0     C84627  10.168   2.407   4.313 -0.2557  0.2239  0.0680
  642MOL0     C84628  10.185   2.295   4.215  0.2067 -0.9816  1.0121
  642MOL0     N84629  10.124   2.167   4.243 -0.9400 -0.7662 -1.0094
  642MOL0     C84630  10.191   2.050   4.277  0.6255 -0.0205 -0.0829
  642MOL0     C84631  10.090   1.961   4.284  0.0823 -0.5337 -0.1474
  642MOL0     C84632  10.108   1.826   4.342 -0.1395  0.8662  0.2995
  642MOL0     C84633  10.186   1.728   4.256  1.2521 -0.2998  0.1502
  642MOL0     C84634  10.205   1.598   4.341 -0.1282 -0.0188 -0.6117
  642MOL0     C84635  10.263   1.482   4.264  0.0149 -0.8084 -0.2948
  642MOL0     O84636  10.287   1.371   4.356 -0.0100  0.6106 -0.1099
  642MOL0     C84637  10.405   1.316   4.372 -0.5502 -0.2772 -0.4882
  642MOL0     C84638  10.525   1.367   4.314 -0.3761 -0.9239 -0.0641
  642MOL0     C84639  10.638   1.291   4.318  0.1992  0.2585 -0.3167
  642MOL0     C84640  10.644   1.153   4.362  0.2773 -0.8907 -0.3752
  642MOL0     C84641  10.770   1.079   4.350  0.0943 -0.0089  0.2953
  642MOL0     O84642  10.882   1.143   4.296  0.1015 -0.0997 -0.5796
  642MOL0     C84643  10.996   1.075   4.295  0.3165  0.2149 -0.9275
  642MOL0     C84644  11.092   1.106   4.394 -0.3905 -0.5287  0.3111
  642MOL0     C84645  11.218   1.046   4.398 -0.2045 -0.1428 -0.5115
  642MOL0     C84646  11.244   0.942   4.307  0.1665  0.1270  0.8572
  642MOL0     O84647  11.361   0.874   4.315  0.3096 -0.1530  0.0257
  642MOL0     C84648  11.438   0.821   4.206  0.2771 -0.8664  0.1171
  642MOL0     C84649  11.573   0.761   4.251  0.9436 -0.6115  0.8666
  642MOL0     C84650  11.649   0.722   4.117  0.0143 -0.9974 -0.4815
  642MOL0     C84651  11.775   0.642   4.142  0.3409 -0.1138 -0.2319
  642MOL0     C84652  11.882   0.649   4.033  0.1836  0.5123  0.3593
  642MOL0     C84653  11.983   0.538   4.044 -0.8032  0.1787  0.5182
  642MOL0     C84654  12.082   0.518   3.930 -0.9440 -0.8368 -0.7251
  642MOL0     C84655  12.030   0.490   3.794 -0.1416 -0.5304 -0.3414
  642MOL0    Cl84656  11.952   0.326   3.787  0.1499  0.3806  0.1009
  642MOL0     C84657  11.150   0.906   4.211  1.1328 -0.8828  0.5673
  642MOL0     C84658  11.029   0.979   4.209 -0.1536  0.1308 -0.1190
  642MOL0     O84659  10.768   0.966   4.394  0.1320 -0.0034  0.1032
  642MOL0     C84660  10.526   1.110   4.436 -0.5819 -0.2169  0.3617
  642MOL0     C84661  10.408   1.184   4.428  0.0567 -0.3270  1.0354
  642MOL0     N84662   9.966   2.031   4.277 -0.3311  0.0064 -0.5333
  642MOL0     N84663   9.989   2.150   4.256 -0.9443  0.2784  0.2210
  642MOL0     C84664  10.794   2.978   3.799 -0.0570  0.6736 -0.1172
  642MOL0     C84665  10.935   2.954   3.792  0.1883  0.5373 -0.1532
  642MOL0     C84666  11.355   2.825   3.834  0.3526 -0.0338  0.0136
  642MOL0     C84667  11.407   2.900   3.939 -0.6594 -0.1395  0.8407
  642MOL0     C84668  11.533   2.867   3.987 -0.3771  0.0454 -0.7051
  642MOL0     C84669  11.606   2.773   3.929  0.1213 -0.0745 -0.5212
  642MOL0     O84670  11.727   2.742   3.992  0.5274 -0.7690  0.0338
  642MOL0     C84671  11.831   2.678   3.919 -0.3244 -0.4039  0.1839
  642MOL0     C84672  11.964   2.686   3.994  0.4924  1.2180 -0.0898
  642MOL0     C84673  12.068   2.585   3.947  0.5139  0.7304  0.6604
  642MOL0     C84674  12.118   2.604   3.807  0.2456 -0.4317  0.2660
  642MOL0     C84675  12.231   2.521   3.772 -0.2334  0.5800 -0.1801
  642MOL0     C84676  12.320   2.440   3.754 -0.6056 -0.7880  0.9567
  642MOL0     C84677  11.558   2.707   3.817 -0.2176 -0.7794 -0.2143
  642MOL0     C84678  11.431   2.727   3.772 -0.1484 -0.0554  0.7071
  642MOL0     H84679  10.984   2.876   4.119  0.2545 -3.8573 -1.6128
  642MOL0     H84680  10.743   2.935   4.124  2.0410  0.7051  1.1604
  642MOL0     H84681  10.406   3.002   4.000 -3.1996 -3.3786 -1.4802
  642MOL0     H84682  10.520   2.931   4.116 -0.9514 -1.9054  0.4460
  642MOL0     H84683  10.565   2.745   3.952 -0.2064 -0.0877 -2.1925
  642MOL0     H84684  10.467   2.821   3.828 -0.1355 -2.6444 -0.2899
  642MOL0     H84685  10.312   2.686   3.919 -1.6232  0.0456 -0.5276
  642MOL0     H84686  10.277   2.826   4.010 -0.2610  0.4504 -1.1847
  642MOL0     H84687  10.472   2.625   4.115  0.1832 -0.9112  1.8329
  642MOL0     H84688  10.368   2.748   4.206 -2.0817 -1.1939  1.5653
  642MOL0     H84689  10.273   2.489   4.071  2.2792 -0.2688 -0.8215
  642MOL0     H84690  10.160   2.609   4.139  1.4405  2.8640 -1.4684
  642MOL0     H84691  10.213   2.609   4.340 -1.6603  1.3341 -4.1585
  642MOL0     H84692  10.363   2.495   4.320  1.2887  2.1337  0.6808
  642MOL0     H84693  10.192   2.358   4.408  1.6795 -1.6260 -1.2678
  642MOL0     H84694  10.062   2.434   4.308 -0.4112 -0.3056  0.4668
  642MOL0     H84695  10.290   2.273   4.196 -0.5626 -3.0268 -1.3490
  642MOL0     H84696  10.128   2.319   4.125 -0.6215  1.5872  2.1136
  642MOL0     H84697  10.296   2.037   4.299  0.6507 -2.8443 -1.4431
  642MOL0     H84698  10.009   1.782   4.354  0.8034 -2.3423 -2.2858
  642MOL0     H84699  10.148   1.827   4.444 -0.1890 -1.7330  0.4002
  642MOL0     H84700  10.281   1.771   4.224  0.8991  1.0911  0.8951
  642MOL0     H84701  10.137   1.688   4.166  1.3741 -3.9264  1.5113
  642MOL0     H84702  10.264   1.624   4.429  0.3537 -0.0945 -0.9080
  642MOL0     H84703  10.107   1.566   4.375  0.1139 -1.8556 -1.5375
  642MOL0     H84704  10.345   1.527   4.207 -0.0645  1.4348  1.2477
  642MOL0     H84705  10.194   1.443   4.188  1.3803 -2.0496 -0.9670
  642MOL0     H84706  10.527   1.463   4.264  0.3096 -1.0249 -0.2374
  642MOL0     H84707  10.727   1.339   4.279  0.0821 -0.3824 -1.3951
  642MOL0     H84708  11.071   1.184   4.467  0.0517  2.2606 -2.3268
  642MOL0     H84709  11.287   1.069   4.478 -1.2712 -0.6956  0.5952
  642MOL0     H84710  11.464   0.903   4.138  1.5444 -0.9168  0.5203
  642MOL0     H84711  11.381   0.741   4.159  1.3520 -1.1778 -0.6943
  642MOL0     H84712  11.559   0.672   4.314 -2.1225 -2.2347 -1.7759
  642MOL0     H84713  11.635   0.833   4.305  2.4273 -3.2612  2.9609
  642MOL0     H84714  11.655   0.817   4.063 -0.7512 -0.0394  1.0417
  642MOL0     H84715  11.583   0.663   4.053 -1.0280 -0.5889  0.1972
  642MOL0     H84716  11.828   0.671   4.233 -0.2635 -1.1438  0.4710
  642MOL0     H84717  11.737   0.539   4.143  1.2416 -0.4509  0.3148
  642MOL0     H84718  11.935   0.745   4.042  2.4456 -0.7813  1.7211
  642MOL0     H84719  11.816   0.642   3.946 -1.2605  0.3658  1.4411
  642MOL0     H84720  11.937   0.439   4.058 -0.5154  0.2257  2.0408
  642MOL0     H84721  12.040   0.544   4.138 -1.4894 -2.2807  1.1817
  642MOL0     H84722  12.141   0.610   3.925  0.3305 -1.6493 -1.2413
  642MOL0     H84723  12.147   0.432   3.950 -1.0338 -0.8877 -0.6547
  642MOL0     H84724  12.117   0.493   3.728  1.0906  1.4364  1.2189
  642MOL0     H84725  11.953   0.553   3.749  1.2311  0.2467 -1.6975
  642MOL0     H84726  11.157   0.824   4.141 -1.0740  0.0407 -0.8631
  642MOL0     H84727  10.945   0.957   4.144 -2.1054 -2.2039  2.8802
  642MOL0     H84728  10.520   1.011   4.479 -0.5512  0.2392  1.4472
  642MOL0     H84729  10.318   1.145   4.476  0.6027 -1.8788  0.8633
  642MOL0     H84730  10.756   2.986   3.698 -0.8224  0.0764  0.1188
  642MOL0     H84731  10.983   2.975   3.697  0.1678 -4.1293 -1.4713
  642MOL0     H84732  11.359   2.987   3.983  0.0965  1.8919 -2.0720
  642MOL0     H84733  11.571   2.929   4.067  1.4282  0.4859 -1.8549
  642MOL0     H84734  11.849   2.737   3.829 -0.5779 -1.5702 -0.6510
  642MOL0     H84735  11.806   2.576   3.889 -0.6615 -0.0255 -0.8485
  642MOL0     H84736  12.010   2.784   3.984  0.3136  1.2144 -1.0522
  642MOL0     H84737  11.938   2.653   4.095  0.7925 -1.1426 -0.7177
  642MOL0     H84738  12.029   2.483   3.953 -0.3178  0.7863 -2.2418
  642MOL0     H84739  12.149   2.582   4.020  1.2087 -2.0655 -0.1014
  642MOL0     H84740  12.035   2.584   3.738 -0.5403 -0.6834  1.2520
  642MOL0     H84741  12.147   2.707   3.788  0.0670 -0.4672 -0.2118
  642MOL0     H84742  12.394   2.363   3.752  1.6609  1.2465  0.7692
  642MOL0     H84743  11.616   2.637   3.757  2.6529 -0.6831  2.1871
  642MOL0     H84744  11.401   2.675   3.681  0.6998 -1.3352  1.1325
  643MOL0     O84745   8.159   5.536   3.791 -0.2165 -0.2924  0.6257
  643MOL0     C84746   8.045   5.486   3.797 -1.3848 -0.4786  1.1070
  643MOL0     O84747   8.013   5.351   3.789  0.0879  0.1332  0.8047
  643MOL0     C84748   8.118   5.272   3.761  0.5346 -0.4713  0.7916
  643MOL0     C84749   8.226   5.243   3.850  0.6693 -0.0251  0.1123
  643MOL0     C84750   8.315   5.134   3.826 -0.6918 -0.0753 -0.2009
  643MOL0     C84751   8.325   5.068   3.707  1.3825 -0.6406 -0.2898
  643MOL0     O84752   8.424   4.978   3.686 -0.8645 -0.0091  0.0616
  643MOL0     C84753   8.490   4.992   3.558  0.3658  0.9170  0.0012
  643MOL0     C84754   8.617   4.907   3.556 -0.2063  0.1147  0.1019
  643MOL0     C84755   8.699   4.920   3.431 -0.8226  0.9397  0.5590
  643MOL0     C84756   8.814   4.814   3.431 -0.3387  0.1117 -0.5564
  643MOL0     C84757   8.936   4.866   3.360 -0.3035 -0.1112  0.2408
  643MOL0     C84758   8.945   4.823   3.213 -0.1450  0.1557 -0.0535
  643MOL0     C84759   9.068   4.907   3.161  0.3503  0.2494 -0.8038
  643MOL0     C84760   9.100   4.877   3.018 -0.4157 -0.8927 -0.2030
  643MOL0     N84761   8.984   4.905   2.934 -0.3943 -0.0542  0.0012
  643MOL0     C84762   8.921   5.027   2.930  0.7005  0.6883 -0.7924
  643MOL0     C84763   8.805   5.009   2.861  0.9340  0.2814  0.8325
  643MOL0     C84764   8.706   5.111   2.823  0.4151  0.6824  0.0764
  643MOL0     C84765   8.584   5.103   2.921  0.1666  0.6381 -0.9895
  643MOL0     C84766   8.466   5.188   2.883  0.0094  0.7381  0.1545
  643MOL0     C84767   8.357   5.189   2.992  0.0748  0.0438 -0.6386
  643MOL0     O84768   8.309   5.065   3.017  0.0985  0.4384  0.5532
  643MOL0     C84769   8.204   5.036   3.101  0.0876  0.8955 -0.0555
  643MOL0     C84770   8.147   5.140   3.183  0.3984  0.0443 -1.1196
  643MOL0     C84771   8.044   5.123   3.272 -0.0923 -0.3492 -0.2646
  643MOL0     C84772   7.986   4.997   3.281 -0.7627  0.0429 -0.2099
  643MOL0     C84773   7.874   4.982   3.376 -0.4441 -0.0943 -0.4258
  643MOL0     O84774   7.813   4.859   3.367 -0.3064  0.0833  0.4687
  643MOL0     C84775   7.702   4.829   3.446  0.1357 -0.4941  0.5123
  643MOL0     C84776   7.686   4.861   3.582 -0.7196 -0.2026  0.0784
  643MOL0     C84777   7.561   4.834   3.644 -1.4234 -0.0565  0.6928
  643MOL0     C84778   7.459   4.774   3.576 -0.1408  0.3515  0.0152
  643MOL0     O84779   7.328   4.760   3.625 -0.4844 -0.0849  0.1004
  643MOL0     C84780   7.308   4.672   3.736  0.4656  0.1240  0.0869
  643MOL0     C84781   7.289   4.754   3.866  0.5639 -0.2090 -0.1088
  643MOL0     C84782   7.209   4.669   3.964 -0.5184 -0.0269  1.0146
  643MOL0     C84783   7.167   4.747   4.091 -0.4609 -0.9926  0.0522
  643MOL0     C84784   7.065   4.660   4.160 -0.0129 -0.3297 -0.9667
  643MOL0     C84785   7.124   4.542   4.248  0.1225  0.6320 -0.1126
  643MOL0     C84786   7.003   4.509   4.346 -0.9976  0.1328 -0.3657
  643MOL0     C84787   6.877   4.448   4.283  0.7319 -0.0691 -1.1560
  643MOL0    Cl84788   6.913   4.294   4.205 -0.2555  0.1975  0.1645
  643MOL0     C84789   7.480   4.737   3.441  0.1109 -0.0206  0.8490
  643MOL0     C84790   7.605   4.754   3.379  0.0588  1.2409 -0.2411
  643MOL0     O84791   7.865   5.065   3.467  0.1816 -0.6131 -0.2872
  643MOL0     C84792   8.048   4.891   3.209  0.3470 -1.0310 -0.1284
  643MOL0     C84793   8.150   4.905   3.113 -0.4710 -0.3351 -0.3584
  643MOL0     N84794   8.797   4.880   2.823  0.2441 -0.4090  0.9579
  643MOL0     N84795   8.902   4.818   2.868 -0.0769 -0.2760 -0.6189
  643MOL0     C84796   8.224   5.103   3.616 -0.2789 -0.1740  0.2082
  643MOL0     C84797   8.122   5.196   3.639  0.5402 -0.6280 -0.7644
  643MOL0     C84798   7.934   5.575   3.845 -0.2817  0.0455  0.1037
  643MOL0     C84799   7.948   5.710   3.840  0.6888 -0.4284 -0.2444
  643MOL0     C84800   7.849   5.798   3.881  0.5521 -0.4585 -1.1019
  643MOL0     C84801   7.731   5.753   3.940  0.3095 -0.2442  0.6152
  643MOL0     O84802   7.650   5.843   4.000 -0.5121 -0.3383  0.0935
  643MOL0     C84803   7.550   5.893   3.916 -0.3397  0.0226  0.8174
  643MOL0     C84804   7.417   5.822   3.929 -0.4346 -0.9378 -0.1626
  643MOL0     C84805   7.338   5.841   4.058 -0.3734  0.5188 -0.3790
  643MOL0     C84806   7.396   5.759   4.169 -0.2870  0.4173 -0.1756
  643MOL0     C84807   7.376   5.617   4.144  0.1976  0.8564  0.9991
  643MOL0     C84808   7.363   5.503   4.116 -0.2695  0.5759 -0.2866
  643MOL0     C84809   7.720   5.618   3.941  0.3384 -0.1885  0.5452
  643MOL0     C84810   7.821   5.529   3.907  0.3473 -0.9629 -0.0777
  643MOL0     H84811   8.233   5.288   3.949  2.1902  0.4130 -0.1756
  643MOL0     H84812   8.397   5.120   3.896  0.7840 -0.1003 -1.8515
  643MOL0     H84813   8.519   5.094   3.531 -0.3011  0.2526 -3.7937
  643MOL0     H84814   8.421   4.959   3.481  0.2144  0.4281  0.3445
  643MOL0     H84815   8.594   4.803   3.581 -1.7516  0.2626 -0.5528
  643MOL0     H84816   8.670   4.954   3.640  2.1756  1.1785 -1.8700
  643MOL0     H84817   8.740   5.020   3.417 -0.6430  0.7146 -0.6719
  643MOL0     H84818   8.641   4.895   3.341  1.8857  2.2296 -1.7173
  643MOL0     H84819   8.830   4.802   3.538  1.2698 -2.0467 -0.9604
  643MOL0     H84820   8.781   4.720   3.384  1.5811 -0.8967  0.0282
  643MOL0     H84821   9.023   4.828   3.415 -0.9809  0.8443  2.0597
  643MOL0     H84822   8.934   4.975   3.357  1.3003  0.0375  2.1746
  643MOL0     H84823   8.855   4.853   3.159  1.2162  2.8792 -1.0154
  643MOL0     H84824   8.954   4.715   3.203  0.1766  0.0363  1.3147
  643MOL0     H84825   9.060   5.013   3.185  1.4921 -0.0818  1.2962
  643MOL0     H84826   9.152   4.873   3.223  0.6390  0.9146 -0.8184
  643MOL0     H84827   9.127   4.771   3.009  0.8724 -0.6806  0.9837
  643MOL0     H84828   9.187   4.936   2.988  0.2954 -0.9268  1.6457
  643MOL0     H84829   8.948   5.125   2.968 -0.3094  0.9607 -0.7470
  643MOL0     H84830   8.674   5.107   2.719 -0.2420  0.3381  0.2881
  643MOL0     H84831   8.754   5.210   2.826  3.2033 -0.5443 -0.5268
  643MOL0     H84832   8.603   5.120   3.027 -3.1592  0.9480 -0.3351
  643MOL0     H84833   8.549   5.000   2.919 -0.4055  0.7618  0.7092
  643MOL0     H84834   8.500   5.289   2.860 -0.4704  1.1074  1.0174
  643MOL0     H84835   8.429   5.149   2.787  2.7898 -1.3262 -0.2152
  643MOL0     H84836   8.275   5.257   2.969 -2.5271 -1.5283  2.9752
  643MOL0     H84837   8.398   5.230   3.084 -3.3538 -1.2012  1.6307
  643MOL0     H84838   8.170   5.246   3.179 -1.2591  0.4626 -0.2876
  643MOL0     H84839   8.002   5.214   3.314 -0.4740  0.3245 -2.0088
  643MOL0     H84840   7.749   4.933   3.631 -0.0283 -0.0312 -1.0307
  643MOL0     H84841   7.541   4.865   3.746 -2.8140 -0.3214  0.5161
  643MOL0     H84842   7.392   4.604   3.751 -0.3889 -0.7527  1.0482
  643MOL0     H84843   7.218   4.615   3.708  1.2650  0.1445 -2.8688
  643MOL0     H84844   7.233   4.846   3.851  1.6002  0.6820  1.2928
  643MOL0     H84845   7.382   4.787   3.911 -0.6811  1.1759  1.5817
  643MOL0     H84846   7.279   4.586   3.978 -0.5881 -0.5103 -1.2186
  643MOL0     H84847   7.121   4.630   3.911  1.3159 -0.6955 -1.7692
  643MOL0     H84848   7.253   4.777   4.151  0.6216 -4.2147  0.2918
  643MOL0     H84849   7.118   4.836   4.050  3.0518  0.1491 -2.0816
  643MOL0     H84850   6.987   4.619   4.095 -1.3230 -0.7062  0.7734
  643MOL0     H84851   7.009   4.727   4.226  0.7044 -0.8270  0.1729
  643MOL0     H84852   7.201   4.586   4.311 -0.8395 -0.0705  1.6361
  643MOL0     H84853   7.160   4.448   4.205  1.9441 -0.7756  4.0256
  643MOL0     H84854   7.039   4.435   4.419 -1.8163 -0.7272 -0.8070
  643MOL0     H84855   6.982   4.601   4.401 -3.6704 -0.5183 -0.1856
  643MOL0     H84856   6.823   4.521   4.222 -3.2131 -0.2036  1.7878
  643MOL0     H84857   6.802   4.440   4.362  1.1416 -3.2634 -0.9670
  643MOL0     H84858   7.393   4.690   3.394  0.1351 -0.9038  1.6416
  643MOL0     H84859   7.621   4.716   3.278 -1.2169 -0.2034  0.0677
  643MOL0     H84860   8.005   4.793   3.223  1.5975 -1.3522  1.8332
  643MOL0     H84861   8.190   4.822   3.055  1.3080  0.4265 -0.2714
  643MOL0     H84862   8.204   5.045   3.527  0.4010  1.0315 -0.7600
  643MOL0     H84863   8.045   5.215   3.565  1.5264 -3.0266 -2.5364
  643MOL0     H84864   8.028   5.756   3.781  2.0080  0.4346  2.0997
  643MOL0     H84865   7.862   5.906   3.873 -1.9633  0.1760  1.5403
  643MOL0     H84866   7.578   5.880   3.811  0.5273 -1.5979  1.2194
  643MOL0     H84867   7.541   6.001   3.930  2.2333  0.1942  1.7271
  643MOL0     H84868   7.347   5.879   3.867 -1.3609  0.5109  2.0598
  643MOL0     H84869   7.429   5.716   3.908 -0.7045 -0.9573 -0.2232
  643MOL0     H84870   7.238   5.805   4.034 -0.3435 -0.4158  0.8030
  643MOL0     H84871   7.325   5.946   4.086 -0.6158 -0.0541  1.9079
  643MOL0     H84872   7.504   5.778   4.178 -0.3182 -0.0835  1.8638
  643MOL0     H84873   7.343   5.780   4.262 -2.2435 -1.4306 -0.7899
  643MOL0     H84874   7.350   5.397   4.103  0.2616 -0.0247  3.0260
  643MOL0     H84875   7.632   5.566   3.977  0.2542  0.7331  1.7399
  643MOL0     H84876   7.789   5.428   3.931 -0.5587 -0.9598 -1.2145
  644MOL0     O84877   0.289   8.001   6.455  0.8321  0.2150 -0.4838
  644MOL0     C84878   0.257   8.012   6.337 -0.2951  0.0898 -0.0523
  644MOL0     O84879   0.191   8.121   6.285  0.8510 -0.0338  0.4839
  644MOL0     C84880   0.168   8.234   6.361  0.3586 -0.7391  1.1628
  644MOL0     C84881   0.276   8.316   6.391  0.4169 -0.1126 -0.2358
  644MOL0     C84882   0.248   8.440   6.453  0.1461  0.2265  0.8281
  644MOL0     C84883   0.116   8.477   6.488  0.6387  0.5575  0.6259
  644MOL0     O84884   0.082   8.595   6.535 -0.2149 -0.4914 -1.1760
  644MOL0     C84885   0.054   8.692   6.435 -0.4954 -0.6587  0.0606
  644MOL0     C84886   0.068   8.845   6.476  0.6235  0.3873  0.9579
  644MOL0     C84887  -0.008   8.879   6.596  0.8046 -0.9191 -0.9330
  644MOL0     C84888   0.027   9.020   6.659 -0.0842  0.9254  0.6913
  644MOL0     C84889   0.138   8.992   6.767  0.3678 -0.2509  0.4213
  644MOL0     C84890   0.147   9.106   6.875  0.6718  0.3792 -0.4438
  644MOL0     C84891   0.259   9.080   6.984  0.6693 -0.3391  1.0067
  644MOL0     C84892   0.263   9.194   7.093 -0.6137  0.1213  0.6042
  644MOL0     N84893   0.400   9.228   7.136 -1.0100  0.1209 -0.2260
  644MOL0     C84894   0.490   9.141   7.210 -0.6398 -0.2149 -0.6208
  644MOL0     C84895   0.599   9.218   7.220  0.6272 -1.1942 -0.2171
  644MOL0     C84896   0.722   9.180   7.294 -0.3403 -0.2889 -0.3195
  644MOL0     C84897   0.769   9.296   7.382  0.7515  0.6763  0.4297
  644MOL0     C84898   0.888   9.263   7.472 -0.0344  0.3416  0.0604
  644MOL0     C84899   0.950   9.392   7.549  0.0661  0.1408 -0.1585
  644MOL0     O84900   1.073   9.347   7.607  0.3328 -0.3561 -0.7156
  644MOL0     C84901   1.114   9.435   7.703 -0.0767  0.3246  0.3044
  644MOL0     C84902   1.258   9.438   7.722  0.1766 -0.0080  0.8357
  644MOL0     C84903   1.324   9.515   7.823 -0.0971 -0.1174 -0.2271
  644MOL0     C84904   1.243   9.579   7.918  0.0241  0.3210 -0.4388
  644MOL0     C84905   1.313   9.672   8.007 -0.2350 -0.3651  0.4131
  644MOL0     O84906   1.448   9.697   7.987  0.0481  0.5520  0.0127
  644MOL0     C84907   1.523   9.760   8.084 -0.0412  0.3363 -0.3786
  644MOL0     C84908   1.628   9.844   8.038  0.1232 -0.2438 -0.0374
  644MOL0     C84909   1.702   9.917   8.131 -0.7436  0.3648 -0.1128
  644MOL0     C84910   1.691   9.898   8.269 -0.3384 -0.2337  0.0254
  644MOL0     O84911   1.755   9.961   8.371  0.0428  0.6597 -0.0301
  644MOL0     C84912   1.877  10.014   8.325  0.5936  0.4623  0.3182
  644MOL0     C84913   1.981  10.017   8.432 -0.4738 -0.4408 -0.7398
  644MOL0     C84914   2.089  10.116   8.385  0.3958  0.4403 -0.0796
  644MOL0     C84915   2.218  10.129   8.472  0.4734 -0.2677  0.0019
  644MOL0     C84916   2.295  10.238   8.430 -0.3073 -0.1960 -0.0573
  644MOL0     C84917   2.425  10.232   8.519  0.2917  0.1727 -0.8153
  644MOL0     C84918   2.519  10.353   8.482  0.5291 -0.3173  0.4096
  644MOL0     C84919   2.656  10.342   8.543  0.1323 -0.3345 -0.2932
  644MOL0    Cl84920   2.755  10.476   8.486  0.4636 -0.0183  0.3848
  644MOL0     C84921   1.594   9.812   8.313  2.2838 -0.5965  0.0820
  644MOL0     C84922   1.511   9.745   8.223  0.1734  0.2018 -0.3823
  644MOL0     O84923   1.247   9.714   8.101  0.3429  0.6470  0.2318
  644MOL0     C84924   1.103   9.589   7.895 -0.2198 -0.2123 -0.4275
  644MOL0     C84925   1.040   9.524   7.786 -0.4784  1.4199 -0.1116
  644MOL0     N84926   0.580   9.338   7.152  0.2948  0.1070 -0.5291
  644MOL0     N84927   0.463   9.343   7.104  0.1622 -0.4838  0.0167
  644MOL0     C84928   0.013   8.391   6.454  0.0128 -0.1069 -0.3876
  644MOL0     C84929   0.033   8.275   6.391 -0.2491  0.8567  0.0810
  644MOL0     C84930   0.293   7.913   6.244 -1.2641  0.7209 -0.4552
  644MOL0     C84931   0.401   7.816   6.270 -0.2268 -0.5380 -0.3586
  644MOL0     C84932   0.442   7.719   6.182 -0.1398  0.2596 -0.4207
  644MOL0     C84933   0.383   7.709   6.060 -0.0737  0.0090 -0.4363
  644MOL0     O84934   0.420   7.624   5.956 -0.1586  0.5979 -0.3990
  644MOL0     C84935   0.530   7.536   5.979  1.0072  0.0737  0.9482
  644MOL0     C84936   0.670   7.603   5.971  0.4405 -0.0886 -0.3323
  644MOL0     C84937   0.767   7.489   5.944  0.1174 -0.0807 -0.5302
  644MOL0     C84938   0.908   7.540   5.940 -0.0108  0.3168  0.3442
  644MOL0     C84939   0.995   7.439   5.876 -0.0093  0.4182  0.5629
  644MOL0     C84940   1.064   7.356   5.825 -0.4937 -0.0254  0.5959
  644MOL0     C84941   0.284   7.799   6.027  0.1735 -0.7652 -0.2534
  644MOL0     C84942   0.235   7.898   6.115 -0.0397  1.1627 -0.4563
  644MOL0     H84943   0.379   8.301   6.361  0.2190 -1.2805 -0.3735
  644MOL0     H84944   0.332   8.501   6.483 -1.2796  1.0413  3.4928
  644MOL0     H84945  -0.045   8.660   6.401  0.6097 -4.1931 -0.2052
  644MOL0     H84946   0.120   8.680   6.349  0.4782  1.4280  0.4628
  644MOL0     H84947   0.034   8.904   6.390  0.2581  1.5434  1.8785
  644MOL0     H84948   0.177   8.858   6.486  0.7948 -0.3205  0.1537
  644MOL0     H84949  -0.009   8.799   6.671  0.6464 -0.1602 -0.0994
  644MOL0     H84950  -0.117   8.887   6.587  0.7415 -0.5031  0.0151
  644MOL0     H84951   0.062   9.088   6.581  0.7381 -0.9945 -0.7185
  644MOL0     H84952  -0.067   9.060   6.697 -1.7349  0.4861 -2.4926
  644MOL0     H84953   0.239   8.979   6.727  0.4273 -0.9051  0.7760
  644MOL0     H84954   0.127   8.891   6.806  3.4344 -0.9239 -0.2485
  644MOL0     H84955   0.051   9.127   6.922 -0.5017  0.4973 -2.7682
  644MOL0     H84956   0.168   9.202   6.827 -3.1388  2.2856  1.2722
  644MOL0     H84957   0.255   8.980   7.027  0.9131 -1.4666 -1.4381
  644MOL0     H84958   0.349   9.097   6.926  0.9421 -2.0028  0.9053
  644MOL0     H84959   0.190   9.174   7.172 -1.9386 -1.6724 -0.9816
  644MOL0     H84960   0.232   9.284   7.039 -1.7302 -0.4303  0.3067
  644MOL0     H84961   0.473   9.041   7.248  0.2767  1.0626  3.7020
  644MOL0     H84962   0.802   9.146   7.227 -0.5286 -1.0322 -0.1762
  644MOL0     H84963   0.689   9.094   7.354  2.3873 -0.5714  0.9421
  644MOL0     H84964   0.685   9.315   7.450  1.2153 -0.3410  1.3023
  644MOL0     H84965   0.802   9.372   7.310  0.8003 -1.4794 -1.9591
  644MOL0     H84966   0.851   9.198   7.552 -1.5977  1.4343  0.2724
  644MOL0     H84967   0.958   9.200   7.417 -0.5672 -1.7144  1.5885
  644MOL0     H84968   0.869   9.426   7.615 -2.1636 -1.0960 -2.0864
  644MOL0     H84969   0.970   9.477   7.484  2.4725 -0.2027  0.0711
  644MOL0     H84970   1.309   9.371   7.654 -1.8309  2.0187 -2.9782
  644MOL0     H84971   1.432   9.512   7.814  0.0230  0.5761  0.7843
  644MOL0     H84972   1.633   9.843   7.929 -0.4749 -1.0178 -0.0717
  644MOL0     H84973   1.775   9.974   8.075  0.2239 -1.5008 -0.8451
  644MOL0     H84974   1.856  10.117   8.292 -1.3425  0.0562  0.1458
  644MOL0     H84975   1.917   9.954   8.243  3.5854 -0.1163  2.0954
  644MOL0     H84976   2.024   9.919   8.453  1.9753  0.7955  0.4064
  644MOL0     H84977   1.936  10.046   8.527  0.2611 -0.7453 -0.2927
  644MOL0     H84978   2.051  10.218   8.380  1.5480  0.8379 -1.0944
  644MOL0     H84979   2.115  10.106   8.279  0.6473  1.0896 -0.0879
  644MOL0     H84980   2.210  10.147   8.580  1.3414 -2.2416  0.4511
  644MOL0     H84981   2.266  10.032   8.453  1.6795  0.5219 -1.1971
  644MOL0     H84982   2.241  10.330   8.454  0.3549  0.2786 -0.3864
  644MOL0     H84983   2.317  10.234   8.323 -3.6293  2.0730 -0.9698
  644MOL0     H84984   2.459  10.131   8.494  3.1483  1.3253 -2.1376
  644MOL0     H84985   2.392  10.245   8.622  0.8987  0.9658 -0.7110
  644MOL0     H84986   2.520  10.363   8.373  0.1384 -0.5646  0.3802
  644MOL0     H84987   2.471  10.447   8.511  2.5949  1.7537 -2.2540
  644MOL0     H84988   2.690  10.245   8.506  0.6150 -1.4728  2.8438
  644MOL0     H84989   2.661  10.336   8.652 -0.6604 -1.8067 -0.3104
  644MOL0     H84990   1.559   9.825   8.415 -0.7289 -0.5674 -0.8584
  644MOL0     H84991   1.427   9.691   8.266  1.5633  0.0933  2.4331
  644MOL0     H84992   1.060   9.661   7.965  0.1033 -2.1638  1.9184
  644MOL0     H84993   0.933   9.507   7.798  0.1475 -1.5713  2.5111
  644MOL0     H84994  -0.091   8.421   6.458  0.1523  0.2957  0.2881
  644MOL0     H84995  -0.045   8.216   6.344 -0.9829  0.9017  1.2124
  644MOL0     H84996   0.468   7.820   6.355 -0.1243 -1.0582 -0.4156
  644MOL0     H84997   0.528   7.659   6.211 -1.3913 -0.3413  2.4146
  644MOL0     H84998   0.516   7.462   5.900  0.4224  0.1686  0.9577
  644MOL0     H84999   0.531   7.488   6.077  1.0090 -0.8133  0.5215
  644MOL0     H85000   0.666   7.675   5.889  0.2370 -0.3719 -0.5725
  644MOL0     H85001   0.695   7.664   6.058 -0.4652  2.9234 -2.0387
  644MOL0     H85002   0.739   7.436   5.852  0.8212 -4.8794  1.7281
  644MOL0     H85003   0.749   7.419   6.026  1.6963 -0.2518 -0.2869
  644MOL0     H85004   0.897   7.635   5.887  1.7842 -0.2098 -1.0666
  644MOL0     H85005   0.942   7.565   6.041 -1.2522  2.6139  0.2494
  644MOL0     H85006   1.136   7.295   5.774 -0.5047  0.0133  0.5342
  644MOL0     H85007   0.238   7.788   5.930 -3.2763  0.1070  1.1290
  644MOL0     H85008   0.150   7.962   6.097 -1.1838 -0.1710  0.0357
  645MOL0     O85009  11.169   4.166   1.041 -0.3012  0.4040 -0.3692
  645MOL0     C85010  11.254   4.198   0.949 -0.4597  0.8672 -0.0949
  645MOL0     O85011  11.223   4.265   0.833  0.0199  0.2299  0.3119
  645MOL0     C85012  11.092   4.288   0.817  0.5970  0.0419  0.2704
  645MOL0     C85013  11.016   4.229   0.715 -0.4589 -0.0072  0.5601
  645MOL0     C85014  10.874   4.253   0.719 -0.5260  0.4684  0.1058
  645MOL0     C85015  10.816   4.342   0.811  0.5454  0.4254 -0.0665
  645MOL0     O85016  10.687   4.376   0.806  0.2609 -0.0427 -0.4226
  645MOL0     C85017  10.589   4.298   0.742 -0.8854 -0.6354 -0.0526
  645MOL0     C85018  10.458   4.373   0.765  0.1070 -0.1112  0.2603
  645MOL0     C85019  10.330   4.294   0.727 -0.9534  0.1879  0.6275
  645MOL0     C85020  10.324   4.260   0.580 -0.5244  0.2422  0.1144
  645MOL0     C85021  10.192   4.224   0.533  0.9699 -0.7328  0.3698
  645MOL0     C85022  10.142   4.090   0.588  0.2696 -1.0081  0.2005
  645MOL0     C85023  10.021   4.024   0.512 -0.1957 -0.6760  1.0661
  645MOL0     C85024   9.900   4.118   0.498 -1.5303  0.3466 -0.4075
  645MOL0     N85025   9.786   4.048   0.446 -0.2368  0.3544  0.5610
  645MOL0     C85026   9.713   3.939   0.501 -0.5030 -0.0670  0.4269
  645MOL0     C85027   9.593   3.943   0.438 -0.3095 -0.9906 -0.0793
  645MOL0     C85028   9.466   3.856   0.464 -0.2643  0.0932 -0.8558
  645MOL0     C85029   9.337   3.914   0.404 -0.0009 -0.5107 -0.0288
  645MOL0     C85030   9.340   3.905   0.245 -0.0329 -0.3549  0.4552
  645MOL0     C85031   9.211   3.839   0.199  0.2959 -0.4364  0.4359
  645MOL0     O85032   9.093   3.891   0.261  0.6000 -0.5362  0.1426
  645MOL0     C85033   8.972   3.869   0.193  0.5064  0.6853  0.4735
  645MOL0     C85034   8.853   3.932   0.231  0.4092 -0.5819 -0.2761
  645MOL0     C85035   8.734   3.905   0.161 -0.9110  0.1412 -0.2739
  645MOL0     C85036   8.723   3.812   0.056 -0.0125 -0.0720 -0.6937
  645MOL0     C85037   8.601   3.753   0.001 -0.1605 -0.1103  0.4230
  645MOL0     O85038   8.486   3.802   0.058 -0.2715  0.3948  0.7823
  645MOL0     C85039   8.369   3.745   0.003  0.4500 -0.7209  0.0982
  645MOL0     C85040   8.288   3.654   0.078  0.6897 -0.0654  0.7056
  645MOL0     C85041   8.175   3.592   0.034  0.9381  0.3216 -0.0381
  645MOL0     C85042   8.128   3.629  -0.092 -0.1111 -0.9165  0.8916
  645MOL0     O85043   8.021   3.575  -0.169 -0.2954  0.3286 -0.4303
  645MOL0     C85044   7.943   3.473  -0.105 -0.2394  0.4837 -0.2170
  645MOL0     C85045   7.805   3.479  -0.187 -0.6747  0.7358 -0.4379
  645MOL0     C85046   7.725   3.601  -0.154  0.2145  0.3963  0.1453
  645MOL0     C85047   7.578   3.589  -0.192  0.8859 -0.2109 -0.2943
  645MOL0     C85048   7.491   3.500  -0.091 -0.0120  0.0087 -0.2311
  645MOL0     C85049   7.348   3.554  -0.081 -0.5320 -0.3717  0.4087
  645MOL0     C85050   7.252   3.451  -0.023 -1.5883  0.4478 -0.5391
  645MOL0     C85051   7.101   3.489  -0.032 -1.2345 -0.3059 -0.4972
  645MOL0    Cl85052   7.062   3.614   0.079 -0.2254  0.1346 -0.2103
  645MOL0     C85053   8.198   3.728  -0.163  0.0608  0.5585 -0.8292
  645MOL0     C85054   8.323   3.774  -0.127 -0.1769 -0.5049  0.3656
  645MOL0     O85055   8.608   3.671  -0.094 -0.3372  0.3019 -0.5964
  645MOL0     C85056   8.847   3.755   0.015  0.2249  0.8491  0.4544
  645MOL0     C85057   8.965   3.775   0.085 -0.4596 -0.5295 -0.0153
  645MOL0     N85058   9.590   4.040   0.339 -0.0282 -0.4028 -0.4346
  645MOL0     N85059   9.701   4.099   0.352 -0.0382 -0.5383 -0.2602
  645MOL0     C85060  10.900   4.401   0.908  0.1456 -0.5527  0.5674
  645MOL0     C85061  11.036   4.380   0.906  0.0285  0.4059  0.1696
  645MOL0     C85062  11.395   4.150   0.980 -0.3653  0.8972 -0.3969
  645MOL0     C85063  11.414   4.059   1.082  0.5983  0.7178  0.4306
  645MOL0     C85064  11.531   3.986   1.084 -1.6040  0.8249  0.2428
  645MOL0     C85065  11.648   4.018   1.005 -0.2187  0.2402  0.3023
  645MOL0     O85066  11.755   3.934   0.987  0.4256 -0.4857  0.5000
  645MOL0     C85067  11.832   3.936   1.104 -0.4172  0.2125  0.0239
  645MOL0     C85068  11.951   4.037   1.074  0.1798  1.4389  0.4931
  645MOL0     C85069  12.095   3.996   1.114 -0.1580 -0.5614 -0.2235
  645MOL0     C85070  12.115   3.986   1.267 -0.2106  1.0191 -0.0827
  645MOL0     C85071  12.219   3.891   1.308  0.3112 -0.3014 -0.0434
  645MOL0     C85072  12.300   3.799   1.333  0.5640  0.3240 -0.8488
  645MOL0     C85073  11.626   4.120   0.914 -0.7539 -0.6090  0.2689
  645MOL0     C85074  11.506   4.186   0.900 -0.0557  0.1315  0.8041
  645MOL0     H85075  11.068   4.151   0.661  1.9585  1.6976  0.2765
  645MOL0     H85076  10.804   4.203   0.652 -2.0329  2.6004 -0.0125
  645MOL0     H85077  10.583   4.195   0.778 -2.5378 -0.8494 -0.8331
  645MOL0     H85078  10.598   4.292   0.633  0.2000  0.3109 -0.0337
  645MOL0     H85079  10.451   4.463   0.702 -0.7686 -0.8158 -0.6973
  645MOL0     H85080  10.443   4.404   0.869 -1.0696 -1.7380  0.6208
  645MOL0     H85081  10.249   4.365   0.746  0.3291  1.2379  2.5078
  645MOL0     H85082  10.325   4.209   0.795  0.6302 -0.3252  0.1341
  645MOL0     H85083  10.344   4.352   0.524 -0.5397  0.2006  0.0412
  645MOL0     H85084  10.393   4.177   0.560  0.2094  1.0439 -0.7808
  645MOL0     H85085  10.192   4.231   0.424 -2.4558  0.0713  0.2896
  645MOL0     H85086  10.118   4.300   0.560  1.4507 -0.4355  0.8857
  645MOL0     H85087  10.103   4.114   0.687 -1.8688  0.2624 -0.8770
  645MOL0     H85088  10.223   4.018   0.605  0.3062 -1.1245 -0.4183
  645MOL0     H85089  10.048   3.992   0.411 -2.9009  0.7652 -0.2321
  645MOL0     H85090   9.998   3.931   0.566  1.1234 -1.8228 -0.2755
  645MOL0     H85091   9.927   4.196   0.426  0.3568 -1.7210 -2.0911
  645MOL0     H85092   9.877   4.167   0.593  0.0703  0.8228 -0.2365
  645MOL0     H85093   9.739   3.869   0.580 -0.3292  1.2266  1.5505
  645MOL0     H85094   9.447   3.867   0.571  1.0732  2.7262 -0.8045
  645MOL0     H85095   9.476   3.753   0.428 -2.2915 -0.2248 -0.6054
  645MOL0     H85096   9.328   4.023   0.418  0.7565  0.0599 -3.1957
  645MOL0     H85097   9.250   3.866   0.450  2.1437 -3.1972  1.4829
  645MOL0     H85098   9.358   4.000   0.194 -1.4705  0.0351  0.6373
  645MOL0     H85099   9.421   3.834   0.225 -0.6992 -1.4640  1.5230
  645MOL0     H85100   9.228   3.735   0.226  1.8557 -0.8700 -1.9094
  645MOL0     H85101   9.202   3.837   0.090  1.2042  0.8599  0.3077
  645MOL0     H85102   8.848   3.987   0.324 -2.0021 -1.9488  0.5080
  645MOL0     H85103   8.636   3.930   0.200 -1.0766  0.0123 -0.6033
  645MOL0     H85104   8.324   3.641   0.180 -0.9376  0.1441  1.3411
  645MOL0     H85105   8.124   3.515   0.092 -1.1026  2.7939  1.7413
  645MOL0     H85106   7.918   3.495  -0.001 -0.6806 -0.8071 -0.0438
  645MOL0     H85107   7.995   3.377  -0.111  0.7705  0.9289  1.0630
  645MOL0     H85108   7.743   3.393  -0.160  0.5804  0.1220  0.5864
  645MOL0     H85109   7.822   3.484  -0.295  0.7118  1.5482 -0.2080
  645MOL0     H85110   7.767   3.689  -0.204  1.3137  0.3068  0.8775
  645MOL0     H85111   7.733   3.628  -0.048 -0.9745  2.3345 -0.2138
  645MOL0     H85112   7.546   3.694  -0.197  0.0695 -0.5164 -2.4120
  645MOL0     H85113   7.568   3.554  -0.295  0.2277  1.0009 -0.6596
  645MOL0     H85114   7.535   3.492   0.009 -1.4999 -0.6789  0.4005
  645MOL0     H85115   7.478   3.398  -0.128 -2.6569 -0.6798  2.2992
  645MOL0     H85116   7.317   3.564  -0.185  2.0191 -0.7372 -0.4676
  645MOL0     H85117   7.349   3.649  -0.025 -0.0891 -1.8429  3.0669
  645MOL0     H85118   7.270   3.355  -0.073  1.0926  0.7401 -0.2775
  645MOL0     H85119   7.293   3.446   0.079  1.9912  4.2717 -1.5437
  645MOL0     H85120   7.049   3.396  -0.006 -0.8867  0.1846  2.2574
  645MOL0     H85121   7.082   3.518  -0.135  0.3491 -2.6038 -1.5391
  645MOL0     H85122   8.150   3.756  -0.256  1.2404  3.6569 -0.6274
  645MOL0     H85123   8.377   3.845  -0.189 -0.3161 -2.0732 -1.6792
  645MOL0     H85124   8.849   3.668  -0.049 -1.0763 -1.1152  2.8869
  645MOL0     H85125   9.051   3.719   0.050 -0.1416 -1.5671  2.2231
  645MOL0     H85126  10.841   4.466   0.972  0.4777 -0.8771  1.2008
  645MOL0     H85127  11.104   4.411   0.984 -1.0489 -2.0178  2.2366
  645MOL0     H85128  11.341   4.040   1.159  0.4292 -0.8071 -0.0697
  645MOL0     H85129  11.544   3.894   1.141 -3.1613  1.5839  1.9050
  645MOL0     H85130  11.876   3.836   1.119  2.1564  0.9798 -1.8082
  645MOL0     H85131  11.778   3.962   1.196  0.3605 -0.3102  0.6500
  645MOL0     H85132  11.945   4.059   0.967 -1.1194  1.2705  0.5116
  645MOL0     H85133  11.929   4.134   1.120 -1.2401  0.3138  2.3447
  645MOL0     H85134  12.150   4.086   1.085 -1.4214 -0.2131 -1.6779
  645MOL0     H85135  12.137   3.908   1.065  2.5375  0.2852  0.3902
  645MOL0     H85136  12.145   4.083   1.309  2.5652 -0.8135  2.7127
  645MOL0     H85137  12.023   3.950   1.314  0.7259 -0.0350  1.0206
  645MOL0     H85138  12.363   3.716   1.356  0.0227  0.4206  1.1769
  645MOL0     H85139  11.708   4.135   0.844  0.1852 -2.1925  0.9691
  645MOL0     H85140  11.495   4.271   0.833  2.8089 -0.0583 -0.0136
  646MOL0     O85141   1.979   2.056   0.213  0.0660 -0.2447 -0.0134
  646MOL0     C85142   2.089   2.053   0.273 -0.3794  0.0482  0.3143
  646MOL0     O85143   2.113   1.991   0.387  0.9625  0.1541 -0.0045
  646MOL0     C85144   1.999   1.948   0.456 -0.0578  0.4773 -0.3330
  646MOL0     C85145   1.921   2.039   0.524 -0.7212 -0.7763  0.5423
  646MOL0     C85146   1.807   1.994   0.590  0.2305 -0.1078 -0.7082
  646MOL0     C85147   1.764   1.859   0.586  0.5437  0.4849 -0.5353
  646MOL0     O85148   1.634   1.839   0.646 -1.0866  0.5815 -0.3501
  646MOL0     C85149   1.601   1.708   0.696  0.1624  0.0351 -0.5063
  646MOL0     C85150   1.529   1.634   0.580 -0.3843 -0.0491 -0.1671
  646MOL0     C85151   1.380   1.657   0.545 -0.9065 -0.4212 -0.8598
  646MOL0     C85152   1.329   1.568   0.438 -0.8578  0.4144  0.5230
  646MOL0     C85153   1.172   1.565   0.418  0.5260  1.1068  0.2227
  646MOL0     C85154   1.096   1.509   0.537  0.0735  0.2810 -0.5881
  646MOL0     C85155   0.959   1.541   0.505 -0.3974  0.0889 -0.3302
  646MOL0     C85156   0.887   1.446   0.407 -0.0363  0.8203 -0.2581
  646MOL0     N85157   0.780   1.513   0.334  0.5838  0.4596 -0.7009
  646MOL0     C85158   0.802   1.612   0.240 -0.7356 -0.3719  0.5887
  646MOL0     C85159   0.675   1.653   0.213 -0.0184 -0.2089  0.9175
  646MOL0     C85160   0.627   1.767   0.125  0.4777 -0.5649 -0.8141
  646MOL0     C85161   0.622   1.896   0.206  0.0646 -0.3297  0.9857
  646MOL0     C85162   0.616   2.024   0.121 -0.1456  0.3591 -0.7073
  646MOL0     C85163   0.493   2.028   0.024 -0.2701 -1.2466 -1.0921
  646MOL0     O85164   0.382   2.054   0.109  0.1902  0.9543 -0.4016
  646MOL0     C85165   0.258   2.081   0.053 -0.0298  0.0087 -0.2601
  646MOL0     C85166   0.158   2.131   0.140  0.6917  0.7070  1.1423
  646MOL0     C85167   0.028   2.164   0.089  0.6025  0.0120 -0.1202
  646MOL0     C85168   0.005   2.153  -0.048  0.6127 -0.4002  0.0140
  646MOL0     C85169  -0.127   2.199  -0.101 -0.0146  0.5110  0.1027
  646MOL0     O85170  -0.226   2.230  -0.011 -0.1280 -0.5836  0.1177
  646MOL0     C85171  -0.350   2.263  -0.050  0.1439 -0.8600  0.0485
  646MOL0     C85172  -0.438   2.166  -0.091  0.2081  0.1487  0.1818
  646MOL0     C85173  -0.567   2.216  -0.131 -0.3663 -0.5956 -0.2200
  646MOL0     C85174  -0.597   2.348  -0.131  1.8875 -0.2998 -0.2599
  646MOL0     O85175  -0.708   2.392  -0.186 -0.5183  0.1416 -0.2850
  646MOL0     C85176  -0.787   2.503  -0.129 -0.3451 -0.7766 -0.5682
  646MOL0     C85177  -0.854   2.470   0.006 -0.6431 -0.4950 -0.5506
  646MOL0     C85178  -0.941   2.583   0.075 -0.2029  0.6458  0.0268
  646MOL0     C85179  -1.062   2.620  -0.013  0.3430 -0.6008 -0.6503
  646MOL0     C85180  -1.159   2.716   0.056  0.7603 -0.2681  0.3997
  646MOL0     C85181  -1.258   2.775  -0.047 -0.0613  0.2903  0.0526
  646MOL0     C85182  -1.346   2.873   0.034 -0.3609  0.4356 -0.3286
  646MOL0     C85183  -1.447   2.930  -0.061  1.9162  0.1113  0.3759
  646MOL0    Cl85184  -1.557   3.047   0.020  0.2822  0.1899 -0.2138
  646MOL0     C85185  -0.501   2.439  -0.098  0.1051  0.2008 -0.3416
  646MOL0     C85186  -0.378   2.396  -0.055  0.2013  0.1971 -1.1481
  646MOL0     O85187  -0.144   2.206  -0.224 -0.6001 -0.6876  0.2455
  646MOL0     C85188   0.098   2.094  -0.133  0.6062  0.1331 -0.1714
  646MOL0     C85189   0.231   2.064  -0.085  0.0842  0.0419 -0.1373
  646MOL0     N85190   0.584   1.573   0.277 -0.4684  0.1774  0.3086
  646MOL0     N85191   0.653   1.492   0.353  0.1855  0.1537 -0.2143
  646MOL0     C85192   1.854   1.765   0.526 -0.2307  0.4368 -0.1769
  646MOL0     C85193   1.969   1.811   0.463 -0.0838 -0.3593  0.0838
  646MOL0     C85194   2.208   2.108   0.216 -0.3241  0.5566 -0.7207
  646MOL0     C85195   2.218   2.145   0.086 -0.2422  0.3862  0.3138
  646MOL0     C85196   2.336   2.203   0.040  0.3630 -0.3278 -0.2501
  646MOL0     C85197   2.443   2.218   0.130 -0.6874  0.3888  0.5923
  646MOL0     O85198   2.555   2.278   0.077  0.1571  0.2151 -0.7275
  646MOL0     C85199   2.674   2.199   0.100 -0.3946  0.0959  0.1450
  646MOL0     C85200   2.795   2.248   0.017 -0.7893 -0.7939 -0.2518
  646MOL0     C85201   2.816   2.184  -0.122 -0.4195 -1.4635  0.2495
  646MOL0     C85202   2.675   2.168  -0.198  0.8315  0.1907  0.7528
  646MOL0     C85203   2.710   2.141  -0.337  0.0379 -0.5860  0.7587
  646MOL0     C85204   2.751   2.126  -0.448 -0.5029 -0.0335  0.6463
  646MOL0     C85205   2.434   2.190   0.261  0.9537  0.2120 -1.2820
  646MOL0     C85206   2.317   2.128   0.306 -0.5146 -0.1464 -0.9924
  646MOL0     H85207   1.959   2.141   0.530 -3.2326  0.3788 -1.2322
  646MOL0     H85208   1.748   2.053   0.659  2.4651 -1.0873  2.2972
  646MOL0     H85209   1.529   1.737   0.772  0.2717  0.1769 -0.4564
  646MOL0     H85210   1.691   1.661   0.736 -0.5982 -0.9876  0.0430
  646MOL0     H85211   1.542   1.529   0.604  0.6610 -0.8244 -3.5364
  646MOL0     H85212   1.583   1.639   0.484  2.5857 -0.2969  1.3757
  646MOL0     H85213   1.381   1.762   0.514  3.3327  0.5030  1.6820
  646MOL0     H85214   1.340   1.659   0.647  2.4099 -1.2647  0.5868
  646MOL0     H85215   1.372   1.599   0.343  1.2351 -1.3532  0.8120
  646MOL0     H85216   1.363   1.466   0.459 -1.8877  0.2363  1.4198
  646MOL0     H85217   1.148   1.496   0.337 -2.1241  0.4982  1.4272
  646MOL0     H85218   1.135   1.666   0.397 -0.2472  1.5575  3.3344
  646MOL0     H85219   1.133   1.551   0.631  1.1651 -1.0624 -0.3816
  646MOL0     H85220   1.108   1.400   0.541 -2.4031 -0.0379  2.0406
  646MOL0     H85221   0.905   1.537   0.601 -1.2116 -1.8982 -0.8048
  646MOL0     H85222   0.953   1.643   0.467 -1.1560 -0.1479 -0.8796
  646MOL0     H85223   0.848   1.359   0.461  0.1752  0.4288 -0.7241
  646MOL0     H85224   0.955   1.411   0.329 -2.1349 -2.6319 -0.7731
  646MOL0     H85225   0.896   1.651   0.203 -2.1522  3.3008  0.4767
  646MOL0     H85226   0.521   1.747   0.106  0.0034 -0.6738  1.6042
  646MOL0     H85227   0.691   1.780   0.037  0.7114 -2.8992 -1.0750
  646MOL0     H85228   0.708   1.908   0.273 -1.7426  1.2995  3.1920
  646MOL0     H85229   0.536   1.912   0.272 -0.3094  1.0812  0.1793
  646MOL0     H85230   0.609   2.112   0.186 -1.0162  0.5623 -1.0543
  646MOL0     H85231   0.711   2.036   0.069  1.0873  2.4988  1.7787
  646MOL0     H85232   0.483   1.930  -0.024 -1.5432 -1.0889 -1.1743
  646MOL0     H85233   0.501   2.115  -0.041 -1.5209  1.0866  1.6677
  646MOL0     H85234   0.183   2.142   0.245  2.5179  0.0433  0.8184
  646MOL0     H85235  -0.046   2.203   0.158  2.1777 -0.5439  1.9912
  646MOL0     H85236  -0.429   2.060  -0.074  1.0419  0.3770  1.2815
  646MOL0     H85237  -0.633   2.137  -0.165 -2.8154  1.3771 -0.3621
  646MOL0     H85238  -0.871   2.523  -0.196  0.0854  0.8287 -0.6663
  646MOL0     H85239  -0.727   2.594  -0.123 -3.3379  1.2425  2.9454
  646MOL0     H85240  -0.769   2.443   0.071  1.2128 -2.1123 -3.4290
  646MOL0     H85241  -0.907   2.375  -0.001  0.4732 -1.2410  0.6230
  646MOL0     H85242  -0.875   2.668   0.095  0.2824  0.2317  0.2111
  646MOL0     H85243  -0.982   2.549   0.170 -0.9782  1.7847  0.1172
  646MOL0     H85244  -1.029   2.668  -0.105 -2.1594  0.5927 -1.0233
  646MOL0     H85245  -1.122   2.534  -0.044 -1.1988 -1.3530  3.6257
  646MOL0     H85246  -1.112   2.800   0.108 -0.3538 -0.0794  1.1273
  646MOL0     H85247  -1.209   2.659   0.135  3.7596 -1.5563  1.4944
  646MOL0     H85248  -1.305   2.690  -0.097 -1.9500 -0.7477  3.2885
  646MOL0     H85249  -1.201   2.831  -0.122 -0.8404  1.2640  0.1739
  646MOL0     H85250  -1.394   2.819   0.115 -0.1999 -0.7016 -0.9811
  646MOL0     H85251  -1.283   2.955   0.071  0.6174 -0.3364 -0.2199
  646MOL0     H85252  -1.500   2.848  -0.111  2.4656  0.6520 -1.1719
  646MOL0     H85253  -1.393   2.992  -0.133  0.4824  1.3692  0.3394
  646MOL0     H85254  -0.510   2.546  -0.115  0.9946  0.4894  0.9448
  646MOL0     H85255  -0.305   2.467  -0.017  1.5727 -2.0118  0.5354
  646MOL0     H85256   0.085   2.084  -0.240 -1.9754 -1.4190  0.2166
  646MOL0     H85257   0.304   2.033  -0.159 -0.6950  0.2632 -1.0169
  646MOL0     H85258   1.824   1.663   0.506  2.0267 -0.1724 -0.7355
  646MOL0     H85259   2.032   1.739   0.413  2.0379  0.1496  1.8675
  646MOL0     H85260   2.137   2.114   0.020  1.1051 -3.6478  0.2802
  646MOL0     H85261   2.352   2.219  -0.066 -0.1104  2.6343  0.0443
  646MOL0     H85262   2.650   2.095   0.074 -3.5207  0.9701 -0.9869
  646MOL0     H85263   2.706   2.203   0.204 -1.5027  2.5129  0.4555
  646MOL0     H85264   2.788   2.357   0.008  2.0792 -0.6436 -2.0429
  646MOL0     H85265   2.883   2.217   0.074 -2.0321 -0.7139  1.7993
  646MOL0     H85266   2.873   2.092  -0.114  1.7646 -0.1246  0.8018
  646MOL0     H85267   2.882   2.249  -0.180 -2.7004 -0.8979 -1.9084
  646MOL0     H85268   2.618   2.083  -0.158  2.2336 -0.3444  1.6934
  646MOL0     H85269   2.615   2.259  -0.194 -2.5740 -1.8742  0.3850
  646MOL0     H85270   2.786   2.112  -0.549 -1.6369 -2.1622  0.4609
  646MOL0     H85271   2.520   2.210   0.324  2.0477  0.5167 -2.8191
  646MOL0     H85272   2.317   2.111   0.413  1.9301  3.1167 -0.3065
  647MOL0     O85273   9.174   0.373   4.606 -0.9428  0.5662  0.4992
  647MOL0     C85274   9.134   0.270   4.542 -0.9452 -0.1747 -0.4669
  647MOL0     O85275   9.033   0.261   4.450  0.7042  0.1609 -0.2206
  647MOL0     C85276   8.957   0.377   4.434 -0.6221  0.3458 -0.2329
  647MOL0     C85277   8.922   0.468   4.537  0.3823  0.0289 -0.3391
  647MOL0     C85278   8.835   0.571   4.514  0.3922  0.3000  0.6208
  647MOL0     C85279   8.778   0.584   4.387  0.2713  0.8760 -0.0253
  647MOL0     O85280   8.674   0.679   4.378 -0.3110 -0.1444 -0.0562
  647MOL0     C85281   8.560   0.660   4.282  0.2515 -0.3864  0.5848
  647MOL0     C85282   8.476   0.551   4.341 -0.4669 -0.2799  1.0631
  647MOL0     C85283   8.335   0.531   4.283  0.0170 -0.4391 -0.4546
  647MOL0     C85284   8.238   0.629   4.338 -0.4505 -0.4659  0.2533
  647MOL0     C85285   8.092   0.632   4.288  0.0039 -0.2507 -0.0832
  647MOL0     C85286   8.081   0.684   4.141  0.0180 -0.5523  0.3625
  647MOL0     C85287   8.095   0.838   4.129 -0.2475  0.1700 -0.7462
  647MOL0     C85288   8.158   0.881   3.999 -0.3465  0.2470 -0.8417
  647MOL0     N85289   8.296   0.840   3.968  0.3022 -0.4675  0.3709
  647MOL0     C85290   8.403   0.923   3.977 -0.2554  1.1680  0.8591
  647MOL0     C85291   8.506   0.841   3.943 -0.6646 -0.2470  0.3975
  647MOL0     C85292   8.648   0.876   3.911 -0.4702  0.2747  0.4206
  647MOL0     C85293   8.712   0.994   3.989 -0.1513 -0.7209  0.1491
  647MOL0     C85294   8.730   0.940   4.138  0.1635  0.3833 -0.3281
  647MOL0     C85295   8.872   0.880   4.135  0.8191 -0.1617 -0.6962
  647MOL0     O85296   8.965   0.980   4.146  0.4356  0.1990 -0.3214
  647MOL0     C85297   9.094   0.953   4.136  0.0127  0.0339 -0.3917
  647MOL0     C85298   9.181   1.051   4.093 -0.3299 -0.0104 -1.6888
  647MOL0     C85299   9.320   1.018   4.085  0.3968  0.4421  0.3418
  647MOL0     C85300   9.366   0.891   4.106  0.7139 -0.7705  0.1856
  647MOL0     C85301   9.510   0.855   4.103 -0.0746 -0.5382  0.4760
  647MOL0     O85302   9.597   0.956   4.089  0.1405 -0.2491  0.1512
  647MOL0     C85303   9.727   0.935   4.128 -0.1283 -0.2237  0.5928
  647MOL0     C85304   9.771   0.963   4.259 -1.1016  0.0890 -0.9449
  647MOL0     C85305   9.903   0.929   4.291  0.2433  0.2092  0.3297
  647MOL0     C85306   9.993   0.882   4.197 -0.9980 -0.4605 -0.1040
  647MOL0     O85307  10.117   0.850   4.241 -0.7902 -0.4636  0.2642
  647MOL0     C85308  10.213   0.962   4.248  0.0896  0.4807 -0.1851
  647MOL0     C85309  10.234   1.016   4.107  0.3931  1.4093  0.3617
  647MOL0     C85310  10.337   1.124   4.109 -0.0950 -0.1362 -0.6628
  647MOL0     C85311  10.347   1.165   3.966 -0.4521 -0.4546 -0.0685
  647MOL0     C85312  10.450   1.287   3.955  1.4435  0.6539 -0.1555
  647MOL0     C85313  10.603   1.231   3.957  0.1137 -0.0363  0.1964
  647MOL0     C85314  10.716   1.333   3.956 -0.1041  0.7309 -0.6651
  647MOL0     C85315  10.852   1.262   3.973 -0.2417 -0.9703  0.5011
  647MOL0    Cl85316  10.899   1.146   3.848 -0.5968 -0.1751  0.0900
  647MOL0     C85317   9.953   0.858   4.068  0.3213  0.2144 -1.0610
  647MOL0     C85318   9.823   0.889   4.028  0.3724 -0.1997 -0.0165
  647MOL0     O85319   9.546   0.736   4.127 -0.2086 -0.3632  0.0296
  647MOL0     C85320   9.270   0.796   4.158  0.1178  0.0745 -0.6402
  647MOL0     C85321   9.136   0.830   4.181 -0.2156  0.5104 -0.6255
  647MOL0     N85322   8.460   0.716   3.908 -0.1748  0.1616  0.4481
  647MOL0     N85323   8.337   0.717   3.932  0.6135  0.2461 -0.1482
  647MOL0     C85324   8.804   0.488   4.288 -0.4261  0.3390 -0.3858
  647MOL0     C85325   8.902   0.394   4.310 -0.6237 -0.3734 -0.1209
  647MOL0     C85326   9.217   0.152   4.569 -0.5071  0.2293  0.8834
  647MOL0     C85327   9.227   0.049   4.464 -0.1583 -0.4295  0.1974
  647MOL0     C85328   9.295  -0.071   4.487 -0.6888  0.5786  0.3452
  647MOL0     C85329   9.382  -0.089   4.599  0.3669  0.3238  0.0879
  647MOL0     O85330   9.443  -0.209   4.622  0.5803 -0.5717  0.1432
  647MOL0     C85331   9.568  -0.220   4.690  0.2638  0.2776  0.2975
  647MOL0     C85332   9.652  -0.335   4.626 -0.2747 -0.8452  0.2024
  647MOL0     C85333   9.689  -0.320   4.478 -0.6004  0.7075  0.4639
  647MOL0     C85334   9.755  -0.446   4.431 -0.3885 -0.7451  0.4113
  647MOL0     C85335   9.681  -0.567   4.441 -0.1218 -0.0002  0.1684
  647MOL0     C85336   9.621  -0.668   4.458 -0.3212 -0.3659 -0.0130
  647MOL0     C85337   9.386   0.021   4.685  0.4286 -0.2542  0.2295
  647MOL0     C85338   9.306   0.136   4.672 -0.5897  0.3057  0.3408
  647MOL0     H85339   8.953   0.455   4.640 -4.2497 -1.2857  1.1132
  647MOL0     H85340   8.802   0.643   4.589 -0.2152  0.8733 -0.1784
  647MOL0     H85341   8.585   0.636   4.178 -2.7713 -0.4493 -0.2348
  647MOL0     H85342   8.506   0.755   4.289  0.1375 -0.5537  2.3188
  647MOL0     H85343   8.472   0.568   4.449  1.1369  1.2455  0.9313
  647MOL0     H85344   8.534   0.459   4.331  1.5507  0.9046  1.3880
  647MOL0     H85345   8.290   0.432   4.300 -2.2700  0.0285 -2.9980
  647MOL0     H85346   8.344   0.557   4.177  0.1842  0.1441 -0.2962
  647MOL0     H85347   8.233   0.603   4.444 -0.9413  3.3862  1.3142
  647MOL0     H85348   8.272   0.733   4.329 -1.6917  0.0162  0.9403
  647MOL0     H85349   8.041   0.698   4.360 -0.7707 -0.5300 -0.3745
  647MOL0     H85350   8.042   0.537   4.309  1.6401 -0.9713  0.7612
  647MOL0     H85351   7.975   0.662   4.121  0.2112  0.4158 -2.0114
  647MOL0     H85352   8.151   0.636   4.073  3.0467  2.1098  1.3594
  647MOL0     H85353   8.000   0.888   4.149  0.8385  3.5562 -2.9218
  647MOL0     H85354   8.163   0.875   4.206 -1.3894  2.2216 -0.6402
  647MOL0     H85355   8.162   0.990   3.997 -2.5178  0.4328  0.8281
  647MOL0     H85356   8.094   0.847   3.916 -0.2797  1.7070 -1.5102
  647MOL0     H85357   8.414   1.029   4.001 -5.1101  1.7221  1.6974
  647MOL0     H85358   8.647   0.903   3.805 -1.2554 -4.0331 -0.9029
  647MOL0     H85359   8.707   0.785   3.928 -1.3157 -0.1133  1.3962
  647MOL0     H85360   8.640   1.076   3.984 -2.7934 -2.9175 -0.2897
  647MOL0     H85361   8.806   1.022   3.941 -1.1973  2.6453 -0.1967
  647MOL0     H85362   8.718   1.018   4.215 -3.0090  0.9184 -1.2223
  647MOL0     H85363   8.654   0.864   4.157 -1.5028  1.9695 -0.3512
  647MOL0     H85364   8.884   0.816   4.047  0.2374  0.4421 -1.2361
  647MOL0     H85365   8.871   0.823   4.228  1.7805  0.0668 -0.5361
  647MOL0     H85366   9.158   1.156   4.078 -2.4082 -0.5648 -2.7021
  647MOL0     H85367   9.395   1.088   4.050  1.0692 -0.3019  0.2886
  647MOL0     H85368   9.696   1.007   4.324 -0.0884 -1.3099  1.3126
  647MOL0     H85369   9.949   0.950   4.387  1.3971  1.3814 -0.4438
  647MOL0     H85370  10.309   0.938   4.293  1.7309  2.2285 -2.5149
  647MOL0     H85371  10.178   1.046   4.309  2.3889  2.4194 -1.3553
  647MOL0     H85372  10.144   1.059   4.062 -0.8384 -2.1562 -0.9012
  647MOL0     H85373  10.254   0.928   4.045 -2.0170 -0.6288  2.2929
  647MOL0     H85374  10.428   1.091   4.161  0.7560  0.5160 -1.6926
  647MOL0     H85375  10.308   1.215   4.163  1.7550  1.4088 -2.1088
  647MOL0     H85376  10.382   1.085   3.901  2.1903  1.2814 -0.9741
  647MOL0     H85377  10.248   1.192   3.927 -0.6813 -0.1667  0.6881
  647MOL0     H85378  10.421   1.340   4.047 -1.2537 -0.2665 -0.3886
  647MOL0     H85379  10.419   1.348   3.869 -0.2342  0.4121  0.2273
  647MOL0     H85380  10.621   1.169   3.868 -3.4319  0.7230 -1.2114
  647MOL0     H85381  10.612   1.170   4.048 -4.0505  2.3619  2.4753
  647MOL0     H85382  10.716   1.392   3.863  0.1638 -3.1133 -3.3409
  647MOL0     H85383  10.705   1.399   4.043 -2.2812 -1.3114  0.7417
  647MOL0     H85384  10.845   1.200   4.063  0.8177  1.7109  2.5574
  647MOL0     H85385  10.931   1.337   3.985 -1.5690  0.5028  0.4335
  647MOL0     H85386  10.035   0.818   4.008  0.3246  1.8628 -2.2133
  647MOL0     H85387   9.788   0.854   3.931  1.2458 -2.2401  0.3603
  647MOL0     H85388   9.318   0.703   4.186  2.5248  1.7686  1.1891
  647MOL0     H85389   9.074   0.750   4.219  1.9521 -0.8991  0.1653
  647MOL0     H85390   8.767   0.491   4.187 -0.2262 -0.7552 -0.5004
  647MOL0     H85391   8.921   0.316   4.238  0.9044  1.2379 -1.5826
  647MOL0     H85392   9.162   0.056   4.377  1.0660  0.4162 -0.6835
  647MOL0     H85393   9.290  -0.151   4.415  0.0648  0.8203  0.0135
  647MOL0     H85394   9.549  -0.243   4.795 -1.3780 -2.3556 -0.4610
  647MOL0     H85395   9.628  -0.130   4.681 -1.2003  1.1411 -1.6469
  647MOL0     H85396   9.746  -0.327   4.681 -0.9498  2.4240  1.1070
  647MOL0     H85397   9.596  -0.428   4.638  1.0804 -2.3288 -3.4223
  647MOL0     H85398   9.762  -0.239   4.466  0.5395 -0.1672  1.2552
  647MOL0     H85399   9.596  -0.298   4.424 -0.5892 -1.9898 -0.7879
  647MOL0     H85400   9.786  -0.426   4.328 -0.4479 -0.6156  0.4183
  647MOL0     H85401   9.847  -0.455   4.489 -0.2224  0.3735  0.3509
  647MOL0     H85402   9.570  -0.762   4.466 -0.7413 -0.0751  0.7612
  647MOL0     H85403   9.442   0.022   4.778 -1.6022  0.9059  1.5234
  647MOL0     H85404   9.299   0.209   4.752 -1.5916  0.4099  0.1689
  648MOL0     O85405   9.188   0.884   5.711  0.2376  0.0161  0.3599
  648MOL0     C85406   9.250   0.948   5.793  0.1125  1.0037  0.3755
  648MOL0     O85407   9.215   1.060   5.855  0.4780 -0.4788  0.1492
  648MOL0     C85408   9.080   1.097   5.845 -1.2519 -0.5124  0.1081
  648MOL0     C85409   9.027   1.140   5.727 -0.0849  0.9220 -0.9007
  648MOL0     C85410   8.892   1.170   5.717  0.3205  0.9600 -0.8576
  648MOL0     C85411   8.812   1.169   5.829 -0.4272  0.7764  0.3335
  648MOL0     O85412   8.678   1.199   5.834 -0.6288  0.3202 -1.3282
  648MOL0     C85413   8.586   1.181   5.723 -1.3257  0.6583 -0.6405
  648MOL0     C85414   8.523   1.311   5.689  0.1808 -0.3124  0.1273
  648MOL0     C85415   8.411   1.330   5.792  0.0709  0.2047  0.5509
  648MOL0     C85416   8.316   1.443   5.736  0.4766 -0.0670 -0.3130
  648MOL0     C85417   8.195   1.473   5.823  0.2653 -0.1934 -0.0011
  648MOL0     C85418   8.119   1.589   5.782  0.4785  0.2520  0.0954
  648MOL0     C85419   8.059   1.585   5.642  0.7445  0.0341  0.2973
  648MOL0     C85420   7.926   1.668   5.635  0.6002 -0.5189 -0.0082
  648MOL0     N85421   7.816   1.607   5.714 -0.6871 -0.3327 -0.0008
  648MOL0     C85422   7.703   1.666   5.769 -0.4935 -0.2707 -0.6970
  648MOL0     C85423   7.619   1.563   5.805 -0.2312  0.7432  1.0942
  648MOL0     C85424   7.487   1.558   5.883 -0.2675 -0.7623 -0.3947
  648MOL0     C85425   7.365   1.555   5.791 -0.3141 -0.0005 -0.2181
  648MOL0     C85426   7.353   1.429   5.714  1.2415 -0.0150  0.0955
  648MOL0     C85427   7.212   1.413   5.650 -0.2744  0.7457  0.3427
  648MOL0     O85428   7.160   1.534   5.584  0.0381 -0.3894 -0.4987
  648MOL0     C85429   7.027   1.533   5.546 -0.0110 -0.6445  0.1563
  648MOL0     C85430   6.959   1.654   5.532  0.4491  0.2371 -0.4872
  648MOL0     C85431   6.820   1.656   5.524  0.6199 -0.4010  0.1623
  648MOL0     C85432   6.747   1.539   5.506  0.7373  0.2816  0.1841
  648MOL0     C85433   6.602   1.542   5.479  0.3035  0.5034 -0.5750
  648MOL0     O85434   6.535   1.429   5.501 -0.5574  0.4097 -0.4186
  648MOL0     C85435   6.400   1.423   5.479 -1.0611 -0.3475 -0.5202
  648MOL0     C85436   6.306   1.405   5.585 -0.3184  0.6143  0.1407
  648MOL0     C85437   6.168   1.428   5.580  0.2474 -1.1948 -0.4994
  648MOL0     C85438   6.111   1.471   5.462  0.4863  0.9004  0.3850
  648MOL0     O85439   5.977   1.484   5.461 -0.0127 -0.6463 -0.3666
  648MOL0     C85440   5.916   1.536   5.342 -1.2834 -0.3193  1.0691
  648MOL0     C85441   5.766   1.550   5.340  0.7488 -0.3718 -0.8033
  648MOL0     C85442   5.720   1.636   5.456  0.6663  0.1285  0.2239
  648MOL0     C85443   5.552   1.629   5.467 -0.0477 -0.7309 -0.3344
  648MOL0     C85444   5.498   1.730   5.573  0.5165  0.6308  0.7051
  648MOL0     C85445   5.342   1.725   5.580 -0.3594 -0.0677 -0.0588
  648MOL0     C85446   5.275   1.805   5.461  0.0442 -0.2821  0.1115
  648MOL0     C85447   5.123   1.831   5.480 -0.4902 -0.0949  0.1534
  648MOL0    Cl85448   5.035   1.670   5.509 -0.4283 -0.1163 -0.4661
  648MOL0     C85449   6.202   1.487   5.353  0.2759 -0.4197 -0.2954
  648MOL0     C85450   6.338   1.473   5.363 -0.4570  0.8986 -0.0979
  648MOL0     O85451   6.556   1.653   5.471  1.1458 -0.0649  0.3793
  648MOL0     C85452   6.812   1.414   5.527  0.1342  0.3500  0.1960
  648MOL0     C85453   6.949   1.411   5.543 -0.2335  0.2654  0.8380
  648MOL0     N85454   7.686   1.447   5.769 -0.2718 -0.6929 -0.1600
  648MOL0     N85455   7.803   1.474   5.719  0.1203 -0.1045 -0.1401
  648MOL0     C85456   8.872   1.135   5.956  1.3023 -0.3366 -1.1917
  648MOL0     C85457   9.009   1.106   5.961 -0.0950  0.1241 -0.6169
  648MOL0     C85458   9.376   0.879   5.851 -0.0524 -1.1063 -0.2064
  648MOL0     C85459   9.439   0.949   5.953 -0.3486 -0.0174 -0.1946
  648MOL0     C85460   9.569   0.913   5.985  0.2298  0.7150 -0.0315
  648MOL0     C85461   9.640   0.805   5.929 -0.1360 -0.3900  0.1272
  648MOL0     O85462   9.763   0.753   5.960 -0.3727  0.0063  0.3909
  648MOL0     C85463   9.823   0.789   6.087  0.6104  0.7123  0.3398
  648MOL0     C85464   9.974   0.746   6.077 -0.5801 -0.0425 -0.0715
  648MOL0     C85465  10.030   0.710   6.212 -0.2844  0.3965 -0.6347
  648MOL0     C85466  10.168   0.641   6.213 -0.0095  0.0344 -0.0031
  648MOL0     C85467  10.158   0.502   6.166 -0.2475  0.4072  0.5442
  648MOL0     C85468  10.157   0.386   6.132 -0.6695  1.1839  0.1636
  648MOL0     C85469   9.574   0.741   5.829  0.4207  0.8990 -0.6114
  648MOL0     C85470   9.445   0.771   5.786 -0.4455 -1.0249  0.6833
  648MOL0     H85471   9.090   1.138   5.639  1.3394 -3.7868 -0.0175
  648MOL0     H85472   8.849   1.207   5.624 -1.0962  2.4016  0.2960
  648MOL0     H85473   8.514   1.110   5.764  2.3332 -1.8468  2.2261
  648MOL0     H85474   8.631   1.131   5.637 -2.0153  0.7910 -1.0784
  648MOL0     H85475   8.474   1.310   5.591 -1.3662  3.1440  0.7304
  648MOL0     H85476   8.608   1.379   5.684  2.5856 -3.0126  1.4153
  648MOL0     H85477   8.448   1.339   5.895  3.6320  0.7953 -0.6338
  648MOL0     H85478   8.350   1.239   5.798 -0.3577  0.0557 -3.4630
  648MOL0     H85479   8.388   1.525   5.726  0.3820  0.4308  2.3805
  648MOL0     H85480   8.277   1.412   5.639 -0.3252  1.4479 -0.4913
  648MOL0     H85481   8.227   1.475   5.927  1.0606 -2.4284 -0.1568
  648MOL0     H85482   8.125   1.389   5.826  0.1041 -0.0173  2.4613
  648MOL0     H85483   8.180   1.679   5.790 -0.0852  0.7278 -0.7334
  648MOL0     H85484   8.041   1.596   5.859  1.1125  0.5683  0.7112
  648MOL0     H85485   8.135   1.624   5.574  1.8909 -0.4211  1.2784
  648MOL0     H85486   8.034   1.481   5.620  0.3026  0.0589  0.6460
  648MOL0     H85487   7.893   1.677   5.531  0.1781 -0.5933  0.1155
  648MOL0     H85488   7.935   1.770   5.673 -0.5501 -0.9862  1.6174
  648MOL0     H85489   7.690   1.773   5.777  1.4067 -0.0735  0.1475
  648MOL0     H85490   7.473   1.648   5.944  1.4051 -1.0976  0.5354
  648MOL0     H85491   7.492   1.468   5.945  1.1619 -0.6048 -0.2634
  648MOL0     H85492   7.368   1.642   5.725  0.0340  2.5243  2.9021
  648MOL0     H85493   7.274   1.563   5.850  1.3835 -4.4015  3.6392
  648MOL0     H85494   7.429   1.424   5.636  3.1466  0.4455  1.8451
  648MOL0     H85495   7.362   1.340   5.776 -2.2391  1.4391  3.0115
  648MOL0     H85496   7.137   1.382   5.724  0.0983 -1.1784 -0.0301
  648MOL0     H85497   7.217   1.331   5.578 -5.3871  0.5249 -0.1381
  648MOL0     H85498   7.022   1.742   5.539  0.2337  0.3844 -0.3954
  648MOL0     H85499   6.760   1.747   5.524  0.7633 -0.2956 -0.8746
  648MOL0     H85500   6.352   1.381   5.680 -0.0371 -0.9914 -0.3754
  648MOL0     H85501   6.101   1.418   5.665 -0.2193 -4.1479 -1.0983
  648MOL0     H85502   5.948   1.476   5.256 -3.8025 -0.7558  0.3601
  648MOL0     H85503   5.951   1.637   5.319 -1.9703 -0.3108 -0.0066
  648MOL0     H85504   5.735   1.447   5.363  1.0435 -0.1224  0.8514
  648MOL0     H85505   5.723   1.587   5.248 -1.4379 -2.3473 -0.6703
  648MOL0     H85506   5.748   1.740   5.441 -0.4639  0.9864  3.2394
  648MOL0     H85507   5.771   1.619   5.551  0.1749  2.1592  0.8927
  648MOL0     H85508   5.505   1.648   5.370  1.0391 -0.3761 -0.8069
  648MOL0     H85509   5.527   1.530   5.506  2.1919 -0.5994  1.6386
  648MOL0     H85510   5.532   1.832   5.548  2.1655 -0.0196  0.1075
  648MOL0     H85511   5.543   1.708   5.670  2.8596 -2.6475 -0.9014
  648MOL0     H85512   5.307   1.764   5.677 -0.3056 -2.2603  0.8859
  648MOL0     H85513   5.311   1.621   5.586  2.2548 -0.8527  1.1247
  648MOL0     H85514   5.315   1.906   5.451  0.0499 -0.3545 -0.6776
  648MOL0     H85515   5.300   1.747   5.371  0.4633  1.6826 -1.0918
  648MOL0     H85516   5.084   1.890   5.397  1.7611  1.1939 -0.0753
  648MOL0     H85517   5.107   1.894   5.567  3.2380  1.3160  0.0315
  648MOL0     H85518   6.174   1.517   5.253  0.2532 -2.0129 -0.7891
  648MOL0     H85519   6.396   1.496   5.274 -2.6917  0.9318 -1.6411
  648MOL0     H85520   6.757   1.321   5.518  0.5712  0.1826 -1.0539
  648MOL0     H85521   6.983   1.308   5.553  0.1552  0.2924 -0.0421
  648MOL0     H85522   8.805   1.123   6.041  1.8468  0.8954 -0.5644
  648MOL0     H85523   9.062   1.076   6.051 -2.5517 -1.0415  0.5467
  648MOL0     H85524   9.398   1.035   6.005  0.3222  0.3830 -0.3087
  648MOL0     H85525   9.619   0.973   6.060 -0.8379  0.3015  1.0606
  648MOL0     H85526   9.766   0.730   6.159 -3.5328  2.2482 -1.3644
  648MOL0     H85527   9.817   0.897   6.103 -0.3721  1.3609 -3.3376
  648MOL0     H85528   9.968   0.654   6.019  1.2132  0.2446 -0.7860
  648MOL0     H85529  10.034   0.818   6.020  2.0018 -0.8155  1.4562
  648MOL0     H85530   9.954   0.657   6.270 -1.3199  1.1565 -1.2754
  648MOL0     H85531  10.040   0.807   6.262 -1.0050  1.2151 -2.0321
  648MOL0     H85532  10.241   0.695   6.152 -0.3742  2.5633  1.6540
  648MOL0     H85533  10.220   0.625   6.308  1.2951  1.2454 -0.4702
  648MOL0     H85534  10.158   0.281   6.110 -0.2065  1.3573 -0.6728
  648MOL0     H85535   9.629   0.659   5.784 -2.1551 -0.2487 -1.8839
  648MOL0     H85536   9.395   0.720   5.705 -2.4651  0.0689  1.1728
  649MOL0     O85537   1.657  10.849   3.190  0.4715  1.1310  0.2247
  649MOL0     C85538   1.676  10.928   3.278  1.0386 -0.4068  0.4235
  649MOL0     O85539   1.776  11.026   3.290  0.0164  0.0320 -0.3446
  649MOL0     C85540   1.891  10.994   3.221  0.6380  0.6948  0.1461
  649MOL0     C85541   1.896  10.990   3.078  0.2189  0.4000 -0.3321
  649MOL0     C85542   2.021  10.988   3.010 -0.6181 -0.0917 -0.1473
  649MOL0     C85543   2.137  10.972   3.084 -0.2618 -0.7508  0.2730
  649MOL0     O85544   2.258  10.974   3.023 -0.2419  0.1467 -0.0962
  649MOL0     C85545   2.348  10.872   3.057 -0.3461 -0.0308  0.4126
  649MOL0     C85546   2.480  10.892   2.980 -1.1096 -0.9345 -0.3312
  649MOL0     C85547   2.583  10.786   3.003  0.4576  1.3213  0.5288
  649MOL0     C85548   2.560  10.663   2.902 -0.3094  0.4752 -0.1910
  649MOL0     C85549   2.660  10.568   2.955 -0.7213 -0.6940 -0.0859
  649MOL0     C85550   2.682  10.436   2.885 -0.2083 -0.7913 -0.2643
  649MOL0     C85551   2.547  10.376   2.845 -0.0236  0.8972  0.6894
  649MOL0     C85552   2.576  10.246   2.765  1.6462  0.4101  0.6338
  649MOL0     N85553   2.449  10.173   2.745 -0.2267  0.1122  0.3632
  649MOL0     C85554   2.384  10.159   2.624 -0.2410 -0.1477 -0.5357
  649MOL0     C85555   2.272  10.083   2.644 -1.1594  0.7839  0.1178
  649MOL0     C85556   2.171  10.051   2.545  0.0863 -0.4297 -0.8105
  649MOL0     C85557   2.028  10.058   2.598 -0.5475  0.0456 -0.2955
  649MOL0     C85558   1.990  10.182   2.678 -0.1943  1.0462  0.7907
  649MOL0     C85559   1.856  10.163   2.745  0.5933 -0.0026  0.4970
  649MOL0     O85560   1.743  10.169   2.657 -0.2764 -0.2035  0.3623
  649MOL0     C85561   1.619  10.126   2.695  0.2559 -0.1685  0.3378
  649MOL0     C85562   1.584  10.114   2.829 -0.0905 -0.5102  0.7204
  649MOL0     C85563   1.442  10.103   2.863 -0.8698  0.5393 -0.2984
  649MOL0     C85564   1.344  10.118   2.766 -0.8935 -0.0100  0.0128
  649MOL0     C85565   1.204  10.132   2.812  0.9578 -0.1335 -0.1536
  649MOL0     O85566   1.184  10.149   2.941  0.0315  0.0408  0.6916
  649MOL0     C85567   1.057  10.143   2.990 -0.5908  0.0970 -0.2602
  649MOL0     C85568   0.991  10.262   3.022 -0.8551  0.5037 -0.4008
  649MOL0     C85569   0.870  10.249   3.082  0.2178  0.2214 -0.6767
  649MOL0     C85570   0.802  10.131   3.112 -0.1802 -0.3384 -0.9445
  649MOL0     O85571   0.688  10.123   3.189 -0.4225 -0.1055  0.5890
  649MOL0     C85572   0.664  10.003   3.266 -0.2603 -0.5661 -0.3321
  649MOL0     C85573   0.559  10.048   3.362  0.3755 -0.1064  0.2836
  649MOL0     C85574   0.441  10.124   3.301  0.3715  0.0255  0.5308
  649MOL0     C85575   0.342  10.166   3.419  0.6897 -0.1276  0.5005
  649MOL0     C85576   0.215  10.246   3.374  0.3744  0.1584 -0.2486
  649MOL0     C85577   0.247  10.384   3.336  0.4960  0.4794 -0.0237
  649MOL0     C85578   0.126  10.470   3.290 -0.0521 -0.0368  0.0398
  649MOL0     C85579   0.142  10.621   3.296 -0.5897 -0.1031 -0.0745
  649MOL0    Cl85580   0.191  10.676   3.462 -0.4308 -0.1421 -0.6810
  649MOL0     C85581   0.870  10.016   3.080 -0.6380 -0.3609  0.1670
  649MOL0     C85582   0.998  10.019   3.016 -0.1378  0.2346 -0.4389
  649MOL0     O85583   1.121  10.125   2.723  0.2612  0.5536  0.6785
  649MOL0     C85584   1.385  10.129   2.632  0.3297  0.4337 -0.3612
  649MOL0     C85585   1.516  10.126   2.589 -0.1141 -0.1685 -0.6840
  649MOL0     N85586   2.276  10.048   2.775 -0.0367 -0.2744 -0.4226
  649MOL0     N85587   2.383  10.098   2.832  0.7571  0.2742 -0.6363
  649MOL0     C85588   2.131  10.965   3.224  0.3135  0.4862 -0.5382
  649MOL0     C85589   2.006  10.981   3.295 -1.1385 -0.0930  0.3633
  649MOL0     C85590   1.583  10.917   3.400  0.0934  0.3238  0.1385
  649MOL0     C85591   1.489  10.815   3.401 -0.4253 -0.0654 -1.1158
  649MOL0     C85592   1.384  10.822   3.500 -0.1765  0.0151  0.0776
  649MOL0     C85593   1.379  10.920   3.593 -0.8278 -0.3027  0.1853
  649MOL0     O85594   1.291  10.919   3.695  0.3077  0.1538  0.1779
  649MOL0     C85595   1.161  10.968   3.663 -0.0905 -0.5747  0.2272
  649MOL0     C85596   1.158  11.112   3.716 -0.0351  0.6797  0.1171
  649MOL0     C85597   1.019  11.156   3.772  0.1181  0.5385  0.9821
  649MOL0     C85598   1.016  11.311   3.824 -0.4466  0.7442 -0.4615
  649MOL0     C85599   1.061  11.414   3.729  0.5978 -0.4335 -0.5374
  649MOL0     C85600   1.088  11.491   3.636  0.7735  0.9775 -0.0705
  649MOL0     C85601   1.486  11.000   3.602 -0.7693 -0.3078  1.3174
  649MOL0     C85602   1.593  11.009   3.501 -0.5940  0.5436 -0.3750
  649MOL0     H85603   1.798  11.002   3.031  0.6559 -0.0582 -1.3762
  649MOL0     H85604   2.022  10.996   2.902 -3.6584 -0.0898 -0.2674
  649MOL0     H85605   2.308  10.772   3.040 -2.0616  0.5248  1.0212
  649MOL0     H85606   2.391  10.875   3.158  0.3188  1.7221  0.1234
  649MOL0     H85607   2.519  10.985   3.023  0.0758 -0.8872 -1.4551
  649MOL0     H85608   2.453  10.906   2.875  0.5248 -0.5785 -0.7294
  649MOL0     H85609   2.575  10.753   3.108 -1.1579 -1.9492 -0.4693
  649MOL0     H85610   2.681  10.834   3.003  1.1369 -0.0105  0.2730
  649MOL0     H85611   2.456  10.629   2.911 -0.9055  1.9597 -1.0132
  649MOL0     H85612   2.574  10.688   2.797  0.3085 -0.1355 -0.2577
  649MOL0     H85613   2.652  10.545   3.062  1.4248  3.0077  1.0496
  649MOL0     H85614   2.762  10.607   2.954 -0.1892 -2.0180  0.1180
  649MOL0     H85615   2.752  10.377   2.945 -0.0831  0.4577  0.8627
  649MOL0     H85616   2.737  10.462   2.794  0.4220 -0.2087  0.2741
  649MOL0     H85617   2.485  10.334   2.925 -0.5431  1.6054  0.6671
  649MOL0     H85618   2.490  10.448   2.785  1.0975 -0.6148 -2.3943
  649MOL0     H85619   2.640  10.172   2.814  1.9952 -0.6425 -1.2988
  649MOL0     H85620   2.618  10.270   2.666  0.1580 -1.2287 -0.4629
  649MOL0     H85621   2.405  10.216   2.535 -1.1330  1.0882  0.0142
  649MOL0     H85622   2.204   9.956   2.501 -0.3586 -1.2233  0.4936
  649MOL0     H85623   2.183  10.134   2.475 -1.0264  3.1044  2.7941
  649MOL0     H85624   1.994   9.964   2.644  1.8613 -2.3021 -2.8645
  649MOL0     H85625   1.969  10.068   2.507 -2.4572 -1.1316  0.7506
  649MOL0     H85626   2.064  10.203   2.756  0.5165 -1.6618  0.9432
  649MOL0     H85627   1.991  10.272   2.615 -0.6665  1.7103  1.6952
  649MOL0     H85628   1.854  10.250   2.811 -2.6826  1.1464 -0.9370
  649MOL0     H85629   1.852  10.081   2.818 -2.3631  0.8977  1.4561
  649MOL0     H85630   1.657  10.125   2.909  0.3895 -0.5023  0.2843
  649MOL0     H85631   1.411  10.088   2.966 -1.2669 -1.7170 -0.6953
  649MOL0     H85632   1.037  10.359   3.004 -1.6066  0.7035 -1.3485
  649MOL0     H85633   0.820  10.340   3.112 -0.5077 -0.0340 -1.0611
  649MOL0     H85634   0.757   9.964   3.309  1.8078  0.0855 -3.7464
  649MOL0     H85635   0.627   9.925   3.199 -1.8363  1.6279 -2.1555
  649MOL0     H85636   0.594  10.118   3.439 -1.1644 -0.3695  1.2739
  649MOL0     H85637   0.523   9.963   3.420  0.5495 -0.4416 -0.0983
  649MOL0     H85638   0.398  10.067   3.219  3.5596 -0.0678 -1.2665
  649MOL0     H85639   0.482  10.218   3.262 -2.3020  1.1390  0.1753
  649MOL0     H85640   0.308  10.071   3.461  2.4536 -1.1358 -0.2115
  649MOL0     H85641   0.403  10.234   3.480  2.7123  0.8475 -2.3865
  649MOL0     H85642   0.144  10.244   3.457  0.8975 -2.8796  0.2290
  649MOL0     H85643   0.164  10.198   3.290 -2.4302  0.4316  1.1823
  649MOL0     H85644   0.315  10.389   3.251  0.2545  3.0393 -0.1429
  649MOL0     H85645   0.291  10.431   3.424  3.1340  3.1185 -2.5328
  649MOL0     H85646   0.088  10.428   3.196  0.0414  0.8720 -0.4094
  649MOL0     H85647   0.044  10.470   3.363  0.1749 -1.1470  0.3205
  649MOL0     H85648   0.055  10.675   3.257  0.1006 -0.5001 -2.3487
  649MOL0     H85649   0.223  10.660   3.233 -0.8499  0.4609 -0.0738
  649MOL0     H85650   0.830   9.915   3.085  3.2864 -2.1326 -0.8557
  649MOL0     H85651   1.053   9.928   2.993 -1.0655  0.4004 -3.7565
  649MOL0     H85652   1.301  10.130   2.563 -1.6615  1.6537  1.9396
  649MOL0     H85653   1.534  10.147   2.484  0.7177  0.7245 -0.3875
  649MOL0     H85654   2.222  10.953   3.282 -0.2466  0.0628  0.2774
  649MOL0     H85655   1.994  10.970   3.403 -2.5020 -1.7334  0.0860
  649MOL0     H85656   1.488  10.731   3.333 -2.8500 -0.4470 -0.6992
  649MOL0     H85657   1.311  10.742   3.498 -0.2983  0.1255  0.1003
  649MOL0     H85658   1.094  10.914   3.730 -0.3672  1.2020  1.4414
  649MOL0     H85659   1.133  10.962   3.557 -0.8631 -0.5256  0.4298
  649MOL0     H85660   1.238  11.131   3.789  1.7943  1.3397 -1.9637
  649MOL0     H85661   1.178  11.179   3.632 -0.1686 -1.0910 -1.3693
  649MOL0     H85662   1.005  11.089   3.857 -0.3131  0.0410  0.5282
  649MOL0     H85663   0.929  11.147   3.710  1.6709  0.5129 -1.3914
  649MOL0     H85664   0.927  11.336   3.881 -1.7405  1.3513 -2.6448
  649MOL0     H85665   1.096  11.316   3.898  0.0009  1.6516 -0.9848
  649MOL0     H85666   1.097  11.566   3.561 -4.4248  1.7990 -0.2114
  649MOL0     H85667   1.489  11.083   3.672  6.0848 -1.5065  3.1429
  649MOL0     H85668   1.667  11.088   3.499  0.0014 -0.0029 -0.2763
  650MOL0     O85669  10.806   5.267   3.531 -0.0924  0.2632 -0.0867
  650MOL0     C85670  10.831   5.183   3.614 -0.4162 -0.4196 -1.0651
  650MOL0     O85671  10.740   5.124   3.692  0.2854 -0.2138 -0.5730
  650MOL0     C85672  10.616   5.179   3.721  0.0216 -0.4562 -0.7095
  650MOL0     C85673  10.530   5.084   3.777  0.6245  0.0736  0.7332
  650MOL0     C85674  10.413   5.126   3.839  0.4298 -0.0504  0.8944
  650MOL0     C85675  10.365   5.258   3.841 -0.6438 -0.3623  0.0585
  650MOL0     O85676  10.247   5.296   3.896  0.7987  1.3670  0.0819
  650MOL0     C85677  10.175   5.413   3.861  0.1083  0.0893 -1.4425
  650MOL0     C85678  10.047   5.384   3.946 -0.0518 -0.1354 -0.1764
  650MOL0     C85679   9.922   5.457   3.909  0.3459  0.1119 -1.0381
  650MOL0     C85680   9.823   5.460   4.019  0.1228 -0.0842 -0.0897
  650MOL0     C85681   9.691   5.519   3.969 -0.2870  0.0651  0.2195
  650MOL0     C85682   9.609   5.429   3.877 -0.0336  0.2415 -0.0647
  650MOL0     C85683   9.503   5.519   3.803  0.0477 -0.0151  0.1997
  650MOL0     C85684   9.401   5.434   3.741  0.3544  0.0548 -0.0560
  650MOL0     N85685   9.304   5.506   3.665  0.4217 -0.7954  0.4234
  650MOL0     C85686   9.216   5.587   3.733  0.4466  0.3337  0.1189
  650MOL0     C85687   9.137   5.635   3.633 -0.0684 -0.0783  1.2589
  650MOL0     C85688   9.021   5.731   3.639 -0.0347 -0.4273  0.0424
  650MOL0     C85689   8.899   5.686   3.570 -0.2513  0.1245 -0.0126
  650MOL0     C85690   8.861   5.549   3.633  0.2958 -0.3827 -0.0873
  650MOL0     C85691   8.741   5.500   3.566 -0.6999  0.8425  0.0656
  650MOL0     O85692   8.622   5.529   3.632  0.2816  0.2375  0.0232
  650MOL0     C85693   8.546   5.630   3.584  0.2324 -0.0458  0.8850
  650MOL0     C85694   8.582   5.715   3.473  1.1299 -1.3127  0.1580
  650MOL0     C85695   8.496   5.818   3.423  0.6614 -0.3553  0.9162
  650MOL0     C85696   8.362   5.840   3.479  0.9530 -1.3705 -0.3489
  650MOL0     C85697   8.269   5.941   3.428  0.9421 -0.5067  0.5298
  650MOL0     O85698   8.313   6.015   3.322  0.2390 -0.3729 -0.5990
  650MOL0     C85699   8.213   6.062   3.246 -0.0683 -0.5409  0.7309
  650MOL0     C85700   8.193   5.997   3.128 -0.1448 -0.3397  0.6230
  650MOL0     C85701   8.114   6.064   3.025  0.1916  0.8903  1.1180
  650MOL0     C85702   8.054   6.186   3.056 -0.0772 -0.8700  0.3697
  650MOL0     O85703   7.999   6.264   2.957  0.6388  0.0272 -0.2636
  650MOL0     C85704   7.994   6.210   2.825  0.5133  0.3866 -0.6022
  650MOL0     C85705   7.928   6.325   2.742  0.5033  0.1143 -0.4353
  650MOL0     C85706   8.001   6.461   2.738  0.2640 -0.5693  0.3949
  650MOL0     C85707   8.132   6.456   2.665  0.9288  0.1978 -0.0739
  650MOL0     C85708   8.187   6.592   2.619 -0.0652 -0.2701  0.6152
  650MOL0     C85709   8.220   6.679   2.744  1.4464  0.4658 -0.8361
  650MOL0     C85710   8.282   6.814   2.706  0.0338  0.5811 -0.5188
  650MOL0     C85711   8.331   6.885   2.841  0.3725 -0.5022 -0.8656
  650MOL0    Cl85712   8.200   6.921   2.966  0.3443 -0.2684 -0.0468
  650MOL0     C85713   8.073   6.244   3.182 -0.5063  0.0697 -0.7882
  650MOL0     C85714   8.148   6.178   3.276  0.0163  0.7832  0.7372
  650MOL0     O85715   8.154   5.945   3.475  0.1727  0.4272  0.2885
  650MOL0     C85716   8.336   5.767   3.593 -0.1850  0.6362 -0.6402
  650MOL0     C85717   8.424   5.660   3.640 -0.6862 -0.1969 -0.1188
  650MOL0     N85718   9.164   5.578   3.509  0.0636  0.1625  0.6352
  650MOL0     N85719   9.275   5.506   3.528 -0.0894  0.4802 -0.2760
  650MOL0     C85720  10.449   5.356   3.777 -1.2462 -0.2027  0.1735
  650MOL0     C85721  10.576   5.314   3.724  0.0498  0.6807  0.3678
  650MOL0     C85722  10.971   5.139   3.635  0.5027  0.7255  0.5662
  650MOL0     C85723  11.070   5.192   3.550 -0.0613  0.3771 -0.0658
  650MOL0     C85724  11.201   5.160   3.569 -0.0251 -0.0890  0.4107
  650MOL0     C85725  11.242   5.081   3.668 -0.0428  0.5780  0.0269
  650MOL0     O85726  11.373   5.055   3.670  0.3696  0.0635 -0.3877
  650MOL0     C85727  11.436   4.976   3.777 -0.4893 -0.3204 -0.2933
  650MOL0     C85728  11.576   4.958   3.752 -0.4413 -0.4667 -0.5331
  650MOL0     C85729  11.657   5.075   3.803 -0.6969  0.0957 -0.4452
  650MOL0     C85730  11.800   5.039   3.771 -0.0890 -0.5697 -1.0316
  650MOL0     C85731  11.897   5.126   3.830  1.0754  0.4672  0.6272
  650MOL0     C85732  11.976   5.211   3.876  0.8197 -0.1053  0.1597
  650MOL0     C85733  11.145   5.027   3.750  0.6122  0.3379  0.6618
  650MOL0     C85734  11.009   5.056   3.733  0.3656  0.3090 -0.1395
  650MOL0     H85735  10.552   4.978   3.767 -0.1848 -0.3527  2.8581
  650MOL0     H85736  10.344   5.058   3.887 -0.4373 -0.4329 -0.8377
  650MOL0     H85737  10.145   5.410   3.756  0.5726 -3.0214 -1.5678
  650MOL0     H85738  10.232   5.501   3.892 -1.9615  1.3302 -1.0012
  650MOL0     H85739  10.070   5.414   4.049 -1.0221 -3.9607  1.3016
  650MOL0     H85740  10.023   5.278   3.950 -1.4632  0.0887 -1.7272
  650MOL0     H85741   9.860   5.420   3.827  0.5468  1.2118 -1.7181
  650MOL0     H85742   9.936   5.562   3.879  0.2466  1.4277  2.9688
  650MOL0     H85743   9.807   5.355   4.047 -2.4590 -0.4979 -2.7129
  650MOL0     H85744   9.862   5.520   4.102 -2.6404  3.0598 -0.8439
  650MOL0     H85745   9.717   5.609   3.913  2.7742 -1.0503 -0.3823
  650MOL0     H85746   9.622   5.547   4.048 -1.3599 -1.6898 -0.0525
  650MOL0     H85747   9.556   5.360   3.943  1.4967  1.4028  2.4927
  650MOL0     H85748   9.672   5.375   3.805  2.0754  0.9848  1.1325
  650MOL0     H85749   9.459   5.580   3.883  1.2295 -1.2063  1.8427
  650MOL0     H85750   9.541   5.596   3.736 -4.2501  1.9503 -0.3252
  650MOL0     H85751   9.350   5.372   3.815 -1.6683  1.4919 -0.1686
  650MOL0     H85752   9.449   5.363   3.673  0.5323  0.0675  0.0560
  650MOL0     H85753   9.218   5.616   3.838  1.1494 -0.1416  0.2429
  650MOL0     H85754   9.039   5.831   3.599 -0.6485  0.0120  0.8281
  650MOL0     H85755   8.991   5.736   3.744 -2.7203 -2.3484 -0.5188
  650MOL0     H85756   8.911   5.684   3.461 -0.8101  1.6629 -0.1267
  650MOL0     H85757   8.821   5.762   3.582 -1.0300 -0.9782  2.5673
  650MOL0     H85758   8.937   5.474   3.609 -0.0445 -0.3023 -1.5640
  650MOL0     H85759   8.854   5.547   3.742 -1.7164 -0.1609 -0.1704
  650MOL0     H85760   8.755   5.391   3.566  5.0347  1.1759  2.8146
  650MOL0     H85761   8.759   5.524   3.461  1.3085  1.8278  0.5861
  650MOL0     H85762   8.671   5.698   3.413  0.4642 -2.2268 -0.6090
  650MOL0     H85763   8.531   5.875   3.337 -0.0422 -0.1971  0.7326
  650MOL0     H85764   8.246   5.905   3.104 -0.0731 -0.1068 -0.1347
  650MOL0     H85765   8.106   6.012   2.930  0.8013 -0.5289  1.8066
  650MOL0     H85766   7.932   6.120   2.824 -1.4791  1.6692  0.7464
  650MOL0     H85767   8.094   6.189   2.785  1.1564  0.8693  0.6749
  650MOL0     H85768   7.832   6.343   2.792  0.7880  0.5375 -0.0293
  650MOL0     H85769   7.902   6.299   2.639 -2.1800  0.2552  0.1246
  650MOL0     H85770   8.010   6.501   2.840 -3.3672 -0.1895  0.7041
  650MOL0     H85771   7.932   6.529   2.686 -2.5031 -3.3692  0.0834
  650MOL0     H85772   8.220   6.410   2.712  2.9115 -0.0862 -3.7258
  650MOL0     H85773   8.101   6.402   2.575 -1.0834  1.1256 -0.0076
  650MOL0     H85774   8.118   6.653   2.559 -0.8198  0.4332  2.1488
  650MOL0     H85775   8.278   6.587   2.559  0.0411 -1.2274  0.8406
  650MOL0     H85776   8.284   6.626   2.816  0.8593  0.4529 -0.3168
  650MOL0     H85777   8.130   6.694   2.805  0.8813 -2.8389 -0.6760
  650MOL0     H85778   8.366   6.798   2.639  1.8344 -1.3737  2.0404
  650MOL0     H85779   8.211   6.874   2.648 -1.4655 -0.4556  0.1707
  650MOL0     H85780   8.379   6.978   2.810 -2.0550  1.1552  0.0078
  650MOL0     H85781   8.410   6.824   2.885  0.1255 -1.4970 -1.7594
  650MOL0     H85782   8.030   6.342   3.198 -1.2064 -0.1582 -1.2468
  650MOL0     H85783   8.178   6.223   3.370  1.4322  0.5931  0.3991
  650MOL0     H85784   8.240   5.778   3.642 -0.1009  1.0345 -0.5571
  650MOL0     H85785   8.378   5.596   3.714  1.1748 -1.1074  0.2984
  650MOL0     H85786  10.421   5.461   3.772 -1.0543 -0.1970 -1.5941
  650MOL0     H85787  10.638   5.392   3.681 -0.1408 -0.1621 -1.5208
  650MOL0     H85788  11.036   5.265   3.477  1.1155  1.8982  0.8569
  650MOL0     H85789  11.279   5.192   3.501 -0.3566 -1.9655 -0.9442
  650MOL0     H85790  11.390   4.877   3.784  0.5814 -0.9650 -1.9543
  650MOL0     H85791  11.434   5.039   3.867 -3.4464  1.5695 -1.5238
  650MOL0     H85792  11.595   4.872   3.817 -2.4005  0.4980  1.4412
  650MOL0     H85793  11.606   4.925   3.653  2.3049  0.5508 -0.1253
  650MOL0     H85794  11.642   5.090   3.910 -2.2930  1.4727 -0.8147
  650MOL0     H85795  11.615   5.164   3.755  1.6960  1.1230 -0.7309
  650MOL0     H85796  11.818   4.937   3.808  1.2546  0.1791  0.5243
  650MOL0     H85797  11.818   5.047   3.663 -0.4972 -2.7391 -1.3127
  650MOL0     H85798  12.037   5.282   3.927  0.1711 -0.5035  1.5186
  650MOL0     H85799  11.171   4.965   3.835 -1.5376 -2.6851 -0.7151
  650MOL0     H85800  10.940   4.996   3.792  2.2153 -2.8384 -0.9671
  651MOL0     O85801   0.352  10.087   1.239 -0.2959  0.1312 -0.0433
  651MOL0     C85802   0.378   9.981   1.297  0.4014 -0.3122 -0.3802
  651MOL0     O85803   0.295   9.922   1.392 -0.5465 -0.2050 -0.1162
  651MOL0     C85804   0.160   9.954   1.413 -0.7912  0.4962 -0.0013
  651MOL0     C85805   0.113   9.969   1.544 -0.3854  0.8258  0.4933
  651MOL0     C85806  -0.021  10.013   1.561 -0.8230 -0.2466  0.0952
  651MOL0     C85807  -0.113   9.995   1.460 -0.9408 -0.0879 -0.3531
  651MOL0     O85808  -0.248  10.020   1.467  0.5996 -0.0110 -0.3979
  651MOL0     C85809  -0.312  10.010   1.599  0.6175  0.6872  0.1403
  651MOL0     C85810  -0.466  10.001   1.580 -0.7509  0.9457 -0.0430
  651MOL0     C85811  -0.495   9.855   1.537 -0.9767  0.5628  0.5912
  651MOL0     C85812  -0.646   9.842   1.511  0.2188 -0.6134  0.4623
  651MOL0     C85813  -0.666   9.754   1.387 -0.1084  0.3728 -0.1817
  651MOL0     C85814  -0.814   9.762   1.349  0.4010  0.5781 -0.1596
  651MOL0     C85815  -0.857   9.680   1.229  0.2639  0.0981  0.6646
  651MOL0     C85816  -0.888   9.538   1.267  0.1684  0.0687  0.1095
  651MOL0     N85817  -0.926   9.448   1.166 -0.5293 -0.0933  0.2148
  651MOL0     C85818  -0.834   9.382   1.090 -0.1026  0.5961 -0.4489
  651MOL0     C85819  -0.907   9.302   1.013  0.8402  0.1580  0.2661
  651MOL0     C85820  -0.859   9.184   0.920 -0.4719 -1.1038 -0.1547
  651MOL0     C85821  -0.907   9.179   0.777  0.4035  0.0299 -0.0685
  651MOL0     C85822  -0.879   9.056   0.687 -0.3109 -0.5415 -0.2489
  651MOL0     C85823  -0.909   8.924   0.758  0.9519 -0.2390  0.0882
  651MOL0     O85824  -0.914   8.816   0.664 -0.4007 -0.3236 -0.6860
  651MOL0     C85825  -1.007   8.717   0.688 -0.7114  0.5954 -0.4010
  651MOL0     C85826  -1.062   8.683   0.808 -0.7712  0.4326 -1.2060
  651MOL0     C85827  -1.152   8.567   0.809 -1.1748 -0.5111 -0.5052
  651MOL0     C85828  -1.189   8.496   0.695 -0.2307 -0.0972 -0.1432
  651MOL0     C85829  -1.303   8.397   0.702  0.3763  0.5615  0.1118
  651MOL0     O85830  -1.349   8.347   0.580 -0.1979  0.9456  0.2055
  651MOL0     C85831  -1.458   8.258   0.573  0.2215 -0.3818  0.0745
  651MOL0     C85832  -1.450   8.126   0.527 -0.2809  0.1429  0.4567
  651MOL0     C85833  -1.560   8.034   0.543 -0.5822 -0.5561 -0.0301
  651MOL0     C85834  -1.676   8.072   0.600 -0.4829  0.0206  1.0829
  651MOL0     O85835  -1.774   7.975   0.591 -0.0597  1.1672 -0.4238
  651MOL0     C85836  -1.883   7.987   0.687  0.0937  0.1365 -0.0643
  651MOL0     C85837  -1.868   7.911   0.821  0.4838 -0.0017  0.9126
  651MOL0     C85838  -1.843   7.760   0.787 -0.0968  0.9623  0.3556
  651MOL0     C85839  -1.783   7.697   0.915 -0.3293  0.8678  0.0309
  651MOL0     C85840  -1.768   7.540   0.918  0.5242  0.2811 -0.5028
  651MOL0     C85841  -1.669   7.498   0.816  0.6420  0.0653  0.0086
  651MOL0     C85842  -1.664   7.343   0.819 -0.8777 -0.0464 -0.2638
  651MOL0     C85843  -1.536   7.306   0.755 -0.3323  0.8596 -0.0348
  651MOL0    Cl85844  -1.527   7.371   0.595 -0.3327 -0.5000 -0.0097
  651MOL0     C85845  -1.689   8.207   0.644  0.9968 -0.2314  0.5452
  651MOL0     C85846  -1.582   8.300   0.625 -0.4868  0.7653  0.1227
  651MOL0     O85847  -1.351   8.363   0.814 -0.5825  0.1618  0.1980
  651MOL0     C85848  -1.122   8.535   0.571  0.1977  0.2997  0.8790
  651MOL0     C85849  -1.048   8.648   0.571  0.9809 -0.6995 -0.7305
  651MOL0     N85850  -1.045   9.324   1.033 -0.0388  0.3890  1.1559
  651MOL0     N85851  -1.048   9.413   1.120 -0.1254  0.0201  0.2177
  651MOL0     C85852  -0.066   9.964   1.333 -0.1123  0.7503  0.2337
  651MOL0     C85853   0.070   9.960   1.309  0.1577 -0.7043  0.3120
  651MOL0     C85854   0.512   9.910   1.273  1.2858  0.1521  0.3003
  651MOL0     C85855   0.524   9.777   1.310  0.1166 -0.6638  0.6520
  651MOL0     C85856   0.651   9.714   1.297  0.2823 -0.6365  0.5557
  651MOL0     C85857   0.759   9.780   1.251 -0.0552  0.6525  0.9432
  651MOL0     O85858   0.877   9.712   1.231 -0.8834  0.5121 -0.0048
  651MOL0     C85859   0.883   9.565   1.220  0.0808 -0.7102 -0.3809
  651MOL0     C85860   0.989   9.526   1.112  0.4431  0.3469 -0.0145
  651MOL0     C85861   1.125   9.553   1.180 -0.1594 -0.5196 -0.7187
  651MOL0     C85862   1.249   9.588   1.102 -0.3935  0.2103  0.3484
  651MOL0     C85863   1.332   9.667   1.194  0.6994 -0.4900  0.0097
  651MOL0     C85864   1.408   9.716   1.276  0.1249 -0.2199 -0.7913
  651MOL0     C85865   0.746   9.914   1.211  0.5594  0.6321  0.5126
  651MOL0     C85866   0.621   9.975   1.224 -0.3496 -0.6849  0.8952
  651MOL0     H85867   0.189   9.979   1.622  1.0329  1.2549 -0.8876
  651MOL0     H85868  -0.055  10.016   1.664 -1.1309 -1.9898  0.0702
  651MOL0     H85869  -0.277  10.093   1.662  1.0101  0.4201  0.2844
  651MOL0     H85870  -0.291   9.918   1.655 -0.8785 -1.1746 -2.1591
  651MOL0     H85871  -0.495  10.072   1.502  2.6093  3.4364  0.7205
  651MOL0     H85872  -0.502  10.025   1.680 -0.0060  1.9000  0.0187
  651MOL0     H85873  -0.458   9.783   1.611  2.1913  0.8842 -0.5432
  651MOL0     H85874  -0.442   9.823   1.447 -0.7371 -2.4946  1.6850
  651MOL0     H85875  -0.702   9.801   1.595  0.6318 -0.5608  0.7679
  651MOL0     H85876  -0.688   9.939   1.485  0.7204 -0.2934  0.8204
  651MOL0     H85877  -0.641   9.653   1.420 -2.9568 -0.3993 -0.1886
  651MOL0     H85878  -0.600   9.788   1.306  3.7964  2.6951  3.5608
  651MOL0     H85879  -0.849   9.865   1.336 -2.7521 -0.1309  1.7257
  651MOL0     H85880  -0.870   9.718   1.432  0.2763  0.7917 -0.1313
  651MOL0     H85881  -0.947   9.725   1.186  0.9050 -1.1556 -2.2013
  651MOL0     H85882  -0.778   9.698   1.156  0.9777 -1.2372  1.0625
  651MOL0     H85883  -0.981   9.542   1.324 -0.3545  0.1701 -0.7365
  651MOL0     H85884  -0.805   9.494   1.322  3.2116  1.2242 -3.2060
  651MOL0     H85885  -0.725   9.377   1.097 -0.1408  1.5517  3.8375
  651MOL0     H85886  -0.884   9.091   0.971 -0.4925 -1.6619 -1.1612
  651MOL0     H85887  -0.751   9.190   0.907 -0.6299 -1.9179 -2.2612
  651MOL0     H85888  -0.863   9.270   0.735 -1.4885  1.1085  0.1888
  651MOL0     H85889  -1.013   9.204   0.783  0.4508  0.0243  1.1574
  651MOL0     H85890  -0.954   9.073   0.609 -0.8989  2.9156  0.8952
  651MOL0     H85891  -0.783   9.059   0.635 -0.6831 -2.2196 -1.0910
  651MOL0     H85892  -1.007   8.943   0.802  1.1100  2.0166 -0.4223
  651MOL0     H85893  -0.839   8.909   0.841  2.1092  1.4606 -0.5450
  651MOL0     H85894  -1.056   8.742   0.898 -0.2738 -0.0245 -0.9344
  651MOL0     H85895  -1.199   8.546   0.904  1.4081  2.0463  1.5260
  651MOL0     H85896  -1.357   8.084   0.491 -1.6315 -1.2819 -1.5870
  651MOL0     H85897  -1.541   7.932   0.513 -2.7506 -0.6075 -1.4327
  651MOL0     H85898  -1.965   7.938   0.634 -0.6193  1.7139 -0.4952
  651MOL0     H85899  -1.923   8.087   0.706  0.1672 -0.0013  0.8595
  651MOL0     H85900  -1.963   7.925   0.873 -0.9413 -4.7229 -0.0236
  651MOL0     H85901  -1.775   7.951   0.865  0.4799  0.0039  0.9131
  651MOL0     H85902  -1.761   7.754   0.715 -0.1492 -2.5875  0.4070
  651MOL0     H85903  -1.922   7.705   0.733  0.5549  1.4568 -1.1575
  651MOL0     H85904  -1.685   7.744   0.930  0.9137 -1.5366 -0.1744
  651MOL0     H85905  -1.840   7.723   1.004  1.1969 -0.1897  1.3628
  651MOL0     H85906  -1.861   7.486   0.899  0.3661 -0.3807  1.8288
  651MOL0     H85907  -1.743   7.515   1.022 -1.0668  1.8128  0.3073
  651MOL0     H85908  -1.575   7.548   0.841  1.1993 -0.8090 -0.2967
  651MOL0     H85909  -1.702   7.531   0.717  0.6803 -0.1062 -0.0614
  651MOL0     H85910  -1.668   7.306   0.922  0.9506  2.8114  0.9594
  651MOL0     H85911  -1.755   7.308   0.770 -1.3541  0.4333  0.2556
  651MOL0     H85912  -1.544   7.197   0.752  2.1293  0.6085  0.4964
  651MOL0     H85913  -1.449   7.329   0.818  0.1875 -0.9008 -0.0581
  651MOL0     H85914  -1.782   8.239   0.689 -0.7175 -0.6657 -2.3882
  651MOL0     H85915  -1.592   8.396   0.674 -1.5260  0.2316  1.0126
  651MOL0     H85916  -1.141   8.482   0.479 -0.3597  2.3507 -0.2458
  651MOL0     H85917  -0.996   8.677   0.480  1.0643  0.6620 -0.2795
  651MOL0     H85918  -0.138   9.968   1.252 -0.7266  1.9203  0.8027
  651MOL0     H85919   0.100   9.943   1.206 -1.1494  0.6627 -0.3414
  651MOL0     H85920   0.435   9.719   1.331 -0.8704  0.4421 -0.3016
  651MOL0     H85921   0.643   9.608   1.318 -3.9427 -0.7854 -0.7046
  651MOL0     H85922   0.801   9.514   1.169  3.4117 -2.6690 -4.3710
  651MOL0     H85923   0.913   9.520   1.315  1.3384  0.4801 -0.1713
  651MOL0     H85924   0.985   9.418   1.093  1.5647 -0.0135  1.5403
  651MOL0     H85925   0.963   9.575   1.018  1.7889 -0.4180 -0.8167
  651MOL0     H85926   1.140   9.468   1.247 -0.8268 -0.3697 -0.3695
  651MOL0     H85927   1.110   9.635   1.252 -1.9871 -1.0104 -0.4988
  651MOL0     H85928   1.302   9.499   1.066 -0.2313  0.9366 -1.2810
  651MOL0     H85929   1.220   9.652   1.018 -2.4090 -3.0600 -1.7266
  651MOL0     H85930   1.474   9.741   1.356 -0.7105  3.4980 -1.0814
  651MOL0     H85931   0.833   9.972   1.180  2.1099 -2.3573 -1.2054
  651MOL0     H85932   0.619  10.080   1.195 -2.2965 -0.4251  1.7687
  652MOL0     O85933   0.620  10.952   8.786  0.4796 -0.9102 -0.0364
  652MOL0     C85934   0.563  10.869   8.855 -0.7023 -0.0488  0.5453
  652MOL0     O85935   0.507  10.751   8.805  0.4256  0.2719 -0.7144
  652MOL0     C85936   0.538  10.704   8.682 -0.5943  0.5715  0.0536
  652MOL0     C85937   0.669  10.655   8.660 -0.2340  0.1948  0.8321
  652MOL0     C85938   0.690  10.594   8.526 -0.4588  0.3070  0.0546
  652MOL0     C85939   0.588  10.593   8.427 -0.9301  0.5748  0.1754
  652MOL0     O85940   0.635  10.556   8.302 -0.3726  0.0305 -0.3282
  652MOL0     C85941   0.532  10.485   8.236 -0.3997 -0.7573  0.1546
  652MOL0     C85942   0.587  10.409   8.119  0.4064 -0.3712 -0.5180
  652MOL0     C85943   0.492  10.302   8.060  0.3031  0.2402 -0.6556
  652MOL0     C85944   0.567  10.195   7.986 -0.7822  0.0064  0.7598
  652MOL0     C85945   0.489  10.082   7.920 -0.7850 -0.0150 -0.7121
  652MOL0     C85946   0.478   9.958   8.023 -0.4258 -0.5776  0.4442
  652MOL0     C85947   0.396   9.845   7.953  0.8897  0.1383 -0.2258
  652MOL0     C85948   0.363   9.718   8.040 -0.2403 -0.1027 -0.4756
  652MOL0     N85949   0.266   9.627   7.978 -0.7819  0.4540  0.0838
  652MOL0     C85950   0.278   9.573   7.847  0.3555 -0.2271 -0.2586
  652MOL0     C85951   0.148   9.536   7.817  0.1442  0.1996 -0.9002
  652MOL0     C85952   0.098   9.455   7.699 -0.0256  0.2257 -0.6748
  652MOL0     C85953   0.151   9.499   7.563  0.0679  0.7654  0.5492
  652MOL0     C85954   0.086   9.446   7.426 -0.6144 -0.0332  0.4920
  652MOL0     C85955  -0.063   9.491   7.421 -0.4681  0.2722 -0.3432
  652MOL0     O85956  -0.090   9.518   7.280 -0.3913 -0.6995 -0.0688
  652MOL0     C85957  -0.144   9.416   7.204 -0.2926  0.1743 -0.7949
  652MOL0     C85958  -0.190   9.457   7.075 -0.6523  0.8214  0.1271
  652MOL0     C85959  -0.240   9.355   6.985  0.5293 -0.4359  0.3672
  652MOL0     C85960  -0.251   9.214   7.031  0.9272 -0.3781 -0.1182
  652MOL0     C85961  -0.309   9.108   6.952  0.0625 -0.2211  0.0574
  652MOL0     O85962  -0.317   8.984   7.004  0.8538  0.4618 -0.6531
  652MOL0     C85963  -0.331   8.879   6.923 -0.4857  0.4413 -0.5623
  652MOL0     C85964  -0.458   8.824   6.900  0.0152  0.0451 -0.2122
  652MOL0     C85965  -0.482   8.714   6.821  0.0226 -0.3494 -0.3895
  652MOL0     C85966  -0.370   8.646   6.768  0.9221 -0.0464 -0.0928
  652MOL0     O85967  -0.412   8.547   6.675  0.1645 -0.4802 -0.5944
  652MOL0     C85968  -0.327   8.429   6.673 -0.5063  0.3217 -0.5496
  652MOL0     C85969  -0.383   8.336   6.568 -0.1587 -0.4924  0.4520
  652MOL0     C85970  -0.513   8.276   6.599 -0.1716 -0.7475  0.1985
  652MOL0     C85971  -0.538   8.157   6.512 -0.0350  0.1439  0.8779
  652MOL0     C85972  -0.668   8.080   6.555 -0.2834  0.5597  0.0504
  652MOL0     C85973  -0.683   7.964   6.461 -0.3094 -0.5426  0.2605
  652MOL0     C85974  -0.775   7.850   6.510  0.4399  0.0517 -0.1201
  652MOL0     C85975  -0.760   7.731   6.416 -1.3701  1.0518  0.8443
  652MOL0    Cl85976  -0.595   7.665   6.411  0.4079 -0.2245  0.0943
  652MOL0     C85977  -0.238   8.698   6.786  0.7619  0.7572 -0.6210
  652MOL0     C85978  -0.220   8.818   6.858 -0.5211 -0.1701 -0.5516
  652MOL0     O85979  -0.351   9.141   6.841 -0.2291 -0.3943  0.0775
  652MOL0     C85980  -0.208   9.180   7.161 -0.2911 -0.3780 -0.2898
  652MOL0     C85981  -0.158   9.279   7.249  0.5336  0.3638  0.5302
  652MOL0     N85982   0.065   9.559   7.924  0.9974  0.3712 -0.0343
  652MOL0     N85983   0.137   9.616   8.021  0.1150 -0.2487  0.4385
  652MOL0     C85984   0.459  10.642   8.465  0.2460 -0.1016 -0.1308
  652MOL0     C85985   0.430  10.687   8.595 -0.5176  0.5785 -0.0347
  652MOL0     C85986   0.562  10.895   8.994  0.1569  0.6384  0.3986
  652MOL0     C85987   0.630  11.005   9.055  0.4712  0.8994 -0.0332
  652MOL0     C85988   0.616  11.040   9.191  0.0397 -0.3155 -0.1223
  652MOL0     C85989   0.534  10.960   9.273 -0.1776 -0.3472  0.0777
  652MOL0     O85990   0.510  10.966   9.410 -0.0018  0.7247 -0.5718
  652MOL0     C85991   0.562  11.065   9.491 -1.1018 -0.5780  0.2140
  652MOL0     C85992   0.485  11.193   9.492  1.2237  0.2822 -0.6617
  652MOL0     C85993   0.354  11.178   9.570  0.0521 -0.3193 -0.2669
  652MOL0     C85994   0.240  11.130   9.486  0.9216 -0.3982 -0.7022
  652MOL0     C85995   0.112  11.189   9.520  0.1792 -0.9004 -0.1967
  652MOL0     C85996   0.012  11.263   9.537  0.6181  0.4364 -1.0101
  652MOL0     C85997   0.473  10.846   9.205  0.3967  0.0356  0.5384
  652MOL0     C85998   0.478  10.814   9.069 -0.5013  0.4916 -0.2023
  652MOL0     H85999   0.737  10.657   8.744  0.4761  5.0529  0.4497
  652MOL0     H86000   0.788  10.559   8.496 -0.5339  1.1863 -1.2902
  652MOL0     H86001   0.474  10.567   8.192  1.4170 -1.0042 -3.0029
  652MOL0     H86002   0.472  10.424   8.304 -0.1264 -3.4169 -1.8379
  652MOL0     H86003   0.678  10.362   8.158 -0.4114 -0.6489  1.1445
  652MOL0     H86004   0.613  10.483   8.042 -2.0581  1.5776  0.4066
  652MOL0     H86005   0.414  10.350   8.000 -2.4571 -0.4069  2.1215
  652MOL0     H86006   0.447  10.256   8.149 -0.9849  0.5321 -1.1265
  652MOL0     H86007   0.616  10.253   7.906  0.5095 -0.5939  1.0987
  652MOL0     H86008   0.663  10.160   8.025 -1.5280  0.3267  2.9795
  652MOL0     H86009   0.546  10.056   7.830  0.2897 -0.3018  0.0371
  652MOL0     H86010   0.391  10.121   7.891 -0.0766  1.9442 -0.6446
  652MOL0     H86011   0.433  10.007   8.110 -0.4307 -2.5498  1.5890
  652MOL0     H86012   0.574   9.931   8.069 -1.3659 -1.1357  2.1589
  652MOL0     H86013   0.307   9.890   7.909  0.1474 -0.3218  0.7506
  652MOL0     H86014   0.452   9.805   7.868 -0.2665  0.9553 -1.4089
  652MOL0     H86015   0.314   9.758   8.129 -0.7964  2.5879 -1.8955
  652MOL0     H86016   0.459   9.675   8.071 -0.5079  0.8102  1.7859
  652MOL0     H86017   0.364   9.573   7.780  1.4575 -0.7525  1.1013
  652MOL0     H86018  -0.009   9.478   7.698 -0.4203 -1.4825 -0.8538
  652MOL0     H86019   0.117   9.349   7.720 -2.9360 -0.2033  0.3130
  652MOL0     H86020   0.254   9.462   7.556 -0.4786 -1.0298  1.4428
  652MOL0     H86021   0.129   9.606   7.557  0.0113  0.7845  1.0993
  652MOL0     H86022   0.145   9.498   7.349  2.5176 -0.4116  2.4375
  652MOL0     H86023   0.091   9.338   7.408  0.3982  0.0756  0.0143
  652MOL0     H86024  -0.076   9.581   7.481  1.3321  0.1357  0.3210
  652MOL0     H86025  -0.117   9.408   7.468  0.9309 -0.1924  0.5264
  652MOL0     H86026  -0.191   9.565   7.062  0.8193  0.9051  0.5975
  652MOL0     H86027  -0.283   9.384   6.890 -1.7202  2.8701  2.1609
  652MOL0     H86028  -0.546   8.872   6.941 -0.9489 -1.2743 -0.6416
  652MOL0     H86029  -0.581   8.674   6.802  0.2609 -0.9623 -0.3698
  652MOL0     H86030  -0.333   8.382   6.772  1.2600  1.6156  0.2367
  652MOL0     H86031  -0.221   8.453   6.664 -0.0900 -0.5962  1.3317
  652MOL0     H86032  -0.311   8.255   6.572  1.2538  0.7193  0.3622
  652MOL0     H86033  -0.380   8.381   6.468 -1.5540  0.3519  0.7666
  652MOL0     H86034  -0.590   8.349   6.574  0.8338  0.1836 -0.2101
  652MOL0     H86035  -0.521   8.246   6.704  1.4560  0.5922  0.7382
  652MOL0     H86036  -0.550   8.182   6.406 -1.3700 -0.2195  0.9254
  652MOL0     H86037  -0.450   8.095   6.528 -1.0774 -1.2086  1.5291
  652MOL0     H86038  -0.754   8.148   6.563 -0.3615  0.3852  0.7540
  652MOL0     H86039  -0.652   8.029   6.651  0.0306 -0.5800 -0.5914
  652MOL0     H86040  -0.586   7.918   6.439 -1.6753 -2.9206 -1.3118
  652MOL0     H86041  -0.724   7.999   6.366  0.4292 -2.1573 -0.7059
  652MOL0     H86042  -0.755   7.818   6.613 -1.0156  1.5186  0.6554
  652MOL0     H86043  -0.878   7.886   6.515  1.0772  2.4382 -2.1438
  652MOL0     H86044  -0.796   7.747   6.314 -0.7134 -0.9689  0.2437
  652MOL0     H86045  -0.826   7.648   6.443 -2.4167  1.4594 -0.3418
  652MOL0     H86046  -0.152   8.644   6.748 -1.2346 -1.7846 -1.8314
  652MOL0     H86047  -0.118   8.847   6.880  0.3939 -3.1329 -0.4507
  652MOL0     H86048  -0.210   9.078   7.199 -0.2394 -0.0775  0.5453
  652MOL0     H86049  -0.119   9.241   7.343  0.8621  0.1669  0.3184
  652MOL0     H86050   0.378  10.658   8.396  1.6234  0.9164 -1.5815
  652MOL0     H86051   0.328  10.714   8.620 -0.5669  1.2343 -0.8704
  652MOL0     H86052   0.695  11.053   8.983 -1.4614 -1.3992 -3.5810
  652MOL0     H86053   0.673  11.127   9.220 -0.4205  0.0326 -0.2518
  652MOL0     H86054   0.664  11.093   9.466 -0.9790 -0.5145  0.7711
  652MOL0     H86055   0.558  11.029   9.595 -5.1560  1.7028  1.0702
  652MOL0     H86056   0.549  11.256   9.555 -0.4419 -0.9290  2.4811
  652MOL0     H86057   0.477  11.235   9.391 -0.6068  0.1126 -0.6090
  652MOL0     H86058   0.329  11.275   9.616  1.1832 -0.0540 -0.1663
  652MOL0     H86059   0.362  11.111   9.656 -1.4277 -1.4004 -0.9348
  652MOL0     H86060   0.270  11.147   9.382  3.2666 -0.9975 -0.1984
  652MOL0     H86061   0.221  11.022   9.494  0.3622 -0.4706 -2.5918
  652MOL0     H86062  -0.083  11.309   9.557  0.6721  0.8214 -1.6166
  652MOL0     H86063   0.417  10.776   9.266  2.0003 -0.7494  1.1465
  652MOL0     H86064   0.414  10.732   9.038 -1.0865  0.9042 -0.1085
  653MOL0     O86065   9.435   5.879   1.445 -0.0655  0.7605 -0.1347
  653MOL0     C86066   9.458   5.994   1.429  0.4475 -0.8426  0.3606
  653MOL0     O86067   9.366   6.087   1.371 -0.0388  0.2452 -0.3453
  653MOL0     C86068   9.246   6.038   1.319 -1.4058 -0.5378 -0.2195
  653MOL0     C86069   9.231   5.917   1.241 -0.0546 -0.1871  0.3921
  653MOL0     C86070   9.096   5.884   1.196  0.0124 -0.0417 -0.7152
  653MOL0     C86071   8.988   5.969   1.221 -0.5054  0.4753 -0.5402
  653MOL0     O86072   8.861   5.935   1.179 -0.3772 -0.2744 -0.4710
  653MOL0     C86073   8.754   6.000   1.239  0.6929  0.2753 -0.0569
  653MOL0     C86074   8.624   5.930   1.207  0.5771 -0.1663 -0.0327
  653MOL0     C86075   8.548   5.871   1.329  0.3606  0.2094 -1.1295
  653MOL0     C86076   8.494   5.971   1.434 -1.1850  0.2946  0.5439
  653MOL0     C86077   8.384   5.907   1.526 -1.1712  0.4920  0.0865
  653MOL0     C86078   8.427   5.777   1.581 -0.3022 -0.3517 -0.3244
  653MOL0     C86079   8.405   5.747   1.728 -0.2911 -0.2454  0.5814
  653MOL0     C86080   8.270   5.685   1.754  0.0570  0.3435 -0.1992
  653MOL0     N86081   8.247   5.704   1.899  0.3427  0.4877  0.4083
  653MOL0     C86082   8.283   5.629   2.004  0.1884  1.1253 -0.3474
  653MOL0     C86083   8.236   5.687   2.122  0.0119  0.9885  0.0226
  653MOL0     C86084   8.263   5.642   2.260 -0.5396  0.2011  0.6633
  653MOL0     C86085   8.159   5.537   2.311  1.2961 -0.1894 -0.2762
  653MOL0     C86086   8.018   5.596   2.336 -0.5852  0.0989  0.6043
  653MOL0     C86087   7.922   5.487   2.383 -0.2668 -0.1656 -0.3768
  653MOL0     O86088   7.795   5.547   2.381  0.1204 -0.4458  0.2225
  653MOL0     C86089   7.686   5.460   2.397 -0.7838  0.3448  0.7218
  653MOL0     C86090   7.687   5.367   2.500 -0.4989 -0.4129 -0.8389
  653MOL0     C86091   7.587   5.269   2.509  0.6262 -0.0646 -0.2332
  653MOL0     C86092   7.484   5.269   2.416  0.5779  0.0361 -0.8863
  653MOL0     C86093   7.368   5.174   2.438  0.4603 -0.9023  0.8210
  653MOL0     O86094   7.320   5.157   2.565  0.6290  0.6446  0.1461
  653MOL0     C86095   7.204   5.077   2.583 -0.0194 -0.8201  0.6767
  653MOL0     C86096   7.084   5.085   2.505 -0.4945 -0.3214 -0.8276
  653MOL0     C86097   6.999   4.981   2.525 -0.3143 -0.5272  0.4752
  653MOL0     C86098   7.012   4.869   2.611 -0.1167 -0.1333  0.5840
  653MOL0     O86099   6.924   4.762   2.624 -0.5778  0.5040  0.5545
  653MOL0     C86100   6.812   4.748   2.544  0.2399 -1.4167 -0.4989
  653MOL0     C86101   6.752   4.611   2.558  1.0341 -0.1474 -0.7118
  653MOL0     C86102   6.819   4.515   2.460  0.3667  0.4564  0.3647
  653MOL0     C86103   6.766   4.372   2.451  0.4065 -0.1172  0.2140
  653MOL0     C86104   6.783   4.295   2.327 -0.2794  0.0526  0.4155
  653MOL0     C86105   6.912   4.219   2.318 -0.7256  0.3292  0.1521
  653MOL0     C86106   6.916   4.132   2.194  0.5699 -0.6913 -0.9788
  653MOL0     C86107   7.051   4.072   2.182  0.2461 -0.1646  0.4230
  653MOL0    Cl86108   7.072   3.939   2.304 -0.2418 -0.0318  0.4792
  653MOL0     C86109   7.128   4.867   2.687 -0.2875  0.6923  0.5826
  653MOL0     C86110   7.224   4.971   2.676 -0.0542  0.3561  0.1489
  653MOL0     O86111   7.306   5.137   2.335 -0.3814 -0.1018 -0.4179
  653MOL0     C86112   7.486   5.355   2.305 -0.2427  0.2580  0.5384
  653MOL0     C86113   7.591   5.453   2.296  0.9653  0.8529 -0.3627
  653MOL0     N86114   8.162   5.792   2.090 -0.8095  0.0658  0.2951
  653MOL0     N86115   8.175   5.808   1.961  0.1841  0.7843 -0.0083
  653MOL0     C86116   9.008   6.088   1.289  0.4942 -0.0819 -0.2674
  653MOL0     C86117   9.136   6.119   1.339  0.4480 -0.0882 -0.1959
  653MOL0     C86118   9.594   6.057   1.449 -0.3221  0.2358 -0.6882
  653MOL0     C86119   9.595   6.196   1.465 -0.4204  0.3014  0.0381
  653MOL0     C86120   9.718   6.264   1.469 -0.2747 -0.7478 -0.5293
  653MOL0     C86121   9.840   6.198   1.448 -0.5443  0.2286 -0.1738
  653MOL0     O86122   9.950   6.280   1.440  0.1705 -0.0747  0.0192
  653MOL0     C86123  10.078   6.219   1.443  0.6323  0.6350 -0.2982
  653MOL0     C86124  10.177   6.324   1.388 -0.4577  0.9447 -0.1693
  653MOL0     C86125  10.234   6.426   1.475 -0.5631 -0.5042  0.2484
  653MOL0     C86126  10.326   6.522   1.406  0.0714 -0.8759  0.7910
  653MOL0     C86127  10.361   6.637   1.493 -0.0142 -0.4945  0.2724
  653MOL0     C86128  10.378   6.733   1.569 -0.7990  0.6047 -0.1360
  653MOL0     C86129   9.840   6.059   1.438  0.5803  0.5166  0.9541
  653MOL0     C86130   9.711   5.990   1.432 -0.9553 -0.4534 -0.6133
  653MOL0     H86131   9.314   5.849   1.228  1.7817  2.0238 -0.0237
  653MOL0     H86132   9.084   5.789   1.144 -0.9310 -2.3158  3.2589
  653MOL0     H86133   8.746   6.105   1.209  3.2476  0.6586  0.4320
  653MOL0     H86134   8.773   6.003   1.347  0.8286  2.5012 -0.0798
  653MOL0     H86135   8.639   5.849   1.135 -3.5493 -1.1150 -0.1174
  653MOL0     H86136   8.557   5.989   1.144  1.7760  1.7394  0.3706
  653MOL0     H86137   8.611   5.797   1.380  0.8398  0.7720 -0.8964
  653MOL0     H86138   8.459   5.821   1.289  0.5063 -0.4740 -0.6119
  653MOL0     H86139   8.577   6.017   1.488  0.8399  1.8704 -3.4788
  653MOL0     H86140   8.461   6.059   1.378 -0.7106  0.1326 -0.0114
  653MOL0     H86141   8.285   5.902   1.477 -0.9713 -2.2856 -0.1675
  653MOL0     H86142   8.359   5.976   1.607  0.2233  0.1433  0.8366
  653MOL0     H86143   8.535   5.788   1.575  0.0148 -3.3851 -2.4304
  653MOL0     H86144   8.396   5.690   1.523  0.8908 -0.0415 -1.4655
  653MOL0     H86145   8.485   5.678   1.757  1.2134  0.6229 -1.2539
  653MOL0     H86146   8.424   5.841   1.779  0.7396  0.0717 -0.3464
  653MOL0     H86147   8.261   5.580   1.724 -1.4565  0.7564 -1.2594
  653MOL0     H86148   8.201   5.742   1.692  1.6710  0.0784 -2.3560
  653MOL0     H86149   8.334   5.533   2.009 -0.5378  0.6715 -1.3057
  653MOL0     H86150   8.271   5.726   2.331 -1.8829  0.9733 -0.0673
  653MOL0     H86151   8.365   5.604   2.246 -0.2389  2.3351 -5.6741
  653MOL0     H86152   8.193   5.497   2.406  1.7224 -1.1009 -0.7978
  653MOL0     H86153   8.145   5.457   2.237 -5.3242  1.6171 -1.7279
  653MOL0     H86154   8.016   5.669   2.417  2.7870  0.4630  0.5263
  653MOL0     H86155   7.981   5.635   2.241  2.3426  2.2651  0.2036
  653MOL0     H86156   7.952   5.455   2.483 -1.1225  2.1508  0.6815
  653MOL0     H86157   7.924   5.402   2.315  0.9902 -2.1054  1.9320
  653MOL0     H86158   7.761   5.383   2.578 -1.0834 -2.5781  0.2450
  653MOL0     H86159   7.580   5.222   2.607  0.2876 -1.2583 -0.8142
  653MOL0     H86160   7.078   5.152   2.420  0.3323 -0.8827 -1.3376
  653MOL0     H86161   6.922   4.957   2.452  0.4330 -0.5967 -0.3037
  653MOL0     H86162   6.833   4.770   2.438  2.2161 -1.8079 -0.2229
  653MOL0     H86163   6.739   4.824   2.573  1.4233 -0.6023  0.4465
  653MOL0     H86164   6.645   4.619   2.537  1.1615  2.4692 -0.6091
  653MOL0     H86165   6.755   4.576   2.661  2.1020  1.7997 -0.0347
  653MOL0     H86166   6.925   4.511   2.487  0.2604  1.6284  1.0314
  653MOL0     H86167   6.806   4.553   2.359 -0.5717 -1.2762 -0.2056
  653MOL0     H86168   6.819   4.312   2.526  0.7131  0.0240  0.1070
  653MOL0     H86169   6.660   4.377   2.481  0.7944  1.3120  1.4689
  653MOL0     H86170   6.768   4.356   2.237  1.7800 -0.5689 -0.4091
  653MOL0     H86171   6.719   4.206   2.329 -0.2997  0.0786  1.4579
  653MOL0     H86172   6.936   4.155   2.404  0.8643  1.2169  0.4146
  653MOL0     H86173   7.002   4.281   2.318  2.1716 -3.4341  1.2966
  653MOL0     H86174   6.844   4.050   2.201 -0.3874  0.1518 -0.6479
  653MOL0     H86175   6.885   4.189   2.106 -1.3780  0.8008  0.5716
  653MOL0     H86176   7.130   4.149   2.182 -0.6039  0.7396  1.5895
  653MOL0     H86177   7.061   4.027   2.082  4.5933  1.7318 -0.2596
  653MOL0     H86178   7.154   4.778   2.743 -0.0800  0.1336 -0.3832
  653MOL0     H86179   7.311   4.978   2.741 -0.7814  1.3591  1.0464
  653MOL0     H86180   7.415   5.347   2.223  2.3353 -1.1595 -1.7249
  653MOL0     H86181   7.609   5.506   2.203 -2.4689  0.2598 -1.5164
  653MOL0     H86182   8.924   6.155   1.301 -0.0914 -1.0543  1.5065
  653MOL0     H86183   9.140   6.215   1.389  0.1361  1.0713 -2.2975
  653MOL0     H86184   9.504   6.256   1.460  0.0852  1.1291  0.4514
  653MOL0     H86185   9.717   6.372   1.468  4.2177 -0.4678 -3.9260
  653MOL0     H86186  10.086   6.130   1.379 -0.7742 -0.7212  1.2995
  653MOL0     H86187  10.107   6.193   1.545 -0.4122  0.3299 -0.0679
  653MOL0     H86188  10.255   6.258   1.350  0.3753  1.6023  0.3621
  653MOL0     H86189  10.127   6.375   1.305 -1.0091  0.4225 -0.1685
  653MOL0     H86190  10.293   6.380   1.555 -0.9534 -0.5329  0.5238
  653MOL0     H86191  10.149   6.475   1.523  0.1626  1.9480 -0.8183
  653MOL0     H86192  10.423   6.495   1.363  0.6842 -1.0464  2.2065
  653MOL0     H86193  10.270   6.560   1.320  0.4194  1.7994  1.6373
  653MOL0     H86194  10.396   6.816   1.634  2.7805  0.9327 -1.3233
  653MOL0     H86195   9.928   5.997   1.424  1.2614  1.3197  1.5984
  653MOL0     H86196   9.703   5.883   1.416  0.9160 -0.9998  1.4828
  654MOL0     O86197   4.337   2.437   0.679 -0.1815 -0.2048 -0.1988
  654MOL0     C86198   4.411   2.533   0.668 -0.8620 -1.3545  0.6029
  654MOL0     O86199   4.360   2.666   0.681 -0.4754  0.9069  0.0336
  654MOL0     C86200   4.239   2.678   0.739  0.4445  0.4368  0.0282
  654MOL0     C86201   4.149   2.759   0.670 -0.6266 -0.3998 -0.3132
  654MOL0     C86202   4.024   2.784   0.721  0.0804  0.8832 -0.7457
  654MOL0     C86203   3.988   2.733   0.848  0.2088 -0.6673  0.9417
  654MOL0     O86204   3.855   2.747   0.875 -0.2604 -0.0714 -0.3933
  654MOL0     C86205   3.810   2.769   1.014 -0.1421  0.1892 -0.0140
  654MOL0     C86206   3.661   2.798   0.983  0.6655 -0.7108  0.1498
  654MOL0     C86207   3.589   2.795   1.120 -0.6549  0.4519  0.7017
  654MOL0     C86208   3.441   2.835   1.104  0.7517 -0.3651 -0.2040
  654MOL0     C86209   3.370   2.860   1.241  0.2956 -1.0236  0.1036
  654MOL0     C86210   3.382   2.746   1.340  0.5927  0.7013  0.3124
  654MOL0     C86211   3.314   2.613   1.307 -1.0363 -0.0325 -0.4810
  654MOL0     C86212   3.367   2.492   1.365 -0.4095 -0.4501  0.6684
  654MOL0     N86213   3.513   2.460   1.346 -0.4063 -0.3805 -0.1725
  654MOL0     C86214   3.557   2.357   1.273  0.1901  0.2385  0.4123
  654MOL0     C86215   3.689   2.368   1.268 -0.4153  0.4819  0.3151
  654MOL0     C86216   3.786   2.273   1.190  0.4048 -0.2852 -0.7628
  654MOL0     C86217   3.876   2.177   1.272 -0.2762  0.0319 -0.0234
  654MOL0     C86218   3.789   2.108   1.380 -0.4020  0.1730 -0.7189
  654MOL0     C86219   3.838   2.149   1.517 -0.0380 -0.1613 -0.7568
  654MOL0     O86220   3.782   2.268   1.577  0.3658  0.2562  0.1904
  654MOL0     C86221   3.663   2.256   1.650 -0.5350 -0.1720 -0.9253
  654MOL0     C86222   3.583   2.145   1.678 -0.5215  0.1304  0.1270
  654MOL0     C86223   3.454   2.164   1.722  0.7771  1.0415  0.2374
  654MOL0     C86224   3.407   2.280   1.781  0.1180 -0.0046  0.2016
  654MOL0     C86225   3.280   2.295   1.848  0.9488 -0.5221  0.5981
  654MOL0     O86226   3.184   2.196   1.848 -0.5559 -0.3178  0.5945
  654MOL0     C86227   3.063   2.208   1.914 -0.5001 -0.3114  0.3421
  654MOL0     C86228   2.982   2.316   1.913 -0.6770 -1.1384 -0.8610
  654MOL0     C86229   2.857   2.322   1.969 -0.7741 -0.3562  0.5169
  654MOL0     C86230   2.811   2.209   2.035  0.3518 -0.5879  0.8474
  654MOL0     O86231   2.675   2.206   2.082 -0.4984 -0.4247  0.1181
  654MOL0     C86232   2.633   2.328   2.153 -0.1708 -1.0601  0.2381
  654MOL0     C86233   2.496   2.363   2.098  0.9624  0.8802 -0.0540
  654MOL0     C86234   2.496   2.449   1.970  0.4020 -0.0183  0.4119
  654MOL0     C86235   2.496   2.598   2.007 -0.6908  0.6139  0.3284
  654MOL0     C86236   2.531   2.677   1.879 -0.7495  0.4027  1.0025
  654MOL0     C86237   2.686   2.689   1.847  0.5154  0.0202 -1.2710
  654MOL0     C86238   2.705   2.775   1.723  0.1002  0.1142  0.2737
  654MOL0     C86239   2.747   2.681   1.609  0.9209  0.5605 -0.4168
  654MOL0    Cl86240   2.791   2.788   1.465 -0.1308  0.4792  0.1490
  654MOL0     C86241   2.884   2.089   2.023  0.0875 -0.2058 -0.1587
  654MOL0     C86242   3.007   2.095   1.961 -0.0694  0.1754  0.1798
  654MOL0     O86243   3.270   2.395   1.923  0.1559  0.0016 -0.1643
  654MOL0     C86244   3.492   2.392   1.767 -0.1635  0.3224  0.4085
  654MOL0     C86245   3.610   2.380   1.692 -0.6281 -0.1763  0.0795
  654MOL0     N86246   3.733   2.482   1.336  0.2807  0.3189  0.0019
  654MOL0     N86247   3.624   2.524   1.395 -0.3706  0.0463  0.2403
  654MOL0     C86248   4.076   2.661   0.927  0.5761  1.1635  0.5619
  654MOL0     C86249   4.197   2.630   0.868 -0.0762 -0.3720 -0.3472
  654MOL0     C86250   4.539   2.526   0.617 -0.0199  0.3945  0.4960
  654MOL0     C86251   4.599   2.402   0.572  0.0646 -0.9489 -0.6787
  654MOL0     C86252   4.732   2.404   0.521 -0.1929  0.5208 -0.4247
  654MOL0     C86253   4.807   2.522   0.505  0.1203 -0.6917  0.0543
  654MOL0     O86254   4.934   2.543   0.449  1.0449  0.7631  0.1281
  654MOL0     C86255   4.997   2.422   0.408 -0.4338 -0.1210 -0.7266
  654MOL0     C86256   5.135   2.471   0.341 -0.9584  0.1316 -0.4334
  654MOL0     C86257   5.240   2.368   0.303  0.6149 -0.1717 -0.2289
  654MOL0     C86258   5.371   2.423   0.256 -0.3689 -1.0794  0.4536
  654MOL0     C86259   5.367   2.483   0.123 -0.7199 -0.0067 -0.8176
  654MOL0     C86260   5.364   2.541   0.011  0.0511 -0.2029 -0.3060
  654MOL0     C86261   4.745   2.640   0.542  0.3921 -0.9296 -0.6463
  654MOL0     C86262   4.610   2.643   0.593 -0.7181 -0.6346 -0.2274
  654MOL0     H86263   4.173   2.807   0.575  4.3236 -0.2812  0.7214
  654MOL0     H86264   3.948   2.838   0.666 -0.6663  3.9344  2.8857
  654MOL0     H86265   3.853   2.859   1.058  0.5542  0.1940 -0.6867
  654MOL0     H86266   3.834   2.677   1.069  1.0586  0.2300 -0.4472
  654MOL0     H86267   3.617   2.710   0.934  0.5133 -2.6000  3.3966
  654MOL0     H86268   3.643   2.892   0.930 -1.3737 -0.8478  0.4896
  654MOL0     H86269   3.625   2.869   1.193  0.9377 -0.9554  1.4023
  654MOL0     H86270   3.597   2.697   1.167 -3.3576  0.1137  0.5813
  654MOL0     H86271   3.431   2.930   1.051 -3.2936  0.8573  2.2988
  654MOL0     H86272   3.390   2.753   1.052 -1.1837  1.0543 -0.6387
  654MOL0     H86273   3.263   2.882   1.228  0.5513  0.6261  0.6072
  654MOL0     H86274   3.419   2.946   1.287 -0.4815  1.0787 -2.7068
  654MOL0     H86275   3.328   2.784   1.427  3.0994  3.8924  0.6611
  654MOL0     H86276   3.486   2.726   1.364  0.9462 -1.7834 -2.6656
  654MOL0     H86277   3.209   2.612   1.337 -0.5083  0.4278  1.4919
  654MOL0     H86278   3.304   2.606   1.198 -1.7440  1.7696 -0.5749
  654MOL0     H86279   3.311   2.407   1.323  1.3508 -1.2389 -0.1980
  654MOL0     H86280   3.348   2.494   1.472  0.9633 -0.4912  0.9250
  654MOL0     H86281   3.489   2.291   1.220 -0.1419 -1.7880  3.1180
  654MOL0     H86282   3.848   2.334   1.123 -0.8891  2.0499  0.0215
  654MOL0     H86283   3.726   2.212   1.122 -0.4507 -3.2187  2.3386
  654MOL0     H86284   3.955   2.241   1.313 -0.7613  3.1260 -3.3927
  654MOL0     H86285   3.926   2.105   1.207 -0.0531 -0.6850  0.9119
  654MOL0     H86286   3.681   2.119   1.373 -0.2682  1.0119 -1.6069
  654MOL0     H86287   3.817   2.003   1.365  1.0905  0.5912 -0.9779
  654MOL0     H86288   3.947   2.161   1.515 -0.2214  2.0216 -0.0523
  654MOL0     H86289   3.820   2.065   1.585  0.3397  1.5109  1.5217
  654MOL0     H86290   3.618   2.046   1.653  1.8130  0.6455  1.0517
  654MOL0     H86291   3.391   2.075   1.723  1.8809  0.2324 -0.2717
  654MOL0     H86292   3.030   2.385   1.845  1.0054 -0.7416  0.6392
  654MOL0     H86293   2.803   2.417   1.967 -0.4980 -0.1967  0.5384
  654MOL0     H86294   2.697   2.414   2.131 -0.1638 -1.0362  0.3518
  654MOL0     H86295   2.629   2.310   2.261  0.1538 -2.5774  0.0163
  654MOL0     H86296   2.428   2.411   2.169 -0.0147 -3.5363  2.3572
  654MOL0     H86297   2.439   2.271   2.076  1.4047  0.9762 -1.7289
  654MOL0     H86298   2.405   2.428   1.913 -0.3934 -2.5752  2.3898
  654MOL0     H86299   2.576   2.408   1.908 -0.9697  0.4280 -1.7214
  654MOL0     H86300   2.407   2.640   2.054  0.3613 -0.6061  3.6547
  654MOL0     H86301   2.578   2.609   2.078 -0.3705  1.9284 -0.2274
  654MOL0     H86302   2.507   2.782   1.900 -0.6177  1.1988 -2.2629
  654MOL0     H86303   2.484   2.636   1.789  0.3307  0.7799  0.2440
  654MOL0     H86304   2.734   2.591   1.834 -0.0811 -0.5258  0.4156
  654MOL0     H86305   2.736   2.735   1.933  0.3027  0.5904 -1.4558
  654MOL0     H86306   2.611   2.827   1.703  1.1903  2.5179  1.0196
  654MOL0     H86307   2.776   2.856   1.744  0.1872  0.0544  0.2137
  654MOL0     H86308   2.653   2.631   1.586  0.4217  1.1786  0.2425
  654MOL0     H86309   2.830   2.612   1.628  1.3948  1.3201  0.3427
  654MOL0     H86310   2.850   1.995   2.064  0.7792 -0.4075 -0.0241
  654MOL0     H86311   3.067   2.006   1.949 -0.4158 -0.0582  0.1438
  654MOL0     H86312   3.465   2.489   1.809 -2.9710 -0.1761 -0.0205
  654MOL0     H86313   3.677   2.464   1.674  0.8089 -1.1111  0.8676
  654MOL0     H86314   4.046   2.622   1.023 -4.2207  2.0398 -0.3515
  654MOL0     H86315   4.259   2.554   0.914 -0.1178 -1.5177 -2.0717
  654MOL0     H86316   4.543   2.311   0.591 -1.7772  0.4881  1.3612
  654MOL0     H86317   4.768   2.311   0.479  3.5637  1.3334  0.6727
  654MOL0     H86318   4.939   2.360   0.338  1.1164 -0.6894 -1.5826
  654MOL0     H86319   5.026   2.365   0.496  3.4092  1.3058 -0.8558
  654MOL0     H86320   5.097   2.525   0.254 -2.8941 -0.2361  0.1318
  654MOL0     H86321   5.185   2.545   0.404  0.1059 -0.4614 -0.5638
  654MOL0     H86322   5.199   2.308   0.221 -0.7294  0.6761 -0.2072
  654MOL0     H86323   5.261   2.297   0.384  1.2016  0.3483  0.0761
  654MOL0     H86324   5.402   2.500   0.327 -3.4520  0.5574  0.2106
  654MOL0     H86325   5.446   2.344   0.258 -0.1169 -0.9290 -1.2521
  654MOL0     H86326   5.386   2.578  -0.087 -0.8204 -0.8558 -0.7626
  654MOL0     H86327   4.790   2.737   0.523 -2.8232  0.9663  0.6262
  654MOL0     H86328   4.574   2.744   0.611  2.0821  0.6008 -1.0110
  655MOL0     O86329   3.346   9.853   1.982  0.2251  0.2362 -0.4302
  655MOL0     C86330   3.383   9.953   1.918 -0.4557  0.2288 -0.0189
  655MOL0     O86331   3.317  10.004   1.817  0.1117 -0.2584 -0.0043
  655MOL0     C86332   3.200   9.934   1.786  0.6474 -0.3232 -0.1503
  655MOL0     C86333   3.081   9.976   1.851 -0.1834 -0.9998  1.3467
  655MOL0     C86334   2.967   9.908   1.821 -0.0401 -0.7165  0.0281
  655MOL0     C86335   2.961   9.812   1.723  0.0615 -1.0525 -0.7347
  655MOL0     O86336   2.835   9.755   1.703 -1.1415 -0.4137 -0.1463
  655MOL0     C86337   2.764   9.794   1.591 -0.1809 -0.0853  0.3876
  655MOL0     C86338   2.697   9.671   1.537  0.0998 -0.1425 -0.9200
  655MOL0     C86339   2.611   9.698   1.412 -0.4661  0.4050  0.6199
  655MOL0     C86340   2.481   9.784   1.441 -0.7000 -0.3642  0.1712
  655MOL0     C86341   2.391   9.782   1.306  0.0400 -0.5504 -0.4345
  655MOL0     C86342   2.273   9.881   1.306 -0.1687 -0.0362  0.1775
  655MOL0     C86343   2.170   9.851   1.421  0.9902 -0.2178 -0.2190
  655MOL0     C86344   2.069   9.967   1.406  0.4244 -0.9193 -0.3941
  655MOL0     N86345   1.952   9.954   1.497 -0.6028 -0.2124  0.2163
  655MOL0     C86346   1.829   9.914   1.460  0.3888 -0.5577 -0.6985
  655MOL0     C86347   1.751   9.936   1.571  0.5151  0.5394  1.3892
  655MOL0     C86348   1.602   9.921   1.589  0.0059  0.0134 -0.8227
  655MOL0     C86349   1.529  10.041   1.525  0.2179 -0.6538 -0.6436
  655MOL0     C86350   1.386  10.037   1.560  0.2643 -0.0483  0.2287
  655MOL0     C86351   1.303  10.100   1.449 -0.0929  0.7308 -0.2585
  655MOL0     O86352   1.230  10.219   1.496 -0.4131  0.8447  0.5126
  655MOL0     C86353   1.122  10.261   1.428  0.3365  0.5819  0.0259
  655MOL0     C86354   1.095  10.224   1.291 -0.1466  0.0690 -0.1070
  655MOL0     C86355   0.977  10.272   1.218 -1.6296 -0.6760  0.0693
  655MOL0     C86356   0.886  10.354   1.284 -0.6381 -0.1242  0.4197
  655MOL0     C86357   0.769  10.399   1.200 -0.6694 -0.3094  0.0785
  655MOL0     O86358   0.671  10.454   1.271  0.3816 -0.5927  0.0316
  655MOL0     C86359   0.557  10.493   1.207  0.1409  0.5303  0.6855
  655MOL0     C86360   0.518  10.627   1.190 -0.7917 -1.4979 -0.1418
  655MOL0     C86361   0.404  10.657   1.127  0.3472 -0.5319  0.4850
  655MOL0     C86362   0.325  10.560   1.068  0.3736  0.6747  0.2634
  655MOL0     O86363   0.218  10.592   0.996  0.7775  0.0473 -0.0752
  655MOL0     C86364   0.257  10.659   0.871 -1.0211 -0.1328  0.6317
  655MOL0     C86365   0.283  10.546   0.769  0.8050  0.1838 -0.4935
  655MOL0     C86366   0.153  10.466   0.731 -0.2559 -0.2568 -0.8785
  655MOL0     C86367   0.047  10.556   0.677 -0.2736 -0.1424  0.3069
  655MOL0     C86368  -0.061  10.475   0.616 -0.5243 -0.6829  0.0864
  655MOL0     C86369  -0.183  10.564   0.622 -0.4816 -0.2905  0.1141
  655MOL0     C86370  -0.291  10.481   0.542  0.7037  0.0105 -0.2455
  655MOL0     C86371  -0.360  10.367   0.630  0.1122  0.2227  0.2611
  655MOL0    Cl86372  -0.432  10.439   0.777  0.6647 -0.3713  0.4005
  655MOL0     C86373   0.349  10.427   1.110 -0.2101 -0.0818 -0.6244
  655MOL0     C86374   0.462  10.394   1.186  0.6195 -0.5637 -0.1827
  655MOL0     O86375   0.771  10.391   1.079  0.8388  0.6940  0.6031
  655MOL0     C86376   0.911  10.386   1.419  0.1360  0.5788 -0.3644
  655MOL0     C86377   1.020  10.335   1.492 -0.1850 -0.5965 -0.1935
  655MOL0     N86378   1.822   9.994   1.667  0.7625  0.3668 -0.3921
  655MOL0     N86379   1.949   9.996   1.625  0.2295 -0.3917 -0.7103
  655MOL0     C86380   3.075   9.783   1.649 -0.3821 -0.9647  1.1537
  655MOL0     C86381   3.196   9.850   1.684  0.1418  1.0116 -0.3492
  655MOL0     C86382   3.523   9.998   1.939  0.1661 -0.9596 -0.4814
  655MOL0     C86383   3.573  10.125   1.884 -0.5904  0.2039 -1.1191
  655MOL0     C86384   3.712  10.167   1.916 -0.3985 -0.6919  0.0735
  655MOL0     C86385   3.797  10.082   1.997  0.8371  0.3677  0.2882
  655MOL0     O86386   3.930  10.108   2.023  0.5993  0.3810 -0.5802
  655MOL0     C86387   4.021  10.103   1.910  0.2209  0.4727 -0.1683
  655MOL0     C86388   4.086   9.962   1.897 -0.6980  1.1288  0.1623
  655MOL0     C86389   4.157   9.920   2.025 -0.0244 -0.9156  0.3024
  655MOL0     C86390   4.269  10.018   2.066 -0.7213 -0.6674 -0.4165
  655MOL0     C86391   4.355  10.052   1.949 -0.5132  0.0613  0.1718
  655MOL0     C86392   4.436  10.053   1.857 -0.2939  0.3091 -0.5254
  655MOL0     C86393   3.739   9.958   2.043  0.5317 -0.1346 -0.3208
  655MOL0     C86394   3.607   9.924   2.028 -0.1181  0.3461  0.3095
  655MOL0     H86395   3.082  10.058   1.923 -0.9095  0.2483  0.0058
  655MOL0     H86396   2.871   9.934   1.864  1.0161  1.9730  0.9012
  655MOL0     H86397   2.834   9.824   1.513 -1.3219 -2.1592 -1.5566
  655MOL0     H86398   2.691   9.868   1.627 -1.0295 -1.2837  1.2127
  655MOL0     H86399   2.625   9.626   1.605  1.8684 -0.5433  0.7581
  655MOL0     H86400   2.772   9.598   1.506  1.0504 -1.1840  3.2622
  655MOL0     H86401   2.582   9.607   1.359 -0.2419  2.2143 -2.8982
  655MOL0     H86402   2.670   9.756   1.341  0.0936  0.5429  1.1916
  655MOL0     H86403   2.434   9.740   1.530 -1.0413  0.6778  0.5157
  655MOL0     H86404   2.507   9.889   1.456 -3.6304  0.4159  0.3322
  655MOL0     H86405   2.355   9.679   1.296  3.7171 -2.0604  0.0732
  655MOL0     H86406   2.442   9.795   1.210 -0.5772 -3.5810 -1.2790
  655MOL0     H86407   2.234   9.895   1.205  0.0257 -3.6871 -0.5130
  655MOL0     H86408   2.315   9.974   1.345  0.0022 -0.2947  0.6157
  655MOL0     H86409   2.133   9.750   1.402  1.3574 -0.1701 -1.2885
  655MOL0     H86410   2.204   9.858   1.524 -2.8230 -1.6913  1.3115
  655MOL0     H86411   2.030   9.983   1.305 -0.5008 -1.5965 -0.1575
  655MOL0     H86412   2.127  10.055   1.438  1.5472 -1.9649  0.5274
  655MOL0     H86413   1.791   9.872   1.368 -4.7331  1.4969  0.1609
  655MOL0     H86414   1.581   9.907   1.695 -2.0787  0.2488 -1.1633
  655MOL0     H86415   1.571   9.827   1.541  1.3803 -1.1200  0.3817
  655MOL0     H86416   1.547  10.033   1.417 -1.1467 -1.8647 -0.8193
  655MOL0     H86417   1.572  10.137   1.555 -0.1128 -0.5611 -0.4660
  655MOL0     H86418   1.356   9.932   1.557 -1.0204  0.3115  0.1786
  655MOL0     H86419   1.352  10.066   1.660 -4.2114 -0.1056 -1.0537
  655MOL0     H86420   1.240  10.017   1.416  2.5326 -1.5218 -0.0440
  655MOL0     H86421   1.370  10.129   1.368  2.3239 -0.9920  0.9724
  655MOL0     H86422   1.178  10.170   1.247 -0.0663  0.2220 -0.1441
  655MOL0     H86423   0.969  10.263   1.110  0.4517  1.5070 -0.3346
  655MOL0     H86424   0.588  10.704   1.220 -2.1491 -0.8481  1.5226
  655MOL0     H86425   0.389  10.763   1.109  0.5556 -0.7324 -1.0044
  655MOL0     H86426   0.352  10.713   0.881 -0.8620 -0.5430  1.3777
  655MOL0     H86427   0.182  10.732   0.839 -0.8843 -0.7721 -1.3112
  655MOL0     H86428   0.359  10.471   0.794 -2.0858 -3.2577 -1.3542
  655MOL0     H86429   0.324  10.592   0.678  0.0625  1.6812 -0.1124
  655MOL0     H86430   0.116  10.411   0.818  3.0591 -1.4746 -0.0854
  655MOL0     H86431   0.194  10.389   0.665  0.8389 -1.0315  0.6394
  655MOL0     H86432   0.002  10.609   0.761 -1.6167  1.7154 -1.5009
  655MOL0     H86433   0.085  10.625   0.601  0.5680 -0.7749  0.1293
  655MOL0     H86434  -0.074  10.378   0.665  0.1795 -0.5444  0.5548
  655MOL0     H86435  -0.031  10.439   0.517  0.4019 -2.8691  1.1158
  655MOL0     H86436  -0.158  10.663   0.583  3.6979 -1.2262 -0.0608
  655MOL0     H86437  -0.229  10.582   0.720 -3.5352  2.3986 -1.6060
  655MOL0     H86438  -0.366  10.541   0.490 -0.1735 -0.6712  0.2121
  655MOL0     H86439  -0.237  10.435   0.458  0.6866  1.2941 -0.9801
  655MOL0     H86440  -0.292  10.297   0.679  1.2112  1.3744  0.4484
  655MOL0     H86441  -0.434  10.310   0.573 -0.7120 -0.5040  1.9831
  655MOL0     H86442   0.272  10.356   1.081  1.2124 -1.5931 -0.8411
  655MOL0     H86443   0.477  10.288   1.203 -0.0398 -0.8630 -1.3956
  655MOL0     H86444   0.842  10.455   1.469  0.3040  1.8990 -1.8773
  655MOL0     H86445   1.034  10.372   1.593 -0.7694  2.2328 -1.0561
  655MOL0     H86446   3.066   9.710   1.569  1.1966 -1.1661  1.1272
  655MOL0     H86447   3.287   9.827   1.629  0.4858  3.2663 -0.8008
  655MOL0     H86448   3.508  10.194   1.832  0.1592  1.7383 -0.1021
  655MOL0     H86449   3.753  10.262   1.883 -0.0253 -1.7097 -2.7112
  655MOL0     H86450   4.096  10.182   1.926 -0.6412  1.0280  1.3520
  655MOL0     H86451   3.974  10.140   1.819  0.2612  3.7584  0.9966
  655MOL0     H86452   4.006   9.890   1.877  1.1041 -1.7188  2.3685
  655MOL0     H86453   4.153   9.960   1.810  0.8601  0.5053  1.3287
  655MOL0     H86454   4.197   9.819   2.015  0.5103 -0.7060  0.3029
  655MOL0     H86455   4.075   9.922   2.097  1.0396  0.7213  1.5678
  655MOL0     H86456   4.240  10.115   2.108  2.8559 -0.0239  1.0166
  655MOL0     H86457   4.336   9.973   2.140 -1.2643  0.0311  0.5369
  655MOL0     H86458   4.505  10.033   1.778  0.3562 -1.4684  0.4458
  655MOL0     H86459   3.799   9.880   2.090 -0.5295 -1.7914 -1.5911
  655MOL0     H86460   3.565   9.835   2.073  0.8300  0.2488  1.0370
  656MOL0     O86461   6.003   0.467   6.900  0.1478  0.4619 -0.1195
  656MOL0     C86462   5.919   0.544   6.858  0.5175  0.4784 -0.5602
  656MOL0     O86463   5.940   0.674   6.835  1.4303 -0.8062 -0.2702
  656MOL0     C86464   6.067   0.728   6.836 -0.0221  0.4662  0.0224
  656MOL0     C86465   6.176   0.680   6.750  0.4460  0.6628  0.4901
  656MOL0     C86466   6.303   0.736   6.761  0.6473  0.4795 -0.0285
  656MOL0     C86467   6.329   0.853   6.834 -0.3998  0.5428 -1.1105
  656MOL0     O86468   6.463   0.897   6.845 -0.6664 -0.3036 -0.3370
  656MOL0     C86469   6.499   0.955   6.966  0.1227 -0.1889 -0.8787
  656MOL0     C86470   6.636   1.018   6.927  0.1632 -0.4842  0.0289
  656MOL0     C86471   6.711   1.036   7.054 -0.3448 -0.4566  0.8265
  656MOL0     C86472   6.830   1.128   7.022 -0.4516 -0.8217 -0.1712
  656MOL0     C86473   6.916   1.140   7.148  0.5113 -0.5539 -0.7026
  656MOL0     C86474   6.998   1.012   7.182  0.0248 -0.5053 -0.4491
  656MOL0     C86475   7.102   0.974   7.078 -0.4385 -0.3607 -0.2045
  656MOL0     C86476   7.227   1.062   7.079 -0.3403 -0.3756  0.2247
  656MOL0     N86477   7.300   1.042   7.214  0.0024 -0.5875  0.8665
  656MOL0     C86478   7.413   0.967   7.224  0.5284  0.6679 -0.5055
  656MOL0     C86479   7.459   0.995   7.350 -0.3928  0.3329 -0.3015
  656MOL0     C86480   7.576   0.937   7.428 -0.3089  1.2411 -0.3506
  656MOL0     C86481   7.711   1.005   7.407 -0.0820  0.1417 -0.3665
  656MOL0     C86482   7.788   0.963   7.283 -0.3790 -0.1917 -0.3101
  656MOL0     C86483   7.915   1.047   7.260 -0.1964 -0.7401 -0.0703
  656MOL0     O86484   8.008   1.028   7.368 -0.3250 -0.2385  0.4171
  656MOL0     C86485   8.147   1.046   7.350 -0.7843 -0.8609 -0.5077
  656MOL0     C86486   8.226   1.055   7.471 -0.0488 -0.2076 -0.3107
  656MOL0     C86487   8.368   1.056   7.474  0.4130 -0.5878 -0.2438
  656MOL0     C86488   8.428   1.047   7.351 -0.2236 -0.2055 -0.3751
  656MOL0     C86489   8.574   1.035   7.341  0.5254 -0.7586  0.6569
  656MOL0     O86490   8.615   0.941   7.250 -0.0877 -1.0420 -0.3827
  656MOL0     C86491   8.748   0.910   7.265  0.1438  0.6117  0.1323
  656MOL0     C86492   8.845   0.961   7.185  0.3872 -0.6422  0.1038
  656MOL0     C86493   8.976   0.928   7.201 -0.7333  0.6615 -0.4658
  656MOL0     C86494   9.005   0.832   7.302  0.1354 -1.0235 -0.7917
  656MOL0     O86495   9.128   0.798   7.334 -0.1849  0.6889 -0.3564
  656MOL0     C86496   9.246   0.849   7.270  0.1736  1.2005 -0.6009
  656MOL0     C86497   9.272   0.763   7.141  0.2588  0.2415 -0.1361
  656MOL0     C86498   9.381   0.822   7.051 -0.2755  0.8379 -1.2798
  656MOL0     C86499   9.509   0.868   7.137  0.9953 -0.2577  0.4553
  656MOL0     C86500   9.571   0.750   7.234  0.0388 -0.1535 -0.6059
  656MOL0     C86501   9.709   0.792   7.299  0.8868  0.6100  0.1066
  656MOL0     C86502   9.779   0.676   7.378 -0.8083 -0.1818 -0.4638
  656MOL0     C86503   9.908   0.712   7.450 -0.3256  0.2352 -0.8993
  656MOL0    Cl86504   9.986   0.545   7.489 -0.1012  0.0385 -0.3341
  656MOL0     C86505   8.906   0.773   7.380 -0.2116 -0.5716 -0.0875
  656MOL0     C86506   8.777   0.809   7.360  0.2264  0.2013  0.0737
  656MOL0     O86507   8.649   1.103   7.415  0.9134  0.3855 -0.4983
  656MOL0     C86508   8.357   1.047   7.232 -0.1198  0.1415 -0.1745
  656MOL0     C86509   8.224   1.040   7.226  0.6246 -0.5612  0.4039
  656MOL0     N86510   7.377   1.095   7.405 -0.8058 -0.5825  0.1780
  656MOL0     N86511   7.288   1.130   7.319 -0.5241  0.6076 -0.0869
  656MOL0     C86512   6.225   0.903   6.899  0.6441 -0.4349 -0.1753
  656MOL0     C86513   6.097   0.845   6.908 -0.0997  0.1754 -0.6426
  656MOL0     C86514   5.781   0.490   6.845 -1.0549 -0.8104  0.0136
  656MOL0     C86515   5.759   0.352   6.867  0.9507  0.0219  0.3640
  656MOL0     C86516   5.635   0.283   6.848 -0.2284  0.5046 -0.2638
  656MOL0     C86517   5.532   0.359   6.815 -0.2446  0.2200  0.4231
  656MOL0     O86518   5.412   0.302   6.840 -0.6972  1.0030  0.4780
  656MOL0     C86519   5.296   0.354   6.781 -0.9538 -0.7287 -0.5597
  656MOL0     C86520   5.299   0.343   6.628  0.3042  1.2243  0.1173
  656MOL0     C86521   5.163   0.314   6.565 -0.0281  0.7004 -0.2674
  656MOL0     C86522   5.132   0.162   6.573 -0.1588 -0.4228  0.8492
  656MOL0     C86523   4.982   0.140   6.562 -0.3821  0.1857 -0.1473
  656MOL0     C86524   4.867   0.130   6.553 -0.6180  0.2263  0.0502
  656MOL0     C86525   5.546   0.496   6.779  0.0266 -0.2408 -0.7139
  656MOL0     C86526   5.667   0.564   6.791  0.0655  0.1092  0.0247
  656MOL0     H86527   6.173   0.593   6.686 -1.1619  1.4956 -0.6365
  656MOL0     H86528   6.383   0.680   6.713  1.8574  2.3151 -0.2238
  656MOL0     H86529   6.519   0.876   7.039  1.8427  0.0982 -0.9946
  656MOL0     H86530   6.425   1.023   7.009  2.2923 -0.2689  3.4909
  656MOL0     H86531   6.611   1.107   6.868 -0.9935 -1.2751 -0.6998
  656MOL0     H86532   6.697   0.955   6.861  1.1093  1.7469 -1.3500
  656MOL0     H86533   6.751   0.939   7.087 -0.7415 -1.3178 -1.0808
  656MOL0     H86534   6.649   1.086   7.128  2.1427  1.7427  1.5777
  656MOL0     H86535   6.892   1.079   6.946  4.1307  1.8741  1.4094
  656MOL0     H86536   6.804   1.228   6.987 -3.0557 -1.1446  0.6153
  656MOL0     H86537   6.869   1.184   7.236  1.4445 -0.2223 -0.3597
  656MOL0     H86538   6.995   1.211   7.123  1.5931 -1.3072  0.4247
  656MOL0     H86539   6.933   0.926   7.201  1.8469 -1.5223  1.6622
  656MOL0     H86540   7.052   1.039   7.273 -0.0650  0.7411 -0.7577
  656MOL0     H86541   7.133   0.869   7.082  0.8419 -0.0036 -0.3875
  656MOL0     H86542   7.062   0.979   6.977  1.1169 -1.5566 -0.9274
  656MOL0     H86543   7.201   1.168   7.073 -1.6177 -0.6916 -0.0300
  656MOL0     H86544   7.288   1.041   6.991  0.1904  2.3223 -0.1205
  656MOL0     H86545   7.450   0.900   7.148  2.2315 -1.6170  2.1338
  656MOL0     H86546   7.582   0.835   7.388 -0.0829  1.6520 -1.3757
  656MOL0     H86547   7.554   0.940   7.535  1.4551 -0.2358  0.1150
  656MOL0     H86548   7.766   0.976   7.497 -1.2751 -2.3471 -0.3670
  656MOL0     H86549   7.692   1.113   7.407  0.4119  0.2294 -0.4562
  656MOL0     H86550   7.813   0.856   7.289 -0.9835 -0.2837  0.6751
  656MOL0     H86551   7.724   0.984   7.197 -0.8146  0.2557  0.1217
  656MOL0     H86552   7.885   1.152   7.254  2.0193  0.0520  1.3589
  656MOL0     H86553   7.970   1.032   7.167  0.9905  2.6641 -0.0350
  656MOL0     H86554   8.180   1.038   7.568  1.0232  1.4180  0.5280
  656MOL0     H86555   8.418   1.046   7.570 -4.0353 -1.5518  2.2352
  656MOL0     H86556   8.826   1.039   7.112  0.2973 -0.3165  0.4695
  656MOL0     H86557   9.041   0.971   7.125 -2.4093  1.8028 -1.2970
  656MOL0     H86558   9.332   0.842   7.336  0.4841  1.2711 -0.9946
  656MOL0     H86559   9.231   0.956   7.253  0.1585  1.3859  0.5316
  656MOL0     H86560   9.178   0.760   7.085 -1.9040 -1.1022  3.2364
  656MOL0     H86561   9.299   0.660   7.164  1.0183 -0.1333 -2.4699
  656MOL0     H86562   9.337   0.907   6.999 -0.9090 -0.9115 -3.8022
  656MOL0     H86563   9.401   0.748   6.973 -0.2785 -2.0266  1.2430
  656MOL0     H86564   9.587   0.916   7.077  0.6816  1.0052  1.0433
  656MOL0     H86565   9.461   0.942   7.201 -0.7324 -2.1562  1.4748
  656MOL0     H86566   9.582   0.663   7.168  1.7553  0.3465 -1.0203
  656MOL0     H86567   9.495   0.723   7.309 -3.2969  1.3758 -3.1574
  656MOL0     H86568   9.706   0.879   7.365  1.2860  0.1106  0.7886
  656MOL0     H86569   9.768   0.825   7.213 -3.6422  3.1507 -2.4618
  656MOL0     H86570   9.706   0.626   7.441 -0.7343 -0.7146 -0.7972
  656MOL0     H86571   9.818   0.599   7.311  1.3777 -1.8743  2.5275
  656MOL0     H86572   9.895   0.770   7.542 -0.2219 -1.7264  0.3990
  656MOL0     H86573   9.978   0.755   7.378 -0.5988  0.6016 -0.9483
  656MOL0     H86574   8.930   0.697   7.455  5.0379  0.1470 -0.6264
  656MOL0     H86575   8.695   0.765   7.415  1.3228  0.6443  2.1728
  656MOL0     H86576   8.408   1.047   7.136  0.8781 -0.2132  0.3389
  656MOL0     H86577   8.174   1.030   7.130 -0.2895  3.1353  0.3461
  656MOL0     H86578   6.234   1.000   6.947 -1.7408 -0.2599  0.0627
  656MOL0     H86579   6.013   0.887   6.962 -0.3336 -1.5526  0.4350
  656MOL0     H86580   5.843   0.290   6.896 -1.0109 -1.6325  2.9196
  656MOL0     H86581   5.616   0.177   6.867 -0.0724  0.7844  1.6216
  656MOL0     H86582   5.272   0.458   6.806 -0.7405 -1.3336  2.6048
  656MOL0     H86583   5.207   0.301   6.815 -1.8712  0.9153 -0.2595
  656MOL0     H86584   5.341   0.421   6.563  0.7403  1.0527  0.1855
  656MOL0     H86585   5.353   0.251   6.602 -3.6770 -2.4095  3.1896
  656MOL0     H86586   5.167   0.347   6.461 -0.3305 -2.2356 -1.3297
  656MOL0     H86587   5.088   0.361   6.629  1.0181 -1.2777  2.6710
  656MOL0     H86588   5.189   0.117   6.491 -0.5482  0.1481  0.2534
  656MOL0     H86589   5.165   0.115   6.666  2.0719  0.2107  0.4360
  656MOL0     H86590   4.762   0.108   6.545 -0.2847 -2.3302  1.7752
  656MOL0     H86591   5.464   0.559   6.748 -1.8315 -1.8639  0.5958
  656MOL0     H86592   5.688   0.667   6.764  4.4002 -0.9083 -1.4023
  657MOL0     O86593   7.127  10.113   1.820  0.1271  0.7857  0.2238
  657MOL0     C86594   7.161  10.140   1.707 -0.0190  0.1148  0.2879
  657MOL0     O86595   7.078  10.147   1.595 -0.1719 -0.7474  0.4427
  657MOL0     C86596   6.939  10.139   1.608 -0.8123  0.7521  0.1353
  657MOL0     C86597   6.869  10.084   1.503  0.6012  0.0146  0.0016
  657MOL0     C86598   6.733  10.060   1.505  0.4964 -0.4915 -0.0800
  657MOL0     C86599   6.657  10.094   1.623  0.1271 -0.8439 -0.3664
  657MOL0     O86600   6.524  10.061   1.639  0.9083  0.1938 -0.3347
  657MOL0     C86601   6.459  10.067   1.767 -0.3802 -0.1317 -0.1987
  657MOL0     C86602   6.313  10.094   1.739  0.5746 -0.5389 -0.1904
  657MOL0     C86603   6.224  10.108   1.863 -0.2162  0.2453 -0.0763
  657MOL0     C86604   6.071  10.115   1.825 -0.5419 -0.1718 -0.3874
  657MOL0     C86605   6.004  10.134   1.959  0.2137 -0.5313 -0.4879
  657MOL0     C86606   5.853  10.165   1.947  0.6455  0.7137  1.1578
  657MOL0     C86607   5.771  10.033   1.946  0.8318 -0.0014 -0.1807
  657MOL0     C86608   5.614  10.054   1.975 -0.4274 -0.4942  0.2255
  657MOL0     N86609   5.590  10.115   2.106  0.0726 -1.0895 -0.3923
  657MOL0     C86610   5.479  10.201   2.120 -0.5262  0.7426 -0.3889
  657MOL0     C86611   5.475  10.229   2.260 -0.6273 -0.0308  1.0893
  657MOL0     C86612   5.358  10.303   2.331 -0.0153  0.6232 -0.1881
  657MOL0     C86613   5.221  10.236   2.292  0.0032  0.5309  0.2028
  657MOL0     C86614   5.127  10.253   2.411 -1.1071 -0.4887 -0.4940
  657MOL0     C86615   4.980  10.241   2.355 -0.6767 -0.3114 -0.5928
  657MOL0     O86616   4.891  10.274   2.462  0.0041 -0.0739  0.2297
  657MOL0     C86617   4.756  10.263   2.449 -0.0131 -0.0298  0.0962
  657MOL0     C86618   4.688  10.258   2.328  0.6118  0.6152  0.1309
  657MOL0     C86619   4.547  10.228   2.318  0.1988  0.3813 -0.3096
  657MOL0     C86620   4.469  10.205   2.432 -1.1497  0.4054  0.1551
  657MOL0     C86621   4.326  10.169   2.423 -0.6129  0.3561 -0.0046
  657MOL0     O86622   4.273  10.088   2.521  1.1743  0.0054  0.4918
  657MOL0     C86623   4.138  10.053   2.517 -1.4208 -0.2673  0.3888
  657MOL0     C86624   4.087   9.949   2.430  0.3858  0.2476  0.4544
  657MOL0     C86625   3.948   9.911   2.444 -0.0019  0.3924 -0.1399
  657MOL0     C86626   3.859   9.981   2.528  0.6752  0.1004  0.2786
  657MOL0     O86627   3.729   9.948   2.534  0.4322  0.6774 -0.0114
  657MOL0     C86628   3.666   9.872   2.433 -0.3342 -0.0657  1.0844
  657MOL0     C86629   3.508   9.878   2.452  0.5060 -0.0009  0.4448
  657MOL0     C86630   3.436   9.752   2.396 -0.3057 -0.4569 -0.5521
  657MOL0     C86631   3.294   9.757   2.440  0.5181  0.1194 -0.2990
  657MOL0     C86632   3.230   9.626   2.442  0.3545 -0.0661 -0.1591
  657MOL0     C86633   3.073   9.629   2.458 -0.1859  0.9137 -0.8611
  657MOL0     C86634   3.032   9.493   2.508  0.1204 -0.5731  0.1588
  657MOL0     C86635   2.886   9.481   2.527 -0.2098 -0.2847  0.3267
  657MOL0    Cl86636   2.834   9.548   2.688  0.6730  0.1690 -0.2363
  657MOL0     C86637   3.911  10.081   2.609 -0.0700  0.1638  0.2653
  657MOL0     C86638   4.049  10.114   2.601 -0.2500  0.0369 -0.1657
  657MOL0     O86639   4.266  10.217   2.328  0.5103  0.5645 -0.0955
  657MOL0     C86640   4.537  10.192   2.552  0.0634 -0.9710  1.1005
  657MOL0     C86641   4.679  10.228   2.560  0.2583 -0.0213  0.0504
  657MOL0     N86642   5.593  10.171   2.315  0.8995 -0.1026  0.8664
  657MOL0     N86643   5.660  10.104   2.226 -0.1435  0.1446 -0.2664
  657MOL0     C86644   6.735  10.171   1.725 -0.1363 -0.1750  0.8987
  657MOL0     C86645   6.869  10.186   1.719 -0.3283  0.1333 -0.5405
  657MOL0     C86646   7.308  10.145   1.692 -0.2983 -0.1116 -0.9521
  657MOL0     C86647   7.373  10.223   1.592 -0.8184  0.8947  0.2469
  657MOL0     C86648   7.513  10.247   1.598  0.1922 -0.6495  0.5241
  657MOL0     C86649   7.583  10.205   1.709 -0.6940  0.8129 -0.1206
  657MOL0     O86650   7.717  10.242   1.720  0.0221  0.3305  0.4206
  657MOL0     C86651   7.793  10.190   1.827  0.4655  0.0552  0.7819
  657MOL0     C86652   7.929  10.265   1.821 -0.5584 -0.4993 -0.4374
  657MOL0     C86653   7.918  10.420   1.827  0.5889  0.8431 -0.5681
  657MOL0     C86654   8.059  10.485   1.861  0.3531 -0.3651 -0.6637
  657MOL0     C86655   8.058  10.632   1.871  0.3780 -0.4636 -0.5257
  657MOL0     C86656   8.040  10.753   1.886 -0.8652  0.1922 -0.4819
  657MOL0     C86657   7.522  10.129   1.805  1.4064  0.2248  0.9937
  657MOL0     C86658   7.388  10.104   1.801  0.1231  0.5525  0.6118
  657MOL0     H86659   6.929  10.050   1.419  1.1758 -2.3893  1.2853
  657MOL0     H86660   6.680  10.026   1.417  0.9776  2.6819 -1.7422
  657MOL0     H86661   6.497  10.143   1.836 -0.0608 -1.6045  1.3168
  657MOL0     H86662   6.466   9.972   1.821  0.3733  0.1296  0.1848
  657MOL0     H86663   6.273  10.010   1.681 -3.8161 -0.7812  2.7156
  657MOL0     H86664   6.320  10.183   1.676  0.3844  0.6219  1.3722
  657MOL0     H86665   6.243  10.201   1.918 -2.9132 -0.3829  2.1346
  657MOL0     H86666   6.243  10.026   1.932  0.3569 -0.5253 -1.1151
  657MOL0     H86667   6.055  10.196   1.754 -0.8354 -0.7705 -1.0089
  657MOL0     H86668   6.043  10.019   1.781 -2.5734 -0.2354  0.9276
  657MOL0     H86669   6.047  10.214   2.020 -1.0987  0.4263 -0.7734
  657MOL0     H86670   6.019  10.038   2.009 -1.6349 -1.1561 -1.0641
  657MOL0     H86671   5.830  10.214   1.852 -1.2565 -0.6005  0.8822
  657MOL0     H86672   5.820  10.227   2.031  1.7089  0.5416  1.7178
  657MOL0     H86673   5.784   9.981   1.851  3.5601  0.7841 -0.3184
  657MOL0     H86674   5.809   9.978   2.033  0.7022 -1.5083 -1.0563
  657MOL0     H86675   5.558   9.961   1.965  1.9820 -2.2693  2.0751
  657MOL0     H86676   5.578  10.129   1.904  1.2743 -0.9497 -1.1966
  657MOL0     H86677   5.409  10.226   2.041 -0.4181  1.4171 -0.2753
  657MOL0     H86678   5.354  10.405   2.291 -1.9870 -0.0869 -2.0086
  657MOL0     H86679   5.368  10.307   2.440  4.0682  0.6155 -0.3827
  657MOL0     H86680   5.227  10.131   2.262  1.5412  0.5251  0.4469
  657MOL0     H86681   5.182  10.297   2.210  0.0449  0.5557  0.2016
  657MOL0     H86682   5.142  10.170   2.480 -2.6103 -1.8003 -1.6673
  657MOL0     H86683   5.142  10.350   2.459  0.2379 -0.4538 -0.9502
  657MOL0     H86684   4.960  10.144   2.309 -0.7221  0.1475 -1.5703
  657MOL0     H86685   4.974  10.320   2.279  0.4082  3.0405  2.4677
  657MOL0     H86686   4.746  10.291   2.243 -0.2491 -1.5399 -1.3782
  657MOL0     H86687   4.505  10.216   2.219  1.7014  0.1498 -0.9585
  657MOL0     H86688   4.155   9.890   2.370  0.8806  1.6092 -0.3619
  657MOL0     H86689   3.920   9.828   2.380 -0.2762 -0.6149  1.2327
  657MOL0     H86690   3.690   9.765   2.433 -1.4258 -0.3219  1.0628
  657MOL0     H86691   3.685   9.924   2.338  1.9535  0.0301  1.5411
  657MOL0     H86692   3.465   9.972   2.417 -0.6087  0.3037  2.4383
  657MOL0     H86693   3.497   9.873   2.561  0.9560  2.7443  0.6801
  657MOL0     H86694   3.483   9.658   2.426  0.6050 -0.4857 -1.9854
  657MOL0     H86695   3.433   9.751   2.287 -3.3275  3.2876 -0.7208
  657MOL0     H86696   3.291   9.787   2.545  3.2906 -1.0086  0.1775
  657MOL0     H86697   3.238   9.832   2.383  1.5734  2.6564  1.7985
  657MOL0     H86698   3.271   9.576   2.531 -0.8943 -2.8042 -1.0157
  657MOL0     H86699   3.254   9.570   2.351  0.1433  1.4784 -1.2009
  657MOL0     H86700   3.028   9.644   2.360  0.0128  2.4600 -0.7352
  657MOL0     H86701   3.053   9.721   2.513 -1.3656  1.4898 -2.1743
  657MOL0     H86702   3.073   9.425   2.433  1.2695 -0.2841  0.5077
  657MOL0     H86703   3.076   9.467   2.606  0.4313 -0.5023  0.0394
  657MOL0     H86704   2.863   9.374   2.525  0.0423 -0.3553  1.1478
  657MOL0     H86705   2.822   9.524   2.449 -1.4796 -1.8090  0.4635
  657MOL0     H86706   3.849  10.138   2.677  3.0715  0.9527  2.7659
  657MOL0     H86707   4.077  10.198   2.663 -0.0196  0.9592 -1.4832
  657MOL0     H86708   4.482  10.158   2.640  2.3249 -4.3622  1.3828
  657MOL0     H86709   4.735  10.213   2.652  1.5358 -0.5829 -0.7979
  657MOL0     H86710   6.692  10.213   1.815 -0.0877 -2.9581  2.3306
  657MOL0     H86711   6.915  10.242   1.800  1.7105 -0.7230 -1.0411
  657MOL0     H86712   7.315  10.257   1.507  1.8896  0.7658 -1.7778
  657MOL0     H86713   7.560  10.304   1.520 -1.8903  1.2824  0.5774
  657MOL0     H86714   7.805  10.083   1.805 -0.1674 -0.1996  1.6478
  657MOL0     H86715   7.757  10.207   1.929 -0.3315  1.5729  0.2690
  657MOL0     H86716   7.986  10.219   1.903 -0.2951 -0.0536 -0.3694
  657MOL0     H86717   7.976  10.233   1.728  0.7265 -0.8421  0.3018
  657MOL0     H86718   7.846  10.451   1.904  0.4616 -0.6652 -0.0472
  657MOL0     H86719   7.881  10.452   1.729 -0.4637 -2.2233 -1.2883
  657MOL0     H86720   8.093  10.434   1.952 -2.2688 -0.5300  0.2911
  657MOL0     H86721   8.128  10.461   1.779 -1.5661 -0.0799 -2.4451
  657MOL0     H86722   8.022  10.858   1.889 -1.2773  0.1014  0.6419
  657MOL0     H86723   7.575  10.075   1.884  0.4687 -0.8990  0.8805
  657MOL0     H86724   7.341  10.048   1.881  1.9430 -1.0852  0.6069
  658MOL0     O86725   4.408  10.324   7.250  0.2042 -0.1930 -0.0870
  658MOL0     C86726   4.453  10.385   7.148  0.4141  1.1833 -0.0146
  658MOL0     O86727   4.388  10.471   7.070  0.0169 -0.1874 -0.0717
  658MOL0     C86728   4.267  10.520   7.109  1.1188 -0.8352 -1.1645
  658MOL0     C86729   4.256  10.651   7.154 -0.1431 -0.1456 -0.4376
  658MOL0     C86730   4.129  10.706   7.198 -0.1663  0.4143  0.4521
  658MOL0     C86731   4.019  10.620   7.199 -0.1338  0.0645 -0.4683
  658MOL0     O86732   3.905  10.688   7.234 -0.3357 -0.1529  0.2088
  658MOL0     C86733   3.782  10.608   7.240  0.0259 -0.1112 -0.0130
  658MOL0     C86734   3.668  10.696   7.266  0.2228 -0.8268  0.3974
  658MOL0     C86735   3.535  10.626   7.290 -0.2285  1.1942  0.3952
  658MOL0     C86736   3.518  10.559   7.424  0.1302 -0.4311 -0.2111
  658MOL0     C86737   3.511  10.664   7.537  0.2795  0.2011  1.0434
  658MOL0     C86738   3.382  10.741   7.542  0.2144 -0.6113 -0.6191
  658MOL0     C86739   3.379  10.846   7.658 -0.4915 -0.1885 -0.2165
  658MOL0     C86740   3.255  10.928   7.663  0.3418  0.8813  0.4972
  658MOL0     N86741   3.135  10.855   7.697  1.3160 -0.4674 -0.6354
  658MOL0     C86742   3.114  10.807   7.825 -0.5232 -0.2702  0.4678
  658MOL0     C86743   3.020  10.714   7.810  0.0398 -0.1392  0.4975
  658MOL0     C86744   2.974  10.628   7.923 -0.9162  0.4404 -0.1517
  658MOL0     C86745   2.825  10.661   7.963 -0.9246 -0.2883  0.2260
  658MOL0     C86746   2.774  10.592   8.089  0.4501 -0.4076  0.5199
  658MOL0     C86747   2.625  10.597   8.111  0.3596 -0.0747  0.0330
  658MOL0     O86748   2.558  10.509   8.015  0.8533 -0.6937 -0.0806
  658MOL0     C86749   2.424  10.484   8.025  1.3208  0.0976  0.9523
  658MOL0     C86750   2.359  10.423   7.916  0.2038  0.3763  0.4149
  658MOL0     C86751   2.227  10.377   7.933 -0.1237 -0.3550  0.5066
  658MOL0     C86752   2.157  10.394   8.048  0.6178  0.9181 -0.8056
  658MOL0     C86753   2.012  10.338   8.056  0.0151 -0.0840 -0.2595
  658MOL0     O86754   1.969  10.252   7.953  0.1814  0.8359  0.1715
  658MOL0     C86755   1.840  10.208   7.913  0.1673 -0.7850 -0.5262
  658MOL0     C86756   1.835  10.114   7.811  0.1165 -1.3313  0.2763
  658MOL0     C86757   1.720  10.068   7.755 -0.3572 -0.4207 -0.4144
  658MOL0     C86758   1.601  10.109   7.807 -1.0052 -0.0637 -0.3461
  658MOL0     O86759   1.488  10.070   7.743  0.3364 -0.7789  0.5743
  658MOL0     C86760   1.382  10.024   7.826  0.3651 -0.5016 -0.0042
  658MOL0     C86761   1.322   9.898   7.759  0.2837 -0.4484  0.7520
  658MOL0     C86762   1.275   9.941   7.623  0.6698  0.6948  0.1250
  658MOL0     C86763   1.198   9.826   7.556 -0.2879 -0.0899  0.6312
  658MOL0     C86764   1.157   9.866   7.410 -0.3705  0.6437  0.5191
  658MOL0     C86765   1.046   9.977   7.391  0.2758 -1.0521 -0.1757
  658MOL0     C86766   0.899   9.940   7.430 -1.3460  0.8200 -0.3378
  658MOL0     C86767   0.828  10.059   7.501 -0.1860  0.4223  0.2287
  658MOL0    Cl86768   0.686  10.018   7.584  0.1449  0.0972 -0.1188
  658MOL0     C86769   1.601  10.209   7.904  0.6727  0.1947  0.7346
  658MOL0     C86770   1.720  10.259   7.961  0.3527 -0.9874 -0.0012
  658MOL0     O86771   1.943  10.362   8.154 -0.2444  0.3155 -0.0577
  658MOL0     C86772   2.215  10.461   8.157  0.2366 -1.0045 -0.0289
  658MOL0     C86773   2.347  10.515   8.134  0.2617  0.1729 -0.1264
  658MOL0     N86774   2.978  10.708   7.676  0.2298  0.0405 -0.6000
  658MOL0     N86775   3.053  10.786   7.613  0.4898  1.0179  1.0260
  658MOL0     C86776   4.032  10.485   7.164  0.1846  0.1850  0.6349
  658MOL0     C86777   4.148  10.445   7.109  0.7417  0.3206 -0.1294
  658MOL0     C86778   4.596  10.367   7.113 -0.1901  0.1402 -0.2899
  658MOL0     C86779   4.662  10.244   7.153 -0.3500  0.0602  0.2891
  658MOL0     C86780   4.801  10.246   7.134 -0.1207 -0.3436 -0.4978
  658MOL0     C86781   4.867  10.358   7.080 -0.9981 -0.6283  0.0409
  658MOL0     O86782   5.004  10.337   7.073 -0.7979  1.0810  0.2717
  658MOL0     C86783   5.080  10.433   6.999  1.0430  0.1211  0.2958
  658MOL0     C86784   5.220  10.382   6.958  1.1602 -0.0007 -0.9685
  658MOL0     C86785   5.199  10.257   6.872  0.5026  0.4756  0.5179
  658MOL0     C86786   5.332  10.213   6.809 -0.1491  0.3455  0.4221
  658MOL0     C86787   5.374  10.310   6.707  0.1657 -0.3655  0.7193
  658MOL0     C86788   5.414  10.381   6.617  0.2617 -0.1538 -0.1948
  658MOL0     C86789   4.801  10.464   7.032 -0.4323  0.2401 -1.3910
  658MOL0     C86790   4.662  10.472   7.039 -0.0835  0.4385 -0.3642
  658MOL0     H86791   4.335  10.726   7.152  0.6950 -0.9577 -3.9890
  658MOL0     H86792   4.110  10.808   7.229  2.2175  0.4812  2.0086
  658MOL0     H86793   3.794  10.546   7.329  3.2392  1.1440  0.5923
  658MOL0     H86794   3.782  10.554   7.145 -0.0985 -0.1362  0.0020
  658MOL0     H86795   3.653  10.749   7.171 -1.0450  1.3234  1.7131
  658MOL0     H86796   3.682  10.783   7.331 -2.5496 -1.0692  1.4516
  658MOL0     H86797   3.529  10.548   7.214 -1.9110  2.2705 -0.6283
  658MOL0     H86798   3.448  10.689   7.272 -3.3387 -2.9459 -0.5516
  658MOL0     H86799   3.431  10.492   7.425 -0.4482  0.3018 -0.3858
  658MOL0     H86800   3.607  10.497   7.434 -0.3916 -1.1023  0.3726
  658MOL0     H86801   3.603  10.723   7.531  0.1905  0.2577  0.2302
  658MOL0     H86802   3.500  10.611   7.632 -2.2670 -0.0476  0.6838
  658MOL0     H86803   3.296  10.675   7.539 -0.9261  0.8448 -2.5564
  658MOL0     H86804   3.371  10.788   7.443 -0.5840 -2.6387 -1.5465
  658MOL0     H86805   3.415  10.804   7.752  2.4590  1.0246 -0.6830
  658MOL0     H86806   3.467  10.912   7.648  2.6679 -4.0059 -0.1274
  658MOL0     H86807   3.240  10.978   7.567 -1.3308  0.7706  0.6747
  658MOL0     H86808   3.266  11.016   7.728 -2.1700  0.8274  1.1025
  658MOL0     H86809   3.173  10.839   7.910  0.0401  0.9386 -0.3332
  658MOL0     H86810   3.040  10.652   8.006  1.1722 -1.1854 -1.2547
  658MOL0     H86811   2.994  10.524   7.896  4.1857  0.9498  0.6929
  658MOL0     H86812   2.757  10.623   7.887 -1.6404 -2.8497  2.0178
  658MOL0     H86813   2.822  10.767   7.993  1.4745  0.2881 -1.2954
  658MOL0     H86814   2.815  10.490   8.089 -0.2818 -0.7207 -0.5811
  658MOL0     H86815   2.829  10.648   8.164  1.9262 -2.5475  1.1258
  658MOL0     H86816   2.592  10.702   8.117 -2.4169 -0.8973  0.5046
  658MOL0     H86817   2.604  10.559   8.212 -3.0401 -2.7807 -1.4991
  658MOL0     H86818   2.413  10.403   7.824 -2.1719 -0.6627 -0.8632
  658MOL0     H86819   2.181  10.326   7.849  0.9957  0.2433 -0.5000
  658MOL0     H86820   1.932  10.077   7.779  0.9968  1.1899 -0.2161
  658MOL0     H86821   1.723   9.991   7.679  0.2895 -0.6389 -0.1830
  658MOL0     H86822   1.312  10.107   7.842  2.8954  1.2435  3.3472
  658MOL0     H86823   1.425   9.997   7.922  2.9670 -1.6723 -1.4030
  658MOL0     H86824   1.239   9.850   7.812  0.5968 -1.9677 -0.0535
  658MOL0     H86825   1.404   9.827   7.746  1.7469  0.7757  2.7718
  658MOL0     H86826   1.359   9.981   7.565  1.3894  0.5520  1.0527
  658MOL0     H86827   1.207  10.024   7.645  1.2124  0.5318  2.6678
  658MOL0     H86828   1.267   9.742   7.542 -1.3488 -0.7927 -0.6206
  658MOL0     H86829   1.114   9.784   7.613 -0.0190  1.4457  2.2545
  658MOL0     H86830   1.127   9.777   7.353 -1.5789  2.1461 -1.3595
  658MOL0     H86831   1.242   9.903   7.352 -1.1593 -0.8459 -1.7470
  658MOL0     H86832   1.040  10.008   7.287 -1.0266  0.2544  0.2503
  658MOL0     H86833   1.073  10.064   7.452 -1.4194 -0.1532 -0.6272
  658MOL0     H86834   0.837   9.909   7.346 -0.9982  2.0525 -1.0774
  658MOL0     H86835   0.902   9.853   7.497 -1.0259 -0.4003 -1.8787
  658MOL0     H86836   0.809  10.138   7.427  2.4522  1.8905  0.9766
  658MOL0     H86837   0.894  10.099   7.578  0.6254 -0.2018 -0.1285
  658MOL0     H86838   1.501  10.244   7.926 -0.2643  0.0785 -2.7890
  658MOL0     H86839   1.730  10.340   8.033  1.4632  0.6148 -1.8709
  658MOL0     H86840   2.171  10.494   8.250  1.1338 -1.8784  0.7295
  658MOL0     H86841   2.385  10.574   8.217 -1.0551  0.9212 -0.0236
  658MOL0     H86842   3.947  10.417   7.166  0.5299 -0.2431  2.1931
  658MOL0     H86843   4.138  10.354   7.051 -4.2723  0.6541 -0.2787
  658MOL0     H86844   4.603  10.161   7.192  0.0110  0.5915  2.0694
  658MOL0     H86845   4.851  10.156   7.167 -1.3557 -1.0767 -0.5921
  658MOL0     H86846   5.097  10.522   7.061  0.6067  1.5101 -1.4969
  658MOL0     H86847   5.031  10.469   6.908 -0.7182  0.9323  1.5045
  658MOL0     H86848   5.271  10.462   6.904  1.8712  0.8803  0.9012
  658MOL0     H86849   5.267  10.361   7.055 -1.2891  1.6384  0.6946
  658MOL0     H86850   5.115  10.274   6.805 -2.7422  0.2876  4.2235
  658MOL0     H86851   5.174  10.178   6.943  1.2122  0.2887  0.5675
  658MOL0     H86852   5.402  10.215   6.893 -1.3802 -1.0136  1.5530
  658MOL0     H86853   5.337  10.114   6.763  1.4268  0.5948  0.0128
  658MOL0     H86854   5.442  10.451   6.541  0.3155 -0.2185 -0.2348
  658MOL0     H86855   4.854  10.547   6.986  0.9666  1.3055  1.8812
  658MOL0     H86856   4.611  10.556   6.993  0.7479  1.1041 -0.0749
  659MOL0     O86857  10.984   2.051   6.327  0.1585 -0.8354  0.2055
  659MOL0     C86858  10.960   2.079   6.209 -1.0257  0.4053 -0.5157
  659MOL0     O86859  11.060   2.133   6.128  0.5697 -0.0133  0.0178
  659MOL0     C86860  11.182   2.169   6.184 -0.5262 -0.2662 -0.2760
  659MOL0     C86861  11.293   2.086   6.182  0.0729  0.3936  1.2191
  659MOL0     C86862  11.416   2.150   6.228 -0.3475  0.4608  0.6992
  659MOL0     C86863  11.412   2.271   6.302 -0.0943  0.2981  0.5189
  659MOL0     O86864  11.528   2.289   6.375 -0.5376 -0.7322  0.8292
  659MOL0     C86865  11.569   2.423   6.392  0.1421 -0.4167 -0.0585
  659MOL0     C86866  11.681   2.447   6.489 -0.0804 -0.1537 -0.8173
  659MOL0     C86867  11.813   2.383   6.457  0.0182 -0.5475 -1.0429
  659MOL0     C86868  11.920   2.412   6.561  0.0832 -0.1017  1.1376
  659MOL0     C86869  11.991   2.550   6.553 -0.5109 -0.5640 -0.0387
  659MOL0     C86870  12.058   2.587   6.416  0.6319  0.3314  0.5968
  659MOL0     C86871  12.169   2.496   6.382  0.8067  0.3346 -0.1018
  659MOL0     C86872  12.128   2.382   6.286  0.3064  0.0044 -1.0679
  659MOL0     N86873  12.237   2.324   6.209  0.4740 -0.0869  0.5298
  659MOL0     C86874  12.318   2.224   6.255 -0.2964  0.6194 -0.4137
  659MOL0     C86875  12.412   2.203   6.159 -0.5060  0.3671 -0.6828
  659MOL0     C86876  12.517   2.097   6.166 -0.7247  0.2482 -0.0473
  659MOL0     C86877  12.464   1.957   6.132  0.0093 -0.3442  1.8905
  659MOL0     C86878  12.390   1.890   6.252 -1.2931 -0.4382 -0.6547
  659MOL0     C86879  12.284   1.783   6.211 -0.4463 -0.7228  0.7060
  659MOL0     O86880  12.235   1.725   6.328 -0.8490  0.2567 -0.5169
  659MOL0     C86881  12.159   1.610   6.305  0.6670  0.5520 -0.5730
  659MOL0     C86882  12.094   1.578   6.173  0.5293 -0.9169 -0.5930
  659MOL0     C86883  12.016   1.460   6.161 -0.0121 -0.9483  0.0685
  659MOL0     C86884  12.009   1.369   6.267  0.3824 -0.5097  0.9388
  659MOL0     C86885  11.937   1.236   6.246  0.0418  0.1139  0.4408
  659MOL0     O86886  11.830   1.241   6.165  0.1019 -0.2003  0.6395
  659MOL0     C86887  11.772   1.124   6.115  0.5339  0.1260  0.3714
  659MOL0     C86888  11.631   1.127   6.097  1.2234 -0.0171 -0.2659
  659MOL0     C86889  11.569   1.009   6.062 -0.0893  0.7123  0.4989
  659MOL0     C86890  11.648   0.896   6.014  1.2562  0.1523  0.4128
  659MOL0     O86891  11.590   0.777   5.973 -0.4214 -0.1862  0.0358
  659MOL0     C86892  11.450   0.753   5.967  0.1305 -0.6655 -0.4001
  659MOL0     C86893  11.403   0.776   5.819  0.3563  0.5339 -1.6033
  659MOL0     C86894  11.249   0.796   5.804  0.0969  0.1950  0.3224
  659MOL0     C86895  11.178   0.657   5.817 -0.1030 -0.2149 -0.4686
  659MOL0     C86896  11.031   0.671   5.782  0.1025  0.9404 -0.1395
  659MOL0     C86897  10.963   0.523   5.784 -0.9470 -0.3951  0.0493
  659MOL0     C86898  10.811   0.521   5.786 -0.3758  0.0015  0.9736
  659MOL0     C86899  10.764   0.595   5.656 -0.0446  0.4490 -0.0975
  659MOL0    Cl86900  10.810   0.516   5.499 -0.3739 -0.2104  0.3092
  659MOL0     C86901  11.787   0.909   6.017 -0.0955 -0.0268  0.4747
  659MOL0     C86902  11.852   1.017   6.069  0.0738  0.6175  0.1133
  659MOL0     O86903  11.971   1.137   6.310  0.5040  0.1736 -0.3976
  659MOL0     C86904  12.054   1.414   6.393 -0.8283  0.3974 -0.6794
  659MOL0     C86905  12.129   1.528   6.413 -0.4255 -1.0877 -0.5944
  659MOL0     N86906  12.386   2.287   6.054  0.3644 -1.0206 -0.7604
  659MOL0     N86907  12.282   2.353   6.083  0.1747 -0.1485  0.1820
  659MOL0     C86908  11.297   2.344   6.312 -0.1705 -0.6522  0.1150
  659MOL0     C86909  11.181   2.297   6.245 -0.9108  0.6172 -0.3355
  659MOL0     C86910  10.822   2.045   6.169 -0.2923  0.5701 -0.3624
  659MOL0     C86911  10.718   2.021   6.256 -0.1047 -0.4311  0.0460
  659MOL0     C86912  10.587   1.993   6.220 -0.0214 -0.9677 -0.2087
  659MOL0     C86913  10.560   1.991   6.089 -0.0942 -0.1523 -0.5290
  659MOL0     O86914  10.426   1.987   6.040 -0.0345  0.4323 -1.4626
  659MOL0     C86915  10.318   1.935   6.126 -0.8383 -0.1390 -0.2593
  659MOL0     C86916  10.188   1.927   6.053  0.2273 -0.2766  0.3021
  659MOL0     C86917  10.070   1.868   6.130  0.2770 -0.2497 -0.1899
  659MOL0     C86918   9.995   1.966   6.220  0.0997 -0.0771 -0.7805
  659MOL0     C86919  10.060   1.940   6.347  0.1905  0.0532  0.7815
  659MOL0     C86920  10.116   1.926   6.455  0.6975 -0.2682 -0.1825
  659MOL0     C86921  10.660   2.028   5.997 -0.1015 -0.4220  1.5447
  659MOL0     C86922  10.794   2.049   6.031  0.3271  0.2785 -0.2518
  659MOL0     H86923  11.294   1.993   6.126 -0.4244  1.9189 -1.4711
  659MOL0     H86924  11.513   2.101   6.220  1.0373  3.1525 -0.2729
  659MOL0     H86925  11.486   2.480   6.436  2.0945  2.3995  0.2529
  659MOL0     H86926  11.595   2.476   6.300 -3.5545  0.2919 -0.8616
  659MOL0     H86927  11.658   2.423   6.594 -0.1983 -2.8415 -1.3808
  659MOL0     H86928  11.699   2.554   6.478  3.4346 -0.6867 -1.2825
  659MOL0     H86929  11.846   2.406   6.356 -1.0564 -1.2785 -1.5814
  659MOL0     H86930  11.787   2.276   6.459  0.3196 -0.6973 -2.9734
  659MOL0     H86931  11.876   2.404   6.661  1.9823 -0.6188  1.9619
  659MOL0     H86932  11.995   2.333   6.553  1.1649  0.5402  3.9391
  659MOL0     H86933  12.069   2.543   6.629  0.3529 -2.5030 -1.0209
  659MOL0     H86934  11.919   2.628   6.580  0.4608  1.2358 -2.3615
  659MOL0     H86935  12.105   2.685   6.419  3.0935 -0.6865 -1.3883
  659MOL0     H86936  11.981   2.603   6.339 -1.4892 -0.3134  2.4636
  659MOL0     H86937  12.236   2.562   6.326 -0.1259  0.6105 -0.9424
  659MOL0     H86938  12.214   2.462   6.476 -0.8410 -0.2320  0.5138
  659MOL0     H86939  12.070   2.429   6.207 -0.7018 -3.4878 -2.6130
  659MOL0     H86940  12.063   2.313   6.341 -1.4429  1.3567 -1.3768
  659MOL0     H86941  12.327   2.174   6.351  4.5147 -1.1966 -1.5059
  659MOL0     H86942  12.538   2.096   6.273 -2.8515 -0.3218  0.4154
  659MOL0     H86943  12.603   2.137   6.111 -1.8555 -1.1796 -3.0995
  659MOL0     H86944  12.542   1.900   6.083 -1.4317 -0.4846 -0.3821
  659MOL0     H86945  12.383   1.965   6.059  1.0769  0.1091  0.7282
  659MOL0     H86946  12.462   1.837   6.315 -1.8421 -2.9457 -2.0244
  659MOL0     H86947  12.338   1.964   6.313 -0.0921  0.4458 -0.6708
  659MOL0     H86948  12.329   1.710   6.143 -1.9231 -0.3636 -0.7147
  659MOL0     H86949  12.203   1.833   6.158 -1.6157  0.1458  3.1497
  659MOL0     H86950  12.098   1.638   6.083 -0.6430 -0.3898 -0.3055
  659MOL0     H86951  11.972   1.446   6.064 -0.5998 -1.6715  0.4374
  659MOL0     H86952  11.574   1.215   6.123  1.7141  0.4207 -0.6546
  659MOL0     H86953  11.461   1.008   6.051 -0.0104  2.7049 -0.9219
  659MOL0     H86954  11.391   0.815   6.034 -0.8120  1.7316 -3.2788
  659MOL0     H86955  11.426   0.648   5.990  0.1452 -0.6626 -0.3709
  659MOL0     H86956  11.446   0.696   5.758  0.0047 -0.9094  0.0051
  659MOL0     H86957  11.448   0.874   5.798  1.5297  0.7772  1.5702
  659MOL0     H86958  11.242   0.831   5.700  0.3261  1.6516  0.7812
  659MOL0     H86959  11.210   0.867   5.877  0.0759 -0.2253  0.7239
  659MOL0     H86960  11.232   0.583   5.756  0.3989 -0.1289 -0.1348
  659MOL0     H86961  11.176   0.633   5.924  0.9343 -0.3988 -0.4789
  659MOL0     H86962  11.028   0.703   5.677  0.6454 -0.6141 -0.6595
  659MOL0     H86963  10.976   0.743   5.843  1.1940  0.7975  1.0668
  659MOL0     H86964  10.988   0.471   5.876  1.8294  1.4052  0.4176
  659MOL0     H86965  11.015   0.462   5.709  1.1490 -1.3375  2.1575
  659MOL0     H86966  10.784   0.415   5.789 -1.2060  0.1741  0.1208
  659MOL0     H86967  10.783   0.573   5.878 -1.5069 -1.9940  1.8244
  659MOL0     H86968  10.798   0.699   5.650 -0.6961  0.6765  0.0681
  659MOL0     H86969  10.655   0.592   5.664  0.0580 -1.1051  1.2683
  659MOL0     H86970  11.839   0.823   5.976 -0.3162  0.5397 -1.0922
  659MOL0     H86971  11.959   1.022   6.083 -0.0219  2.5015  0.4558
  659MOL0     H86972  12.043   1.350   6.481  0.2894  0.7398 -0.2733
  659MOL0     H86973  12.184   1.536   6.506 -0.9811 -3.0261 -0.0496
  659MOL0     H86974  11.287   2.433   6.374  1.3816  0.1557 -0.7203
  659MOL0     H86975  11.089   2.346   6.274 -1.3648 -1.2851  1.6711
  659MOL0     H86976  10.737   2.029   6.363 -0.3812 -0.2935  0.0859
  659MOL0     H86977  10.511   1.987   6.298  1.7943 -6.1315  1.5948
  659MOL0     H86978  10.304   2.002   6.210  1.8370  2.2957 -1.5914
  659MOL0     H86979  10.343   1.839   6.172 -1.7836  0.3032  1.2261
  659MOL0     H86980  10.155   2.027   6.023  1.4394 -0.6195 -2.6147
  659MOL0     H86981  10.190   1.874   5.957 -1.2996  2.2277 -1.2196
  659MOL0     H86982  10.104   1.777   6.180 -4.0005 -2.0970 -0.1668
  659MOL0     H86983   9.991   1.842   6.058  0.5000 -0.4773 -0.3527
  659MOL0     H86984  10.014   2.073   6.204  2.2141 -0.1009  1.1208
  659MOL0     H86985   9.888   1.945   6.224  0.3503 -1.3004  0.1535
  659MOL0     H86986  10.158   1.917   6.553 -0.1700 -1.2387  0.1102
  659MOL0     H86987  10.622   2.045   5.897  0.8037  0.6925  1.3649
  659MOL0     H86988  10.873   2.085   5.965 -0.3676  1.3448 -0.5213
  660MOL0     O86989   8.797   6.136   8.955  0.5034 -0.0599  0.0912
  660MOL0     C86990   8.801   6.023   8.996 -1.0901  0.0448 -0.1110
  660MOL0     O86991   8.691   5.955   9.052  0.3721 -0.0461  0.2458
  660MOL0     C86992   8.571   6.007   9.040  0.5867  0.4377 -0.3810
  660MOL0     C86993   8.469   5.937   8.973  0.3288 -0.2767 -0.1476
  660MOL0     C86994   8.339   5.987   8.984  0.0098 -0.2024  0.0746
  660MOL0     C86995   8.309   6.121   9.034 -0.4990 -0.4125  0.2245
  660MOL0     O86996   8.181   6.165   9.006 -0.3092 -0.0644  0.4046
  660MOL0     C86997   8.158   6.306   9.034 -0.3117  0.2653  0.2490
  660MOL0     C86998   8.015   6.349   8.990 -0.4632  1.1795  0.3155
  660MOL0     C86999   7.908   6.269   9.066 -0.0696  0.3219 -0.4922
  660MOL0     C87000   7.885   6.144   9.000 -0.5479 -0.0513 -0.0258
  660MOL0     C87001   7.787   6.058   9.080  1.1929  0.7819 -0.0361
  660MOL0     C87002   7.645   6.120   9.074 -0.4471 -0.1126  0.1005
  660MOL0     C87003   7.544   6.018   9.148 -0.4332  0.0939  1.1938
  660MOL0     C87004   7.401   6.065   9.142 -0.8668  0.3485  0.9962
  660MOL0     N87005   7.350   6.060   8.997 -0.5735  0.8123 -0.7444
  660MOL0     C87006   7.297   5.952   8.937  0.2313  0.7275  0.3883
  660MOL0     C87007   7.268   5.990   8.816  0.4803  0.9220 -0.5054
  660MOL0     C87008   7.204   5.904   8.712  0.0635  0.1533  1.1531
  660MOL0     C87009   7.052   5.906   8.712 -0.2780  0.0947  0.6420
  660MOL0     C87010   6.993   5.798   8.633 -0.4888 -0.2946  0.1706
  660MOL0     C87011   6.843   5.783   8.659  0.3426 -0.6279 -0.6836
  660MOL0     O87012   6.806   5.724   8.786 -0.7904  0.2323 -0.8048
  660MOL0     C87013   6.675   5.673   8.776 -0.1248  1.0344  0.5057
  660MOL0     C87014   6.581   5.718   8.866  1.0954 -0.1324  0.2514
  660MOL0     C87015   6.446   5.669   8.868 -0.2970 -0.1743 -1.1622
  660MOL0     C87016   6.413   5.557   8.778 -0.5623  0.2042  0.1423
  660MOL0     C87017   6.281   5.498   8.782  0.8593 -0.1239  0.4101
  660MOL0     O87018   6.206   5.542   8.887  0.2141 -0.1859 -0.8528
  660MOL0     C87019   6.090   5.471   8.915  0.0382 -0.7059  0.9553
  660MOL0     C87020   5.969   5.544   8.922  0.2665  0.4526 -0.6176
  660MOL0     C87021   5.849   5.477   8.927  0.2681  0.2633  0.3229
  660MOL0     C87022   5.845   5.340   8.953 -0.2832  1.0266 -0.7293
  660MOL0     O87023   5.728   5.263   8.955 -0.2041  0.1731  0.9328
  660MOL0     C87024   5.612   5.343   8.953  0.1284 -0.2397 -0.0842
  660MOL0     C87025   5.490   5.255   8.964 -0.4589  0.4608 -0.0278
  660MOL0     C87026   5.467   5.176   8.837  0.3351 -0.0536 -0.3445
  660MOL0     C87027   5.330   5.114   8.849  0.6517 -0.6284  0.2641
  660MOL0     C87028   5.265   5.104   8.710 -0.1005 -0.5125  0.5544
  660MOL0     C87029   5.331   5.004   8.617 -0.0108  0.4585 -0.0252
  660MOL0     C87030   5.269   4.868   8.599  0.1401  0.0484 -0.5320
  660MOL0     C87031   5.135   4.862   8.519  0.2318 -0.1810 -0.6914
  660MOL0    Cl87032   5.143   4.938   8.355  0.1300 -0.0359  0.4003
  660MOL0     C87033   5.965   5.268   8.955 -1.0333 -0.1979  0.5040
  660MOL0     C87034   6.083   5.337   8.943  0.0145  0.2068  0.6789
  660MOL0     O87035   6.251   5.413   8.694  0.0174 -0.7721  0.0347
  660MOL0     C87036   6.504   5.517   8.680 -0.8466  0.1882 -0.1715
  660MOL0     C87037   6.636   5.585   8.678 -0.2700  0.3499  0.0131
  660MOL0     N87038   7.323   6.116   8.795  0.5042  0.0262  0.3078
  660MOL0     N87039   7.358   6.162   8.909 -0.6788  0.1677  0.7614
  660MOL0     C87040   8.414   6.193   9.092  0.8576  1.0808 -0.0424
  660MOL0     C87041   8.540   6.132   9.102  0.0872  0.6229 -0.8099
  660MOL0     C87042   8.918   5.934   8.985  0.4686 -0.3040  0.2791
  660MOL0     C87043   8.927   5.801   9.041 -0.2709 -0.1302  0.0904
  660MOL0     C87044   9.044   5.720   9.038 -0.9219 -0.1828 -0.4175
  660MOL0     C87045   9.163   5.765   8.969  0.5045 -0.3696  0.9144
  660MOL0     O87046   9.275   5.686   8.954  0.2203 -0.1604  0.1476
  660MOL0     C87047   9.290   5.576   9.045 -0.0792  0.0140  0.0073
  660MOL0     C87048   9.414   5.500   8.988  0.2368  0.6954  0.6504
  660MOL0     C87049   9.544   5.582   9.001 -0.0537 -0.1295  0.1480
  660MOL0     C87050   9.659   5.511   8.931  0.5924 -0.1537 -0.7878
  660MOL0     C87051   9.703   5.386   8.992  0.7474 -0.9728  0.9970
  660MOL0     C87052   9.737   5.289   9.055 -1.7094  0.1018 -0.1583
  660MOL0     C87053   9.151   5.901   8.918 -0.8102  0.6099  0.4238
  660MOL0     C87054   9.037   5.985   8.937 -0.1960  0.3320 -0.1582
  660MOL0     H87055   8.492   5.846   8.917 -0.4502 -0.4172 -0.2521
  660MOL0     H87056   8.258   5.922   8.956 -0.5066 -0.0203  1.0964
  660MOL0     H87057   8.238   6.349   8.973  0.8201 -3.9901 -1.7096
  660MOL0     H87058   8.170   6.340   9.137 -0.2792  3.7695 -0.7750
  660MOL0     H87059   8.003   6.325   8.885 -1.5476 -2.3985  1.1249
  660MOL0     H87060   8.019   6.457   9.010  0.4767  0.9001  1.8581
  660MOL0     H87061   7.821   6.335   9.067 -1.8614 -1.9255  0.5499
  660MOL0     H87062   7.938   6.260   9.170  3.6292  3.7208 -1.0241
  660MOL0     H87063   7.847   6.162   8.899  2.3528  0.0875 -1.1938
  660MOL0     H87064   7.977   6.084   8.995  0.4979  1.1012  2.7779
  660MOL0     H87065   7.823   6.053   9.183 -0.5609  1.2207  0.6436
  660MOL0     H87066   7.780   5.959   9.034 -4.0715  0.7013  0.2629
  660MOL0     H87067   7.617   6.138   8.969  0.1048 -2.0109 -0.4107
  660MOL0     H87068   7.634   6.215   9.126 -0.2454  0.5711 -1.0688
  660MOL0     H87069   7.540   5.921   9.098  0.1361  0.3113  0.7199
  660MOL0     H87070   7.564   6.012   9.255 -1.7894 -0.7134  1.4299
  660MOL0     H87071   7.394   6.167   9.180  0.5127  0.3041  1.4231
  660MOL0     H87072   7.350   5.993   9.207  1.2142  0.8343  3.3019
  660MOL0     H87073   7.281   5.856   8.985  0.3086 -1.3900 -3.4240
  660MOL0     H87074   7.247   5.807   8.739  2.9312  2.0354  4.0861
  660MOL0     H87075   7.239   5.924   8.610 -1.4234 -3.0133 -0.1112
  660MOL0     H87076   7.017   6.000   8.669  2.4933 -0.2850 -2.9237
  660MOL0     H87077   7.025   5.898   8.818  0.1067  1.3324  0.8490
  660MOL0     H87078   7.007   5.812   8.526 -2.5398 -0.8809 -0.2186
  660MOL0     H87079   7.050   5.705   8.644 -0.3483 -0.3503 -0.9130
  660MOL0     H87080   6.808   5.724   8.574  3.7436 -1.9176 -1.3446
  660MOL0     H87081   6.801   5.884   8.654  1.4717  0.1356  2.5289
  660MOL0     H87082   6.621   5.785   8.941  0.6568 -0.4840  0.8135
  660MOL0     H87083   6.375   5.706   8.941  0.4259  1.1420 -1.0933
  660MOL0     H87084   5.977   5.651   8.907 -4.1190  0.9543 -0.5450
  660MOL0     H87085   5.761   5.540   8.932  1.8718  2.5694  1.2085
  660MOL0     H87086   5.595   5.410   8.868 -1.8284 -0.3676  0.1667
  660MOL0     H87087   5.617   5.414   9.036 -0.3277 -1.2007  0.7844
  660MOL0     H87088   5.400   5.315   8.980 -1.2460 -1.1540  2.1175
  660MOL0     H87089   5.497   5.176   9.040 -0.2850  0.0145 -0.5074
  660MOL0     H87090   5.532   5.088   8.833 -0.4401 -0.5940 -1.4402
  660MOL0     H87091   5.490   5.241   8.752  4.5211 -2.4360 -1.3125
  660MOL0     H87092   5.335   5.022   8.909 -1.2807 -1.1772 -0.3572
  660MOL0     H87093   5.267   5.182   8.908  1.6235 -0.5917  1.2915
  660MOL0     H87094   5.275   5.206   8.673  1.6874  0.3967  3.2610
  660MOL0     H87095   5.161   5.074   8.729 -0.0291 -1.8085 -0.9456
  660MOL0     H87096   5.439   4.997   8.635 -0.3616 -2.5887  1.3859
  660MOL0     H87097   5.320   5.051   8.518  1.0641  1.0103  0.1007
  660MOL0     H87098   5.349   4.812   8.552  2.3172  1.8214  0.8670
  660MOL0     H87099   5.249   4.823   8.697 -1.3800  1.9643  0.1174
  660MOL0     H87100   5.055   4.908   8.578  0.1958 -1.2203  0.1074
  660MOL0     H87101   5.106   4.757   8.510 -0.3139  0.1391 -3.2857
  660MOL0     H87102   5.973   5.161   8.968 -2.7670 -0.5226 -0.7819
  660MOL0     H87103   6.182   5.293   8.949 -1.1376 -2.8175 -0.7124
  660MOL0     H87104   6.478   5.447   8.602  1.5010  1.6265 -2.3865
  660MOL0     H87105   6.707   5.556   8.601  2.8604  2.0329  2.0230
  660MOL0     H87106   8.404   6.295   9.128  0.7010  0.9212  0.3743
  660MOL0     H87107   8.626   6.190   9.134  0.4871 -0.6219  0.4563
  660MOL0     H87108   8.851   5.755   9.103 -0.3895  0.4068  0.3499
  660MOL0     H87109   9.051   5.623   9.085  0.9698 -1.7263 -3.5380
  660MOL0     H87110   9.211   5.501   9.043  0.9569 -1.0827 -0.8969
  660MOL0     H87111   9.306   5.619   9.145  2.1884 -0.4751 -0.1008
  660MOL0     H87112   9.421   5.411   9.051  0.6800 -0.0376 -0.4004
  660MOL0     H87113   9.399   5.480   8.881  1.3123  1.2242  0.3847
  660MOL0     H87114   9.565   5.594   9.108  2.6163 -0.0412 -0.2985
  660MOL0     H87115   9.531   5.680   8.954 -5.4487 -0.1754  0.9721
  660MOL0     H87116   9.629   5.491   8.828  2.0700  0.5291 -1.3632
  660MOL0     H87117   9.750   5.571   8.940  1.5352 -1.4657 -1.2598
  660MOL0     H87118   9.766   5.202   9.112 -1.3120  0.9273  0.9404
  660MOL0     H87119   9.251   5.934   8.893  1.0351 -4.9217 -1.0061
  660MOL0     H87120   9.041   6.091   8.912  0.2247 -0.3316 -3.4600
  661MOL0     O87121   3.510   7.757   5.086  0.2756  0.2737 -0.0749
  661MOL0     C87122   3.584   7.658   5.088  0.6826 -0.7456  0.1737
  661MOL0     O87123   3.538   7.527   5.087  1.3681  0.4350 -0.1915
  661MOL0     C87124   3.407   7.509   5.080  0.0761  0.4820  0.1759
  661MOL0     C87125   3.342   7.542   4.970 -0.8661  0.9695 -0.7081
  661MOL0     C87126   3.196   7.532   4.960  0.0779 -0.0933 -0.1234
  661MOL0     C87127   3.120   7.471   5.062  0.2761 -0.0894 -0.7107
  661MOL0     O87128   2.984   7.458   5.055  0.0046 -0.1887 -0.5922
  661MOL0     C87129   2.946   7.349   4.972  0.3260  0.0223  0.6849
  661MOL0     C87130   2.796   7.359   4.941  0.4979 -0.4228 -0.5316
  661MOL0     C87131   2.748   7.238   4.871  0.4345 -0.5913  0.5493
  661MOL0     C87132   2.602   7.220   4.864 -0.6882  0.0847 -0.0456
  661MOL0     C87133   2.560   7.159   4.731 -0.4075 -0.4768  0.5938
  661MOL0     C87134   2.597   7.010   4.739 -0.2122 -0.6046  1.2835
  661MOL0     C87135   2.556   6.930   4.613 -0.1377  0.0987 -0.8071
  661MOL0     C87136   2.554   6.779   4.646 -0.2298 -0.2848  0.6775
  661MOL0     N87137   2.449   6.741   4.740 -0.0487  0.1276 -0.1010
  661MOL0     C87138   2.447   6.622   4.817 -0.0370  0.0607  0.2547
  661MOL0     C87139   2.318   6.604   4.857  0.1423 -1.0583 -0.2809
  661MOL0     C87140   2.266   6.478   4.926 -0.7361 -0.0089  0.2258
  661MOL0     C87141   2.374   6.379   4.946  0.0498 -0.9732  0.2844
  661MOL0     C87142   2.342   6.240   5.005 -0.4189 -0.0743  0.0431
  661MOL0     C87143   2.239   6.168   4.914  0.3160 -0.0259  0.9591
  661MOL0     O87144   2.293   6.121   4.788  0.9602  0.1810 -0.4636
  661MOL0     C87145   2.205   6.062   4.697  0.2614 -1.1229  0.2117
  661MOL0     C87146   2.270   6.009   4.580  0.3816  0.6883  0.2094
  661MOL0     C87147   2.195   5.954   4.481  0.3215 -0.4786 -0.5224
  661MOL0     C87148   2.060   5.930   4.498 -0.1023  0.5754 -0.1711
  661MOL0     C87149   1.978   5.839   4.411 -0.6095 -0.8149 -0.5108
  661MOL0     O87150   1.857   5.810   4.474 -0.4049 -0.0954 -0.4076
  661MOL0     C87151   1.781   5.713   4.412 -0.1556  0.2287 -0.1566
  661MOL0     C87152   1.774   5.585   4.461  0.0343  0.3004  0.2859
  661MOL0     C87153   1.701   5.486   4.390 -0.3648 -0.2815 -0.1029
  661MOL0     C87154   1.618   5.517   4.275  0.6079  0.4868 -0.1476
  661MOL0     O87155   1.558   5.415   4.213  0.2237  0.2875 -0.6190
  661MOL0     C87156   1.435   5.440   4.149  0.3454 -0.1207  0.0537
  661MOL0     C87157   1.371   5.309   4.088  0.5573  0.3123  1.0866
  661MOL0     C87158   1.244   5.323   4.004 -0.6467 -0.1278  0.0763
  661MOL0     C87159   1.189   5.183   3.959 -0.4998  0.5025 -0.0008
  661MOL0     C87160   1.066   5.139   4.041  0.7843 -0.5927  0.5246
  661MOL0     C87161   1.028   4.994   4.011  0.5867 -0.1674 -1.2237
  661MOL0     C87162   0.998   4.980   3.863 -0.2833  0.2903 -0.0248
  661MOL0     C87163   0.897   4.873   3.837 -0.4560 -0.5279 -0.2500
  661MOL0    Cl87164   0.975   4.715   3.884 -0.2524  0.1764 -0.5457
  661MOL0     C87165   1.626   5.646   4.233  0.2022 -0.2863 -0.5211
  661MOL0     C87166   1.703   5.746   4.289  0.1823 -0.7398 -0.5642
  661MOL0     O87167   2.018   5.793   4.306 -0.6370 -0.2594  0.8234
  661MOL0     C87168   1.993   5.983   4.610 -0.8632 -0.7326 -0.8726
  661MOL0     C87169   2.070   6.052   4.707  0.3487  0.3283  0.0389
  661MOL0     N87170   2.239   6.704   4.795 -0.1682  0.7382  0.1087
  661MOL0     N87171   2.318   6.778   4.724  0.2825 -0.1495 -0.4985
  661MOL0     C87172   3.193   7.440   5.177  0.9900  0.5006  0.6091
  661MOL0     C87173   3.332   7.463   5.189 -0.0398 -0.4906 -0.3285
  661MOL0     C87174   3.731   7.671   5.109  0.0952 -0.1308 -0.3511
  661MOL0     C87175   3.792   7.799   5.123 -0.3102  0.9370 -0.5436
  661MOL0     C87176   3.928   7.817   5.145 -0.0580 -0.3823  0.0358
  661MOL0     C87177   4.002   7.704   5.162  0.0902 -0.1399  0.7506
  661MOL0     O87178   4.137   7.743   5.177  0.1786 -0.8816  0.4906
  661MOL0     C87179   4.226   7.640   5.133  1.2307  0.5818 -0.2257
  661MOL0     C87180   4.350   7.702   5.086 -0.7414 -0.0486  0.5975
  661MOL0     C87181   4.457   7.594   5.046 -0.1550 -0.4760 -0.3370
  661MOL0     C87182   4.449   7.573   4.893 -0.1773 -0.1886 -0.0343
  661MOL0     C87183   4.528   7.680   4.828 -0.0804  1.0173  0.2780
  661MOL0     C87184   4.585   7.785   4.797 -0.5811  0.1938  0.5373
  661MOL0     C87185   3.948   7.580   5.142  0.1551  0.2186 -0.8580
  661MOL0     C87186   3.815   7.556   5.128 -0.1699  0.2472  0.8342
  661MOL0     H87187   3.386   7.582   4.879 -3.6675  1.6928 -1.8661
  661MOL0     H87188   3.133   7.560   4.876  0.4184  1.9746  0.2534
  661MOL0     H87189   2.973   7.257   5.025 -0.1446 -0.4518  0.1126
  661MOL0     H87190   3.002   7.352   4.878  0.3128  2.1300  0.6852
  661MOL0     H87191   2.774   7.437   4.868 -1.4341 -0.6686 -0.2539
  661MOL0     H87192   2.741   7.380   5.033  1.1714 -1.7854  0.2132
  661MOL0     H87193   2.781   7.148   4.924 -0.2906 -0.8529  0.5766
  661MOL0     H87194   2.782   7.248   4.767  2.0128  1.1535  1.1876
  661MOL0     H87195   2.572   7.157   4.949  1.3396  0.4118  0.9789
  661MOL0     H87196   2.550   7.317   4.862  2.2055  1.7497 -2.8086
  661MOL0     H87197   2.599   7.216   4.646  1.5241 -0.5999  1.3503
  661MOL0     H87198   2.451   7.172   4.724 -0.1150  1.6095 -1.9987
  661MOL0     H87199   2.558   6.959   4.828 -0.6769 -0.2877  1.2632
  661MOL0     H87200   2.706   7.000   4.743  0.2664  2.7211 -0.2288
  661MOL0     H87201   2.454   6.952   4.581  1.0117  2.5940 -3.2489
  661MOL0     H87202   2.628   6.956   4.535  0.8014  3.3668  0.9418
  661MOL0     H87203   2.658   6.764   4.677  0.1690  0.0212 -0.4740
  661MOL0     H87204   2.545   6.724   4.552  1.4902 -0.6413  0.6760
  661MOL0     H87205   2.532   6.575   4.865 -1.0469  1.5815  3.9282
  661MOL0     H87206   2.182   6.446   4.864  0.7873 -0.5772 -1.6355
  661MOL0     H87207   2.222   6.501   5.023 -2.8170  1.5945 -1.0112
  661MOL0     H87208   2.457   6.428   4.998  1.9559 -1.6885 -1.9014
  661MOL0     H87209   2.416   6.355   4.848  2.2264 -1.1654  1.2174
  661MOL0     H87210   2.440   6.192   4.999  0.6569  2.0210 -0.0005
  661MOL0     H87211   2.307   6.255   5.108 -1.3178 -1.1447 -0.0866
  661MOL0     H87212   2.155   6.235   4.896  0.2847  0.5055  2.8356
  661MOL0     H87213   2.198   6.081   4.966 -0.4812 -1.7823 -2.3783
  661MOL0     H87214   2.378   6.017   4.571  0.8028 -1.0460  2.6890
  661MOL0     H87215   2.234   5.913   4.389 -0.6357  3.2198 -2.7834
  661MOL0     H87216   1.826   5.559   4.553  1.8271 -0.9241 -1.0024
  661MOL0     H87217   1.701   5.389   4.439 -1.3306 -0.3827 -0.2842
  661MOL0     H87218   1.445   5.512   4.067  3.1451  2.5140  2.4295
  661MOL0     H87219   1.361   5.478   4.219  0.9255  1.1136  0.0211
  661MOL0     H87220   1.354   5.233   4.165  0.4605 -1.2536 -0.4087
  661MOL0     H87221   1.445   5.275   4.014 -1.0656 -0.0293 -0.4779
  661MOL0     H87222   1.284   5.384   3.923 -0.0934 -0.7414 -0.1169
  661MOL0     H87223   1.172   5.380   4.064 -0.3469  0.7799 -0.4027
  661MOL0     H87224   1.165   5.189   3.853 -1.4916 -2.1125 -0.0081
  661MOL0     H87225   1.267   5.108   3.973 -0.9802  0.2338  1.4592
  661MOL0     H87226   0.988   5.205   4.001  2.7880  0.2390 -2.3644
  661MOL0     H87227   1.072   5.164   4.147  0.5906  0.9433  0.2072
  661MOL0     H87228   0.943   4.962   4.073  0.1230  4.4830  0.9652
  661MOL0     H87229   1.114   4.931   4.037 -0.6153 -1.2696  0.2158
  661MOL0     H87230   0.950   5.070   3.822 -0.1577  0.0448 -0.7244
  661MOL0     H87231   1.090   4.963   3.807 -0.5187 -1.5426  0.1023
  661MOL0     H87232   0.876   4.862   3.730 -0.3002  0.3461 -0.3792
  661MOL0     H87233   0.804   4.896   3.890 -0.3946  0.9719 -0.7654
  661MOL0     H87234   1.559   5.676   4.153  0.3300  0.8849 -0.2031
  661MOL0     H87235   1.719   5.846   4.250  1.0395 -0.8264 -0.4565
  661MOL0     H87236   1.886   5.981   4.630 -0.7621  2.1677  0.4020
  661MOL0     H87237   2.029   6.076   4.805  3.0028  1.2191  1.0041
  661MOL0     H87238   3.140   7.389   5.257 -2.0156 -0.4498 -1.7876
  661MOL0     H87239   3.388   7.417   5.270  0.5013  0.2871 -0.2527
  661MOL0     H87240   3.727   7.885   5.133  0.3048  1.3905 -0.3469
  661MOL0     H87241   3.963   7.920   5.140  0.2964 -0.4909  0.2070
  661MOL0     H87242   4.184   7.574   5.057 -0.5836 -0.6560  1.7351
  661MOL0     H87243   4.254   7.573   5.215  1.9039  0.5309 -0.4945
  661MOL0     H87244   4.325   7.774   5.008  1.7632  0.4983  0.1995
  661MOL0     H87245   4.405   7.762   5.160  1.4044  1.0744 -1.7574
  661MOL0     H87246   4.431   7.501   5.098 -1.8994 -1.9208 -3.4158
  661MOL0     H87247   4.561   7.620   5.061  0.2500 -1.1908 -1.6629
  661MOL0     H87248   4.495   7.475   4.884 -0.2951 -0.4335  1.6630
  661MOL0     H87249   4.345   7.573   4.859  0.3095  2.6718 -1.8767
  661MOL0     H87250   4.652   7.863   4.768  0.9770 -0.5514  1.9405
  661MOL0     H87251   4.012   7.493   5.152  0.4718  0.4801 -0.5939
  661MOL0     H87252   3.782   7.453   5.129  2.4041 -0.7505 -2.0780
  662MOL0     O87253   5.947   7.338   9.438  0.7198 -0.5182 -0.2373
  662MOL0     C87254   5.970   7.420   9.538 -0.5914  0.2996  0.0265
  662MOL0     O87255   6.084   7.442   9.606 -0.2408  1.2011 -1.0348
  662MOL0     C87256   6.207   7.385   9.566  0.2163 -0.7061  1.1920
  662MOL0     C87257   6.290   7.342   9.669 -0.0218  0.1047  0.2683
  662MOL0     C87258   6.416   7.288   9.630  0.5715 -0.6686 -0.6317
  662MOL0     C87259   6.456   7.291   9.491  0.5644  1.0040  0.0779
  662MOL0     O87260   6.572   7.232   9.459  0.0055 -0.3967  0.0696
  662MOL0     C87261   6.677   7.327   9.486  0.5313  0.3930 -0.9247
  662MOL0     C87262   6.802   7.242   9.433  0.7958 -0.6610 -0.0545
  662MOL0     C87263   6.931   7.325   9.441  0.7444 -0.3862  0.2416
  662MOL0     C87264   7.034   7.229   9.405 -1.0261  0.5976 -0.4813
  662MOL0     C87265   7.160   7.310   9.418  0.1096  0.8860  0.4347
  662MOL0     C87266   7.268   7.201   9.440 -0.0663 -0.1087 -0.6655
  662MOL0     C87267   7.398   7.281   9.458 -0.3680 -0.2751  0.8775
  662MOL0     C87268   7.516   7.206   9.388  0.0972 -0.3072  0.3180
  662MOL0     N87269   7.565   7.081   9.460  0.5430  0.0197 -0.5877
  662MOL0     C87270   7.508   6.958   9.455 -0.7971 -0.2511 -0.2159
  662MOL0     C87271   7.571   6.888   9.560 -0.0967  0.2273  0.5992
  662MOL0     C87272   7.531   6.750   9.607  0.0651  0.3710 -0.1400
  662MOL0     C87273   7.515   6.760   9.758  0.2402 -0.4051  0.1019
  662MOL0     C87274   7.444   6.639   9.814 -0.0473  0.0718 -0.2061
  662MOL0     C87275   7.291   6.627   9.784 -0.3185 -0.4157 -0.4257
  662MOL0     O87276   7.212   6.564   9.887 -0.0261  0.4495  0.2914
  662MOL0     C87277   7.076   6.548   9.857  0.7525 -0.3069  0.4407
  662MOL0     C87278   7.023   6.423   9.831  0.2555  0.5058  0.5570
  662MOL0     C87279   6.885   6.401   9.825 -0.1950 -0.3192 -0.1735
  662MOL0     C87280   6.796   6.506   9.829 -0.5272  0.2599 -0.5609
  662MOL0     C87281   6.648   6.485   9.824  0.5947  0.2388 -0.7308
  662MOL0     O87282   6.568   6.583   9.870 -0.3439  0.4249 -0.0804
  662MOL0     C87283   6.438   6.551   9.872  0.2134  0.4015  0.0323
  662MOL0     C87284   6.367   6.523   9.998 -0.1622  0.4355 -0.2418
  662MOL0     C87285   6.228   6.485  10.004  0.1891  0.2939 -0.6725
  662MOL0     C87286   6.160   6.470   9.881 -0.5899 -0.4893  0.2981
  662MOL0     O87287   6.030   6.441   9.877  1.4321 -0.4174 -0.1049
  662MOL0     C87288   5.975   6.372   9.765  0.3551  0.1185 -0.8000
  662MOL0     C87289   5.837   6.300   9.804 -0.2335 -0.0412  1.5264
  662MOL0     C87290   5.885   6.206   9.910  0.3207 -0.4204 -0.0800
  662MOL0     C87291   5.766   6.112   9.940  0.9562  0.7725 -0.5020
  662MOL0     C87292   5.812   6.027  10.062  1.4952 -0.9988  0.1216
  662MOL0     C87293   5.925   5.927  10.035  0.8370  0.4486  0.2076
  662MOL0     C87294   5.927   5.815  10.144 -0.3498  1.3482  0.3105
  662MOL0     C87295   6.056   5.721  10.144  0.3189  0.5833  1.4499
  662MOL0    Cl87296   6.203   5.821  10.126  0.4491 -0.5355 -0.2129
  662MOL0     C87297   6.224   6.503   9.753 -0.0075  0.4172 -0.0937
  662MOL0     C87298   6.364   6.535   9.749  0.3499 -0.1237  0.2370
  662MOL0     O87299   6.607   6.380   9.770 -0.1755 -0.3455  0.0345
  662MOL0     C87300   6.847   6.636   9.851  0.2648  0.6763  0.7452
  662MOL0     C87301   6.989   6.652   9.873  0.2476 -0.1200  0.7844
  662MOL0     N87302   7.673   6.959   9.608 -0.1710 -0.1222  0.4243
  662MOL0     N87303   7.668   7.074   9.543  0.1339 -0.2115 -0.2021
  662MOL0     C87304   6.375   7.345   9.401  0.3482  0.6302  0.5952
  662MOL0     C87305   6.245   7.386   9.429 -0.6494  0.7742 -0.1832
  662MOL0     C87306   5.855   7.507   9.576  0.5856  0.5740 -0.0808
  662MOL0     C87307   5.859   7.574   9.699  0.3311 -0.4142  0.3607
  662MOL0     C87308   5.747   7.655   9.732 -0.0989  0.7313  0.4112
  662MOL0     C87309   5.640   7.663   9.648  0.3294 -0.0015  0.2303
  662MOL0     O87310   5.541   7.747   9.685 -0.2642 -0.2693 -0.2928
  662MOL0     C87311   5.404   7.698   9.701 -0.4176  0.6552 -0.3769
  662MOL0     C87312   5.396   7.571   9.802  0.8696  0.4757  1.1143
  662MOL0     C87313   5.456   7.596   9.936 -0.8156  0.4226  0.3059
  662MOL0     C87314   5.399   7.490  10.036  0.2451  0.2886  0.5975
  662MOL0     C87315   5.448   7.521  10.170 -0.1333  0.2682 -0.0906
  662MOL0     C87316   5.501   7.557  10.273 -0.4567 -0.0465 -0.4465
  662MOL0     C87317   5.636   7.592   9.524 -0.4758  0.1890 -0.1610
  662MOL0     C87318   5.753   7.524   9.486  0.0942  0.4128  0.3446
  662MOL0     H87319   6.246   7.356   9.767 -0.8737  1.1638 -0.2452
  662MOL0     H87320   6.481   7.246   9.707  0.1144  1.2744  0.9087
  662MOL0     H87321   6.672   7.342   9.594 -4.1006 -0.0464 -0.8781
  662MOL0     H87322   6.667   7.423   9.435 -1.6738  1.5112  1.3411
  662MOL0     H87323   6.786   7.218   9.327  0.3384 -0.4029 -0.0471
  662MOL0     H87324   6.813   7.147   9.485 -0.0352 -1.0587 -0.5914
  662MOL0     H87325   6.945   7.369   9.541 -0.6018 -3.2406  1.8280
  662MOL0     H87326   6.940   7.400   9.363  2.5913  0.2406  0.9948
  662MOL0     H87327   7.048   7.150   9.478 -1.3368  0.6041 -0.4149
  662MOL0     H87328   7.026   7.194   9.302 -2.9542 -2.1764  0.5129
  662MOL0     H87329   7.154   7.352   9.519 -2.5889 -2.3436  1.8368
  662MOL0     H87330   7.181   7.379   9.337  0.1892  1.6938  1.1268
  662MOL0     H87331   7.267   7.129   9.357 -0.4861 -1.0603  0.1396
  662MOL0     H87332   7.258   7.144   9.533  0.8773  0.5765 -0.1233
  662MOL0     H87333   7.395   7.378   9.408  1.1509 -1.1083 -0.9543
  662MOL0     H87334   7.423   7.287   9.564 -2.4692  1.0467  1.3492
  662MOL0     H87335   7.604   7.267   9.371  0.5495 -0.5422  1.7280
  662MOL0     H87336   7.478   7.176   9.289  0.9977 -1.2918  0.2540
  662MOL0     H87337   7.433   6.921   9.386 -1.5699  3.9791 -1.9622
  662MOL0     H87338   7.613   6.679   9.592  0.0840  0.2756  0.3917
  662MOL0     H87339   7.436   6.721   9.561  1.0635 -2.1116 -0.8138
  662MOL0     H87340   7.445   6.843   9.773 -1.5738 -1.4593 -1.9401
  662MOL0     H87341   7.613   6.769   9.805 -0.4080 -0.2503  1.4910
  662MOL0     H87342   7.507   6.558   9.776 -1.0507 -1.6780  1.6796
  662MOL0     H87343   7.459   6.636   9.923 -0.4707 -2.7238 -0.1532
  662MOL0     H87344   7.287   6.570   9.690  0.0207 -1.2264  0.0423
  662MOL0     H87345   7.241   6.721   9.759  1.4948  0.9683  0.9078
  662MOL0     H87346   7.090   6.341   9.857 -0.6173  0.2886  2.3073
  662MOL0     H87347   6.841   6.301   9.824  1.0683 -0.9075 -1.3416
  662MOL0     H87348   6.420   6.524  10.093  0.7157 -1.3787 -0.6690
  662MOL0     H87349   6.191   6.468  10.104 -1.1504  2.2486 -0.7833
  662MOL0     H87350   6.039   6.295   9.722 -1.2723 -1.6807 -0.1734
  662MOL0     H87351   5.953   6.455   9.697  1.8464  0.2011 -1.2226
  662MOL0     H87352   5.789   6.244   9.723  0.3831 -0.4263  1.4236
  662MOL0     H87353   5.768   6.376   9.841  1.5633  2.7431 -0.4045
  662MOL0     H87354   5.909   6.268   9.997 -1.2606 -0.0246  0.0988
  662MOL0     H87355   5.981   6.157   9.890  0.9432  0.0440  1.5378
  662MOL0     H87356   5.677   6.175   9.950  1.9962  2.3713 -0.8615
  662MOL0     H87357   5.748   6.044   9.856  1.3652  0.5673 -0.4234
  662MOL0     H87358   5.717   5.974  10.074  0.6638  0.1786 -0.9691
  662MOL0     H87359   5.829   6.083  10.155  2.4015  0.9750 -1.1626
  662MOL0     H87360   6.012   5.993  10.028 -0.8670  2.6200 -3.4791
  662MOL0     H87361   5.916   5.883   9.935 -0.2036 -0.0895  0.5282
  662MOL0     H87362   5.916   5.860  10.243  0.1201 -0.6624  1.3249
  662MOL0     H87363   5.836   5.756  10.132  0.5579 -0.6052  2.2862
  662MOL0     H87364   6.036   5.662  10.054  1.1121 -1.0626  2.3079
  662MOL0     H87365   6.057   5.659  10.234  1.3053 -1.7368 -0.0741
  662MOL0     H87366   6.173   6.506   9.657 -0.4755 -0.9191  0.0958
  662MOL0     H87367   6.418   6.554   9.657 -0.6401  0.0770 -0.3199
  662MOL0     H87368   6.780   6.720   9.841 -1.1046 -0.3785  0.8036
  662MOL0     H87369   7.033   6.745   9.905 -1.8014  0.1343  3.2414
  662MOL0     H87370   6.408   7.349   9.298 -0.1106 -3.1302  0.1727
  662MOL0     H87371   6.182   7.438   9.358 -3.2749  0.5382  1.8445
  662MOL0     H87372   5.942   7.569   9.768 -0.4602  3.5653  1.8470
  662MOL0     H87373   5.757   7.701   9.830 -4.0567  0.1401  1.2403
  662MOL0     H87374   5.363   7.678   9.602  0.7842 -0.5904 -0.6582
  662MOL0     H87375   5.346   7.776   9.751 -1.3846 -1.2748  1.6696
  662MOL0     H87376   5.293   7.538   9.815  1.0456 -0.1116  1.0453
  662MOL0     H87377   5.453   7.496   9.747 -3.2733 -0.2102 -2.8799
  662MOL0     H87378   5.423   7.693   9.974 -0.3602 -0.3981  3.0403
  662MOL0     H87379   5.565   7.600   9.945 -0.6572 -0.5902 -0.7902
  662MOL0     H87380   5.290   7.501  10.027 -0.1436 -2.2181  1.4328
  662MOL0     H87381   5.434   7.391  10.008 -1.2583 -1.3231  3.8991
  662MOL0     H87382   5.561   7.607  10.347  0.1772 -0.0716 -0.9391
  662MOL0     H87383   5.551   7.588   9.457 -0.0032  1.5438 -0.8951
  662MOL0     H87384   5.736   7.464   9.398 -0.4787 -0.4601  1.0288
  663MOL0     O87385   6.571   3.462   1.177  1.0312 -0.0236 -0.2851
  663MOL0     C87386   6.619   3.356   1.138 -0.2916 -0.5612 -0.4177
  663MOL0     O87387   6.559   3.231   1.144  0.8198 -0.0479  0.1942
  663MOL0     C87388   6.459   3.231   1.238 -0.2509 -0.4182  0.2498
  663MOL0     C87389   6.312   3.219   1.223 -0.0914 -0.3111 -0.1284
  663MOL0     C87390   6.241   3.206   1.350  0.5273  0.6600 -0.0997
  663MOL0     C87391   6.309   3.182   1.471  0.3721  0.7559 -0.0428
  663MOL0     O87392   6.233   3.138   1.580 -0.0785  1.1815 -0.4767
  663MOL0     C87393   6.194   3.000   1.577 -0.3877  0.1134  0.7819
  663MOL0     C87394   6.290   2.931   1.676 -0.3740  0.0996  0.4325
  663MOL0     C87395   6.268   2.771   1.675 -0.0055 -1.0525 -0.2643
  663MOL0     C87396   6.344   2.703   1.789 -0.2619  0.3691  0.3492
  663MOL0     C87397   6.481   2.665   1.743  0.7574 -0.3631 -0.6111
  663MOL0     C87398   6.578   2.611   1.853 -0.4785 -0.3375  0.6894
  663MOL0     C87399   6.554   2.458   1.871  0.0007 -0.3731  0.2293
  663MOL0     C87400   6.638   2.408   1.980 -0.1477  0.0787  0.2536
  663MOL0     N87401   6.630   2.261   1.984 -0.0276  0.5590  0.2193
  663MOL0     C87402   6.679   2.176   1.887  0.3341 -0.8976 -0.4708
  663MOL0     C87403   6.618   2.061   1.915 -0.2872  0.9384 -0.6621
  663MOL0     C87404   6.672   1.939   1.858 -0.4629  0.9200 -0.3351
  663MOL0     C87405   6.645   1.947   1.704  0.6192 -0.9279  0.0626
  663MOL0     C87406   6.502   1.961   1.656  0.0301 -0.9494  0.0398
  663MOL0     C87407   6.406   1.851   1.714 -0.3738 -1.3617 -0.1757
  663MOL0     O87408   6.266   1.887   1.670  0.2076  0.1414 -0.1521
  663MOL0     C87409   6.161   1.808   1.716 -0.4811  0.2683 -0.0661
  663MOL0     C87410   6.027   1.845   1.683  0.0976  0.0304 -0.2898
  663MOL0     C87411   5.920   1.762   1.730 -0.0862 -0.4690 -0.2514
  663MOL0     C87412   5.937   1.656   1.818  0.4204  0.0502  0.4819
  663MOL0     C87413   5.817   1.591   1.884 -0.7521 -0.0847 -0.2878
  663MOL0     O87414   5.850   1.492   1.974  1.0267 -0.6878 -0.3702
  663MOL0     C87415   5.746   1.436   2.043  0.8673  0.8832 -0.4394
  663MOL0     C87416   5.771   1.407   2.175  0.3879 -0.4264  0.5058
  663MOL0     C87417   5.674   1.346   2.257 -0.5837 -0.0807 -0.7334
  663MOL0     C87418   5.546   1.307   2.201 -0.1449 -1.1757 -0.1379
  663MOL0     O87419   5.455   1.234   2.270 -0.2494 -0.7443  0.0926
  663MOL0     C87420   5.414   1.279   2.393  0.5706  0.0665 -0.3119
  663MOL0     C87421   5.270   1.231   2.405  0.1685 -0.0415 -0.7793
  663MOL0     C87422   5.205   1.272   2.535  0.4316  0.0228 -0.0334
  663MOL0     C87423   5.231   1.177   2.653  0.0587  0.0554  0.0733
  663MOL0     C87424   5.150   1.206   2.788 -1.2048  0.9285  0.2820
  663MOL0     C87425   5.161   1.086   2.891  0.7024  0.0015  0.4198
  663MOL0     C87426   5.061   1.106   3.004  0.9731  0.3174  0.0156
  663MOL0     C87427   5.080   1.004   3.115  0.2149  0.0699  0.1281
  663MOL0    Cl87428   5.033   0.838   3.067 -0.1490 -0.3232  0.6113
  663MOL0     C87429   5.522   1.337   2.066  0.1961 -1.1489 -0.5368
  663MOL0     C87430   5.621   1.397   1.990  0.2520  0.1883  0.4339
  663MOL0     O87431   5.704   1.633   1.847 -0.4012 -0.2051 -0.8768
  663MOL0     C87432   6.068   1.612   1.845 -0.2114 -0.0942  0.3527
  663MOL0     C87433   6.173   1.692   1.795 -0.4026  0.0353 -0.2225
  663MOL0     N87434   6.548   2.076   2.034 -0.4788  0.0722  0.1770
  663MOL0     N87435   6.555   2.199   2.076 -0.1943 -0.7985 -0.1288
  663MOL0     C87436   6.445   3.204   1.485 -0.0730  0.3492  0.2728
  663MOL0     C87437   6.523   3.222   1.367  0.2260 -0.0381 -0.8192
  663MOL0     C87438   6.762   3.352   1.096  0.0330 -0.5739 -0.0921
  663MOL0     C87439   6.801   3.234   1.033  0.6353 -0.0400  0.1315
  663MOL0     C87440   6.933   3.208   0.999 -0.0541 -0.8523 -0.7728
  663MOL0     C87441   7.025   3.299   1.029 -0.2203 -0.1476  0.1654
  663MOL0     O87442   7.163   3.285   1.001  0.0957  0.1858  0.1347
  663MOL0     C87443   7.213   3.171   0.940 -0.0363 -0.1614 -0.1608
  663MOL0     C87444   7.345   3.148   0.997 -0.0470 -0.1126  0.0962
  663MOL0     C87445   7.467   3.236   0.971 -1.0831  0.3895  0.4068
  663MOL0     C87446   7.417   3.378   1.020 -0.5356  1.3516 -0.3674
  663MOL0     C87447   7.540   3.450   1.038  0.1245  0.5029  0.1119
  663MOL0     C87448   7.644   3.508   1.060  0.6327 -1.1016 -0.0340
  663MOL0     C87449   6.991   3.415   1.096  0.5324 -0.1602 -0.0411
  663MOL0     C87450   6.863   3.439   1.144  0.2636  0.3725 -0.2350
  663MOL0     H87451   6.268   3.229   1.125 -2.5948  0.2758  0.9782
  663MOL0     H87452   6.133   3.192   1.357  0.4626  1.3104  0.2311
  663MOL0     H87453   6.210   2.962   1.476  1.4076  2.8687 -0.1009
  663MOL0     H87454   6.096   2.976   1.619 -0.0727  1.5081  2.4531
  663MOL0     H87455   6.274   2.974   1.775 -1.6045  4.2994 -1.3554
  663MOL0     H87456   6.397   2.946   1.658  0.5327 -1.2119  3.8872
  663MOL0     H87457   6.310   2.739   1.579  3.5292  0.6354  0.5557
  663MOL0     H87458   6.159   2.761   1.667 -0.4133  3.1328 -2.9786
  663MOL0     H87459   6.340   2.774   1.872  3.3780  1.3562 -0.1647
  663MOL0     H87460   6.294   2.607   1.808  0.1345 -0.2727 -1.6246
  663MOL0     H87461   6.533   2.756   1.709 -0.2107  0.0629 -0.9953
  663MOL0     H87462   6.475   2.597   1.658  1.5381 -2.7043  1.1160
  663MOL0     H87463   6.556   2.668   1.944  1.7508  1.6956  0.0620
  663MOL0     H87464   6.680   2.633   1.822 -0.6131 -1.8977 -0.9627
  663MOL0     H87465   6.450   2.428   1.889 -0.7347 -1.8190 -4.9719
  663MOL0     H87466   6.573   2.400   1.781 -1.6503 -0.2380 -0.2408
  663MOL0     H87467   6.596   2.459   2.068 -1.1003 -0.1405 -0.0573
  663MOL0     H87468   6.742   2.441   1.969  0.2546 -1.8983 -3.2984
  663MOL0     H87469   6.754   2.200   1.813  0.0156 -1.0857 -0.8562
  663MOL0     H87470   6.634   1.849   1.908  1.9721  0.4191  0.7669
  663MOL0     H87471   6.779   1.932   1.883 -0.8362  1.4958  1.6493
  663MOL0     H87472   6.671   1.855   1.650 -1.4026 -1.4529 -0.0844
  663MOL0     H87473   6.697   2.032   1.658  0.8816 -1.1885 -0.1310
  663MOL0     H87474   6.454   2.059   1.671  1.1894 -0.0733 -1.7594
  663MOL0     H87475   6.509   1.950   1.548 -2.5978 -3.2445 -0.0336
  663MOL0     H87476   6.419   1.864   1.822  3.2059  1.0228 -0.7205
  663MOL0     H87477   6.434   1.750   1.686  0.7348 -0.7046 -1.5484
  663MOL0     H87478   6.009   1.926   1.614  2.2433 -0.5512 -1.6436
  663MOL0     H87479   5.820   1.791   1.701  0.6066  1.2170 -1.1043
  663MOL0     H87480   5.874   1.416   2.209  0.8294  1.3410 -1.1508
  663MOL0     H87481   5.694   1.317   2.360  0.8102  1.1176 -0.6294
  663MOL0     H87482   5.425   1.386   2.407  1.6513  0.1081 -1.3386
  663MOL0     H87483   5.477   1.241   2.473 -1.9956  1.0034  2.3247
  663MOL0     H87484   5.274   1.122   2.391 -0.3018 -0.3079  0.9376
  663MOL0     H87485   5.204   1.269   2.327 -0.2322  1.0371  0.0579
  663MOL0     H87486   5.096   1.274   2.526  0.1249  1.8813  2.6157
  663MOL0     H87487   5.223   1.378   2.553 -2.6276  1.0691 -2.3033
  663MOL0     H87488   5.208   1.073   2.627 -1.2578  0.2434  0.4228
  663MOL0     H87489   5.338   1.178   2.679 -0.0804  0.4685  0.6658
  663MOL0     H87490   5.045   1.222   2.764 -0.2309  1.8509 -4.4279
  663MOL0     H87491   5.197   1.298   2.825  2.6772  0.0925 -1.9746
  663MOL0     H87492   5.265   1.082   2.925  0.8668  1.5356  0.1634
  663MOL0     H87493   5.134   0.997   2.835  2.5208  0.5017 -1.3457
  663MOL0     H87494   5.069   1.205   3.051  1.8180  0.0016  0.5521
  663MOL0     H87495   4.959   1.092   2.966  1.7758 -5.9248 -0.8290
  663MOL0     H87496   5.011   1.021   3.197 -0.4599 -0.7754 -0.2478
  663MOL0     H87497   5.179   1.007   3.161  2.2920  1.0991 -3.8942
  663MOL0     H87498   5.426   1.304   2.028 -1.5914  0.3053  2.3643
  663MOL0     H87499   5.597   1.412   1.885  1.8047 -0.0608  0.0231
  663MOL0     H87500   6.088   1.518   1.895 -4.0262 -2.0848 -1.4069
  663MOL0     H87501   6.277   1.663   1.812 -0.7840 -0.9267  0.5755
  663MOL0     H87502   6.490   3.194   1.583  0.3201  1.0162  0.1668
  663MOL0     H87503   6.630   3.228   1.377  0.2144 -1.4869  0.5079
  663MOL0     H87504   6.729   3.159   1.003 -1.4099  2.5718 -2.0126
  663MOL0     H87505   6.967   3.123   0.940  4.6792  1.5204 -1.9337
  663MOL0     H87506   7.221   3.188   0.832  1.4056 -0.3575 -0.1072
  663MOL0     H87507   7.157   3.083   0.971  0.7256 -0.0848  1.5506
  663MOL0     H87508   7.339   3.135   1.106 -0.4072 -0.4718  0.0348
  663MOL0     H87509   7.368   3.049   0.956  0.0782  0.3464 -0.9531
  663MOL0     H87510   7.482   3.235   0.863  2.0304 -1.9668  0.7200
  663MOL0     H87511   7.565   3.200   1.003 -1.4279 -0.8592  0.1284
  663MOL0     H87512   7.350   3.422   0.946 -0.3037  1.1261 -0.7106
  663MOL0     H87513   7.373   3.372   1.121  0.6871 -1.8776  0.1005
  663MOL0     H87514   7.735   3.564   1.075  2.1157 -2.2825 -3.5761
  663MOL0     H87515   7.070   3.486   1.120 -0.3781  0.2164  2.0219
  663MOL0     H87516   6.837   3.525   1.205 -0.6060 -1.5711  2.3296
  664MOL0     O87517   6.518   7.132  10.790 -0.0072 -0.6881  0.2436
  664MOL0     C87518   6.491   7.248  10.781  0.4802 -0.6714  0.0155
  664MOL0     O87519   6.373   7.296  10.734  0.6655  0.3995  0.0938
  664MOL0     C87520   6.289   7.225  10.658 -0.0299  0.4225 -0.0179
  664MOL0     C87521   6.298   7.095  10.603 -0.4934 -0.5119  0.7305
  664MOL0     C87522   6.204   7.049  10.513  0.3916  0.3821  0.7939
  664MOL0     C87523   6.092   7.121  10.481  1.5551 -0.2074  0.7448
  664MOL0     O87524   5.999   7.047  10.408 -0.2138  0.2452  0.2250
  664MOL0     C87525   5.868   7.113  10.383 -0.2551 -0.2845  0.9722
  664MOL0     C87526   5.783   7.035  10.287  0.6958 -0.3279  0.6566
  664MOL0     C87527   5.650   7.098  10.273 -0.8371 -0.2751 -0.8485
  664MOL0     C87528   5.563   7.023  10.174 -0.0059 -0.2440 -0.2892
  664MOL0     C87529   5.439   7.095  10.132  0.0353  1.2935 -0.1377
  664MOL0     C87530   5.350   6.999  10.067  0.4755  0.2450  0.4318
  664MOL0     C87531   5.215   7.058  10.039 -0.0471  0.1336  0.4171
  664MOL0     C87532   5.213   7.161   9.928 -0.4821  0.5140 -0.1832
  664MOL0     N87533   5.077   7.179   9.884 -0.0769  0.4987 -0.2405
  664MOL0     C87534   5.000   7.289   9.918 -0.3818 -0.0807  0.0842
  664MOL0     C87535   4.889   7.275   9.851  0.7433 -0.4835  0.8919
  664MOL0     C87536   4.774   7.371   9.842 -0.0612 -0.2878  0.3142
  664MOL0     C87537   4.636   7.308   9.808  0.1947  0.2698  0.3777
  664MOL0     C87538   4.578   7.207   9.919 -0.6674 -0.3797  0.1971
  664MOL0     C87539   4.447   7.138   9.884  0.4849 -0.2532  1.0897
  664MOL0     O87540   4.353   7.235   9.860  0.8131 -1.1768 -0.4234
  664MOL0     C87541   4.224   7.201   9.820 -0.4970  1.0912 -0.0683
  664MOL0     C87542   4.186   7.070   9.804  0.2229 -0.9229  1.0324
  664MOL0     C87543   4.056   7.039   9.782  0.1924  0.1549  0.4749
  664MOL0     C87544   3.961   7.141   9.761  0.3563  0.6293 -1.1877
  664MOL0     C87545   3.818   7.104   9.729  0.2924  0.7099 -0.5537
  664MOL0     O87546   3.743   7.214   9.704 -0.0601  0.5130  0.3396
  664MOL0     C87547   3.606   7.208   9.694 -0.2846 -0.2844 -1.0307
  664MOL0     C87548   3.538   7.285   9.598 -0.1787 -0.8709  0.4912
  664MOL0     C87549   3.403   7.298   9.590  0.3660 -0.7312  0.5059
  664MOL0     C87550   3.325   7.225   9.680 -0.5039 -0.2821  0.5800
  664MOL0     O87551   3.187   7.229   9.649  0.2709  0.3626 -0.6845
  664MOL0     C87552   3.109   7.129   9.725  0.1263 -0.3152  0.2437
  664MOL0     C87553   2.957   7.148   9.696  1.0520 -0.2212  0.1302
  664MOL0     C87554   2.885   7.282   9.724 -0.1441 -0.0777  0.1712
  664MOL0     C87555   2.912   7.342   9.864 -0.2514  0.1386  0.0376
  664MOL0     C87556   2.857   7.479   9.888  0.3419 -0.4195 -0.0174
  664MOL0     C87557   2.701   7.488   9.881  0.1102 -0.1160 -0.7949
  664MOL0     C87558   2.632   7.413   9.989 -0.2171  0.8759 -0.1024
  664MOL0     C87559   2.484   7.449  10.011  0.8074  0.9781  0.3005
  664MOL0    Cl87560   2.383   7.393   9.871  0.2942 -0.2278  0.0729
  664MOL0     C87561   3.384   7.147   9.777 -0.1474 -0.3680 -0.3540
  664MOL0     C87562   3.524   7.145   9.790  1.0558  0.4835  0.4609
  664MOL0     O87563   3.783   6.990   9.754 -0.1207 -0.3466  0.4470
  664MOL0     C87564   4.005   7.274   9.761  0.0348 -0.2047 -0.1255
  664MOL0     C87565   4.131   7.308   9.796  0.0336  0.4144 -0.3665
  664MOL0     N87566   4.894   7.164   9.774 -0.2137  0.4726  0.0951
  664MOL0     N87567   5.008   7.107   9.792  0.3882  0.2054  1.1027
  664MOL0     C87568   6.065   7.248  10.538 -0.1089 -0.0454 -0.5384
  664MOL0     C87569   6.170   7.295  10.628  0.7854 -0.5308 -0.7493
  664MOL0     C87570   6.591   7.347  10.821  0.9584 -0.3911  1.0251
  664MOL0     C87571   6.583   7.490  10.788  0.1596 -1.2965 -0.3887
  664MOL0     C87572   6.693   7.577  10.813  0.0443  1.1154  0.1116
  664MOL0     C87573   6.798   7.539  10.883 -0.3233 -0.3908  0.5802
  664MOL0     O87574   6.902   7.631  10.900  0.9301  0.2205 -0.3245
  664MOL0     C87575   7.023   7.589  10.971  0.2005 -0.6387  0.8102
  664MOL0     C87576   7.110   7.506  10.878  0.5930 -0.5582 -0.0282
  664MOL0     C87577   7.174   7.611  10.785 -0.0964 -0.0181 -0.1110
  664MOL0     C87578   7.315   7.574  10.732 -0.0675 -0.1670  0.4578
  664MOL0     C87579   7.416   7.607  10.838  0.3762  0.8990  1.0422
  664MOL0     C87580   7.504   7.644  10.911  0.6424  0.4201 -0.2570
  664MOL0     C87581   6.801   7.404  10.928 -0.3246 -0.2650 -0.2498
  664MOL0     C87582   6.702   7.311  10.901 -0.7986  0.1817  0.0239
  664MOL0     H87583   6.379   7.023  10.612 -0.0321 -0.0088  0.6420
  664MOL0     H87584   6.222   6.955  10.462 -3.7935  0.2281 -0.7624
  664MOL0     H87585   5.888   7.216  10.352  2.0515 -1.1600 -0.7792
  664MOL0     H87586   5.821   7.116  10.482  1.2623 -1.0244  1.7522
  664MOL0     H87587   5.768   6.941  10.341  0.5257 -1.5707 -1.4402
  664MOL0     H87588   5.830   7.014  10.190 -0.1766  2.3056 -0.4221
  664MOL0     H87589   5.671   7.199  10.235  2.0000 -0.7800 -0.8653
  664MOL0     H87590   5.594   7.121  10.364  0.2635  1.4652 -0.5546
  664MOL0     H87591   5.620   6.994  10.085  0.0271 -3.2835  0.5980
  664MOL0     H87592   5.542   6.923  10.212 -2.0432  0.0990 -0.3516
  664MOL0     H87593   5.454   7.186  10.075 -1.7734 -0.3954 -3.6484
  664MOL0     H87594   5.396   7.134  10.224  0.3551  3.0231 -0.6935
  664MOL0     H87595   5.339   6.907  10.124  0.1150 -1.7060 -2.5870
  664MOL0     H87596   5.398   6.965   9.975  1.5572  3.7202 -0.4649
  664MOL0     H87597   5.139   6.984  10.009 -0.2480  0.3066  0.4948
  664MOL0     H87598   5.181   7.105  10.131  1.1364  0.0875  0.8935
  664MOL0     H87599   5.279   7.131   9.846 -4.9054 -0.3737 -3.8286
  664MOL0     H87600   5.264   7.253   9.960 -0.6744  0.0912  1.4325
  664MOL0     H87601   5.026   7.371   9.985 -1.3280 -1.6965  2.5439
  664MOL0     H87602   4.793   7.457   9.778  1.7156  0.4270  1.7115
  664MOL0     H87603   4.762   7.416   9.941 -2.5317  1.1070 -0.5178
  664MOL0     H87604   4.652   7.243   9.722 -0.5890  1.1112 -0.4297
  664MOL0     H87605   4.557   7.380   9.787 -1.5397 -0.6394  3.1338
  664MOL0     H87606   4.652   7.134   9.954  1.3158  1.7061  0.6512
  664MOL0     H87607   4.579   7.268  10.010  2.0806  2.7749 -1.6924
  664MOL0     H87608   4.412   7.073   9.965 -0.1125  0.9935  1.8708
  664MOL0     H87609   4.463   7.079   9.794 -0.4263  1.0387  0.0354
  664MOL0     H87610   4.256   6.990   9.825 -0.4323 -1.5769  0.7534
  664MOL0     H87611   4.022   6.936   9.776 -0.0649  0.1357  1.9157
  664MOL0     H87612   3.598   7.342   9.527 -0.7230  0.7404  1.2919
  664MOL0     H87613   3.344   7.356   9.520 -2.1922 -2.0185  1.4878
  664MOL0     H87614   3.121   7.134   9.833 -0.0641 -2.1642  0.3794
  664MOL0     H87615   3.144   7.034   9.685  0.6393  1.0921 -3.0051
  664MOL0     H87616   2.913   7.059   9.742  1.5763 -0.1969  0.6901
  664MOL0     H87617   2.938   7.129   9.590 -1.5002 -0.2702  0.5471
  664MOL0     H87618   2.778   7.273   9.709 -0.0421  1.5111 -1.9804
  664MOL0     H87619   2.919   7.358   9.654  0.1363  0.1180  0.5134
  664MOL0     H87620   2.872   7.270   9.936  1.2615  0.2931  1.0735
  664MOL0     H87621   3.021   7.341   9.877  0.3370 -1.8735 -3.7810
  664MOL0     H87622   2.887   7.542   9.803 -0.6363  2.2341  1.4879
  664MOL0     H87623   2.896   7.523   9.980  1.1174 -0.6837 -0.2141
  664MOL0     H87624   2.670   7.447   9.785  0.4163  0.6239 -1.2155
  664MOL0     H87625   2.685   7.596   9.877  2.5856  0.2915 -1.1936
  664MOL0     H87626   2.636   7.308   9.958 -2.5127 -0.1836  2.7510
  664MOL0     H87627   2.685   7.431  10.083 -0.0131 -0.9165  0.1738
  664MOL0     H87628   2.471   7.557  10.025 -2.3055  0.6222  0.9743
  664MOL0     H87629   2.452   7.400  10.104 -0.8070  1.2873 -0.0458
  664MOL0     H87630   3.333   7.078   9.843 -1.2380 -2.3789 -3.1065
  664MOL0     H87631   3.567   7.071   9.858  2.2176 -0.1406 -0.9066
  664MOL0     H87632   3.938   7.356   9.739  0.9935  0.4171 -0.8027
  664MOL0     H87633   4.152   7.413   9.814 -2.0448  0.9992 -1.0710
  664MOL0     H87634   5.973   7.301  10.516 -0.2288 -0.0840 -0.1478
  664MOL0     H87635   6.168   7.393  10.675  3.5992 -1.1323  0.8248
  664MOL0     H87636   6.502   7.538  10.734  0.5394 -0.0965  0.0853
  664MOL0     H87637   6.693   7.685  10.804  2.8737  1.2145  0.5259
  664MOL0     H87638   6.992   7.529  11.057 -2.6061 -3.3885 -1.8193
  664MOL0     H87639   7.070   7.679  11.013  0.8528 -1.8084  2.7078
  664MOL0     H87640   7.185   7.447  10.932  0.4633 -1.4623 -0.7973
  664MOL0     H87641   7.042   7.441  10.821  0.2248  0.8505 -1.2682
  664MOL0     H87642   7.184   7.702  10.844 -1.9762 -0.9030  1.7271
  664MOL0     H87643   7.107   7.630  10.700  1.9344 -1.4096 -2.1483
  664MOL0     H87644   7.321   7.468  10.704 -2.1074  0.5437 -3.3493
  664MOL0     H87645   7.334   7.631  10.641  0.1389 -0.4582  0.3150
  664MOL0     H87646   7.579   7.676  10.981 -0.8225 -0.7836  1.9602
  664MOL0     H87647   6.882   7.370  10.991 -0.3562 -1.5723 -0.8929
  664MOL0     H87648   6.710   7.206  10.929 -1.2946 -0.5892 -2.4438
  665MOL0     O87649   2.549   2.064   9.622  0.3575  0.5319 -0.5944
  665MOL0     C87650   2.602   2.058   9.511  0.0961 -0.4478  0.4226
  665MOL0     O87651   2.546   2.003   9.399 -0.1754  0.5158  0.0152
  665MOL0     C87652   2.414   1.956   9.391  0.2534 -0.7934  0.3354
  665MOL0     C87653   2.305   1.994   9.471  0.6637  0.1746  0.1618
  665MOL0     C87654   2.187   1.919   9.463  0.1246  1.3121 -0.4824
  665MOL0     C87655   2.169   1.822   9.364  0.6699 -0.6116 -0.7055
  665MOL0     O87656   2.051   1.746   9.363  0.1594 -0.5903  0.4324
  665MOL0     C87657   1.998   1.719   9.226 -0.1311  0.2074 -0.5439
  665MOL0     C87658   1.843   1.725   9.234 -0.0300 -0.8663  0.7940
  665MOL0     C87659   1.800   1.873   9.223  0.1446  0.0600  0.0095
  665MOL0     C87660   1.653   1.904   9.252 -0.1163  0.1481  0.1657
  665MOL0     C87661   1.550   1.801   9.184  0.6723 -0.1325  0.9264
  665MOL0     C87662   1.414   1.860   9.240 -1.4821  0.1752 -0.4754
  665MOL0     C87663   1.292   1.813   9.170  0.1606  0.2682 -0.6777
  665MOL0     C87664   1.176   1.889   9.235 -0.7007 -0.1256 -0.5437
  665MOL0     N87665   1.045   1.836   9.201  0.1039 -0.2185 -0.5479
  665MOL0     C87666   0.985   1.742   9.278  0.4348  0.2353  0.3049
  665MOL0     C87667   0.854   1.747   9.232 -0.3191  0.4589 -0.1758
  665MOL0     C87668   0.727   1.676   9.270 -0.6563  0.2217 -0.0016
  665MOL0     C87669   0.742   1.606   9.404 -0.2014 -0.5570 -0.2392
  665MOL0     C87670   0.620   1.517   9.436 -1.3056 -0.2225 -0.3385
  665MOL0     C87671   0.488   1.594   9.445  0.1427 -0.3999 -0.5327
  665MOL0     O87672   0.385   1.495   9.436  0.8911 -0.1388 -0.2874
  665MOL0     C87673   0.253   1.513   9.492 -0.3805 -0.3188 -0.3230
  665MOL0     C87674   0.197   1.637   9.539 -0.3299  0.3433  0.2382
  665MOL0     C87675   0.074   1.642   9.599 -0.3184 -0.1354 -0.1139
  665MOL0     C87676   0.004   1.521   9.610 -0.0872 -0.3877  0.5656
  665MOL0     C87677  -0.142   1.523   9.652  0.5581 -0.6754  1.0226
  665MOL0     O87678  -0.238   1.439   9.601  0.0804  0.3106  0.3134
  665MOL0     C87679  -0.355   1.431   9.663 -0.0774 -0.1079  0.9331
  665MOL0     C87680  -0.387   1.302   9.696 -0.1405  0.2607 -0.6678
  665MOL0     C87681  -0.505   1.283   9.766 -0.5300  0.4053  0.6527
  665MOL0     C87682  -0.599   1.386   9.780  0.7604 -0.6218 -0.7813
  665MOL0     O87683  -0.709   1.359   9.857  0.2153 -0.6262 -0.4084
  665MOL0     C87684  -0.791   1.464   9.903  0.5004 -0.7328  0.5864
  665MOL0     C87685  -0.894   1.429  10.010  0.1358  0.3350 -0.2375
  665MOL0     C87686  -0.992   1.320   9.975  0.1437  0.0502  0.1739
  665MOL0     C87687  -1.126   1.346  10.032 -0.4454  0.2425 -0.7768
  665MOL0     C87688  -1.230   1.236  10.019  0.0607  0.1334 -0.4266
  665MOL0     C87689  -1.373   1.288  10.042 -0.2770 -0.2816  0.4946
  665MOL0     C87690  -1.481   1.193  10.008  1.1169 -0.7874 -0.3058
  665MOL0     C87691  -1.612   1.220  10.091 -0.5787  0.7380 -0.0287
  665MOL0    Cl87692  -1.638   1.395  10.124  0.0770 -0.0537  0.5988
  665MOL0     C87693  -0.576   1.505   9.718 -0.3294 -0.5308 -0.1753
  665MOL0     C87694  -0.445   1.536   9.662 -0.1239 -0.3861 -1.1647
  665MOL0     O87695  -0.175   1.615   9.736 -0.4402 -0.4903 -0.7719
  665MOL0     C87696   0.061   1.401   9.553  0.8211  0.4743  0.0513
  665MOL0     C87697   0.183   1.398   9.503  1.1839  0.1711 -1.3117
  665MOL0     N87698   0.843   1.838   9.137  1.2867  0.0242  1.0602
  665MOL0     N87699   0.957   1.896   9.120  0.2864  0.2312  0.1041
  665MOL0     C87700   2.258   1.824   9.263 -1.3901  0.2384 -1.1203
  665MOL0     C87701   2.381   1.886   9.277  0.5047 -0.2941  0.7735
  665MOL0     C87702   2.739   2.106   9.495 -0.5980 -0.5055  0.1861
  665MOL0     C87703   2.837   2.109   9.593 -0.3234 -0.0859 -0.7064
  665MOL0     C87704   2.969   2.155   9.561 -0.0936 -0.2096 -0.4756
  665MOL0     C87705   3.008   2.175   9.434 -0.4705  0.0169 -0.1412
  665MOL0     O87706   3.137   2.203   9.395 -0.0213  0.1562  0.0740
  665MOL0     C87707   3.227   2.233   9.504  0.4505  0.5555 -1.0157
  665MOL0     C87708   3.366   2.248   9.434 -0.4699 -0.1239  0.1590
  665MOL0     C87709   3.464   2.289   9.539 -0.6107  1.1026 -0.9541
  665MOL0     C87710   3.602   2.321   9.483 -0.1424  0.1673  0.1715
  665MOL0     C87711   3.597   2.464   9.450  0.5521  0.4240  0.1574
  665MOL0     C87712   3.597   2.583   9.408  0.4348 -0.8780 -1.1842
  665MOL0     C87713   2.913   2.167   9.330  0.5076 -0.6906  0.1377
  665MOL0     C87714   2.777   2.146   9.368  0.0849 -0.8940  1.0463
  665MOL0     H87715   2.317   2.072   9.546 -0.5962  1.9989 -1.4476
  665MOL0     H87716   2.106   1.938   9.533 -0.1756  2.1675 -1.0428
  665MOL0     H87717   2.035   1.625   9.183 -2.7734 -1.6817  0.9748
  665MOL0     H87718   2.024   1.798   9.155 -2.8264  0.8157 -0.9668
  665MOL0     H87719   1.827   1.697   9.338  4.1141  1.4467  2.2628
  665MOL0     H87720   1.785   1.668   9.160 -3.3725  1.5342  1.3297
  665MOL0     H87721   1.825   1.906   9.121  2.2343 -0.0071  0.4617
  665MOL0     H87722   1.864   1.936   9.285  0.7229  0.4493 -0.9518
  665MOL0     H87723   1.640   1.893   9.361 -0.7139 -0.3194  0.0534
  665MOL0     H87724   1.626   2.009   9.238  1.6502  0.8898  1.8744
  665MOL0     H87725   1.558   1.694   9.207 -0.5225 -0.3800  0.2586
  665MOL0     H87726   1.556   1.804   9.075  0.0783 -1.6321  0.8282
  665MOL0     H87727   1.414   1.968   9.222 -3.4997 -0.0233 -2.0130
  665MOL0     H87728   1.419   1.847   9.348  4.0220  0.8618 -0.3716
  665MOL0     H87729   1.289   1.823   9.061 -1.2018  0.7395 -0.6228
  665MOL0     H87730   1.278   1.707   9.193 -1.2175  0.4488 -0.5554
  665MOL0     H87731   1.191   1.992   9.203  1.2848 -0.8495 -2.1919
  665MOL0     H87732   1.195   1.876   9.342 -2.6740 -1.1842 -0.2772
  665MOL0     H87733   1.035   1.686   9.356 -0.5118  0.6326  1.2254
  665MOL0     H87734   0.691   1.608   9.193  0.7411 -0.9525  0.3386
  665MOL0     H87735   0.653   1.754   9.289  0.8279  1.5684  0.4922
  665MOL0     H87736   0.748   1.674   9.489  2.7287 -1.6658  0.5593
  665MOL0     H87737   0.830   1.541   9.394 -1.3945 -2.0373 -1.6202
  665MOL0     H87738   0.608   1.444   9.356  0.2964  0.9987 -1.7667
  665MOL0     H87739   0.630   1.457   9.527 -1.9641  0.4699  0.2088
  665MOL0     H87740   0.467   1.680   9.382 -0.8043 -1.2340 -1.3947
  665MOL0     H87741   0.493   1.654   9.536 -0.2276  3.3413 -2.8014
  665MOL0     H87742   0.261   1.725   9.533  0.8679 -0.3406  2.2505
  665MOL0     H87743   0.030   1.738   9.626 -1.0444 -0.7895  1.1339
  665MOL0     H87744  -0.332   1.214   9.664 -1.2294 -0.6956 -0.0088
  665MOL0     H87745  -0.525   1.184   9.805 -2.2032  0.8039  0.8655
  665MOL0     H87746  -0.842   1.511   9.818 -0.5162 -0.0073  1.5769
  665MOL0     H87747  -0.740   1.556   9.931 -0.6407  0.8224 -2.0109
  665MOL0     H87748  -0.958   1.518  10.012 -1.9042 -1.0287 -1.5399
  665MOL0     H87749  -0.854   1.411  10.110  0.4825  0.8351 -0.2807
  665MOL0     H87750  -0.950   1.222  10.002  2.1524  1.6124  3.3168
  665MOL0     H87751  -1.003   1.318   9.866 -1.7150 -1.9793  0.3322
  665MOL0     H87752  -1.112   1.361  10.139  0.3559 -0.0632 -0.8329
  665MOL0     H87753  -1.163   1.440   9.990  1.3170  1.2703 -0.1432
  665MOL0     H87754  -1.213   1.156  10.092  0.1651  0.8928  0.3972
  665MOL0     H87755  -1.238   1.190   9.920 -0.5013 -0.6691 -0.0170
  665MOL0     H87756  -1.394   1.381   9.987 -0.1847  0.3076  1.4322
  665MOL0     H87757  -1.377   1.304  10.150  1.8906  2.3395  0.3177
  665MOL0     H87758  -1.512   1.208   9.904  1.6932 -0.8272 -0.4842
  665MOL0     H87759  -1.452   1.088  10.021  0.1452 -1.2512 -1.6510
  665MOL0     H87760  -1.607   1.163  10.184 -0.5697 -0.0534 -0.5020
  665MOL0     H87761  -1.697   1.188  10.030  0.1222 -0.2992 -0.4912
  665MOL0     H87762  -0.661   1.572   9.707  0.0059 -0.0994 -0.1898
  665MOL0     H87763  -0.414   1.629   9.615  1.5850 -0.6762 -0.7077
  665MOL0     H87764   0.000   1.311   9.546 -1.7312  2.0916 -0.0222
  665MOL0     H87765   0.230   1.301   9.488  2.3253  0.6606 -1.0144
  665MOL0     H87766   2.245   1.759   9.177  0.7104  0.2186 -1.4749
  665MOL0     H87767   2.450   1.882   9.193  2.9459 -1.8804  2.7060
  665MOL0     H87768   2.810   2.071   9.690 -0.7670  0.5859 -0.5621
  665MOL0     H87769   3.026   2.160   9.653  0.6980 -3.2050 -0.6846
  665MOL0     H87770   3.244   2.156   9.580  1.0282  1.4987 -0.1614
  665MOL0     H87771   3.198   2.325   9.556  1.1491  0.9712 -1.3414
  665MOL0     H87772   3.393   2.150   9.395 -0.9059  0.1306 -0.8094
  665MOL0     H87773   3.358   2.315   9.348 -1.6564  0.2179  0.5129
  665MOL0     H87774   3.473   2.215   9.619 -0.9437  4.4333  2.4614
  665MOL0     H87775   3.429   2.376   9.595 -0.3486  1.9399 -2.0737
  665MOL0     H87776   3.676   2.317   9.564  1.8209 -1.3827 -1.5832
  665MOL0     H87777   3.629   2.253   9.401  1.3950  0.4633  0.3862
  665MOL0     H87778   3.594   2.685   9.377  2.0541 -0.0159  1.2028
  665MOL0     H87779   2.939   2.163   9.225  0.3373  1.5523 -0.0271
  665MOL0     H87780   2.703   2.147   9.288  0.8097  2.1654  0.2611
  666MOL0     O87781   8.402   7.403   1.197  1.0448  1.2032  1.0646
  666MOL0     C87782   8.492   7.351   1.256  0.6736  0.4135  0.2573
  666MOL0     O87783   8.466   7.263   1.364 -0.1518  0.1445  0.6953
  666MOL0     C87784   8.349   7.203   1.378 -0.5385  0.1292 -0.1818
  666MOL0     C87785   8.280   7.204   1.502 -1.1521 -0.2363 -0.4839
  666MOL0     C87786   8.152   7.148   1.514 -0.0918 -0.2837  0.2929
  666MOL0     C87787   8.092   7.091   1.405  0.4862 -0.5694 -0.4331
  666MOL0     O87788   7.948   7.068   1.422  0.3000 -0.1399 -0.5630
  666MOL0     C87789   7.869   7.086   1.306 -0.1697  0.4666 -1.0836
  666MOL0     C87790   7.770   6.967   1.311  0.2383 -0.2362  0.4156
  666MOL0     C87791   7.843   6.832   1.309  0.1979 -0.2010  0.0146
  666MOL0     C87792   7.726   6.722   1.313 -0.7155 -0.8492  0.2214
  666MOL0     C87793   7.783   6.578   1.330 -0.5321  0.1017  0.5830
  666MOL0     C87794   7.807   6.514   1.470 -0.2298 -0.0858  0.2487
  666MOL0     C87795   7.847   6.368   1.445  0.4421 -0.7260  0.6175
  666MOL0     C87796   7.940   6.331   1.553  0.0134  0.3857 -0.2181
  666MOL0     N87797   7.961   6.181   1.547 -0.2881  0.2152  0.7820
  666MOL0     C87798   7.869   6.077   1.574 -0.0199 -0.0359  0.2404
  666MOL0     C87799   7.946   5.970   1.578 -0.2574  0.6390 -0.1125
  666MOL0     C87800   7.897   5.826   1.603 -0.3862 -0.1630 -0.5494
  666MOL0     C87801   7.893   5.781   1.751  0.3118 -0.8793  0.0527
  666MOL0     C87802   7.852   5.637   1.764 -0.0313  0.5021 -0.1395
  666MOL0     C87803   7.711   5.601   1.730  1.2613  0.0561 -0.0634
  666MOL0     O87804   7.631   5.638   1.842  0.3679 -1.0022 -0.6281
  666MOL0     C87805   7.514   5.577   1.864  0.3503  0.0240  0.4700
  666MOL0     C87806   7.459   5.598   1.992  0.2937 -0.3002 -1.0872
  666MOL0     C87807   7.332   5.545   2.020 -0.1244 -0.2974 -0.2434
  666MOL0     C87808   7.256   5.471   1.928 -0.0162 -0.5280  0.6691
  666MOL0     C87809   7.124   5.416   1.954  0.7847  1.2488  0.3262
  666MOL0     O87810   7.099   5.387   2.084 -0.3864 -1.2948  0.4269
  666MOL0     C87811   6.994   5.313   2.126  0.4949 -0.3037  0.4537
  666MOL0     C87812   6.924   5.352   2.236  0.0100 -0.7831  1.4227
  666MOL0     C87813   6.821   5.272   2.282 -0.1554  0.4499  0.2019
  666MOL0     C87814   6.776   5.165   2.216 -0.2573  0.3156  0.9519
  666MOL0     O87815   6.663   5.101   2.262 -0.9663 -0.0655  0.2142
  666MOL0     C87816   6.652   4.958   2.252 -0.3252  0.0762 -0.0658
  666MOL0     C87817   6.516   4.900   2.310 -0.5322 -0.4946 -0.6497
  666MOL0     C87818   6.498   4.748   2.284 -0.0786 -0.4432 -0.6811
  666MOL0     C87819   6.388   4.689   2.362  0.5544  1.0020  0.0068
  666MOL0     C87820   6.378   4.532   2.351  0.9376  0.3974 -0.1958
  666MOL0     C87821   6.348   4.479   2.211 -0.2838  0.2440 -0.1832
  666MOL0     C87822   6.268   4.352   2.201 -0.4525  0.5382 -0.8878
  666MOL0     C87823   6.336   4.235   2.279 -1.3756 -0.4592  0.6383
  666MOL0    Cl87824   6.500   4.229   2.186 -0.4561 -0.0073  0.3650
  666MOL0     C87825   6.850   5.121   2.107  0.0563 -0.2297  0.1941
  666MOL0     C87826   6.958   5.194   2.053  0.0430 -0.2135 -0.7030
  666MOL0     O87827   7.048   5.404   1.858  0.0553 -0.0576 -0.5724
  666MOL0     C87828   7.322   5.437   1.808 -0.2948  0.2589 -0.3100
  666MOL0     C87829   7.449   5.483   1.781 -0.1701 -0.3293  0.0055
  666MOL0     N87830   8.079   6.002   1.573  0.2537 -0.2035 -0.7199
  666MOL0     N87831   8.083   6.130   1.533 -0.2785  0.2917  0.5916
  666MOL0     C87832   8.158   7.092   1.280 -0.0989  0.2713 -0.3014
  666MOL0     C87833   8.288   7.141   1.270  0.7547  0.6741 -0.0043
  666MOL0     C87834   8.629   7.365   1.213 -0.2869 -0.9250 -0.3166
  666MOL0     C87835   8.670   7.350   1.081  0.4447 -0.0092  0.4129
  666MOL0     C87836   8.803   7.368   1.042  0.6701  0.1394  0.5414
  666MOL0     C87837   8.904   7.380   1.144 -0.0621  0.1313  0.9050
  666MOL0     O87838   9.031   7.409   1.103 -0.4848  0.4724 -0.4458
  666MOL0     C87839   9.124   7.465   1.196 -0.1390  0.0872  0.0301
  666MOL0     C87840   9.207   7.366   1.273 -0.0414 -0.0770  0.0320
  666MOL0     C87841   9.221   7.237   1.194 -0.2362  0.3925 -0.2667
  666MOL0     C87842   9.324   7.237   1.077  0.0701 -0.9347 -0.6031
  666MOL0     C87843   9.461   7.223   1.130  0.0661 -0.1045 -0.0930
  666MOL0     C87844   9.570   7.196   1.185  0.5556  0.3599  0.1850
  666MOL0     C87845   8.870   7.375   1.279  1.1381 -0.9210 -0.1034
  666MOL0     C87846   8.730   7.363   1.310  0.0763 -0.0482 -0.5908
  666MOL0     H87847   8.330   7.254   1.584 -2.6159  0.9387 -0.2673
  666MOL0     H87848   8.094   7.160   1.605  0.6328 -0.4051  0.7820
  666MOL0     H87849   7.919   7.056   1.213 -1.9891 -2.8430 -1.1694
  666MOL0     H87850   7.810   7.178   1.302 -1.8349 -0.4880  0.1152
  666MOL0     H87851   7.709   6.969   1.220  0.1215 -0.8408  0.4775
  666MOL0     H87852   7.707   6.990   1.397  0.3262  0.2797  0.3497
  666MOL0     H87853   7.914   6.838   1.391 -0.0619  0.5173  0.1962
  666MOL0     H87854   7.901   6.826   1.216  0.0407  2.0459 -0.2920
  666MOL0     H87855   7.661   6.744   1.398 -2.3143 -1.6983 -0.7492
  666MOL0     H87856   7.661   6.730   1.226 -0.3146  5.0289  0.0729
  666MOL0     H87857   7.881   6.578   1.282  1.6165  1.2613  4.5724
  666MOL0     H87858   7.712   6.510   1.280  1.8773  0.1842 -3.3329
  666MOL0     H87859   7.723   6.550   1.531  1.3611 -0.0089  2.4950
  666MOL0     H87860   7.897   6.562   1.510 -0.2583 -0.0411  0.2587
  666MOL0     H87861   7.756   6.309   1.451 -0.6131  0.9959  2.9951
  666MOL0     H87862   7.899   6.364   1.348 -2.3381  0.6481 -1.0391
  666MOL0     H87863   7.895   6.341   1.653  0.6303 -0.2664  0.1304
  666MOL0     H87864   8.029   6.392   1.542  1.0125 -1.1802 -1.2206
  666MOL0     H87865   7.762   6.087   1.587 -0.5184 -0.8456 -2.6924
  666MOL0     H87866   7.959   5.749   1.557  1.2131  1.5812 -1.4253
  666MOL0     H87867   7.792   5.827   1.571  0.0327  1.4987 -2.0348
  666MOL0     H87868   7.839   5.859   1.805 -1.2653 -0.7268 -1.6634
  666MOL0     H87869   7.999   5.789   1.780  0.8053  3.4437 -2.0519
  666MOL0     H87870   7.916   5.581   1.696 -1.6040  0.5460 -1.7331
  666MOL0     H87871   7.870   5.595   1.864  1.8227  0.8118 -0.3206
  666MOL0     H87872   7.716   5.492   1.728  3.9024  0.1094 -1.4324
  666MOL0     H87873   7.680   5.652   1.639  3.2373  2.3097  0.4058
  666MOL0     H87874   7.492   5.663   2.072 -1.7353 -0.8682  0.2906
  666MOL0     H87875   7.285   5.576   2.113 -1.4306  0.2782 -1.0773
  666MOL0     H87876   6.941   5.442   2.295 -0.1018  1.3136 -1.5530
  666MOL0     H87877   6.770   5.310   2.370  1.4710 -2.2665  2.5074
  666MOL0     H87878   6.742   4.917   2.299  0.5957 -0.1152 -1.8939
  666MOL0     H87879   6.661   4.923   2.149  1.9000 -0.2895  0.2008
  666MOL0     H87880   6.437   4.966   2.272  1.3627  0.4561 -3.2148
  666MOL0     H87881   6.524   4.903   2.419  1.8904 -3.0458 -0.6632
  666MOL0     H87882   6.594   4.700   2.303  0.2385  0.1067 -0.8809
  666MOL0     H87883   6.474   4.731   2.179  1.4827 -1.5354 -0.8839
  666MOL0     H87884   6.401   4.718   2.467 -1.6484 -1.3725  1.0520
  666MOL0     H87885   6.292   4.733   2.333  0.6159  1.7038  0.8451
  666MOL0     H87886   6.311   4.494   2.428 -0.3751  2.6277 -0.1267
  666MOL0     H87887   6.471   4.480   2.372  0.1656 -1.9509 -2.0691
  666MOL0     H87888   6.438   4.480   2.149  0.3846  1.2878  0.7579
  666MOL0     H87889   6.284   4.552   2.161 -4.3673 -3.1201 -0.3586
  666MOL0     H87890   6.164   4.374   2.227 -0.4766 -0.7467  0.2068
  666MOL0     H87891   6.264   4.340   2.093 -3.1636  3.3878 -1.2676
  666MOL0     H87892   6.283   4.143   2.256  1.8592 -1.7062 -2.9967
  666MOL0     H87893   6.343   4.251   2.387 -2.0912 -3.0934  1.1374
  666MOL0     H87894   6.819   5.035   2.049 -0.8522 -0.4683  1.0113
  666MOL0     H87895   7.014   5.164   1.965  2.4594  0.6837  0.4345
  666MOL0     H87896   7.268   5.366   1.746 -2.6161  0.8589  0.9043
  666MOL0     H87897   7.481   5.461   1.679 -1.3130 -1.6434 -0.0993
  666MOL0     H87898   8.112   7.064   1.186 -1.4700  1.0771  0.0954
  666MOL0     H87899   8.324   7.132   1.169 -0.2212  0.9604 -0.3882
  666MOL0     H87900   8.592   7.330   1.008 -0.1608  0.9323  0.7740
  666MOL0     H87901   8.830   7.357   0.937 -0.8262 -3.7885  0.4025
  666MOL0     H87902   9.072   7.539   1.257 -0.6234 -1.2490  1.2988
  666MOL0     H87903   9.204   7.515   1.140  0.0697  3.9207  3.2935
  666MOL0     H87904   9.300   7.420   1.295 -0.4814  1.1740 -1.0381
  666MOL0     H87905   9.150   7.347   1.364  1.2574  1.8370  1.3209
  666MOL0     H87906   9.127   7.192   1.159  0.7154 -1.1604 -0.9383
  666MOL0     H87907   9.261   7.170   1.271 -2.8282  0.5100  1.3298
  666MOL0     H87908   9.303   7.162   1.001 -2.1095  0.2114 -1.2126
  666MOL0     H87909   9.316   7.332   1.022 -0.9201  0.4103  1.7324
  666MOL0     H87910   9.667   7.207   1.230  0.7246  2.3052 -0.5860
  666MOL0     H87911   8.938   7.388   1.363  2.3625  1.6550 -1.3445
  666MOL0     H87912   8.696   7.368   1.413 -1.8404  0.6630 -1.2080
  667MOL0     O87913  11.207   6.607   7.446 -0.0457 -0.2340  0.0570
  667MOL0     C87914  11.197   6.602   7.565  0.7566 -0.2280  0.1522
  667MOL0     O87915  11.078   6.581   7.632 -0.0770  0.1160 -0.3274
  667MOL0     C87916  10.972   6.610   7.559  1.0267 -0.8024 -0.3668
  667MOL0     C87917  10.880   6.511   7.527  0.6574 -0.4445  0.2843
  667MOL0     C87918  10.755   6.545   7.467  0.2364 -0.5664  0.1755
  667MOL0     C87919  10.729   6.671   7.436 -0.0674 -0.4631  0.4677
  667MOL0     O87920  10.610   6.695   7.358 -1.2905 -0.6904  0.1210
  667MOL0     C87921  10.582   6.832   7.339 -0.9821  0.3192  0.1572
  667MOL0     C87922  10.450   6.857   7.263 -0.2237  0.4803 -0.8872
  667MOL0     C87923  10.335   6.794   7.339  0.1095 -0.0066 -0.3207
  667MOL0     C87924  10.210   6.777   7.248 -0.1698  0.4910  0.5346
  667MOL0     C87925  10.081   6.786   7.336 -0.3713  0.2270  0.1144
  667MOL0     C87926  10.058   6.674   7.436 -0.4351  0.4235 -0.1998
  667MOL0     C87927   9.965   6.715   7.560 -0.8692 -1.1162  0.9719
  667MOL0     C87928  10.025   6.809   7.663  0.2053  0.1122 -0.4058
  667MOL0     N87929  10.138   6.752   7.734  0.5565 -0.2481  0.7289
  667MOL0     C87930  10.269   6.787   7.706 -0.7644  0.0876 -0.3905
  667MOL0     C87931  10.347   6.728   7.802 -0.3267 -0.0373 -0.4300
  667MOL0     C87932  10.492   6.729   7.839 -0.5663  0.8794  0.3036
  667MOL0     C87933  10.578   6.618   7.762  1.2019  0.5292  0.8177
  667MOL0     C87934  10.553   6.476   7.814 -0.2858 -0.5952  0.2996
  667MOL0     C87935  10.572   6.364   7.708 -0.5381  0.5834 -0.1765
  667MOL0     O87936  10.459   6.389   7.615  0.3909  0.6611  0.7130
  667MOL0     C87937  10.329   6.357   7.648  0.0838 -0.0411  0.9266
  667MOL0     C87938  10.227   6.387   7.562 -1.1282  0.2521 -0.0348
  667MOL0     C87939  10.092   6.358   7.586 -1.0331  0.0674  0.1318
  667MOL0     C87940  10.058   6.297   7.705 -0.0190  1.0197  0.5606
  667MOL0     C87941   9.915   6.277   7.745 -0.3142 -0.0176 -0.1126
  667MOL0     O87942   9.828   6.306   7.651  0.6144  0.8859 -0.0457
  667MOL0     C87943   9.695   6.328   7.692  0.2819 -0.3585 -0.9057
  667MOL0     C87944   9.594   6.266   7.613  0.2993  0.1105 -0.7295
  667MOL0     C87945   9.462   6.291   7.639  0.3473 -0.6800  0.1026
  667MOL0     C87946   9.423   6.364   7.753  0.4562 -0.3828 -0.2418
  667MOL0     O87947   9.292   6.377   7.793 -0.1925 -0.2489 -0.0055
  667MOL0     C87948   9.177   6.309   7.725  0.2213 -0.5285 -0.5306
  667MOL0     C87949   9.122   6.384   7.602 -0.2919  0.2076  0.3434
  667MOL0     C87950   8.980   6.329   7.564 -0.2882  0.7721 -1.3168
  667MOL0     C87951   8.988   6.183   7.512  0.4223 -0.0500  0.5506
  667MOL0     C87952   8.852   6.138   7.456  0.2249 -0.7185 -0.4009
  667MOL0     C87953   8.845   5.989   7.458  0.0475  0.4022  0.6429
  667MOL0     C87954   8.811   5.924   7.596  0.7665 -0.3039 -0.1805
  667MOL0     C87955   8.867   5.788   7.625 -0.1971  0.4569 -0.6195
  667MOL0    Cl87956   9.048   5.812   7.645  0.0575 -0.2254  0.0172
  667MOL0     C87957   9.520   6.421   7.833 -0.6323  0.3425  0.0829
  667MOL0     C87958   9.657   6.403   7.804  0.1384  0.1770  0.2912
  667MOL0     O87959   9.892   6.229   7.850  0.3874 -0.0878  0.3424
  667MOL0     C87960  10.163   6.254   7.797  1.2332 -0.3419  0.8584
  667MOL0     C87961  10.293   6.293   7.764 -0.4601  0.2576  0.3317
  667MOL0     N87962  10.254   6.673   7.892  0.0872  0.3186 -0.6111
  667MOL0     N87963  10.134   6.697   7.859 -0.7875  0.3929 -0.2313
  667MOL0     C87964  10.821   6.779   7.469 -0.3865  0.7287  0.2674
  667MOL0     C87965  10.934   6.747   7.543 -0.8207 -0.0294  0.2105
  667MOL0     C87966  11.321   6.605   7.641 -0.4472  0.3239 -0.1657
  667MOL0     C87967  11.432   6.536   7.598 -0.1722  0.2822 -0.0751
  667MOL0     C87968  11.549   6.548   7.677 -0.6906 -0.1708  0.4073
  667MOL0     C87969  11.562   6.631   7.783  0.1361  0.7149  0.9898
  667MOL0     O87970  11.693   6.652   7.829 -0.0240  0.4042  0.0654
  667MOL0     C87971  11.705   6.740   7.947 -0.7428  0.5251  0.4892
  667MOL0     C87972  11.722   6.883   7.897 -0.5794 -0.0137  0.7937
  667MOL0     C87973  11.729   6.985   8.015  0.6663  1.0686  0.0971
  667MOL0     C87974  11.783   7.120   7.964  0.0980 -0.7474 -0.1124
  667MOL0     C87975  11.784   7.221   8.071  0.1162 -0.4690  0.3110
  667MOL0     C87976  11.792   7.300   8.168 -0.2111 -0.0624  0.1624
  667MOL0     C87977  11.442   6.690   7.831  0.6929 -0.6972 -0.0500
  667MOL0     C87978  11.328   6.673   7.763  0.4664  0.2386  0.1743
  667MOL0     H87979  10.895   6.412   7.569  2.6018  0.4164  1.8403
  667MOL0     H87980  10.689   6.460   7.454 -3.5491  1.7479  2.5879
  667MOL0     H87981  10.669   6.870   7.285  0.1821 -2.2672  0.0719
  667MOL0     H87982  10.564   6.867   7.441 -0.1347  1.1493  0.0353
  667MOL0     H87983  10.461   6.815   7.163  0.9516 -0.6216 -0.3110
  667MOL0     H87984  10.419   6.962   7.262 -3.6340 -0.2690  2.5889
  667MOL0     H87985  10.314   6.855   7.428  2.9859 -0.8314  1.0392
  667MOL0     H87986  10.357   6.692   7.371  1.8373  0.5061  0.2162
  667MOL0     H87987  10.193   6.856   7.174 -1.6260 -1.4877 -1.3869
  667MOL0     H87988  10.212   6.681   7.196  0.4639 -0.0270  1.4965
  667MOL0     H87989   9.993   6.795   7.272 -1.1282 -1.7427  0.7994
  667MOL0     H87990  10.089   6.879   7.393 -1.5091  1.0964 -1.0788
  667MOL0     H87991  10.154   6.636   7.471  0.2564  0.8081 -1.6049
  667MOL0     H87992  10.016   6.588   7.383  2.0747  1.2937 -3.9874
  667MOL0     H87993   9.874   6.761   7.519 -1.2852 -2.8371 -0.1402
  667MOL0     H87994   9.913   6.632   7.609 -3.5837 -0.9273 -1.3071
  667MOL0     H87995   9.949   6.835   7.736 -1.2446  3.2193 -2.7853
  667MOL0     H87996  10.050   6.907   7.621  0.7745  0.8103  1.5005
  667MOL0     H87997  10.305   6.856   7.630 -1.7114  0.2417 -0.7205
  667MOL0     H87998  10.511   6.713   7.946  0.0287 -1.5889 -0.1220
  667MOL0     H87999  10.535   6.827   7.815  0.5978  0.3480  0.1311
  667MOL0     H88000  10.686   6.629   7.772  1.2547  2.2285 -1.0069
  667MOL0     H88001  10.562   6.629   7.654  2.5382  4.0464  0.8442
  667MOL0     H88002  10.618   6.468   7.902 -2.0867  1.0479  1.8554
  667MOL0     H88003  10.455   6.461   7.860 -1.1476  1.1504 -0.8826
  667MOL0     H88004  10.571   6.269   7.763  0.0472  1.6618  1.7901
  667MOL0     H88005  10.667   6.362   7.655 -0.6580 -1.7073 -0.4276
  667MOL0     H88006  10.252   6.439   7.470 -1.2229  0.3544 -0.0016
  667MOL0     H88007  10.018   6.385   7.511  0.2086 -2.5148 -2.2047
  667MOL0     H88008   9.619   6.210   7.524 -1.9232 -1.1428 -0.6498
  667MOL0     H88009   9.384   6.248   7.577  2.5954 -2.9343 -1.3239
  667MOL0     H88010   9.093   6.295   7.793  0.9604  0.7778  0.6995
  667MOL0     H88011   9.211   6.208   7.699 -2.3749 -0.9524 -2.6041
  667MOL0     H88012   9.178   6.382   7.509 -1.1527 -1.4935 -0.1841
  667MOL0     H88013   9.108   6.484   7.646  0.1439 -0.0267  1.0297
  667MOL0     H88014   8.931   6.395   7.492 -1.4221  0.2493 -1.0473
  667MOL0     H88015   8.909   6.336   7.647 -0.6709  2.0468 -1.7360
  667MOL0     H88016   9.061   6.185   7.431  0.2030  0.4833  0.3680
  667MOL0     H88017   9.024   6.109   7.585 -0.3367 -0.4963  0.4770
  667MOL0     H88018   8.847   6.172   7.352  1.8390 -1.8771 -0.9162
  667MOL0     H88019   8.768   6.172   7.516  0.3955  0.0504 -0.5851
  667MOL0     H88020   8.939   5.949   7.419 -0.6883 -0.3284 -0.4329
  667MOL0     H88021   8.758   5.960   7.399  0.9463 -1.4409  0.1607
  667MOL0     H88022   8.836   5.998   7.672  1.0296  2.7738 -3.0213
  667MOL0     H88023   8.702   5.924   7.598  0.6778  1.4559  3.6891
  667MOL0     H88024   8.841   5.728   7.537  2.0412  1.1713 -1.8325
  667MOL0     H88025   8.818   5.745   7.713 -0.3500  3.6431  0.9844
  667MOL0     H88026   9.486   6.495   7.904  1.8372  1.1100  0.5688
  667MOL0     H88027   9.729   6.464   7.858  1.2361  0.6716 -1.6074
  667MOL0     H88028  10.130   6.195   7.882 -2.8544  0.0021 -0.2435
  667MOL0     H88029  10.373   6.247   7.822  0.3248  1.3468  0.1299
  667MOL0     H88030  10.786   6.881   7.460  1.3195  1.1896 -1.8250
  667MOL0     H88031  10.991   6.828   7.586  0.1171 -1.0471  0.9587
  667MOL0     H88032  11.436   6.469   7.513  1.5170 -0.5882  0.6356
  667MOL0     H88033  11.639   6.504   7.635 -2.1783  0.2937 -3.7601
  667MOL0     H88034  11.792   6.712   8.007 -1.5765 -1.0041  1.0167
  667MOL0     H88035  11.622   6.736   8.018 -0.0604  0.5480  1.3125
  667MOL0     H88036  11.819   6.890   7.847  0.0616 -0.1194  1.9879
  667MOL0     H88037  11.652   6.915   7.819 -0.7907 -0.5163  0.7734
  667MOL0     H88038  11.787   6.930   8.089  1.0035 -1.6131 -1.9984
  667MOL0     H88039  11.627   7.007   8.049  1.1771  2.9471  0.5085
  667MOL0     H88040  11.882   7.109   7.920 -1.1006  1.1939 -3.7172
  667MOL0     H88041  11.717   7.158   7.886 -0.1477  0.5133  0.6735
  667MOL0     H88042  11.798   7.368   8.250  1.7323  1.7094 -1.3193
  667MOL0     H88043  11.443   6.761   7.913  0.8755  0.5937 -1.1460
  667MOL0     H88044  11.236   6.721   7.794  0.2661  0.1667 -0.3028
  668MOL0     O88045   6.107   2.684   6.420  1.1770  0.3574 -0.7972
  668MOL0     C88046   6.119   2.562   6.404  0.1662 -0.5614  0.3753
  668MOL0     O88047   6.021   2.476   6.347  0.0667  0.4965 -0.3718
  668MOL0     C88048   5.890   2.500   6.381 -0.3229  0.8201 -0.2058
  668MOL0     C88049   5.837   2.565   6.493 -0.2632 -0.2391  0.4314
  668MOL0     C88050   5.697   2.569   6.512  0.2493 -0.6935  1.1144
  668MOL0     C88051   5.603   2.519   6.418 -0.2805 -0.0371 -0.1195
  668MOL0     O88052   5.470   2.523   6.424 -0.6935 -0.6450  0.1513
  668MOL0     C88053   5.422   2.653   6.387  0.3432 -0.5793 -0.8251
  668MOL0     C88054   5.384   2.738   6.514  0.7122  0.5865 -1.2545
  668MOL0     C88055   5.271   2.663   6.593 -0.8797 -0.4044 -0.5765
  668MOL0     C88056   5.137   2.669   6.522  0.7654 -0.8241  0.2743
  668MOL0     C88057   5.019   2.641   6.611  0.2492 -0.6080  0.0183
  668MOL0     C88058   5.023   2.492   6.654 -0.1380  0.1507  0.7776
  668MOL0     C88059   4.875   2.434   6.664 -0.1254 -0.2090  0.4877
  668MOL0     C88060   4.804   2.504   6.768 -0.8938 -0.4899  0.2912
  668MOL0     N88061   4.671   2.442   6.781 -0.7336 -0.0347 -0.1220
  668MOL0     C88062   4.629   2.343   6.856  0.2448  0.5718  0.4537
  668MOL0     C88063   4.507   2.302   6.812 -0.3370  0.0357  0.5697
  668MOL0     C88064   4.413   2.198   6.876  0.5060 -0.3917 -0.1728
  668MOL0     C88065   4.390   2.062   6.801 -0.2890  0.1475 -0.4558
  668MOL0     C88066   4.288   2.076   6.685  0.5737 -0.5308  0.0443
  668MOL0     C88067   4.137   2.093   6.723 -1.3196 -0.1229  0.3003
  668MOL0     O88068   4.100   1.969   6.781 -0.9247  0.1534 -0.0202
  668MOL0     C88069   3.988   1.958   6.854  0.1843 -0.4684 -0.1732
  668MOL0     C88070   3.966   1.842   6.918 -0.4907  0.6191 -0.5592
  668MOL0     C88071   3.850   1.819   6.992  0.5938 -0.3088 -0.4731
  668MOL0     C88072   3.752   1.924   7.007 -0.4876 -0.6192  0.1261
  668MOL0     C88073   3.624   1.901   7.072  0.6527 -0.0354 -0.3647
  668MOL0     O88074   3.528   1.996   7.048 -0.6267 -0.2013  0.3074
  668MOL0     C88075   3.409   1.998   7.111 -0.0495  0.3409  0.3691
  668MOL0     C88076   3.290   2.030   7.044  0.2844  0.0465  0.4594
  668MOL0     C88077   3.168   2.042   7.110  0.2801 -0.2025  0.0289
  668MOL0     C88078   3.163   2.040   7.256  0.9449 -0.2989  0.1045
  668MOL0     O88079   3.042   2.038   7.333  0.0036 -1.0284  0.0996
  668MOL0     C88080   2.924   2.022   7.262  0.5766 -0.1348 -0.1112
  668MOL0     C88081   2.803   1.981   7.354  0.4566 -0.5905 -0.1051
  668MOL0     C88082   2.824   2.024   7.500  0.2606 -1.0531  0.5344
  668MOL0     C88083   2.693   2.020   7.578 -0.1738  0.3719  0.1412
  668MOL0     C88084   2.576   2.109   7.542 -0.7027  0.0607 -0.1371
  668MOL0     C88085   2.467   2.092   7.649  0.1572  0.0002  0.6192
  668MOL0     C88086   2.346   2.185   7.618  1.2686  0.1622 -0.4329
  668MOL0     C88087   2.220   2.136   7.694  0.2200  0.3857  0.6653
  668MOL0    Cl88088   2.107   2.273   7.661 -0.4283 -0.0562 -0.1308
  668MOL0     C88089   3.284   2.021   7.327 -0.1827 -0.8384  0.1928
  668MOL0     C88090   3.403   2.002   7.257  0.9801  0.5372  0.7557
  668MOL0     O88091   3.614   1.820   7.159 -0.1791  0.8443 -0.4182
  668MOL0     C88092   3.773   2.040   6.929 -0.1502  0.4847  0.1801
  668MOL0     C88093   3.891   2.054   6.852  0.1795  0.3984 -0.2192
  668MOL0     N88094   4.479   2.375   6.692  0.2507  0.1279  0.3619
  668MOL0     N88095   4.581   2.451   6.680 -0.3180 -0.4911 -0.9055
  668MOL0     C88096   5.661   2.449   6.311 -0.6136  0.1066  0.3364
  668MOL0     C88097   5.799   2.442   6.288 -0.5244  0.5398  0.0907
  668MOL0     C88098   6.247   2.509   6.429 -0.4672  0.2273 -0.4602
  668MOL0     C88099   6.342   2.572   6.516  0.6146  0.7394 -0.1041
  668MOL0     C88100   6.465   2.508   6.550  0.2564  1.0907  0.0372
  668MOL0     C88101   6.505   2.391   6.476 -0.0765 -0.0854  0.8302
  668MOL0     O88102   6.620   2.318   6.507  0.2868  0.0256 -0.3095
  668MOL0     C88103   6.746   2.396   6.505  0.3779  1.0218 -0.2632
  668MOL0     C88104   6.754   2.478   6.377  0.2095  0.8501  0.4882
  668MOL0     C88105   6.734   2.409   6.245  0.8154 -0.4145  0.2549
  668MOL0     C88106   6.856   2.356   6.185  0.3243  0.9035  0.3103
  668MOL0     C88107   6.917   2.249   6.262 -0.4190  0.1367  0.1062
  668MOL0     C88108   6.973   2.170   6.342  1.2767  0.4835  0.3570
  668MOL0     C88109   6.410   2.328   6.394  0.2966 -0.5379  0.1849
  668MOL0     C88110   6.286   2.397   6.361  0.0345  0.1523 -0.0943
  668MOL0     H88111   5.896   2.604   6.575 -0.3810 -0.7185  0.7511
  668MOL0     H88112   5.654   2.610   6.603 -3.2774 -0.6208 -0.4580
  668MOL0     H88113   5.329   2.642   6.331 -0.3969 -0.2524  0.3085
  668MOL0     H88114   5.486   2.721   6.329  0.6526 -0.2669 -0.1291
  668MOL0     H88115   5.355   2.842   6.496  1.6993  1.6650  2.5921
  668MOL0     H88116   5.463   2.747   6.589 -1.6252  0.8265  1.3385
  668MOL0     H88117   5.271   2.706   6.693 -0.4113 -0.1078 -0.7010
  668MOL0     H88118   5.299   2.560   6.619  0.5596  0.2047  0.3752
  668MOL0     H88119   5.119   2.768   6.480 -2.0577 -1.1679  0.5296
  668MOL0     H88120   5.136   2.604   6.434 -3.1738 -0.1273 -0.3582
  668MOL0     H88121   4.931   2.659   6.549 -0.5707 -0.2099  1.2756
  668MOL0     H88122   5.010   2.702   6.701 -0.1923 -0.4733 -0.1176
  668MOL0     H88123   5.086   2.487   6.743 -0.6752 -0.3812  1.1312
  668MOL0     H88124   5.069   2.432   6.574 -1.4301  1.0914 -0.7424
  668MOL0     H88125   4.816   2.442   6.572  0.9082  1.0029 -0.1064
  668MOL0     H88126   4.878   2.329   6.692  0.4466 -0.6846 -1.2258
  668MOL0     H88127   4.790   2.611   6.750  1.9512 -0.1412 -0.2338
  668MOL0     H88128   4.860   2.494   6.861  0.8379  2.7217 -0.2848
  668MOL0     H88129   4.665   2.305   6.952 -3.2545  1.4763  2.3095
  668MOL0     H88130   4.318   2.240   6.910  0.2629 -0.3164 -0.9177
  668MOL0     H88131   4.466   2.164   6.965 -2.7074 -6.4788 -0.0719
  668MOL0     H88132   4.338   1.994   6.869 -0.8327 -1.3456 -2.2873
  668MOL0     H88133   4.488   2.034   6.764 -0.0887 -0.0472  0.2119
  668MOL0     H88134   4.325   2.166   6.635  1.6305 -0.7497  0.4140
  668MOL0     H88135   4.295   1.992   6.615  0.0911 -1.6392  1.3010
  668MOL0     H88136   4.074   2.122   6.639  0.4282  2.1065 -0.3218
  668MOL0     H88137   4.137   2.169   6.801 -3.0718 -0.9998  1.2329
  668MOL0     H88138   4.022   1.753   6.891 -2.3952 -0.0824 -2.4449
  668MOL0     H88139   3.822   1.719   7.021  0.9648 -0.3256 -0.1682
  668MOL0     H88140   3.300   2.035   6.936  0.7523 -4.1527  0.1618
  668MOL0     H88141   3.078   2.062   7.053  0.9780  1.5299 -0.5613
  668MOL0     H88142   2.947   1.951   7.181  1.0647  0.0011 -0.0962
  668MOL0     H88143   2.897   2.116   7.213 -4.9115 -2.7729 -3.1808
  668MOL0     H88144   2.780   1.874   7.354 -3.5259  0.1150 -1.2304
  668MOL0     H88145   2.713   2.031   7.318 -0.3060  1.1804  3.7933
  668MOL0     H88146   2.868   2.124   7.510  0.0804 -1.0781  1.6084
  668MOL0     H88147   2.898   1.961   7.550 -0.2901 -1.0336  1.3930
  668MOL0     H88148   2.659   1.918   7.553  2.5555 -0.6186  0.1508
  668MOL0     H88149   2.722   2.022   7.683  1.7054  1.4780 -0.3493
  668MOL0     H88150   2.538   2.095   7.441 -1.1291 -1.2174  0.1782
  668MOL0     H88151   2.607   2.214   7.545  3.5652 -0.8970 -2.1159
  668MOL0     H88152   2.512   2.117   7.746 -1.3264 -3.7317  2.4941
  668MOL0     H88153   2.426   1.991   7.639  0.0597  0.1295 -0.2853
  668MOL0     H88154   2.362   2.280   7.670  4.8165  0.7855 -2.3226
  668MOL0     H88155   2.311   2.199   7.516 -1.3502 -4.6049 -0.4771
  668MOL0     H88156   2.242   2.120   7.800 -1.4774 -0.7895  0.8809
  668MOL0     H88157   2.182   2.043   7.651  0.7197 -0.1539  1.3681
  668MOL0     H88158   3.288   2.032   7.435 -1.5120 -0.2880  0.2122
  668MOL0     H88159   3.492   1.977   7.314  1.2527 -3.9880 -1.1480
  668MOL0     H88160   3.689   2.109   6.919  1.9518  3.3982  1.4112
  668MOL0     H88161   3.896   2.148   6.797 -1.4358  0.6892  0.0659
  668MOL0     H88162   5.602   2.408   6.229  2.1291  1.4488 -2.4863
  668MOL0     H88163   5.850   2.390   6.208  1.3253 -0.5344  1.8542
  668MOL0     H88164   6.326   2.663   6.574 -2.5655 -1.5774  3.1769
  668MOL0     H88165   6.534   2.549   6.622 -1.1707 -2.1202  3.5807
  668MOL0     H88166   6.827   2.324   6.517 -0.4310 -0.4115 -2.6090
  668MOL0     H88167   6.750   2.468   6.587 -0.3424  1.1462 -0.3281
  668MOL0     H88168   6.676   2.555   6.385 -0.8397 -0.2627  1.4226
  668MOL0     H88169   6.852   2.525   6.364 -0.0599  1.2106 -0.3470
  668MOL0     H88170   6.701   2.478   6.168  0.9227  0.0549  0.6223
  668MOL0     H88171   6.655   2.336   6.261 -0.9957  1.9067  2.8449
  668MOL0     H88172   6.845   2.309   6.087  2.7314  2.3895 -0.7825
  668MOL0     H88173   6.926   2.439   6.170 -0.3767  1.5280  0.4691
  668MOL0     H88174   7.011   2.097   6.410  0.6776 -1.2752 -1.1178
  668MOL0     H88175   6.425   2.227   6.358 -4.5112 -2.0605  1.5953
  668MOL0     H88176   6.238   2.351   6.276  0.5370 -1.1936  0.3172
  669MOL0     O88177   7.669   9.929   3.820 -0.6539 -0.3478 -0.4597
  669MOL0     C88178   7.741   9.833   3.826 -0.9948 -0.2898 -1.0523
  669MOL0     O88179   7.706   9.703   3.796  0.2774  0.0828  0.4774
  669MOL0     C88180   7.580   9.694   3.746  0.5097  0.4362  0.1289
  669MOL0     C88181   7.560   9.682   3.604  0.0062 -0.9505  0.3978
  669MOL0     C88182   7.431   9.653   3.559  0.3841 -0.6127 -0.5145
  669MOL0     C88183   7.317   9.653   3.645 -0.4676  0.2686 -0.1849
  669MOL0     O88184   7.192   9.638   3.610  0.5022  0.4006 -0.4661
  669MOL0     C88185   7.109   9.755   3.595 -0.4072  0.0635  0.1825
  669MOL0     C88186   7.002   9.770   3.703  0.3709  0.4711 -0.6431
  669MOL0     C88187   6.913   9.893   3.684  1.1131 -0.9232  0.1911
  669MOL0     C88188   6.813   9.906   3.801  0.3071  0.1684  0.0894
  669MOL0     C88189   6.743  10.042   3.789  0.4662 -0.1098  0.1160
  669MOL0     C88190   6.634  10.050   3.674 -0.8737 -0.1234 -1.1713
  669MOL0     C88191   6.589  10.198   3.663  0.1082 -0.0810  0.5263
  669MOL0     C88192   6.521  10.272   3.782  0.2657  0.5178 -0.6512
  669MOL0     N88193   6.393  10.210   3.841 -0.8872 -0.4042  0.6039
  669MOL0     C88194   6.287  10.156   3.764 -0.1728 -1.0237  0.8785
  669MOL0     C88195   6.211  10.085   3.851  0.6646  0.0812  0.2606
  669MOL0     C88196   6.077  10.022   3.827 -0.6260  0.3311  0.0485
  669MOL0     C88197   5.964  10.128   3.795 -0.3569 -0.7256 -0.2112
  669MOL0     C88198   5.843  10.051   3.737  0.0962 -0.8652  0.0834
  669MOL0     C88199   5.780   9.960   3.840  0.1813  0.5341 -0.4920
  669MOL0     O88200   5.643   9.951   3.797 -0.3020  0.3261 -0.2448
  669MOL0     C88201   5.558   9.877   3.874 -0.1053  0.6121 -0.6116
  669MOL0     C88202   5.429   9.891   3.828  0.0420 -0.4235 -0.3144
  669MOL0     C88203   5.324   9.826   3.903 -0.9722  0.1341 -0.6262
  669MOL0     C88204   5.358   9.733   4.009 -0.3622 -0.1411 -0.0294
  669MOL0     C88205   5.259   9.652   4.076  0.3908  0.1207  0.0309
  669MOL0     O88206   5.137   9.638   4.016  0.0385  0.2223  0.5120
  669MOL0     C88207   5.036   9.563   4.076 -0.2444 -0.0425  0.8902
  669MOL0     C88208   4.906   9.619   4.041 -0.6733  0.4931  0.1839
  669MOL0     C88209   4.789   9.549   4.055  0.2246  0.0087 -0.4054
  669MOL0     C88210   4.800   9.430   4.136  0.5007 -0.2134  0.1934
  669MOL0     O88211   4.678   9.361   4.170  0.0073 -0.0493  0.0222
  669MOL0     C88212   4.666   9.349   4.314 -0.0010  0.0908  0.0492
  669MOL0     C88213   4.523   9.318   4.350 -0.1689  0.6520  0.2398
  669MOL0     C88214   4.454   9.192   4.285  0.1964 -0.1821  0.5164
  669MOL0     C88215   4.331   9.150   4.368  0.0577  0.0724 -0.3122
  669MOL0     C88216   4.278   9.028   4.293  0.5482  0.0174  0.2852
  669MOL0     C88217   4.163   8.976   4.364  0.7821 -0.4503 -1.2898
  669MOL0     C88218   4.110   8.844   4.306  0.8408 -0.2053 -0.0438
  669MOL0     C88219   4.000   8.772   4.388 -0.1322  0.1097  0.7104
  669MOL0    Cl88220   3.852   8.877   4.425  0.3515  0.1110 -0.2234
  669MOL0     C88221   4.923   9.383   4.189  0.0764  0.0941 -0.4624
  669MOL0     C88222   5.045   9.450   4.157 -0.5076 -0.0303  0.2922
  669MOL0     O88223   5.289   9.609   4.193  0.8588 -0.6508  0.6298
  669MOL0     C88224   5.496   9.735   4.051  0.3551  0.9242 -0.1587
  669MOL0     C88225   5.596   9.797   3.982  1.2335  0.1138  0.6030
  669MOL0     N88226   6.270  10.099   3.975  1.0993  0.2212 -0.9605
  669MOL0     N88227   6.386  10.157   3.962  0.0544 -0.0161 -0.0043
  669MOL0     C88228   7.336   9.680   3.785 -0.6105 -0.0919  0.2628
  669MOL0     C88229   7.472   9.697   3.836  1.1325 -1.0829  0.2606
  669MOL0     C88230   7.879   9.856   3.864  0.0489  0.5405  0.1250
  669MOL0     C88231   7.980   9.762   3.846 -0.3342  0.3663  1.7101
  669MOL0     C88232   8.110   9.801   3.883  0.1806 -0.0705  0.2755
  669MOL0     C88233   8.144   9.932   3.919 -0.0748  0.1966  0.5391
  669MOL0     O88234   8.269   9.951   3.967  0.5722  0.2995 -0.2019
  669MOL0     C88235   8.308  10.078   4.022 -0.1344  0.4204  0.5055
  669MOL0     C88236   8.458  10.076   4.051  0.2949  0.7935  0.7673
  669MOL0     C88237   8.498   9.977   4.164  0.2920 -0.1375  0.8825
  669MOL0     C88238   8.632  10.017   4.230  0.3777 -0.4877  1.5949
  669MOL0     C88239   8.743  10.002   4.140  0.0305 -0.4700 -0.2168
  669MOL0     C88240   8.842   9.979   4.070  0.2537  0.1396  0.4817
  669MOL0     C88241   8.043  10.022   3.945  1.0914  0.5441  0.9970
  669MOL0     C88242   7.908   9.983   3.922  0.4734 -0.4000 -0.1565
  669MOL0     H88243   7.648   9.688   3.541  0.1049 -0.7271  0.5560
  669MOL0     H88244   7.405   9.626   3.457 -0.5535  1.5087 -0.9024
  669MOL0     H88245   7.058   9.739   3.500 -0.1356  0.9437 -0.1161
  669MOL0     H88246   7.168   9.846   3.583  0.8237 -0.6936  0.3470
  669MOL0     H88247   7.056   9.775   3.798  0.9263  2.9599 -1.0230
  669MOL0     H88248   6.939   9.680   3.700  0.7477  0.2221 -1.1131
  669MOL0     H88249   6.862   9.907   3.589 -2.4285 -0.0371  2.0472
  669MOL0     H88250   6.974   9.984   3.689  0.6486 -0.6657  1.7120
  669MOL0     H88251   6.733   9.832   3.803 -1.0493  1.5902 -0.1932
  669MOL0     H88252   6.876   9.882   3.887 -1.1927 -3.4667  0.3414
  669MOL0     H88253   6.818  10.120   3.777  0.6266 -0.6672 -3.7421
  669MOL0     H88254   6.679  10.046   3.878  0.1593  0.2677 -0.1179
  669MOL0     H88255   6.542   9.997   3.704  0.1290 -0.1643  2.2393
  669MOL0     H88256   6.667  10.011   3.578  1.0746 -0.2222 -0.5060
  669MOL0     H88257   6.680  10.251   3.634 -0.2658 -0.0573 -0.6827
  669MOL0     H88258   6.527  10.205   3.573  1.7057 -0.7467 -0.6946
  669MOL0     H88259   6.489  10.374   3.760 -0.3877  0.0584 -1.9430
  669MOL0     H88260   6.597  10.274   3.861 -0.5597 -1.0494  0.2396
  669MOL0     H88261   6.267  10.165   3.657  0.4707  1.1594  0.8699
  669MOL0     H88262   6.036   9.963   3.910 -1.5561 -0.8588 -1.2191
  669MOL0     H88263   6.097   9.952   3.746  1.1412 -1.3493  1.8007
  669MOL0     H88264   5.999  10.199   3.720 -0.1659  0.5871  1.0912
  669MOL0     H88265   5.936  10.183   3.885 -4.0117 -1.7063 -0.5957
  669MOL0     H88266   5.763  10.119   3.704  1.0864 -0.6343 -2.0061
  669MOL0     H88267   5.885  10.000   3.650  0.1530 -1.1800  0.2942
  669MOL0     H88268   5.782   9.996   3.943 -1.0884  0.4739 -0.4328
  669MOL0     H88269   5.836   9.866   3.834 -0.2232  0.2622 -0.0081
  669MOL0     H88270   5.415   9.949   3.738  0.7402 -2.7044 -1.9909
  669MOL0     H88271   5.221   9.840   3.870 -1.6416  1.5547  1.8262
  669MOL0     H88272   4.909   9.710   3.983  0.6707 -0.0228 -0.6121
  669MOL0     H88273   4.699   9.583   4.006 -0.5071  1.8174  1.9858
  669MOL0     H88274   4.702   9.433   4.374  0.4496 -1.2965  1.8201
  669MOL0     H88275   4.726   9.269   4.358  0.3364  0.9388  1.1731
  669MOL0     H88276   4.459   9.405   4.328 -3.2067 -1.6136 -0.6676
  669MOL0     H88277   4.518   9.309   4.459 -0.7380 -0.5738  0.1255
  669MOL0     H88278   4.527   9.111   4.295 -1.7767 -1.8051  2.6644
  669MOL0     H88279   4.446   9.207   4.177  2.1771  2.6989  0.6201
  669MOL0     H88280   4.360   9.124   4.470  1.5138 -0.5950 -0.8710
  669MOL0     H88281   4.257   9.231   4.360 -1.1856 -0.9769  0.2036
  669MOL0     H88282   4.354   8.949   4.290 -1.7683 -2.3057 -2.3908
  669MOL0     H88283   4.249   9.048   4.190  1.9398  0.8818  0.0331
  669MOL0     H88284   4.089   9.056   4.353  0.6938  0.0471  1.9381
  669MOL0     H88285   4.192   8.963   4.469 -2.4473 -2.3011 -0.4916
  669MOL0     H88286   4.073   8.865   4.205 -0.8304 -0.3107  0.5111
  669MOL0     H88287   4.190   8.772   4.288  1.7150  0.7756 -0.1161
  669MOL0     H88288   4.039   8.738   4.484  0.9349 -0.9674 -0.0774
  669MOL0     H88289   3.960   8.685   4.334  0.6975 -1.1889  2.0891
  669MOL0     H88290   4.924   9.306   4.265 -0.5360 -1.5092 -2.0095
  669MOL0     H88291   5.137   9.414   4.201 -1.2969  0.8964  2.9026
  669MOL0     H88292   5.534   9.682   4.138  1.9262  0.1849 -1.2416
  669MOL0     H88293   5.696   9.783   4.020  0.7924  2.4510  2.8596
  669MOL0     H88294   7.249   9.687   3.850 -1.6414  3.0553 -1.2378
  669MOL0     H88295   7.501   9.749   3.926 -0.1287  0.0601  0.0395
  669MOL0     H88296   7.959   9.665   3.802  0.4766 -0.1521  2.4466
  669MOL0     H88297   8.177   9.715   3.886 -0.6617 -0.7214  0.8097
  669MOL0     H88298   8.254  10.100   4.115  1.3149 -0.0373  1.4983
  669MOL0     H88299   8.286  10.149   3.942 -2.3441 -0.7413 -0.0121
  669MOL0     H88300   8.511  10.070   3.956  1.5770  1.7506  1.3901
  669MOL0     H88301   8.478  10.181   4.075  1.2257  0.9987 -0.8091
  669MOL0     H88302   8.495   9.877   4.121 -2.7089  0.3219 -0.2531
  669MOL0     H88303   8.426   9.992   4.246  0.2689  1.6689  0.5837
  669MOL0     H88304   8.633  10.125   4.247  3.7917 -0.2400  0.6542
  669MOL0     H88305   8.652   9.958   4.320  2.2624  1.6596  2.6885
  669MOL0     H88306   8.916   9.947   4.001 -0.4677  1.0197 -0.7445
  669MOL0     H88307   8.064  10.121   3.983  2.2890  0.7011 -0.0138
  669MOL0     H88308   7.836  10.064   3.930  0.9974 -0.0446  1.3320
  670MOL0     O88309   6.890   9.152   5.987 -0.1231 -0.4745 -0.5380
  670MOL0     C88310   6.887   9.169   5.868 -0.0818  0.7516  0.2163
  670MOL0     O88311   7.000   9.189   5.790  0.1853 -0.4188 -0.4299
  670MOL0     C88312   7.125   9.195   5.845  0.3945 -0.3569 -0.1532
  670MOL0     C88313   7.177   9.101   5.938  0.0109 -0.5076  0.2937
  670MOL0     C88314   7.323   9.096   5.948  0.9005 -0.1083  0.2732
  670MOL0     C88315   7.407   9.191   5.879 -1.2022 -0.5213 -0.3942
  670MOL0     O88316   7.541   9.207   5.905  0.0565 -0.2569 -0.1150
  670MOL0     C88317   7.582   9.339   5.953  0.0747  0.2550 -0.2945
  670MOL0     C88318   7.652   9.332   6.081 -0.2535 -0.8741  0.4346
  670MOL0     C88319   7.686   9.481   6.113 -0.7455 -0.0102  0.5256
  670MOL0     C88320   7.781   9.475   6.231  0.2992  0.0566  0.1153
  670MOL0     C88321   7.796   9.600   6.316 -0.7233  0.7196 -0.7081
  670MOL0     C88322   7.847   9.722   6.242 -0.9597  1.0123 -0.5220
  670MOL0     C88323   7.886   9.839   6.342  0.2598  0.0886 -0.1110
  670MOL0     C88324   7.938   9.947   6.244  0.2423 -0.6286 -0.1956
  670MOL0     N88325   7.937  10.076   6.308  0.0942  0.1560 -0.6348
  670MOL0     C88326   7.847  10.180   6.289  0.4615  0.4086  0.2023
  670MOL0     C88327   7.883  10.284   6.365  0.2430  0.1839 -0.2922
  670MOL0     C88328   7.820  10.422   6.367  0.5724  0.2851 -0.4845
  670MOL0     C88329   7.679  10.415   6.424  0.4990  0.0000  0.8242
  670MOL0     C88330   7.617  10.552   6.413  0.2726  0.0107 -0.3915
  670MOL0     C88331   7.473  10.542   6.468 -0.1928 -0.2384 -0.2542
  670MOL0     O88332   7.425  10.678   6.457 -0.6245 -0.6369 -0.5779
  670MOL0     C88333   7.289  10.697   6.446 -0.1239 -0.0524  0.1988
  670MOL0     C88334   7.185  10.605   6.462 -0.1073 -0.1072  0.1715
  670MOL0     C88335   7.043  10.648   6.440 -0.6138  0.4516  0.5617
  670MOL0     C88336   7.015  10.783   6.417  0.4353  0.0970 -0.0797
  670MOL0     C88337   6.876  10.834   6.395 -1.2041 -0.8850 -0.1298
  670MOL0     O88338   6.863  10.967   6.400  0.1017 -0.6363 -0.6221
  670MOL0     C88339   6.736  11.013   6.377 -0.5236  0.0053  0.1030
  670MOL0     C88340   6.703  11.062   6.246 -0.3567  0.8192 -0.0774
  670MOL0     C88341   6.575  11.107   6.211 -0.1261 -0.3689  0.1576
  670MOL0     C88342   6.468  11.113   6.310 -0.5311 -0.1552 -0.3642
  670MOL0     O88343   6.345  11.166   6.277 -0.6849  0.0285 -0.7728
  670MOL0     C88344   6.309  11.294   6.322 -0.8154  0.7292  0.1978
  670MOL0     C88345   6.155  11.292   6.339 -0.2615  0.0216 -0.5877
  670MOL0     C88346   6.082  11.258   6.211  0.3902  0.1453 -0.3382
  670MOL0     C88347   5.934  11.263   6.219  0.2214  0.0228 -0.3807
  670MOL0     C88348   5.864  11.200   6.104  0.1916 -0.9685  0.1765
  670MOL0     C88349   5.704  11.209   6.110 -0.6235 -1.0369  0.4798
  670MOL0     C88350   5.638  11.106   6.019  0.5829 -0.2707 -0.2805
  670MOL0     C88351   5.489  11.129   6.012 -0.7670 -0.4270 -0.0655
  670MOL0    Cl88352   5.451  11.238   5.881 -0.0993  0.3431 -0.0463
  670MOL0     C88353   6.497  11.053   6.441  0.5735  0.3630 -0.4115
  670MOL0     C88354   6.624  11.002   6.473  0.3250 -0.5631  0.0693
  670MOL0     O88355   6.788  10.752   6.398 -0.2948  0.4851  0.5072
  670MOL0     C88356   7.123  10.879   6.413  0.4402  0.7265  0.2350
  670MOL0     C88357   7.251  10.831   6.429  0.3576 -0.1509  0.2159
  670MOL0     N88358   8.003  10.246   6.433  0.4078 -0.2129 -0.6473
  670MOL0     N88359   8.022  10.119   6.411  0.2899 -0.2020 -0.1524
  670MOL0     C88360   7.346   9.289   5.797 -0.1413  0.6172 -0.0351
  670MOL0     C88361   7.209   9.294   5.779  0.0859  0.3004 -0.0990
  670MOL0     C88362   6.761   9.171   5.794  0.0395  0.0337  0.1124
  670MOL0     C88363   6.641   9.097   5.815 -0.1178  0.4362 -0.1135
  670MOL0     C88364   6.528   9.114   5.740 -0.5951  0.3315 -0.3576
  670MOL0     C88365   6.529   9.188   5.625  0.1118  0.3445  0.3520
  670MOL0     O88366   6.416   9.186   5.551  0.9044  0.4296 -0.6123
  670MOL0     C88367   6.427   9.209   5.410 -0.4824  0.4280 -0.5654
  670MOL0     C88368   6.284   9.214   5.349  0.0212  0.1804  0.6367
  670MOL0     C88369   6.278   9.203   5.195 -0.1027  0.9434 -0.4935
  670MOL0     C88370   6.141   9.224   5.139  0.2533 -0.3356 -0.4186
  670MOL0     C88371   6.136   9.204   4.996 -0.2736 -0.4446  0.9047
  670MOL0     C88372   6.109   9.180   4.879  0.2053 -0.1948  0.3416
  670MOL0     C88373   6.634   9.271   5.608 -1.1445  0.5344 -1.0088
  670MOL0     C88374   6.745   9.266   5.693 -0.1065  0.2225 -0.8099
  670MOL0     H88375   7.116   9.026   5.986  0.3965 -1.5993 -0.8899
  670MOL0     H88376   7.356   9.027   6.024 -1.5531 -1.0152  0.6101
  670MOL0     H88377   7.500   9.411   5.955 -1.5432 -1.5355  1.5664
  670MOL0     H88378   7.660   9.371   5.882 -0.7127 -1.7775 -2.1857
  670MOL0     H88379   7.740   9.268   6.071  0.8020  0.3738  1.3706
  670MOL0     H88380   7.582   9.299   6.159 -0.2600  1.5384  1.5654
  670MOL0     H88381   7.596   9.535   6.144 -0.4163 -0.4590  2.3360
  670MOL0     H88382   7.735   9.535   6.031  0.0072 -1.3688  0.0526
  670MOL0     H88383   7.744   9.391   6.291 -1.3798 -2.7352 -4.2468
  670MOL0     H88384   7.882   9.457   6.193  1.1042  2.6896  0.8078
  670MOL0     H88385   7.870   9.574   6.392 -1.2181  2.8106  0.5673
  670MOL0     H88386   7.708   9.629   6.374  1.0499  1.6807  1.6629
  670MOL0     H88387   7.775   9.764   6.172 -0.4042 -0.2146 -1.8899
  670MOL0     H88388   7.936   9.698   6.183 -0.6384  3.0174 -0.9284
  670MOL0     H88389   7.793   9.865   6.394  0.2763  0.3281 -0.2016
  670MOL0     H88390   7.968   9.806   6.407  0.8865 -2.7258 -2.1432
  670MOL0     H88391   7.888   9.946   6.147  1.3359 -3.2480 -0.8334
  670MOL0     H88392   8.045   9.926   6.228  0.4936 -0.2748  0.9774
  670MOL0     H88393   7.771  10.178   6.210 -0.5580 -0.4748  1.1744
  670MOL0     H88394   7.814  10.463   6.265 -0.0553 -0.1749 -0.6398
  670MOL0     H88395   7.874  10.491   6.431 -1.2245  0.4717  0.8910
  670MOL0     H88396   7.674  10.393   6.531  1.1951 -2.2163  0.4606
  670MOL0     H88397   7.621  10.333   6.381  0.5742 -0.3852  1.4304
  670MOL0     H88398   7.672  10.609   6.488 -1.0347  1.3077 -0.3857
  670MOL0     H88399   7.619  10.596   6.313 -1.9227 -2.3503 -1.5872
  670MOL0     H88400   7.459  10.506   6.570  1.4062 -0.0288  0.0617
  670MOL0     H88401   7.418  10.486   6.392  0.3360 -1.3505  0.1613
  670MOL0     H88402   7.222  10.506   6.485  0.0063  0.2818  1.8303
  670MOL0     H88403   6.979  10.561   6.451  0.6782 -0.3468  2.2603
  670MOL0     H88404   6.786  11.072   6.177 -1.4014  1.0447 -1.3479
  670MOL0     H88405   6.564  11.141   6.109  0.8621  1.9960  0.7766
  670MOL0     H88406   6.334  11.371   6.248 -1.2973 -3.1378 -4.4986
  670MOL0     H88407   6.344  11.327   6.420 -0.9250  2.3852 -0.2876
  670MOL0     H88408   6.123  11.390   6.376 -1.2028 -1.2457  2.1949
  670MOL0     H88409   6.126  11.214   6.410 -2.7111 -0.3906 -1.9078
  670MOL0     H88410   6.111  11.154   6.193  1.0759 -0.1485  2.0925
  670MOL0     H88411   6.117  11.325   6.132 -0.7406  0.0428 -0.9449
  670MOL0     H88412   5.903  11.212   6.310  0.5190  0.6455  0.0778
  670MOL0     H88413   5.907  11.369   6.230 -1.2829 -0.1678 -1.8128
  670MOL0     H88414   5.903  11.099   6.092  0.8506 -0.4486 -2.7401
  670MOL0     H88415   5.895  11.253   6.013  1.2724 -1.1979  0.3960
  670MOL0     H88416   5.683  11.306   6.062  2.5256  0.0522  1.0510
  670MOL0     H88417   5.675  11.211   6.215  3.0904  2.8805  1.7256
  670MOL0     H88418   5.666  11.128   5.915 -1.2740  2.7581 -0.2745
  670MOL0     H88419   5.663  11.003   6.045 -2.3906 -1.2201 -0.8376
  670MOL0     H88420   5.451  11.175   6.104 -0.5373  1.2499 -0.7737
  670MOL0     H88421   5.427  11.039   6.009  1.8074 -2.2900 -1.2567
  670MOL0     H88422   6.419  11.056   6.516  1.4699  3.1329  0.5431
  670MOL0     H88423   6.648  10.956   6.568 -2.2685 -1.1317  0.5136
  670MOL0     H88424   7.103  10.984   6.393  3.1591  0.7870 -2.9263
  670MOL0     H88425   7.333  10.902   6.422 -1.0096  1.8943  2.9881
  670MOL0     H88426   7.406   9.360   5.742  1.9143 -2.0882 -1.5513
  670MOL0     H88427   7.167   9.373   5.718 -1.2930 -0.0812  0.3084
  670MOL0     H88428   6.643   9.025   5.896  1.0991  0.1595 -0.3669
  670MOL0     H88429   6.442   9.048   5.752 -1.3370  0.8270 -2.4442
  670MOL0     H88430   6.493   9.130   5.374  0.7767  1.0958  0.2174
  670MOL0     H88431   6.477   9.305   5.395  2.4459 -0.8971  0.1097
  670MOL0     H88432   6.238   9.129   5.399  2.2154 -1.1867  0.4562
  670MOL0     H88433   6.238   9.304   5.391 -1.4764 -1.6692  3.2890
  670MOL0     H88434   6.317   9.104   5.172 -1.2703  0.5737 -0.9732
  670MOL0     H88435   6.336   9.279   5.141 -1.3143  0.1648 -3.0842
  670MOL0     H88436   6.077   9.147   5.182  1.4962 -2.3198 -1.9338
  670MOL0     H88437   6.106   9.323   5.171  1.4757  0.1337 -0.4542
  670MOL0     H88438   6.081   9.150   4.779  0.5777  1.2872 -0.2278
  670MOL0     H88439   6.636   9.342   5.526 -1.7161  0.9709 -0.6549
  670MOL0     H88440   6.817   9.342   5.666 -0.9645  0.7536 -1.6852
  671MOL0     O88441   1.704   0.082   7.313  0.3587  0.1164  0.2090
  671MOL0     C88442   1.735   0.088   7.432 -0.9089 -0.1067  0.5798
  671MOL0     O88443   1.658   0.092   7.548  0.0733  0.6018 -0.1310
  671MOL0     C88444   1.528   0.069   7.530  0.1001  0.2220 -1.1916
  671MOL0     C88445   1.444   0.176   7.497  0.4436  0.2257  0.4955
  671MOL0     C88446   1.303   0.158   7.518 -0.0587  1.4145  0.0144
  671MOL0     C88447   1.259   0.030   7.569 -0.1269  0.1018  1.4390
  671MOL0     O88448   1.128   0.004   7.610  0.0859  0.1388  0.4376
  671MOL0     C88449   1.041   0.109   7.647 -0.4693 -0.6173 -0.1612
  671MOL0     C88450   0.962   0.153   7.518  0.9019  0.8602  0.6054
  671MOL0     C88451   0.855   0.249   7.560  0.0370  1.1676 -0.1099
  671MOL0     C88452   0.790   0.323   7.447 -1.3638  1.0216 -0.4770
  671MOL0     C88453   0.659   0.377   7.467  0.5248 -0.0244 -0.3118
  671MOL0     C88454   0.582   0.386   7.332 -0.6212  0.5716  0.0599
  671MOL0     C88455   0.665   0.480   7.236 -0.6823  0.4075  0.8307
  671MOL0     C88456   0.581   0.494   7.101  0.0755  0.1575  0.6867
  671MOL0     N88457   0.647   0.586   7.003 -0.8480 -0.1338  0.4628
  671MOL0     C88458   0.708   0.705   7.028 -0.3729  0.0107 -0.6135
  671MOL0     C88459   0.777   0.724   6.906  0.9063 -0.7990 -0.5082
  671MOL0     C88460   0.865   0.843   6.886 -0.7481  0.5824  0.3021
  671MOL0     C88461   1.008   0.791   6.863  0.2281 -1.4290 -0.5649
  671MOL0     C88462   1.098   0.898   6.818  0.3499  0.3856 -0.1373
  671MOL0     C88463   1.244   0.853   6.834  0.0917 -0.5798  0.4889
  671MOL0     O88464   1.278   0.775   6.710  0.7138  0.9510 -0.2762
  671MOL0     C88465   1.407   0.795   6.678  0.4110 -0.2670 -0.4277
  671MOL0     C88466   1.430   0.837   6.543  0.3655 -0.0274 -0.2890
  671MOL0     C88467   1.559   0.867   6.496  0.5320  0.2048  0.0214
  671MOL0     C88468   1.667   0.847   6.586  0.0646  1.1300  0.6652
  671MOL0     C88469   1.804   0.853   6.531 -0.1853  0.3441  0.9039
  671MOL0     O88470   1.826   0.850   6.390  0.9449 -0.1748  0.9206
  671MOL0     C88471   1.951   0.846   6.342  0.1247  0.6121 -0.7276
  671MOL0     C88472   2.035   0.956   6.331  0.2910 -0.2644 -0.3874
  671MOL0     C88473   2.169   0.951   6.291 -0.0222  0.0294 -0.3321
  671MOL0     C88474   2.221   0.829   6.255  0.1313  0.4150  0.1881
  671MOL0     O88475   2.347   0.829   6.201  0.0016 -0.2856 -0.3768
  671MOL0     C88476   2.424   0.717   6.207 -0.8016  0.6605  0.4461
  671MOL0     C88477   2.565   0.749   6.167  0.6081  0.2887  0.1848
  671MOL0     C88478   2.626   0.862   6.259  1.4749  1.1325 -0.4327
  671MOL0     C88479   2.752   0.908   6.197 -0.1480 -0.2634 -0.3045
  671MOL0     C88480   2.737   1.021   6.092 -0.7079  0.7797  0.2414
  671MOL0     C88481   2.694   1.161   6.152  0.4320 -0.5617  1.0759
  671MOL0     C88482   2.645   1.266   6.052 -0.6968  0.8023  0.3169
  671MOL0     C88483   2.506   1.252   5.996 -0.7275 -0.3175 -0.1122
  671MOL0    Cl88484   2.493   1.381   5.882 -0.0870 -0.3627 -0.1442
  671MOL0     C88485   2.135   0.720   6.252  0.9300  0.0982  0.5588
  671MOL0     C88486   2.005   0.723   6.303 -0.1692 -0.6327 -1.5564
  671MOL0     O88487   1.893   0.870   6.611  0.0061 -0.1059  0.5916
  671MOL0     C88488   1.643   0.822   6.721 -0.5058  0.4451 -0.3374
  671MOL0     C88489   1.517   0.790   6.762  0.3560  0.2215 -0.6616
  671MOL0     N88490   0.751   0.623   6.815  0.2540  0.1438 -0.6170
  671MOL0     N88491   0.674   0.547   6.877  0.9992  0.5207  0.0922
  671MOL0     C88492   1.351  -0.075   7.583  0.5980 -0.5395  0.3562
  671MOL0     C88493   1.487  -0.056   7.564  0.2357  0.2383  0.5706
  671MOL0     C88494   1.881   0.093   7.455 -0.0400 -0.0354  0.0500
  671MOL0     C88495   1.978   0.054   7.350 -0.5644 -0.4072 -1.3832
  671MOL0     C88496   2.115   0.062   7.386  0.2101 -0.1128 -0.4524
  671MOL0     C88497   2.156   0.084   7.515  0.4096  0.0173  0.5803
  671MOL0     O88498   2.285   0.099   7.569  0.3738  0.0007  0.0928
  671MOL0     C88499   2.400   0.092   7.478  0.2049  0.1549 -0.1811
  671MOL0     C88500   2.532   0.093   7.556 -0.3235 -0.2174  0.6020
  671MOL0     C88501   2.646   0.113   7.454 -0.0008 -0.4239 -0.0365
  671MOL0     C88502   2.776   0.103   7.525  0.0052  1.3359  0.4750
  671MOL0     C88503   2.883   0.169   7.448 -0.4252  0.7126 -0.0976
  671MOL0     C88504   2.966   0.221   7.362 -0.1899 -0.7457 -0.3216
  671MOL0     C88505   2.058   0.117   7.613 -0.5908  0.2093 -0.1006
  671MOL0     C88506   1.929   0.115   7.581  0.4820 -0.6346 -0.9612
  671MOL0     H88507   1.481   0.277   7.481 -0.0959  0.8017  2.5621
  671MOL0     H88508   1.238   0.241   7.493 -0.6650  0.6394 -1.0295
  671MOL0     H88509   1.086   0.198   7.690 -1.3278  0.3956 -1.2874
  671MOL0     H88510   0.972   0.066   7.720  2.2500 -4.3117  0.4926
  671MOL0     H88511   0.912   0.065   7.477 -0.8080  1.0450  2.1381
  671MOL0     H88512   1.026   0.207   7.447  0.5847 -0.9236 -1.1153
  671MOL0     H88513   0.899   0.318   7.632  0.9670 -2.0791  2.6586
  671MOL0     H88514   0.783   0.190   7.618 -2.1566  4.3711  0.7523
  671MOL0     H88515   0.859   0.399   7.408  0.1437  0.2433  0.5765
  671MOL0     H88516   0.777   0.247   7.369  1.6442  1.7175 -1.8222
  671MOL0     H88517   0.668   0.478   7.508  1.2029 -0.4570  0.6278
  671MOL0     H88518   0.598   0.322   7.540 -1.6712  0.1786 -1.8851
  671MOL0     H88519   0.491   0.443   7.354 -0.5602  0.7363 -0.1075
  671MOL0     H88520   0.560   0.287   7.292 -0.9445  0.3951  0.6724
  671MOL0     H88521   0.669   0.577   7.285  0.2613 -1.1598  4.1614
  671MOL0     H88522   0.767   0.449   7.209 -0.6381  1.4506 -0.3115
  671MOL0     H88523   0.483   0.532   7.129 -0.4105  0.0334 -0.7443
  671MOL0     H88524   0.575   0.395   7.054  4.1846  0.7348 -1.5508
  671MOL0     H88525   0.711   0.760   7.121  2.5815  0.9763 -1.1572
  671MOL0     H88526   0.853   0.906   6.975  1.5039  1.9359 -0.2640
  671MOL0     H88527   0.818   0.902   6.808 -5.0586 -3.2191 -0.3710
  671MOL0     H88528   1.022   0.708   6.792  1.5756 -2.1026  0.4272
  671MOL0     H88529   1.055   0.771   6.960 -1.9222  0.7193  1.0231
  671MOL0     H88530   1.091   0.917   6.710 -0.7063 -0.5393 -0.2494
  671MOL0     H88531   1.078   0.985   6.882 -0.4218  0.6845 -0.7738
  671MOL0     H88532   1.256   0.788   6.921  0.2360 -1.0593  0.1155
  671MOL0     H88533   1.305   0.943   6.844 -0.5979 -0.0005 -0.4141
  671MOL0     H88534   1.346   0.853   6.477  0.5914  2.8782 -0.0295
  671MOL0     H88535   1.570   0.889   6.390 -1.7409 -2.5834 -0.9282
  671MOL0     H88536   1.993   1.053   6.356  2.1231  0.4495  0.0340
  671MOL0     H88537   2.230   1.040   6.303 -1.8420  1.6421 -2.2079
  671MOL0     H88538   2.393   0.640   6.135  2.2544 -1.8294  1.5509
  671MOL0     H88539   2.431   0.671   6.306  3.9795 -0.3601 -0.1144
  671MOL0     H88540   2.557   0.772   6.061 -1.6592 -1.9415 -0.2151
  671MOL0     H88541   2.624   0.659   6.185 -2.4213 -2.7151 -3.2767
  671MOL0     H88542   2.648   0.823   6.359 -1.6797  0.1513 -0.0113
  671MOL0     H88543   2.547   0.938   6.264 -0.5670 -0.8646 -0.6600
  671MOL0     H88544   2.802   0.961   6.279  0.1163 -4.2100  2.3199
  671MOL0     H88545   2.801   0.821   6.154  1.8488  0.0312  1.1907
  671MOL0     H88546   2.664   0.983   6.020  1.1627 -2.4190 -0.1384
  671MOL0     H88547   2.824   1.025   6.026 -0.7441 -3.3209 -0.2996
  671MOL0     H88548   2.776   1.212   6.203 -2.1209  1.4351  3.4580
  671MOL0     H88549   2.610   1.161   6.222  0.2465  1.1466  0.8794
  671MOL0     H88550   2.633   1.361   6.105 -1.3468  1.5970 -1.1845
  671MOL0     H88551   2.717   1.269   5.970 -0.6074 -2.6254  0.1450
  671MOL0     H88552   2.423   1.256   6.067  1.7331 -0.4780  3.0045
  671MOL0     H88553   2.493   1.155   5.949 -1.2735 -1.1156  1.5872
  671MOL0     H88554   2.167   0.625   6.210  1.3888  0.1947  0.6813
  671MOL0     H88555   1.936   0.639   6.308 -1.7815  0.7139  1.3273
  671MOL0     H88556   1.718   0.813   6.799  0.3301 -0.4878 -1.2183
  671MOL0     H88557   1.485   0.785   6.866  0.3681  0.2469 -0.6562
  671MOL0     H88558   1.311  -0.174   7.601  1.8331 -1.0690  0.2349
  671MOL0     H88559   1.560  -0.132   7.587  1.7307  1.4731  0.0515
  671MOL0     H88560   1.949   0.044   7.246 -0.6428  1.3469 -1.5659
  671MOL0     H88561   2.190   0.040   7.311  0.5287  2.7728 -1.1135
  671MOL0     H88562   2.405   0.183   7.417  0.4949 -1.4305 -2.6645
  671MOL0     H88563   2.393   0.000   7.419 -3.9970  1.1663 -1.6438
  671MOL0     H88564   2.530   0.187   7.612 -2.1901 -1.6317  3.1138
  671MOL0     H88565   2.550   0.010   7.624 -0.3116  0.6635  1.7018
  671MOL0     H88566   2.647   0.211   7.406  3.2949  0.1682  1.0126
  671MOL0     H88567   2.645   0.050   7.364  1.3410 -1.8554  0.8894
  671MOL0     H88568   2.780   0.146   7.626  2.4285  1.1506  0.5088
  671MOL0     H88569   2.790  -0.004   7.543  0.1001  1.3937  0.7546
  671MOL0     H88570   3.034   0.265   7.292 -0.5050 -1.0374 -0.8190
  671MOL0     H88571   2.080   0.155   7.712 -1.4309  1.5590 -0.4136
  671MOL0     H88572   1.860   0.142   7.659  1.0579  0.1248 -0.6944
  672MOL0     O88573   4.679   6.810  10.779  0.4699 -0.0867  0.3849
  672MOL0     C88574   4.738   6.719  10.721  0.3176  0.4864  1.2815
  672MOL0     O88575   4.679   6.596  10.694 -1.0031  0.1379  0.1233
  672MOL0     C88576   4.542   6.577  10.691 -0.8569  0.1262 -0.2382
  672MOL0     C88577   4.454   6.656  10.624 -1.1483 -0.3802  0.5460
  672MOL0     C88578   4.328   6.605  10.607  0.1545 -0.4207  0.6965
  672MOL0     C88579   4.302   6.475  10.654  0.7298  0.0741 -0.3744
  672MOL0     O88580   4.171   6.428  10.633 -0.6043  0.4095  0.7061
  672MOL0     C88581   4.063   6.497  10.689  0.5151 -0.1290  0.4898
  672MOL0     C88582   3.935   6.418  10.664  0.5960  0.5239  0.6113
  672MOL0     C88583   3.832   6.426  10.771  0.3602  0.6129  0.0658
  672MOL0     C88584   3.698   6.369  10.725 -0.7608  0.8977 -0.6932
  672MOL0     C88585   3.591   6.413  10.826 -0.7340  0.2502  0.3504
  672MOL0     C88586   3.456   6.344  10.825 -0.6097 -0.5147 -0.4170
  672MOL0     C88587   3.484   6.189  10.842 -0.0227  0.8199 -0.3848
  672MOL0     C88588   3.352   6.122  10.878 -0.1363  0.9164 -0.6601
  672MOL0     N88589   3.252   6.118  10.766 -0.2445 -0.4844 -0.0781
  672MOL0     C88590   3.145   6.206  10.754 -0.2293  0.9375  0.2833
  672MOL0     C88591   3.061   6.142  10.671 -0.2107 -0.0650 -0.2514
  672MOL0     C88592   2.928   6.195  10.644  0.7087 -0.2676 -0.2188
  672MOL0     C88593   2.825   6.083  10.605 -0.0678  0.1799 -0.4114
  672MOL0     C88594   2.678   6.122  10.603  0.0460 -0.2782 -0.0643
  672MOL0     C88595   2.624   6.235  10.507  0.8834  0.3799  0.0052
  672MOL0     O88596   2.488   6.202  10.460 -0.1570 -0.0339 -0.0235
  672MOL0     C88597   2.475   6.111  10.354  0.5777  0.3202  1.2786
  672MOL0     C88598   2.577   6.053  10.278 -0.0536 -0.2381 -0.3061
  672MOL0     C88599   2.552   5.964  10.174  0.4882 -0.1834 -0.1715
  672MOL0     C88600   2.417   5.933  10.136 -0.5806 -0.0576  0.2031
  672MOL0     C88601   2.384   5.846  10.023  1.0374 -0.7575 -0.4848
  672MOL0     O88602   2.489   5.782   9.968 -0.2120  0.8533 -0.6094
  672MOL0     C88603   2.467   5.682   9.875 -0.5451 -0.4145 -0.2067
  672MOL0     C88604   2.582   5.639   9.811 -0.4074 -0.1711 -0.0893
  672MOL0     C88605   2.578   5.540   9.707 -0.9402  0.3702 -0.9041
  672MOL0     C88606   2.458   5.485   9.664 -0.1535 -0.1759 -0.0457
  672MOL0     O88607   2.465   5.387   9.567  0.1955 -0.0624 -0.7874
  672MOL0     C88608   2.358   5.299   9.549  0.7469 -0.0621  0.1673
  672MOL0     C88609   2.389   5.172   9.474 -0.2744  0.5511  0.5151
  672MOL0     C88610   2.268   5.079   9.464 -1.0446 -0.1609  0.2880
  672MOL0     C88611   2.161   5.122   9.370  0.3289  0.3780  1.3517
  672MOL0     C88612   2.027   5.048   9.382 -0.2628  0.5028 -0.1025
  672MOL0     C88613   2.009   4.935   9.273 -0.2764 -0.3775 -0.3211
  672MOL0     C88614   1.866   4.862   9.301  0.1777 -0.1451 -0.0598
  672MOL0     C88615   1.823   4.769   9.195  0.1264  1.2777  0.2655
  672MOL0    Cl88616   1.919   4.625   9.203  0.0163  0.1004  0.0305
  672MOL0     C88617   2.337   5.521   9.729  0.1937 -0.4081  0.3535
  672MOL0     C88618   2.344   5.619   9.827  0.2154 -0.3121 -0.1164
  672MOL0     O88619   2.266   5.848   9.986 -0.0127  0.2860 -0.5979
  672MOL0     C88620   2.313   5.990  10.209 -0.3232 -0.2106 -0.1825
  672MOL0     C88621   2.340   6.074  10.318 -0.8090 -0.0485  0.1012
  672MOL0     N88622   3.123   6.026  10.625  0.3757 -0.1176  0.7516
  672MOL0     N88623   3.235   6.011  10.684  1.0625 -0.1277  0.1546
  672MOL0     C88624   4.394   6.384  10.710 -0.2924  0.9556  0.6788
  672MOL0     C88625   4.515   6.447  10.734  1.1431  0.9645  0.3067
  672MOL0     C88626   4.871   6.744  10.665 -0.4234  0.2500 -0.5679
  672MOL0     C88627   4.941   6.860  10.704  0.1204  0.2454 -0.8081
  672MOL0     C88628   5.060   6.899  10.640 -0.3165 -0.8325 -0.3486
  672MOL0     C88629   5.120   6.812  10.550  0.4543  0.0660  0.4453
  672MOL0     O88630   5.240   6.826  10.485  0.4151  0.0117  0.2178
  672MOL0     C88631   5.318   6.945  10.505 -0.2426 -0.6471  0.0370
  672MOL0     C88632   5.403   6.944  10.638 -0.1322  0.4767  0.5287
  672MOL0     C88633   5.427   6.794  10.694  0.0342 -0.2169 -0.0215
  672MOL0     C88634   5.515   6.807  10.816  0.2246 -0.4506 -0.5793
  672MOL0     C88635   5.525   6.668  10.881 -0.2744 -0.1756 -0.9279
  672MOL0     C88636   5.545   6.554  10.936  0.7630 -0.8858  0.7912
  672MOL0     C88637   5.052   6.693  10.524 -0.7837  0.8079  0.6700
  672MOL0     C88638   4.923   6.664  10.566 -0.6708 -0.2827  0.3644
  672MOL0     H88639   4.496   6.753  10.597  2.9645 -2.0778  0.1601
  672MOL0     H88640   4.251   6.658  10.553  0.7007 -1.0168 -0.7257
  672MOL0     H88641   4.060   6.600  10.652  4.8618 -0.2904 -0.8743
  672MOL0     H88642   4.090   6.515  10.794  0.2286  0.2014  0.5114
  672MOL0     H88643   3.960   6.312  10.648 -0.0844  0.6513 -1.6824
  672MOL0     H88644   3.895   6.443  10.565 -1.9993 -2.9095  0.6078
  672MOL0     H88645   3.818   6.532  10.790 -1.5438  0.2509  0.9193
  672MOL0     H88646   3.867   6.381  10.865  3.0155 -1.6383 -1.8204
  672MOL0     H88647   3.671   6.397  10.623  0.3536 -0.9904 -1.5582
  672MOL0     H88648   3.714   6.261  10.726 -1.8336  0.7327  0.8969
  672MOL0     H88649   3.569   6.520  10.819  3.6529  1.3478  0.2490
  672MOL0     H88650   3.643   6.406  10.922  0.3559 -2.4637 -0.3533
  672MOL0     H88651   3.397   6.361  10.735 -0.7613 -1.7572 -0.5653
  672MOL0     H88652   3.396   6.370  10.913 -0.3004  3.0854 -1.0958
  672MOL0     H88653   3.523   6.148  10.749 -0.2664  0.0708 -0.1606
  672MOL0     H88654   3.553   6.165  10.924 -0.3956 -2.5283 -0.9428
  672MOL0     H88655   3.297   6.169  10.960 -2.6582  0.1358 -1.7814
  672MOL0     H88656   3.373   6.018  10.903  0.6164  0.8988 -1.2985
  672MOL0     H88657   3.128   6.296  10.812  0.0893 -0.2978  2.3585
  672MOL0     H88658   2.932   6.274  10.569 -1.2073  0.3470  0.2545
  672MOL0     H88659   2.888   6.236  10.737  1.1666  0.8617 -0.5112
  672MOL0     H88660   2.823   5.992  10.665  1.0138 -0.0035 -0.6216
  672MOL0     H88661   2.861   6.058  10.504 -0.1707  0.1752 -0.4466
  672MOL0     H88662   2.613   6.036  10.580  2.4186 -2.4940  1.0279
  672MOL0     H88663   2.658   6.150  10.707  4.9649  0.1281  0.9905
  672MOL0     H88664   2.690   6.236  10.420  2.1336 -2.9855  0.7633
  672MOL0     H88665   2.621   6.332  10.558 -1.7007 -0.6246  2.0174
  672MOL0     H88666   2.678   6.091  10.289 -0.2975  0.1830  0.6224
  672MOL0     H88667   2.633   5.914  10.121  1.0149  0.2741  0.1897
  672MOL0     H88668   2.677   5.684   9.839 -0.1176  0.1060 -1.4597
  672MOL0     H88669   2.674   5.506   9.671 -2.0823 -2.6449 -1.3259
  672MOL0     H88670   2.280   5.357   9.497  3.4454  3.4846 -0.3165
  672MOL0     H88671   2.322   5.268   9.647  2.1693 -0.5087  0.5695
  672MOL0     H88672   2.478   5.118   9.505  0.7686  1.5251 -0.6645
  672MOL0     H88673   2.431   5.206   9.379 -0.1376  0.1743  0.4381
  672MOL0     H88674   2.235   5.070   9.568 -0.4402  2.4825  0.7840
  672MOL0     H88675   2.299   4.985   9.416 -1.1020  2.1017 -4.8400
  672MOL0     H88676   2.138   5.229   9.361 -2.2592 -0.2389 -0.7841
  672MOL0     H88677   2.201   5.102   9.270 -2.0706  0.5232  0.2787
  672MOL0     H88678   1.947   5.123   9.388 -0.4714  0.2405  0.4320
  672MOL0     H88679   2.022   5.004   9.482  0.5883 -0.2596 -0.3791
  672MOL0     H88680   2.090   4.863   9.256 -1.2459 -0.7367 -4.4725
  672MOL0     H88681   1.996   4.972   9.171  1.1707 -1.7572 -1.0408
  672MOL0     H88682   1.875   4.814   9.398  3.7519  2.3525  1.0768
  672MOL0     H88683   1.793   4.942   9.319 -0.8293 -1.1341  0.3165
  672MOL0     H88684   1.842   4.819   9.099  2.3618  0.1837  0.0879
  672MOL0     H88685   1.720   4.734   9.191  0.4410  0.4255 -1.2012
  672MOL0     H88686   2.240   5.475   9.710 -0.0271  0.2793 -0.2066
  672MOL0     H88687   2.253   5.632   9.883  0.0521 -4.9441  1.1005
  672MOL0     H88688   2.210   5.966  10.184 -0.9677  1.7550  0.3756
  672MOL0     H88689   2.272   6.124  10.386  1.3541  0.2698  2.1535
  672MOL0     H88690   4.367   6.288  10.751  0.8749 -0.4260 -1.6248
  672MOL0     H88691   4.598   6.399  10.786  0.3465  0.6700  1.3306
  672MOL0     H88692   4.896   6.931  10.772  0.2845  0.5085 -0.9739
  672MOL0     H88693   5.110   6.990  10.672  1.0205 -1.1888 -1.3160
  672MOL0     H88694   5.247   7.027  10.487 -1.7594 -2.4414 -3.0002
  672MOL0     H88695   5.387   6.951  10.421  1.0502 -0.8519  1.0636
  672MOL0     H88696   5.503   6.985  10.618 -0.2100  0.2143 -0.4351
  672MOL0     H88697   5.350   7.005  10.711 -2.7279 -0.1093 -0.7393
  672MOL0     H88698   5.479   6.731  10.621  1.5629 -1.7211  2.2120
  672MOL0     H88699   5.329   6.756  10.723  1.3772 -1.8526  2.8251
  672MOL0     H88700   5.617   6.834  10.787  0.3401  0.4965  0.6313
  672MOL0     H88701   5.480   6.882  10.887 -0.0278  0.3409 -1.5227
  672MOL0     H88702   5.546   6.458  10.985  0.8153 -0.9908  0.5831
  672MOL0     H88703   5.101   6.626  10.454  0.8005  1.1487  1.4084
  672MOL0     H88704   4.860   6.586  10.523  0.7432 -0.3954 -1.6967
  673MOL0     O88705   1.289   2.312   3.503  0.0280  0.3134 -0.0195
  673MOL0     C88706   1.373   2.335   3.413 -0.1096 -0.1170  0.1631
  673MOL0     O88707   1.421   2.460   3.387  0.2720  0.5273 -0.1523
  673MOL0     C88708   1.388   2.561   3.465  0.2114  0.9622 -0.8505
  673MOL0     C88709   1.479   2.658   3.499  0.3150  0.4402  0.7642
  673MOL0     C88710   1.440   2.781   3.548 -0.1668 -0.1058 -0.5725
  673MOL0     C88711   1.302   2.812   3.557  0.4285 -0.3464 -0.5750
  673MOL0     O88712   1.260   2.939   3.599  0.5820 -0.4784  0.2657
  673MOL0     C88713   1.253   3.046   3.500  0.3077 -0.0253  0.4292
  673MOL0     C88714   1.239   3.177   3.584  0.4517  0.2204  0.0801
  673MOL0     C88715   1.143   3.269   3.500 -1.1111  0.2459 -0.2308
  673MOL0     C88716   1.130   3.402   3.575  0.8462  0.8807  0.7735
  673MOL0     C88717   1.043   3.506   3.506  0.0538 -0.1038  0.7073
  673MOL0     C88718   0.977   3.607   3.601 -0.1579  0.8933 -0.7504
  673MOL0     C88719   0.893   3.714   3.543 -0.7231  0.0831 -0.0362
  673MOL0     C88720   0.836   3.804   3.661  0.1153 -0.1689  0.1268
  673MOL0     N88721   0.767   3.921   3.613 -0.6603  0.7691 -0.6382
  673MOL0     C88722   0.647   3.906   3.539  0.6829 -0.0221 -0.2661
  673MOL0     C88723   0.611   4.039   3.512  0.3571  0.3037 -0.6852
  673MOL0     C88724   0.495   4.062   3.414 -0.6506  1.0786 -0.8192
  673MOL0     C88725   0.384   4.100   3.506 -0.4286  0.6021  0.0562
  673MOL0     C88726   0.254   4.127   3.418 -0.6696  1.2786  0.1325
  673MOL0     C88727   0.154   4.209   3.498 -0.2581  0.1313  0.3840
  673MOL0     O88728   0.159   4.176   3.641 -0.2253 -0.2738  0.5604
  673MOL0     C88729   0.039   4.172   3.715  1.3244 -0.2533  0.1380
  673MOL0     C88730  -0.087   4.189   3.659  0.5999 -0.0160 -0.6378
  673MOL0     C88731  -0.206   4.183   3.731  0.2539 -0.0662  0.2898
  673MOL0     C88732  -0.199   4.155   3.874 -0.5090  0.2642  0.0769
  673MOL0     C88733  -0.316   4.153   3.947  0.0218  0.3391 -1.2589
  673MOL0     O88734  -0.303   4.120   4.083 -0.4097  0.2564  0.4546
  673MOL0     C88735  -0.408   4.154   4.157  0.4035 -0.1245 -0.0142
  673MOL0     C88736  -0.422   4.289   4.193  0.7926 -0.3135  0.1590
  673MOL0     C88737  -0.521   4.331   4.274  0.2788 -0.1957 -0.1519
  673MOL0     C88738  -0.624   4.245   4.312  0.6492 -0.0616 -1.2275
  673MOL0     O88739  -0.720   4.308   4.384  0.3075 -0.2789 -0.3442
  673MOL0     C88740  -0.841   4.243   4.434 -0.3057  0.4453  0.1216
  673MOL0     C88741  -0.951   4.231   4.326  1.1156 -0.0331 -0.4628
  673MOL0     C88742  -1.071   4.158   4.385  0.5025  0.5127 -0.8019
  673MOL0     C88743  -1.188   4.149   4.279 -0.2804  0.6775 -0.0540
  673MOL0     C88744  -1.326   4.104   4.322 -0.0883 -0.8330 -0.2426
  673MOL0     C88745  -1.438   4.147   4.223  0.0912  0.0529 -0.0137
  673MOL0     C88746  -1.569   4.061   4.233 -0.2487 -0.3567  0.5819
  673MOL0     C88747  -1.657   4.063   4.110 -0.0287  1.1482  0.9804
  673MOL0    Cl88748  -1.614   3.920   4.004 -0.0029 -0.0717  0.5061
  673MOL0     C88749  -0.617   4.111   4.272  0.5423  0.1932  0.8671
  673MOL0     C88750  -0.517   4.069   4.186  0.6179  0.0932 -0.8791
  673MOL0     O88751  -0.416   4.197   3.888  0.5924 -0.1927 -0.4307
  673MOL0     C88752  -0.072   4.137   3.935 -0.7902 -0.3034  0.0813
  673MOL0     C88753   0.046   4.145   3.856  0.1251  0.1308  0.1736
  673MOL0     N88754   0.699   4.125   3.583  0.6930  0.0643  0.6987
  673MOL0     N88755   0.800   4.054   3.625  0.0377 -0.2013 -0.0470
  673MOL0     C88756   1.215   2.721   3.516  1.7008  0.0429  0.1261
  673MOL0     C88757   1.253   2.596   3.469  0.0691 -0.4842  0.6410
  673MOL0     C88758   1.400   2.234   3.309  0.2491 -0.5075 -0.0025
  673MOL0     C88759   1.387   2.098   3.346  0.6279  0.0287  0.6236
  673MOL0     C88760   1.390   2.000   3.247  0.1052 -0.3091  0.2867
  673MOL0     C88761   1.429   2.040   3.113 -0.0416  0.3190  0.6870
  673MOL0     O88762   1.474   1.938   3.026  0.5492  0.3446  0.2543
  673MOL0     C88763   1.524   1.969   2.903 -0.9030 -0.4227  0.0463
  673MOL0     C88764   1.576   1.838   2.830 -0.1519  0.4002  1.3875
  673MOL0     C88765   1.660   1.869   2.707 -0.2122 -0.2333 -0.0387
  673MOL0     C88766   1.780   1.775   2.694  0.4739 -0.1061 -0.8057
  673MOL0     C88767   1.861   1.813   2.585 -0.0644  0.0016 -0.7293
  673MOL0     C88768   1.944   1.839   2.497  0.0632 -0.5549 -0.1268
  673MOL0     C88769   1.436   2.175   3.075 -0.4365 -0.0602 -0.8222
  673MOL0     C88770   1.420   2.273   3.175  0.0432  0.2742  0.2713
  673MOL0     H88771   1.584   2.634   3.485  0.5296  1.2000  1.0133
  673MOL0     H88772   1.511   2.860   3.572 -0.7150  0.1256  0.3421
  673MOL0     H88773   1.162   3.040   3.440  0.1568 -1.4885  0.7805
  673MOL0     H88774   1.337   3.033   3.431 -1.1245 -2.4122 -1.0074
  673MOL0     H88775   1.338   3.219   3.603  0.7166  0.5572 -1.8415
  673MOL0     H88776   1.189   3.146   3.676 -1.5471  0.9675 -0.6873
  673MOL0     H88777   1.046   3.219   3.493 -2.0985  2.1053 -0.6510
  673MOL0     H88778   1.185   3.272   3.399 -0.1102 -0.4997  0.1448
  673MOL0     H88779   1.082   3.379   3.671 -0.1223  0.7212  0.2651
  673MOL0     H88780   1.234   3.437   3.583  0.1473  2.6504  4.6611
  673MOL0     H88781   0.952   3.465   3.461 -1.5034  2.8381  0.9716
  673MOL0     H88782   1.085   3.556   3.418 -3.7357  0.2589 -1.1050
  673MOL0     H88783   1.055   3.646   3.668 -0.1393 -0.6085  0.1691
  673MOL0     H88784   0.907   3.554   3.666 -0.8479  1.0547 -1.3559
  673MOL0     H88785   0.968   3.768   3.483  1.4722 -0.8358  1.7419
  673MOL0     H88786   0.807   3.688   3.482 -1.0289  0.9038  0.0339
  673MOL0     H88787   0.921   3.823   3.727 -1.3839 -1.2261  2.5259
  673MOL0     H88788   0.767   3.746   3.724 -0.7734 -0.3221 -0.9680
  673MOL0     H88789   0.603   3.813   3.504 -0.3660 -0.9977  3.2862
  673MOL0     H88790   0.475   3.963   3.372  0.6425 -0.1486  1.3025
  673MOL0     H88791   0.518   4.143   3.344  1.0783  1.6578  0.3556
  673MOL0     H88792   0.415   4.189   3.562 -2.0147  1.2085  0.0220
  673MOL0     H88793   0.368   4.027   3.586  3.2394  1.8198  2.1748
  673MOL0     H88794   0.285   4.171   3.324  0.0634  0.5540  0.0178
  673MOL0     H88795   0.201   4.034   3.394  1.5246  0.2009 -0.9069
  673MOL0     H88796   0.060   4.190   3.447  1.9504 -3.1221 -2.9674
  673MOL0     H88797   0.188   4.313   3.486 -0.2089  0.1223  0.4432
  673MOL0     H88798  -0.102   4.198   3.552  2.6301 -2.4650 -1.2288
  673MOL0     H88799  -0.303   4.201   3.686  0.3260 -0.0708  0.1314
  673MOL0     H88800  -0.349   4.364   4.163  1.2020  0.4678  2.8259
  673MOL0     H88801  -0.517   4.435   4.307 -0.3729  0.0198 -0.7407
  673MOL0     H88802  -0.880   4.286   4.526 -2.1306  2.5944 -1.5180
  673MOL0     H88803  -0.809   4.143   4.464  2.8894  1.7707  1.5843
  673MOL0     H88804  -0.912   4.192   4.232  2.5771  3.4949 -1.4720
  673MOL0     H88805  -0.984   4.333   4.308 -2.5607 -0.8701  0.6928
  673MOL0     H88806  -1.108   4.198   4.480 -0.2611  0.7480 -1.1879
  673MOL0     H88807  -1.037   4.056   4.405  1.3006  0.8587 -0.3343
  673MOL0     H88808  -1.201   4.253   4.246 -0.9986 -0.1926 -2.7716
  673MOL0     H88809  -1.154   4.080   4.201  0.9809  0.8480  0.3316
  673MOL0     H88810  -1.350   4.162   4.411 -1.3564  0.2350 -1.2359
  673MOL0     H88811  -1.328   3.995   4.334  1.5916 -0.8700 -0.0766
  673MOL0     H88812  -1.404   4.140   4.120  0.9255 -0.4824  0.2903
  673MOL0     H88813  -1.455   4.252   4.247  1.1125 -0.1797  1.9160
  673MOL0     H88814  -1.548   3.955   4.246  0.0707 -0.2748  0.7451
  673MOL0     H88815  -1.626   4.087   4.323  0.7622  0.2387  1.0702
  673MOL0     H88816  -1.633   4.150   4.049  4.0733 -1.5802 -1.7936
  673MOL0     H88817  -1.763   4.056   4.136  0.3093  1.3152  2.5058
  673MOL0     H88818  -0.697   4.042   4.295  1.3095 -0.8606  0.4829
  673MOL0     H88819  -0.528   3.970   4.143  2.4222 -0.6042  0.1470
  673MOL0     H88820  -0.062   4.134   4.043  0.2682 -0.2171  0.0006
  673MOL0     H88821   0.145   4.135   3.900  0.6941  1.8402 -0.6149
  673MOL0     H88822   1.112   2.748   3.534  1.4747 -0.7415  0.0295
  673MOL0     H88823   1.175   2.534   3.425  2.2256 -2.4197 -0.7191
  673MOL0     H88824   1.362   2.066   3.447 -0.7195 -0.8949  0.0244
  673MOL0     H88825   1.380   1.894   3.268 -2.0799  0.1346  1.8379
  673MOL0     H88826   1.615   2.026   2.925 -2.5483  1.2941  3.0786
  673MOL0     H88827   1.451   2.030   2.848 -1.1840  0.5254  1.4143
  673MOL0     H88828   1.625   1.776   2.906  0.7314 -2.4594 -1.3073
  673MOL0     H88829   1.481   1.789   2.804  1.1748 -1.2369 -0.6730
  673MOL0     H88830   1.695   1.971   2.727  0.6535 -0.3131 -1.0634
  673MOL0     H88831   1.602   1.855   2.616  0.3273 -2.4773 -0.0827
  673MOL0     H88832   1.836   1.768   2.788 -0.2901 -2.7408 -0.4619
  673MOL0     H88833   1.743   1.673   2.684 -1.8276  0.8009 -2.5017
  673MOL0     H88834   2.016   1.865   2.421 -0.3080  0.9813  0.0214
  673MOL0     H88835   1.455   2.218   2.977 -1.6650  0.8264 -0.6965
  673MOL0     H88836   1.438   2.376   3.147  1.3747  0.3681  1.3568
  674MOL0     O88837   3.474   5.211   0.352 -0.3102 -0.0706  0.3613
  674MOL0     C88838   3.573   5.190   0.282  0.3485  0.3369  0.1133
  674MOL0     O88839   3.573   5.215   0.149 -0.2558 -0.0660 -0.2710
  674MOL0     C88840   3.462   5.274   0.088  0.9965  0.0306 -0.0079
  674MOL0     C88841   3.477   5.395   0.024 -0.9186  0.5945 -0.0613
  674MOL0     C88842   3.384   5.432  -0.064 -0.1384  0.1321  0.1878
  674MOL0     C88843   3.258   5.364  -0.081 -0.3860 -0.1621  1.0583
  674MOL0     O88844   3.168   5.408  -0.173  0.5861 -0.0399  0.2824
  674MOL0     C88845   3.094   5.524  -0.144  0.1147 -0.8249  0.3025
  674MOL0     C88846   2.950   5.478  -0.135  0.1698  1.1294 -0.4442
  674MOL0     C88847   2.887   5.403  -0.256 -0.2344 -0.3083  0.4218
  674MOL0     C88848   2.743   5.382  -0.223  0.2521  0.4935 -0.1544
  674MOL0     C88849   2.659   5.326  -0.344 -0.3856 -0.2934  1.1222
  674MOL0     C88850   2.528   5.258  -0.299  1.5526  0.5469  0.5770
  674MOL0     C88851   2.438   5.207  -0.423 -0.7499  0.0329 -0.2576
  674MOL0     C88852   2.495   5.064  -0.476 -0.5816 -0.4620 -0.2350
  674MOL0     N88853   2.456   4.956  -0.384 -0.6694  0.0126  0.7940
  674MOL0     C88854   2.335   4.886  -0.391  0.1346  0.6172  0.0800
  674MOL0     C88855   2.355   4.770  -0.329 -0.3344 -1.2641  0.6617
  674MOL0     C88856   2.267   4.650  -0.343  0.5070  0.8544 -0.3658
  674MOL0     C88857   2.111   4.684  -0.327  0.2804 -0.1864 -0.1019
  674MOL0     C88858   2.023   4.549  -0.319  0.5250 -0.3863  0.1523
  674MOL0     C88859   1.880   4.593  -0.295 -0.2081  0.0022  0.4818
  674MOL0     O88860   1.813   4.476  -0.247  0.7057 -0.3144  0.5027
  674MOL0     C88861   1.678   4.490  -0.233 -0.1570  0.4391  0.0177
  674MOL0     C88862   1.616   4.370  -0.205 -0.4250 -0.4727  0.4183
  674MOL0     C88863   1.481   4.370  -0.185 -0.2504  0.4557 -0.2950
  674MOL0     C88864   1.399   4.482  -0.191 -0.2205 -0.3428  0.5522
  674MOL0     C88865   1.249   4.479  -0.156 -0.0218 -0.3378 -0.8106
  674MOL0     O88866   1.192   4.374  -0.090  0.2559 -0.7718 -0.2083
  674MOL0     C88867   1.071   4.387  -0.021 -0.2824 -0.4655 -0.7116
  674MOL0     C88868   0.953   4.459  -0.065 -0.9685 -0.2299 -0.9346
  674MOL0     C88869   0.835   4.450   0.011 -0.2020 -0.1784  0.7932
  674MOL0     C88870   0.830   4.374   0.129  0.4304  0.1882  0.3440
  674MOL0     O88871   0.709   4.354   0.188 -0.9936  0.9376  0.8731
  674MOL0     C88872   0.707   4.352   0.331 -0.4881  0.8196  0.1871
  674MOL0     C88873   0.578   4.389   0.384  0.9880 -0.9358 -0.1474
  674MOL0     C88874   0.527   4.524   0.338 -0.7070 -0.0020 -0.6058
  674MOL0     C88875   0.405   4.571   0.407 -0.2359  0.0797 -1.1925
  674MOL0     C88876   0.362   4.710   0.358 -0.1317  1.4066 -0.7234
  674MOL0     C88877   0.208   4.701   0.337  0.1566  0.1199 -0.3759
  674MOL0     C88878   0.153   4.824   0.253  0.0927 -0.7195 -0.1813
  674MOL0     C88879   0.177   4.959   0.317  0.1800 -0.0050  0.0471
  674MOL0    Cl88880   0.082   4.972   0.475  0.0054 -0.0424 -0.1119
  674MOL0     C88881   0.944   4.301   0.166 -0.5623  0.6937 -0.0803
  674MOL0     C88882   1.056   4.309   0.092 -1.0189 -0.0679  1.0081
  674MOL0     O88883   1.197   4.589  -0.177  0.0407  0.2637 -0.8453
  674MOL0     C88884   1.460   4.601  -0.226 -0.4412 -0.1851  0.7142
  674MOL0     C88885   1.604   4.609  -0.233 -0.0533  0.3535 -0.2404
  674MOL0     N88886   2.480   4.770  -0.278 -0.7101 -0.0411  0.4637
  674MOL0     N88887   2.541   4.891  -0.302  0.4086  0.3527  0.3073
  674MOL0     C88888   3.232   5.252  -0.004 -0.5282  1.0502 -0.1984
  674MOL0     C88889   3.347   5.204   0.074 -0.1118  0.0518  0.0009
  674MOL0     C88890   3.696   5.146   0.348  0.4815 -0.2864  0.5434
  674MOL0     C88891   3.697   5.092   0.476 -0.4378 -0.4192 -0.5414
  674MOL0     C88892   3.821   5.064   0.538 -0.0229 -0.3882 -0.5014
  674MOL0     C88893   3.945   5.073   0.463 -0.4023  0.2818 -0.7673
  674MOL0     O88894   4.063   5.032   0.526  0.5304 -0.0678 -0.4094
  674MOL0     C88895   4.187   5.050   0.471 -0.9557  1.0540 -0.0034
  674MOL0     C88896   4.256   5.181   0.519  0.3145  0.4726  0.5121
  674MOL0     C88897   4.187   5.308   0.463  0.0807  0.2837 -0.5217
  674MOL0     C88898   4.249   5.427   0.538  0.3255 -0.7052  0.3355
  674MOL0     C88899   4.387   5.451   0.493 -0.8366  0.0124 -0.0875
  674MOL0     C88900   4.497   5.451   0.449 -0.6877 -0.7352  0.1453
  674MOL0     C88901   3.942   5.111   0.328 -0.6352 -1.0838  0.1489
  674MOL0     C88902   3.817   5.154   0.274 -0.5391 -0.3082 -1.2122
  674MOL0     H88903   3.572   5.446   0.027 -0.5661 -0.0894  0.9118
  674MOL0     H88904   3.412   5.521  -0.120 -0.5259 -0.9520 -1.7917
  674MOL0     H88905   3.105   5.602  -0.219  1.4541  1.2122  2.4793
  674MOL0     H88906   3.126   5.577  -0.054  0.9179 -1.0690  0.1733
  674MOL0     H88907   2.884   5.565  -0.122 -0.8081  0.3966 -0.4280
  674MOL0     H88908   2.939   5.411  -0.049  3.7086  1.2065  0.2113
  674MOL0     H88909   2.937   5.306  -0.254 -1.0835 -0.7558  0.3294
  674MOL0     H88910   2.909   5.456  -0.349  2.8276 -0.0581  1.1722
  674MOL0     H88911   2.734   5.305  -0.146  0.4583 -0.8796 -1.4634
  674MOL0     H88912   2.702   5.473  -0.179  0.1479  1.6249 -2.4518
  674MOL0     H88913   2.722   5.252  -0.393 -2.4371 -1.0166 -0.5460
  674MOL0     H88914   2.651   5.410  -0.414 -1.8657  0.0716  1.6851
  674MOL0     H88915   2.464   5.316  -0.232  2.2532  2.8842 -0.6468
  674MOL0     H88916   2.569   5.176  -0.240  0.6591 -0.9501 -0.8225
  674MOL0     H88917   2.333   5.196  -0.393 -0.3340 -1.6190  0.6832
  674MOL0     H88918   2.437   5.277  -0.507 -1.0401  0.5943  0.2126
  674MOL0     H88919   2.603   5.071  -0.485 -0.4976  2.7272  1.7150
  674MOL0     H88920   2.448   5.048  -0.574 -2.2615 -1.1374  0.6336
  674MOL0     H88921   2.251   4.902  -0.457  1.0539 -0.3225 -1.3654
  674MOL0     H88922   2.298   4.570  -0.275  1.0668  0.2746 -1.2828
  674MOL0     H88923   2.287   4.600  -0.438  1.9833  0.6501  0.0279
  674MOL0     H88924   2.078   4.757  -0.402 -0.9482  2.0590  2.4270
  674MOL0     H88925   2.110   4.741  -0.234  1.6127  1.7445 -1.2013
  674MOL0     H88926   2.029   4.493  -0.413  0.6806 -0.8466  0.4332
  674MOL0     H88927   2.059   4.479  -0.242 -1.2995 -2.2349 -0.5956
  674MOL0     H88928   1.835   4.647  -0.379  2.3783  3.7507  1.2640
  674MOL0     H88929   1.880   4.665  -0.213 -0.9541  0.7604 -0.1613
  674MOL0     H88930   1.678   4.281  -0.198  1.1399  0.2548 -2.5450
  674MOL0     H88931   1.423   4.284  -0.152  1.7042 -1.0708 -0.6828
  674MOL0     H88932   0.952   4.513  -0.159  0.0451 -0.6598 -1.2080
  674MOL0     H88933   0.744   4.498  -0.022 -0.9715 -0.8993  1.8114
  674MOL0     H88934   0.778   4.427   0.366  0.4457  0.8094 -1.5834
  674MOL0     H88935   0.739   4.255   0.367 -1.3366 -0.2648 -1.7805
  674MOL0     H88936   0.585   4.398   0.493  2.1340  1.4493 -0.3614
  674MOL0     H88937   0.502   4.317   0.351 -0.4584  0.7034 -0.5715
  674MOL0     H88938   0.493   4.511   0.235  1.0475  0.9995 -1.3548
  674MOL0     H88939   0.609   4.594   0.356 -0.1924 -0.7072 -0.1337
  674MOL0     H88940   0.322   4.500   0.403 -0.3613 -0.1087  2.2721
  674MOL0     H88941   0.431   4.574   0.513 -0.8004  0.4473 -1.0615
  674MOL0     H88942   0.421   4.727   0.268  1.1948 -2.8390 -0.9123
  674MOL0     H88943   0.375   4.786   0.436  2.3764 -0.6893  1.1109
  674MOL0     H88944   0.154   4.685   0.431  0.5891 -2.9369 -0.5397
  674MOL0     H88945   0.185   4.606   0.289  0.4572 -0.3683  0.4255
  674MOL0     H88946   0.202   4.837   0.156 -2.7667  2.4008 -1.3930
  674MOL0     H88947   0.045   4.828   0.235  0.0966  1.9029 -0.1309
  674MOL0     H88948   0.144   5.039   0.250 -1.3417  0.1286  0.8899
  674MOL0     H88949   0.284   4.967   0.340 -0.2032  1.7925  1.4723
  674MOL0     H88950   0.936   4.236   0.253  3.9449  1.8443  1.4636
  674MOL0     H88951   1.136   4.247   0.130 -1.1422 -2.7036 -2.5445
  674MOL0     H88952   1.398   4.690  -0.234 -0.7648 -0.5327 -0.8069
  674MOL0     H88953   1.661   4.701  -0.245 -1.3749  1.3902  1.0911
  674MOL0     H88954   3.136   5.201  -0.010 -0.2694  0.3411  1.1894
  674MOL0     H88955   3.329   5.107   0.118 -0.8945  0.1529 -0.0889
  674MOL0     H88956   3.603   5.079   0.529  0.4538  0.1145  1.2641
  674MOL0     H88957   3.817   5.024   0.639 -3.1805  0.7104 -0.0840
  674MOL0     H88958   4.192   5.028   0.364 -2.9483 -2.2449  0.4459
  674MOL0     H88959   4.256   4.976   0.514 -0.2049  2.7647  1.9002
  674MOL0     H88960   4.238   5.188   0.627 -2.1652  0.9312  0.1371
  674MOL0     H88961   4.361   5.182   0.488 -0.3471  2.3534 -2.0051
  674MOL0     H88962   4.081   5.311   0.489  0.3994 -0.2988  0.9646
  674MOL0     H88963   4.187   5.314   0.354 -2.2724  0.0164 -0.5957
  674MOL0     H88964   4.201   5.525   0.532  1.3458 -0.1008  1.6991
  674MOL0     H88965   4.246   5.411   0.646  0.2863  0.6416  0.5418
  674MOL0     H88966   4.594   5.443   0.404  0.4308 -2.1364  2.6658
  674MOL0     H88967   4.031   5.114   0.266 -2.0908 -0.6541 -2.0450
  674MOL0     H88968   3.816   5.193   0.173 -3.5693 -0.1611 -1.2212
  675MOL0     O88969   6.403   3.214   4.522  0.8090 -0.5468  0.4566
  675MOL0     C88970   6.406   3.193   4.641  0.1233 -0.0899  0.3612
  675MOL0     O88971   6.300   3.205   4.723  0.4205 -0.6466  0.0517
  675MOL0     C88972   6.181   3.227   4.667  0.1589  0.5052 -0.3907
  675MOL0     C88973   6.101   3.128   4.631  0.3614 -0.2722 -0.5430
  675MOL0     C88974   5.967   3.136   4.604  0.4994  0.0326  0.0657
  675MOL0     C88975   5.901   3.256   4.588 -0.1281 -1.7595  0.5824
  675MOL0     O88976   5.762   3.271   4.562 -0.4643  0.0689 -0.1718
  675MOL0     C88977   5.687   3.150   4.530 -0.0347  0.7389 -0.4125
  675MOL0     C88978   5.548   3.186   4.487  0.1033  0.2286 -0.2756
  675MOL0     C88979   5.474   3.055   4.470  0.3774 -0.5229 -0.4364
  675MOL0     C88980   5.355   3.064   4.377 -0.1206  0.2821 -0.4040
  675MOL0     C88981   5.245   3.145   4.445  0.0804 -0.0868  0.6780
  675MOL0     C88982   5.105   3.099   4.407 -0.7354  0.2350  0.6620
  675MOL0     C88983   4.987   3.160   4.481  0.4076 -0.1278 -0.1257
  675MOL0     C88984   4.849   3.115   4.425 -0.4917 -0.1803  0.6620
  675MOL0     N88985   4.734   3.153   4.510  0.5065  0.4026 -0.2544
  675MOL0     C88986   4.736   3.224   4.625 -0.1051  0.8695  0.3939
  675MOL0     C88987   4.613   3.226   4.676  0.2071 -0.9123 -0.0943
  675MOL0     C88988   4.584   3.334   4.775 -0.6891  0.0072  0.8876
  675MOL0     C88989   4.525   3.448   4.686  0.1345 -0.9007 -0.7706
  675MOL0     C88990   4.503   3.567   4.773 -0.4291  0.2578  0.6599
  675MOL0     C88991   4.416   3.666   4.699 -0.0246 -0.6586 -0.3967
  675MOL0     O88992   4.408   3.786   4.770 -0.5972 -0.4487 -1.1063
  675MOL0     C88993   4.337   3.799   4.889 -0.4562 -0.8684 -0.1476
  675MOL0     C88994   4.329   3.931   4.931 -0.0232 -0.2836 -0.9609
  675MOL0     C88995   4.246   3.963   5.035 -0.5660  1.0329  0.2054
  675MOL0     C88996   4.165   3.864   5.098 -0.2754 -0.5024 -1.0072
  675MOL0     C88997   4.079   3.898   5.223  0.4268  0.3655  0.5463
  675MOL0     O88998   4.081   4.030   5.263 -0.0562 -0.1846  0.1470
  675MOL0     C88999   4.027   4.058   5.392 -0.6432  0.5416  0.3727
  675MOL0     C89000   3.892   4.055   5.413 -0.1144 -0.7662  0.0746
  675MOL0     C89001   3.842   4.076   5.540 -0.0952  1.2689  0.1970
  675MOL0     C89002   3.918   4.109   5.655 -0.6320 -0.6864  0.5769
  675MOL0     O89003   3.845   4.145   5.766  0.5796  0.1900  0.1433
  675MOL0     C89004   3.877   4.119   5.909  0.4015  0.4065  0.1167
  675MOL0     C89005   3.752   4.086   6.000 -0.4399 -0.0938 -0.6409
  675MOL0     C89006   3.617   4.128   5.953  0.1241 -0.8031  0.5092
  675MOL0     C89007   3.525   4.103   6.074 -0.0420 -0.6985 -0.1597
  675MOL0     C89008   3.387   4.150   6.043  0.3335  0.6260  0.1746
  675MOL0     C89009   3.289   4.100   6.152  0.8555  0.1388  0.1339
  675MOL0     C89010   3.151   4.138   6.106 -0.0852 -0.1663  0.1640
  675MOL0     C89011   3.033   4.105   6.195 -0.6671  0.5509 -0.1340
  675MOL0    Cl89012   2.884   4.191   6.137  0.2844  0.1381  0.5742
  675MOL0     C89013   4.052   4.110   5.636 -0.0233  0.3209 -0.0793
  675MOL0     C89014   4.111   4.085   5.510  0.7732  1.0996 -0.1526
  675MOL0     O89015   4.027   3.805   5.279 -0.3607 -0.0759 -0.4684
  675MOL0     C89016   4.166   3.737   5.045 -1.3658  0.6126 -0.4197
  675MOL0     C89017   4.253   3.703   4.935 -0.2939  0.0355 -0.8462
  675MOL0     N89018   4.530   3.154   4.594 -0.4113 -0.2908  0.6931
  675MOL0     N89019   4.603   3.110   4.495  0.5857  0.6288 -0.4639
  675MOL0     C89020   5.982   3.370   4.614  1.0989  0.1208  0.4857
  675MOL0     C89021   6.117   3.355   4.648 -0.6082  0.2944 -0.4806
  675MOL0     C89022   6.539   3.146   4.688 -0.7567 -0.1385  0.2213
  675MOL0     C89023   6.558   3.126   4.831 -0.3759  0.0542  0.8427
  675MOL0     C89024   6.675   3.071   4.888  0.2428  0.2893 -1.0241
  675MOL0     C89025   6.786   3.050   4.805 -0.2409  0.1488  0.9278
  675MOL0     O89026   6.900   2.991   4.836  0.4861 -0.1644 -0.1776
  675MOL0     C89027   6.928   2.951   4.972  0.3555  0.2880 -0.9552
  675MOL0     C89028   6.997   3.069   5.051 -0.1343  0.2176  1.3677
  675MOL0     C89029   7.078   3.016   5.164 -0.3636 -0.0807 -0.3085
  675MOL0     C89030   7.163   3.119   5.225 -0.5029  0.1000 -1.0402
  675MOL0     C89031   7.213   3.060   5.354 -0.3239 -0.5728  0.0234
  675MOL0     C89032   7.255   3.014   5.460 -0.3558 -0.3744  0.8357
  675MOL0     C89033   6.768   3.082   4.665 -0.3736 -0.4750  0.4156
  675MOL0     C89034   6.655   3.138   4.608  0.5263 -0.5379 -0.9398
  675MOL0     H89035   6.153   3.033   4.638 -0.1258 -0.5455 -0.5752
  675MOL0     H89036   5.913   3.046   4.577  0.0281  0.7446 -1.4826
  675MOL0     H89037   5.684   3.096   4.625 -3.5843  1.6082  0.1415
  675MOL0     H89038   5.730   3.091   4.449  0.6060  0.6174  0.0124
  675MOL0     H89039   5.547   3.245   4.395 -2.1853 -4.7357 -3.8830
  675MOL0     H89040   5.496   3.247   4.562  0.3453 -0.2274  0.2700
  675MOL0     H89041   5.437   3.013   4.565 -0.0361 -1.9407 -1.1926
  675MOL0     H89042   5.525   2.967   4.429  0.9696 -0.1870 -0.4218
  675MOL0     H89043   5.380   3.090   4.274 -0.1835 -2.7992 -1.2948
  675MOL0     H89044   5.314   2.963   4.381 -3.1878  1.4072  2.0965
  675MOL0     H89045   5.253   3.252   4.421 -0.0357 -0.6311 -2.0989
  675MOL0     H89046   5.249   3.147   4.554  0.1657  1.9557  0.6870
  675MOL0     H89047   5.100   2.992   4.429  0.0831  0.1608  0.5122
  675MOL0     H89048   5.091   3.125   4.301  1.4891  0.6203  0.4313
  675MOL0     H89049   4.991   3.123   4.584  1.2477 -0.8778 -0.4154
  675MOL0     H89050   4.983   3.269   4.476  0.8632 -0.1612 -1.9954
  675MOL0     H89051   4.853   3.007   4.408 -0.6774 -0.0488 -0.2885
  675MOL0     H89052   4.837   3.170   4.331  3.7980 -0.6587 -0.3597
  675MOL0     H89053   4.817   3.282   4.669 -0.6655  1.0869  1.1829
  675MOL0     H89054   4.672   3.363   4.833  0.7096 -0.2822 -1.0266
  675MOL0     H89055   4.510   3.295   4.846  0.2412 -1.2659  1.1831
  675MOL0     H89056   4.428   3.411   4.651  0.0306 -1.6831  0.3014
  675MOL0     H89057   4.586   3.480   4.602 -1.1056  2.6760 -0.4938
  675MOL0     H89058   4.466   3.543   4.873  0.0049  2.5722  1.4267
  675MOL0     H89059   4.595   3.625   4.778  0.6019 -0.7039 -3.4302
  675MOL0     H89060   4.317   3.620   4.690 -0.3237 -0.0744 -0.1635
  675MOL0     H89061   4.462   3.689   4.602  0.2494  3.9177  0.6023
  675MOL0     H89062   4.392   4.002   4.878  0.2131 -1.2946 -2.0631
  675MOL0     H89063   4.235   4.063   5.075 -3.1940  0.3046  1.5754
  675MOL0     H89064   3.827   4.017   5.335 -2.7581 -3.5177  3.3028
  675MOL0     H89065   3.738   4.078   5.573 -0.8241  0.8732 -1.8852
  675MOL0     H89066   3.928   4.201   5.960 -0.3133  0.4023  0.8618
  675MOL0     H89067   3.952   4.039   5.908 -0.4363 -0.4015 -0.0875
  675MOL0     H89068   3.758   4.134   6.098  3.3435  0.5796 -1.0212
  675MOL0     H89069   3.754   3.979   6.023  3.9474 -0.3074 -1.1763
  675MOL0     H89070   3.588   4.064   5.869  0.8957 -0.8536  0.2789
  675MOL0     H89071   3.611   4.234   5.927 -1.6006 -0.7337  1.0226
  675MOL0     H89072   3.533   3.997   6.099  0.3333 -0.4064  1.0272
  675MOL0     H89073   3.564   4.170   6.152 -0.5719 -1.0630  0.4302
  675MOL0     H89074   3.352   4.122   5.943  0.4871 -1.1651  0.5832
  675MOL0     H89075   3.393   4.259   6.048 -3.5807  1.0461 -0.6661
  675MOL0     H89076   3.313   4.158   6.242  0.2531  0.2586  0.2186
  675MOL0     H89077   3.302   3.996   6.182  0.1332 -0.4511 -1.4906
  675MOL0     H89078   3.155   4.246   6.089  0.9543 -0.3171 -0.6980
  675MOL0     H89079   3.116   4.083   6.018 -0.6152 -0.0272  0.2888
  675MOL0     H89080   3.050   4.145   6.295  1.0097  0.6808 -0.4488
  675MOL0     H89081   3.019   3.997   6.210 -4.0057  0.7574 -1.0847
  675MOL0     H89082   4.114   4.144   5.719  2.3621 -2.3707 -0.5970
  675MOL0     H89083   4.219   4.094   5.497  0.6423  3.6089 -0.1428
  675MOL0     H89084   4.093   3.666   5.083 -0.9881  1.6088  2.4020
  675MOL0     H89085   4.247   3.602   4.895  0.5480  0.6222 -2.5446
  675MOL0     H89086   5.940   3.468   4.596  2.5036  0.4235 -1.4146
  675MOL0     H89087   6.169   3.447   4.673 -1.3633  0.3253  1.0828
  675MOL0     H89088   6.472   3.143   4.896 -2.8084  2.2653 -2.6116
  675MOL0     H89089   6.664   3.048   4.994 -0.9335 -1.9063 -1.5572
  675MOL0     H89090   6.993   2.864   4.963 -1.0218 -0.6652 -2.1202
  675MOL0     H89091   6.838   2.928   5.031 -0.6125  4.0937 -0.6513
  675MOL0     H89092   7.069   3.121   4.987 -1.1460  0.5270  0.4508
  675MOL0     H89093   6.924   3.136   5.097 -0.4002 -0.2751  1.6635
  675MOL0     H89094   7.146   2.935   5.135 -0.6197 -1.2052  2.0286
  675MOL0     H89095   7.016   2.964   5.237  2.2297 -0.3165  1.8562
  675MOL0     H89096   7.237   3.128   5.145 -0.0817 -2.5359 -1.0324
  675MOL0     H89097   7.100   3.204   5.253 -1.9643 -0.3126 -2.8706
  675MOL0     H89098   7.276   2.975   5.557  0.5364  0.7880  1.1223
  675MOL0     H89099   6.847   3.056   4.595 -1.2435 -2.6718  0.1732
  675MOL0     H89100   6.653   3.169   4.504 -0.5086  1.1956 -0.4504
  676MOL0     O89101  10.770   3.983   9.854  0.5138  0.4527 -0.0595
  676MOL0     C89102  10.845   3.954   9.953  0.3450  0.0326  0.1925
  676MOL0     O89103  10.821   3.932  10.086 -0.3154 -0.0165 -0.3396
  676MOL0     C89104  10.691   3.921  10.128 -0.2422  0.0090 -1.1445
  676MOL0     C89105  10.653   3.825  10.221 -0.5839  0.4283  0.9968
  676MOL0     C89106  10.525   3.820  10.277  1.1122  0.0163 -0.1768
  676MOL0     C89107  10.430   3.909  10.233 -0.1549  0.2571  0.2791
  676MOL0     O89108  10.306   3.874  10.277  0.4038 -0.1097  0.2759
  676MOL0     C89109  10.196   3.974  10.282 -0.3297 -0.6038 -0.0586
  676MOL0     C89110  10.109   3.957  10.398  1.0547 -0.0178  0.6693
  676MOL0     C89111   9.967   3.995  10.380 -0.0088 -0.8855  0.6991
  676MOL0     C89112   9.878   3.964  10.501 -0.1031  0.0475  0.5815
  676MOL0     C89113   9.726   3.991  10.474 -0.0481 -1.1401  0.0819
  676MOL0     C89114   9.635   3.959  10.592  0.1164  0.8628 -0.3760
  676MOL0     C89115   9.649   3.835  10.681  0.3525 -0.9351 -0.2880
  676MOL0     C89116   9.678   3.705  10.621 -0.4949  0.9346  0.3653
  676MOL0     N89117   9.656   3.588  10.710  0.3153  0.4790  0.2164
  676MOL0     C89118   9.751   3.520  10.791  0.1295 -0.2306 -0.6983
  676MOL0     C89119   9.677   3.415  10.846 -1.2418 -0.3277 -0.6141
  676MOL0     C89120   9.740   3.318  10.945 -0.2984  0.6409  0.5356
  676MOL0     C89121   9.873   3.246  10.903  0.7825 -0.7543  0.8916
  676MOL0     C89122   9.996   3.318  10.947 -0.1272 -0.3449 -0.9538
  676MOL0     C89123  10.038   3.276  11.086  0.0158 -0.3774  0.3316
  676MOL0     O89124  10.062   3.135  11.086  0.4451  0.2187  0.3037
  676MOL0     C89125  10.176   3.096  11.160  0.9946 -0.2877 -0.3068
  676MOL0     C89126  10.295   3.067  11.105 -0.6759  0.6450 -0.3736
  676MOL0     C89127  10.413   3.056  11.183 -0.8753 -0.5142 -0.0038
  676MOL0     C89128  10.408   3.083  11.322 -0.0619 -0.3533  0.2985
  676MOL0     C89129  10.527   3.095  11.401 -0.4695 -1.0287 -0.5126
  676MOL0     O89130  10.647   3.045  11.348 -0.2105 -0.1344 -0.2709
  676MOL0     C89131  10.769   3.037  11.416 -0.6179 -0.7055 -0.1144
  676MOL0     C89132  10.835   3.148  11.483  0.7640  0.8882  0.1030
  676MOL0     C89133  10.960   3.144  11.548  0.2135  0.7953  0.0232
  676MOL0     C89134  11.034   3.031  11.518  0.3306 -0.0968 -0.1134
  676MOL0     O89135  11.163   3.034  11.568  0.5885  0.3588 -0.4645
  676MOL0     C89136  11.215   2.903  11.612 -0.1793 -0.3079  0.3758
  676MOL0     C89137  11.333   2.917  11.716 -0.1464  0.0300 -0.5580
  676MOL0     C89138  11.392   2.779  11.765 -0.6036  0.8096  0.6018
  676MOL0     C89139  11.473   2.771  11.893 -0.0250  0.0827 -0.3698
  676MOL0     C89140  11.616   2.821  11.871 -0.3311 -0.1429  1.0771
  676MOL0     C89141  11.698   2.783  11.995 -0.3497 -0.2316  0.7019
  676MOL0     C89142  11.844   2.821  11.972  0.1750 -0.2772 -0.4367
  676MOL0     C89143  11.926   2.747  12.082  0.0462  0.6662 -1.4353
  676MOL0    Cl89144  11.878   2.805  12.255 -0.2876  0.6637 -0.0426
  676MOL0     C89145  10.973   2.920  11.454 -0.4060 -0.0905 -0.4855
  676MOL0     C89146  10.846   2.925  11.401  0.3049 -0.2653  0.6504
  676MOL0     O89147  10.511   3.120  11.519  0.7040  0.2498 -0.3654
  676MOL0     C89148  10.288   3.114  11.380 -0.0509  0.0138 -0.1751
  676MOL0     C89149  10.175   3.120  11.302  0.0931 -0.6647  0.2668
  676MOL0     N89150   9.550   3.407  10.785 -0.1981 -0.8008  0.4377
  676MOL0     N89151   9.543   3.513  10.709 -0.0801 -0.4438 -0.4635
  676MOL0     C89152  10.463   4.010  10.140  0.0317 -0.0780 -0.2495
  676MOL0     C89153  10.601   4.021  10.098  0.0357 -0.8869  0.6485
  676MOL0     C89154  10.990   3.955   9.923 -0.2952  0.3127  0.5246
  676MOL0     C89155  11.085   3.986  10.030  0.2405  0.1170 -0.4202
  676MOL0     C89156  11.217   3.996  10.009 -0.5885  0.1015  1.0154
  676MOL0     C89157  11.266   3.986   9.882 -0.6901  0.8327  0.3031
  676MOL0     O89158  11.398   3.994   9.857  0.3398 -0.1843 -0.0893
  676MOL0     C89159  11.497   3.995   9.960  0.2288  0.2856  0.5920
  676MOL0     C89160  11.628   3.984   9.899 -0.3002 -0.0624  0.0882
  676MOL0     C89161  11.743   3.920   9.977 -1.0252  0.8966  0.3284
  676MOL0     C89162  11.880   3.976   9.937  0.1381 -0.4627 -0.9562
  676MOL0     C89163  11.969   3.889  10.004 -0.7835  0.5103 -0.1080
  676MOL0     C89164  12.066   3.817  10.043 -0.9369  0.6935  0.0788
  676MOL0     C89165  11.178   3.965   9.772 -0.0103  0.0049  0.1545
  676MOL0     C89166  11.043   3.949   9.795 -0.1355  0.0040  0.3916
  676MOL0     H89167  10.728   3.750  10.241  0.9448  1.3852 -0.7964
  676MOL0     H89168  10.498   3.747  10.353 -0.1018  0.9032  0.2719
  676MOL0     H89169  10.142   3.983  10.187  1.7624  2.6610 -1.1094
  676MOL0     H89170  10.238   4.073  10.304 -1.1436  0.2664 -2.0978
  676MOL0     H89171  10.155   4.015  10.478  1.6968 -1.4555  1.3915
  676MOL0     H89172  10.101   3.850  10.419 -1.6639  0.0612  0.4240
  676MOL0     H89173   9.935   3.948  10.287  1.7945  2.7748 -2.0674
  676MOL0     H89174   9.958   4.103  10.363 -2.6244 -1.1167  0.3096
  676MOL0     H89175   9.876   3.861  10.538 -1.9003 -1.1690 -2.5511
  676MOL0     H89176   9.905   4.035  10.580 -1.0279  3.4780 -1.9621
  676MOL0     H89177   9.691   3.940  10.384  1.5460  2.7252 -3.0582
  676MOL0     H89178   9.723   4.098  10.454  0.7710 -1.2165 -0.5205
  676MOL0     H89179   9.534   3.947  10.552  0.0373 -1.6453  0.3737
  676MOL0     H89180   9.638   4.045  10.659  0.2237 -0.4657  1.4055
  676MOL0     H89181   9.720   3.852  10.762  1.6953  0.4410 -1.6848
  676MOL0     H89182   9.555   3.837  10.736  2.6131  0.6797  3.9697
  676MOL0     H89183   9.783   3.687  10.593 -1.1691  1.3020 -2.7898
  676MOL0     H89184   9.611   3.695  10.536  1.3434  2.8836 -1.4374
  676MOL0     H89185   9.859   3.535  10.791  0.2959 -1.3185 -1.1876
  676MOL0     H89186   9.671   3.235  10.965 -0.5733  0.6628 -0.2970
  676MOL0     H89187   9.768   3.379  11.031  0.2194  1.4171 -0.1743
  676MOL0     H89188   9.881   3.251  10.794  1.0650  0.9461  0.9554
  676MOL0     H89189   9.865   3.144  10.940  0.9462 -0.9712  0.3319
  676MOL0     H89190  10.089   3.300  10.893  0.2456  1.8361 -1.1221
  676MOL0     H89191   9.972   3.425  10.941 -2.8734 -0.8994 -1.5356
  676MOL0     H89192   9.959   3.294  11.160 -1.4001  4.4486 -1.9597
  676MOL0     H89193  10.130   3.332  11.103 -0.5889  0.1415  2.1352
  676MOL0     H89194  10.316   3.081  10.999  2.0179  2.4917  0.3209
  676MOL0     H89195  10.507   3.046  11.130 -0.1913 -2.2493  1.4455
  676MOL0     H89196  10.789   3.246  11.489  0.4596  0.8496 -1.1409
  676MOL0     H89197  11.008   3.226  11.600 -0.5514  2.2301 -1.4894
  676MOL0     H89198  11.254   2.855  11.523  0.3092 -0.6383  0.7624
  676MOL0     H89199  11.137   2.837  11.650 -0.0364 -0.8459 -0.2576
  676MOL0     H89200  11.285   2.969  11.800 -1.0433  0.3206 -1.2339
  676MOL0     H89201  11.401   2.993  11.676 -0.9479  0.1619 -1.7173
  676MOL0     H89202  11.449   2.729  11.685 -1.6259  2.0017 -0.9321
  676MOL0     H89203  11.301   2.718  11.770  0.7527 -1.7047 -2.1698
  676MOL0     H89204  11.422   2.840  11.961  3.4771  2.5332  0.0193
  676MOL0     H89205  11.462   2.671  11.937 -1.7479  0.1566 -0.5526
  676MOL0     H89206  11.624   2.930  11.865 -1.4573  0.0546  2.7635
  676MOL0     H89207  11.662   2.776  11.782  0.3910  1.0317  0.8273
  676MOL0     H89208  11.685   2.677  12.018  2.0430 -0.2884  2.1696
  676MOL0     H89209  11.669   2.837  12.086  0.4607 -0.6425  1.2118
  676MOL0     H89210  11.889   2.787  11.878  2.3382 -1.9327  1.0879
  676MOL0     H89211  11.861   2.927  11.990 -2.6812  0.4730 -1.6662
  676MOL0     H89212  12.033   2.765  12.069  0.2343 -0.8510 -2.1788
  676MOL0     H89213  11.913   2.641  12.059  0.5112  0.5663 -1.2361
  676MOL0     H89214  11.030   2.828  11.448 -1.1880 -0.5375 -1.7159
  676MOL0     H89215  10.800   2.843  11.346  1.1101 -1.0208  1.0752
  676MOL0     H89216  10.284   3.135  11.487  3.9142 -1.0887  0.3444
  676MOL0     H89217  10.083   3.158  11.344  0.7458  1.5162 -0.1128
  676MOL0     H89218  10.386   4.076  10.100 -0.2573 -0.3846 -0.2034
  676MOL0     H89219  10.625   4.102  10.030 -3.5867 -0.8379 -0.7537
  676MOL0     H89220  11.058   4.000  10.135  1.6935  0.9843 -0.1354
  676MOL0     H89221  11.284   4.020  10.091  0.9659  0.7723 -0.4070
  676MOL0     H89222  11.495   3.913  10.032  0.8209 -1.8514 -1.6780
  676MOL0     H89223  11.484   4.092  10.008 -3.4292 -0.6428  1.7761
  676MOL0     H89224  11.633   3.926   9.806 -1.1977 -1.8302  1.0892
  676MOL0     H89225  11.660   4.084   9.868  0.2457 -0.3969 -0.4540
  676MOL0     H89226  11.743   3.814   9.949 -0.0064  1.0727 -0.3936
  676MOL0     H89227  11.725   3.931  10.084 -1.8657 -3.5001  0.8540
  676MOL0     H89228  11.910   3.970   9.832  2.1464 -0.1636 -0.4399
  676MOL0     H89229  11.897   4.072   9.987  1.6485 -0.1406 -2.0071
  676MOL0     H89230  12.145   3.751  10.073  1.0131  1.5460 -2.7297
  676MOL0     H89231  11.216   3.954   9.672  0.7960  1.0939  0.3284
  676MOL0     H89232  10.971   3.905   9.727 -1.2166 -0.5229  1.8219
  677MOL0     O89233   5.474   6.249   4.990  0.1867  0.3665  0.8880
  677MOL0     C89234   5.475   6.353   4.911  0.6229 -0.0411 -0.8583
  677MOL0     O89235   5.373   6.447   4.904  0.1183 -0.0474 -0.0614
  677MOL0     C89236   5.245   6.400   4.914 -0.1169  0.5841 -0.2560
  677MOL0     C89237   5.145   6.475   4.983  0.1838 -0.2657 -0.2729
  677MOL0     C89238   5.018   6.424   5.004  0.1095  0.2754  0.2660
  677MOL0     C89239   4.976   6.304   4.945 -0.1385 -0.7318 -0.9053
  677MOL0     O89240   4.836   6.270   4.958 -0.4755  0.1062 -0.5824
  677MOL0     C89241   4.784   6.176   4.868  0.2115  0.2903  0.4730
  677MOL0     C89242   4.625   6.168   4.859 -0.3803 -0.4959  0.0829
  677MOL0     C89243   4.571   6.289   4.768 -0.5692  0.6471 -0.2222
  677MOL0     C89244   4.640   6.423   4.776 -0.4809  1.0192  1.1141
  677MOL0     C89245   4.633   6.505   4.905  0.1577  0.6072 -0.5070
  677MOL0     C89246   4.695   6.642   4.892 -0.5918  1.2054 -0.1526
  677MOL0     C89247   4.696   6.707   5.028  0.6101 -0.8021 -0.3858
  677MOL0     C89248   4.711   6.854   5.001 -0.4484 -0.3423 -0.0199
  677MOL0     N89249   4.760   6.923   5.123 -0.0710  0.2402 -0.0508
  677MOL0     C89250   4.680   6.944   5.234  0.7837  0.5244 -0.3924
  677MOL0     C89251   4.748   7.029   5.314 -0.4418 -0.6826 -0.7716
  677MOL0     C89252   4.708   7.083   5.450  0.1679 -0.0987  0.1862
  677MOL0     C89253   4.568   7.156   5.427 -0.3154  0.2319 -0.1213
  677MOL0     C89254   4.500   7.198   5.559 -0.4840  0.0295  0.0647
  677MOL0     C89255   4.357   7.234   5.537  0.1509 -0.2879  0.2273
  677MOL0     O89256   4.265   7.125   5.523 -0.4345  0.3398 -0.5259
  677MOL0     C89257   4.132   7.157   5.481  0.0913 -1.0884 -0.6527
  677MOL0     C89258   4.083   7.287   5.454 -0.0137  0.5460  0.7934
  677MOL0     C89259   3.951   7.306   5.447 -0.5471  0.5811 -0.4072
  677MOL0     C89260   3.854   7.202   5.460  0.3350  0.1995 -0.3895
  677MOL0     C89261   3.710   7.228   5.459  0.5093  0.3791 -0.2413
  677MOL0     O89262   3.628   7.136   5.523  0.0884 -0.5039 -0.6523
  677MOL0     C89263   3.492   7.160   5.522  0.5802  0.1979  0.1919
  677MOL0     C89264   3.426   7.042   5.507  1.1464  0.3908  0.7024
  677MOL0     C89265   3.288   7.047   5.496 -0.2112 -0.4041 -0.3234
  677MOL0     C89266   3.213   7.169   5.502  0.5958  0.0294  1.1351
  677MOL0     O89267   3.072   7.158   5.489 -0.0294  0.1491 -0.8205
  677MOL0     C89268   2.993   7.272   5.515  0.2058  0.0876  0.2108
  677MOL0     C89269   2.839   7.244   5.517 -0.3434  0.1458  1.2161
  677MOL0     C89270   2.785   7.183   5.375  0.0893 -0.8812  0.4901
  677MOL0     C89271   2.843   7.048   5.335 -0.0697  0.6112 -0.6023
  677MOL0     C89272   2.749   6.938   5.280 -0.1052 -0.5099 -0.1431
  677MOL0     C89273   2.678   6.974   5.150 -0.2982 -0.3532 -0.2244
  677MOL0     C89274   2.534   6.961   5.159 -0.2088 -0.6356 -0.7376
  677MOL0     C89275   2.476   6.821   5.140  0.5813 -0.1969 -0.7775
  677MOL0    Cl89276   2.512   6.703   5.265 -0.1779  0.0884 -0.1869
  677MOL0     C89277   3.286   7.292   5.524 -1.1388  0.3999  0.0679
  677MOL0     C89278   3.424   7.277   5.538 -0.3448 -0.2656  0.1837
  677MOL0     O89279   3.675   7.341   5.419 -0.5628 -0.0730  0.0971
  677MOL0     C89280   3.903   7.077   5.499 -0.5343 -1.0925 -0.3660
  677MOL0     C89281   4.044   7.058   5.513  0.4521 -0.6764 -0.2086
  677MOL0     N89282   4.875   7.050   5.248  0.4783 -0.3711  0.6508
  677MOL0     N89283   4.877   6.992   5.130  0.3949 -0.0956 -0.2846
  677MOL0     C89284   5.065   6.238   4.867  0.4893  0.2296 -0.3106
  677MOL0     C89285   5.195   6.279   4.849  0.4966  0.0114 -0.8359
  677MOL0     C89286   5.605   6.404   4.863  0.1163 -0.6407 -0.4488
  677MOL0     C89287   5.726   6.332   4.879 -0.1321 -0.3428 -0.1727
  677MOL0     C89288   5.850   6.393   4.841 -1.0779  0.0580 -0.0988
  677MOL0     C89289   5.854   6.521   4.791 -0.2345 -0.9870  0.3673
  677MOL0     O89290   5.966   6.588   4.748 -0.2755 -0.1099  0.0544
  677MOL0     C89291   6.065   6.529   4.667 -1.1613  0.0276  0.1182
  677MOL0     C89292   6.183   6.498   4.759  0.1719 -0.8115 -0.1222
  677MOL0     C89293   6.320   6.484   4.687 -0.1271  0.7076  0.6312
  677MOL0     C89294   6.315   6.436   4.536  0.4685 -0.2568 -0.0523
  677MOL0     C89295   6.447   6.445   4.477 -1.2411  0.3851  0.6559
  677MOL0     C89296   6.558   6.448   4.421 -0.4271  0.3161 -0.6684
  677MOL0     C89297   5.737   6.589   4.772 -0.2712  0.0795 -0.5219
  677MOL0     C89298   5.611   6.534   4.791  0.3580 -0.1374 -0.4886
  677MOL0     H89299   5.156   6.565   5.043  1.7272  0.8252 -2.0649
  677MOL0     H89300   4.952   6.482   5.068 -3.1322 -1.4227 -1.3233
  677MOL0     H89301   4.820   6.082   4.910 -0.2625 -0.3619 -0.5699
  677MOL0     H89302   4.819   6.181   4.765 -0.6330  0.8311  0.2018
  677MOL0     H89303   4.584   6.181   4.959 -0.9874  2.2009 -0.4392
  677MOL0     H89304   4.600   6.067   4.824 -0.9047 -0.1229 -0.6417
  677MOL0     H89305   4.468   6.299   4.803 -1.1350 -1.7821 -0.9555
  677MOL0     H89306   4.566   6.264   4.661 -2.2290 -1.6575  0.2904
  677MOL0     H89307   4.744   6.411   4.743 -1.0605  1.1680 -0.8869
  677MOL0     H89308   4.593   6.486   4.700 -1.5960 -1.1445 -0.1020
  677MOL0     H89309   4.680   6.444   4.983  1.6417  1.7855 -0.4302
  677MOL0     H89310   4.529   6.514   4.937  0.0137 -0.3345 -0.6632
  677MOL0     H89311   4.636   6.705   4.824  0.6988  1.4977 -1.0466
  677MOL0     H89312   4.796   6.632   4.851 -1.0964  1.6054 -1.5486
  677MOL0     H89313   4.598   6.685   5.072 -0.9126 -0.8709 -3.5503
  677MOL0     H89314   4.770   6.656   5.091 -0.0074 -1.3197 -0.0703
  677MOL0     H89315   4.617   6.899   4.968 -0.1522  0.4502  0.2142
  677MOL0     H89316   4.790   6.872   4.928  0.7312 -2.0669  0.7483
  677MOL0     H89317   4.584   6.899   5.256  1.6887 -0.4319  1.9442
  677MOL0     H89318   4.784   7.151   5.490 -0.5111  0.5510  0.4136
  677MOL0     H89319   4.702   7.000   5.521  0.5398 -0.4940 -0.2396
  677MOL0     H89320   4.499   7.090   5.374  0.7227  0.0662 -1.2989
  677MOL0     H89321   4.592   7.247   5.372 -0.2894 -0.0681 -0.6072
  677MOL0     H89322   4.507   7.117   5.632 -0.8512  0.3520  0.4671
  677MOL0     H89323   4.563   7.282   5.591 -0.6526 -0.4469  1.7574
  677MOL0     H89324   4.356   7.302   5.451  0.6331 -1.1083 -0.4408
  677MOL0     H89325   4.321   7.286   5.627 -0.5140  0.3133 -0.3715
  677MOL0     H89326   4.148   7.373   5.438 -1.3847  1.4463 -0.2881
  677MOL0     H89327   3.925   7.403   5.406 -0.0929 -0.1343 -2.5704
  677MOL0     H89328   3.488   6.954   5.494 -1.1239 -1.1608 -0.2744
  677MOL0     H89329   3.238   6.951   5.484  4.8654 -3.4321  0.1074
  677MOL0     H89330   3.007   7.347   5.437  0.0788  0.7295  0.7957
  677MOL0     H89331   3.018   7.318   5.611 -0.4094  3.6498 -1.1803
  677MOL0     H89332   2.794   7.342   5.536 -3.1419 -0.5900 -0.9658
  677MOL0     H89333   2.798   7.182   5.598 -3.6669 -0.7569 -0.9709
  677MOL0     H89334   2.797   7.255   5.294 -1.9427  0.8202  1.6002
  677MOL0     H89335   2.677   7.166   5.379 -0.0726 -0.2340 -0.8324
  677MOL0     H89336   2.921   7.059   5.259  0.1291  0.0395 -0.4866
  677MOL0     H89337   2.879   7.004   5.428 -2.6210 -1.1899 -0.3497
  677MOL0     H89338   2.685   6.901   5.360  1.3978 -0.4571  1.1458
  677MOL0     H89339   2.811   6.849   5.263  0.2159 -0.7457  1.9687
  677MOL0     H89340   2.712   6.906   5.071 -0.8531 -1.9651  0.8746
  677MOL0     H89341   2.697   7.078   5.125  0.1713 -0.6924 -1.3446
  677MOL0     H89342   2.495   6.989   5.258  0.7116 -0.5114 -0.4018
  677MOL0     H89343   2.495   7.026   5.080  1.1614  1.0200 -0.1088
  677MOL0     H89344   2.507   6.779   5.044  1.6374 -0.3803 -0.3708
  677MOL0     H89345   2.368   6.836   5.133  0.2643 -2.6934 -2.9821
  677MOL0     H89346   3.235   7.388   5.529  1.1697  1.8559 -2.1300
  677MOL0     H89347   3.482   7.365   5.565 -0.7726  0.2483 -0.5119
  677MOL0     H89348   3.842   6.989   5.513 -2.4749  0.3139  0.4447
  677MOL0     H89349   4.078   6.958   5.538  0.4130 -0.3667  1.1387
  677MOL0     H89350   5.036   6.158   4.800  1.0134  0.9721 -1.4574
  677MOL0     H89351   5.271   6.223   4.796  1.4851  1.5812 -1.1360
  677MOL0     H89352   5.713   6.230   4.915 -1.7045 -1.0130 -2.3974
  677MOL0     H89353   5.938   6.344   4.880 -0.7014  1.1115  0.4197
  677MOL0     H89354   6.099   6.589   4.582  0.1876 -1.2284 -0.2684
  677MOL0     H89355   6.025   6.433   4.634  0.7857 -0.5105 -0.8072
  677MOL0     H89356   6.181   6.573   4.839 -2.2885 -0.0082 -0.8330
  677MOL0     H89357   6.149   6.411   4.816 -0.5944  0.2740  1.1361
  677MOL0     H89358   6.378   6.412   4.745  1.2384  1.8413  0.7208
  677MOL0     H89359   6.380   6.575   4.695  0.3362  0.1968  4.1233
  677MOL0     H89360   6.282   6.332   4.525  0.9569 -0.3840 -0.3220
  677MOL0     H89361   6.242   6.495   4.480 -0.3339 -1.3951 -0.2485
  677MOL0     H89362   6.647   6.459   4.361  0.3054  2.8421  0.7467
  677MOL0     H89363   5.739   6.690   4.731 -0.2609 -0.2563 -1.3630
  677MOL0     H89364   5.529   6.596   4.757  0.1329 -0.4470 -0.5093
  678MOL0     O89365  10.056  10.528   2.820  0.7336 -0.6733  0.2419
  678MOL0     C89366  10.123  10.591   2.733  0.1220  0.1381 -0.6472
  678MOL0     O89367  10.079  10.703   2.664 -0.5771 -0.7419 -0.4460
  678MOL0     C89368   9.952  10.750   2.687  0.9145  0.1026  0.0550
  678MOL0     C89369   9.919  10.829   2.796 -0.8344 -0.0152 -0.6940
  678MOL0     C89370   9.784  10.851   2.829 -0.4760  0.5177 -0.0332
  678MOL0     C89371   9.685  10.811   2.739 -0.2109 -0.1401 -0.4356
  678MOL0     O89372   9.556  10.836   2.783  0.1498  0.6682  0.5968
  678MOL0     C89373   9.529  10.941   2.867 -0.0342  0.3677  0.7162
  678MOL0     C89374   9.374  10.970   2.873  0.2139 -0.0404  0.2975
  678MOL0     C89375   9.308  11.047   2.754  1.4685  0.3174 -0.3046
  678MOL0     C89376   9.160  11.086   2.782  0.7713  0.2552 -0.2385
  678MOL0     C89377   9.076  11.100   2.647 -0.0421  0.8345  0.1543
  678MOL0     C89378   8.937  11.150   2.670  0.1945  0.8443  1.1995
  678MOL0     C89379   8.836  11.151   2.542  0.0175  0.6071 -0.2612
  678MOL0     C89380   8.857  11.042   2.444 -0.0685 -0.2514  0.8157
  678MOL0     N89381   8.838  10.906   2.486 -0.5926  0.7837 -0.3328
  678MOL0     C89382   8.728  10.863   2.565 -0.3187  0.6946  0.3149
  678MOL0     C89383   8.745  10.726   2.566  0.7152  0.2740  0.8184
  678MOL0     C89384   8.641  10.625   2.608 -0.2478 -0.2154 -0.2678
  678MOL0     C89385   8.703  10.500   2.677 -0.0141 -0.8710  0.7350
  678MOL0     C89386   8.784  10.420   2.575  0.1109  0.4952  0.5102
  678MOL0     C89387   8.728  10.275   2.553 -0.8996 -0.5096  0.2240
  678MOL0     O89388   8.586  10.271   2.519 -0.0714  0.0398 -0.6633
  678MOL0     C89389   8.510  10.157   2.550 -1.1097  0.4116 -0.6179
  678MOL0     C89390   8.574  10.031   2.584  0.0086 -0.3000 -0.0558
  678MOL0     C89391   8.494   9.922   2.623  1.5104 -0.5331 -0.1933
  678MOL0     C89392   8.355   9.931   2.604 -0.1095  0.2298  0.4790
  678MOL0     C89393   8.268   9.816   2.620  0.4204 -0.3384  0.5902
  678MOL0     O89394   8.138   9.836   2.598  0.4260 -0.7067 -0.2651
  678MOL0     C89395   8.033   9.765   2.659 -1.1132 -0.3832  0.5718
  678MOL0     C89396   7.908   9.780   2.607  0.7950  0.0611 -0.5597
  678MOL0     C89397   7.792   9.719   2.666 -0.5755  0.0689 -0.0270
  678MOL0     C89398   7.810   9.646   2.785 -0.5037 -0.5422 -0.0055
  678MOL0     O89399   7.713   9.594   2.870  0.1504  0.1111  0.6344
  678MOL0     C89400   7.573   9.648   2.843 -0.3654  0.0815 -0.7971
  678MOL0     C89401   7.483   9.554   2.925  0.5554  0.2711 -0.1864
  678MOL0     C89402   7.337   9.603   2.929 -0.4716 -0.0912  0.9774
  678MOL0     C89403   7.290   9.628   2.789  0.4421 -0.6924  0.4785
  678MOL0     C89404   7.139   9.652   2.771 -0.3791 -0.2544  0.9026
  678MOL0     C89405   7.107   9.715   2.632  0.2499 -0.0037 -0.2584
  678MOL0     C89406   6.963   9.684   2.589 -0.1460  0.2481  0.3397
  678MOL0     C89407   6.928   9.694   2.437  0.4865  0.3496 -0.1805
  678MOL0    Cl89408   6.746   9.681   2.419 -0.0476  0.1177 -0.1285
  678MOL0     C89409   7.933   9.642   2.843 -1.2182  0.6032  0.3813
  678MOL0     C89410   8.045   9.689   2.775  0.4795 -0.4786  0.1869
  678MOL0     O89411   8.320   9.706   2.644  0.1989 -0.2142 -0.4198
  678MOL0     C89412   8.296  10.056   2.564 -0.2054  1.0253 -0.2565
  678MOL0     C89413   8.377  10.163   2.534 -0.4440 -0.6940  0.6229
  678MOL0     N89414   8.868  10.701   2.506  0.1359  0.1174 -0.2946
  678MOL0     N89415   8.914  10.804   2.450 -0.2890  0.6246  0.5699
  678MOL0     C89416   9.718  10.729   2.632  0.3015  0.2237 -0.1093
  678MOL0     C89417   9.852  10.693   2.613 -0.4363  0.1219  1.0462
  678MOL0     C89418  10.244  10.524   2.672  0.1811  0.7043 -0.2495
  678MOL0     C89419  10.309  10.590   2.567 -0.6963  0.6937  0.4071
  678MOL0     C89420  10.431  10.536   2.521  1.2927 -0.0927  0.4015
  678MOL0     C89421  10.474  10.413   2.554  0.9475  0.3824  0.4814
  678MOL0     O89422  10.578  10.372   2.475 -0.3405  0.2730  0.0401
  678MOL0     C89423  10.638  10.247   2.511 -0.7346  0.9774 -1.0710
  678MOL0     C89424  10.765  10.229   2.425 -0.5264  0.3091 -0.2053
  678MOL0     C89425  10.833  10.097   2.455  0.9624  0.6481  0.5121
  678MOL0     C89426  10.956  10.064   2.353 -0.0398  0.0463 -0.6156
  678MOL0     C89427  11.047   9.967   2.422 -0.7284  0.2645  0.3115
  678MOL0     C89428  11.119   9.885   2.467  0.0486  1.0374  0.0393
  678MOL0     C89429  10.393  10.341   2.639 -1.0481  0.9362 -0.1846
  678MOL0     C89430  10.294  10.401   2.717  0.6582  0.0419  0.5443
  678MOL0     H89431   9.999  10.863   2.862 -2.5502 -1.4982  2.3732
  678MOL0     H89432   9.766  10.908   2.920  0.5800  0.3404  0.3074
  678MOL0     H89433   9.575  11.033   2.830 -0.3897  1.0833  2.0083
  678MOL0     H89434   9.546  10.938   2.975  2.3244 -0.3040  0.3828
  678MOL0     H89435   9.341  11.027   2.961  2.1043  0.7753  0.5225
  678MOL0     H89436   9.318  10.876   2.876 -0.3248  0.2516 -0.2992
  678MOL0     H89437   9.305  10.977   2.671 -0.7477 -1.3798  1.0928
  678MOL0     H89438   9.371  11.136   2.745  0.5166  1.1255  0.7021
  678MOL0     H89439   9.103  11.009   2.835 -0.5424  0.7151 -0.9215
  678MOL0     H89440   9.161  11.176   2.844  1.6198 -0.0425  0.1974
  678MOL0     H89441   9.071  10.996   2.612 -3.4820 -0.3950  3.5918
  678MOL0     H89442   9.135  11.166   2.583  1.7819  0.7377  1.6643
  678MOL0     H89443   8.939  11.255   2.702  1.0804  1.3484 -0.4338
  678MOL0     H89444   8.893  11.082   2.744 -0.4968 -1.3566 -1.0990
  678MOL0     H89445   8.732  11.139   2.573  0.2196  1.1064  0.6455
  678MOL0     H89446   8.840  11.250   2.495  0.0194  1.8225  2.1712
  678MOL0     H89447   8.956  11.057   2.400 -0.5489  0.5865 -0.0202
  678MOL0     H89448   8.786  11.040   2.361 -0.7473 -1.6715  1.3966
  678MOL0     H89449   8.641  10.909   2.611  0.1167  2.8026 -0.8201
  678MOL0     H89450   8.581  10.603   2.519 -2.1067  1.3076  0.5295
  678MOL0     H89451   8.567  10.672   2.674 -1.4264 -4.1223  1.4670
  678MOL0     H89452   8.612  10.450   2.713 -2.1585  0.8057 -1.9993
  678MOL0     H89453   8.777  10.520   2.754  1.2798  0.2096 -0.7408
  678MOL0     H89454   8.797  10.477   2.482 -1.1308  0.7907  0.4991
  678MOL0     H89455   8.881  10.406   2.624  0.8728 -0.3133 -1.1181
  678MOL0     H89456   8.727  10.217   2.646 -5.1734 -1.7656 -0.3932
  678MOL0     H89457   8.791  10.224   2.480  3.9623 -0.2238  3.7165
  678MOL0     H89458   8.679  10.009   2.570  0.4793  1.2071  0.9652
  678MOL0     H89459   8.536   9.833   2.668 -2.6508 -1.7988  1.6891
  678MOL0     H89460   7.893   9.837   2.516  0.9292 -0.0378 -0.6442
  678MOL0     H89461   7.694   9.734   2.623 -0.1552 -2.0348 -1.9030
  678MOL0     H89462   7.549   9.653   2.736  0.6861  1.1344 -1.0015
  678MOL0     H89463   7.566   9.752   2.877 -1.3793  0.6746 -2.6673
  678MOL0     H89464   7.526   9.548   3.025 -0.4695 -0.6260  0.2232
  678MOL0     H89465   7.488   9.456   2.877  1.3743  1.1145 -1.9151
  678MOL0     H89466   7.337   9.692   2.992  1.8211  0.5594  0.1464
  678MOL0     H89467   7.283   9.521   2.978 -1.3150 -0.6803 -0.8556
  678MOL0     H89468   7.341   9.720   2.760  1.6409 -0.9681  1.6367
  678MOL0     H89469   7.329   9.550   2.722  1.0234 -0.1488  0.1777
  678MOL0     H89470   7.105   9.719   2.850  3.1654  2.6183  0.2556
  678MOL0     H89471   7.091   9.555   2.787  0.6115 -0.6972  1.3383
  678MOL0     H89472   7.171   9.674   2.552  0.2938  0.2090 -0.3333
  678MOL0     H89473   7.122   9.823   2.637  1.4438 -0.1530 -0.1651
  678MOL0     H89474   6.937   9.582   2.619 -2.0959  0.6665  0.1686
  678MOL0     H89475   6.901   9.750   2.650 -1.9043  1.7922 -2.8913
  678MOL0     H89476   6.971   9.610   2.381  2.4241  0.9025  0.4101
  678MOL0     H89477   6.970   9.785   2.395  1.8925  0.4706  1.3939
  678MOL0     H89478   7.951   9.601   2.942  1.9544  0.9944  0.0667
  678MOL0     H89479   8.136   9.680   2.834 -0.3570  0.0394  1.6137
  678MOL0     H89480   8.189  10.072   2.554 -0.7971 -1.3781  1.2025
  678MOL0     H89481   8.342  10.257   2.493  4.4477  0.3909 -1.7831
  678MOL0     H89482   9.631  10.688   2.582 -1.1743  2.2361  0.6767
  678MOL0     H89483   9.887  10.629   2.533 -0.7770 -0.0088  0.9998
  678MOL0     H89484  10.278  10.687   2.529 -1.5284  0.6140  0.8758
  678MOL0     H89485  10.488  10.583   2.441  2.1502  1.5794  1.9270
  678MOL0     H89486  10.567  10.165   2.503 -0.5196  0.5152  1.2907
  678MOL0     H89487  10.675  10.251   2.614 -1.3282  4.9579 -0.8274
  678MOL0     H89488  10.734  10.243   2.321 -2.6445  1.0788  0.4620
  678MOL0     H89489  10.843  10.304   2.441  3.1142 -2.6110 -2.6367
  678MOL0     H89490  10.761  10.014   2.448  2.4227 -0.5900 -0.3802
  678MOL0     H89491  10.866  10.108   2.558 -0.6139  1.1780  0.9973
  678MOL0     H89492  10.918  10.020   2.260 -0.9829 -1.4079  0.4150
  678MOL0     H89493  11.012  10.156   2.331 -0.8568  0.1668 -2.3625
  678MOL0     H89494  11.189   9.816   2.510 -1.6769  0.5921  2.3177
  678MOL0     H89495  10.414  10.242   2.679 -2.2994  1.9925  3.4910
  678MOL0     H89496  10.233  10.356   2.795 -1.8276 -0.8749 -1.7544
  679MOL0     O89497  11.224   9.074  10.347  0.0382 -0.4801 -0.4778
  679MOL0     C89498  11.317   9.143  10.324  0.1354 -0.2001 -0.2361
  679MOL0     O89499  11.317   9.278  10.307  0.6649  1.0480 -0.5032
  679MOL0     C89500  11.199   9.354  10.298 -0.8390 -0.4686 -0.5459
  679MOL0     C89501  11.172   9.452  10.386 -0.8540 -0.2588 -0.7750
  679MOL0     C89502  11.056   9.527  10.384  0.2766  0.0364 -0.1239
  679MOL0     C89503  10.957   9.499  10.287  0.1684 -0.6121  0.5872
  679MOL0     O89504  10.835   9.558  10.280  0.8566  0.5720  0.1405
  679MOL0     C89505  10.786   9.622  10.402  0.1459 -0.8126 -0.0128
  679MOL0     C89506  10.636   9.659  10.376  0.3785  0.7606 -0.4717
  679MOL0     C89507  10.564   9.705  10.506 -0.9407 -0.1365  0.1191
  679MOL0     C89508  10.416   9.745  10.469 -0.4197  0.7301  0.2497
  679MOL0     C89509  10.353   9.845  10.565 -0.3364  0.4432 -0.9389
  679MOL0     C89510  10.207   9.877  10.529 -0.0071 -0.5564 -0.7216
  679MOL0     C89511  10.128   9.910  10.657 -0.2703  0.6901 -0.3516
  679MOL0     C89512   9.986   9.950  10.634  0.4816 -0.7457 -0.4732
  679MOL0     N89513   9.911   9.935  10.764 -1.1332  0.0538 -0.3217
  679MOL0     C89514   9.896  10.030  10.859  1.1683  0.5265 -0.7151
  679MOL0     C89515   9.831   9.960  10.956  0.2143 -0.1049  0.1807
  679MOL0     C89516   9.789   9.992  11.092  0.1014 -0.6272 -0.3894
  679MOL0     C89517   9.852   9.898  11.209  0.0414 -0.0046  0.1111
  679MOL0     C89518  10.003   9.931  11.249 -0.3090  0.0936 -1.0056
  679MOL0     C89519  10.107   9.898  11.135 -0.6006  0.1095  0.3870
  679MOL0     O89520  10.239   9.953  11.165  0.1378 -0.6400 -0.1675
  679MOL0     C89521  10.344   9.922  11.074  0.0838  0.4855 -0.3082
  679MOL0     C89522  10.376   9.788  11.053 -0.3343  0.5826  0.1225
  679MOL0     C89523  10.493   9.743  10.990 -1.0060 -0.6326  0.3347
  679MOL0     C89524  10.590   9.840  10.951 -1.3461  0.3421  1.0124
  679MOL0     C89525  10.716   9.796  10.895  0.8416  0.2762 -0.3411
  679MOL0     O89526  10.805   9.889  10.859  0.0428 -0.0322  0.3755
  679MOL0     C89527  10.903   9.861  10.769 -0.3651 -0.0364 -0.2665
  679MOL0     C89528  11.019   9.791  10.808 -0.9627 -0.3822  0.0638
  679MOL0     C89529  11.118   9.757  10.714  0.0119  0.0401  0.9744
  679MOL0     C89530  11.112   9.808  10.578 -0.2031  0.3360  0.0896
  679MOL0     O89531  11.206   9.791  10.480  0.0123 -0.4650 -0.1999
  679MOL0     C89532  11.339   9.820  10.522 -0.3724 -1.3531 -0.1601
  679MOL0     C89533  11.419   9.795  10.390 -0.3405  0.3871 -0.0510
  679MOL0     C89534  11.551   9.870  10.403  0.0484  0.2150 -0.8685
  679MOL0     C89535  11.632   9.851  10.278 -0.4077  1.2353 -0.1507
  679MOL0     C89536  11.751   9.954  10.262 -0.2577  0.4645  0.7763
  679MOL0     C89537  11.866   9.931  10.351 -0.4952  0.4585 -0.7931
  679MOL0     C89538  11.973  10.044  10.341 -0.2740 -0.7994 -1.4839
  679MOL0     C89539  12.028  10.067  10.201  0.6429  0.3206  1.1571
  679MOL0    Cl89540  12.103   9.918  10.143 -0.5349 -0.2224  0.0682
  679MOL0     C89541  11.005   9.894  10.546 -0.1944  0.4910 -0.2844
  679MOL0     C89542  10.902   9.912  10.645 -0.4278 -0.0198  0.1125
  679MOL0     O89543  10.731   9.675  10.876  0.1572 -1.0561 -0.1154
  679MOL0     C89544  10.567   9.975  10.970  0.2515 -0.2257  0.6666
  679MOL0     C89545  10.448  10.012  11.032  0.1879  0.8563 -0.1189
  679MOL0     N89546   9.806   9.832  10.909  0.1409  0.0913  0.0788
  679MOL0     N89547   9.853   9.818  10.792  0.5383  0.1078 -0.3196
  679MOL0     C89548  10.986   9.390  10.200  0.1449 -0.4268  0.4678
  679MOL0     C89549  11.099   9.316  10.210  0.3048  0.4327  0.1993
  679MOL0     C89550  11.457   9.080  10.330 -0.3604 -0.3687 -0.8310
  679MOL0     C89551  11.559   9.120  10.243  0.4631 -0.2455  0.2542
  679MOL0     C89552  11.675   9.058  10.240 -0.9732  0.8373  0.0628
  679MOL0     C89553  11.706   8.955  10.326 -0.2634 -0.0738  0.2444
  679MOL0     O89554  11.831   8.901  10.337  0.1242  0.7500  0.4561
  679MOL0     C89555  11.912   8.882  10.228  0.2044  0.9953  0.5090
  679MOL0     C89556  12.017   8.997  10.223  0.7397 -0.1366 -0.0126
  679MOL0     C89557  12.126   8.964  10.116 -0.0768  0.2978 -0.0501
  679MOL0     C89558  12.187   9.089  10.069 -0.1409 -0.2852  0.5648
  679MOL0     C89559  12.320   9.075  10.003 -0.0893  0.5651  0.3497
  679MOL0     C89560  12.425   9.064   9.948  0.5923  0.3288  0.1249
  679MOL0     C89561  11.607   8.911  10.416 -0.3770  0.9084 -0.6856
  679MOL0     C89562  11.483   8.975  10.424 -0.2698 -1.0809  0.2863
  679MOL0     H89563  11.249   9.469  10.460 -2.4618  2.1235  0.4896
  679MOL0     H89564  11.027   9.602  10.456  1.2262  0.6410 -0.3477
  679MOL0     H89565  10.843   9.716  10.402  0.0739 -0.7657 -0.3155
  679MOL0     H89566  10.803   9.552  10.484 -1.0170  1.1532  2.0014
  679MOL0     H89567  10.586   9.572  10.332  0.8198  0.3779 -0.2153
  679MOL0     H89568  10.637   9.739  10.301  0.9258 -1.1109 -2.5652
  679MOL0     H89569  10.624   9.785  10.550 -0.0598 -0.9231  0.3730
  679MOL0     H89570  10.559   9.620  10.575 -3.2775 -0.3540 -0.2150
  679MOL0     H89571  10.405   9.783  10.367 -3.1821  4.1889  1.6283
  679MOL0     H89572  10.357   9.652  10.471  0.9057 -0.1561 -0.6014
  679MOL0     H89573  10.406   9.940  10.575 -2.7066  1.8455 -0.9870
  679MOL0     H89574  10.355   9.803  10.666  2.0927  2.1244 -0.2060
  679MOL0     H89575  10.157   9.792  10.481  0.7866 -1.2594 -0.3412
  679MOL0     H89576  10.200   9.956  10.454 -0.8542 -2.1243 -2.3898
  679MOL0     H89577  10.131   9.821  10.720  0.0529 -0.8552 -2.4492
  679MOL0     H89578  10.176   9.996  10.706  1.5996 -0.0029 -0.8864
  679MOL0     H89579   9.949   9.869  10.570  0.5801 -0.4968 -0.8408
  679MOL0     H89580   9.976  10.049  10.590 -2.3430 -0.6658  0.1332
  679MOL0     H89581   9.918  10.135  10.875  1.2078  0.1832  1.8622
  679MOL0     H89582   9.683   9.965  11.090  0.7865 -4.5346  2.8546
  679MOL0     H89583   9.802  10.097  11.118 -1.1472 -0.2089 -1.3581
  679MOL0     H89584   9.827   9.796  11.179 -2.4401 -0.1238  2.2255
  679MOL0     H89585   9.793   9.906  11.301  2.2367  0.1405  1.5837
  679MOL0     H89586  10.023  10.035  11.277  1.4778 -0.8103  1.4053
  679MOL0     H89587  10.024   9.866  11.335 -1.3997 -1.5605 -1.9261
  679MOL0     H89588  10.057   9.929  11.043  0.6829  2.8086  0.5045
  679MOL0     H89589  10.111   9.789  11.134 -1.4104 -0.0441  3.6500
  679MOL0     H89590  10.314   9.708  11.093  0.4980 -0.5119 -0.7266
  679MOL0     H89591  10.504   9.638  10.967 -1.2757 -0.6130  0.0962
  679MOL0     H89592  11.027   9.770  10.914 -0.4167 -0.7657 -0.0501
  679MOL0     H89593  11.205   9.698  10.739  1.4668  2.5040  2.1060
  679MOL0     H89594  11.377   9.756  10.601 -0.8116  1.2420  2.3069
  679MOL0     H89595  11.342   9.926  10.550  0.6844 -1.3575 -0.2211
  679MOL0     H89596  11.367   9.831  10.301 -3.0398  1.4974  1.8278
  679MOL0     H89597  11.436   9.689  10.372 -2.6207  0.1669 -1.2673
  679MOL0     H89598  11.600   9.828  10.491 -1.9608  1.7588  1.1081
  679MOL0     H89599  11.538   9.976  10.425 -0.4003  0.1894 -0.9921
  679MOL0     H89600  11.674   9.750  10.280  2.5503  2.3300  2.4235
  679MOL0     H89601  11.576   9.869  10.186  2.9211  1.3669 -2.2897
  679MOL0     H89602  11.700  10.049  10.280  0.1541  0.5829  1.3545
  679MOL0     H89603  11.800   9.950  10.164  0.9221  1.1618  1.3177
  679MOL0     H89604  11.921   9.837  10.339 -0.2665  0.1738  1.9488
  679MOL0     H89605  11.825   9.935  10.452 -0.5055 -0.3718 -0.7566
  679MOL0     H89606  11.942  10.144  10.375  1.8580 -0.6476  0.2032
  679MOL0     H89607  12.054  10.019  10.409  0.2450  2.3230 -0.8049
  679MOL0     H89608  12.105  10.144  10.212  0.8618  0.0501  1.5456
  679MOL0     H89609  11.951  10.107  10.134  0.9342  0.0407  0.6509
  679MOL0     H89610  10.995   9.936  10.447 -0.1996  2.7277  0.6029
  679MOL0     H89611  10.809   9.966  10.630  0.0297  0.8417  0.2437
  679MOL0     H89612  10.639  10.046  10.932  2.0734 -1.9463  0.7355
  679MOL0     H89613  10.434  10.113  11.068  1.0333  0.2363  2.1039
  679MOL0     H89614  10.911   9.348  10.134 -0.8260 -2.2590  2.6093
  679MOL0     H89615  11.116   9.233  10.142 -0.4316  0.9852 -0.6896
  679MOL0     H89616  11.534   9.199  10.174 -0.9674 -0.4317  0.5176
  679MOL0     H89617  11.746   9.098  10.170 -1.4660  0.2893 -0.7695
  679MOL0     H89618  11.864   8.857  10.133  2.1553 -3.3031  0.4195
  679MOL0     H89619  11.971   8.792  10.247  0.8025  0.8840 -1.6096
  679MOL0     H89620  11.963   9.082  10.181 -0.4822  0.9147  3.3336
  679MOL0     H89621  12.061   9.039  10.314 -1.4143 -0.3411  1.1806
  679MOL0     H89622  12.083   8.908  10.032  1.9462  0.4380 -1.2565
  679MOL0     H89623  12.202   8.904  10.166  1.9070  2.5181 -0.2403
  679MOL0     H89624  12.117   9.122   9.991  0.1950 -2.3108 -0.6744
  679MOL0     H89625  12.204   9.158  10.152 -2.7497  1.2787 -0.0754
  679MOL0     H89626  12.516   9.032   9.902  1.8737 -0.5242  2.9879
  679MOL0     H89627  11.623   8.828  10.484  2.0359  0.9360 -1.1399
  679MOL0     H89628  11.403   8.945  10.491 -0.9175  1.4202  0.7404
  680MOL0     O89629   0.976   7.630   1.054  0.7397 -0.4266  0.1082
  680MOL0     C89630   1.025   7.596   0.949  0.3045  0.8152  0.1113
  680MOL0     O89631   1.083   7.678   0.855  0.1606  0.5091  0.3881
  680MOL0     C89632   1.124   7.806   0.875 -0.3200 -0.2302 -0.9577
  680MOL0     C89633   1.090   7.898   0.776 -0.3113  0.1731  0.0379
  680MOL0     C89634   1.145   8.029   0.787 -0.0225  0.1521 -0.0043
  680MOL0     C89635   1.206   8.068   0.899 -0.4514  0.1057 -0.2333
  680MOL0     O89636   1.241   8.197   0.928  0.3837 -0.5888 -0.4462
  680MOL0     C89637   1.135   8.290   0.923 -0.4131 -0.0985 -0.6075
  680MOL0     C89638   1.158   8.405   1.032  0.5636  0.7982 -0.4991
  680MOL0     C89639   1.161   8.338   1.174  0.5806  0.5816 -0.1946
  680MOL0     C89640   1.185   8.447   1.276 -0.0475 -0.3321 -0.5179
  680MOL0     C89641   1.168   8.395   1.419 -0.5086  0.0671 -0.0127
  680MOL0     C89642   1.186   8.503   1.527  0.1745 -0.7036 -0.3007
  680MOL0     C89643   1.327   8.557   1.536 -0.2756 -0.0497 -0.3420
  680MOL0     C89644   1.418   8.463   1.613 -0.9644 -0.1343  0.0379
  680MOL0     N89645   1.534   8.531   1.666 -0.1000  0.6533  0.2539
  680MOL0     C89646   1.660   8.473   1.668 -0.6107 -0.0045 -1.0071
  680MOL0     C89647   1.734   8.542   1.760  0.6296 -0.3630 -0.2855
  680MOL0     C89648   1.877   8.527   1.802 -0.5917  0.0048 -0.4924
  680MOL0     C89649   1.963   8.420   1.735  0.5325 -0.5813  0.2619
  680MOL0     C89650   2.013   8.468   1.596 -0.6645 -0.0185  1.0127
  680MOL0     C89651   2.062   8.349   1.502  0.9872 -0.6413  0.2647
  680MOL0     O89652   1.992   8.223   1.526 -1.1285  0.5388  0.4237
  680MOL0     C89653   2.020   8.113   1.442  0.4753  0.4673 -0.5379
  680MOL0     C89654   1.945   7.997   1.458 -0.8441  0.2318  0.2358
  680MOL0     C89655   1.957   7.888   1.368 -0.0125  0.2918  0.0365
  680MOL0     C89656   2.048   7.897   1.262  0.0965  0.7675  0.8110
  680MOL0     C89657   2.070   7.781   1.169 -0.1251  0.0032 -0.0570
  680MOL0     O89658   2.142   7.792   1.052 -0.3005  0.6812 -0.1466
  680MOL0     C89659   2.155   7.674   0.977  0.2951 -0.1795 -0.9854
  680MOL0     C89660   2.043   7.611   0.929 -0.0501  0.8460 -0.4887
  680MOL0     C89661   2.065   7.516   0.838 -0.5718  0.6635  1.6167
  680MOL0     C89662   2.192   7.485   0.786 -1.0315  0.4334  0.2960
  680MOL0     O89663   2.200   7.390   0.683 -0.5823  0.4913  0.1362
  680MOL0     C89664   2.333   7.329   0.657 -0.2234 -0.5744 -0.6643
  680MOL0     C89665   2.323   7.240   0.538 -0.2153 -0.4108  0.6219
  680MOL0     C89666   2.257   7.104   0.573  0.0289  0.4896 -0.4061
  680MOL0     C89667   2.259   7.009   0.450 -0.1734  0.2431  0.0996
  680MOL0     C89668   2.201   6.873   0.480  0.8616  0.3649  0.6664
  680MOL0     C89669   2.257   6.757   0.387  0.3397 -0.4365  0.7284
  680MOL0     C89670   2.192   6.622   0.413 -0.0259 -0.7058  0.7537
  680MOL0     C89671   2.236   6.514   0.312 -0.9237  0.2604 -1.6385
  680MOL0    Cl89672   2.219   6.548   0.149 -0.1196 -0.0387  0.4450
  680MOL0     C89673   2.302   7.549   0.835 -0.0978 -0.0366  0.5718
  680MOL0     C89674   2.283   7.650   0.927 -0.2020  0.1738  0.0470
  680MOL0     O89675   2.029   7.680   1.216 -0.2048  0.4607  0.5249
  680MOL0     C89676   2.124   8.016   1.243 -0.9250 -0.0478  0.7424
  680MOL0     C89677   2.103   8.124   1.327  0.1884  0.0453  0.8303
  680MOL0     N89678   1.654   8.635   1.827  0.0133  0.3238  0.2943
  680MOL0     N89679   1.542   8.629   1.766 -0.8467  0.2827  0.3441
  680MOL0     C89680   1.250   7.973   0.995  0.5436  0.2814  0.1284
  680MOL0     C89681   1.200   7.842   0.982  0.0042  1.7800 -0.2862
  680MOL0     C89682   1.010   7.446   0.926  0.2859  0.1358 -0.9306
  680MOL0     C89683   0.902   7.374   0.989 -0.6467 -0.3499 -0.0135
  680MOL0     C89684   0.873   7.242   0.949  0.0015  0.6281 -0.5106
  680MOL0     C89685   0.946   7.178   0.843 -0.2932  0.0591 -0.5637
  680MOL0     O89686   0.912   7.048   0.819 -0.1042 -0.2467  0.9582
  680MOL0     C89687   0.997   6.970   0.729 -0.1972 -0.0706 -0.0881
  680MOL0     C89688   0.918   6.847   0.678  0.1127 -0.3077  1.0884
  680MOL0     C89689   0.994   6.773   0.568 -0.6593  0.1046  0.2376
  680MOL0     C89690   0.936   6.639   0.521  0.0455 -0.3635  0.2116
  680MOL0     C89691   0.798   6.663   0.485  0.0894 -0.1711 -0.2919
  680MOL0     C89692   0.692   6.689   0.429  0.1700  0.6521 -0.3357
  680MOL0     C89693   1.071   7.240   0.798 -0.5535 -0.5415 -0.3514
  680MOL0     C89694   1.098   7.367   0.842 -0.1154 -1.2538  0.3291
  680MOL0     H89695   1.045   7.869   0.682 -2.7270 -0.3905  1.2786
  680MOL0     H89696   1.127   8.094   0.702  2.4618  1.3806  0.3166
  680MOL0     H89697   1.040   8.237   0.931  1.2949 -3.2982  0.6916
  680MOL0     H89698   1.139   8.335   0.823 -0.4676  1.5887  0.1331
  680MOL0     H89699   1.080   8.479   1.014 -0.6230 -0.2347  0.2164
  680MOL0     H89700   1.254   8.452   1.008  1.9201 -1.0683  0.9592
  680MOL0     H89701   1.247   8.270   1.175  0.2397  0.1317 -0.5974
  680MOL0     H89702   1.072   8.281   1.202 -0.6616  2.4505 -0.1489
  680MOL0     H89703   1.292   8.466   1.262  0.6756 -2.6964  1.1509
  680MOL0     H89704   1.130   8.539   1.252  1.5964  0.8461 -0.0015
  680MOL0     H89705   1.234   8.308   1.433 -1.1205 -0.3731  0.2100
  680MOL0     H89706   1.072   8.343   1.428 -0.0558 -1.0016 -1.0398
  680MOL0     H89707   1.173   8.450   1.622  1.0754  1.9533  1.4182
  680MOL0     H89708   1.120   8.590   1.519  2.3294  1.2854  1.6449
  680MOL0     H89709   1.364   8.597   1.441  0.1125  3.6362  1.1774
  680MOL0     H89710   1.337   8.655   1.584  0.7534 -1.5267  2.7121
  680MOL0     H89711   1.458   8.384   1.548  1.5412 -0.8758  2.2896
  680MOL0     H89712   1.357   8.418   1.692 -0.5455 -1.4931 -0.3777
  680MOL0     H89713   1.707   8.409   1.594  0.4008 -0.3790 -0.0735
  680MOL0     H89714   1.873   8.509   1.909  0.0889 -0.6513 -0.5721
  680MOL0     H89715   1.922   8.624   1.779 -0.6935  0.1576 -0.0538
  680MOL0     H89716   1.890   8.339   1.725 -2.9972  2.0778  2.3499
  680MOL0     H89717   2.038   8.374   1.801  3.6148 -0.0832 -2.6124
  680MOL0     H89718   1.936   8.528   1.548  0.8712  0.7239 -0.6383
  680MOL0     H89719   2.101   8.533   1.608  1.7852 -2.8628 -0.3439
  680MOL0     H89720   2.168   8.332   1.524  0.6527 -2.2915  0.7648
  680MOL0     H89721   2.050   8.367   1.394 -0.8322  0.4636  0.6132
  680MOL0     H89722   1.873   7.973   1.536  1.7145  1.8628  3.3456
  680MOL0     H89723   1.887   7.806   1.377  3.2504 -2.5402  2.5723
  680MOL0     H89724   1.942   7.623   0.968  0.0593 -0.2720  0.1707
  680MOL0     H89725   1.981   7.475   0.782  1.1107  0.1452 -0.6848
  680MOL0     H89726   2.362   7.269   0.744 -0.4795 -1.4314 -1.1623
  680MOL0     H89727   2.405   7.408   0.630 -1.9217  1.0643 -0.6105
  680MOL0     H89728   2.424   7.228   0.499 -0.8827  1.5628 -1.9595
  680MOL0     H89729   2.265   7.301   0.468 -1.4343 -1.5480  0.6122
  680MOL0     H89730   2.157   7.123   0.613  1.3633 -0.6696  4.0950
  680MOL0     H89731   2.309   7.042   0.646 -2.1612 -1.7369 -0.6155
  680MOL0     H89732   2.219   7.068   0.367 -1.4120  1.0072  1.1978
  680MOL0     H89733   2.366   6.997   0.429  0.3843  2.7373  1.0852
  680MOL0     H89734   2.092   6.876   0.476  0.8132  0.4776  1.6151
  680MOL0     H89735   2.226   6.849   0.584  2.0868 -1.3960  0.0118
  680MOL0     H89736   2.366   6.751   0.398  0.9385  3.5223 -1.1559
  680MOL0     H89737   2.242   6.792   0.285  1.8330  2.1750  1.2947
  680MOL0     H89738   2.229   6.599   0.513  0.6233  0.8640  0.9036
  680MOL0     H89739   2.083   6.629   0.411  0.0019  0.1634 -1.9063
  680MOL0     H89740   2.184   6.421   0.338 -1.1258  0.6197 -0.7085
  680MOL0     H89741   2.344   6.502   0.324 -1.0916  0.8493  1.0840
  680MOL0     H89742   2.400   7.521   0.799  1.1441  0.8051  3.0138
  680MOL0     H89743   2.358   7.711   0.976 -1.6213  1.2530  0.9712
  680MOL0     H89744   2.192   8.012   1.159 -1.7594  1.0684 -0.0185
  680MOL0     H89745   2.155   8.214   1.297  0.9721 -0.8107 -0.4677
  680MOL0     H89746   1.304   8.014   1.080 -0.0937 -0.1591  0.7578
  680MOL0     H89747   1.208   7.765   1.058  1.4055  2.3083  0.1372
  680MOL0     H89748   0.835   7.424   1.059 -1.9976 -1.5041 -0.4346
  680MOL0     H89749   0.791   7.186   0.993  2.1190 -3.4375 -1.3274
  680MOL0     H89750   1.082   6.936   0.788 -0.6633 -1.4812 -0.1935
  680MOL0     H89751   1.015   7.028   0.638 -0.8667  1.4829  0.7191
  680MOL0     H89752   0.895   6.774   0.756 -0.5582 -0.7247  0.5157
  680MOL0     H89753   0.823   6.884   0.639  0.9395 -0.8936 -1.7174
  680MOL0     H89754   1.100   6.760   0.595 -0.2515 -0.9547 -1.6817
  680MOL0     H89755   1.001   6.838   0.480  2.3175 -1.1471 -0.5836
  680MOL0     H89756   0.982   6.605   0.428  0.9167  1.0148  0.1135
  680MOL0     H89757   0.944   6.567   0.603  0.9762 -2.2448 -1.4367
  680MOL0     H89758   0.594   6.687   0.386 -0.6014 -2.2622  1.2581
  680MOL0     H89759   1.139   7.194   0.727 -2.4934 -3.5515 -0.4791
  680MOL0     H89760   1.195   7.413   0.826  0.9386 -3.2726  0.5920
  681MOL0     O89761   6.398   3.766   3.923  0.0479 -0.1914 -0.0387
  681MOL0     C89762   6.395   3.751   3.801 -0.5924  0.2834 -0.6682
  681MOL0     O89763   6.285   3.775   3.718  0.3205  1.1916 -0.1193
  681MOL0     C89764   6.172   3.830   3.772 -0.4237  0.2769 -0.2241
  681MOL0     C89765   6.055   3.758   3.768 -0.0258 -0.1155  1.0879
  681MOL0     C89766   5.940   3.816   3.822  0.7356 -0.6591  0.7552
  681MOL0     C89767   5.942   3.947   3.888  0.9388  0.4428  1.1754
  681MOL0     O89768   5.819   3.993   3.931  0.7243 -0.7079  0.4192
  681MOL0     C89769   5.808   4.130   3.964  1.1877 -0.6509  0.0998
  681MOL0     C89770   5.662   4.163   3.965 -0.5123 -0.7351 -0.6994
  681MOL0     C89771   5.563   4.059   4.039 -0.8755 -0.4802  0.3602
  681MOL0     C89772   5.432   4.125   4.072  0.4881  0.7043 -0.4786
  681MOL0     C89773   5.344   4.017   4.146  0.6654  0.1399 -0.0138
  681MOL0     C89774   5.208   4.063   4.208 -0.6585 -0.3360 -0.0819
  681MOL0     C89775   5.170   3.945   4.302  0.2906 -0.8140  0.8521
  681MOL0     C89776   5.063   3.987   4.402  0.0621  0.2358 -0.3853
  681MOL0     N89777   5.034   3.880   4.497  0.3571  0.0216 -0.1996
  681MOL0     C89778   5.111   3.847   4.609  1.0407 -0.1964 -0.5697
  681MOL0     C89779   5.022   3.771   4.676 -1.2571 -0.4042  0.1288
  681MOL0     C89780   5.037   3.710   4.821  0.1716  0.0833  0.1179
  681MOL0     C89781   5.075   3.807   4.939  0.4250 -0.0532 -0.3255
  681MOL0     C89782   4.993   3.932   4.936  0.4980 -0.5920  0.5428
  681MOL0     C89783   5.031   4.035   5.040 -0.1087  0.0559  0.5200
  681MOL0     O89784   5.179   4.064   5.026 -0.1447  0.0651  0.4786
  681MOL0     C89785   5.227   4.108   4.906  0.0962  0.2888  0.9468
  681MOL0     C89786   5.145   4.187   4.815  0.6065  0.5321  0.3879
  681MOL0     C89787   5.194   4.227   4.690  0.7069 -0.6182 -0.5964
  681MOL0     C89788   5.331   4.209   4.658  0.1763  0.5919 -0.6687
  681MOL0     C89789   5.399   4.280   4.548  0.4493  0.7841 -0.2970
  681MOL0     O89790   5.533   4.256   4.529 -0.3929 -0.1891 -0.1056
  681MOL0     C89791   5.614   4.343   4.452  0.2270  0.6163  0.1290
  681MOL0     C89792   5.743   4.300   4.416  0.6712  0.6501  0.2420
  681MOL0     C89793   5.830   4.376   4.341 -0.3900 -0.7611 -0.1756
  681MOL0     C89794   5.797   4.504   4.297 -0.2417 -0.1189  1.3601
  681MOL0     O89795   5.875   4.591   4.226  0.0971  0.8471 -0.1945
  681MOL0     C89796   5.962   4.542   4.128  0.7640 -0.8383  0.0159
  681MOL0     C89797   5.998   4.662   4.037  0.8458  1.4377  0.5147
  681MOL0     C89798   6.120   4.742   4.086 -0.0714  0.3307  0.1688
  681MOL0     C89799   6.111   4.883   4.035 -0.7224 -0.7032  0.8949
  681MOL0     C89800   6.240   4.968   4.052  1.1479  0.3601  0.6299
  681MOL0     C89801   6.290   4.967   4.194  0.2855  0.6629 -0.1925
  681MOL0     C89802   6.413   5.052   4.206  0.7805 -0.8857  1.2750
  681MOL0     C89803   6.447   5.102   4.342  0.4098  0.3788 -0.3706
  681MOL0    Cl89804   6.516   4.991   4.463 -0.2739 -0.0958 -0.2460
  681MOL0     C89805   5.665   4.552   4.327 -0.3527 -0.1045  0.1372
  681MOL0     C89806   5.584   4.473   4.407  0.5298  0.9078 -0.2327
  681MOL0     O89807   5.322   4.350   4.484 -0.1236 -0.5980  0.2416
  681MOL0     C89808   5.408   4.124   4.741  0.2589 -0.8133 -0.2868
  681MOL0     C89809   5.354   4.073   4.863  0.2192  0.0838  1.1572
  681MOL0     N89810   4.903   3.757   4.610 -0.8309 -0.1683 -0.1937
  681MOL0     N89811   4.908   3.824   4.498 -0.0899  0.7474  0.2939
  681MOL0     C89812   6.060   4.017   3.881  0.6450  0.0696 -0.0164
  681MOL0     C89813   6.168   3.961   3.827 -0.3911 -0.2249  0.3113
  681MOL0     C89814   6.521   3.706   3.729 -0.7206 -0.1709  0.9431
  681MOL0     C89815   6.529   3.710   3.589 -0.4545  0.3007 -0.3266
  681MOL0     C89816   6.648   3.671   3.532  0.1044  0.4276  0.0497
  681MOL0     C89817   6.758   3.623   3.611 -0.6236  0.1818 -0.5903
  681MOL0     O89818   6.875   3.579   3.563 -0.2494  0.2198 -0.6809
  681MOL0     C89819   6.916   3.624   3.434  0.6548 -0.1669 -0.1848
  681MOL0     C89820   7.063   3.599   3.410  0.2383 -0.7854 -0.6654
  681MOL0     C89821   7.120   3.640   3.281  1.1407 -0.0310  0.8489
  681MOL0     C89822   7.263   3.592   3.242 -0.8190  0.8909 -0.1070
  681MOL0     C89823   7.311   3.635   3.114 -0.6404 -0.0680 -0.1888
  681MOL0     C89824   7.372   3.664   3.019  0.1780 -0.3833  0.2265
  681MOL0     C89825   6.742   3.618   3.751  0.3423 -0.7263 -0.9681
  681MOL0     C89826   6.628   3.657   3.809  0.6525  0.0283 -0.0904
  681MOL0     H89827   6.041   3.658   3.729  1.0075  0.4263 -0.7565
  681MOL0     H89828   5.843   3.767   3.828  1.3892 -1.7891  3.8881
  681MOL0     H89829   5.853   4.189   3.885 -2.4968  0.6760 -1.2470
  681MOL0     H89830   5.851   4.147   4.063 -0.1728  0.6996  0.5063
  681MOL0     H89831   5.634   4.175   3.860  0.6859  0.8837 -0.8701
  681MOL0     H89832   5.659   4.262   4.010  0.4591 -2.0699  2.6263
  681MOL0     H89833   5.620   4.020   4.124 -1.8657  0.8736  1.6918
  681MOL0     H89834   5.559   3.975   3.970  0.5461 -0.8367  0.6633
  681MOL0     H89835   5.442   4.212   4.138 -1.2399  1.0492 -0.6260
  681MOL0     H89836   5.381   4.152   3.979  1.6322  1.0261 -1.0261
  681MOL0     H89837   5.405   3.973   4.226  2.5509  0.5569 -1.1554
  681MOL0     H89838   5.318   3.936   4.077  1.7968 -0.3538  0.1103
  681MOL0     H89839   5.134   4.072   4.128  0.3375 -1.0799 -1.1123
  681MOL0     H89840   5.236   4.156   4.259  0.5683 -1.2138  0.9341
  681MOL0     H89841   5.133   3.857   4.250  0.3057 -0.8849  0.9591
  681MOL0     H89842   5.252   3.898   4.357 -1.0947 -3.8254  0.5198
  681MOL0     H89843   4.968   4.014   4.356 -0.7057  0.7328  1.3944
  681MOL0     H89844   5.102   4.075   4.454 -2.2208  1.0570  0.0768
  681MOL0     H89845   5.209   3.884   4.639  0.1032  0.7712  1.5533
  681MOL0     H89846   5.116   3.635   4.818  0.6184  0.5230  0.6489
  681MOL0     H89847   4.938   3.673   4.845  1.1650 -2.2452  0.8983
  681MOL0     H89848   5.181   3.832   4.936  0.2230  0.8643 -0.1662
  681MOL0     H89849   5.058   3.763   5.037  1.8731 -2.0010 -0.8871
  681MOL0     H89850   4.998   3.974   4.836 -1.6327  0.4103  0.7919
  681MOL0     H89851   4.889   3.902   4.956 -1.5962  4.5525 -0.8984
  681MOL0     H89852   5.021   4.006   5.145  2.9570  0.9215  1.1552
  681MOL0     H89853   4.980   4.132   5.034  0.1243  0.0821 -2.4495
  681MOL0     H89854   5.042   4.215   4.835  0.4822 -1.1469  2.4986
  681MOL0     H89855   5.122   4.287   4.635 -0.7573  0.6155  2.3792
  681MOL0     H89856   5.771   4.200   4.448 -1.5220  0.2307  1.0284
  681MOL0     H89857   5.930   4.339   4.318  1.3977  2.2892  1.9066
  681MOL0     H89858   5.910   4.459   4.079  0.8232 -1.4607  0.9797
  681MOL0     H89859   6.059   4.500   4.156  0.5973 -2.3385 -1.5386
  681MOL0     H89860   5.909   4.726   4.029 -0.2067 -0.2191 -2.7407
  681MOL0     H89861   6.012   4.628   3.934  1.9226 -1.3554  1.5038
  681MOL0     H89862   6.218   4.695   4.068 -0.0655 -0.2821  1.5945
  681MOL0     H89863   6.111   4.743   4.195  0.9225 -1.5844  0.3197
  681MOL0     H89864   6.092   4.891   3.928 -0.7316 -0.3255  0.9249
  681MOL0     H89865   6.035   4.936   4.092  0.6573 -3.4280  5.8278
  681MOL0     H89866   6.216   5.068   4.015  1.4209  0.0839 -0.3124
  681MOL0     H89867   6.322   4.933   3.988  0.1446 -0.8140 -0.0572
  681MOL0     H89868   6.310   4.865   4.229  0.0450  0.6034 -0.2236
  681MOL0     H89869   6.208   5.008   4.254  0.6904  0.2975  0.6202
  681MOL0     H89870   6.502   5.000   4.171  2.5990  3.4469 -1.4822
  681MOL0     H89871   6.396   5.133   4.135  3.3222 -3.2924 -2.4378
  681MOL0     H89872   6.357   5.143   4.388  0.0765  0.1070 -0.7726
  681MOL0     H89873   6.520   5.182   4.329  0.3655 -0.0013 -3.8738
  681MOL0     H89874   5.636   4.653   4.301  0.0641  0.1088  0.4944
  681MOL0     H89875   5.496   4.524   4.445  0.4658  0.5086  0.1801
  681MOL0     H89876   5.511   4.103   4.715  0.2358  1.1298 -2.2701
  681MOL0     H89877   5.413   4.016   4.934  1.0070  1.6657  1.7955
  681MOL0     H89878   6.058   4.122   3.906 -1.2987  0.1592 -0.3595
  681MOL0     H89879   6.255   4.026   3.816  1.0427 -2.2005 -0.8580
  681MOL0     H89880   6.461   3.754   3.516  1.6605 -2.7578 -4.5855
  681MOL0     H89881   6.655   3.703   3.429 -3.0979  1.7747  0.1318
  681MOL0     H89882   6.911   3.730   3.407 -0.2636  0.4359  2.1462
  681MOL0     H89883   6.854   3.579   3.356  0.8705  2.4004 -1.9388
  681MOL0     H89884   7.119   3.642   3.493  2.3706 -0.9666 -1.9446
  681MOL0     H89885   7.077   3.491   3.404  0.3143 -0.7110 -2.2947
  681MOL0     H89886   7.127   3.749   3.276  0.1155  0.0148  0.2386
  681MOL0     H89887   7.058   3.601   3.200  1.4067 -1.1967  1.1893
  681MOL0     H89888   7.328   3.624   3.323 -3.8840  1.4231  2.3439
  681MOL0     H89889   7.257   3.483   3.246  1.2790  0.7745  1.5135
  681MOL0     H89890   7.434   3.694   2.937 -0.7686  0.1604 -0.3020
  681MOL0     H89891   6.816   3.569   3.814 -0.2701  0.6836  0.9690
  681MOL0     H89892   6.630   3.643   3.917  0.9240  0.6600 -0.0063
  682MOL0     O89893   7.951   7.727   4.049 -0.4650  0.0471  0.1367
  682MOL0     C89894   7.976   7.816   3.970 -0.0305 -0.2956  0.6612
  682MOL0     O89895   7.880   7.910   3.928 -1.0437  0.4363 -0.3921
  682MOL0     C89896   7.772   7.931   4.013 -0.3303  0.1405  0.0696
  682MOL0     C89897   7.662   7.843   4.024 -0.6758 -0.5309  0.3117
  682MOL0     C89898   7.556   7.874   4.113 -0.6141 -0.3802 -0.0932
  682MOL0     C89899   7.563   7.989   4.198 -0.6996 -0.7615  0.8711
  682MOL0     O89900   7.452   8.001   4.279  0.5818 -0.1482 -0.5098
  682MOL0     C89901   7.379   8.123   4.286 -0.5339 -0.1857  0.4367
  682MOL0     C89902   7.247   8.070   4.336 -0.3779  0.0109  0.1629
  682MOL0     C89903   7.177   8.035   4.209  0.4165 -0.2599 -0.0475
  682MOL0     C89904   7.029   8.004   4.238  0.1401  0.3559 -0.0431
  682MOL0     C89905   6.939   8.002   4.106 -0.0966  0.3935 -0.1916
  682MOL0     C89906   6.963   7.884   4.005  0.7668 -0.6731 -0.1277
  682MOL0     C89907   6.948   7.746   4.059 -0.0571 -0.0717  0.4548
  682MOL0     C89908   6.966   7.641   3.956  0.7560  0.5690  0.6950
  682MOL0     N89909   7.099   7.642   3.890 -0.5365 -0.0414  0.4104
  682MOL0     C89910   7.111   7.658   3.752 -0.2165  0.2852  0.0643
  682MOL0     C89911   7.238   7.688   3.741  0.0216  0.1124 -0.0779
  682MOL0     C89912   7.314   7.737   3.622  0.0344  0.2181  0.0490
  682MOL0     C89913   7.309   7.645   3.500 -0.1081 -0.7945  0.2587
  682MOL0     C89914   7.374   7.508   3.529  0.2223 -0.4523  0.4361
  682MOL0     C89915   7.520   7.514   3.521 -0.3310  0.7122  0.5091
  682MOL0     O89916   7.604   7.592   3.614 -0.1842 -0.5884  0.5726
  682MOL0     C89917   7.735   7.600   3.575  0.2571  0.4904  0.5656
  682MOL0     C89918   7.804   7.523   3.474 -0.3424  1.7426 -1.3014
  682MOL0     C89919   7.940   7.550   3.444  0.0669 -1.3264 -0.2194
  682MOL0     C89920   8.004   7.657   3.507 -0.3068  0.3578  0.3140
  682MOL0     C89921   8.152   7.673   3.474  0.7757 -0.1911  0.8941
  682MOL0     O89922   8.225   7.569   3.406  0.0928 -0.8059 -0.2693
  682MOL0     C89923   8.367   7.575   3.394  0.6264  0.2011 -0.3184
  682MOL0     C89924   8.412   7.522   3.278  0.5742 -0.3223  0.4948
  682MOL0     C89925   8.548   7.525   3.243  0.9573  0.4549  0.4608
  682MOL0     C89926   8.635   7.576   3.335 -0.1801 -1.5811  0.6164
  682MOL0     O89927   8.767   7.585   3.291  0.4836 -0.4247  0.5411
  682MOL0     C89928   8.872   7.612   3.385 -0.8651  0.3236  0.3594
  682MOL0     C89929   8.917   7.497   3.474 -0.2118  0.2387  0.1551
  682MOL0     C89930   9.042   7.419   3.450 -0.4195  0.0681 -0.6922
  682MOL0     C89931   9.167   7.509   3.423 -0.2711 -0.2750 -0.7899
  682MOL0     C89932   9.283   7.406   3.403  0.1456 -0.3820 -0.9344
  682MOL0     C89933   9.418   7.477   3.373 -0.5073  0.0125 -0.2077
  682MOL0     C89934   9.539   7.379   3.353  1.6136 -0.3927  0.4813
  682MOL0     C89935   9.532   7.252   3.431 -0.5802  0.5944 -0.6856
  682MOL0    Cl89936   9.539   7.294   3.609 -0.2653 -0.2801 -0.1579
  682MOL0     C89937   8.593   7.634   3.459 -0.0531  0.0066  0.4215
  682MOL0     C89938   8.461   7.627   3.486 -0.1376 -1.2780  0.0497
  682MOL0     O89939   8.192   7.778   3.506  0.1501 -0.5265 -0.5040
  682MOL0     C89940   7.940   7.727   3.601  0.1260  0.3541 -0.8458
  682MOL0     C89941   7.809   7.703   3.629  0.4474  0.5139 -0.1622
  682MOL0     N89942   7.302   7.697   3.860 -0.5861 -0.1202  0.3708
  682MOL0     N89943   7.218   7.671   3.955 -0.1227 -0.2454 -1.0317
  682MOL0     C89944   7.669   8.082   4.177  0.6178  0.2763 -0.3382
  682MOL0     C89945   7.773   8.054   4.081 -0.3114  0.2188 -0.4716
  682MOL0     C89946   8.116   7.825   3.909 -0.8926 -0.4552 -0.3400
  682MOL0     C89947   8.204   7.712   3.914  0.4399 -0.3710 -0.3145
  682MOL0     C89948   8.333   7.721   3.862  0.2772  0.3304 -0.3947
  682MOL0     C89949   8.378   7.838   3.804  0.3438 -0.6582  0.1483
  682MOL0     O89950   8.495   7.853   3.731  0.2246 -0.0126 -0.2207
  682MOL0     C89951   8.616   7.875   3.806 -0.5325 -0.2934  0.0520
  682MOL0     C89952   8.707   7.943   3.708  0.7837 -0.8245  0.0435
  682MOL0     C89953   8.832   8.003   3.778  0.5659  0.5097 -0.4649
  682MOL0     C89954   8.924   7.882   3.810 -0.3124 -1.1086  0.9007
  682MOL0     C89955   9.004   7.834   3.695  0.8226  0.0828  0.2715
  682MOL0     C89956   9.076   7.804   3.600 -0.4274 -0.2054  0.7263
  682MOL0     C89957   8.295   7.957   3.793  0.0221 -0.1624  0.5116
  682MOL0     C89958   8.168   7.946   3.844 -0.1450  0.3496 -0.0785
  682MOL0     H89959   7.648   7.754   3.963 -3.2788  0.8691 -1.2985
  682MOL0     H89960   7.470   7.809   4.105  0.2294 -1.9068  2.1704
  682MOL0     H89961   7.368   8.172   4.189  2.7207  1.6691  0.8789
  682MOL0     H89962   7.430   8.191   4.355  1.1057 -0.6396 -0.2943
  682MOL0     H89963   7.188   8.136   4.400 -1.4114  0.8154 -1.5482
  682MOL0     H89964   7.264   7.976   4.390 -1.4268 -0.4388 -0.2609
  682MOL0     H89965   7.235   7.954   4.164  2.1495  0.8166  0.1904
  682MOL0     H89966   7.182   8.116   4.136  0.6102  0.6547  0.9675
  682MOL0     H89967   7.025   7.911   4.295 -1.5672 -0.1045 -0.8600
  682MOL0     H89968   6.987   8.084   4.299 -0.3497 -0.3148  0.5077
  682MOL0     H89969   6.956   8.101   4.063 -0.5229  0.4991 -0.1267
  682MOL0     H89970   6.832   7.994   4.128 -0.0147 -0.7083 -0.1127
  682MOL0     H89971   7.062   7.887   3.958  0.0948 -0.5431 -1.5959
  682MOL0     H89972   6.892   7.903   3.924 -1.0042 -2.6643  0.8458
  682MOL0     H89973   7.030   7.732   4.130  1.9893  0.5898 -1.6432
  682MOL0     H89974   6.855   7.725   4.112 -0.6856  0.8753 -0.2391
  682MOL0     H89975   6.892   7.647   3.876  1.3125 -0.6728  0.0453
  682MOL0     H89976   6.949   7.549   4.013 -1.2256 -0.8763 -1.9981
  682MOL0     H89977   7.042   7.683   3.672 -1.9894 -2.0890  0.7350
  682MOL0     H89978   7.417   7.763   3.645 -0.3763  2.0349  0.0461
  682MOL0     H89979   7.263   7.830   3.593 -1.1070 -0.6552 -0.8539
  682MOL0     H89980   7.354   7.693   3.413  1.6589 -2.1673  0.3390
  682MOL0     H89981   7.203   7.630   3.479 -0.2562 -0.8779  1.0356
  682MOL0     H89982   7.348   7.470   3.628 -1.9604 -1.6018 -0.5058
  682MOL0     H89983   7.337   7.440   3.452 -1.1289  1.7261 -0.9671
  682MOL0     H89984   7.536   7.531   3.414 -3.1197 -1.5358 -0.4035
  682MOL0     H89985   7.566   7.414   3.526 -0.2605  0.7944  2.9590
  682MOL0     H89986   7.759   7.432   3.436  1.5409  0.8167 -1.4767
  682MOL0     H89987   7.991   7.501   3.361 -1.2703 -2.0466 -0.6299
  682MOL0     H89988   8.346   7.484   3.201 -1.3280  1.0638  1.3641
  682MOL0     H89989   8.584   7.488   3.148 -2.4648  2.1100 -1.6785
  682MOL0     H89990   8.854   7.708   3.434  1.8664  0.8893  0.4244
  682MOL0     H89991   8.960   7.644   3.329 -1.2078  1.1945  0.2979
  682MOL0     H89992   8.833   7.427   3.485  1.3362 -1.3879  2.7123
  682MOL0     H89993   8.922   7.542   3.574  1.0996  4.4687 -1.6004
  682MOL0     H89994   9.019   7.351   3.368 -1.7882  0.3755 -0.5881
  682MOL0     H89995   9.055   7.357   3.539  0.0225 -0.3649 -1.0519
  682MOL0     H89996   9.171   7.574   3.335  2.0433  2.7503  1.3447
  682MOL0     H89997   9.183   7.567   3.514 -0.0863  1.1820 -1.7089
  682MOL0     H89998   9.267   7.338   3.319 -0.5409  0.3290 -1.3983
  682MOL0     H89999   9.285   7.359   3.501 -2.7859  2.9340  0.9645
  682MOL0     H90000   9.436   7.534   3.464  3.1194 -0.7869 -0.3028
  682MOL0     H90001   9.408   7.543   3.286  2.8084  2.0259  0.7674
  682MOL0     H90002   9.535   7.369   3.245 -0.3770  2.5864  0.1658
  682MOL0     H90003   9.634   7.430   3.370  1.8319 -0.4939 -0.3974
  682MOL0     H90004   9.617   7.189   3.404  0.4441  1.5987  0.0617
  682MOL0     H90005   9.439   7.196   3.417 -0.3956  0.3643 -0.9987
  682MOL0     H90006   8.661   7.688   3.524 -1.7110  1.4102  1.0853
  682MOL0     H90007   8.423   7.672   3.577 -0.2915  1.3565 -1.2162
  682MOL0     H90008   7.978   7.809   3.661 -0.1746 -1.9386  2.8005
  682MOL0     H90009   7.766   7.764   3.708  1.8348  1.0657  0.2092
  682MOL0     H90010   7.667   8.179   4.224  2.2170 -0.4216  1.2573
  682MOL0     H90011   7.845   8.136   4.074 -0.8621  0.9023  1.2405
  682MOL0     H90012   8.163   7.620   3.954 -0.9538 -1.1316 -3.2505
  682MOL0     H90013   8.387   7.628   3.859 -0.9397 -0.5233  1.7782
  682MOL0     H90014   8.653   7.774   3.826  0.6023  0.4454  1.9949
  682MOL0     H90015   8.600   7.929   3.899  0.3590  3.5797 -1.8332
  682MOL0     H90016   8.716   7.895   3.610  1.5524  1.5911 -1.1661
  682MOL0     H90017   8.652   8.035   3.686  3.9651  1.3405  0.5012
  682MOL0     H90018   8.812   8.066   3.865  4.5065  2.9510 -1.0418
  682MOL0     H90019   8.897   8.066   3.716  2.4424 -0.9637 -0.0514
  682MOL0     H90020   8.984   7.922   3.892  0.4812  1.3279 -0.7635
  682MOL0     H90021   8.877   7.796   3.859  1.0699 -0.0212  4.4800
  682MOL0     H90022   9.135   7.767   3.519 -1.5975 -2.2032  0.7331
  682MOL0     H90023   8.329   8.042   3.735  0.0368 -2.5083 -3.3226
  682MOL0     H90024   8.103   8.032   3.833  0.6804  1.0265  0.3082
  683MOL0     O90025  11.261   4.890  10.148  0.0739 -0.1733 -0.2468
  683MOL0     C90026  11.293   4.909  10.264  0.5104  0.1496  0.3716
  683MOL0     O90027  11.200   4.925  10.370 -0.2637  0.9927  0.1501
  683MOL0     C90028  11.064   4.908  10.341  0.0020  0.1951 -0.0032
  683MOL0     C90029  10.977   5.012  10.383  0.0223 -0.0802  0.3154
  683MOL0     C90030  10.838   4.994  10.362 -0.2305  0.9458  0.3038
  683MOL0     C90031  10.790   4.871  10.323  0.4689 -0.6473  0.0062
  683MOL0     O90032  10.656   4.828  10.321 -0.3898 -0.0720  0.3069
  683MOL0     C90033  10.541   4.922  10.301  0.1476 -0.1651 -0.5756
  683MOL0     C90034  10.411   4.841  10.309  0.0115  0.4564 -0.3950
  683MOL0     C90035  10.299   4.943  10.329  0.2942  0.8191  0.7657
  683MOL0     C90036  10.175   4.856  10.352  0.6714  0.0409  0.2294
  683MOL0     C90037  10.042   4.931  10.373  0.2216  0.3438  0.0254
  683MOL0     C90038  10.051   5.024  10.491  0.1366  0.3399  0.2814
  683MOL0     C90039   9.924   5.096  10.540 -0.0847  0.1133 -0.3940
  683MOL0     C90040   9.844   5.159  10.434  0.0053  0.7219  0.1803
  683MOL0     N90041   9.708   5.184  10.486  0.1030  0.4012  0.1052
  683MOL0     C90042   9.655   5.310  10.512 -0.1933  0.0352 -0.2894
  683MOL0     C90043   9.533   5.298  10.556  0.4734  1.0277 -0.0498
  683MOL0     C90044   9.433   5.399  10.603 -0.4182 -0.3288 -0.6062
  683MOL0     C90045   9.295   5.351  10.582  0.4456  0.1580 -0.1601
  683MOL0     C90046   9.193   5.464  10.581 -0.3768  0.6738 -1.1555
  683MOL0     C90047   9.055   5.425  10.523 -0.2413  0.0141  0.6431
  683MOL0     O90048   8.976   5.546  10.538  0.5591  0.1786  0.1852
  683MOL0     C90049   8.857   5.552  10.470 -0.6648 -0.4838  0.7246
  683MOL0     C90050   8.761   5.651  10.497 -0.5316  0.2358  0.2650
  683MOL0     C90051   8.636   5.658  10.430 -0.0960 -0.7327  1.0058
  683MOL0     C90052   8.603   5.564  10.333  0.1145  0.7773  0.3453
  683MOL0     C90053   8.472   5.581  10.252 -0.1958  0.4241  0.4449
  683MOL0     O90054   8.398   5.698  10.260 -0.8242  0.4356 -0.6102
  683MOL0     C90055   8.285   5.708  10.181  0.4158  0.2376 -0.3158
  683MOL0     C90056   8.299   5.727  10.043 -0.3781  0.1443  0.5654
  683MOL0     C90057   8.184   5.733   9.958 -1.4358  0.4230 -0.2901
  683MOL0     C90058   8.063   5.729  10.010  0.3207  0.2257 -0.7747
  683MOL0     O90059   7.944   5.720   9.934  0.5883 -0.1576 -0.2872
  683MOL0     C90060   7.955   5.739   9.789 -1.0186  0.3583 -0.0938
  683MOL0     C90061   7.812   5.743   9.718  0.0454  0.4575 -0.4707
  683MOL0     C90062   7.764   5.889   9.734 -0.4029 -0.9529 -0.7229
  683MOL0     C90063   7.650   5.899   9.639  0.8079  0.1181  0.7154
  683MOL0     C90064   7.568   6.025   9.675 -0.0748 -0.3734 -0.1780
  683MOL0     C90065   7.447   6.029   9.579 -0.2191  1.4379  0.0417
  683MOL0     C90066   7.353   6.145   9.609 -0.0941 -0.9407 -0.4922
  683MOL0     C90067   7.254   6.159   9.494 -0.2027 -0.0428 -0.4197
  683MOL0    Cl90068   7.151   6.302   9.528 -0.2947  0.5183 -0.1785
  683MOL0     C90069   8.044   5.725  10.149 -0.3275  0.6786  0.7095
  683MOL0     C90070   8.151   5.717  10.237 -0.6471 -0.6967  0.1147
  683MOL0     O90071   8.434   5.478  10.186 -0.2676 -0.1193  0.3096
  683MOL0     C90072   8.690   5.458  10.311 -0.5236 -0.1199  0.5918
  683MOL0     C90073   8.811   5.445  10.381  0.5153 -0.1805 -0.4143
  683MOL0     N90074   9.507   5.159  10.551  0.0960 -0.1346 -0.4079
  683MOL0     N90075   9.606   5.096  10.513 -0.2967  0.6868 -0.0824
  683MOL0     C90076  10.871   4.774  10.270 -0.7848 -0.3856  0.1208
  683MOL0     C90077  11.010   4.792  10.280 -0.3182 -0.4906 -0.1690
  683MOL0     C90078  11.436   4.909  10.297  0.3058  0.3784 -0.3437
  683MOL0     C90079  11.532   4.917  10.195 -0.1142 -0.4578  0.1717
  683MOL0     C90080  11.662   4.936  10.228  0.5739 -0.6271  0.2895
  683MOL0     C90081  11.705   4.932  10.357 -0.0266  0.6562 -0.4929
  683MOL0     O90082  11.838   4.950  10.378  0.6085  0.5655 -0.1096
  683MOL0     C90083  11.884   4.978  10.516  0.2454 -0.0521 -0.5273
  683MOL0     C90084  12.027   5.036  10.498 -0.4831 -0.3439  0.2432
  683MOL0     C90085  12.119   5.052  10.622  0.0565 -0.2629  0.3150
  683MOL0     C90086  12.256   5.109  10.573  0.3873  0.8824  1.1691
  683MOL0     C90087  12.355   5.107  10.687 -0.2351  1.0867  1.3503
  683MOL0     C90088  12.440   5.092  10.774 -0.3794 -0.0239  0.3949
  683MOL0     C90089  11.611   4.909  10.465  0.1933  0.7488  0.2573
  683MOL0     C90090  11.477   4.895  10.430 -0.0473 -0.2531 -0.3712
  683MOL0     H90091  11.004   5.107  10.428 -2.4759 -0.2632  2.4203
  683MOL0     H90092  10.769   5.071  10.393 -0.5263  0.6401  0.4163
  683MOL0     H90093  10.551   4.974  10.206  1.9974  2.8746  1.1414
  683MOL0     H90094  10.550   4.997  10.380  1.0981 -0.7574 -0.0925
  683MOL0     H90095  10.418   4.759  10.380  1.9587  0.0259 -1.0190
  683MOL0     H90096  10.406   4.782  10.217  1.5436 -3.5966  1.8810
  683MOL0     H90097  10.291   5.005  10.240  0.3124  0.5656  0.5854
  683MOL0     H90098  10.313   5.001  10.421 -1.2063 -1.4078  2.5025
  683MOL0     H90099  10.162   4.794  10.263  1.1320 -0.2944  0.3912
  683MOL0     H90100  10.188   4.790  10.438 -1.0419  2.2628  2.3103
  683MOL0     H90101   9.964   4.855  10.385  1.1958 -0.6305  0.2802
  683MOL0     H90102  10.011   4.985  10.283  1.1891  2.7163  1.0389
  683MOL0     H90103  10.117   5.104  10.456 -0.2954 -0.3374 -2.3007
  683MOL0     H90104  10.105   4.971  10.569 -0.1023  0.9882  0.8957
  683MOL0     H90105   9.865   5.019  10.590  1.2475 -1.2610 -0.8758
  683MOL0     H90106   9.951   5.165  10.621  0.5046 -1.2141  0.5758
  683MOL0     H90107   9.838   5.094  10.347  2.8372  0.6581 -0.0552
  683MOL0     H90108   9.890   5.255  10.411 -0.4566  1.6304  2.6443
  683MOL0     H90109   9.701   5.408  10.509 -0.2744  0.3032  2.9594
  683MOL0     H90110   9.450   5.482  10.534  0.8641  0.6248  0.8174
  683MOL0     H90111   9.457   5.421  10.707 -2.6554 -1.2505  0.1647
  683MOL0     H90112   9.268   5.273  10.655  0.5571 -0.6799 -0.9972
  683MOL0     H90113   9.301   5.305  10.483  2.1682 -0.8908  0.3989
  683MOL0     H90114   9.178   5.477  10.689  4.0078  1.1514 -0.4009
  683MOL0     H90115   9.240   5.554  10.541 -0.3627  2.2069  2.0002
  683MOL0     H90116   9.005   5.346  10.580 -0.2449 -0.3246  0.1760
  683MOL0     H90117   9.071   5.405  10.417 -3.2655 -0.0432  0.1095
  683MOL0     H90118   8.793   5.730  10.565 -0.8105 -0.3783  1.1158
  683MOL0     H90119   8.570   5.741  10.453 -0.8491 -0.7714 -0.8546
  683MOL0     H90120   8.386   5.712   9.980 -1.7510 -0.2641 -1.3255
  683MOL0     H90121   8.207   5.748   9.853 -0.7446  2.0060  0.0571
  683MOL0     H90122   8.024   5.667   9.743  2.4241  0.9023  3.6375
  683MOL0     H90123   8.008   5.833   9.771  2.3781 -1.7406 -2.2636
  683MOL0     H90124   7.742   5.675   9.766 -0.6962  1.7787  0.3739
  683MOL0     H90125   7.825   5.717   9.613 -0.9553 -3.7898  0.2928
  683MOL0     H90126   7.829   5.970   9.702 -3.7084  1.5971 -1.6272
  683MOL0     H90127   7.736   5.893   9.840  3.1489 -1.2861  0.3607
  683MOL0     H90128   7.686   5.912   9.536 -1.6633 -3.3419 -0.7786
  683MOL0     H90129   7.578   5.816   9.644  2.1141 -1.0622  0.4871
  683MOL0     H90130   7.636   6.110   9.669 -0.0534 -0.1983  1.8145
  683MOL0     H90131   7.520   6.022   9.774 -1.8739  0.7153 -0.9641
  683MOL0     H90132   7.393   5.934   9.572 -0.4632  1.7157 -3.0741
  683MOL0     H90133   7.486   6.043   9.478  0.0663  2.0806  0.2341
  683MOL0     H90134   7.299   6.132   9.703 -1.4283  1.2800 -0.8885
  683MOL0     H90135   7.401   6.242   9.625 -0.7314 -0.4745 -1.3563
  683MOL0     H90136   7.182   6.078   9.477 -2.5671  2.1875 -1.7457
  683MOL0     H90137   7.305   6.175   9.399 -1.9586 -1.3057 -1.6564
  683MOL0     H90138   7.944   5.730  10.192 -0.4353 -0.3146  0.5856
  683MOL0     H90139   8.146   5.713  10.345  1.2596 -1.5362  0.2129
  683MOL0     H90140   8.666   5.383  10.237 -1.7928  0.1052  0.7650
  683MOL0     H90141   8.873   5.360  10.356 -1.0805 -2.2999  2.3297
  683MOL0     H90142  10.833   4.675  10.245  0.3364 -1.0284  0.8862
  683MOL0     H90143  11.077   4.709  10.261  1.2404  0.6589  0.0257
  683MOL0     H90144  11.507   4.925  10.090  1.3623 -1.5027 -0.2912
  683MOL0     H90145  11.730   4.968  10.150 -0.5156  0.9290 -0.0767
  683MOL0     H90146  11.882   4.894  10.585  1.9038  0.9567  0.8506
  683MOL0     H90147  11.817   5.053  10.561  1.8907  0.4130  1.3119
  683MOL0     H90148  12.078   4.968  10.429  0.1956 -0.4797  0.8630
  683MOL0     H90149  12.019   5.136  10.456 -2.0542  1.0047  3.3965
  683MOL0     H90150  12.135   4.952  10.665 -1.8176 -1.1438 -0.9527
  683MOL0     H90151  12.080   5.119  10.699  2.2452  0.3387  0.9847
  683MOL0     H90152  12.288   5.032  10.502 -0.1921 -0.6468  2.5031
  683MOL0     H90153  12.253   5.210  10.532  1.0483  1.5889  2.7676
  683MOL0     H90154  12.513   5.066  10.847 -0.2879 -1.2625 -0.1002
  683MOL0     H90155  11.645   4.882  10.565 -1.2184  0.5403  0.7011
  683MOL0     H90156  11.407   4.876  10.511  0.9749 -1.5291  0.2323
  684MOL0     O90157   9.867   0.876   8.318  0.1924  0.0820 -0.6493
  684MOL0     C90158   9.890   0.762   8.360 -0.4827  1.5219  0.4536
  684MOL0     O90159   9.801   0.653   8.360 -0.1958  0.0034  0.2809
  684MOL0     C90160   9.678   0.699   8.320  0.0463 -0.1769  0.0011
  684MOL0     C90161   9.607   0.798   8.393 -0.6953 -0.4561  0.5562
  684MOL0     C90162   9.471   0.826   8.349 -0.5297  0.2970 -1.4463
  684MOL0     C90163   9.408   0.764   8.247  0.2281 -0.6939  0.1874
  684MOL0     O90164   9.283   0.789   8.203  0.3139 -0.1203 -0.5801
  684MOL0     C90165   9.215   0.910   8.239 -0.5474 -0.3580  0.3692
  684MOL0     C90166   9.086   0.931   8.155 -0.0768  0.3254 -0.5436
  684MOL0     C90167   8.997   1.056   8.198 -0.2380 -0.0564  0.0201
  684MOL0     C90168   8.851   1.038   8.141 -0.1327 -0.7319 -0.4770
  684MOL0     C90169   8.764   1.160   8.177 -0.7944  0.8790 -0.5186
  684MOL0     C90170   8.639   1.158   8.101 -0.0436  1.3583  0.5971
  684MOL0     C90171   8.562   1.285   8.111  1.2806 -0.4413 -0.1333
  684MOL0     C90172   8.416   1.260   8.071 -0.0362 -0.1569  0.0053
  684MOL0     N90173   8.332   1.380   8.086 -0.1807 -0.9075  0.1455
  684MOL0     C90174   8.226   1.401   8.169  0.3245  0.1518 -1.2239
  684MOL0     C90175   8.190   1.534   8.154  0.3203 -0.4364  0.4414
  684MOL0     C90176   8.097   1.622   8.229 -0.0562  0.3251  0.1904
  684MOL0     C90177   7.953   1.635   8.164 -0.2069 -0.4757 -1.3453
  684MOL0     C90178   7.951   1.692   8.020 -0.2553  0.2979 -0.2661
  684MOL0     C90179   7.814   1.724   7.962  0.3157  0.6563  0.3271
  684MOL0     O90180   7.715   1.637   8.011  0.1273  0.3789  0.4102
  684MOL0     C90181   7.586   1.670   7.993 -0.8986 -0.5996  0.5018
  684MOL0     C90182   7.539   1.769   7.910 -0.2500 -0.5287 -0.2607
  684MOL0     C90183   7.403   1.796   7.893 -0.5702  0.1751 -0.0357
  684MOL0     C90184   7.309   1.724   7.975 -0.3064  1.2914 -0.0086
  684MOL0     C90185   7.170   1.751   7.955  0.4398  0.5110 -0.3106
  684MOL0     O90186   7.083   1.648   7.966  0.1117  0.4307 -0.3785
  684MOL0     C90187   6.954   1.668   7.942 -0.3597  0.4513 -0.6427
  684MOL0     C90188   6.913   1.717   7.816  0.1066 -0.3692 -0.5995
  684MOL0     C90189   6.782   1.713   7.783 -0.4197 -0.5130 -0.2604
  684MOL0     C90190   6.687   1.645   7.867  0.3246 -0.2819  0.5600
  684MOL0     O90191   6.554   1.657   7.832 -0.7715 -0.1026 -0.5902
  684MOL0     C90192   6.518   1.592   7.711  0.8617  0.7984  1.1438
  684MOL0     C90193   6.381   1.656   7.664 -0.1196 -0.4215 -0.9867
  684MOL0     C90194   6.315   1.585   7.546 -0.5995 -0.6019  0.1572
  684MOL0     C90195   6.162   1.618   7.528  0.0941  0.0133  0.3387
  684MOL0     C90196   6.103   1.506   7.438 -0.4127  0.0632  0.5587
  684MOL0     C90197   5.953   1.518   7.418 -0.5596 -0.1227 -0.5975
  684MOL0     C90198   5.908   1.446   7.292  1.4656 -0.0831 -0.2871
  684MOL0     C90199   5.785   1.512   7.225  0.1715  0.4099 -0.5054
  684MOL0    Cl90200   5.756   1.409   7.082 -0.4748  0.3188  0.0841
  684MOL0     C90201   6.726   1.611   7.994  0.4048  0.1195 -0.4794
  684MOL0     C90202   6.863   1.608   8.029 -0.5136  0.3994  0.3363
  684MOL0     O90203   7.138   1.868   7.934 -0.4216  1.3171  0.4498
  684MOL0     C90204   7.355   1.617   8.052 -0.7964 -0.7094  0.0637
  684MOL0     C90205   7.489   1.604   8.078 -0.4798  0.8387  0.5237
  684MOL0     N90206   8.266   1.587   8.049 -0.0485  0.2041 -0.5225
  684MOL0     N90207   8.346   1.488   8.001 -0.8709  0.0291  0.2306
  684MOL0     C90208   9.475   0.665   8.193 -0.4394 -0.2749  0.6365
  684MOL0     C90209   9.612   0.624   8.227  0.7619 -0.5052  0.0414
  684MOL0     C90210  10.024   0.737   8.401  0.0384  0.2548 -0.7627
  684MOL0     C90211  10.069   0.617   8.437 -0.6210 -0.0955 -0.7041
  684MOL0     C90212  10.202   0.596   8.489  0.1517 -0.9527 -0.7763
  684MOL0     C90213  10.291   0.705   8.496  0.0902 -0.2094 -0.6484
  684MOL0     O90214  10.420   0.707   8.547  0.8524 -0.2450  0.3758
  684MOL0     C90215  10.509   0.600   8.501 -0.3779 -0.1103  0.1539
  684MOL0     C90216  10.654   0.657   8.516 -0.0111  0.9695 -0.3816
  684MOL0     C90217  10.702   0.676   8.656  0.3315  0.8392  0.1355
  684MOL0     C90218  10.719   0.550   8.741 -0.9213 -0.0698  0.1610
  684MOL0     C90219  10.821   0.464   8.680  1.0185  1.2422 -0.1764
  684MOL0     C90220  10.896   0.379   8.638  0.2167  0.0968  0.4293
  684MOL0     C90221  10.244   0.827   8.465  0.4471  0.5335 -0.4140
  684MOL0     C90222  10.110   0.847   8.425  0.3272 -1.0822  0.5956
  684MOL0     H90223   9.650   0.863   8.468 -0.5909  0.9638 -0.6861
  684MOL0     H90224   9.429   0.919   8.387 -1.5356 -0.1397 -1.4586
  684MOL0     H90225   9.280   0.994   8.215  0.6842 -1.5886 -0.8037
  684MOL0     H90226   9.189   0.899   8.345  0.1907 -0.7675  0.5135
  684MOL0     H90227   9.018   0.846   8.147 -1.1603  1.1865 -0.6550
  684MOL0     H90228   9.128   0.961   8.059 -0.5596  0.3572 -0.7440
  684MOL0     H90229   9.039   1.151   8.164 -2.0917 -0.4700 -3.9538
  684MOL0     H90230   8.997   1.062   8.308 -0.9753  2.0676 -0.0573
  684MOL0     H90231   8.866   1.033   8.033  0.9748 -1.1050 -0.3197
  684MOL0     H90232   8.800   0.950   8.180 -1.0385 -0.4170 -0.9432
  684MOL0     H90233   8.811   1.255   8.151 -0.9471  1.8120  2.3221
  684MOL0     H90234   8.738   1.177   8.282  2.4221 -0.2960  0.5989
  684MOL0     H90235   8.571   1.079   8.133  1.5701 -0.6418 -0.6692
  684MOL0     H90236   8.664   1.138   7.997  0.8843  0.3883  0.9891
  684MOL0     H90237   8.566   1.318   8.215  0.2847 -0.3340 -0.1192
  684MOL0     H90238   8.581   1.371   8.046 -1.1761 -0.2479 -0.7319
  684MOL0     H90239   8.358   1.188   8.131 -1.3250  1.2997  0.5924
  684MOL0     H90240   8.430   1.225   7.968  2.5124  4.3260 -1.4412
  684MOL0     H90241   8.184   1.333   8.243  0.7022 -0.1000 -1.2400
  684MOL0     H90242   8.145   1.720   8.239 -0.0616  0.1784  2.2731
  684MOL0     H90243   8.076   1.581   8.329  0.5364  1.8835  0.9904
  684MOL0     H90244   7.902   1.701   8.236  2.2674  1.2361 -1.0503
  684MOL0     H90245   7.900   1.540   8.172 -0.9975  0.0209 -0.3133
  684MOL0     H90246   8.014   1.781   8.007 -1.4856  1.0736 -1.2397
  684MOL0     H90247   8.009   1.618   7.964  1.8299  1.0211  0.8267
  684MOL0     H90248   7.819   1.720   7.853 -1.9997 -2.0995  0.2060
  684MOL0     H90249   7.781   1.822   7.996 -4.2153 -0.5969  0.2677
  684MOL0     H90250   7.614   1.817   7.847  0.1930 -2.4845 -1.3223
  684MOL0     H90251   7.386   1.867   7.812 -3.9583 -2.1100 -1.5319
  684MOL0     H90252   6.988   1.761   7.750 -2.0069 -0.7665 -3.4514
  684MOL0     H90253   6.754   1.745   7.683 -0.2929 -1.1088 -0.4957
  684MOL0     H90254   6.505   1.485   7.729 -3.2957  1.2282  1.6301
  684MOL0     H90255   6.591   1.612   7.632 -1.0603  2.0049 -0.4229
  684MOL0     H90256   6.394   1.760   7.633 -0.8339  0.0615  0.2557
  684MOL0     H90257   6.318   1.644   7.753  1.6211 -2.6707  0.0482
  684MOL0     H90258   6.323   1.478   7.570 -0.5313 -0.6223  0.0415
  684MOL0     H90259   6.363   1.606   7.450 -0.5775  2.6227  0.7843
  684MOL0     H90260   6.107   1.620   7.623 -2.1315  0.7354 -0.9050
  684MOL0     H90261   6.141   1.716   7.485 -1.2597  0.5410  2.0994
  684MOL0     H90262   6.107   1.408   7.485  1.4956  1.1460  2.9066
  684MOL0     H90263   6.148   1.520   7.339 -3.0445 -0.0758 -0.7511
  684MOL0     H90264   5.945   1.626   7.402  1.2249 -0.1193 -1.6808
  684MOL0     H90265   5.897   1.495   7.509 -0.2179  2.0767  0.2295
  684MOL0     H90266   5.982   1.459   7.212 -0.0222  0.2725 -1.6693
  684MOL0     H90267   5.886   1.343   7.322 -0.0061 -0.0326 -1.0591
  684MOL0     H90268   5.814   1.615   7.202  0.9485  0.1594 -0.6432
  684MOL0     H90269   5.713   1.517   7.308  0.3554  2.0312 -0.4080
  684MOL0     H90270   6.651   1.577   8.064  0.2220  0.7520 -0.3570
  684MOL0     H90271   6.900   1.558   8.118 -2.1807 -0.7386  0.4396
  684MOL0     H90272   7.280   1.562   8.109 -0.9780  0.4099  0.9428
  684MOL0     H90273   7.533   1.538   8.152 -0.4871 -0.3712 -0.5159
  684MOL0     H90274   9.411   0.607   8.127  0.4464  2.1667 -2.6052
  684MOL0     H90275   9.653   0.538   8.176 -0.4125 -1.0926  0.0358
  684MOL0     H90276  10.000   0.533   8.444 -0.0144 -0.6733 -1.4804
  684MOL0     H90277  10.235   0.501   8.529  0.6054 -0.4172  0.1525
  684MOL0     H90278  10.499   0.593   8.392 -0.8352 -0.5234  0.2183
  684MOL0     H90279  10.485   0.508   8.555  3.6571 -1.7494 -0.5101
  684MOL0     H90280  10.721   0.600   8.451  0.9033 -0.4982  1.7385
  684MOL0     H90281  10.650   0.759   8.479  0.1808  0.6866 -1.1982
  684MOL0     H90282  10.634   0.749   8.703 -1.4608 -1.1331  0.7576
  684MOL0     H90283  10.792   0.738   8.658 -0.3884  2.0323 -1.8451
  684MOL0     H90284  10.751   0.584   8.839 -1.9131  2.2090 -0.2303
  684MOL0     H90285  10.624   0.495   8.738 -0.8347 -0.2043 -2.3976
  684MOL0     H90286  10.960   0.304   8.595 -1.8968 -1.8112  0.3759
  684MOL0     H90287  10.308   0.914   8.475 -0.3312  1.1479 -0.5937
  684MOL0     H90288  10.082   0.948   8.400 -0.0701 -1.5704 -1.0924
  685MOL0     O90289   0.033   9.998   3.388 -0.1588 -0.1677 -0.0527
  685MOL0     C90290  -0.033  10.043   3.296 -0.0819 -0.2002  0.1500
  685MOL0     O90291  -0.006  10.015   3.162 -0.5017 -0.4996 -0.5058
  685MOL0     C90292   0.108   9.942   3.126 -0.0669 -0.6059  0.6651
  685MOL0     C90293   0.150   9.822   3.195 -0.0300 -0.5791 -0.6440
  685MOL0     C90294   0.263   9.754   3.148 -0.1268  0.7253 -0.5834
  685MOL0     C90295   0.340   9.801   3.044  0.1503 -0.5435 -0.6035
  685MOL0     O90296   0.459   9.739   3.005 -0.3988 -0.0082  0.5418
  685MOL0     C90297   0.499   9.624   3.079 -0.0429 -0.2014  0.1823
  685MOL0     C90298   0.623   9.575   3.039  0.2136 -0.4893  0.8207
  685MOL0     C90299   0.665   9.434   3.097 -0.8075  0.2498 -0.3519
  685MOL0     C90300   0.816   9.403   3.069 -1.3046  0.5543 -0.2025
  685MOL0     C90301   0.879   9.280   3.140 -0.9621 -0.2460  0.5247
  685MOL0     C90302   0.794   9.155   3.137  0.2524 -0.5392  0.9751
  685MOL0     C90303   0.788   9.094   2.997 -0.6138  0.7247 -0.1970
  685MOL0     C90304   0.665   8.997   2.986 -0.7492  0.2229 -0.1069
  685MOL0     N90305   0.544   9.075   2.963 -0.2171  0.2634 -0.1344
  685MOL0     C90306   0.529   9.156   2.853  0.2127 -0.9345  0.2415
  685MOL0     C90307   0.410   9.225   2.866  0.3777  0.4171  0.6567
  685MOL0     C90308   0.374   9.341   2.772 -0.5169 -0.2779 -0.1262
  685MOL0     C90309   0.243   9.406   2.829 -0.6625 -0.8979  0.6034
  685MOL0     C90310   0.211   9.537   2.760 -0.3782 -0.3609  0.9478
  685MOL0     C90311   0.105   9.624   2.826 -0.5187 -0.5315 -0.7159
  685MOL0     O90312  -0.025   9.597   2.768 -0.4532 -0.2231  0.1806
  685MOL0     C90313  -0.122   9.691   2.788  0.5087  0.1515  0.7417
  685MOL0     C90314  -0.104   9.799   2.875  0.3140  0.9707 -0.5837
  685MOL0     C90315  -0.203   9.889   2.900 -0.7786 -0.0458 -0.6483
  685MOL0     C90316  -0.336   9.871   2.850 -0.1341 -0.0979  0.2573
  685MOL0     C90317  -0.436   9.976   2.882 -0.2573 -0.3926 -0.8806
  685MOL0     O90318  -0.389  10.093   2.939 -0.6311 -0.4924 -1.0125
  685MOL0     C90319  -0.476  10.194   2.970  0.2915 -0.0653 -0.3517
  685MOL0     C90320  -0.571  10.176   3.067 -0.6976 -0.3190  0.3444
  685MOL0     C90321  -0.676  10.269   3.092 -0.5170 -1.0325  0.6027
  685MOL0     C90322  -0.694  10.376   3.005 -0.3588 -0.2511 -0.0377
  685MOL0     O90323  -0.800  10.457   3.021  0.1347 -0.0192  0.4543
  685MOL0     C90324  -0.781  10.600   3.021  0.3282  1.5190  0.0996
  685MOL0     C90325  -0.901  10.668   3.093  0.3254 -0.2722 -0.5060
  685MOL0     C90326  -0.884  10.681   3.249 -0.3466  0.2213  0.6534
  685MOL0     C90327  -1.023  10.704   3.317 -1.0782  0.0035 -0.1835
  685MOL0     C90328  -1.033  10.843   3.382  0.2354 -0.2641  0.2793
  685MOL0     C90329  -1.183  10.891   3.386  0.4699  0.1971 -0.4367
  685MOL0     C90330  -1.266  10.799   3.481 -0.5389 -0.6149 -0.1243
  685MOL0     C90331  -1.402  10.865   3.517 -0.3283  0.0008 -0.0677
  685MOL0    Cl90332  -1.490  10.783   3.647  0.1215 -0.2143  0.6253
  685MOL0     C90333  -0.599  10.395   2.902  0.8453 -0.2580 -0.1388
  685MOL0     C90334  -0.497  10.305   2.887 -0.4313 -0.2403  0.8925
  685MOL0     O90335  -0.550   9.966   2.849 -0.5809  0.2677 -0.1190
  685MOL0     C90336  -0.355   9.764   2.766  0.4700  0.4609  0.2285
  685MOL0     C90337  -0.250   9.683   2.727 -0.5232  0.8764 -0.5185
  685MOL0     N90338   0.341   9.162   2.973  0.3480  0.0987  0.2311
  685MOL0     N90339   0.422   9.077   3.021 -0.6366 -0.6247  0.3051
  685MOL0     C90340   0.291   9.908   2.971  0.1916 -0.0643 -0.9595
  685MOL0     C90341   0.179   9.981   3.009  0.5239  0.2197 -0.1456
  685MOL0     C90342  -0.140  10.149   3.329 -0.4385  0.9241 -0.0427
  685MOL0     C90343  -0.202  10.214   3.226  0.6664 -0.4451 -0.3219
  685MOL0     C90344  -0.293  10.313   3.248 -0.0384  0.1027 -0.2349
  685MOL0     C90345  -0.319  10.366   3.385  0.4472  0.1503  0.3723
  685MOL0     O90346  -0.410  10.459   3.384  0.0611 -0.5825 -0.0957
  685MOL0     C90347  -0.462  10.492   3.515  0.8049 -1.1107 -0.6285
  685MOL0     C90348  -0.557  10.621   3.486  0.2032  0.4834 -0.0085
  685MOL0     C90349  -0.620  10.685   3.605 -1.2834 -0.5480 -0.4207
  685MOL0     C90350  -0.759  10.629   3.647  0.1718  0.2919 -0.5332
  685MOL0     C90351  -0.744  10.488   3.694 -0.6633 -0.5646 -0.3721
  685MOL0     C90352  -0.735  10.378   3.747  0.3539  0.8167  0.7991
  685MOL0     C90353  -0.256  10.296   3.487  0.0993  0.8310 -0.3715
  685MOL0     C90354  -0.173  10.183   3.465  0.2364 -0.7625  0.2551
  685MOL0     H90355   0.109   9.778   3.285  1.7121 -3.3951 -1.1162
  685MOL0     H90356   0.288   9.672   3.215  1.0625  1.8016  0.3511
  685MOL0     H90357   0.422   9.547   3.069 -0.2941 -0.1140  1.2874
  685MOL0     H90358   0.504   9.646   3.187 -3.1138 -4.3028  1.3951
  685MOL0     H90359   0.694   9.654   3.062 -2.3330  1.7689  1.4266
  685MOL0     H90360   0.620   9.563   2.930  1.1080 -3.4480  1.0304
  685MOL0     H90361   0.605   9.351   3.060  0.4573 -0.1837 -1.4941
  685MOL0     H90362   0.668   9.425   3.206 -1.7013 -1.3258 -0.4282
  685MOL0     H90363   0.851   9.394   2.966  1.6921  0.1755  0.7440
  685MOL0     H90364   0.873   9.484   3.115  3.3947 -2.2251 -0.4638
  685MOL0     H90365   0.876   9.313   3.244  0.0155  2.7244 -0.2627
  685MOL0     H90366   0.982   9.250   3.118 -0.1326  2.0299  0.9667
  685MOL0     H90367   0.691   9.172   3.168 -0.5009  1.3064 -2.0847
  685MOL0     H90368   0.835   9.081   3.206  0.0876 -2.2620 -0.6838
  685MOL0     H90369   0.789   9.182   2.931 -0.0436  1.3384  0.6099
  685MOL0     H90370   0.881   9.039   2.981 -1.0324 -0.2448  0.6470
  685MOL0     H90371   0.659   8.928   3.071  3.2206  1.6051  1.5051
  685MOL0     H90372   0.693   8.931   2.904 -0.2927  1.0587 -0.6386
  685MOL0     H90373   0.609   9.187   2.786  2.5469 -2.3135  2.1946
  685MOL0     H90374   0.362   9.307   2.669 -0.1191 -1.3481  0.1635
  685MOL0     H90375   0.455   9.414   2.769  0.2044 -1.0935 -2.2098
  685MOL0     H90376   0.260   9.413   2.937 -1.9150 -1.2108  0.8415
  685MOL0     H90377   0.160   9.337   2.810 -3.2832  1.8475  1.2216
  685MOL0     H90378   0.301   9.599   2.751 -0.9362  0.1169 -3.5914
  685MOL0     H90379   0.181   9.515   2.657  1.2057  1.8434 -0.0766
  685MOL0     H90380   0.142   9.726   2.821  1.4776 -1.1809 -0.2671
  685MOL0     H90381   0.090   9.604   2.933 -1.4502 -0.7920 -0.8808
  685MOL0     H90382  -0.008   9.810   2.924  0.8299  0.4222 -1.4583
  685MOL0     H90383  -0.177   9.982   2.948  0.6766 -0.0975 -1.2862
  685MOL0     H90384  -0.560  10.078   3.112  1.5047 -1.7680 -3.0227
  685MOL0     H90385  -0.750  10.249   3.170 -0.1205 -0.1697  1.2186
  685MOL0     H90386  -0.790  10.634   2.917 -1.2458  3.1292  0.7095
  685MOL0     H90387  -0.685  10.633   3.060  1.1198 -0.7719  0.2233
  685MOL0     H90388  -0.995  10.629   3.053 -0.8859  1.2100  0.8036
  685MOL0     H90389  -0.889  10.767   3.048  1.8439 -0.6584 -1.0179
  685MOL0     H90390  -0.806  10.753   3.275  1.6067 -1.0835 -1.3181
  685MOL0     H90391  -0.847  10.586   3.290  0.6884  0.4789  0.3486
  685MOL0     H90392  -1.115  10.686   3.260 -2.9687  0.4392  2.5047
  685MOL0     H90393  -1.025  10.629   3.396 -0.8241 -2.4216 -2.3588
  685MOL0     H90394  -0.971  10.910   3.322 -0.5294  0.8281  0.6748
  685MOL0     H90395  -0.988  10.832   3.481 -0.3002 -0.7187  0.4724
  685MOL0     H90396  -1.227  10.889   3.286 -1.0314  2.4942  0.0981
  685MOL0     H90397  -1.194  10.993   3.423 -2.9369  0.2597 -1.2870
  685MOL0     H90398  -1.297  10.702   3.441 -2.7745  0.4921 -1.2589
  685MOL0     H90399  -1.216  10.800   3.578  0.9114 -0.5303 -0.8541
  685MOL0     H90400  -1.463  10.873   3.426  1.5052 -0.3774 -1.3840
  685MOL0     H90401  -1.386  10.964   3.559  2.2457 -0.6233  0.5812
  685MOL0     H90402  -0.620  10.481   2.839 -0.3873 -1.3271 -1.2577
  685MOL0     H90403  -0.435  10.322   2.799  0.6822  2.2179  2.0711
  685MOL0     H90404  -0.453   9.745   2.726 -0.4285  3.7016  0.5979
  685MOL0     H90405  -0.257   9.598   2.660  0.4745 -0.0713  0.5195
  685MOL0     H90406   0.343   9.936   2.880  1.8518  0.7123  0.1753
  685MOL0     H90407   0.140  10.066   2.955  0.1357  1.8464  2.4911
  685MOL0     H90408  -0.187  10.179   3.124 -0.6217 -1.4033 -0.2023
  685MOL0     H90409  -0.338  10.357   3.160 -0.1338 -1.6009 -1.0766
  685MOL0     H90410  -0.378  10.515   3.581 -0.0163 -1.2192  0.4745
  685MOL0     H90411  -0.523  10.417   3.565  0.6030 -0.1471  0.6255
  685MOL0     H90412  -0.505  10.704   3.437  0.5106  0.3911  0.1615
  685MOL0     H90413  -0.642  10.584   3.427 -0.3596  1.0722  0.4120
  685MOL0     H90414  -0.636  10.792   3.596  0.7743  0.2480  3.3676
  685MOL0     H90415  -0.550  10.665   3.686 -0.9826 -1.1660 -0.8221
  685MOL0     H90416  -0.795  10.695   3.727 -1.9622  1.0719 -2.0286
  685MOL0     H90417  -0.831  10.645   3.566 -0.6268  0.0080  0.1106
  685MOL0     H90418  -0.728  10.277   3.780 -1.5963  1.1253  2.2932
  685MOL0     H90419  -0.283  10.317   3.590  3.2601  1.2166  0.4966
  685MOL0     H90420  -0.145  10.121   3.549 -0.6774 -1.4824  0.0556
  686MOL0     O90421   2.299   6.762   2.950  0.2630 -0.6141  0.1521
  686MOL0     C90422   2.246   6.761   3.059 -0.1631  0.1043  0.1885
  686MOL0     O90423   2.136   6.682   3.087 -0.8607  0.1442  0.8442
  686MOL0     C90424   2.047   6.641   2.992 -0.1875 -0.8253 -0.8585
  686MOL0     C90425   1.982   6.528   3.024  0.0952  0.4293 -0.0560
  686MOL0     C90426   1.881   6.484   2.943  0.3146 -0.0397  0.4424
  686MOL0     C90427   1.841   6.561   2.831  0.4384  0.4969  0.2185
  686MOL0     O90428   1.746   6.489   2.755  0.0297  0.1054 -0.9811
  686MOL0     C90429   1.684   6.562   2.643  0.3650 -0.0475 -0.0144
  686MOL0     C90430   1.586   6.469   2.570 -0.3342 -0.6005  0.8966
  686MOL0     C90431   1.472   6.434   2.674 -0.1011 -0.1246  0.1430
  686MOL0     C90432   1.390   6.330   2.614  0.3660  0.6340  0.8288
  686MOL0     C90433   1.257   6.282   2.677  0.4077 -0.3137  0.1131
  686MOL0     C90434   1.149   6.388   2.695 -0.1423 -0.2480 -0.5339
  686MOL0     C90435   1.066   6.412   2.574  0.3386  0.6235  0.6023
  686MOL0     C90436   1.006   6.544   2.572 -0.2568 -1.0354 -0.3386
  686MOL0     N90437   0.904   6.574   2.471 -0.6215  0.0979 -0.0842
  686MOL0     C90438   0.805   6.481   2.452  0.2110  0.1101 -0.6921
  686MOL0     C90439   0.716   6.539   2.373 -0.5429 -0.7279  0.5767
  686MOL0     C90440   0.600   6.480   2.309  0.6482  0.4803 -0.3652
  686MOL0     C90441   0.482   6.571   2.281  0.0789 -0.5540 -0.5871
  686MOL0     C90442   0.360   6.497   2.220 -0.7244  0.8615  0.4874
  686MOL0     C90443   0.259   6.579   2.151  1.1223  0.4597  0.3905
  686MOL0     O90444   0.169   6.491   2.088 -0.9818 -0.0534  0.2349
  686MOL0     C90445   0.042   6.534   2.070  0.4912 -0.3153  0.1602
  686MOL0     C90446   0.006   6.666   2.033 -0.4445 -0.8178 -0.2672
  686MOL0     C90447  -0.128   6.702   2.001 -0.0721  0.7062 -0.0289
  686MOL0     C90448  -0.224   6.600   2.008 -0.1746 -0.8060  0.3089
  686MOL0     C90449  -0.362   6.617   1.960 -0.5175 -0.4886  0.1178
  686MOL0     O90450  -0.445   6.520   1.997 -0.8025  0.1933  0.4551
  686MOL0     C90451  -0.580   6.555   1.988 -0.5617 -1.2116 -0.0311
  686MOL0     C90452  -0.616   6.665   2.061  0.9191 -0.8109 -0.5555
  686MOL0     C90453  -0.751   6.706   2.057  0.7148 -0.4879 -0.9110
  686MOL0     C90454  -0.848   6.633   1.987 -0.7578 -0.0418 -0.1980
  686MOL0     O90455  -0.968   6.695   1.986 -0.1990  0.2807 -1.1833
  686MOL0     C90456  -1.081   6.613   1.972 -0.8697 -0.1582 -0.9281
  686MOL0     C90457  -1.118   6.606   1.825  0.1388  0.6386  0.5316
  686MOL0     C90458  -1.221   6.718   1.789  0.4447 -0.3528  0.4299
  686MOL0     C90459  -1.362   6.688   1.840 -0.5325 -0.6236  0.1320
  686MOL0     C90460  -1.460   6.643   1.729  0.2704 -0.2875 -0.3807
  686MOL0     C90461  -1.597   6.612   1.784 -0.7823  0.0273 -0.8861
  686MOL0     C90462  -1.684   6.554   1.686  0.2498 -0.1951 -0.0780
  686MOL0     C90463  -1.822   6.521   1.734 -0.3362  0.1929 -0.4054
  686MOL0    Cl90464  -1.899   6.650   1.821  0.2693  0.3772 -0.2411
  686MOL0     C90465  -0.797   6.525   1.902  1.2007 -0.5365  0.5940
  686MOL0     C90466  -0.664   6.487   1.903  0.4464  0.6556  0.1639
  686MOL0     O90467  -0.386   6.715   1.884  0.1242  1.1048  0.0664
  686MOL0     C90468  -0.189   6.478   2.056 -0.2045  1.0059  0.6826
  686MOL0     C90469  -0.053   6.433   2.074 -0.7823 -0.4642  0.5873
  686MOL0     N90470   0.767   6.673   2.356 -0.0463 -0.0075  0.8623
  686MOL0     N90471   0.882   6.690   2.410  0.3332  0.2134 -0.0706
  686MOL0     C90472   1.900   6.685   2.800 -0.3444  0.0357  0.7056
  686MOL0     C90473   2.010   6.719   2.882 -0.2543 -0.0044  0.1472
  686MOL0     C90474   2.304   6.837   3.175 -1.2643 -0.1781  0.0995
  686MOL0     C90475   2.253   6.818   3.305 -0.2945 -0.1639 -0.2263
  686MOL0     C90476   2.306   6.894   3.415  0.7410 -0.5388  0.9851
  686MOL0     C90477   2.412   6.974   3.402  0.0653 -1.0637 -0.7298
  686MOL0     O90478   2.462   7.043   3.514  0.4283 -0.1670  0.1699
  686MOL0     C90479   2.567   7.133   3.517  0.3510  0.1836  0.6402
  686MOL0     C90480   2.528   7.263   3.449 -0.3731  0.0233 -0.0710
  686MOL0     C90481   2.652   7.356   3.448 -0.2491  0.3873 -0.3052
  686MOL0     C90482   2.607   7.505   3.428  0.0868  1.0078 -0.8439
  686MOL0     C90483   2.561   7.512   3.292 -1.0865  0.0688 -0.4460
  686MOL0     C90484   2.514   7.525   3.183  0.1487 -0.0862 -0.3412
  686MOL0     C90485   2.473   6.988   3.273  0.8565  0.1369 -0.9673
  686MOL0     C90486   2.411   6.927   3.160  0.4511  0.2430  0.1428
  686MOL0     H90487   2.019   6.465   3.104  1.4542 -1.3615 -1.9957
  686MOL0     H90488   1.834   6.387   2.954 -2.2481  0.7235 -2.3754
  686MOL0     H90489   1.756   6.595   2.568 -0.1918  1.0280 -0.0900
  686MOL0     H90490   1.647   6.657   2.683  4.3280  1.5295  0.2955
  686MOL0     H90491   1.639   6.387   2.521 -5.3421 -3.3287 -0.6091
  686MOL0     H90492   1.541   6.535   2.495  2.3915 -0.4622 -0.7594
  686MOL0     H90493   1.424   6.531   2.689  1.7648  0.9266 -0.3360
  686MOL0     H90494   1.507   6.398   2.770 -1.0296  0.6863  0.8107
  686MOL0     H90495   1.354   6.362   2.516 -0.9720 -2.3885  0.1886
  686MOL0     H90496   1.450   6.238   2.607  1.6145  1.4047  1.1883
  686MOL0     H90497   1.267   6.243   2.779  2.6690  1.0019  0.4469
  686MOL0     H90498   1.220   6.213   2.600 -1.4316  1.2153 -0.4614
  686MOL0     H90499   1.194   6.478   2.736 -1.5787 -0.5842  1.9953
  686MOL0     H90500   1.091   6.347   2.779  0.4379 -1.1757 -0.5803
  686MOL0     H90501   1.120   6.397   2.481  0.7889 -2.9570  1.2800
  686MOL0     H90502   0.988   6.337   2.589 -0.1718  1.2966  1.4289
  686MOL0     H90503   1.084   6.620   2.559 -2.7016  1.7922  0.4382
  686MOL0     H90504   0.970   6.576   2.670 -0.6616  0.7405 -1.0221
  686MOL0     H90505   0.784   6.382   2.491  0.7442  0.4570  0.5299
  686MOL0     H90506   0.563   6.408   2.383  2.1955  1.2177  1.1772
  686MOL0     H90507   0.648   6.429   2.224  4.4177 -0.7076  2.2203
  686MOL0     H90508   0.524   6.653   2.221 -2.7239  0.3978 -1.3798
  686MOL0     H90509   0.448   6.625   2.370 -0.4911 -0.9166 -0.5776
  686MOL0     H90510   0.400   6.438   2.137 -0.8587  2.3182 -0.6501
  686MOL0     H90511   0.302   6.439   2.293 -1.3177 -1.4964 -1.7202
  686MOL0     H90512   0.296   6.642   2.070  0.6510 -1.1311 -1.1133
  686MOL0     H90513   0.210   6.649   2.220  0.2573  1.7536 -1.4557
  686MOL0     H90514   0.082   6.743   2.031 -1.1094  0.0755  3.2927
  686MOL0     H90515  -0.142   6.806   1.974 -3.3842  0.6897  1.1359
  686MOL0     H90516  -0.533   6.715   2.109 -0.5020 -1.0757  2.3345
  686MOL0     H90517  -0.794   6.792   2.108 -2.2256 -3.2823  1.7690
  686MOL0     H90518  -1.164   6.656   2.030 -0.1025  0.5334 -0.3188
  686MOL0     H90519  -1.059   6.512   2.008 -1.8770  0.5997  2.1418
  686MOL0     H90520  -1.172   6.512   1.809 -3.0966  1.5597  4.4698
  686MOL0     H90521  -1.029   6.614   1.761 -1.2832  2.5581 -1.3740
  686MOL0     H90522  -1.231   6.749   1.685  0.9640 -3.3820 -0.6311
  686MOL0     H90523  -1.185   6.804   1.846  0.8301 -1.1100  1.3605
  686MOL0     H90524  -1.360   6.617   1.923  0.0241 -0.3833  0.3286
  686MOL0     H90525  -1.416   6.776   1.877 -1.0216  0.1528 -2.2496
  686MOL0     H90526  -1.420   6.553   1.680 -2.4225 -0.1550 -3.1535
  686MOL0     H90527  -1.467   6.720   1.652 -0.8954  0.2386  0.2312
  686MOL0     H90528  -1.645   6.700   1.828  0.5650  1.3124 -1.8910
  686MOL0     H90529  -1.584   6.541   1.865  1.1158 -1.9174 -2.7666
  686MOL0     H90530  -1.696   6.630   1.608 -0.6945 -1.5826 -1.3523
  686MOL0     H90531  -1.643   6.469   1.631 -1.7676 -1.0928 -0.2947
  686MOL0     H90532  -1.826   6.434   1.800  4.6407 -2.0261 -2.4406
  686MOL0     H90533  -1.885   6.493   1.649 -1.1763 -0.0701  0.2890
  686MOL0     H90534  -0.868   6.477   1.837  0.7139  0.4348  0.3882
  686MOL0     H90535  -0.617   6.413   1.838  1.3772 -0.0136  1.5444
  686MOL0     H90536  -0.258   6.396   2.076  0.5846  0.1746  0.1070
  686MOL0     H90537  -0.014   6.335   2.098  1.4454  0.5625  1.4491
  686MOL0     H90538   1.881   6.736   2.707  0.8885 -3.8635 -1.9486
  686MOL0     H90539   2.062   6.811   2.857  3.6666 -1.6023  1.5206
  686MOL0     H90540   2.170   6.749   3.310 -0.0322 -0.5831 -1.3855
  686MOL0     H90541   2.268   6.874   3.515 -0.1815  1.2398  1.0416
  686MOL0     H90542   2.646   7.095   3.451  0.2356  0.2472  0.4649
  686MOL0     H90543   2.595   7.154   3.620 -0.9579 -0.7491  1.2119
  686MOL0     H90544   2.492   7.235   3.349 -1.3604  1.9631 -0.3182
  686MOL0     H90545   2.445   7.307   3.505 -1.2114  0.1117 -1.3270
  686MOL0     H90546   2.735   7.326   3.384  0.3593  0.2539  0.5428
  686MOL0     H90547   2.704   7.355   3.544  0.9789 -0.2830 -0.9564
  686MOL0     H90548   2.541   7.548   3.504  1.6661  0.3638  0.9525
  686MOL0     H90549   2.694   7.572   3.418 -0.1251  1.7124  1.4220
  686MOL0     H90550   2.483   7.533   3.080  2.0911 -0.6911 -1.0125
  686MOL0     H90551   2.566   7.042   3.256  1.8907 -2.3331 -4.3881
  686MOL0     H90552   2.460   6.939   3.063  3.9261 -0.6826  1.6388
  687MOL0     O90553   1.422   1.329   0.134 -0.2045  0.2466 -0.7795
  687MOL0     C90554   1.398   1.413   0.045  1.0704 -0.0305  0.0426
  687MOL0     O90555   1.486   1.502  -0.004 -0.2506  0.5190  0.5570
  687MOL0     C90556   1.609   1.498   0.061  0.0415 -1.2353  0.1999
  687MOL0     C90557   1.710   1.415   0.007 -0.2677  0.0393  0.4758
  687MOL0     C90558   1.834   1.422   0.071  0.4043 -0.1724 -0.7913
  687MOL0     C90559   1.863   1.517   0.174 -1.0635 -0.3720 -0.1415
  687MOL0     O90560   1.978   1.539   0.242 -0.6070  0.2699 -0.1416
  687MOL0     C90561   2.104   1.497   0.193  0.4459  0.8128  0.0689
  687MOL0     C90562   2.185   1.599   0.114  1.1159 -0.2729 -0.0790
  687MOL0     C90563   2.130   1.619  -0.020 -0.0108  1.1681 -0.8168
  687MOL0     C90564   2.213   1.716  -0.098 -0.1759 -0.3859  0.2037
  687MOL0     C90565   2.149   1.740  -0.233 -0.4653 -0.1196 -0.2500
  687MOL0     C90566   2.237   1.839  -0.303  0.0420 -0.2693 -0.0029
  687MOL0     C90567   2.206   1.860  -0.447 -0.1386 -0.3294  0.4052
  687MOL0     C90568   2.060   1.907  -0.471  0.5301 -0.0029  0.1363
  687MOL0     N90569   2.018   1.932  -0.605 -0.0783 -0.1072  0.1052
  687MOL0     C90570   2.004   2.057  -0.669 -0.9554  0.1909 -0.7475
  687MOL0     C90571   1.945   2.025  -0.782  0.0413 -0.7744  0.4044
  687MOL0     C90572   1.888   2.126  -0.875 -0.6643  1.1476 -0.2234
  687MOL0     C90573   1.754   2.185  -0.822 -0.1039  0.2208  0.6601
  687MOL0     C90574   1.645   2.079  -0.798 -0.7084  0.6936  0.4336
  687MOL0     C90575   1.504   2.147  -0.825 -0.3350  1.0113  0.4047
  687MOL0     O90576   1.471   2.252  -0.733  0.6728  0.2454 -0.2000
  687MOL0     C90577   1.337   2.294  -0.731  0.1092 -1.2813 -0.8671
  687MOL0     C90578   1.306   2.401  -0.645 -0.5358  0.0061 -0.0111
  687MOL0     C90579   1.174   2.462  -0.650  0.0668  0.9460  0.4393
  687MOL0     C90580   1.080   2.408  -0.739 -0.6954 -0.1461  0.0525
  687MOL0     C90581   0.947   2.454  -0.741  0.4751 -0.2351 -0.6743
  687MOL0     O90582   0.900   2.503  -0.620 -0.5354 -0.0777  0.2638
  687MOL0     C90583   0.767   2.539  -0.609 -0.3900 -0.1622  0.1374
  687MOL0     C90584   0.653   2.491  -0.690  0.7107 -0.0776  0.8152
  687MOL0     C90585   0.521   2.529  -0.663  0.1942 -0.5944 -0.0905
  687MOL0     C90586   0.504   2.620  -0.558 -0.1370  0.7663  0.4960
  687MOL0     O90587   0.370   2.673  -0.544 -0.1487 -0.1135 -0.8324
  687MOL0     C90588   0.344   2.763  -0.432  0.1303  0.5478 -0.3541
  687MOL0     C90589   0.199   2.800  -0.427  0.0369 -0.3688 -0.2208
  687MOL0     C90590   0.162   2.891  -0.538  0.4128  0.0813  0.2128
  687MOL0     C90591   0.028   2.970  -0.519  0.9740  0.7004  0.8330
  687MOL0     C90592  -0.023   3.042  -0.650 -0.7386  0.6292 -0.8480
  687MOL0     C90593  -0.155   3.102  -0.620  0.6695 -0.2281  0.3626
  687MOL0     C90594  -0.214   3.169  -0.747  0.1952  0.0562 -0.4068
  687MOL0     C90595  -0.328   3.268  -0.710 -1.7857  0.3522  0.0648
  687MOL0    Cl90596  -0.368   3.369  -0.845  0.0465 -0.0148 -0.2966
  687MOL0     C90597   0.609   2.650  -0.475  1.1472 -0.2494  0.1038
  687MOL0     C90598   0.740   2.609  -0.497 -0.2342  0.1963 -0.3053
  687MOL0     O90599   0.879   2.429  -0.836  0.0699 -0.0884  0.1519
  687MOL0     C90600   1.111   2.293  -0.814 -0.8159  0.4149 -0.2260
  687MOL0     C90601   1.238   2.241  -0.815 -0.3443  0.2966  0.6001
  687MOL0     N90602   1.933   1.887  -0.796  0.6739 -0.1262 -0.9180
  687MOL0     N90603   1.971   1.835  -0.684 -0.7750 -0.2569  0.4849
  687MOL0     C90604   1.758   1.600   0.210 -0.1525  0.5314 -0.5286
  687MOL0     C90605   1.621   1.581   0.164  0.1750 -0.3819 -0.6410
  687MOL0     C90606   1.250   1.428   0.013 -0.0655  0.6443  0.2591
  687MOL0     C90607   1.163   1.328   0.057 -0.7302  0.9148  0.9518
  687MOL0     C90608   1.031   1.340   0.041  0.1823 -0.1783 -0.2076
  687MOL0     C90609   0.970   1.455  -0.009 -0.5280  0.1086  1.0330
  687MOL0     O90610   0.840   1.461  -0.051 -0.3249  0.4375  0.1482
  687MOL0     C90611   0.755   1.363   0.001 -0.1903  0.1404 -0.0992
  687MOL0     C90612   0.611   1.401  -0.045 -0.5318  0.0667 -0.1644
  687MOL0     C90613   0.510   1.289  -0.031  0.4443  0.2872  0.2338
  687MOL0     C90614   0.499   1.241   0.117  1.1807  0.0863  0.5056
  687MOL0     C90615   0.373   1.166   0.135  0.3669  0.5761 -0.0252
  687MOL0     C90616   0.269   1.094   0.131  0.5491  0.0440  1.1180
  687MOL0     C90617   1.059   1.561  -0.043 -0.2799  0.0854 -0.9226
  687MOL0     C90618   1.196   1.552  -0.020 -0.6105  0.3106 -0.1165
  687MOL0     H90619   1.688   1.372  -0.090 -1.8716 -1.8151  1.5904
  687MOL0     H90620   1.904   1.349   0.031 -1.1148 -0.6274 -2.7518
  687MOL0     H90621   2.092   1.403   0.137  0.4176  0.4861  0.6231
  687MOL0     H90622   2.166   1.466   0.277 -1.3566 -1.7069  0.5938
  687MOL0     H90623   2.288   1.567   0.100  0.9210 -1.1577  0.3883
  687MOL0     H90624   2.174   1.690   0.174 -4.1194 -1.3285  1.0710
  687MOL0     H90625   2.028   1.658  -0.005 -0.6328 -0.3850 -0.8345
  687MOL0     H90626   2.110   1.520  -0.061 -1.5022  0.1366  2.1148
  687MOL0     H90627   2.219   1.812  -0.046 -0.3146  0.4574 -1.2964
  687MOL0     H90628   2.315   1.680  -0.114  0.4397  1.3609 -0.0354
  687MOL0     H90629   2.046   1.776  -0.223 -0.3631 -0.3872  2.4362
  687MOL0     H90630   2.148   1.644  -0.286 -0.0787 -0.3083  0.0832
  687MOL0     H90631   2.342   1.809  -0.306 -0.3353 -1.5363 -1.8392
  687MOL0     H90632   2.236   1.937  -0.254  4.0483  0.0272 -0.1347
  687MOL0     H90633   2.270   1.938  -0.491 -3.0016  0.7035 -2.3792
  687MOL0     H90634   2.215   1.764  -0.498 -2.7829  0.0055 -0.8691
  687MOL0     H90635   2.033   1.991  -0.406 -2.8052 -2.0051  1.5718
  687MOL0     H90636   1.997   1.825  -0.436  3.1311 -2.0290  0.3588
  687MOL0     H90637   2.000   2.156  -0.624  0.7499  0.2222 -0.5719
  687MOL0     H90638   1.884   2.080  -0.974 -0.1502 -0.8453  0.6302
  687MOL0     H90639   1.963   2.204  -0.889 -0.9136  1.2295 -1.1882
  687MOL0     H90640   1.721   2.255  -0.900 -0.5043  0.5890  1.1518
  687MOL0     H90641   1.767   2.250  -0.735 -0.0313  2.3185 -0.8206
  687MOL0     H90642   1.664   1.991  -0.861 -0.8470  0.5835  0.5475
  687MOL0     H90643   1.640   2.052  -0.693 -1.7353  0.7206  0.4013
  687MOL0     H90644   1.439   2.062  -0.802  2.6563 -2.7450 -3.4210
  687MOL0     H90645   1.493   2.171  -0.931  2.1053  1.7909  0.2658
  687MOL0     H90646   1.379   2.441  -0.575 -0.4400  2.0896 -1.2071
  687MOL0     H90647   1.141   2.544  -0.586 -0.0517  1.4770 -0.2837
  687MOL0     H90648   0.669   2.422  -0.772 -1.0159 -0.1669  0.5152
  687MOL0     H90649   0.436   2.493  -0.719 -0.9533  3.2831 -1.2006
  687MOL0     H90650   0.406   2.853  -0.443 -1.8029  1.9136 -0.4630
  687MOL0     H90651   0.353   2.714  -0.335  2.4936 -0.1349 -0.8404
  687MOL0     H90652   0.172   2.845  -0.331  0.2140 -1.2592  0.2629
  687MOL0     H90653   0.146   2.705  -0.441  1.9207 -1.0315 -4.5156
  687MOL0     H90654   0.152   2.834  -0.631 -2.7755  0.0357  0.4573
  687MOL0     H90655   0.240   2.967  -0.549 -0.5644  0.8471 -2.0610
  687MOL0     H90656  -0.044   2.891  -0.496  2.1560 -1.5561 -2.5281
  687MOL0     H90657   0.035   3.037  -0.432  1.9400 -0.4369  1.6769
  687MOL0     H90658  -0.024   2.971  -0.733 -1.9101  0.8075 -0.9947
  687MOL0     H90659   0.043   3.126  -0.675  1.0594 -0.8002 -1.1674
  687MOL0     H90660  -0.132   3.181  -0.548  2.2272 -1.7486  1.6305
  687MOL0     H90661  -0.229   3.034  -0.576 -0.2816  0.1753 -0.5782
  687MOL0     H90662  -0.137   3.225  -0.801  0.1014 -0.3823 -1.0062
  687MOL0     H90663  -0.245   3.083  -0.807 -1.2563 -0.4154  0.9402
  687MOL0     H90664  -0.298   3.328  -0.624 -2.1601  0.3882  0.1699
  687MOL0     H90665  -0.426   3.223  -0.692 -1.6046  0.2319  0.7705
  687MOL0     H90666   0.582   2.711  -0.389 -2.6212 -1.7728  0.1910
  687MOL0     H90667   0.827   2.637  -0.438 -1.9827  1.2201  1.9436
  687MOL0     H90668   1.035   2.244  -0.873 -2.6779  0.9484  1.6185
  687MOL0     H90669   1.261   2.161  -0.884 -0.8380  0.2961  0.4323
  687MOL0     H90670   1.786   1.679   0.278  0.6444  0.6537 -0.9908
  687MOL0     H90671   1.541   1.651   0.186 -0.1621 -0.6220 -1.0910
  687MOL0     H90672   1.196   1.232   0.096 -0.2867  1.2026  1.2983
  687MOL0     H90673   0.974   1.249   0.054  0.0452  0.0680  0.9929
  687MOL0     H90674   0.768   1.367   0.110  0.9355  0.8530 -0.2391
  687MOL0     H90675   0.781   1.265  -0.040 -0.8289  1.3860 -3.8197
  687MOL0     H90676   0.574   1.493   0.002 -1.1305 -0.2305 -0.0342
  687MOL0     H90677   0.616   1.427  -0.151 -0.7790 -1.2736 -0.5368
  687MOL0     H90678   0.534   1.204  -0.095 -0.8052  0.3222 -0.3102
  687MOL0     H90679   0.421   1.336  -0.075 -1.1293 -1.4298  1.4361
  687MOL0     H90680   0.582   1.176   0.147  0.0244  0.0449  4.1627
  687MOL0     H90681   0.493   1.321   0.192 -2.0195 -0.6616  1.2079
  687MOL0     H90682   0.180   1.037   0.149 -0.1236  0.5532 -0.4523
  687MOL0     H90683   1.031   1.652  -0.095  1.2931 -0.1145 -2.2186
  687MOL0     H90684   1.259   1.640  -0.027  0.1781  0.0514  2.5130
  688MOL0     O90685   3.712  10.865   0.764 -0.1081  0.1648 -0.3062
  688MOL0     C90686   3.685  10.835   0.651 -0.1113  0.2915 -0.3011
  688MOL0     O90687   3.579  10.752   0.614  0.2519 -0.2123 -0.4303
  688MOL0     C90688   3.501  10.682   0.707  0.1547 -0.6611  0.5740
  688MOL0     C90689   3.484  10.700   0.846  0.4416 -0.1080 -0.6390
  688MOL0     C90690   3.397  10.614   0.921  1.2645  0.3382 -0.3263
  688MOL0     C90691   3.314  10.529   0.846 -0.3940  0.7284 -0.2156
  688MOL0     O90692   3.226  10.451   0.903  0.5213  0.1692 -0.6923
  688MOL0     C90693   3.183  10.468   1.038 -0.3426  0.6905 -0.1662
  688MOL0     C90694   3.083  10.583   1.042 -0.1509 -0.1741  0.2946
  688MOL0     C90695   2.932  10.552   1.051 -0.0274  0.5722  0.4634
  688MOL0     C90696   2.882  10.466   0.932  0.6819  1.4336  0.5808
  688MOL0     C90697   2.733  10.455   0.934  0.8677 -0.3074 -0.0223
  688MOL0     C90698   2.663  10.571   0.871 -0.1972 -0.4255  0.6070
  688MOL0     C90699   2.520  10.570   0.909  0.3455 -0.9245  0.3267
  688MOL0     C90700   2.434  10.688   0.862  0.1348  0.1901  0.7619
  688MOL0     N90701   2.310  10.679   0.938 -0.4925  0.7433  0.3522
  688MOL0     C90702   2.202  10.598   0.899 -0.7942 -0.0894 -0.3517
  688MOL0     C90703   2.108  10.651   0.968  0.1993 -0.4446 -0.1978
  688MOL0     C90704   1.977  10.583   0.979 -0.2024 -0.0400  0.1495
  688MOL0     C90705   1.890  10.573   0.852 -0.9834  0.7281 -0.0417
  688MOL0     C90706   1.773  10.470   0.857 -0.3094  0.5219  0.5112
  688MOL0     C90707   1.730  10.427   0.714 -0.3781 -0.5931 -0.8996
  688MOL0     O90708   1.622  10.335   0.740 -0.3760 -0.2880 -0.0983
  688MOL0     C90709   1.492  10.373   0.721  0.1221  0.5904 -0.3135
  688MOL0     C90710   1.386  10.269   0.741 -0.2538  0.0139 -0.0053
  688MOL0     C90711   1.245  10.300   0.739 -0.1498  0.1691  0.5909
  688MOL0     C90712   1.206  10.435   0.711  1.0076 -0.1212 -0.3853
  688MOL0     C90713   1.063  10.462   0.703  0.4858  1.5436 -0.4503
  688MOL0     O90714   1.031  10.580   0.748 -0.4896 -0.1893 -1.5969
  688MOL0     C90715   0.904  10.629   0.774  0.4949 -0.2601  0.0119
  688MOL0     C90716   0.785  10.563   0.792 -0.2764  0.3279  0.1031
  688MOL0     C90717   0.666  10.628   0.814  0.7876 -0.8597  0.0597
  688MOL0     C90718   0.668  10.767   0.814  0.0477 -0.7464 -1.0238
  688MOL0     O90719   0.549  10.823   0.850  0.4704  1.0388 -0.4094
  688MOL0     C90720   0.547  10.960   0.881 -0.5159 -0.4430 -0.6974
  688MOL0     C90721   0.398  11.005   0.905  0.6699  0.2078 -0.2647
  688MOL0     C90722   0.315  11.032   0.775  0.3242 -0.0830 -0.7689
  688MOL0     C90723   0.171  11.041   0.812  0.0681 -0.5576  0.1874
  688MOL0     C90724   0.068  11.097   0.706  0.3746  1.3737  0.1039
  688MOL0     C90725   0.054  10.989   0.590  0.6788 -1.2854  0.0503
  688MOL0     C90726  -0.079  11.009   0.511  0.7712  0.5561  0.0571
  688MOL0     C90727  -0.064  10.946   0.367 -0.0100 -0.9078  0.0827
  688MOL0    Cl90728  -0.034  10.775   0.371  0.4947  0.2780  0.2649
  688MOL0     C90729   0.785  10.841   0.795  0.3367 -0.6874  0.2799
  688MOL0     C90730   0.903  10.770   0.773 -0.5039 -0.0434  0.6969
  688MOL0     O90731   0.987  10.369   0.669  0.5770 -0.2480 -0.3848
  688MOL0     C90732   1.304  10.530   0.695 -0.0236  0.0784  0.1138
  688MOL0     C90733   1.439  10.498   0.700  0.4817 -1.4584  0.4646
  688MOL0     N90734   2.147  10.750   1.055 -0.9429  0.5567 -1.1359
  688MOL0     N90735   2.272  10.767   1.029  0.2756  0.2804 -0.6426
  688MOL0     C90736   3.323  10.517   0.709 -0.2684  0.2049 -0.4270
  688MOL0     C90737   3.419  10.585   0.640 -0.2404 -0.8334  0.4647
  688MOL0     C90738   3.768  10.865   0.537 -0.2005  0.6799  0.0672
  688MOL0     C90739   3.874  10.947   0.561 -0.3357  0.0451  0.2935
  688MOL0     C90740   3.962  10.978   0.460  0.4799  0.4625 -0.2399
  688MOL0     C90741   3.949  10.931   0.327 -0.2553  1.2902 -0.1558
  688MOL0     O90742   4.035  10.945   0.227 -0.3434 -0.9520 -0.1480
  688MOL0     C90743   4.157  11.007   0.254 -0.4727 -0.9811  0.9010
  688MOL0     C90744   4.234  11.040   0.120 -0.4814 -0.6714 -0.8776
  688MOL0     C90745   4.171  11.141   0.039  0.4501 -0.9089  0.6905
  688MOL0     C90746   4.045  11.088  -0.012 -0.1261  0.6965  0.1597
  688MOL0     C90747   4.010  11.149  -0.140  0.8181 -0.1614 -0.8583
  688MOL0     C90748   3.970  11.213  -0.239 -0.2482 -0.3062 -0.2763
  688MOL0     C90749   3.844  10.833   0.300  0.5466  0.4886 -0.0652
  688MOL0     C90750   3.752  10.806   0.410  0.6269 -0.2678  0.4806
  688MOL0     H90751   3.534  10.785   0.893  1.0306 -0.4376 -0.6632
  688MOL0     H90752   3.392  10.610   1.029  0.2942 -2.7119 -0.4022
  688MOL0     H90753   3.274  10.481   1.097  1.0932  1.4342 -2.4079
  688MOL0     H90754   3.122  10.385   1.075  0.3012 -0.2558 -1.1234
  688MOL0     H90755   3.114  10.639   0.954  2.9286 -1.9874  0.0982
  688MOL0     H90756   3.115  10.643   1.128  5.1700 -3.7197  1.2395
  688MOL0     H90757   2.876  10.645   1.058  2.8214  2.4612  0.0930
  688MOL0     H90758   2.919  10.495   1.143 -0.8696  1.2136  0.7455
  688MOL0     H90759   2.896  10.510   0.832 -2.0996 -0.5505 -0.8209
  688MOL0     H90760   2.942  10.374   0.927  2.2198  2.4360 -0.6727
  688MOL0     H90761   2.700  10.439   1.038  1.1010 -1.7782 -0.1582
  688MOL0     H90762   2.706  10.361   0.885  2.4908 -0.4796 -0.6201
  688MOL0     H90763   2.684  10.573   0.764  1.8526  1.8877  0.9763
  688MOL0     H90764   2.705  10.661   0.917  0.9744 -1.3092  1.3483
  688MOL0     H90765   2.495  10.471   0.871  0.5071  0.1674 -2.9063
  688MOL0     H90766   2.525  10.577   1.018  1.2731  0.4776  0.2246
  688MOL0     H90767   2.421  10.692   0.753  0.4544 -0.1246  0.7069
  688MOL0     H90768   2.481  10.785   0.877 -2.7034  3.0783 -5.4651
  688MOL0     H90769   2.196  10.520   0.824 -1.4522  0.9663 -1.4325
  688MOL0     H90770   1.919  10.647   1.046  0.6059  1.1466 -0.2519
  688MOL0     H90771   2.002  10.483   1.015  0.9808 -0.8417 -2.5869
  688MOL0     H90772   1.964  10.542   0.778  0.4481  1.0925  1.2071
  688MOL0     H90773   1.849  10.671   0.827 -4.4889  0.0601  2.2147
  688MOL0     H90774   1.790  10.379   0.916  3.1446  1.6252  1.4838
  688MOL0     H90775   1.686  10.517   0.904 -1.3498 -0.5544 -0.2848
  688MOL0     H90776   1.804  10.379   0.649  0.0183  0.8987 -1.6038
  688MOL0     H90777   1.717  10.515   0.651  1.4629 -0.0544 -0.6059
  688MOL0     H90778   1.417  10.169   0.767 -3.5968 -0.9695  0.6600
  688MOL0     H90779   1.167  10.226   0.755 -0.3503 -0.9764 -4.1705
  688MOL0     H90780   0.780  10.455   0.788 -2.2073  0.4082 -2.3253
  688MOL0     H90781   0.579  10.570   0.843 -1.2496  1.4133 -1.1181
  688MOL0     H90782   0.585  11.010   0.791 -2.6766 -0.6640 -1.8090
  688MOL0     H90783   0.619  10.979   0.961 -0.9733  1.5743 -0.7030
  688MOL0     H90784   0.397  11.091   0.972 -0.7440 -0.4988  0.6827
  688MOL0     H90785   0.346  10.929   0.963 -0.6832 -0.6090 -2.4218
  688MOL0     H90786   0.324  10.952   0.701  1.0547  0.5464 -1.3635
  688MOL0     H90787   0.348  11.125   0.728  0.8703 -0.8056 -1.8537
  688MOL0     H90788   0.138  10.940   0.839  3.3877 -1.3006  2.0890
  688MOL0     H90789   0.166  11.095   0.907  2.3654 -1.0544  0.6511
  688MOL0     H90790   0.101  11.195   0.671  0.4020  1.0976 -0.6509
  688MOL0     H90791  -0.033  11.115   0.745 -0.8178 -0.9981 -1.6631
  688MOL0     H90792   0.060  10.893   0.642  0.7708  0.2588  3.1060
  688MOL0     H90793   0.137  10.987   0.519  1.8623 -2.9909  1.4189
  688MOL0     H90794  -0.156  10.954   0.567 -1.9713  1.9568 -2.0879
  688MOL0     H90795  -0.102  11.116   0.500 -0.5804  0.1851 -0.9518
  688MOL0     H90796   0.023  10.990   0.316 -0.4007 -1.1863 -0.8411
  688MOL0     H90797  -0.153  10.974   0.310  0.1862  2.5309  1.2450
  688MOL0     H90798   0.793  10.949   0.803  1.2988 -0.4080 -3.0292
  688MOL0     H90799   0.996  10.823   0.753  0.6297 -2.3765 -0.5001
  688MOL0     H90800   1.275  10.634   0.683  0.5245  0.3662  1.1086
  688MOL0     H90801   1.507  10.578   0.675 -2.3578  0.3004 -2.5060
  688MOL0     H90802   3.257  10.454   0.651 -1.5418  0.4018  0.7577
  688MOL0     H90803   3.427  10.565   0.534  0.9265 -0.5950  0.4986
  688MOL0     H90804   3.882  10.997   0.657  1.6915  2.1017 -0.8481
  688MOL0     H90805   4.036  11.053   0.484  0.9788 -0.2830  0.6394
  688MOL0     H90806   4.208  10.953   0.335  2.4274  0.4183  0.1541
  688MOL0     H90807   4.129  11.105   0.293  1.8921 -0.1423  0.6346
  688MOL0     H90808   4.336  11.073   0.140 -0.3703  1.2792 -4.0389
  688MOL0     H90809   4.250  10.942   0.074  2.0063 -0.5741 -0.3564
  688MOL0     H90810   4.240  11.184  -0.035 -0.7941 -1.1002 -0.6220
  688MOL0     H90811   4.144  11.226   0.102 -0.9628 -0.0001 -1.0416
  688MOL0     H90812   4.039  10.980  -0.029  0.6262  0.5449  0.8060
  688MOL0     H90813   3.967  11.124   0.056 -1.2009 -0.2976 -0.5056
  688MOL0     H90814   3.944  11.280  -0.318  0.7933 -0.8049 -1.0658
  688MOL0     H90815   3.835  10.779   0.207 -0.0288 -1.3547  1.0001
  688MOL0     H90816   3.671  10.735   0.398 -0.4949  1.1811 -0.9575
  689MOL0     O90817   6.631   7.954   0.162 -0.0982  1.1914 -0.0450
  689MOL0     C90818   6.601   8.071   0.185  0.9293  0.0412 -0.6198
  689MOL0     O90819   6.486   8.113   0.242 -0.6134  0.5658  0.3630
  689MOL0     C90820   6.391   8.025   0.277  0.1629  0.2726 -0.2579
  689MOL0     C90821   6.405   7.930   0.378  0.2038  0.2843  0.5699
  689MOL0     C90822   6.289   7.863   0.430  0.2997 -0.2314  0.5721
  689MOL0     C90823   6.168   7.882   0.363 -0.0028 -0.1523 -1.1059
  689MOL0     O90824   6.047   7.843   0.418  0.4186 -0.0459 -0.0366
  689MOL0     C90825   6.023   7.827   0.559  0.2524 -0.0166  0.6392
  689MOL0     C90826   5.878   7.838   0.586 -0.2185 -0.6464  0.6183
  689MOL0     C90827   5.795   7.745   0.510 -0.0091  0.1505 -0.2076
  689MOL0     C90828   5.651   7.792   0.552 -0.2680  0.9399 -0.4819
  689MOL0     C90829   5.534   7.721   0.467  0.7367 -0.3894 -0.1080
  689MOL0     C90830   5.460   7.603   0.536 -0.7708  0.9037  0.4858
  689MOL0     C90831   5.553   7.482   0.533  0.8797  0.4625 -0.8040
  689MOL0     C90832   5.502   7.377   0.636 -0.1190  0.0513 -0.2750
  689MOL0     N90833   5.582   7.254   0.631  0.0146 -0.1245 -0.6169
  689MOL0     C90834   5.568   7.139   0.557 -0.3874  0.4789  0.4502
  689MOL0     C90835   5.671   7.058   0.603  0.2609 -0.3789  0.0359
  689MOL0     C90836   5.695   6.914   0.551  0.6788 -0.3000  0.3452
  689MOL0     C90837   5.830   6.856   0.584 -0.0032 -0.3770  0.0360
  689MOL0     C90838   5.860   6.737   0.502 -0.6440 -0.3147  0.4375
  689MOL0     C90839   6.007   6.702   0.529 -0.3691  0.1718  0.4914
  689MOL0     O90840   6.061   6.609   0.432 -0.7763  0.0009 -0.6109
  689MOL0     C90841   6.192   6.573   0.442 -1.4399 -0.3521 -0.4427
  689MOL0     C90842   6.289   6.631   0.528  0.1348 -0.0986 -0.7035
  689MOL0     C90843   6.425   6.595   0.520  1.3101  0.1344 -0.7122
  689MOL0     C90844   6.463   6.489   0.439 -0.3851 -0.1104 -0.2674
  689MOL0     C90845   6.603   6.454   0.423 -0.5492  0.4159  0.9562
  689MOL0     O90846   6.698   6.524   0.492 -0.0719 -0.0092 -0.9773
  689MOL0     C90847   6.835   6.515   0.462 -0.1048  0.0813  0.5104
  689MOL0     C90848   6.920   6.515   0.574 -0.1479  0.6587  1.0980
  689MOL0     C90849   7.061   6.507   0.550  0.1577 -0.3983  0.3847
  689MOL0     C90850   7.113   6.506   0.412 -0.3787 -0.6829 -0.5303
  689MOL0     O90851   7.247   6.495   0.391  0.4562 -0.5854  0.8816
  689MOL0     C90852   7.308   6.511   0.259  0.5037 -1.1602  0.0121
  689MOL0     C90853   7.456   6.456   0.288  0.0055 -0.2619  0.9972
  689MOL0     C90854   7.534   6.483   0.157  0.4109  0.4394  0.5519
  689MOL0     C90855   7.671   6.426   0.163 -0.6193 -0.0849  1.1091
  689MOL0     C90856   7.757   6.471   0.037  0.0147 -0.2243 -0.2663
  689MOL0     C90857   7.701   6.419  -0.086  1.1393  0.3457  0.0267
  689MOL0     C90858   7.795   6.435  -0.203  1.0775  1.3426 -0.6730
  689MOL0     C90859   7.731   6.360  -0.321  0.4282  0.5397 -0.2041
  689MOL0    Cl90860   7.748   6.173  -0.288  0.2210  0.2256  0.1536
  689MOL0     C90861   7.023   6.497   0.303  0.3621 -0.0521  0.1131
  689MOL0     C90862   6.888   6.494   0.327  0.6501 -0.1769 -0.1321
  689MOL0     O90863   6.629   6.369   0.341  0.0502  0.2323 -0.3325
  689MOL0     C90864   6.361   6.426   0.360  0.0835  0.6514  0.0425
  689MOL0     C90865   6.228   6.465   0.361 -0.8663 -0.0576  0.6106
  689MOL0     N90866   5.731   7.122   0.708 -0.5488  0.5895  0.2777
  689MOL0     N90867   5.680   7.236   0.721 -0.4547 -0.4148 -0.2820
  689MOL0     C90868   6.155   7.979   0.271  0.5464 -0.0276 -0.3945
  689MOL0     C90869   6.264   8.053   0.220  0.0721 -0.3177 -0.3916
  689MOL0     C90870   6.696   8.178   0.156 -0.8809 -0.2437 -1.1067
  689MOL0     C90871   6.806   8.162   0.064 -0.5839 -1.0966 -0.1445
  689MOL0     C90872   6.896   8.267   0.051  0.5277 -0.0050  0.1740
  689MOL0     C90873   6.894   8.385   0.131 -0.0189  0.1566 -0.0340
  689MOL0     O90874   6.998   8.475   0.135 -0.2634  0.4913 -0.2923
  689MOL0     C90875   7.074   8.477   0.014 -0.3366  0.2402 -0.5598
  689MOL0     C90876   7.190   8.561   0.050  0.1778  0.5622  0.4262
  689MOL0     C90877   7.279   8.525   0.171 -0.5034 -0.1586  1.0282
  689MOL0     C90878   7.400   8.621   0.189 -0.1790  0.3921 -0.8701
  689MOL0     C90879   7.505   8.616   0.081  1.0443  0.1992 -0.6037
  689MOL0     C90880   7.587   8.637  -0.003 -0.2677 -0.6713 -0.2125
  689MOL0     C90881   6.782   8.401   0.215 -0.2414  0.5276  0.1435
  689MOL0     C90882   6.688   8.297   0.226  0.6654  0.4092 -0.3397
  689MOL0     H90883   6.500   7.921   0.430 -0.0997 -0.7070  0.9853
  689MOL0     H90884   6.290   7.800   0.518  0.2334  1.1836  1.6118
  689MOL0     H90885   6.083   7.896   0.619  0.6107 -0.5492  0.9104
  689MOL0     H90886   6.058   7.725   0.581 -0.7435  0.1384  3.3224
  689MOL0     H90887   5.837   7.939   0.578 -1.1585 -1.1343 -2.1337
  689MOL0     H90888   5.861   7.815   0.691 -1.8658 -0.1750  0.4826
  689MOL0     H90889   5.829   7.643   0.532  3.3928  1.2757  0.4845
  689MOL0     H90890   5.799   7.760   0.402 -2.1306 -1.4478 -0.5622
  689MOL0     H90891   5.613   7.764   0.651  0.9534 -1.5740 -0.6464
  689MOL0     H90892   5.643   7.898   0.528  2.0592  1.6649  1.5943
  689MOL0     H90893   5.564   7.700   0.364  1.0856  1.0117 -0.3166
  689MOL0     H90894   5.445   7.785   0.458 -1.6652 -3.1133  2.1812
  689MOL0     H90895   5.367   7.575   0.485 -1.2174  2.3909  0.4473
  689MOL0     H90896   5.428   7.628   0.638 -1.2293  1.4825  0.2067
  689MOL0     H90897   5.547   7.437   0.434  1.8838 -0.0185 -0.6554
  689MOL0     H90898   5.656   7.506   0.562  1.2297 -1.9974  0.2493
  689MOL0     H90899   5.399   7.350   0.611  0.1216 -3.0495  1.6003
  689MOL0     H90900   5.502   7.415   0.738  0.5824  1.7532 -0.8738
  689MOL0     H90901   5.491   7.133   0.480 -1.2825  4.4628  0.8449
  689MOL0     H90902   5.677   6.911   0.443  1.2664  2.6321  0.0790
  689MOL0     H90903   5.622   6.844   0.593  2.2400 -0.4164  3.1099
  689MOL0     H90904   5.822   6.827   0.690 -1.0855 -1.7517 -0.3947
  689MOL0     H90905   5.913   6.926   0.570 -0.3673  0.1894  0.6589
  689MOL0     H90906   5.789   6.661   0.534 -2.1602  0.6545 -0.4794
  689MOL0     H90907   5.843   6.748   0.395 -1.8347 -2.2122  0.3910
  689MOL0     H90908   6.014   6.659   0.629 -1.8925  2.7288  1.8194
  689MOL0     H90909   6.062   6.796   0.535  0.2329 -0.1898  0.7232
  689MOL0     H90910   6.265   6.724   0.579 -1.2330  1.6779 -4.2730
  689MOL0     H90911   6.498   6.656   0.572  4.2625 -2.7750 -1.1509
  689MOL0     H90912   6.884   6.497   0.675  0.7059 -3.2220  0.9038
  689MOL0     H90913   7.129   6.498   0.634 -0.9324  1.7475  1.5647
  689MOL0     H90914   7.301   6.619   0.242 -0.2770 -1.1564  0.3391
  689MOL0     H90915   7.247   6.457   0.185 -3.7542 -0.2186  2.5149
  689MOL0     H90916   7.459   6.351   0.321  2.6999 -0.8394 -0.7623
  689MOL0     H90917   7.494   6.509   0.376 -1.9893  1.6469  0.7846
  689MOL0     H90918   7.543   6.588   0.126 -1.8535  0.6488  0.4237
  689MOL0     H90919   7.480   6.433   0.076  3.3498  0.4371 -1.5555
  689MOL0     H90920   7.718   6.460   0.256  0.7150 -1.0489  0.8183
  689MOL0     H90921   7.674   6.318   0.179  0.4027  0.0199  1.7855
  689MOL0     H90922   7.859   6.435   0.054  0.3007  1.3076  1.6555
  689MOL0     H90923   7.761   6.580   0.026 -0.4255 -0.3170 -1.5105
  689MOL0     H90924   7.610   6.471  -0.118 -1.5664 -1.3210  4.1904
  689MOL0     H90925   7.669   6.318  -0.060 -0.1955  0.5822 -0.5903
  689MOL0     H90926   7.790   6.542  -0.227  1.8284  1.9340  1.5721
  689MOL0     H90927   7.894   6.396  -0.177  0.0502 -1.4613 -0.6071
  689MOL0     H90928   7.770   6.400  -0.415  0.0992  3.2769  0.7081
  689MOL0     H90929   7.624   6.381  -0.325  0.2103 -0.4859 -0.0310
  689MOL0     H90930   7.063   6.474   0.205  0.2886  1.2455 -0.2429
  689MOL0     H90931   6.815   6.489   0.247  1.9544 -1.3898 -1.3007
  689MOL0     H90932   6.393   6.355   0.284 -2.8894  0.9251 -1.6614
  689MOL0     H90933   6.148   6.426   0.299 -0.8178  1.9481 -0.8208
  689MOL0     H90934   6.052   8.013   0.262  1.1748  2.3551  0.5197
  689MOL0     H90935   6.258   8.132   0.146 -1.4841  0.0750  0.1329
  689MOL0     H90936   6.829   8.070   0.011  0.6589 -0.9554  0.1106
  689MOL0     H90937   6.978   8.252  -0.019  1.4314  0.9891  0.9887
  689MOL0     H90938   7.020   8.506  -0.077  1.6319 -0.1866 -1.9363
  689MOL0     H90939   7.126   8.382  -0.006  1.5013  1.3909 -1.5029
  689MOL0     H90940   7.256   8.571  -0.037  3.1301  0.7329  2.5333
  689MOL0     H90941   7.146   8.658   0.076 -2.3112 -0.3624 -0.0443
  689MOL0     H90942   7.328   8.432   0.141 -0.7827  0.4821 -1.6213
  689MOL0     H90943   7.231   8.516   0.269 -0.2616  0.4055  1.2023
  689MOL0     H90944   7.373   8.727   0.196  0.8129  0.5862  0.2537
  689MOL0     H90945   7.455   8.600   0.281 -1.0313  2.6931  0.2637
  689MOL0     H90946   7.657   8.658  -0.082  0.2385  1.2709  0.6863
  689MOL0     H90947   6.772   8.492   0.273  0.7539  1.3457 -0.9158
  689MOL0     H90948   6.605   8.305   0.296 -0.0448 -0.8130 -1.0239
  690MOL0     O90949   8.923   1.133  10.499  1.0834 -0.1750  0.2210
  690MOL0     C90950   8.939   1.033  10.416 -0.7060 -0.1961  0.0047
  690MOL0     O90951   8.853   0.935  10.389  0.0133  0.0111 -0.4930
  690MOL0     C90952   8.735   0.937  10.470 -0.8789 -0.9797 -0.4176
  690MOL0     C90953   8.617   0.936  10.403 -0.4015  0.8315 -0.9662
  690MOL0     C90954   8.495   0.936  10.469  0.6027  0.2870  0.8463
  690MOL0     C90955   8.492   0.923  10.607  0.2761 -0.5433 -0.2810
  690MOL0     O90956   8.369   0.918  10.671 -0.3158  0.2997  0.2361
  690MOL0     C90957   8.360   0.976  10.795 -0.3360  0.4373  0.0219
  690MOL0     C90958   8.263   0.892  10.878  0.4944  0.3478 -0.5882
  690MOL0     C90959   8.320   0.875  11.019 -0.7206  0.5103  0.4407
  690MOL0     C90960   8.224   0.796  11.119  0.5870 -0.0774 -0.0714
  690MOL0     C90961   8.073   0.851  11.122 -0.0553  0.2303 -0.2207
  690MOL0     C90962   8.064   1.002  11.156 -0.0638 -0.5295 -0.8004
  690MOL0     C90963   8.109   1.029  11.298 -0.1421  0.4858 -0.9556
  690MOL0     C90964   8.125   1.182  11.324  0.0093 -0.1207  0.1269
  690MOL0     N90965   8.185   1.198  11.456 -0.4905  0.7417  0.1227
  690MOL0     C90966   8.312   1.179  11.496  0.0855 -0.6201 -0.5105
  690MOL0     C90967   8.334   1.274  11.600  0.1707 -0.1032 -0.9778
  690MOL0     C90968   8.451   1.315  11.683  0.0373  0.3367  0.2282
  690MOL0     C90969   8.464   1.472  11.684 -0.5526  0.2664 -0.1027
  690MOL0     C90970   8.446   1.549  11.557  0.4149 -0.4808  0.2509
  690MOL0     C90971   8.479   1.699  11.559 -0.4683  0.2413 -0.3027
  690MOL0     O90972   8.616   1.716  11.595  0.3380 -0.1352  0.6497
  690MOL0     C90973   8.710   1.672  11.507  0.4473 -0.4625 -0.5281
  690MOL0     C90974   8.818   1.608  11.563  0.1577 -0.5188  0.0724
  690MOL0     C90975   8.937   1.575  11.490  0.7485 -0.0139 -0.0894
  690MOL0     C90976   8.934   1.584  11.355  0.6724 -0.2378 -0.7378
  690MOL0     C90977   9.053   1.557  11.265  0.1205 -0.2087 -0.6584
  690MOL0     O90978   9.169   1.514  11.338  0.5818 -0.1859 -0.2927
  690MOL0     C90979   9.267   1.446  11.263 -0.7044 -0.5855 -0.1285
  690MOL0     C90980   9.401   1.455  11.315 -0.2861 -0.8532 -0.4004
  690MOL0     C90981   9.517   1.412  11.247  0.2469 -0.3232  0.4651
  690MOL0     C90982   9.497   1.364  11.116 -0.1409  0.0712  0.3916
  690MOL0     O90983   9.599   1.326  11.031 -0.1783  0.5434 -0.4576
  690MOL0     C90984   9.713   1.410  11.048  0.0344 -0.1232  0.5567
  690MOL0     C90985   9.788   1.413  10.921 -0.3321 -0.9204 -0.2991
  690MOL0     C90986   9.809   1.275  10.854 -0.4999 -0.7540 -0.9627
  690MOL0     C90987   9.886   1.305  10.718  0.7940 -0.3422 -0.8408
  690MOL0     C90988   9.903   1.167  10.653  0.7831  0.1254 -0.3424
  690MOL0     C90989   9.981   1.181  10.527  1.0476 -0.1910 -0.0358
  690MOL0     C90990   9.977   1.079  10.415  0.4146 -0.3067 -0.0546
  690MOL0     C90991   9.830   1.074  10.369 -0.3631  0.4324  0.3523
  690MOL0    Cl90992   9.810   0.947  10.232  0.2693 -0.5377 -0.1918
  690MOL0     C90993   9.367   1.345  11.070 -0.3704  0.9039  0.3114
  690MOL0     C90994   9.257   1.387  11.146  0.6950 -0.3452 -0.2814
  690MOL0     O90995   9.039   1.581  11.146  0.0418  0.3500  0.0187
  690MOL0     C90996   8.820   1.630  11.285 -0.2217 -0.6902  0.1244
  690MOL0     C90997   8.714   1.678  11.372  0.7009 -0.3902 -0.7271
  690MOL0     N90998   8.204   1.308  11.649  1.0584  0.4889  0.5508
  690MOL0     N90999   8.122   1.263  11.560 -0.1033 -0.1448  0.4544
  690MOL0     C91000   8.608   0.909  10.677 -0.5046  0.3513 -0.8700
  690MOL0     C91001   8.736   0.924  10.612  0.9750  0.1461  0.0928
  690MOL0     C91002   9.074   1.013  10.348  1.0197 -0.4815 -0.8628
  690MOL0     C91003   9.172   1.106  10.351 -0.7371  0.0837 -0.0130
  690MOL0     C91004   9.292   1.080  10.282  0.3594  0.3827 -0.3448
  690MOL0     C91005   9.312   0.965  10.209 -0.3737  0.2691 -0.3861
  690MOL0     O91006   9.438   0.952  10.149  0.1278  0.1704  0.1630
  690MOL0     C91007   9.470   0.854  10.054 -0.5429 -0.3868 -0.1288
  690MOL0     C91008   9.440   0.913   9.913  0.0253 -0.0143  0.4992
  690MOL0     C91009   9.297   0.875   9.877 -0.7113 -0.3296 -0.5407
  690MOL0     C91010   9.243   0.948   9.749 -0.0684 -0.3522  0.0705
  690MOL0     C91011   9.131   0.884   9.680 -0.7577  0.1979  0.2564
  690MOL0     C91012   9.051   0.832   9.604  0.3721 -0.3098  0.1066
  690MOL0     C91013   9.214   0.867  10.210  0.5746 -0.3375  0.3567
  690MOL0     C91014   9.089   0.896  10.265 -0.3031  0.2753  0.4139
  690MOL0     H91015   8.619   0.924  10.295  1.6631  0.1090 -0.8876
  690MOL0     H91016   8.400   0.935  10.416  1.2427  0.0740 -0.3466
  690MOL0     H91017   8.315   1.074  10.781 -0.3938  0.1698 -1.8640
  690MOL0     H91018   8.449   0.999  10.855 -1.4304 -0.7700  2.2199
  690MOL0     H91019   8.242   0.797  10.829  0.3603  1.0326 -1.9175
  690MOL0     H91020   8.170   0.950  10.886 -0.4898 -1.4723  4.7772
  690MOL0     H91021   8.350   0.972  11.059  2.0235  0.1662 -0.5536
  690MOL0     H91022   8.413   0.818  11.007 -0.7744  0.6974 -1.0542
  690MOL0     H91023   8.214   0.690  11.096  0.2057 -0.0895  0.1494
  690MOL0     H91024   8.273   0.788  11.216  1.9113 -1.3280 -0.8160
  690MOL0     H91025   8.010   0.795  11.192 -0.5782  0.6027 -0.3837
  690MOL0     H91026   8.029   0.834  11.023  3.3948 -0.4985 -1.7453
  690MOL0     H91027   7.960   1.033  11.138  0.1860  0.8116 -0.0846
  690MOL0     H91028   8.120   1.064  11.085 -0.1306  0.3831 -0.0837
  690MOL0     H91029   8.041   0.992  11.375  1.2360  0.5268  0.3374
  690MOL0     H91030   8.211   0.999  11.325 -0.2875  2.1260  1.7885
  690MOL0     H91031   8.023   1.219  11.317 -0.8640 -2.1117  1.4607
  690MOL0     H91032   8.193   1.224  11.250 -0.7349 -3.2779 -2.5293
  690MOL0     H91033   8.394   1.141  11.437  1.6510 -0.1182  1.2326
  690MOL0     H91034   8.544   1.262  11.662 -1.7124 -2.3368 -1.2761
  690MOL0     H91035   8.434   1.295  11.789 -2.0203 -1.1468 -0.3193
  690MOL0     H91036   8.558   1.495  11.734 -1.6182  4.0568  0.4557
  690MOL0     H91037   8.387   1.508  11.753 -0.5305  1.8885 -0.8782
  690MOL0     H91038   8.517   1.509  11.484  1.7085  0.9613  0.6588
  690MOL0     H91039   8.342   1.549  11.523  0.8008 -1.9004 -1.0704
  690MOL0     H91040   8.410   1.739  11.635  1.8099 -2.2925  3.4727
  690MOL0     H91041   8.470   1.755  11.466 -0.4259 -0.7842 -0.9333
  690MOL0     H91042   8.814   1.585  11.669  1.4840  1.6821  0.6768
  690MOL0     H91043   9.029   1.538  11.534  1.6619  1.7298 -0.4406
  690MOL0     H91044   9.416   1.507  11.409  0.6831  1.0706 -1.5665
  690MOL0     H91045   9.614   1.416  11.296 -0.9225  0.3412  2.8843
  690MOL0     H91046   9.769   1.359  11.127 -3.1637 -0.6962  2.6091
  690MOL0     H91047   9.693   1.513  11.080  0.8452  0.5899 -1.0934
  690MOL0     H91048   9.887   1.456  10.939 -1.1315 -0.1020  2.6402
  690MOL0     H91049   9.733   1.480  10.853  1.0384 -0.7124 -1.2319
  690MOL0     H91050   9.709   1.237  10.830 -0.9569  0.5427 -1.2051
  690MOL0     H91051   9.859   1.199  10.914 -1.4170 -0.4922  0.1709
  690MOL0     H91052   9.832   1.375  10.655 -2.2127 -2.9909 -1.4723
  690MOL0     H91053   9.985   1.346  10.741  0.1719  1.3452 -1.0352
  690MOL0     H91054   9.799   1.140  10.631  1.3990 -0.5930 -2.6088
  690MOL0     H91055   9.950   1.104  10.730 -2.9264  2.1971  4.1605
  690MOL0     H91056  10.087   1.183  10.552  0.1684 -3.7844  6.2046
  690MOL0     H91057   9.943   1.272  10.480 -0.6696 -0.5061  0.6486
  690MOL0     H91058  10.044   1.113  10.335  0.6198  3.0044  1.3582
  690MOL0     H91059  10.020   0.984  10.448  1.1920  0.4769  1.2922
  690MOL0     H91060   9.808   1.177  10.336  0.1579  0.9226  1.5037
  690MOL0     H91061   9.763   1.048  10.451 -0.3528  3.0024  1.2633
  690MOL0     H91062   9.360   1.299  10.972 -0.5228 -2.0311  1.5991
  690MOL0     H91063   9.159   1.354  11.114  0.1374 -0.4665  1.4048
  690MOL0     H91064   8.821   1.652  11.179  1.2464 -1.2346 -0.0009
  690MOL0     H91065   8.643   1.744  11.322  0.7470  0.5003  0.3491
  690MOL0     H91066   8.597   0.901  10.784 -0.1148 -1.5197 -0.9279
  690MOL0     H91067   8.830   0.940  10.663  0.8934  1.2534 -0.0904
  690MOL0     H91068   9.158   1.193  10.414  0.6795  0.6218 -0.4129
  690MOL0     H91069   9.373   1.151  10.301  1.7153 -1.5912  1.7704
  690MOL0     H91070   9.406   0.767  10.066  2.0475 -2.6366 -1.4752
  690MOL0     H91071   9.575   0.826  10.068  0.5368  2.4730 -1.5113
  690MOL0     H91072   9.457   1.021   9.911  2.9705 -0.3905 -1.5256
  690MOL0     H91073   9.509   0.870   9.839  1.6883 -1.5267  2.8020
  690MOL0     H91074   9.227   0.906   9.955 -0.9225 -0.0550 -0.8380
  690MOL0     H91075   9.288   0.766   9.880  0.6280 -0.4452  0.5013
  690MOL0     H91076   9.204   1.046   9.777  1.9933 -0.1890  2.8014
  690MOL0     H91077   9.323   0.965   9.677  4.4483  0.3917  4.6593
  690MOL0     H91078   8.990   0.791   9.526 -2.6127  2.9631  0.4843
  690MOL0     H91079   9.231   0.770  10.164  1.4635 -0.7675  1.5171
  690MOL0     H91080   9.006   0.837  10.229 -0.7696  1.7135 -0.9866
  691MOL0     O91081   2.212   1.067   2.727 -0.0752  0.3916  0.7794
  691MOL0     C91082   2.192   0.942   2.727 -0.7388  0.0450  0.2539
  691MOL0     O91083   2.067   0.886   2.760 -1.3762  0.1623  0.3820
  691MOL0     C91084   1.972   0.968   2.810 -0.1329  0.1824  0.4641
  691MOL0     C91085   1.855   0.975   2.741  0.4958 -0.9426  1.0578
  691MOL0     C91086   1.744   1.058   2.788 -0.5262  0.9581  0.5920
  691MOL0     C91087   1.756   1.131   2.908 -0.6351 -0.1122 -0.1947
  691MOL0     O91088   1.665   1.218   2.966 -0.6125  0.0514  0.1055
  691MOL0     C91089   1.555   1.259   2.885 -0.1158  0.0125 -0.4621
  691MOL0     C91090   1.593   1.367   2.787  0.1499 -0.1609  0.0838
  691MOL0     C91091   1.479   1.467   2.759  0.2562 -0.4972 -0.7655
  691MOL0     C91092   1.368   1.412   2.678  0.7127 -1.2491 -0.2148
  691MOL0     C91093   1.242   1.513   2.664 -0.7776  0.0084  0.1455
  691MOL0     C91094   1.159   1.515   2.791 -0.2993  0.6004  0.2253
  691MOL0     C91095   1.023   1.575   2.770  0.0701  0.1080  0.4691
  691MOL0     C91096   1.017   1.726   2.760  0.4257 -0.9843  0.3022
  691MOL0     N91097   1.055   1.790   2.884 -0.3335 -0.3830 -0.3621
  691MOL0     C91098   0.970   1.811   2.994 -0.5621 -0.4958  0.2119
  691MOL0     C91099   1.041   1.882   3.084  0.7716 -0.7380  0.3013
  691MOL0     C91100   1.009   1.903   3.224 -0.1471  0.8053 -0.0520
  691MOL0     C91101   0.945   2.033   3.272  0.7806  1.1460 -0.1371
  691MOL0     C91102   1.052   2.139   3.298  0.3242 -0.5992 -0.4260
  691MOL0     C91103   0.993   2.285   3.289 -0.2944 -0.3898 -0.0400
  691MOL0     O91104   0.893   2.318   3.386 -0.2000  0.2676  0.0513
  691MOL0     C91105   0.841   2.448   3.382 -0.0251  0.6694 -0.0359
  691MOL0     C91106   0.730   2.472   3.469 -0.5261 -0.2366 -0.4710
  691MOL0     C91107   0.671   2.599   3.465  0.0003 -0.1980 -0.1130
  691MOL0     C91108   0.716   2.697   3.383  0.6069 -1.2469 -0.1478
  691MOL0     C91109   0.651   2.830   3.372 -0.4765  0.2890 -1.4855
  691MOL0     O91110   0.537   2.849   3.446 -0.3123  0.6285  0.3674
  691MOL0     C91111   0.467   2.958   3.432 -0.4137 -0.1786  0.5830
  691MOL0     C91112   0.347   2.947   3.494  0.4869 -0.1446  0.2526
  691MOL0     C91113   0.249   3.047   3.497 -0.2006 -0.4169 -0.3215
  691MOL0     C91114   0.274   3.169   3.439 -0.9869 -0.4458  0.5433
  691MOL0     O91115   0.172   3.265   3.449  0.2400  0.5298 -0.4576
  691MOL0     C91116   0.189   3.395   3.380  0.2476  0.1677 -0.3090
  691MOL0     C91117   0.065   3.475   3.390  0.6404  0.5682 -0.2545
  691MOL0     C91118   0.057   3.561   3.522 -0.6328 -0.5121  0.1954
  691MOL0     C91119  -0.090   3.609   3.543  0.8336  0.4489  0.7595
  691MOL0     C91120  -0.112   3.662   3.686 -0.8487 -0.4507 -0.1332
  691MOL0     C91121  -0.254   3.691   3.714  0.1792 -0.4981 -0.5824
  691MOL0     C91122  -0.291   3.752   3.859  0.6112  0.6252  0.3558
  691MOL0     C91123  -0.443   3.752   3.862  0.1821  0.3190 -0.0275
  691MOL0    Cl91124  -0.523   3.849   3.736  0.0966 -0.3207  0.4659
  691MOL0     C91125   0.403   3.189   3.383  0.3932 -0.2566  0.3040
  691MOL0     C91126   0.497   3.085   3.382 -0.4341 -0.7102 -0.7941
  691MOL0     O91127   0.707   2.913   3.298  0.2705  0.3040  0.5540
  691MOL0     C91128   0.823   2.673   3.298  0.5247 -0.1620 -0.6643
  691MOL0     C91129   0.892   2.550   3.298 -0.0292 -0.0303  0.8481
  691MOL0     N91130   1.168   1.898   3.029 -0.1623 -0.1546 -0.0370
  691MOL0     N91131   1.178   1.845   2.913  0.7978  0.5275  0.7126
  691MOL0     C91132   1.881   1.135   2.967 -0.4210  0.2902  0.6640
  691MOL0     C91133   1.983   1.053   2.918  0.2088  0.0593 -0.7459
  691MOL0     C91134   2.305   0.857   2.674 -0.0689  0.4095  1.1075
  691MOL0     C91135   2.297   0.719   2.648 -0.9611  0.6481  0.0690
  691MOL0     C91136   2.402   0.641   2.597  0.1516  0.1840 -0.2883
  691MOL0     C91137   2.520   0.704   2.570  1.0378 -0.0055  0.2182
  691MOL0     O91138   2.616   0.615   2.533  0.3983  0.3675 -0.6201
  691MOL0     C91139   2.747   0.664   2.506  0.5329 -0.4279  0.3636
  691MOL0     C91140   2.830   0.700   2.632 -0.4372 -0.6775 -0.8114
  691MOL0     C91141   2.968   0.768   2.600  0.1409 -0.5549 -1.1390
  691MOL0     C91142   2.970   0.893   2.509 -0.6187  1.3131 -0.7935
  691MOL0     C91143   3.106   0.953   2.495 -0.2569 -0.1734 -0.4411
  691MOL0     C91144   3.202   1.023   2.506  0.0089  0.1176 -0.1604
  691MOL0     C91145   2.535   0.843   2.588  0.4714  0.9092 -0.0229
  691MOL0     C91146   2.434   0.916   2.646  0.6541 -0.5296  0.2809
  691MOL0     H91147   1.839   0.925   2.646  1.5933  0.8826 -0.1547
  691MOL0     H91148   1.651   1.067   2.731 -0.7376  1.7709  1.0538
  691MOL0     H91149   1.475   1.309   2.941 -1.7663  2.4518 -4.4951
  691MOL0     H91150   1.497   1.175   2.845 -0.7145  1.0362 -1.8690
  691MOL0     H91151   1.627   1.314   2.698 -0.2454 -0.4955  0.1308
  691MOL0     H91152   1.676   1.428   2.825 -0.4074 -0.4675  1.9213
  691MOL0     H91153   1.523   1.549   2.701 -0.2644  1.2534  1.1746
  691MOL0     H91154   1.440   1.511   2.852 -2.0921  0.3964 -2.0699
  691MOL0     H91155   1.406   1.391   2.577  0.4676  3.0422 -1.3755
  691MOL0     H91156   1.326   1.318   2.717 -1.0734 -1.0198 -1.4662
  691MOL0     H91157   1.180   1.448   2.601 -1.3737 -0.4054  1.1421
  691MOL0     H91158   1.258   1.611   2.618 -0.2292  0.4375  1.2194
  691MOL0     H91159   1.216   1.569   2.868 -0.6331  1.0989  0.1233
  691MOL0     H91160   1.154   1.411   2.826 -2.3878  1.0442  1.3790
  691MOL0     H91161   0.973   1.544   2.678 -0.8969  1.9818  0.3067
  691MOL0     H91162   0.954   1.552   2.853 -0.7140 -1.8305 -0.6495
  691MOL0     H91163   0.919   1.765   2.731  1.6334  0.8296 -1.6368
  691MOL0     H91164   1.082   1.766   2.681 -1.0832 -0.2440 -0.6101
  691MOL0     H91165   0.867   1.778   3.003 -0.3528 -0.8879  1.2462
  691MOL0     H91166   1.106   1.887   3.272  0.4401 -0.2673 -1.5436
  691MOL0     H91167   0.947   1.817   3.251 -1.7879  0.8039 -3.3487
  691MOL0     H91168   0.893   2.030   3.368  0.7328 -1.0625 -0.1831
  691MOL0     H91169   0.874   2.063   3.194 -0.9572 -0.3800  0.7709
  691MOL0     H91170   1.101   2.124   3.395  2.4491  0.4949 -1.2602
  691MOL0     H91171   1.124   2.127   3.217  1.5076  0.7595  0.3711
  691MOL0     H91172   0.956   2.294   3.187 -2.1100 -0.6619  0.5615
  691MOL0     H91173   1.073   2.359   3.304 -0.3142 -0.5642  1.0121
  691MOL0     H91174   0.695   2.388   3.528 -1.6066  0.1951 -0.4707
  691MOL0     H91175   0.598   2.631   3.539  0.9498 -0.0432  0.7622
  691MOL0     H91176   0.314   2.857   3.544  0.3956  0.0234  0.4973
  691MOL0     H91177   0.156   3.044   3.552  0.3181 -0.7153  0.5649
  691MOL0     H91178   0.211   3.382   3.273 -1.4519  0.6484 -0.7510
  691MOL0     H91179   0.278   3.449   3.413  2.0965 -1.2452 -2.6434
  691MOL0     H91180  -0.028   3.417   3.384  1.0970 -0.1567 -5.3865
  691MOL0     H91181   0.068   3.539   3.301  1.5789 -0.8939 -1.3273
  691MOL0     H91182   0.124   3.646   3.539 -2.3340  1.0841 -0.6898
  691MOL0     H91183   0.068   3.506   3.616  0.2822 -0.0275  0.3841
  691MOL0     H91184  -0.128   3.677   3.466  1.5628 -0.9454 -0.9095
  691MOL0     H91185  -0.159   3.524   3.537 -0.1310  1.2777 -0.5953
  691MOL0     H91186  -0.063   3.760   3.692 -1.8949  0.0011  2.9092
  691MOL0     H91187  -0.076   3.606   3.772 -3.2673  0.1883  1.3956
  691MOL0     H91188  -0.317   3.603   3.700 -1.8582  1.0922 -2.2502
  691MOL0     H91189  -0.280   3.768   3.640 -0.0006 -0.1781 -0.1940
  691MOL0     H91190  -0.253   3.688   3.939  1.0059 -0.4637 -0.6682
  691MOL0     H91191  -0.254   3.853   3.879  2.2653  0.0042  0.5684
  691MOL0     H91192  -0.487   3.787   3.956 -2.1557 -0.6835 -0.6965
  691MOL0     H91193  -0.475   3.648   3.853  0.2805  0.3067 -0.2274
  691MOL0     H91194   0.431   3.280   3.329  0.2356 -1.4912 -1.9824
  691MOL0     H91195   0.589   3.102   3.327  0.6897  1.3702  1.4867
  691MOL0     H91196   0.857   2.761   3.243 -2.2431 -0.3656 -2.9430
  691MOL0     H91197   0.974   2.539   3.228  0.5857 -3.7997  1.9201
  691MOL0     H91198   1.899   1.208   3.044  3.4687 -1.0099  1.2263
  691MOL0     H91199   2.078   1.059   2.971 -0.3845 -1.2784  0.5372
  691MOL0     H91200   2.206   0.665   2.674  0.3024 -0.8030  1.7097
  691MOL0     H91201   2.390   0.535   2.577 -0.2442 -0.2007  1.7440
  691MOL0     H91202   2.740   0.746   2.434  2.0558 -0.2699  0.3769
  691MOL0     H91203   2.797   0.577   2.463  3.2317 -0.2231  2.7958
  691MOL0     H91204   2.767   0.755   2.703 -3.5628 -2.8085 -1.7042
  691MOL0     H91205   2.851   0.613   2.695  0.2426 -0.3146 -0.5224
  691MOL0     H91206   3.040   0.701   2.551  0.5303 -1.0950  0.1375
  691MOL0     H91207   2.999   0.800   2.700 -1.4762 -0.8240 -0.5292
  691MOL0     H91208   2.924   0.844   2.423 -4.9132  0.6225  1.5841
  691MOL0     H91209   2.902   0.970   2.549  0.6618  1.8980  0.3664
  691MOL0     H91210   3.298   1.069   2.518 -1.0787  2.5331 -0.1797
  691MOL0     H91211   2.629   0.887   2.557  0.5850  0.7604  0.1111
  691MOL0     H91212   2.455   1.021   2.664  2.3653 -0.2061 -2.8520
  692MOL0     O91213   1.422   0.576   1.107  0.5917  0.1394  0.0892
  692MOL0     C91214   1.500   0.662   1.062  0.8703 -0.1650  0.1410
  692MOL0     O91215   1.462   0.782   1.003  0.6614 -0.3833  0.3658
  692MOL0     C91216   1.327   0.810   0.994 -0.6197 -0.5020  0.6988
  692MOL0     C91217   1.244   0.734   0.914 -0.4491 -0.9486  0.3242
  692MOL0     C91218   1.107   0.752   0.906 -0.0002  0.7604 -0.8375
  692MOL0     C91219   1.049   0.846   0.991  0.7269  0.2867  0.9744
  692MOL0     O91220   0.912   0.866   0.993 -0.4761 -0.5442  0.0214
  692MOL0     C91221   0.852   0.735   1.001  0.3864 -0.2939 -0.9358
  692MOL0     C91222   0.713   0.766   1.064 -0.4552  0.0478 -0.0032
  692MOL0     C91223   0.672   0.637   1.130 -0.2911  0.1324  0.6168
  692MOL0     C91224   0.524   0.654   1.163  0.3530  0.6108 -0.3533
  692MOL0     C91225   0.486   0.515   1.230 -0.4872 -0.6583 -0.9517
  692MOL0     C91226   0.337   0.499   1.277 -0.3280 -0.7315  0.6353
  692MOL0     C91227   0.312   0.590   1.403  0.3865 -0.5971 -0.7128
  692MOL0     C91228   0.208   0.531   1.501 -0.0023 -0.1345  0.4999
  692MOL0     N91229   0.080   0.510   1.439 -0.9270 -0.6785  0.4045
  692MOL0     C91230  -0.022   0.606   1.441  0.7207  0.6242 -0.6488
  692MOL0     C91231  -0.119   0.559   1.353 -0.2881  0.4696 -0.6992
  692MOL0     C91232  -0.231   0.646   1.309  0.7302 -0.4428  0.5385
  692MOL0     C91233  -0.356   0.634   1.394 -0.0113  0.4478 -1.1998
  692MOL0     C91234  -0.338   0.710   1.523 -0.2920 -0.0409 -0.4130
  692MOL0     C91235  -0.450   0.692   1.617 -0.4318  0.1170  0.4926
  692MOL0     O91236  -0.570   0.763   1.576 -0.0896 -0.5287 -0.4211
  692MOL0     C91237  -0.678   0.722   1.652 -0.1247  0.6159 -0.0214
  692MOL0     C91238  -0.802   0.774   1.612 -0.3643 -0.5152 -0.5339
  692MOL0     C91239  -0.915   0.757   1.689  0.0604 -0.2524 -0.5798
  692MOL0     C91240  -0.912   0.691   1.812 -0.3396 -0.0815 -0.8661
  692MOL0     C91241  -1.025   0.697   1.906 -1.6552  0.4991  0.1756
  692MOL0     O91242  -1.139   0.741   1.858  0.3294 -1.4377  0.7804
  692MOL0     C91243  -1.244   0.768   1.941  0.0879 -0.4004 -0.2056
  692MOL0     C91244  -1.369   0.737   1.887 -0.6941 -0.1953  0.1189
  692MOL0     C91245  -1.488   0.781   1.948  0.2978  0.0333  0.5984
  692MOL0     C91246  -1.490   0.845   2.076  0.1358 -0.2966  0.3755
  692MOL0     O91247  -1.597   0.897   2.143  0.5763 -0.4166 -0.6503
  692MOL0     C91248  -1.702   0.939   2.053  0.4834  0.6680  0.1721
  692MOL0     C91249  -1.796   1.028   2.125  0.6349  0.4074  0.4313
  692MOL0     C91250  -1.891   1.099   2.026  0.3925 -0.6271  0.5922
  692MOL0     C91251  -1.940   1.236   2.067 -0.3126  0.6056 -0.7222
  692MOL0     C91252  -2.059   1.295   1.992  0.4785  0.7364 -1.0470
  692MOL0     C91253  -2.190   1.225   2.018 -0.1078 -0.5266  0.8310
  692MOL0     C91254  -2.300   1.273   1.926 -0.2956 -0.4415 -0.2850
  692MOL0     C91255  -2.436   1.215   1.944 -0.3854  0.5973 -0.3865
  692MOL0    Cl91256  -2.549   1.270   1.808  0.6282 -0.7714  0.8228
  692MOL0     C91257  -1.370   0.863   2.133  0.5963  0.3763  0.3562
  692MOL0     C91258  -1.247   0.828   2.071 -1.0016 -0.1955  0.7838
  692MOL0     O91259  -0.999   0.674   2.024 -0.3564 -0.0723  0.1265
  692MOL0     C91260  -0.794   0.618   1.840  0.4066 -0.0042  0.0510
  692MOL0     C91261  -0.684   0.633   1.759 -0.2308  0.2250 -0.3150
  692MOL0     N91262  -0.072   0.443   1.297 -0.1498 -0.0401 -0.6081
  692MOL0     N91263   0.041   0.412   1.351 -0.3751 -0.4902 -1.1578
  692MOL0     C91264   1.135   0.922   1.076 -0.1910 -0.2636  0.9343
  692MOL0     C91265   1.274   0.908   1.071  0.9389 -0.5408  0.0140
  692MOL0     C91266   1.638   0.629   1.079 -0.0594 -0.4980 -0.3671
  692MOL0     C91267   1.688   0.509   1.138  0.0220  0.6836 -0.9806
  692MOL0     C91268   1.824   0.485   1.159  0.6690 -0.8259  0.8404
  692MOL0     C91269   1.916   0.575   1.109 -0.3587  1.0002  0.1329
  692MOL0     O91270   2.043   0.543   1.127 -0.3227 -0.5186  0.3308
  692MOL0     C91271   2.145   0.606   1.057  0.1430 -0.0893 -0.4223
  692MOL0     C91272   2.252   0.507   1.051 -0.5702  0.5229 -0.5543
  692MOL0     C91273   2.379   0.572   0.987 -0.1034  0.8014  0.5115
  692MOL0     C91274   2.471   0.461   0.957  0.4879  0.1542  1.0889
  692MOL0     C91275   2.597   0.515   0.897 -0.2043 -0.2789  0.3622
  692MOL0     C91276   2.702   0.572   0.860 -0.5436  0.0756 -0.5831
  692MOL0     C91277   1.871   0.689   1.044 -0.0250 -0.2435  0.2100
  692MOL0     C91278   1.733   0.720   1.022 -0.0312 -0.2273 -0.4323
  692MOL0     H91279   1.302   0.660   0.858 -1.7425 -0.7927 -1.2798
  692MOL0     H91280   1.039   0.701   0.839 -0.4496  0.6208 -0.2802
  692MOL0     H91281   0.912   0.657   1.050  1.8049  2.1437  1.4995
  692MOL0     H91282   0.828   0.702   0.899 -0.4928  3.9482 -2.3003
  692MOL0     H91283   0.641   0.796   0.988 -0.6250  1.0807  0.5504
  692MOL0     H91284   0.726   0.841   1.142  2.8437  0.8438 -1.1473
  692MOL0     H91285   0.734   0.627   1.219 -1.9805 -0.1150  1.8256
  692MOL0     H91286   0.694   0.554   1.062  0.6571  3.1335 -3.0807
  692MOL0     H91287   0.513   0.735   1.236  2.9558  0.9487 -0.2257
  692MOL0     H91288   0.454   0.662   1.079  0.6527  0.0278 -0.6614
  692MOL0     H91289   0.554   0.488   1.311 -1.0403  0.3562 -0.1228
  692MOL0     H91290   0.505   0.435   1.158  0.7480 -0.8772 -0.3883
  692MOL0     H91291   0.310   0.395   1.297  0.7353 -1.0908  0.2892
  692MOL0     H91292   0.277   0.530   1.192  1.0861  1.2722  0.3060
  692MOL0     H91293   0.406   0.610   1.456  0.3713  1.0020 -1.2497
  692MOL0     H91294   0.262   0.680   1.368 -3.3098 -2.1902  0.0035
  692MOL0     H91295   0.189   0.587   1.593 -0.4757 -0.3984  0.5700
  692MOL0     H91296   0.242   0.433   1.538 -1.0113 -0.5943  0.2541
  692MOL0     H91297  -0.024   0.694   1.504  0.0532 -0.6199  1.1780
  692MOL0     H91298  -0.244   0.608   1.207  2.4945 -2.0753  0.8700
  692MOL0     H91299  -0.208   0.752   1.292 -0.1139 -0.4939 -1.1864
  692MOL0     H91300  -0.378   0.527   1.404  1.4211 -0.0809 -3.1942
  692MOL0     H91301  -0.441   0.687   1.350  1.8016  3.3333 -1.5108
  692MOL0     H91302  -0.252   0.675   1.580 -3.4288 -1.5694  4.0426
  692MOL0     H91303  -0.326   0.817   1.507  1.2287 -0.3202 -1.3259
  692MOL0     H91304  -0.416   0.711   1.719  0.8332 -5.7857  1.5487
  692MOL0     H91305  -0.471   0.584   1.622  2.6887 -0.5321  3.0763
  692MOL0     H91306  -0.802   0.835   1.522 -1.9489 -0.8831 -0.8019
  692MOL0     H91307  -1.008   0.807   1.665  0.9670  2.3666  0.9491
  692MOL0     H91308  -1.359   0.697   1.787  2.1566  1.2498 -0.2830
  692MOL0     H91309  -1.581   0.752   1.900  0.9002  1.0087 -1.2846
  692MOL0     H91310  -1.754   0.852   2.012  0.1200  1.7878 -1.9402
  692MOL0     H91311  -1.652   0.998   1.975  2.3855  0.9007  1.5008
  692MOL0     H91312  -1.728   1.094   2.179  0.0784 -1.4555  3.6676
  692MOL0     H91313  -1.848   0.988   2.212  0.2906  3.1101  1.5700
  692MOL0     H91314  -1.974   1.032   2.000 -0.9929  0.4045  2.1104
  692MOL0     H91315  -1.839   1.124   1.933  1.0929  0.4933  1.2691
  692MOL0     H91316  -1.964   1.241   2.174  4.6449  2.8538  0.5671
  692MOL0     H91317  -1.854   1.303   2.063  2.0498 -1.8559  2.8897
  692MOL0     H91318  -2.033   1.294   1.886  4.0399  1.2867 -0.2943
  692MOL0     H91319  -2.061   1.400   2.023  3.6030  0.4640  0.4560
  692MOL0     H91320  -2.221   1.240   2.122  1.3568 -1.8721  1.5096
  692MOL0     H91321  -2.181   1.116   2.013 -3.6356 -0.9231  0.8281
  692MOL0     H91322  -2.316   1.379   1.947 -2.4933 -0.9120  0.7056
  692MOL0     H91323  -2.261   1.255   1.825 -1.3155 -0.1969 -0.7372
  692MOL0     H91324  -2.483   1.258   2.033 -0.2890  0.9293 -0.4928
  692MOL0     H91325  -2.445   1.107   1.958 -0.3901  0.7262  0.6761
  692MOL0     H91326  -1.379   0.920   2.225 -1.2494 -4.5235  3.6189
  692MOL0     H91327  -1.153   0.846   2.121 -1.6771  0.6015  1.8241
  692MOL0     H91328  -0.791   0.571   1.938  0.6481  0.7677  0.4176
  692MOL0     H91329  -0.590   0.589   1.792 -1.1639 -0.5169  1.5211
  692MOL0     H91330   1.094   0.997   1.142  0.2868  0.7614  0.0974
  692MOL0     H91331   1.342   0.954   1.142  0.2117 -0.4153  0.6334
  692MOL0     H91332   1.605   0.448   1.174 -0.3292  0.9834 -1.2696
  692MOL0     H91333   1.851   0.404   1.226 -0.5422 -1.2583  0.8368
  692MOL0     H91334   2.176   0.693   1.116  1.8883 -2.0591  1.7445
  692MOL0     H91335   2.108   0.624   0.955 -2.3657 -0.6183  0.3329
  692MOL0     H91336   2.281   0.468   1.149  0.5013  1.0020 -0.6668
  692MOL0     H91337   2.214   0.430   0.984 -0.5324  0.0083  0.0077
  692MOL0     H91338   2.420   0.648   1.054 -1.6011  1.0824  1.1567
  692MOL0     H91339   2.339   0.624   0.899 -0.3663 -4.6850 -3.0448
  692MOL0     H91340   2.495   0.413   1.052  0.8435 -0.6270  0.6243
  692MOL0     H91341   2.424   0.381   0.898 -1.0548  1.0638  1.0558
  692MOL0     H91342   2.785   0.638   0.843  0.3827 -0.7895  0.3757
  692MOL0     H91343   1.936   0.767   1.006 -1.8986  1.5078  0.3964
  692MOL0     H91344   1.717   0.810   0.964  1.2161 -0.5856 -1.3677
  693MOL0     O91345   1.366   8.583   9.799 -0.1475 -0.1895  0.6343
  693MOL0     C91346   1.395   8.695   9.856  0.4648  0.8185 -0.5913
  693MOL0     O91347   1.314   8.753   9.956 -0.0282  0.0816 -0.0867
  693MOL0     C91348   1.193   8.694   9.968 -0.4615  0.5797 -0.2621
  693MOL0     C91349   1.091   8.709   9.878 -0.2745 -0.1265 -0.1831
  693MOL0     C91350   0.959   8.677   9.887  0.8140  0.2188  0.0353
  693MOL0     C91351   0.917   8.626  10.005 -0.4442  0.2800 -0.4685
  693MOL0     O91352   0.785   8.585  10.000 -0.6581  0.7024 -0.5625
  693MOL0     C91353   0.748   8.506  10.111  0.1856  0.3477 -0.5132
  693MOL0     C91354   0.602   8.476  10.102 -0.0071 -0.6274  0.3332
  693MOL0     C91355   0.516   8.601  10.100 -0.3536  0.3866 -0.1548
  693MOL0     C91356   0.374   8.555  10.050  0.5086  0.8679 -1.3676
  693MOL0     C91357   0.269   8.670  10.041 -0.9215  0.6992 -0.1861
  693MOL0     C91358   0.129   8.620   9.997 -0.3287  1.1092 -1.1363
  693MOL0     C91359   0.024   8.733   9.996 -0.8352  0.5898 -0.3884
  693MOL0     C91360  -0.118   8.689   9.946 -0.3861 -0.5831 -0.4932
  693MOL0     N91361  -0.193   8.809   9.925 -0.3226  0.3353  0.8402
  693MOL0     C91362  -0.315   8.822   9.978  0.0104  0.2902  0.6161
  693MOL0     C91363  -0.347   8.950   9.983  0.7004 -0.9634 -0.2856
  693MOL0     C91364  -0.486   8.979  10.032  0.1926 -0.2694 -0.4416
  693MOL0     C91365  -0.517   9.132  10.046  0.1324  0.0303  0.2746
  693MOL0     C91366  -0.669   9.143  10.071  0.4637 -0.4100 -0.2321
  693MOL0     C91367  -0.713   9.292  10.075 -0.1512 -0.1895 -0.2498
  693MOL0     O91368  -0.853   9.301  10.107 -0.0131  0.1296 -0.2174
  693MOL0     C91369  -0.945   9.305  10.011  0.2221 -1.3202  0.2499
  693MOL0     C91370  -0.933   9.282   9.876 -1.1714 -0.4813 -0.6445
  693MOL0     C91371  -1.041   9.303   9.794 -0.0768 -0.1986  0.4503
  693MOL0     C91372  -1.168   9.330   9.847  0.0097 -0.1590  0.5564
  693MOL0     C91373  -1.292   9.347   9.769  0.2395 -1.2722 -0.6291
  693MOL0     O91374  -1.412   9.361   9.833 -0.5279  0.2890  0.2206
  693MOL0     C91375  -1.514   9.423   9.768 -0.0262  1.2305 -0.0416
  693MOL0     C91376  -1.622   9.336   9.727  0.0629 -0.9769  0.0819
  693MOL0     C91377  -1.721   9.398   9.644 -0.0013  0.3801  0.0034
  693MOL0     C91378  -1.716   9.534   9.616  0.7108  0.4776  0.2129
  693MOL0     O91379  -1.811   9.587   9.529 -0.2683  0.5859 -0.3111
  693MOL0     C91380  -1.787   9.697   9.444 -0.1033 -0.4834  0.0351
  693MOL0     C91381  -1.899   9.704   9.350 -0.0315 -0.1218 -0.0079
  693MOL0     C91382  -1.904   9.841   9.284 -0.9022 -0.0738  1.1729
  693MOL0     C91383  -2.018   9.834   9.189 -0.0517 -0.6406 -0.0464
  693MOL0     C91384  -2.011   9.948   9.082 -0.3707 -0.6478  0.4306
  693MOL0     C91385  -2.003  10.090   9.153 -0.0217 -0.8612 -0.1320
  693MOL0     C91386  -2.019  10.207   9.049 -0.1592 -1.1975 -0.9714
  693MOL0     C91387  -2.165  10.211   8.999  0.1244 -0.0497  0.4191
  693MOL0    Cl91388  -2.198  10.369   8.900 -0.0214 -0.0874 -0.3599
  693MOL0     C91389  -1.616   9.617   9.671  0.8712 -0.5574 -0.1646
  693MOL0     C91390  -1.521   9.557   9.743 -0.1355 -0.1623 -0.1768
  693MOL0     O91391  -1.275   9.364   9.647 -0.1571  0.2435 -0.0055
  693MOL0     C91392  -1.185   9.349   9.986  0.5563 -0.3792 -0.3224
  693MOL0     C91393  -1.070   9.338  10.063  0.1009  0.2504  0.0394
  693MOL0     N91394  -0.240   9.021   9.927  0.5195  0.1721  0.0531
  693MOL0     N91395  -0.144   8.935   9.893 -0.2857 -0.2014 -0.3459
  693MOL0     C91396   1.021   8.612  10.110 -0.1741  0.2061 -0.3984
  693MOL0     C91397   1.154   8.646  10.087  0.0819 -0.5153 -0.1249
  693MOL0     C91398   1.532   8.745   9.825  0.3237 -0.0851  0.5059
  693MOL0     C91399   1.610   8.691   9.729  0.2672  0.0226 -0.4803
  693MOL0     C91400   1.733   8.744   9.686 -0.0662  0.4669 -0.7741
  693MOL0     C91401   1.794   8.843   9.756 -0.4673 -0.7659 -0.0281
  693MOL0     O91402   1.921   8.879   9.719  0.9568  0.9900 -0.0959
  693MOL0     C91403   1.980   8.992   9.778  0.9761 -1.1339  0.5489
  693MOL0     C91404   2.125   8.989   9.734  0.3981 -0.3454 -0.0869
  693MOL0     C91405   2.187   9.133   9.773  0.7936 -0.5892 -0.0835
  693MOL0     C91406   2.327   9.157   9.727  0.2149  0.0351 -0.4226
  693MOL0     C91407   2.426   9.054   9.769  0.2901 -0.2490 -0.0187
  693MOL0     C91408   2.519   8.985   9.798  0.8385 -0.1685 -0.0760
  693MOL0     C91409   1.715   8.903   9.867 -0.5798  0.6418  0.6912
  693MOL0     C91410   1.587   8.855   9.898  1.1571 -0.8601  0.2565
  693MOL0     H91411   1.118   8.762   9.787  0.2279  1.6588  0.9772
  693MOL0     H91412   0.888   8.685   9.806 -0.2438  1.5439  1.0588
  693MOL0     H91413   0.764   8.570  10.197  3.3316 -0.9550 -0.0003
  693MOL0     H91414   0.817   8.423  10.128  0.8744  1.2621  1.3435
  693MOL0     H91415   0.566   8.412  10.183 -1.4107  0.6619  0.7743
  693MOL0     H91416   0.590   8.421  10.008 -0.9285  0.2237 -0.0670
  693MOL0     H91417   0.553   8.676  10.030 -2.4908  2.2927  0.6480
  693MOL0     H91418   0.502   8.645  10.199  3.0959  2.0168 -0.2431
  693MOL0     H91419   0.377   8.496   9.959  0.7075 -2.4075  0.5942
  693MOL0     H91420   0.338   8.477  10.118  1.7167  0.2952 -1.3594
  693MOL0     H91421   0.311   8.738   9.966  3.3369  0.0939  1.3420
  693MOL0     H91422   0.277   8.729  10.133  2.0494  2.4926 -1.4327
  693MOL0     H91423   0.104   8.542  10.069  1.1842 -0.0956 -1.8726
  693MOL0     H91424   0.137   8.578   9.897 -3.4484  2.4628 -2.0807
  693MOL0     H91425   0.005   8.778  10.093 -3.2885 -2.2648  0.6167
  693MOL0     H91426   0.058   8.807   9.923  0.7980  1.5722  1.2953
  693MOL0     H91427  -0.167   8.627  10.021 -0.3557  1.2789  1.1495
  693MOL0     H91428  -0.114   8.645   9.846 -1.8248  1.2484 -1.4375
  693MOL0     H91429  -0.382   8.742  10.005 -4.1048  3.1053 -0.3231
  693MOL0     H91430  -0.515   8.918  10.118 -1.8473 -1.7025 -2.0496
  693MOL0     H91431  -0.541   8.935   9.948  1.1824 -2.5375  0.0387
  693MOL0     H91432  -0.489   9.184   9.954 -1.3304  0.4915  0.0631
  693MOL0     H91433  -0.466   9.176  10.133 -0.5701  1.8747 -0.1828
  693MOL0     H91434  -0.718   9.098   9.984  0.4032  1.3458 -1.1554
  693MOL0     H91435  -0.697   9.087  10.160 -0.6398 -0.5657 -0.6623
  693MOL0     H91436  -0.681   9.331   9.978 -1.3869 -0.4261 -0.7695
  693MOL0     H91437  -0.652   9.353  10.143  1.4183 -1.3625 -0.5688
  693MOL0     H91438  -0.834   9.250   9.844 -0.5769 -0.2527  0.8835
  693MOL0     H91439  -1.037   9.274   9.690  1.0001  0.2249  0.3683
  693MOL0     H91440  -1.627   9.231   9.754  0.0338 -0.8202  0.6897
  693MOL0     H91441  -1.803   9.332   9.617  1.7290 -2.5220  1.3594
  693MOL0     H91442  -1.693   9.694   9.388  0.5037  0.1544  0.9714
  693MOL0     H91443  -1.780   9.786   9.507 -0.7877  0.3820 -1.0748
  693MOL0     H91444  -1.988   9.704   9.413  0.5943 -0.0878  0.8855
  693MOL0     H91445  -1.897   9.625   9.274  1.1868  1.6264 -1.8990
  693MOL0     H91446  -1.809   9.834   9.230 -1.5310 -3.4688  0.2041
  693MOL0     H91447  -1.914   9.918   9.360 -1.8877  1.0042 -0.0167
  693MOL0     H91448  -2.025   9.738   9.136 -3.0970  0.0654 -1.1739
  693MOL0     H91449  -2.111   9.847   9.245 -0.1546 -1.7739  0.0701
  693MOL0     H91450  -2.096   9.945   9.014 -0.2126  0.3081  0.1668
  693MOL0     H91451  -1.924   9.919   9.023 -1.7138 -2.5091 -0.7285
  693MOL0     H91452  -1.906  10.114   9.198  0.5273 -2.1998 -0.5500
  693MOL0     H91453  -2.084  10.090   9.226  0.8596  0.5088  0.9063
  693MOL0     H91454  -1.994  10.305   9.092  1.2871 -1.7136 -0.5830
  693MOL0     H91455  -1.955  10.183   8.964  0.3680 -0.3322 -0.8370
  693MOL0     H91456  -2.219  10.199   9.094  1.7090 -1.8024  1.1636
  693MOL0     H91457  -2.188  10.130   8.929  1.7102 -0.9791  0.9279
  693MOL0     H91458  -1.601   9.722   9.646  3.1198 -0.8593 -0.2635
  693MOL0     H91459  -1.448   9.622   9.789  0.4274 -3.2588  3.9194
  693MOL0     H91460  -1.276   9.383  10.035  0.9819 -0.2878  0.4215
  693MOL0     H91461  -1.086   9.347  10.170  0.3845 -1.2832  0.2246
  693MOL0     H91462   0.999   8.577  10.210 -0.9628 -0.3162 -0.7445
  693MOL0     H91463   1.228   8.610  10.157 -1.6311 -2.6710  0.7215
  693MOL0     H91464   1.585   8.598   9.679 -0.7622 -1.1640  2.0624
  693MOL0     H91465   1.795   8.693   9.612 -0.7251 -0.3828 -0.7432
  693MOL0     H91466   1.962   9.004   9.885 -3.7452  1.5280 -0.2734
  693MOL0     H91467   1.928   9.084   9.751  0.1870 -1.1548  1.8618
  693MOL0     H91468   2.167   8.903   9.787  2.3040 -0.1211 -1.1408
  693MOL0     H91469   2.136   8.970   9.627 -0.3641 -2.4078  0.1526
  693MOL0     H91470   2.164   9.154   9.878 -2.6211 -0.4079 -0.7729
  693MOL0     H91471   2.117   9.201   9.725 -0.5627 -1.7633  0.1721
  693MOL0     H91472   2.334   9.184   9.621 -1.1672  0.4324 -0.4328
  693MOL0     H91473   2.367   9.245   9.780  0.7132 -0.1357 -0.5131
  693MOL0     H91474   2.599   8.919   9.826  1.3064  0.4190  0.0195
  693MOL0     H91475   1.771   8.981   9.918 -0.4229 -0.5111  2.3733
  693MOL0     H91476   1.527   8.900   9.976  0.5522 -3.5666  1.4997
  694MOL0     O91477   5.360  10.043   4.252 -1.0746  0.3728 -0.1144
  694MOL0     C91478   5.387  10.133   4.176 -0.0281 -1.3744  1.1133
  694MOL0     O91479   5.290  10.221   4.122  0.0643  0.3539  0.2304
  694MOL0     C91480   5.153  10.223   4.147  0.4446  1.2424  0.0563
  694MOL0     C91481   5.074  10.101   4.170  0.2346 -0.3071  0.0443
  694MOL0     C91482   4.935  10.111   4.185  0.9352 -0.0600  1.0643
  694MOL0     C91483   4.865  10.234   4.187 -0.0019  0.8231  0.7314
  694MOL0     O91484   4.730  10.233   4.189 -0.6928 -0.3404  0.0724
  694MOL0     C91485   4.666  10.360   4.168 -0.3234  0.0895 -0.2192
  694MOL0     C91486   4.518  10.335   4.117 -0.8894 -0.7845  1.0341
  694MOL0     C91487   4.441  10.304   4.246  0.0520  0.5152 -0.0688
  694MOL0     C91488   4.304  10.264   4.212 -0.3263 -0.1414 -0.3778
  694MOL0     C91489   4.224  10.222   4.333 -0.3377 -0.8540  0.6088
  694MOL0     C91490   4.089  10.164   4.297 -0.4450  0.9379 -1.1222
  694MOL0     C91491   3.992  10.147   4.421 -0.3759 -0.2729  0.7148
  694MOL0     C91492   3.874  10.044   4.395 -0.5915 -1.1949  0.1891
  694MOL0     N91493   3.783  10.030   4.505 -0.3071 -0.6421 -0.2844
  694MOL0     C91494   3.825  10.013   4.637  0.6592  0.1586  0.0691
  694MOL0     C91495   3.709  10.023   4.704  0.5151  0.5671 -0.5778
  694MOL0     C91496   3.690  10.003   4.860  0.3013  0.4810 -0.0278
  694MOL0     C91497   3.739  10.117   4.947  0.7503  0.1079 -0.1039
  694MOL0     C91498   3.735  10.063   5.096 -0.2669  0.5993 -0.3239
  694MOL0     C91499   3.833  10.148   5.168  0.7181 -0.7353 -0.1437
  694MOL0     O91500   3.969  10.137   5.117 -0.1556  0.0541 -0.4353
  694MOL0     C91501   4.084  10.185   5.174  0.4458  0.4622 -0.6902
  694MOL0     C91502   4.093  10.205   5.310 -0.0610 -1.3929 -0.1939
  694MOL0     C91503   4.208  10.264   5.364  0.1262  0.0922  0.5004
  694MOL0     C91504   4.321  10.281   5.295  0.2856  0.1074  0.4302
  694MOL0     C91505   4.440  10.344   5.351 -0.6597  0.8749 -0.6379
  694MOL0     O91506   4.550  10.338   5.265 -0.6690 -0.3799  0.1757
  694MOL0     C91507   4.680  10.386   5.306  0.5818 -0.2733  0.1408
  694MOL0     C91508   4.778  10.371   5.197  0.1053 -0.1498 -0.1884
  694MOL0     C91509   4.909  10.414   5.223 -0.5660 -0.2000  0.2202
  694MOL0     C91510   4.960  10.466   5.337  0.0392 -0.5700  0.1693
  694MOL0     O91511   5.091  10.488   5.338 -0.2859 -0.8398 -0.3819
  694MOL0     C91512   5.148  10.529   5.461 -0.7106 -0.2940 -0.1076
  694MOL0     C91513   5.299  10.570   5.457  0.1999 -1.0442 -0.1727
  694MOL0     C91514   5.304  10.675   5.336  0.0525  0.8977 -0.2287
  694MOL0     C91515   5.422  10.774   5.336 -0.2484 -0.3978 -0.1097
  694MOL0     C91516   5.397  10.891   5.238 -0.1433 -0.2747 -1.7182
  694MOL0     C91517   5.527  10.932   5.181 -0.5364  0.3306 -0.9556
  694MOL0     C91518   5.507  11.022   5.067  0.1421  0.0504 -0.0050
  694MOL0     C91519   5.638  11.085   5.015  0.1216 -0.3661  0.7160
  694MOL0    Cl91520   5.616  11.197   4.876  0.1487 -0.1348  0.4186
  694MOL0     C91521   4.860  10.480   5.444 -0.0261 -0.0690 -0.2078
  694MOL0     C91522   4.727  10.444   5.425  1.0207 -0.1485  0.1551
  694MOL0     O91523   4.450  10.369   5.470  0.1381 -0.4219 -0.0528
  694MOL0     C91524   4.323  10.242   5.153 -0.5094 -0.2290 -0.5111
  694MOL0     C91525   4.196  10.209   5.097  0.6955 -0.1896  0.7018
  694MOL0     N91526   3.600  10.043   4.616 -0.3916 -0.1139  1.0083
  694MOL0     N91527   3.653  10.060   4.494  0.6249  0.0784 -0.8134
  694MOL0     C91528   4.943  10.348   4.178 -0.0546 -0.5662  0.1381
  694MOL0     C91529   5.083  10.340   4.158  0.7449  0.8483 -0.9545
  694MOL0     C91530   5.525  10.177   4.169  0.1480  0.9346  0.9144
  694MOL0     C91531   5.546  10.315   4.139 -0.5669  1.1766  0.4176
  694MOL0     C91532   5.675  10.368   4.126  0.8175 -0.7150 -0.3276
  694MOL0     C91533   5.785  10.283   4.140 -0.2843  0.3000  0.1132
  694MOL0     O91534   5.914  10.314   4.131  0.4737  0.3503 -0.0127
  694MOL0     C91535   5.944  10.447   4.099 -0.9030  0.3142  0.0172
  694MOL0     C91536   6.080  10.443   4.029 -1.2145  0.4933 -0.1083
  694MOL0     C91537   6.125  10.577   3.984 -0.1319  0.3456 -0.6826
  694MOL0     C91538   6.210  10.563   3.858  0.9953  0.5985 -1.1441
  694MOL0     C91539   6.267  10.695   3.832 -0.1702 -0.8148  0.3507
  694MOL0     C91540   6.300  10.819   3.823 -0.4528  0.1419  0.6371
  694MOL0     C91541   5.762  10.143   4.163 -0.0025 -0.4937 -0.2152
  694MOL0     C91542   5.634  10.095   4.172 -0.8449 -0.5448 -0.5794
  694MOL0     H91543   5.122  10.004   4.169  1.5667  0.3150 -1.3515
  694MOL0     H91544   4.877  10.020   4.200  0.3264  0.7575  4.5904
  694MOL0     H91545   4.719  10.417   4.091  0.2415  1.2027  0.9406
  694MOL0     H91546   4.666  10.433   4.250 -0.3362 -1.3996  1.1429
  694MOL0     H91547   4.516  10.275   4.026 -0.8456  3.8040 -2.3575
  694MOL0     H91548   4.483  10.434   4.085  2.3015  1.1926  3.0917
  694MOL0     H91549   4.429  10.388   4.316  1.7912  1.0917 -0.3958
  694MOL0     H91550   4.486  10.226   4.309  1.3297  1.8316  0.7250
  694MOL0     H91551   4.264  10.347   4.152  5.4422  1.8171 -2.2022
  694MOL0     H91552   4.307  10.167   4.161 -1.6746 -0.8039  0.7366
  694MOL0     H91553   4.212  10.310   4.398  2.2834  1.7859 -2.1532
  694MOL0     H91554   4.287  10.150   4.384 -0.7206 -1.3349  0.4080
  694MOL0     H91555   4.116  10.067   4.253  2.0295  1.7803 -1.6701
  694MOL0     H91556   4.049  10.226   4.216 -0.3116  0.2787 -1.7084
  694MOL0     H91557   4.057  10.124   4.505  0.5414  2.3193  0.8267
  694MOL0     H91558   3.950  10.246   4.442 -0.7647  0.0772 -1.4386
  694MOL0     H91559   3.928   9.951   4.376  2.7112  0.6289 -0.1351
  694MOL0     H91560   3.816  10.075   4.308 -0.3278  0.6288  0.6135
  694MOL0     H91561   3.918   9.996   4.690  0.5626  2.0361  0.9042
  694MOL0     H91562   3.748   9.920   4.901 -0.5410  0.2986  0.8102
  694MOL0     H91563   3.582   9.988   4.867  0.2631  1.1602  0.9869
  694MOL0     H91564   3.680  10.207   4.930 -0.9556 -1.0400 -0.5844
  694MOL0     H91565   3.841  10.142   4.916  0.4957 -0.9088 -1.9071
  694MOL0     H91566   3.634  10.062   5.137  0.0052 -1.0602  0.3892
  694MOL0     H91567   3.765   9.959   5.105 -1.4992  0.3790  2.0378
  694MOL0     H91568   3.819  10.130   5.275 -0.1678  2.4028  0.3872
  694MOL0     H91569   3.792  10.249   5.157 -1.4684 -1.5280  0.1288
  694MOL0     H91570   4.004  10.182   5.367 -0.2513 -3.2581 -1.1700
  694MOL0     H91571   4.217  10.280   5.470  1.4992  1.7549  0.1582
  694MOL0     H91572   4.748  10.331   5.101  1.5851 -1.8424  0.0249
  694MOL0     H91573   4.989  10.399   5.151 -0.1597 -0.2820  0.6767
  694MOL0     H91574   5.139  10.448   5.533 -4.5927 -0.4748 -0.5741
  694MOL0     H91575   5.099  10.621   5.495 -0.7233 -0.4469  0.2835
  694MOL0     H91576   5.360  10.482   5.436 -2.1726 -2.2839 -2.5263
  694MOL0     H91577   5.316  10.610   5.557 -2.7171  0.8681 -0.3249
  694MOL0     H91578   5.207  10.725   5.326 -0.2772  0.1959 -0.6446
  694MOL0     H91579   5.317  10.625   5.239  3.2023  1.8552 -0.4026
  694MOL0     H91580   5.430  10.811   5.439  0.5595 -1.3446  0.1877
  694MOL0     H91581   5.514  10.721   5.308 -0.1795  0.5838 -1.8870
  694MOL0     H91582   5.347  10.978   5.281  1.0526 -0.3889  0.0006
  694MOL0     H91583   5.324  10.857   5.163 -2.0624 -2.1655  0.8132
  694MOL0     H91584   5.576  10.840   5.149 -3.2841 -2.0454  1.1201
  694MOL0     H91585   5.587  10.993   5.249  1.5577 -0.0553 -2.3453
  694MOL0     H91586   5.463  10.967   4.984  1.1596  1.8945 -1.8383
  694MOL0     H91587   5.439  11.100   5.104  0.3176  0.1149  0.1787
  694MOL0     H91588   5.718  11.012   4.998  3.6060  3.1073  1.0131
  694MOL0     H91589   5.672  11.149   5.097  0.2827  2.0616 -1.1331
  694MOL0     H91590   4.888  10.540   5.530  2.0478 -0.0144 -0.8649
  694MOL0     H91591   4.662  10.469   5.508 -0.1256  0.6195 -0.9294
  694MOL0     H91592   4.402  10.248   5.079 -1.0523  2.4814 -0.9931
  694MOL0     H91593   4.182  10.190   4.992 -0.7977 -2.2834  1.2155
  694MOL0     H91594   4.899  10.446   4.196 -0.7186 -0.7169 -0.6089
  694MOL0     H91595   5.142  10.431   4.153 -1.1958  2.2998  0.6343
  694MOL0     H91596   5.466  10.389   4.131 -0.5267  1.1660 -0.0690
  694MOL0     H91597   5.688  10.476   4.121 -3.3129 -0.0778 -0.9595
  694MOL0     H91598   5.942  10.511   4.188  1.4465 -1.2245  1.2818
  694MOL0     H91599   5.871  10.492   4.031 -2.2911  1.8992  2.3867
  694MOL0     H91600   6.161  10.397   4.087 -1.7702 -0.2737  0.0748
  694MOL0     H91601   6.061  10.386   3.938  2.1492  0.7527 -1.0967
  694MOL0     H91602   6.181  10.635   4.058  1.1176 -0.1553 -1.2087
  694MOL0     H91603   6.037  10.632   3.949  0.4990  2.8597  1.3643
  694MOL0     H91604   6.299  10.499   3.868  0.1654 -0.5993 -1.2808
  694MOL0     H91605   6.139  10.528   3.783 -1.6815 -1.4482  2.0820
  694MOL0     H91606   6.316  10.924   3.813 -0.1045  0.0848  0.5927
  694MOL0     H91607   5.845  10.075   4.175  1.0448  0.7334 -0.2698
  694MOL0     H91608   5.614   9.990   4.188  0.5791 -0.4865  2.0721
  695MOL0     O91609   0.473   0.582   8.794 -0.1984  0.5943 -0.6855
  695MOL0     C91610   0.449   0.575   8.678 -0.6154 -1.0658  0.4223
  695MOL0     O91611   0.432   0.680   8.588  0.1034  0.2995  0.4239
  695MOL0     C91612   0.435   0.804   8.639 -1.2635  0.0106  0.7485
  695MOL0     C91613   0.539   0.889   8.603  0.0028  0.3928  0.7513
  695MOL0     C91614   0.543   1.022   8.652 -0.1223  0.0518  0.1886
  695MOL0     C91615   0.440   1.063   8.748 -0.2977  0.8874  0.0115
  695MOL0     O91616   0.432   1.190   8.807 -0.1295  0.1535  0.7020
  695MOL0     C91617   0.545   1.229   8.884 -0.2106  0.2361 -0.5028
  695MOL0     C91618   0.511   1.355   8.958  0.4263  0.1175 -0.6807
  695MOL0     C91619   0.387   1.346   9.055 -0.5818 -0.9074  1.4198
  695MOL0     C91620   0.325   1.476   9.093 -0.9129  0.2579  0.1893
  695MOL0     C91621   0.184   1.444   9.148 -0.5161 -0.0702  0.3689
  695MOL0     C91622   0.100   1.573   9.171  1.0768 -0.6598  0.2243
  695MOL0     C91623  -0.043   1.545   9.202  0.7494 -0.1371 -0.1527
  695MOL0     C91624  -0.119   1.672   9.252  0.6497  0.1323  0.1894
  695MOL0     N91625  -0.268   1.663   9.261 -0.2993 -0.3908 -0.3374
  695MOL0     C91626  -0.342   1.545   9.257 -0.7393 -0.0267  0.0703
  695MOL0     C91627  -0.465   1.584   9.280  0.7800  0.8571 -0.4122
  695MOL0     C91628  -0.597   1.500   9.262 -0.4990 -0.3122  0.0206
  695MOL0     C91629  -0.712   1.571   9.334 -0.2864  0.4794  0.3568
  695MOL0     C91630  -0.757   1.707   9.276 -0.1458  0.6776  0.0871
  695MOL0     C91631  -0.909   1.719   9.248 -0.7115 -0.1029  0.3031
  695MOL0     O91632  -0.947   1.844   9.182 -0.0838 -0.7827 -0.8453
  695MOL0     C91633  -1.083   1.852   9.198 -0.4011  0.1819  0.4132
  695MOL0     C91634  -1.149   1.869   9.079  0.7869 -0.0832  0.0262
  695MOL0     C91635  -1.287   1.900   9.083  0.5665 -0.5778  0.5826
  695MOL0     C91636  -1.364   1.922   9.193  0.1106  0.5211 -0.3126
  695MOL0     C91637  -1.506   1.927   9.181  0.5682 -0.2640 -0.1475
  695MOL0     O91638  -1.562   1.873   9.077 -0.3894 -0.9595  0.8919
  695MOL0     C91639  -1.692   1.892   9.060  0.9149 -0.0211  0.4381
  695MOL0     C91640  -1.778   1.777   9.082  0.1881 -0.1688  0.4976
  695MOL0     C91641  -1.921   1.794   9.090 -0.3492 -0.7111 -0.6371
  695MOL0     C91642  -1.979   1.909   9.055 -0.4971  0.1415 -0.0495
  695MOL0     O91643  -2.113   1.907   9.041  0.2975  0.4448 -0.2763
  695MOL0     C91644  -2.179   1.974   8.932 -0.8497 -0.2357  0.4899
  695MOL0     C91645  -2.325   1.952   8.940 -0.3706  0.1909  0.1625
  695MOL0     C91646  -2.389   2.014   8.814 -0.0223 -0.2543  0.0788
  695MOL0     C91647  -2.545   1.994   8.823  0.6611  0.0105 -0.4334
  695MOL0     C91648  -2.603   2.054   8.691  0.1316 -0.2125 -0.6092
  695MOL0     C91649  -2.661   2.193   8.697 -0.0119  0.1398 -0.4483
  695MOL0     C91650  -2.696   2.235   8.550  0.1777  0.5527  0.0117
  695MOL0     C91651  -2.786   2.360   8.559 -0.0455  0.7862  0.0138
  695MOL0    Cl91652  -2.868   2.371   8.399  0.0032  0.2138  0.0449
  695MOL0     C91653  -1.903   2.019   9.017 -0.0409  1.1194  0.1530
  695MOL0     C91654  -1.765   2.013   9.023 -0.0388  0.6617  0.4570
  695MOL0     O91655  -1.570   1.981   9.268  0.0813 -0.8004  0.0081
  695MOL0     C91656  -1.285   1.921   9.311 -0.9036  0.0094  0.8703
  695MOL0     C91657  -1.148   1.888   9.316 -0.5375  1.0945 -0.9526
  695MOL0     N91658  -0.464   1.724   9.295  0.4048  0.7749  0.2907
  695MOL0     N91659  -0.349   1.777   9.266 -0.0950  0.4723 -0.7856
  695MOL0     C91660   0.334   0.979   8.772 -0.4824  0.0086 -0.1688
  695MOL0     C91661   0.337   0.844   8.728 -0.4165 -0.1138 -0.6951
  695MOL0     C91662   0.454   0.441   8.615  0.4909 -0.9616 -0.4559
  695MOL0     C91663   0.471   0.430   8.476  0.2585  0.0617  0.0922
  695MOL0     C91664   0.443   0.313   8.411 -0.2732  1.5427  1.2811
  695MOL0     C91665   0.423   0.199   8.485  0.4767  0.1054 -0.6114
  695MOL0     O91666   0.422   0.078   8.413  0.3548 -0.4822 -0.1768
  695MOL0     C91667   0.558   0.036   8.402  0.0374 -0.2685 -0.4007
  695MOL0     C91668   0.571  -0.105   8.338 -0.4355 -0.2060 -0.6806
  695MOL0     C91669   0.482  -0.200   8.417 -0.7258  0.0318 -0.6968
  695MOL0     C91670   0.351  -0.227   8.354  0.2132  0.1266  0.3631
  695MOL0     C91671   0.368  -0.331   8.244 -0.2861  0.7248 -1.3177
  695MOL0     C91672   0.375  -0.419   8.160  0.0632 -0.1786 -0.5281
  695MOL0     C91673   0.404   0.203   8.622  0.7042 -0.1047 -0.6830
  695MOL0     C91674   0.412   0.330   8.687 -0.4282 -0.1510  0.2542
  695MOL0     H91675   0.628   0.860   8.547 -1.7982  0.9523 -2.6557
  695MOL0     H91676   0.621   1.093   8.627 -0.5009  0.8009  1.0470
  695MOL0     H91677   0.623   1.261   8.814  1.4850  0.6887  1.4717
  695MOL0     H91678   0.585   1.151   8.950 -1.6917 -0.7908 -0.7856
  695MOL0     H91679   0.495   1.428   8.878 -1.7348  0.8048  0.2973
  695MOL0     H91680   0.597   1.389   9.017 -0.4180 -1.7259  1.7694
  695MOL0     H91681   0.410   1.282   9.141 -1.8454 -0.7512  1.8966
  695MOL0     H91682   0.309   1.290   9.002  0.4402 -1.9192  0.9492
  695MOL0     H91683   0.389   1.521   9.170  1.1742 -4.4813  1.6292
  695MOL0     H91684   0.328   1.557   9.020  3.1667 -0.4052 -0.6759
  695MOL0     H91685   0.197   1.397   9.246 -1.5328  0.6735  0.8743
  695MOL0     H91686   0.123   1.373   9.091  0.6915 -1.4598  0.7486
  695MOL0     H91687   0.103   1.638   9.083  0.8708  0.4352  1.0054
  695MOL0     H91688   0.148   1.637   9.246  1.0104 -0.7516  0.3448
  695MOL0     H91689  -0.090   1.501   9.114 -1.4105  1.8219 -0.0624
  695MOL0     H91690  -0.051   1.465   9.276 -2.0236  0.4653  0.3066
  695MOL0     H91691  -0.098   1.756   9.185  0.6075 -2.5681 -3.5547
  695MOL0     H91692  -0.088   1.683   9.356  0.5792  1.0025  0.1236
  695MOL0     H91693  -0.291   1.451   9.240 -0.8914  0.1384 -1.4351
  695MOL0     H91694  -0.594   1.404   9.315 -1.1717  1.4780  3.6857
  695MOL0     H91695  -0.616   1.490   9.155  1.5159  1.8652 -0.6242
  695MOL0     H91696  -0.681   1.569   9.439  1.7252 -0.2268 -0.1993
  695MOL0     H91697  -0.793   1.504   9.306 -0.6005  0.6641  0.8165
  695MOL0     H91698  -0.746   1.784   9.353  0.8183  1.7759 -1.0892
  695MOL0     H91699  -0.694   1.738   9.191  0.0564  0.3551  0.1174
  695MOL0     H91700  -0.960   1.697   9.342  1.5857 -1.1882  1.3873
  695MOL0     H91701  -0.938   1.633   9.187 -0.9490 -0.0164  0.2961
  695MOL0     H91702  -1.103   1.878   8.981  0.9734  1.8722  0.2546
  695MOL0     H91703  -1.331   1.906   8.984  2.0909  0.5971 -0.0632
  695MOL0     H91704  -1.731   1.683   9.110  2.1330  0.3777 -0.7360
  695MOL0     H91705  -1.979   1.707   9.119  1.3736 -1.2634  1.4009
  695MOL0     H91706  -2.135   1.932   8.841 -0.9017  0.8726 -0.0632
  695MOL0     H91707  -2.157   2.080   8.916  1.0474 -0.6152  0.2870
  695MOL0     H91708  -2.360   1.993   9.034  1.0731 -0.9694  1.2632
  695MOL0     H91709  -2.353   1.846   8.936  1.6874 -0.3692 -0.7731
  695MOL0     H91710  -2.347   1.981   8.719  1.1628 -3.9250  1.6947
  695MOL0     H91711  -2.366   2.121   8.813 -0.6725 -0.0880  1.2054
  695MOL0     H91712  -2.568   1.889   8.843  0.7928  0.0383 -0.1205
  695MOL0     H91713  -2.578   2.052   8.910  1.0658  0.1670 -0.3766
  695MOL0     H91714  -2.682   1.983   8.664 -0.2445  0.0494 -0.2004
  695MOL0     H91715  -2.526   2.052   8.613  0.9789 -1.1013  0.2114
  695MOL0     H91716  -2.590   2.262   8.745 -0.3303 -0.4002  0.8329
  695MOL0     H91717  -2.738   2.193   8.775 -0.9963  0.7681 -1.3780
  695MOL0     H91718  -2.600   2.250   8.500  0.1809 -0.4824 -0.3221
  695MOL0     H91719  -2.747   2.153   8.498  2.2610  1.5530 -4.0193
  695MOL0     H91720  -2.730   2.453   8.567 -0.8465  1.4057 -1.3065
  695MOL0     H91721  -2.858   2.349   8.641 -0.9789  2.4954 -0.5346
  695MOL0     H91722  -1.946   2.111   8.979  1.7575  0.4873 -3.9594
  695MOL0     H91723  -1.686   2.084   9.003  4.5456 -3.8203  0.6391
  695MOL0     H91724  -1.343   1.943   9.400 -2.5210  0.6427 -0.2867
  695MOL0     H91725  -1.088   1.898   9.406  0.4498  1.4332 -1.6321
  695MOL0     H91726   0.261   1.012   8.845 -1.0934 -3.7522  1.1776
  695MOL0     H91727   0.261   0.785   8.778 -0.4875  3.3565  3.9013
  695MOL0     H91728   0.499   0.512   8.411  1.4795 -3.0377 -3.6970
  695MOL0     H91729   0.444   0.313   8.302 -1.7866 -0.9136  1.2006
  695MOL0     H91730   0.598   0.032   8.503  1.8986  3.6919 -0.8224
  695MOL0     H91731   0.614   0.103   8.336  1.8168  1.6934  2.8744
  695MOL0     H91732   0.539  -0.105   8.233  1.3420 -3.2400 -1.3513
  695MOL0     H91733   0.674  -0.140   8.334 -1.1661 -2.5388 -0.5719
  695MOL0     H91734   0.465  -0.168   8.520  0.8837 -0.3003 -0.3031
  695MOL0     H91735   0.534  -0.295   8.431 -3.9405 -1.4972  2.2969
  695MOL0     H91736   0.290  -0.256   8.440  0.0095 -0.0526  0.1583
  695MOL0     H91737   0.306  -0.137   8.311  0.3461 -1.3979 -3.4265
  695MOL0     H91738   0.377  -0.506   8.098  4.2291  1.1239 -2.6301
  695MOL0     H91739   0.388   0.117   8.686  2.2021  2.6658  3.9334
  695MOL0     H91740   0.397   0.344   8.794  0.5014  1.8524  0.1641
  696MOL0     O91741   3.476   0.901   7.692 -0.3165  0.0996  0.4244
  696MOL0     C91742   3.486   1.006   7.756  0.4222 -0.4287  0.0567
  696MOL0     O91743   3.388   1.072   7.811 -0.0768 -0.4970 -0.4263
  696MOL0     C91744   3.260   1.023   7.806  0.1738 -0.2613  0.3926
  696MOL0     C91745   3.229   0.903   7.875 -0.4038 -0.4509 -0.2327
  696MOL0     C91746   3.091   0.855   7.877 -0.1507 -0.9112 -0.5256
  696MOL0     C91747   2.990   0.934   7.819 -0.2823 -0.3098 -0.6583
  696MOL0     O91748   2.856   0.893   7.834 -0.5552 -0.3961 -0.9666
  696MOL0     C91749   2.828   0.755   7.813 -0.2929 -1.1633 -0.4315
  696MOL0     C91750   2.675   0.757   7.823 -0.1525  0.4194  0.0095
  696MOL0     C91751   2.611   0.709   7.685  0.1083 -0.5088 -0.5045
  696MOL0     C91752   2.468   0.684   7.708  0.0132 -0.5742  0.4901
  696MOL0     C91753   2.400   0.574   7.614 -0.1978 -0.0572  0.1595
  696MOL0     C91754   2.294   0.488   7.674  0.4653 -0.3275 -0.1038
  696MOL0     C91755   2.168   0.561   7.709  0.4326  0.2632  0.9728
  696MOL0     C91756   2.079   0.480   7.796  0.1228 -0.8360  0.3263
  696MOL0     N91757   1.940   0.533   7.790  0.3924  0.2141 -0.3598
  696MOL0     C91758   1.853   0.517   7.691 -0.2504  0.2644 -0.7777
  696MOL0     C91759   1.736   0.536   7.747  1.2563 -0.0785 -1.0444
  696MOL0     C91760   1.610   0.540   7.670 -0.7227  0.0209  0.4108
  696MOL0     C91761   1.489   0.591   7.741 -0.0275 -0.5014 -0.7190
  696MOL0     C91762   1.379   0.635   7.639 -0.0567 -0.4438 -0.0470
  696MOL0     C91763   1.294   0.526   7.581 -0.2923  0.0722  0.3628
  696MOL0     O91764   1.219   0.470   7.691  0.2225 -0.1358 -0.3636
  696MOL0     C91765   1.086   0.508   7.727 -0.2882  0.6279  0.8186
  696MOL0     C91766   1.037   0.461   7.850 -0.7614  0.2146  0.5097
  696MOL0     C91767   0.905   0.478   7.877  0.7764 -0.0725  0.4028
  696MOL0     C91768   0.827   0.581   7.807  0.6025  0.6100 -1.0352
  696MOL0     C91769   0.694   0.616   7.867 -0.1887  0.3295 -0.3037
  696MOL0     O91770   0.688   0.599   8.007  0.5124 -0.5292 -0.2708
  696MOL0     C91771   0.561   0.646   8.053  0.0059  0.0821 -0.5435
  696MOL0     C91772   0.451   0.562   8.031  0.0233  0.0903  0.4929
  696MOL0     C91773   0.326   0.612   8.077  0.1213 -0.1133 -1.3763
  696MOL0     C91774   0.312   0.738   8.145 -0.7331 -0.6071 -0.3931
  696MOL0     O91775   0.187   0.771   8.190  0.6794  0.1099  0.4252
  696MOL0     C91776   0.180   0.840   8.317  0.2063 -0.6495  0.1441
  696MOL0     C91777   0.144   0.989   8.302  0.2046  0.5353 -0.1495
  696MOL0     C91778   0.099   1.056   8.434 -0.2264  0.3528  0.2424
  696MOL0     C91779   0.049   1.201   8.414 -0.6064  0.1743 -0.3024
  696MOL0     C91780  -0.069   1.210   8.319 -1.0977  0.2809  0.1158
  696MOL0     C91781  -0.148   1.333   8.340 -0.8221 -1.0290  1.1226
  696MOL0     C91782  -0.260   1.349   8.230  0.1378  1.0515 -0.5522
  696MOL0     C91783  -0.209   1.354   8.089  0.1818 -0.3137  0.1472
  696MOL0    Cl91784  -0.067   1.457   8.058  0.6107 -0.3753 -0.0100
  696MOL0     C91785   0.426   0.817   8.165  0.1207  0.1589 -0.1258
  696MOL0     C91786   0.550   0.773   8.110  0.6956 -0.5601  0.0977
  696MOL0     O91787   0.615   0.681   7.800 -0.1048 -0.0587  0.7414
  696MOL0     C91788   0.885   0.642   7.699 -0.6642  0.5032 -0.2924
  696MOL0     C91789   1.013   0.610   7.654 -0.8502  0.3546  0.0005
  696MOL0     N91790   1.757   0.574   7.883  0.4398 -0.0623 -0.5515
  696MOL0     N91791   1.880   0.571   7.905  0.2913 -0.4537  0.3888
  696MOL0     C91792   3.026   1.051   7.741 -1.1082  0.2208  1.0908
  696MOL0     C91793   3.166   1.085   7.731  0.2893 -0.8866 -1.0070
  696MOL0     C91794   3.623   1.067   7.770 -0.7317 -0.0421  0.1419
  696MOL0     C91795   3.739   0.994   7.752  0.3846  0.0429  0.2711
  696MOL0     C91796   3.864   1.041   7.740 -0.0188 -0.6023 -0.0435
  696MOL0     C91797   3.880   1.178   7.770  0.5722  0.2990  0.1691
  696MOL0     O91798   4.009   1.226   7.767 -0.9545 -0.9044 -0.0955
  696MOL0     C91799   4.045   1.365   7.774  0.0661  0.2392  0.5825
  696MOL0     C91800   4.188   1.380   7.742  0.3867 -0.7944 -0.2155
  696MOL0     C91801   4.238   1.533   7.736 -0.2228  0.2177  0.6018
  696MOL0     C91802   4.195   1.592   7.608  0.2123  0.3027 -0.1589
  696MOL0     C91803   4.251   1.726   7.590 -0.2413 -0.8358 -0.3636
  696MOL0     C91804   4.270   1.845   7.567 -0.5990 -0.2938 -0.0037
  696MOL0     C91805   3.768   1.258   7.799 -0.5221 -0.2602 -0.8839
  696MOL0     C91806   3.640   1.208   7.796  0.6556  0.3603 -0.8360
  696MOL0     H91807   3.306   0.840   7.916 -0.4638 -1.6458 -1.8382
  696MOL0     H91808   3.074   0.759   7.925 -0.1365 -2.1976 -2.9278
  696MOL0     H91809   2.863   0.700   7.901 -1.3154 -2.9080 -1.0588
  696MOL0     H91810   2.879   0.721   7.723  0.8966  0.5611 -0.4653
  696MOL0     H91811   2.643   0.861   7.836  1.9047  1.4051 -1.9828
  696MOL0     H91812   2.648   0.687   7.902  1.1690  1.2552  1.2339
  696MOL0     H91813   2.658   0.616   7.655  1.7097 -0.1949  0.8649
  696MOL0     H91814   2.628   0.775   7.600  0.5711 -0.0487 -0.0677
  696MOL0     H91815   2.450   0.640   7.807  1.0337 -2.9856 -0.3370
  696MOL0     H91816   2.419   0.781   7.696  3.4734  1.1884 -0.5977
  696MOL0     H91817   2.478   0.508   7.575  0.0413 -0.1588  0.7922
  696MOL0     H91818   2.359   0.625   7.526 -2.1350  0.6466  1.3981
  696MOL0     H91819   2.329   0.439   7.765 -0.7780 -2.4607 -0.7061
  696MOL0     H91820   2.276   0.405   7.605 -0.8572  0.8901 -1.2987
  696MOL0     H91821   2.195   0.654   7.759  0.3448  1.2844 -0.7861
  696MOL0     H91822   2.116   0.596   7.620 -2.3740  1.0478  2.8139
  696MOL0     H91823   2.111   0.494   7.900  0.1203 -1.2277  0.3820
  696MOL0     H91824   2.068   0.372   7.781  0.3215 -1.1376  2.1339
  696MOL0     H91825   1.870   0.489   7.588  0.5166 -1.1758 -0.2888
  696MOL0     H91826   1.593   0.441   7.627 -0.2297 -0.1391  0.5734
  696MOL0     H91827   1.627   0.609   7.587  2.3399  0.4525  1.2711
  696MOL0     H91828   1.507   0.678   7.805  1.0152 -2.0049  1.1219
  696MOL0     H91829   1.437   0.515   7.799  0.2174 -0.8094 -0.9041
  696MOL0     H91830   1.307   0.698   7.693  2.3797  1.4909  1.1404
  696MOL0     H91831   1.414   0.694   7.553 -2.5292 -0.3570 -1.0926
  696MOL0     H91832   1.362   0.456   7.531 -2.8722 -1.0160 -1.8683
  696MOL0     H91833   1.224   0.543   7.498  0.0925 -2.0726 -0.4780
  696MOL0     H91834   1.100   0.396   7.910  2.2471  0.7646 -1.8130
  696MOL0     H91835   0.870   0.427   7.967  2.0045  1.6870  1.9621
  696MOL0     H91836   0.456   0.464   7.985  0.1269  0.3378 -0.0175
  696MOL0     H91837   0.240   0.548   8.057  0.2470  0.1145 -2.7127
  696MOL0     H91838   0.258   0.830   8.393 -1.2517  0.0456  1.8152
  696MOL0     H91839   0.098   0.795   8.375 -2.8090  3.7235 -0.2021
  696MOL0     H91840   0.059   1.002   8.235 -0.6549  3.4233  1.3110
  696MOL0     H91841   0.232   1.033   8.253  0.3999  0.4547  0.1282
  696MOL0     H91842   0.187   1.058   8.500 -1.2530 -0.8182  1.7256
  696MOL0     H91843   0.023   0.993   8.482 -1.3687  1.2666 -0.3200
  696MOL0     H91844   0.010   1.232   8.512  1.9093  0.7051  0.6158
  696MOL0     H91845   0.135   1.259   8.380 -0.3214 -0.4946 -0.7236
  696MOL0     H91846  -0.138   1.125   8.329  0.7578 -1.3077  0.0757
  696MOL0     H91847  -0.027   1.202   8.218  1.9795 -0.1246  1.3150
  696MOL0     H91848  -0.091   1.427   8.341 -0.9353 -0.9139 -0.4678
  696MOL0     H91849  -0.198   1.329   8.436 -1.2719  2.2564  1.1628
  696MOL0     H91850  -0.339   1.275   8.242 -0.3969  1.8318  1.0546
  696MOL0     H91851  -0.313   1.441   8.255 -1.0792  0.1074  0.4320
  696MOL0     H91852  -0.288   1.383   8.019 -0.1706 -0.3631  0.5266
  696MOL0     H91853  -0.183   1.253   8.056  3.1729  1.2366 -2.9805
  696MOL0     H91854   0.426   0.913   8.215  0.2974  1.0068 -1.6768
  696MOL0     H91855   0.637   0.834   8.132  0.8124 -0.4032 -0.7642
  696MOL0     H91856   0.837   0.708   7.628  4.6877  2.5446 -2.6272
  696MOL0     H91857   1.049   0.639   7.556  0.2668 -1.2196 -0.1015
  696MOL0     H91858   2.948   1.102   7.685  0.4850  0.4385 -1.0706
  696MOL0     H91859   3.201   1.163   7.663 -3.8228  0.1965 -2.1155
  696MOL0     H91860   3.733   0.892   7.715  1.2934  1.2034 -3.5852
  696MOL0     H91861   3.951   0.978   7.730  1.1327  0.7156  1.1551
  696MOL0     H91862   4.021   1.412   7.870 -0.6888 -3.7469  2.5613
  696MOL0     H91863   3.991   1.420   7.696  3.4526  1.4796 -1.1075
  696MOL0     H91864   4.247   1.324   7.815  2.1288  0.7060 -0.4033
  696MOL0     H91865   4.205   1.338   7.643  0.0087 -2.9677  0.5823
  696MOL0     H91866   4.347   1.532   7.741 -0.2887 -0.8504  3.8935
  696MOL0     H91867   4.199   1.586   7.824  1.2428 -0.8418  1.9455
  696MOL0     H91868   4.235   1.528   7.528  2.2989 -0.7102  1.5973
  696MOL0     H91869   4.086   1.605   7.609  0.1911  0.8412  3.7521
  696MOL0     H91870   4.278   1.952   7.561 -1.2731 -0.3024 -1.7644
  696MOL0     H91871   3.770   1.363   7.824 -1.7032 -0.2601 -0.7169
  696MOL0     H91872   3.566   1.281   7.826  3.6032  2.4197  2.2054
  697MOL0     O91873   5.141   4.319  11.205  0.3790  1.3434 -0.7465
  697MOL0     C91874   5.242   4.245  11.206  0.5131 -0.2870  0.3118
  697MOL0     O91875   5.255   4.105  11.240 -0.4406 -0.1456 -0.1710
  697MOL0     C91876   5.138   4.027  11.260  0.4872  0.2059  0.7009
  697MOL0     C91877   5.153   3.903  11.322 -0.9579  0.9145 -0.3027
  697MOL0     C91878   5.043   3.819  11.337  0.4634 -0.4495  0.8769
  697MOL0     C91879   4.915   3.844  11.267  0.2360  0.3529  0.8109
  697MOL0     O91880   4.810   3.751  11.264 -0.2126  0.2129  0.4014
  697MOL0     C91881   4.790   3.684  11.392  0.2881 -0.1115  0.1593
  697MOL0     C91882   4.650   3.627  11.398  0.0759  0.3646  0.1914
  697MOL0     C91883   4.553   3.745  11.398 -0.2220 -0.1116  0.1073
  697MOL0     C91884   4.410   3.696  11.393 -0.9021  0.0114  0.0880
  697MOL0     C91885   4.308   3.783  11.470 -0.4176 -0.0841 -0.1312
  697MOL0     C91886   4.174   3.720  11.462 -0.7848 -0.5370  0.2633
  697MOL0     C91887   4.159   3.578  11.509  0.1232 -0.4324 -0.6906
  697MOL0     C91888   4.218   3.537  11.643 -0.3285 -0.5295 -0.0367
  697MOL0     N91889   4.209   3.390  11.667  0.3236 -0.6751 -0.3469
  697MOL0     C91890   4.104   3.320  11.726 -0.1322  0.2217  0.0980
  697MOL0     C91891   4.138   3.187  11.718  1.4125 -0.4678 -0.8626
  697MOL0     C91892   4.056   3.061  11.766  0.6056 -0.0299  0.2404
  697MOL0     C91893   4.023   2.953  11.663 -0.7455  0.0065  0.1243
  697MOL0     C91894   3.967   3.012  11.530 -0.2532 -0.7618  0.1429
  697MOL0     C91895   3.988   2.927  11.402 -0.2491  0.1647 -0.7275
  697MOL0     O91896   3.996   2.784  11.414  0.3746  0.8208 -0.5256
  697MOL0     C91897   3.879   2.722  11.458 -0.6461  0.5631 -0.1468
  697MOL0     C91898   3.885   2.587  11.481  0.0227 -0.0750 -0.2869
  697MOL0     C91899   3.768   2.514  11.512  0.3252 -0.2404 -1.1439
  697MOL0     C91900   3.643   2.575  11.532  0.3700 -0.6788  0.0002
  697MOL0     C91901   3.529   2.502  11.579  0.9390 -0.4027 -0.3320
  697MOL0     O91902   3.414   2.568  11.615 -0.3397  0.8629 -0.0627
  697MOL0     C91903   3.300   2.505  11.644 -0.3704  0.6208  0.7724
  697MOL0     C91904   3.280   2.416  11.752 -0.0851 -0.1872  0.6981
  697MOL0     C91905   3.153   2.361  11.776 -0.1993  0.4110 -0.5555
  697MOL0     C91906   3.050   2.399  11.692  0.5539  0.7403 -0.1825
  697MOL0     O91907   2.931   2.336  11.711  1.3265 -0.1494  0.1327
  697MOL0     C91908   2.807   2.416  11.723 -0.5914 -0.5994  1.1709
  697MOL0     C91909   2.702   2.346  11.810 -0.4658  0.6799  0.5808
  697MOL0     C91910   2.575   2.424  11.830 -0.1068 -0.5569  0.0438
  697MOL0     C91911   2.489   2.355  11.934 -0.5308 -0.4017  0.3763
  697MOL0     C91912   2.345   2.427  11.938  0.2037  0.4707 -0.0677
  697MOL0     C91913   2.268   2.358  12.054  0.1814  0.7425  0.1773
  697MOL0     C91914   2.136   2.426  12.098 -0.1476  0.0482  0.9924
  697MOL0     C91915   2.074   2.361  12.215 -0.5283  0.0677  0.2283
  697MOL0    Cl91916   2.004   2.203  12.181  0.1815 -0.4806 -0.3167
  697MOL0     C91917   3.066   2.478  11.585  0.8553  0.1312  0.2851
  697MOL0     C91918   3.189   2.529  11.563 -0.3006 -0.2848 -0.6235
  697MOL0     O91919   3.538   2.378  11.572 -0.1319 -0.3570  0.2721
  697MOL0     C91920   3.634   2.711  11.510  0.4747 -0.6718 -0.6760
  697MOL0     C91921   3.753   2.776  11.470  0.6020 -0.2152  0.7678
  697MOL0     N91922   4.266   3.185  11.674  0.2792  1.6571 -0.2984
  697MOL0     N91923   4.308   3.295  11.642 -0.3212 -1.0566  0.9866
  697MOL0     C91924   4.902   3.969  11.196 -0.7786  0.3266 -0.3321
  697MOL0     C91925   5.012   4.061  11.203 -0.0111 -0.1954  0.1405
  697MOL0     C91926   5.376   4.299  11.177  0.4529 -0.1298 -0.3884
  697MOL0     C91927   5.385   4.442  11.166  0.3579  0.6839  0.1074
  697MOL0     C91928   5.509   4.502  11.148  0.2514 -0.3500  0.4757
  697MOL0     C91929   5.624   4.425  11.146  0.5676  0.5771  0.8288
  697MOL0     O91930   5.744   4.494  11.144  0.3530  0.6651 -0.0512
  697MOL0     C91931   5.803   4.503  11.016  0.2568 -0.1091  0.0650
  697MOL0     C91932   5.932   4.584  11.042  0.0427  0.0362 -0.1403
  697MOL0     C91933   6.036   4.495  11.102  0.0985  0.9186 -0.3456
  697MOL0     C91934   6.149   4.546  11.192  0.1534 -0.2033  0.2407
  697MOL0     C91935   6.223   4.657  11.133 -0.6037 -0.0567  0.5532
  697MOL0     C91936   6.295   4.734  11.071  0.0048  0.6731  0.1300
  697MOL0     C91937   5.618   4.285  11.155 -0.1507 -0.0529  0.2762
  697MOL0     C91938   5.497   4.223  11.175  0.1652 -0.6121 -0.6902
  697MOL0     H91939   5.253   3.872  11.349 -1.7479 -3.0439 -1.1789
  697MOL0     H91940   5.040   3.723  11.387 -0.8805  0.0699  1.8547
  697MOL0     H91941   4.808   3.758  11.471  0.5882  0.5719 -0.5349
  697MOL0     H91942   4.870   3.611  11.391  1.8886  1.5519  0.4661
  697MOL0     H91943   4.630   3.563  11.484  2.5069 -1.3538 -0.4061
  697MOL0     H91944   4.637   3.567  11.308  2.3747 -0.9730  0.6516
  697MOL0     H91945   4.578   3.824  11.327  0.9872  0.7564  1.4374
  697MOL0     H91946   4.574   3.804  11.488  2.4891 -0.5492 -0.1625
  697MOL0     H91947   4.382   3.674  11.289  1.7350  0.5446 -0.8262
  697MOL0     H91948   4.408   3.602  11.449  2.0325 -0.0726  0.2356
  697MOL0     H91949   4.303   3.886  11.431 -2.7117  0.0834  0.4634
  697MOL0     H91950   4.338   3.785  11.575  0.2942  0.8228 -0.3307
  697MOL0     H91951   4.129   3.739  11.364  0.3593 -0.7599 -0.3167
  697MOL0     H91952   4.117   3.768  11.543  3.5418 -0.3451  3.5440
  697MOL0     H91953   4.052   3.556  11.511  0.0509 -0.0577  0.6259
  697MOL0     H91954   4.214   3.514  11.439  1.0233  1.0068 -1.3499
  697MOL0     H91955   4.167   3.604  11.712  4.3190  1.5662  1.7761
  697MOL0     H91956   4.323   3.565  11.643  0.1648 -2.1920 -0.9374
  697MOL0     H91957   4.013   3.367  11.762  0.7806  0.6849  1.9210
  697MOL0     H91958   3.964   3.101  11.811  0.8882  1.3026 -0.3192
  697MOL0     H91959   4.121   3.019  11.844 -1.2718  1.7608  2.9640
  697MOL0     H91960   3.957   2.877  11.708  0.1397 -1.6494 -1.2392
  697MOL0     H91961   4.115   2.895  11.653 -1.0046 -1.2996  3.6949
  697MOL0     H91962   3.860   3.029  11.547 -0.2662  0.9127 -1.2546
  697MOL0     H91963   4.001   3.115  11.511  0.3832 -0.8980  0.4946
  697MOL0     H91964   4.087   2.950  11.363  0.3685 -0.3953  0.4793
  697MOL0     H91965   3.918   2.953  11.322 -0.7177  0.4265 -0.2419
  697MOL0     H91966   3.980   2.535  11.471 -0.5641 -1.3940  0.6596
  697MOL0     H91967   3.763   2.406  11.525 -2.2006 -0.3160 -2.2701
  697MOL0     H91968   3.365   2.389  11.813  0.5109 -0.5261 -0.2513
  697MOL0     H91969   3.131   2.298  11.861  1.9902 -1.4689 -1.2628
  697MOL0     H91970   2.761   2.440  11.627  2.0141  2.8123  0.6006
  697MOL0     H91971   2.815   2.515  11.769 -1.4087  0.5260 -0.9669
  697MOL0     H91972   2.752   2.341  11.907  3.0543  0.9789 -1.0492
  697MOL0     H91973   2.686   2.245  11.772 -0.6676  1.2084 -0.7799
  697MOL0     H91974   2.527   2.435  11.732 -0.8701 -1.1954  0.3312
  697MOL0     H91975   2.599   2.520  11.876 -2.9934 -0.1606  0.8798
  697MOL0     H91976   2.486   2.251  11.900  2.3599 -1.3116  2.4275
  697MOL0     H91977   2.532   2.372  12.034  0.1942 -1.0117  0.1768
  697MOL0     H91978   2.298   2.411  11.841 -0.4154  0.4977  0.2265
  697MOL0     H91979   2.365   2.534  11.946  2.1691  0.3065 -1.7503
  697MOL0     H91980   2.332   2.358  12.143 -0.4147 -2.2122  0.7049
  697MOL0     H91981   2.240   2.257  12.023 -2.1860  0.9884  1.2646
  697MOL0     H91982   2.168   2.526  12.130  2.8665 -0.4396 -0.1721
  697MOL0     H91983   2.082   2.444  12.004  0.7066  4.3858  1.1223
  697MOL0     H91984   1.986   2.423  12.236 -0.0240  1.2642 -1.0267
  697MOL0     H91985   2.144   2.362  12.299  1.6636 -0.0115 -1.4967
  697MOL0     H91986   2.978   2.492  11.522  1.0834 -1.5655 -0.4565
  697MOL0     H91987   3.196   2.585  11.470 -1.4832 -0.6073 -0.9265
  697MOL0     H91988   3.542   2.768  11.503  0.1205 -0.6801  2.4107
  697MOL0     H91989   3.729   2.875  11.433 -0.1764 -1.0310 -1.0087
  697MOL0     H91990   4.824   4.004  11.130 -0.7368 -0.9882 -1.1207
  697MOL0     H91991   4.988   4.153  11.150  2.7350 -0.3664 -1.6059
  697MOL0     H91992   5.304   4.515  11.171 -0.6749 -0.4430  0.2591
  697MOL0     H91993   5.515   4.609  11.131  0.2971 -0.5011 -0.4940
  697MOL0     H91994   5.735   4.560  10.952  2.4674  1.0333 -1.3959
  697MOL0     H91995   5.828   4.404  10.976 -0.3512 -1.0567  1.8671
  697MOL0     H91996   5.969   4.641  10.956  1.2067  0.9444  0.9252
  697MOL0     H91997   5.903   4.659  11.116  0.0779 -0.6509  0.5792
  697MOL0     H91998   6.089   4.437  11.026  1.5316 -1.3492  2.1927
  697MOL0     H91999   5.990   4.419  11.166 -1.1925 -0.1154 -2.3936
  697MOL0     H92000   6.116   4.578  11.291 -0.7053  0.6440 -0.3066
  697MOL0     H92001   6.219   4.463  11.208 -1.0156 -1.3456 -0.3651
  697MOL0     H92002   6.355   4.802  11.013  2.6235 -0.2027  1.6345
  697MOL0     H92003   5.710   4.227  11.156  0.5133  0.7548 -2.6054
  697MOL0     H92004   5.494   4.117  11.197 -0.7595 -0.3964  0.3474
  698MOL0     O92005  11.103  10.798   3.061  0.2324  0.9407 -0.1012
  698MOL0     C92006  10.996  10.766   3.010 -0.4727  0.5191  0.7618
  698MOL0     O92007  10.982  10.685   2.904 -0.3216 -0.0963 -0.0578
  698MOL0     C92008  11.076  10.583   2.880 -0.5261 -0.2838  0.3665
  698MOL0     C92009  11.113  10.492   2.973 -0.0918 -0.2867 -0.7024
  698MOL0     C92010  11.193  10.385   2.930 -0.0232  0.1533  0.2912
  698MOL0     C92011  11.220  10.363   2.796  1.0606  0.1405 -0.1419
  698MOL0     O92012  11.286  10.245   2.761 -0.2353  0.1879 -0.3324
  698MOL0     C92013  11.244  10.167   2.647 -0.4013 -0.8041  0.0411
  698MOL0     C92014  11.361  10.105   2.576  1.0381 -0.2200 -0.1460
  698MOL0     C92015  11.450  10.216   2.518 -0.0497 -0.3874 -0.3242
  698MOL0     C92016  11.557  10.155   2.422  0.9097  0.0342  0.6755
  698MOL0     C92017  11.603  10.252   2.319 -0.1505  0.6085  0.4980
  698MOL0     C92018  11.720  10.197   2.231 -0.7100  0.1899 -0.2483
  698MOL0     C92019  11.725  10.262   2.094 -0.7671 -0.8730 -0.6377
  698MOL0     C92020  11.846  10.204   2.009 -0.1441 -0.2441  0.1194
  698MOL0     N92021  11.971  10.179   2.084  0.1711  0.2633  0.3377
  698MOL0     C92022  12.057  10.263   2.135 -0.7149 -0.2870 -0.2754
  698MOL0     C92023  12.165  10.188   2.167 -0.0645 -0.5677  1.4673
  698MOL0     C92024  12.301  10.235   2.199 -0.3381  0.1781 -0.4212
  698MOL0     C92025  12.328  10.242   2.350 -0.2446  1.0719  0.0392
  698MOL0     C92026  12.210  10.280   2.439  0.1939 -0.1574  0.3245
  698MOL0     C92027  12.203  10.424   2.466  0.0401  0.2103  0.3641
  698MOL0     O92028  12.141  10.485   2.356  0.2350  0.9222  0.1259
  698MOL0     C92029  12.064  10.590   2.396  0.0238 -0.0613  0.1376
  698MOL0     C92030  12.125  10.714   2.418 -0.4391  0.8679 -0.1019
  698MOL0     C92031  12.068  10.823   2.484 -0.1437  0.3742  0.1028
  698MOL0     C92032  11.926  10.813   2.509 -0.8152  0.1516 -0.2989
  698MOL0     C92033  11.850  10.926   2.553  0.7387  0.4212  0.4188
  698MOL0     O92034  11.912  11.046   2.566 -0.1916  0.4852  0.5241
  698MOL0     C92035  11.840  11.166   2.568 -0.4197 -0.3293 -0.0415
  698MOL0     C92036  11.909  11.284   2.525 -0.2363  0.1332 -0.2296
  698MOL0     C92037  11.864  11.410   2.547 -0.0731 -0.8664 -0.5412
  698MOL0     C92038  11.741  11.432   2.613  0.0176 -0.1745  0.0814
  698MOL0     O92039  11.698  11.564   2.625  0.1928  0.3820 -0.3033
  698MOL0     C92040  11.556  11.587   2.634  0.8337 -0.8765  0.1732
  698MOL0     C92041  11.462  11.555   2.508  0.3334  0.8169 -0.7599
  698MOL0     C92042  11.321  11.602   2.534 -0.0892 -0.3489  0.7405
  698MOL0     C92043  11.241  11.641   2.415  0.2509  0.4582 -0.2428
  698MOL0     C92044  11.100  11.686   2.460 -0.3016 -0.1952 -0.8856
  698MOL0     C92045  11.016  11.733   2.344  0.2442 -0.5369 -0.5395
  698MOL0     C92046  10.864  11.746   2.380 -0.1062  0.4682 -0.2507
  698MOL0     C92047  10.785  11.827   2.269 -0.7837  0.2707  0.1975
  698MOL0    Cl92048  10.846  11.987   2.242  0.3537 -0.3153  0.0432
  698MOL0     C92049  11.676  11.317   2.660  0.7391 -0.7917  0.0286
  698MOL0     C92050  11.719  11.185   2.631  1.0019 -0.1034 -0.7490
  698MOL0     O92051  11.727  10.908   2.567 -0.1666 -0.4740  0.2955
  698MOL0     C92052  11.865  10.685   2.474  0.4453  0.1012 -0.0117
  698MOL0     C92053  11.931  10.572   2.429 -0.0470 -0.3698 -1.4005
  698MOL0     N92054  12.142  10.063   2.121  1.3422  0.5187 -0.4302
  698MOL0     N92055  12.022  10.059   2.076  0.2110 -0.1395 -0.8712
  698MOL0     C92056  11.179  10.457   2.703  0.0431 -1.2769  0.2168
  698MOL0     C92057  11.104  10.568   2.749  0.9221 -0.4068  0.6841
  698MOL0     C92058  10.874  10.837   3.052  0.2606 -0.2472 -0.5967
  698MOL0     C92059  10.885  10.909   3.169  0.4683  0.2464 -0.0904
  698MOL0     C92060  10.776  10.978   3.225  0.3010  0.4744  0.3085
  698MOL0     C92061  10.646  10.976   3.170 -0.1519  0.1547  0.1442
  698MOL0     O92062  10.529  11.036   3.214  0.5957  0.1388  0.2220
  698MOL0     C92063  10.531  11.152   3.300 -0.1627 -0.5764 -0.6411
  698MOL0     C92064  10.426  11.252   3.265 -0.2644 -0.4723 -0.6203
  698MOL0     C92065  10.292  11.193   3.314 -0.2952  1.0730 -0.2306
  698MOL0     C92066  10.184  11.295   3.276  0.8619 -0.1907  0.2284
  698MOL0     C92067  10.049  11.231   3.271  0.0473  0.6399 -0.5527
  698MOL0     C92068   9.930  11.183   3.269  0.5948 -0.4080 -0.3343
  698MOL0     C92069  10.634  10.902   3.053  0.1878  0.4648 -1.2046
  698MOL0     C92070  10.751  10.835   2.991  0.2269 -0.7357 -0.6768
  698MOL0     H92071  11.078  10.500   3.075 -0.1124 -0.2497 -0.7121
  698MOL0     H92072  11.217  10.309   3.003 -0.5947 -0.0464  0.2810
  698MOL0     H92073  11.181  10.226   2.579  1.0762  1.7220  0.6965
  698MOL0     H92074  11.183  10.083   2.681  0.3968  0.0609  4.0960
  698MOL0     H92075  11.324  10.057   2.485  0.3643  1.3613 -0.7436
  698MOL0     H92076  11.422  10.035   2.634 -1.3450 -1.7691  0.5859
  698MOL0     H92077  11.504  10.260   2.603  0.8859 -2.2748  0.1316
  698MOL0     H92078  11.379  10.289   2.479 -2.0458 -2.4579 -0.7720
  698MOL0     H92079  11.642  10.110   2.473  1.0418  0.3009  0.6912
  698MOL0     H92080  11.507  10.079   2.360  2.4383  0.6113 -1.3617
  698MOL0     H92081  11.636  10.339   2.376 -1.9418  0.8132  1.2553
  698MOL0     H92082  11.517  10.268   2.253  0.9998 -1.6632 -1.7556
  698MOL0     H92083  11.711  10.088   2.224 -1.4203 -0.0765  3.0481
  698MOL0     H92084  11.816  10.225   2.276  0.1336 -2.4972 -0.2094
  698MOL0     H92085  11.631  10.256   2.037 -0.7317 -1.2572 -0.6618
  698MOL0     H92086  11.750  10.368   2.102 -0.3782 -1.0042 -0.1206
  698MOL0     H92087  11.864  10.269   1.923 -1.9407 -1.9710 -1.6729
  698MOL0     H92088  11.804  10.115   1.962 -0.6649 -0.1622  0.4191
  698MOL0     H92089  12.046  10.370   2.148  0.5638 -0.3787  2.2865
  698MOL0     H92090  12.321  10.334   2.156 -0.4474 -0.0444 -0.9860
  698MOL0     H92091  12.377  10.172   2.152  1.1979  2.4503 -1.1748
  698MOL0     H92092  12.418  10.301   2.370  0.9906 -0.7050 -0.0947
  698MOL0     H92093  12.348  10.136   2.366 -3.4727  0.4009  0.1618
  698MOL0     H92094  12.111  10.244   2.409  0.6972  0.0926 -1.8025
  698MOL0     H92095  12.243  10.232   2.532  1.0320  0.3963  0.3227
  698MOL0     H92096  12.298  10.472   2.491 -1.5245  2.9503  1.4580
  698MOL0     H92097  12.146  10.432   2.559 -1.6892 -0.1680 -0.6146
  698MOL0     H92098  12.232  10.727   2.402 -0.1289 -0.6615  0.5509
  698MOL0     H92099  12.128  10.911   2.507  0.5659 -0.5560  2.0479
  698MOL0     H92100  12.010  11.274   2.487  0.4089  1.1774  1.1214
  698MOL0     H92101  11.922  11.494   2.511  2.9952 -0.8918  3.6194
  698MOL0     H92102  11.542  11.695   2.644 -1.9040 -1.0762 -0.5832
  698MOL0     H92103  11.511  11.538   2.721  1.5855  1.2660  1.8491
  698MOL0     H92104  11.453  11.447   2.499 -1.0456  0.7776  0.6273
  698MOL0     H92105  11.487  11.612   2.418 -1.2772  1.5528 -0.7794
  698MOL0     H92106  11.326  11.692   2.597 -1.0015 -0.0282  0.3697
  698MOL0     H92107  11.262  11.526   2.586  0.8799 -1.3604  0.3901
  698MOL0     H92108  11.288  11.725   2.365  0.3346  0.6178  0.1030
  698MOL0     H92109  11.235  11.556   2.346  2.8322 -1.4623  1.6876
  698MOL0     H92110  11.117  11.762   2.537  0.2780 -1.3722  0.2024
  698MOL0     H92111  11.053  11.595   2.500  1.2546 -0.9642 -0.7008
  698MOL0     H92112  11.034  11.671   2.256  1.1225 -0.2193 -0.6008
  698MOL0     H92113  11.056  11.831   2.316 -0.1405  0.3529  1.7649
  698MOL0     H92114  10.820  11.648   2.401  2.1380 -0.8416 -1.3106
  698MOL0     H92115  10.855  11.810   2.469 -0.6012 -0.7279  0.5915
  698MOL0     H92116  10.677  11.829   2.286 -0.7362  0.6004  0.4522
  698MOL0     H92117  10.791  11.770   2.175 -0.4207 -1.7694  1.3851
  698MOL0     H92118  11.583  11.337   2.712 -0.8262 -1.6058 -2.2884
  698MOL0     H92119  11.655  11.111   2.680  2.2764 -0.4716  0.4289
  698MOL0     H92120  11.758  10.682   2.457  0.3115  3.8767 -0.7608
  698MOL0     H92121  11.880  10.479   2.407  0.5866 -2.2347  3.7509
  698MOL0     H92122  11.194  10.439   2.597  0.8768 -1.7930  0.4152
  698MOL0     H92123  11.071  10.647   2.683  1.7259  0.9635  1.8559
  698MOL0     H92124  10.974  10.920   3.230 -1.0267  2.4917  1.8913
  698MOL0     H92125  10.800  11.047   3.305  0.9575  0.4561  0.1320
  698MOL0     H92126  10.623  11.202   3.267 -0.3840 -0.9518 -1.8794
  698MOL0     H92127  10.552  11.129   3.405  2.6824  0.6074 -0.8419
  698MOL0     H92128  10.456  11.353   3.296 -0.8232  0.4669 -2.9755
  698MOL0     H92129  10.426  11.249   3.156  0.1571  0.7814 -0.6733
  698MOL0     H92130  10.289  11.172   3.421  3.8855  1.3911  0.1201
  698MOL0     H92131  10.274  11.099   3.262  1.5302 -0.2275  1.3597
  698MOL0     H92132  10.166  11.374   3.349 -3.8466 -0.3594 -0.4163
  698MOL0     H92133  10.214  11.338   3.180  0.8436 -2.3173 -0.7865
  698MOL0     H92134   9.828  11.154   3.278  0.1117  1.3025 -0.1212
  698MOL0     H92135  10.541  10.908   2.997 -1.0103 -0.7877  0.5674
  698MOL0     H92136  10.749  10.778   2.899 -1.5689  0.2347 -1.2912
  699MOL0     O92137   2.451   9.733  11.096 -0.2227 -0.0121 -0.3065
  699MOL0     C92138   2.530   9.761  11.003  0.3669  0.6701 -0.0536
  699MOL0     O92139   2.495   9.789  10.877 -0.0522  0.2379  0.0715
  699MOL0     C92140   2.362   9.793  10.861 -0.6439  0.0268  0.4199
  699MOL0     C92141   2.291   9.668  10.841 -0.2179  0.8734 -0.4383
  699MOL0     C92142   2.157   9.667  10.806 -0.5453  0.3333 -0.3908
  699MOL0     C92143   2.088   9.786  10.787 -0.6473 -1.1519 -0.0541
  699MOL0     O92144   1.952   9.769  10.775  0.1632  0.5667  0.2884
  699MOL0     C92145   1.857   9.884  10.748 -0.8757  0.1202 -0.5093
  699MOL0     C92146   1.711   9.847  10.724 -0.2055 -0.7316  0.1245
  699MOL0     C92147   1.695   9.707  10.644  0.2425  0.3895 -0.4511
  699MOL0     C92148   1.551   9.676  10.601  0.2003 -0.0806  0.5913
  699MOL0     C92149   1.449   9.674  10.718  0.2588  1.3090  0.2739
  699MOL0     C92150   1.504   9.580  10.826 -0.1878  0.9226 -0.3873
  699MOL0     C92151   1.408   9.571  10.947 -0.7265  0.3040 -1.0133
  699MOL0     C92152   1.451   9.468  11.051 -0.8898  0.1563  0.1512
  699MOL0     N92153   1.575   9.508  11.126  0.6629  0.1289  0.1197
  699MOL0     C92154   1.700   9.455  11.105  1.0430  0.9772 -0.6266
  699MOL0     C92155   1.787   9.535  11.163 -0.2983  0.3583 -0.1460
  699MOL0     C92156   1.931   9.522  11.186  0.3141  0.2045 -0.6064
  699MOL0     C92157   1.974   9.383  11.239  0.5601  0.0812 -0.5606
  699MOL0     C92158   1.911   9.349  11.374  0.4266  0.9379 -0.1210
  699MOL0     C92159   1.948   9.220  11.434 -0.7259  0.1254  0.6414
  699MOL0     O92160   1.910   9.119  11.341 -0.0713  0.1458  0.1248
  699MOL0     C92161   1.780   9.111  11.304  0.2210 -0.2534  0.7547
  699MOL0     C92162   1.753   9.084  11.168 -0.1560 -1.6878 -0.0376
  699MOL0     C92163   1.627   9.076  11.117 -0.3297  0.5611 -0.3313
  699MOL0     C92164   1.517   9.090  11.193  1.6461 -0.9264 -0.9137
  699MOL0     C92165   1.378   9.052  11.143  0.8245  0.2395 -0.0252
  699MOL0     O92166   1.350   9.042  11.008  0.4923  0.0900  1.0193
  699MOL0     C92167   1.220   9.004  10.968 -0.2460  0.5579 -0.0055
  699MOL0     C92168   1.158   8.881  11.003  0.5156  0.2728 -0.4427
  699MOL0     C92169   1.041   8.837  10.941  0.3085 -0.0988 -0.6455
  699MOL0     C92170   0.978   8.910  10.846 -0.1386  0.1604  1.1528
  699MOL0     O92171   0.873   8.849  10.791  0.5450  0.2169  0.2063
  699MOL0     C92172   0.771   8.920  10.716 -0.0951  0.6599  0.0223
  699MOL0     C92173   0.667   8.982  10.814 -0.3215  0.1385 -0.2894
  699MOL0     C92174   0.555   9.058  10.729  0.1997 -0.4807 -0.7813
  699MOL0     C92175   0.611   9.155  10.627 -0.1042 -0.3265 -0.1600
  699MOL0     C92176   0.504   9.263  10.581 -1.5763 -0.3234  0.5974
  699MOL0     C92177   0.446   9.354  10.698  1.0906  0.6481  0.0119
  699MOL0     C92178   0.352   9.471  10.660 -0.3809  0.2141  0.3802
  699MOL0     C92179   0.239   9.443  10.562  0.4291  0.8691 -0.2825
  699MOL0    Cl92180   0.122   9.313  10.614  0.1706  0.1541  0.0365
  699MOL0     C92181   1.027   9.031  10.810  0.1063 -0.4183  0.4739
  699MOL0     C92182   1.151   9.075  10.871 -0.5051  0.1643  0.1553
  699MOL0     O92183   1.298   9.019  11.227  0.5115  0.1238 -0.0797
  699MOL0     C92184   1.542   9.127  11.335  0.7610  0.4309  0.5698
  699MOL0     C92185   1.667   9.135  11.390  0.9534  0.6907  0.2958
  699MOL0     N92186   1.723   9.634  11.231 -0.4238 -0.0937 -0.1631
  699MOL0     N92187   1.595   9.617  11.203 -0.1502  0.3770  0.1667
  699MOL0     C92188   2.157   9.905  10.805 -0.0125  0.3996 -0.6855
  699MOL0     C92189   2.292   9.910  10.837  0.1238  0.3346  0.6304
  699MOL0     C92190   2.671   9.784  11.033 -0.1203  0.0033 -0.1034
  699MOL0     C92191   2.771   9.783  10.940  0.3948 -0.5559  0.6385
  699MOL0     C92192   2.902   9.807  10.974 -1.4026 -0.6914 -0.8973
  699MOL0     C92193   2.947   9.831  11.101 -0.2250 -0.4330  0.1720
  699MOL0     O92194   3.077   9.835  11.114 -0.0744 -0.2357  0.2838
  699MOL0     C92195   3.131   9.884  11.237 -0.0889  0.1514 -0.0707
  699MOL0     C92196   3.275   9.924  11.223  0.1621  0.1092 -0.4709
  699MOL0     C92197   3.320   9.977  11.361 -0.4871 -0.4273  0.1786
  699MOL0     C92198   3.468  10.021  11.357  0.4183  0.0288 -0.7112
  699MOL0     C92199   3.551   9.904  11.336 -0.7552  0.2241 -0.6753
  699MOL0     C92200   3.624   9.807  11.321  0.0315 -0.2802 -0.2968
  699MOL0     C92201   2.843   9.824  11.199 -0.3575 -0.0953 -0.5682
  699MOL0     C92202   2.710   9.819  11.166  0.2251 -0.3499  0.0359
  699MOL0     H92203   2.351   9.578  10.834 -2.0770 -0.4730  0.1368
  699MOL0     H92204   2.097   9.578  10.795 -3.3327  2.2643 -2.0520
  699MOL0     H92205   1.892   9.939  10.661  5.0649 -1.6280  0.3026
  699MOL0     H92206   1.860   9.953  10.832 -0.7567  0.1832 -0.5644
  699MOL0     H92207   1.668   9.934  10.674  1.4718  2.1492  3.3092
  699MOL0     H92208   1.666   9.840  10.823 -0.0586 -1.1390  0.1670
  699MOL0     H92209   1.729   9.623  10.705 -1.7332 -0.7449 -0.8450
  699MOL0     H92210   1.752   9.710  10.550 -0.9828  0.1543 -1.2194
  699MOL0     H92211   1.509   9.755  10.538  1.3551 -0.4453 -0.6634
  699MOL0     H92212   1.551   9.580  10.550  0.8874  0.2396 -0.0347
  699MOL0     H92213   1.345   9.647  10.693  0.6834  0.8714 -1.1160
  699MOL0     H92214   1.453   9.777  10.753 -1.2803  1.3314  0.4942
  699MOL0     H92215   1.601   9.604  10.871 -0.9682 -0.5899  2.2699
  699MOL0     H92216   1.508   9.483  10.775  1.8581  0.7402  0.0207
  699MOL0     H92217   1.405   9.666  11.001  0.1241 -0.6481  0.8204
  699MOL0     H92218   1.312   9.542  10.904 -0.0453 -3.1163 -0.5243
  699MOL0     H92219   1.461   9.369  11.005  0.5268 -0.4371  1.6571
  699MOL0     H92220   1.365   9.469  11.118  1.0340  4.3006  2.9851
  699MOL0     H92221   1.719   9.359  11.060 -2.0381 -0.2835  0.5112
  699MOL0     H92222   1.960   9.594  11.263  0.7292 -1.3560  0.7447
  699MOL0     H92223   1.984   9.551  11.095  2.3297 -2.4581 -0.4090
  699MOL0     H92224   2.082   9.374  11.251  0.6405  1.6462  0.1371
  699MOL0     H92225   1.933   9.313  11.165 -0.0595  1.8352 -1.9656
  699MOL0     H92226   1.949   9.431  11.437  0.0624 -0.0914  1.5044
  699MOL0     H92227   1.804   9.367  11.364  0.5778  2.0999  0.2319
  699MOL0     H92228   1.909   9.212  11.536 -0.0743 -0.1451  0.8746
  699MOL0     H92229   2.056   9.226  11.447 -0.7322  2.1501 -0.0048
  699MOL0     H92230   1.843   9.078  11.108  1.1692  2.6324  1.1922
  699MOL0     H92231   1.609   9.051  11.013 -1.0866  1.3632 -0.4091
  699MOL0     H92232   1.198   8.829  11.090  0.6703  0.0646 -0.6343
  699MOL0     H92233   0.992   8.746  10.976 -0.1705  0.3045 -0.2643
  699MOL0     H92234   0.718   8.842  10.660  1.4665 -1.3836  1.2404
  699MOL0     H92235   0.815   8.992  10.646  4.3283 -1.0764  0.7086
  699MOL0     H92236   0.703   9.062  10.878 -2.2948  0.9824 -0.1661
  699MOL0     H92237   0.624   8.914  10.887  1.1568 -0.5069  0.0247
  699MOL0     H92238   0.503   9.121  10.802 -1.3559 -0.0359 -2.2169
  699MOL0     H92239   0.487   8.985  10.686 -0.1711 -1.0975  0.7757
  699MOL0     H92240   0.707   9.199  10.657  1.1312 -2.8111 -0.2004
  699MOL0     H92241   0.639   9.097  10.538  0.8135  0.3234 -0.3129
  699MOL0     H92242   0.418   9.216  10.533 -2.2991  1.0835  0.4895
  699MOL0     H92243   0.555   9.331  10.513  0.6627 -0.8589  1.6465
  699MOL0     H92244   0.525   9.405  10.755 -0.2939  1.5727  1.1714
  699MOL0     H92245   0.390   9.297  10.773 -2.0426  1.2275 -1.7196
  699MOL0     H92246   0.316   9.518  10.751 -2.1657 -1.3617  0.5588
  699MOL0     H92247   0.412   9.550  10.614 -0.2540  0.4304  0.9163
  699MOL0     H92248   0.286   9.409  10.470 -3.3154  1.0309 -2.4497
  699MOL0     H92249   0.176   9.530  10.539  1.4295  2.6618  3.0276
  699MOL0     H92250   0.973   9.092  10.739 -0.7355 -0.4899  1.0274
  699MOL0     H92251   1.196   9.171  10.851  2.7279 -0.8986  1.5934
  699MOL0     H92252   1.457   9.128  11.402  1.1566 -0.3043  1.0964
  699MOL0     H92253   1.677   9.145  11.497 -2.1506  1.9953  0.5596
  699MOL0     H92254   2.112  10.003  10.795 -1.0107  0.2072  1.3255
  699MOL0     H92255   2.330  10.012  10.829 -1.6856  0.8740 -3.7772
  699MOL0     H92256   2.753   9.769  10.834 -2.4839  1.3638  0.7621
  699MOL0     H92257   2.969   9.807  10.889  0.8803 -2.6324  0.7777
  699MOL0     H92258   3.137   9.802  11.308  1.1506 -1.2040 -1.6769
  699MOL0     H92259   3.068   9.961  11.283  1.9668 -0.0798  3.4607
  699MOL0     H92260   3.333   9.834  11.200  2.2234  0.9768  1.0395
  699MOL0     H92261   3.296  10.000  11.147 -1.7016  1.5875  0.3813
  699MOL0     H92262   3.304   9.911  11.447 -1.3308  0.3368  0.6217
  699MOL0     H92263   3.260  10.062  11.394  1.0545  1.0989 -0.7733
  699MOL0     H92264   3.483  10.097  11.281  2.1965 -0.7312 -1.1776
  699MOL0     H92265   3.490  10.066  11.454  1.3292 -0.8820 -0.4715
  699MOL0     H92266   3.666   9.709  11.314 -1.1275 -1.4356  4.8501
  699MOL0     H92267   2.863   9.840  11.305 -1.8995  1.3312 -0.4619
  699MOL0     H92268   2.641   9.835  11.247  0.6875  0.7205  0.2293
  700MOL0     O92269   0.981   5.907   3.948 -0.0487 -0.1793  0.2142
  700MOL0     C92270   1.043   5.809   3.991 -0.8187 -0.2114 -0.8845
  700MOL0     O92271   1.011   5.679   3.972  0.5651  0.0351 -0.3291
  700MOL0     C92272   0.911   5.649   3.880 -0.2154 -0.4243  0.6772
  700MOL0     C92273   0.778   5.633   3.922 -0.4495 -0.8472 -0.2858
  700MOL0     C92274   0.675   5.615   3.832  0.9281  0.7901  0.7515
  700MOL0     C92275   0.706   5.589   3.698  0.1862  1.0015 -0.2528
  700MOL0     O92276   0.612   5.591   3.599  0.7398  0.5809 -0.1174
  700MOL0     C92277   0.516   5.479   3.608  0.1162  0.5204  0.4378
  700MOL0     C92278   0.421   5.479   3.494  0.1515 -0.2712 -1.4342
  700MOL0     C92279   0.372   5.334   3.489 -0.1495  0.5473  0.0650
  700MOL0     C92280   0.272   5.309   3.388  1.3651 -0.1704  0.4759
  700MOL0     C92281   0.159   5.416   3.388  0.2046 -0.0093  0.4297
  700MOL0     C92282   0.046   5.384   3.285  0.0135 -0.6972 -1.2400
  700MOL0     C92283  -0.066   5.487   3.300  0.3426 -0.3489  0.2101
  700MOL0     C92284  -0.156   5.445   3.178  0.0380 -0.9896  0.0389
  700MOL0     N92285  -0.296   5.493   3.189 -1.2706 -0.5154  0.3862
  700MOL0     C92286  -0.389   5.429   3.264 -0.3916 -0.5082  0.6463
  700MOL0     C92287  -0.507   5.485   3.240 -0.7874 -0.8731 -0.7551
  700MOL0     C92288  -0.639   5.431   3.294  1.1920 -0.1396  0.0929
  700MOL0     C92289  -0.769   5.493   3.236 -1.0303  0.2049  0.1213
  700MOL0     C92290  -0.880   5.463   3.326  0.0793  0.9577 -0.6474
  700MOL0     C92291  -1.014   5.527   3.286  0.1457  0.8518  0.1960
  700MOL0     O92292  -1.076   5.471   3.169 -0.6508  0.1060  0.2232
  700MOL0     C92293  -1.198   5.501   3.130  1.0207  1.1777 -0.8078
  700MOL0     C92294  -1.268   5.404   3.050 -0.8332 -0.2382 -0.1007
  700MOL0     C92295  -1.400   5.439   3.007 -0.2483  0.0937  0.2607
  700MOL0     C92296  -1.464   5.557   3.048  0.3231 -0.2488  0.0780
  700MOL0     C92297  -1.602   5.592   3.005  0.1762 -0.2536 -0.4390
  700MOL0     O92298  -1.653   5.710   3.045 -0.7717  0.6695  0.0515
  700MOL0     C92299  -1.748   5.772   2.978 -0.1217  0.6848 -0.0518
  700MOL0     C92300  -1.879   5.749   3.019  0.3745  0.5378 -0.0861
  700MOL0     C92301  -1.990   5.817   2.963  0.0822 -0.2882 -0.3463
  700MOL0     C92302  -1.971   5.904   2.857  0.9876  0.7568  0.4238
  700MOL0     O92303  -2.092   5.957   2.812 -0.7543 -0.2504 -0.5947
  700MOL0     C92304  -2.087   6.045   2.712  0.3481 -0.5014 -0.1634
  700MOL0     C92305  -2.226   6.059   2.658 -1.4016 -0.2393 -0.4519
  700MOL0     C92306  -2.287   5.933   2.594 -1.2066  0.7547  0.6394
  700MOL0     C92307  -2.438   5.935   2.584  0.7504  0.0449  0.0965
  700MOL0     C92308  -2.493   5.812   2.493  0.1195  0.3123 -0.2307
  700MOL0     C92309  -2.632   5.779   2.544  0.2620  0.2582  0.3857
  700MOL0     C92310  -2.674   5.638   2.506  0.0778  0.2500  0.2307
  700MOL0     C92311  -2.801   5.586   2.569  0.0902 -0.2495 -0.8068
  700MOL0    Cl92312  -2.825   5.419   2.497  0.2364 -0.2705 -0.3811
  700MOL0     C92313  -1.842   5.928   2.815 -0.5601  0.3851 -0.3668
  700MOL0     C92314  -1.729   5.868   2.877  0.5480  0.8809  0.4618
  700MOL0     O92315  -1.667   5.507   2.957  0.2803  0.2516 -0.8911
  700MOL0     C92316  -1.395   5.647   3.130 -0.7072 -0.0116 -0.4802
  700MOL0     C92317  -1.266   5.616   3.178 -0.1208 -1.1366  0.1847
  700MOL0     N92318  -0.480   5.578   3.140  0.2666  0.4902  0.2136
  700MOL0     N92319  -0.362   5.593   3.121  0.1313  0.6468 -0.1048
  700MOL0     C92320   0.848   5.581   3.661  0.7834 -0.2969  0.3008
  700MOL0     C92321   0.948   5.624   3.747  0.4932 -0.8002  0.4230
  700MOL0     C92322   1.146   5.837   4.090 -0.7566  0.2425 -0.0060
  700MOL0     C92323   1.200   5.730   4.169 -0.4615 -0.4180  0.4810
  700MOL0     C92324   1.297   5.755   4.271  0.3249 -0.1717  0.4506
  700MOL0     C92325   1.334   5.881   4.302 -0.7396 -1.2362 -0.2630
  700MOL0     O92326   1.436   5.894   4.393 -0.4079  0.0742  0.0945
  700MOL0     C92327   1.445   6.020   4.467  0.1295 -0.2578  0.1269
  700MOL0     C92328   1.467   6.004   4.616  0.3398  0.5025 -0.2327
  700MOL0     C92329   1.572   5.905   4.642  0.0696 -1.1303  0.0632
  700MOL0     C92330   1.603   5.903   4.797  0.1753 -0.1626  0.4364
  700MOL0     C92331   1.704   5.805   4.838  0.2828 -0.0996 -0.1553
  700MOL0     C92332   1.793   5.735   4.864 -0.5973  0.6789 -0.2517
  700MOL0     C92333   1.282   5.990   4.224  0.7384 -0.6457 -0.1284
  700MOL0     C92334   1.186   5.968   4.129 -0.3458  0.3694  0.5931
  700MOL0     H92335   0.768   5.653   4.029 -1.1535  1.0725 -0.6773
  700MOL0     H92336   0.571   5.619   3.863 -0.1575 -2.7293 -1.7938
  700MOL0     H92337   0.452   5.483   3.697  1.1956  0.5652  1.2333
  700MOL0     H92338   0.577   5.388   3.612  0.9955  1.1351  1.6726
  700MOL0     H92339   0.468   5.501   3.398  0.5038  1.9361 -0.8284
  700MOL0     H92340   0.345   5.556   3.511  1.8969  1.4856 -1.1578
  700MOL0     H92341   0.339   5.297   3.586 -0.8320 -2.3372 -1.1539
  700MOL0     H92342   0.451   5.261   3.466  0.0142  0.6874  0.1861
  700MOL0     H92343   0.320   5.296   3.291 -2.4375 -0.1848 -1.5801
  700MOL0     H92344   0.225   5.213   3.411 -0.7344 -0.1870 -3.1621
  700MOL0     H92345   0.191   5.514   3.353 -3.9957  1.5718  0.4259
  700MOL0     H92346   0.111   5.423   3.486 -1.3354 -0.1072 -0.2848
  700MOL0     H92347   0.001   5.286   3.304  0.2243 -0.6432 -0.4213
  700MOL0     H92348   0.093   5.387   3.186 -3.4718  1.5236 -3.0005
  700MOL0     H92349  -0.116   5.473   3.396  1.6049 -1.9052  0.6866
  700MOL0     H92350  -0.033   5.589   3.280 -3.0395  1.1369  1.5575
  700MOL0     H92351  -0.150   5.338   3.160 -1.1403 -0.3770 -5.9200
  700MOL0     H92352  -0.111   5.486   3.087  0.0647  0.4109  0.6564
  700MOL0     H92353  -0.369   5.343   3.327  0.4966  0.7073  2.0712
  700MOL0     H92354  -0.633   5.456   3.401  0.6256  0.7193 -0.0638
  700MOL0     H92355  -0.649   5.322   3.303 -0.2846  0.0047  0.5601
  700MOL0     H92356  -0.783   5.457   3.134  3.5277 -2.1079  0.0469
  700MOL0     H92357  -0.748   5.601   3.230 -1.8205  0.3100 -1.0822
  700MOL0     H92358  -0.895   5.355   3.335  3.1925  0.5795  1.8353
  700MOL0     H92359  -0.858   5.511   3.422  1.5144  0.3887 -0.6657
  700MOL0     H92360  -1.010   5.636   3.293  0.1762  0.7522  2.6378
  700MOL0     H92361  -1.075   5.503   3.374 -0.0650  5.2102  1.4966
  700MOL0     H92362  -1.217   5.315   3.016  1.6947  1.4020 -0.8457
  700MOL0     H92363  -1.451   5.386   2.927 -0.6359 -1.2534  1.3621
  700MOL0     H92364  -1.900   5.676   3.097  0.8180 -0.1079 -0.5577
  700MOL0     H92365  -2.092   5.803   2.999 -0.5782  1.9021 -1.1989
  700MOL0     H92366  -2.019   6.019   2.630  0.6005  2.3224 -0.9567
  700MOL0     H92367  -2.044   6.137   2.754  0.2776 -0.3521 -0.4183
  700MOL0     H92368  -2.239   6.141   2.587  1.4949  0.2663 -0.5120
  700MOL0     H92369  -2.285   6.079   2.748 -2.0271 -0.8198 -0.7248
  700MOL0     H92370  -2.252   5.852   2.658  1.7181  0.5936 -0.9905
  700MOL0     H92371  -2.249   5.924   2.491 -3.3452  0.4072 -0.1758
  700MOL0     H92372  -2.469   5.933   2.689  1.5270 -0.8942  0.3281
  700MOL0     H92373  -2.482   6.027   2.546  1.0172 -0.0544 -0.4680
  700MOL0     H92374  -2.432   5.722   2.509 -0.8353 -0.4373 -0.7318
  700MOL0     H92375  -2.494   5.838   2.387 -1.7393 -0.7584 -0.5145
  700MOL0     H92376  -2.707   5.848   2.505 -1.1364 -1.5539 -0.3182
  700MOL0     H92377  -2.638   5.785   2.653 -0.6859  1.1269  0.2927
  700MOL0     H92378  -2.691   5.636   2.398 -0.7905 -1.0014  0.3660
  700MOL0     H92379  -2.593   5.572   2.539  0.8965 -0.1604 -2.3368
  700MOL0     H92380  -2.884   5.652   2.542  1.0532  0.8880 -1.0673
  700MOL0     H92381  -2.800   5.594   2.679 -0.1386 -1.5914 -0.6950
  700MOL0     H92382  -1.820   5.996   2.734  0.0013  2.1445  1.2057
  700MOL0     H92383  -1.631   5.884   2.833  0.5377 -1.2638 -0.4799
  700MOL0     H92384  -1.454   5.734   3.155 -3.3588 -0.9529 -2.9263
  700MOL0     H92385  -1.217   5.671   3.258  0.3583  0.5471 -1.2097
  700MOL0     H92386   0.862   5.548   3.558 -0.4306  0.2099 -0.0412
  700MOL0     H92387   1.055   5.624   3.730  0.1238  1.5598 -2.8849
  700MOL0     H92388   1.172   5.627   4.150  1.9508 -1.4358  1.9555
  700MOL0     H92389   1.347   5.679   4.330  0.9760  0.7205  1.0831
  700MOL0     H92390   1.349   6.071   4.453 -0.2521 -1.6219 -3.1415
  700MOL0     H92391   1.524   6.086   4.432 -1.4524  2.5236  1.4287
  700MOL0     H92392   1.488   6.095   4.674 -2.3327 -0.1904  2.0190
  700MOL0     H92393   1.373   5.960   4.650 -1.0114  2.3997 -1.2874
  700MOL0     H92394   1.659   5.943   4.588 -2.4118  1.0512 -2.6947
  700MOL0     H92395   1.545   5.807   4.603  0.8917 -0.6131 -1.8734
  700MOL0     H92396   1.631   6.001   4.837 -0.5772  0.1232  0.2653
  700MOL0     H92397   1.516   5.869   4.853  0.6540 -1.6809  0.3033
  700MOL0     H92398   1.877   5.675   4.893 -2.5869 -2.1982 -0.1134
  700MOL0     H92399   1.303   6.094   4.243 -0.3975 -0.6056  1.0264
  700MOL0     H92400   1.136   6.053   4.084 -1.8232  0.2597  1.9593
  701MOL0     O92401   1.736  10.967   7.543 -0.2245 -0.5231  1.2720
  701MOL0     C92402   1.785  10.931   7.438  0.6479 -0.4743  0.3427
  701MOL0     O92403   1.720  10.905   7.324  1.0133  0.5031  0.0369
  701MOL0     C92404   1.580  10.892   7.316  0.2796 -0.0222 -0.7951
  701MOL0     C92405   1.512  11.004   7.278 -0.2828  0.0999 -0.1691
  701MOL0     C92406   1.374  11.019   7.291  0.2805  0.3784  0.0048
  701MOL0     C92407   1.297  10.914   7.341 -0.9431 -0.4609  0.1218
  701MOL0     O92408   1.164  10.943   7.334 -0.3047 -0.4441 -0.2251
  701MOL0     C92409   1.071  10.844   7.405 -0.7484 -0.5984  0.0188
  701MOL0     C92410   0.929  10.851   7.350 -0.0208 -0.2443 -0.4500
  701MOL0     C92411   0.874  10.997   7.366 -0.0104  0.3342  0.4729
  701MOL0     C92412   0.723  11.013   7.354  0.5150 -0.1248 -0.1418
  701MOL0     C92413   0.699  11.069   7.214  0.2999 -0.1284 -0.2280
  701MOL0     C92414   0.552  11.109   7.219 -0.4228  0.7583  0.6436
  701MOL0     C92415   0.525  11.189   7.094 -0.0927 -0.1190  0.0582
  701MOL0     C92416   0.379  11.239   7.091 -1.2031  0.1527  0.2472
  701MOL0     N92417   0.375  11.367   7.162  1.0171 -0.4854 -0.1616
  701MOL0     C92418   0.303  11.390   7.269 -0.2134  0.6572 -0.0596
  701MOL0     C92419   0.276  11.523   7.261 -1.3676  0.2915 -0.3822
  701MOL0     C92420   0.187  11.592   7.352 -0.5502 -0.1264 -0.8528
  701MOL0     C92421   0.105  11.498   7.449  0.3647 -0.0514  0.9939
  701MOL0     C92422   0.172  11.455   7.576 -0.4801 -0.4385 -0.1126
  701MOL0     C92423   0.079  11.361   7.654 -0.8453 -0.3175  0.0906
  701MOL0     O92424   0.136  11.321   7.778 -1.2299 -0.3671 -0.1837
  701MOL0     C92425   0.112  11.400   7.888  0.0989 -0.3885  0.1581
  701MOL0     C92426   0.048  11.524   7.901  0.2763 -0.2247 -1.1623
  701MOL0     C92427   0.032  11.586   8.026 -0.1020 -0.3900 -0.2544
  701MOL0     C92428   0.066  11.518   8.144 -0.5488 -0.3938 -0.3790
  701MOL0     C92429   0.034  11.577   8.277  0.4437  0.0643 -0.4217
  701MOL0     O92430  -0.042  11.697   8.275  0.1089 -0.5719  0.1200
  701MOL0     C92431  -0.052  11.770   8.396 -0.1175 -0.0454 -0.6030
  701MOL0     C92432   0.058  11.796   8.478  0.6431 -1.0899 -1.3556
  701MOL0     C92433   0.043  11.883   8.589 -1.3140 -0.2304 -0.4427
  701MOL0     C92434  -0.077  11.947   8.611  0.5546 -0.4516 -0.1009
  701MOL0     O92435  -0.092  12.019   8.728  0.8261  0.0369  0.1084
  701MOL0     C92436  -0.187  11.954   8.823  0.3229 -0.1086 -0.0197
  701MOL0     C92437  -0.130  11.973   8.964  0.2266 -0.0804  0.1298
  701MOL0     C92438  -0.232  11.940   9.083 -0.3527  0.7265 -0.2226
  701MOL0     C92439  -0.292  11.795   9.073 -0.0725 -0.5666 -0.5576
  701MOL0     C92440  -0.394  11.780   9.185  0.1839 -0.1559  0.0434
  701MOL0     C92441  -0.435  11.630   9.207  0.3902 -0.0459 -0.2589
  701MOL0     C92442  -0.504  11.569   9.094  0.0250 -0.4613  0.9242
  701MOL0     C92443  -0.510  11.420   9.093 -0.4181 -0.3104  0.0037
  701MOL0    Cl92444  -0.566  11.358   8.935 -0.0342 -0.3355 -0.5827
  701MOL0     C92445  -0.182  11.930   8.528 -0.4511 -0.1237  1.1107
  701MOL0     C92446  -0.177  11.834   8.424  0.7047 -1.1501  0.1692
  701MOL0     O92447   0.078  11.520   8.372 -0.0210  0.1669  0.6807
  701MOL0     C92448   0.135  11.400   8.127  0.2286  0.3897 -0.7399
  701MOL0     C92449   0.158  11.344   8.003  0.4372 -0.2766  0.2728
  701MOL0     N92450   0.341  11.580   7.149 -0.2684  0.6697 -0.5231
  701MOL0     N92451   0.391  11.482   7.086 -0.2545  0.1202 -0.4642
  701MOL0     C92452   1.365  10.794   7.384  0.9329  0.9119  0.3912
  701MOL0     C92453   1.504  10.788   7.363 -0.4923  0.4345  0.1922
  701MOL0     C92454   1.934  10.951   7.430  0.7821 -0.4632  1.3346
  701MOL0     C92455   1.999  10.931   7.303  0.6585  0.4240 -0.8117
  701MOL0     C92456   2.134  10.958   7.284  0.7969 -0.2373  0.5132
  701MOL0     C92457   2.216  11.000   7.394  0.1004 -0.4147 -0.4929
  701MOL0     O92458   2.350  11.027   7.368 -0.2305  0.0220  0.1865
  701MOL0     C92459   2.426  10.933   7.442 -0.3073 -0.1864  0.4615
  701MOL0     C92460   2.564  10.916   7.387  0.7191 -0.1988  0.3786
  701MOL0     C92461   2.672  11.015   7.441  0.3366  0.9557  0.1014
  701MOL0     C92462   2.812  10.985   7.397 -0.1136 -0.4964  0.7823
  701MOL0     C92463   2.832  11.019   7.253  0.1795  0.6190 -0.0555
  701MOL0     C92464   2.857  11.053   7.141  0.7345  0.0950  0.0200
  701MOL0     C92465   2.156  11.016   7.522  0.4619 -0.0869 -0.0896
  701MOL0     C92466   2.018  10.992   7.534  0.2276  0.4799 -0.2106
  701MOL0     H92467   1.554  11.100   7.249 -2.4968  2.4821  3.7119
  701MOL0     H92468   1.317  11.109   7.272 -2.4180 -0.9788  1.0635
  701MOL0     H92469   1.067  10.865   7.512  1.7230 -0.8931  0.2298
  701MOL0     H92470   1.113  10.743   7.397 -0.3211 -0.4518  0.4075
  701MOL0     H92471   0.860  10.788   7.407 -0.4261  0.0289 -0.6335
  701MOL0     H92472   0.938  10.820   7.245  4.1236  1.6810 -0.8435
  701MOL0     H92473   0.932  11.064   7.302 -1.5733  1.2738 -0.0261
  701MOL0     H92474   0.899  11.018   7.470 -1.3475 -0.4204  0.9729
  701MOL0     H92475   0.668  10.922   7.377  1.3729 -1.0338 -1.5357
  701MOL0     H92476   0.693  11.086   7.430 -3.0524  0.3110 -1.7682
  701MOL0     H92477   0.711  10.994   7.135  3.5866 -2.1597  1.9422
  701MOL0     H92478   0.763  11.155   7.193  1.2608 -1.0614 -1.2826
  701MOL0     H92479   0.533  11.164   7.311  0.7851  1.6597  0.3782
  701MOL0     H92480   0.504  11.011   7.219 -0.8012  0.8670  3.5553
  701MOL0     H92481   0.584  11.282   7.088 -0.4565  0.2480  1.6989
  701MOL0     H92482   0.542  11.125   7.007 -0.8172 -1.8314  1.1509
  701MOL0     H92483   0.319  11.163   7.143  3.4106 -3.9963  0.2359
  701MOL0     H92484   0.354  11.244   6.984  2.2033 -0.6870 -0.7204
  701MOL0     H92485   0.267  11.320   7.344  0.9337  0.5246  0.3831
  701MOL0     H92486   0.110  11.641   7.293 -0.8369  0.6394  0.1247
  701MOL0     H92487   0.242  11.661   7.418 -1.1617 -0.5652  0.1483
  701MOL0     H92488   0.060  11.426   7.380  1.0919  1.4158 -1.0935
  701MOL0     H92489   0.020  11.559   7.481  1.0340  1.8506 -0.6723
  701MOL0     H92490   0.267  11.405   7.553 -0.7654 -0.3970 -1.4594
  701MOL0     H92491   0.194  11.553   7.618  2.3724 -0.0985 -2.0891
  701MOL0     H92492   0.065  11.271   7.595 -0.1751  0.8604 -1.9517
  701MOL0     H92493  -0.016  11.414   7.664  0.6771  2.4773  1.0230
  701MOL0     H92494   0.011  11.578   7.815  3.3625  2.8580 -0.7703
  701MOL0     H92495  -0.015  11.684   8.023 -1.4895 -1.0502 -3.1392
  701MOL0     H92496   0.156  11.767   8.442  1.0685 -0.0126 -1.0852
  701MOL0     H92497   0.132  11.909   8.647 -0.4723 -0.3337 -1.6578
  701MOL0     H92498  -0.187  11.846   8.804  3.5343  0.0323 -1.4928
  701MOL0     H92499  -0.286  11.997   8.806 -0.2449 -1.2270  0.3327
  701MOL0     H92500  -0.095  12.075   8.984 -0.0108  0.0608 -0.1627
  701MOL0     H92501  -0.045  11.906   8.974 -0.1729 -0.9695 -1.9976
  701MOL0     H92502  -0.326  11.997   9.088 -2.4434 -2.3677 -1.1148
  701MOL0     H92503  -0.170  11.958   9.171  1.7059 -0.5398 -1.3305
  701MOL0     H92504  -0.344  11.792   8.977 -0.8134  0.1715 -0.1970
  701MOL0     H92505  -0.213  11.720   9.081 -0.7797 -1.3355 -0.6947
  701MOL0     H92506  -0.480  11.846   9.173  0.9379  0.4946 -2.2000
  701MOL0     H92507  -0.346  11.810   9.278 -0.6824  0.1108  0.4137
  701MOL0     H92508  -0.516  11.634   9.280 -0.6879 -0.8454 -1.3585
  701MOL0     H92509  -0.350  11.574   9.248  1.7872 -0.3412 -3.2581
  701MOL0     H92510  -0.607  11.606   9.087  0.5104  0.6977 -0.7445
  701MOL0     H92511  -0.448  11.590   9.002 -1.5967 -2.4068 -0.6018
  701MOL0     H92512  -0.567  11.384   9.180  0.5876 -0.4993  0.5951
  701MOL0     H92513  -0.405  11.392   9.105  0.0800  1.0349 -0.9620
  701MOL0     H92514  -0.277  11.980   8.548 -1.1654 -0.7974 -0.4274
  701MOL0     H92515  -0.261  11.835   8.356 -0.1796  0.4142  1.2245
  701MOL0     H92516   0.195  11.362   8.209  3.1303  3.1711 -1.3571
  701MOL0     H92517   0.227  11.262   7.984 -0.0009 -0.6574  0.3082
  701MOL0     H92518   1.310  10.711   7.427 -2.4796  3.9517  2.4560
  701MOL0     H92519   1.554  10.701   7.407 -1.6232 -0.6103 -0.5257
  701MOL0     H92520   1.936  10.886   7.228 -1.5242 -2.3703  2.3724
  701MOL0     H92521   2.172  10.936   7.185  1.5264 -1.9125  1.1360
  701MOL0     H92522   2.392  10.831   7.422  2.6610 -1.4437  1.3414
  701MOL0     H92523   2.412  10.948   7.550  1.9298  4.9438  0.3160
  701MOL0     H92524   2.604  10.816   7.407  0.0508 -0.7711 -1.0789
  701MOL0     H92525   2.554  10.929   7.279  1.1518 -2.1208  0.0717
  701MOL0     H92526   2.666  11.016   7.550  1.4587  0.2606  0.1787
  701MOL0     H92527   2.651  11.119   7.412  1.1758  1.4985  1.3260
  701MOL0     H92528   2.880  11.055   7.447 -1.1974  2.3332 -1.4201
  701MOL0     H92529   2.838  10.883   7.427  0.3329 -0.3191  1.0054
  701MOL0     H92530   2.889  11.088   7.045  0.9917  0.2751  0.1702
  701MOL0     H92531   2.203  11.068   7.605  1.3649 -2.5469  1.0551
  701MOL0     H92532   1.987  11.023   7.634 -1.2552 -0.6025 -0.3021
  702MOL0     O92533   7.610   9.138   1.503  0.1657  0.6092 -1.2675
  702MOL0     C92534   7.675   9.115   1.614  0.1908 -0.2411 -0.2262
  702MOL0     O92535   7.645   9.024   1.714  0.1993 -1.2136  0.1392
  702MOL0     C92536   7.533   8.945   1.701  1.1523 -0.0464 -0.9058
  702MOL0     C92537   7.536   8.816   1.654  0.1069  0.8274 -0.2637
  702MOL0     C92538   7.424   8.731   1.655  0.1854 -0.0964  0.7174
  702MOL0     C92539   7.294   8.780   1.686 -0.0467 -0.2282 -0.2278
  702MOL0     O92540   7.182   8.716   1.661  0.0888 -0.6220  0.3013
  702MOL0     C92541   7.150   8.601   1.735  0.3421  0.0151 -0.1474
  702MOL0     C92542   6.996   8.586   1.757 -0.9156 -0.1253  0.3575
  702MOL0     C92543   6.949   8.665   1.879 -0.4943  0.7058 -0.3322
  702MOL0     C92544   6.814   8.608   1.946 -0.1136 -0.5484 -0.6167
  702MOL0     C92545   6.696   8.655   1.864 -0.3363  0.4954 -0.7806
  702MOL0     C92546   6.578   8.596   1.940  0.2019  0.0383 -0.4025
  702MOL0     C92547   6.448   8.624   1.865 -0.0989  0.3451 -0.1254
  702MOL0     C92548   6.420   8.775   1.854 -0.5725 -0.6962  0.1727
  702MOL0     N92549   6.397   8.846   1.983  0.1412 -0.0575  0.3966
  702MOL0     C92550   6.295   8.837   2.076  0.1328  0.9454 -0.7735
  702MOL0     C92551   6.318   8.933   2.167  0.1488 -0.3881 -0.5876
  702MOL0     C92552   6.226   8.985   2.268 -0.0771 -0.2139  0.2871
  702MOL0     C92553   6.242   8.916   2.401  0.7396 -0.7058  0.0311
  702MOL0     C92554   6.173   9.001   2.513  0.0301 -0.4869 -0.6555
  702MOL0     C92555   6.192   8.951   2.648 -0.5461  0.1533 -0.4352
  702MOL0     O92556   6.113   9.033   2.742  0.5159  0.0572 -1.0006
  702MOL0     C92557   5.989   8.988   2.778 -0.1193  0.7334  0.3700
  702MOL0     C92558   5.933   9.026   2.900  0.1785  0.3365 -0.3060
  702MOL0     C92559   5.818   8.977   2.945 -0.0080 -1.0477 -0.3316
  702MOL0     C92560   5.751   8.885   2.876  0.6455 -0.4147  1.0830
  702MOL0     C92561   5.620   8.830   2.924  0.2139  0.2209  0.0859
  702MOL0     O92562   5.603   8.809   3.060 -0.5072  1.0792  0.1489
  702MOL0     C92563   5.492   8.757   3.107 -0.3392 -0.5121 -0.1685
  702MOL0     C92564   5.429   8.640   3.055  0.4963 -0.8736 -0.3549
  702MOL0     C92565   5.311   8.589   3.106 -0.7100 -0.1594 -0.1053
  702MOL0     C92566   5.243   8.659   3.205  0.3494 -0.5384 -0.9388
  702MOL0     O92567   5.126   8.611   3.256  0.3622 -0.9083  1.0838
  702MOL0     C92568   5.040   8.517   3.188  0.1395  0.2437 -0.0644
  702MOL0     C92569   5.064   8.369   3.241 -0.5874 -0.3602  0.0892
  702MOL0     C92570   4.950   8.271   3.230  0.0650 -0.1140  0.2499
  702MOL0     C92571   4.830   8.291   3.329 -0.5086  0.5708 -0.6190
  702MOL0     C92572   4.748   8.159   3.338  0.0836  0.4647 -0.1541
  702MOL0     C92573   4.666   8.132   3.209  1.0259  0.0936 -0.5063
  702MOL0     C92574   4.562   8.017   3.224  0.3265  0.8124 -1.2825
  702MOL0     C92575   4.463   8.055   3.339  0.2530  0.2276  0.1623
  702MOL0    Cl92576   4.358   8.189   3.280 -0.0530 -0.2428 -0.2052
  702MOL0     C92577   5.293   8.779   3.253 -0.6141 -0.8037  0.0093
  702MOL0     C92578   5.416   8.823   3.207  0.2955 -0.8146  0.4121
  702MOL0     O92579   5.528   8.825   2.848 -0.2711  0.2136 -0.1052
  702MOL0     C92580   5.802   8.848   2.746  0.1139  0.5494  0.1096
  702MOL0     C92581   5.914   8.904   2.694  0.1116 -0.3964 -0.1461
  702MOL0     N92582   6.439   8.993   2.132 -0.3019  1.1542  0.4351
  702MOL0     N92583   6.477   8.947   2.018 -0.6489  0.4082  0.3213
  702MOL0     C92584   7.289   8.914   1.731 -0.4249  0.6112 -0.2887
  702MOL0     C92585   7.407   8.995   1.736  1.0531 -0.7670 -0.3591
  702MOL0     C92586   7.795   9.205   1.637 -0.0727 -0.1352  0.2103
  702MOL0     C92587   7.844   9.296   1.534  0.0584  0.6918 -0.1390
  702MOL0     C92588   7.965   9.355   1.536  0.6769  0.6513 -1.0235
  702MOL0     C92589   8.044   9.326   1.645 -0.5925 -0.1566  0.4065
  702MOL0     O92590   8.178   9.356   1.652 -0.6764  0.2687 -0.0265
  702MOL0     C92591   8.254   9.327   1.530  0.8628  0.6891  0.3842
  702MOL0     C92592   8.404   9.324   1.574  0.1683  0.3532  0.3274
  702MOL0     C92593   8.436   9.462   1.644  0.1588 -0.0022 -0.3603
  702MOL0     C92594   8.588   9.481   1.623 -0.3012  1.0041 -0.1624
  702MOL0     C92595   8.623   9.534   1.495 -0.3582 -0.2813  0.2013
  702MOL0     C92596   8.664   9.566   1.385  0.2712 -0.0106  0.2973
  702MOL0     C92597   7.994   9.258   1.759  0.9155  0.3154  0.3603
  702MOL0     C92598   7.866   9.198   1.758  1.1493 -0.0985 -0.3791
  702MOL0     H92599   7.638   8.785   1.637  0.2864 -0.8059  2.9880
  702MOL0     H92600   7.428   8.626   1.631 -4.6346 -1.3231  3.7608
  702MOL0     H92601   7.192   8.596   1.835  1.3229 -0.4950 -0.5727
  702MOL0     H92602   7.191   8.511   1.689  1.9107 -0.3935  1.9387
  702MOL0     H92603   6.957   8.483   1.753 -0.2052 -0.3779 -2.3960
  702MOL0     H92604   6.950   8.636   1.671 -1.1011  0.4056  0.7670
  702MOL0     H92605   6.954   8.772   1.857 -1.4579  0.6256 -1.0210
  702MOL0     H92606   7.016   8.649   1.964  0.6219  1.4188 -1.0623
  702MOL0     H92607   6.823   8.499   1.953  3.5793 -0.3845 -0.7538
  702MOL0     H92608   6.813   8.654   2.046  1.2360  1.7465 -1.5740
  702MOL0     H92609   6.704   8.617   1.761 -0.7234 -2.2576  0.1272
  702MOL0     H92610   6.698   8.764   1.854 -1.4814  0.5536 -0.5348
  702MOL0     H92611   6.575   8.649   2.036  0.9928  0.1989 -0.4596
  702MOL0     H92612   6.579   8.489   1.962 -3.8685 -0.0509  0.1077
  702MOL0     H92613   6.465   8.584   1.765 -1.1040 -0.6097  0.0658
  702MOL0     H92614   6.358   8.578   1.907 -1.1098  3.0980  0.9103
  702MOL0     H92615   6.329   8.795   1.796  0.6173  1.7817 -1.0263
  702MOL0     H92616   6.500   8.824   1.798 -1.6432  1.9111  0.7650
  702MOL0     H92617   6.208   8.773   2.068 -0.9130  2.4077 -1.5794
  702MOL0     H92618   6.127   8.960   2.228  0.9292 -2.0079 -1.2893
  702MOL0     H92619   6.239   9.093   2.270 -0.7430  0.0462 -3.0262
  702MOL0     H92620   6.348   8.905   2.426  0.2057 -2.7712  1.6882
  702MOL0     H92621   6.206   8.812   2.398 -0.7969 -0.1777 -1.1984
  702MOL0     H92622   6.219   9.100   2.508  0.6055 -0.7938 -2.3866
  702MOL0     H92623   6.066   9.010   2.489  0.5905 -2.0028 -4.4641
  702MOL0     H92624   6.295   8.964   2.683 -1.8727  2.3302  3.3554
  702MOL0     H92625   6.153   8.849   2.645  0.2715 -0.1591 -3.1222
  702MOL0     H92626   5.988   9.098   2.959 -0.5676  1.7520 -1.2824
  702MOL0     H92627   5.772   9.016   3.034  0.8546  1.3776 -0.8664
  702MOL0     H92628   5.479   8.589   2.973  1.6458  0.7444 -0.7167
  702MOL0     H92629   5.273   8.493   3.070  2.5119 -0.5747 -2.8963
  702MOL0     H92630   5.052   8.516   3.079  0.5812  1.5548 -0.0477
  702MOL0     H92631   4.935   8.536   3.213 -0.1532  1.3878 -1.9533
  702MOL0     H92632   5.098   8.380   3.345 -1.9480  1.9152  0.3451
  702MOL0     H92633   5.149   8.332   3.183  0.4752  3.2894 -0.9003
  702MOL0     H92634   5.000   8.180   3.267  2.3767  0.4724 -1.2216
  702MOL0     H92635   4.918   8.253   3.128 -2.3179 -2.1502  1.2543
  702MOL0     H92636   4.863   8.320   3.430 -0.8330  1.7786 -0.8364
  702MOL0     H92637   4.774   8.380   3.298 -1.2433  0.9158  1.5101
  702MOL0     H92638   4.682   8.176   3.424  1.8619  2.3146  0.9187
  702MOL0     H92639   4.818   8.076   3.350 -0.0728  0.6135  2.3995
  702MOL0     H92640   4.735   8.111   3.127  1.1763  2.2632 -1.0003
  702MOL0     H92641   4.617   8.227   3.184 -2.0600 -1.3938 -0.6093
  702MOL0     H92642   4.507   7.998   3.131  2.8184 -2.4964 -2.2789
  702MOL0     H92643   4.618   7.925   3.244 -0.2917  0.4872 -1.0245
  702MOL0     H92644   4.510   8.082   3.434  0.8715 -1.0987  0.2637
  702MOL0     H92645   4.399   7.967   3.351 -1.5044  1.7639  3.3452
  702MOL0     H92646   5.233   8.835   3.324  0.6323 -0.4850  0.8295
  702MOL0     H92647   5.455   8.914   3.250 -1.1476 -0.6506  1.4533
  702MOL0     H92648   5.748   8.787   2.674 -1.2651 -0.6616  2.0936
  702MOL0     H92649   5.937   8.883   2.590  0.9962  1.7118 -0.4347
  702MOL0     H92650   7.197   8.958   1.768 -0.0269 -1.4819  3.7572
  702MOL0     H92651   7.389   9.093   1.778 -1.3658 -1.5128  0.5398
  702MOL0     H92652   7.798   9.292   1.436  2.6717  0.6396 -1.4352
  702MOL0     H92653   7.999   9.406   1.446 -0.3097 -1.5263 -2.7349
  702MOL0     H92654   8.245   9.405   1.454 -1.2710 -0.0382 -0.1816
  702MOL0     H92655   8.221   9.230   1.490  2.9235  0.2023 -0.2771
  702MOL0     H92656   8.424   9.240   1.641 -0.9300  0.0750  0.3286
  702MOL0     H92657   8.470   9.309   1.488  0.0822  0.5441  0.2278
  702MOL0     H92658   8.414   9.459   1.751  4.1974 -0.0927  0.6585
  702MOL0     H92659   8.395   9.551   1.595  2.3036  0.8166 -0.8063
  702MOL0     H92660   8.624   9.546   1.704  1.0538 -1.0541  0.9874
  702MOL0     H92661   8.639   9.388   1.652 -1.4638  0.7819  1.3674
  702MOL0     H92662   8.698   9.595   1.288 -0.4434 -1.7972 -0.5435
  702MOL0     H92663   8.057   9.233   1.844  0.4456 -0.2280  0.5539
  702MOL0     H92664   7.818   9.142   1.838  0.7276 -1.0601 -1.2754
  703MOL0     O92665  11.036   7.159   5.982 -0.0548 -0.2218  0.3710
  703MOL0     C92666  11.062   7.057   5.918  0.4180  0.4632  0.2274
  703MOL0     O92667  10.967   6.971   5.864 -0.6868 -0.3540  0.2719
  703MOL0     C92668  10.832   7.000   5.884  0.4761 -1.0587 -0.7656
  703MOL0     C92669  10.762   6.971   5.773  0.7499  0.1354  0.0752
  703MOL0     C92670  10.629   6.988   5.773  0.0112  0.0825  0.4244
  703MOL0     C92671  10.558   7.029   5.881 -0.1889 -0.9305  0.2625
  703MOL0     O92672  10.419   7.035   5.878  0.3945  0.2159  0.0264
  703MOL0     C92673  10.346   7.082   5.762  0.2603 -0.2721 -0.6107
  703MOL0     C92674  10.303   7.226   5.783 -0.0589 -0.8391 -0.2620
  703MOL0     C92675  10.245   7.254   5.922 -0.3377 -0.6370 -0.0500
  703MOL0     C92676  10.211   7.402   5.953 -0.5939 -0.1998 -0.2250
  703MOL0     C92677  10.179   7.439   6.091 -0.0835  0.6337 -0.0432
  703MOL0     C92678  10.146   7.584   6.101  0.4227 -0.0509 -0.7736
  703MOL0     C92679  10.106   7.616   6.248 -0.6003  0.1219 -0.7306
  703MOL0     C92680  10.042   7.752   6.273  0.6943 -0.1460  0.1392
  703MOL0     N92681   9.896   7.748   6.236 -0.1768 -0.1871 -0.3872
  703MOL0     C92682   9.801   7.684   6.309  0.3423 -0.1451 -0.5076
  703MOL0     C92683   9.692   7.733   6.257  0.9535  0.5540  0.2429
  703MOL0     C92684   9.563   7.690   6.305 -0.2282 -0.4303  0.7633
  703MOL0     C92685   9.531   7.728   6.452 -0.0702  0.2839  0.0012
  703MOL0     C92686   9.518   7.878   6.468 -0.3463  0.1647  0.5912
  703MOL0     C92687   9.455   7.933   6.603  0.3263  0.2800  0.6197
  703MOL0     O92688   9.327   7.866   6.610  0.0411 -0.1874 -0.3038
  703MOL0     C92689   9.239   7.881   6.712  0.8422 -0.3023  0.1664
  703MOL0     C92690   9.119   7.817   6.687  0.2780  0.2211 -1.2301
  703MOL0     C92691   9.024   7.834   6.786  0.6940 -0.3534  0.4810
  703MOL0     C92692   9.050   7.913   6.900  0.0345 -0.6162  0.5103
  703MOL0     C92693   8.938   7.944   6.987 -0.7037 -0.4514  0.5346
  703MOL0     O92694   8.837   7.848   6.982  0.4331 -0.1646 -0.9832
  703MOL0     C92695   8.718   7.879   7.041  0.2244 -0.1470  0.7443
  703MOL0     C92696   8.650   7.768   7.104  0.3981 -0.2415 -0.0079
  703MOL0     C92697   8.520   7.776   7.148  0.5618 -0.2177  0.8414
  703MOL0     C92698   8.448   7.895   7.138  0.2867  0.4112  0.4581
  703MOL0     O92699   8.320   7.894   7.188 -0.3117 -0.2204  0.0423
  703MOL0     C92700   8.252   8.023   7.193  0.1946 -0.3729 -0.6194
  703MOL0     C92701   8.121   8.021   7.274 -0.9563  0.1579 -0.5463
  703MOL0     C92702   8.140   7.997   7.425 -0.1616 -0.5358  0.5057
  703MOL0     C92703   8.195   8.124   7.501 -0.3865  0.5399 -0.0198
  703MOL0     C92704   8.136   8.125   7.647  0.0649 -0.3661  0.9537
  703MOL0     C92705   8.200   8.026   7.736  0.3965  0.0296  0.0190
  703MOL0     C92706   8.148   8.031   7.880  0.8202 -0.3733 -0.9593
  703MOL0     C92707   8.029   7.956   7.945  1.1792  0.3628  0.0278
  703MOL0    Cl92708   7.867   8.004   7.879  0.2250  0.2427  0.2109
  703MOL0     C92709   8.504   8.004   7.075 -0.1823  0.4322 -0.1363
  703MOL0     C92710   8.636   7.993   7.032 -0.9743 -0.3226  0.5969
  703MOL0     O92711   8.930   8.048   7.049  0.0915  0.2106 -0.6630
  703MOL0     C92712   9.174   7.978   6.925 -0.0205  0.2992 -0.7565
  703MOL0     C92713   9.267   7.962   6.820 -0.4369 -0.5031 -1.0908
  703MOL0     N92714   9.720   7.809   6.150 -0.4226  0.4887  0.8165
  703MOL0     N92715   9.843   7.833   6.151  0.5984 -0.3968  0.1765
  703MOL0     C92716  10.627   7.057   5.999  0.3431 -0.7133 -0.3755
  703MOL0     C92717  10.765   7.043   6.003 -0.4786  0.4162 -0.5552
  703MOL0     C92718  11.202   7.010   5.896 -0.1027  0.4570 -0.5187
  703MOL0     C92719  11.304   7.071   5.965 -0.8152 -0.2619 -0.0843
  703MOL0     C92720  11.435   7.038   5.945  0.5713 -0.3973  0.6440
  703MOL0     C92721  11.480   6.947   5.848  0.7126 -0.0534 -0.1591
  703MOL0     O92722  11.608   6.931   5.812 -0.2307 -0.0718  0.5748
  703MOL0     C92723  11.711   6.999   5.889  0.4336 -0.2170 -0.0280
  703MOL0     C92724  11.846   6.957   5.828 -0.2810  0.2644 -0.0802
  703MOL0     C92725  11.959   7.012   5.911 -0.1231 -0.1268 -0.1228
  703MOL0     C92726  12.103   6.987   5.852 -0.3240 -0.4177 -0.3594
  703MOL0     C92727  12.121   6.845   5.797  0.0956  0.1145 -0.3775
  703MOL0     C92728  12.127   6.726   5.755  0.4058 -0.2337 -0.3288
  703MOL0     C92729  11.375   6.879   5.781  0.0017  0.7686 -0.2350
  703MOL0     C92730  11.244   6.905   5.812  0.2120 -0.7836 -0.0754
  703MOL0     H92731  10.799   6.934   5.678 -1.0340  1.8946 -1.3789
  703MOL0     H92732  10.579   6.976   5.677 -0.6703  2.8446  0.3223
  703MOL0     H92733  10.258   7.017   5.763  0.8732 -1.1989 -2.5123
  703MOL0     H92734  10.389   7.075   5.662 -1.1927 -0.6275 -1.2436
  703MOL0     H92735  10.226   7.250   5.709  0.4001  1.1139 -0.1660
  703MOL0     H92736  10.389   7.290   5.763 -0.0335 -1.1428 -1.1603
  703MOL0     H92737  10.325   7.231   5.993  1.2318  1.6006 -0.9613
  703MOL0     H92738  10.149   7.203   5.927 -1.1434  0.8020 -0.3089
  703MOL0     H92739  10.294   7.464   5.919 -0.7966 -0.3693 -1.0689
  703MOL0     H92740  10.125   7.430   5.891 -0.3770  0.1250 -0.3773
  703MOL0     H92741  10.271   7.413   6.143 -0.2114  1.3569  0.5690
  703MOL0     H92742  10.101   7.378   6.137  1.4229 -0.9415  0.4833
  703MOL0     H92743  10.055   7.610   6.047  1.8762  3.5976 -1.7738
  703MOL0     H92744  10.230   7.649   6.072  0.4516  0.2095 -0.1164
  703MOL0     H92745  10.042   7.539   6.292  1.9498 -0.5501  2.1774
  703MOL0     H92746  10.198   7.618   6.308 -0.0134 -3.2682 -1.3166
  703MOL0     H92747  10.096   7.832   6.221  0.4388 -0.1540 -0.1404
  703MOL0     H92748  10.046   7.776   6.379  1.5035 -2.6347  0.7342
  703MOL0     H92749   9.804   7.614   6.392 -0.1323  1.2757  0.7495
  703MOL0     H92750   9.570   7.581   6.301  0.4887 -0.4698  2.4408
  703MOL0     H92751   9.489   7.734   6.237 -1.1478  0.7021  2.4199
  703MOL0     H92752   9.622   7.688   6.498 -0.5722 -0.1711  0.6006
  703MOL0     H92753   9.443   7.675   6.490  0.2227 -1.1232 -1.1739
  703MOL0     H92754   9.618   7.922   6.466  0.6933 -2.0982  0.4107
  703MOL0     H92755   9.469   7.927   6.383 -0.9580 -0.3597  0.6390
  703MOL0     H92756   9.431   8.038   6.583 -0.8698 -0.5193 -2.7785
  703MOL0     H92757   9.517   7.944   6.693  1.1437  1.5370 -0.0592
  703MOL0     H92758   9.090   7.763   6.597 -0.7882 -0.4390 -0.5178
  703MOL0     H92759   8.922   7.812   6.756  0.2864  2.8859 -0.9368
  703MOL0     H92760   8.703   7.673   7.110 -0.2400 -0.5891  0.3268
  703MOL0     H92761   8.479   7.691   7.201  3.3203 -1.0558  1.7713
  703MOL0     H92762   8.229   8.053   7.091 -0.2606  3.1025  0.4025
  703MOL0     H92763   8.306   8.105   7.242 -4.0857  4.6721 -3.3564
  703MOL0     H92764   8.057   7.943   7.231 -0.8523 -1.4309  1.9368
  703MOL0     H92765   8.072   8.117   7.257 -0.3310  0.7556  0.8377
  703MOL0     H92766   8.213   7.916   7.429 -0.7327 -1.0780  0.2010
  703MOL0     H92767   8.044   7.962   7.465 -0.5257 -2.2471 -1.6602
  703MOL0     H92768   8.303   8.127   7.518 -0.4315 -0.3640  0.5189
  703MOL0     H92769   8.168   8.221   7.460  0.8381  2.1413  2.6493
  703MOL0     H92770   8.030   8.098   7.644 -0.1623  0.5849 -0.4971
  703MOL0     H92771   8.159   8.224   7.687  2.8447 -1.0026  1.1606
  703MOL0     H92772   8.309   8.039   7.736  0.7830 -2.2723  2.7024
  703MOL0     H92773   8.172   7.928   7.696 -1.7457 -0.4313  2.4182
  703MOL0     H92774   8.232   8.005   7.945  1.0178 -1.5288 -1.6587
  703MOL0     H92775   8.128   8.138   7.895 -0.3684 -0.6292 -0.7007
  703MOL0     H92776   8.036   7.978   8.052  4.3564  1.1957 -0.2676
  703MOL0     H92777   8.032   7.848   7.927 -1.0165 -0.3860  3.2702
  703MOL0     H92778   8.456   8.101   7.065  2.9673  2.1185 -0.2446
  703MOL0     H92779   8.689   8.071   6.979  1.1444 -1.3415  1.1137
  703MOL0     H92780   9.201   8.043   7.007 -0.7884 -0.1934 -0.0883
  703MOL0     H92781   9.360   8.018   6.825 -1.2537  0.7988  1.3346
  703MOL0     H92782  10.582   7.108   6.083 -1.3366 -2.1345 -0.3619
  703MOL0     H92783  10.823   7.064   6.092  1.6795  0.2031 -1.8557
  703MOL0     H92784  11.291   7.141   6.047  2.0002  0.9915 -0.5960
  703MOL0     H92785  11.515   7.097   5.990  2.5903 -3.3759  1.2135
  703MOL0     H92786  11.714   6.966   5.993  0.8171 -1.1073 -0.3090
  703MOL0     H92787  11.699   7.107   5.883 -2.5915  0.1275  5.5819
  703MOL0     H92788  11.853   6.848   5.819 -0.4736  0.3119 -0.8865
  703MOL0     H92789  11.860   6.997   5.727  2.3188  0.7157  0.3814
  703MOL0     H92790  11.956   6.958   6.006  0.5277 -3.4129 -1.8158
  703MOL0     H92791  11.940   7.119   5.917  0.8907  0.3508 -3.2371
  703MOL0     H92792  12.122   7.054   5.768 -1.6919  1.1367  0.5138
  703MOL0     H92793  12.171   7.016   5.933 -1.4415 -0.5552  0.6437
  703MOL0     H92794  12.144   6.631   5.710 -1.9179 -0.1133 -1.5878
  703MOL0     H92795  11.380   6.800   5.707 -4.5541  1.1100 -1.2526
  703MOL0     H92796  11.170   6.845   5.760  0.0109  1.8258 -3.1101
  704MOL0     O92797   1.138   1.426   5.476 -0.5183  0.1816  0.5312
  704MOL0     C92798   1.172   1.488   5.376  0.0912 -0.7891  0.1140
  704MOL0     O92799   1.115   1.601   5.327  0.2154 -0.2955  0.1339
  704MOL0     C92800   1.005   1.655   5.389  0.0588  0.4132 -0.3926
  704MOL0     C92801   0.881   1.583   5.424 -0.1576 -0.5200  0.2202
  704MOL0     C92802   0.774   1.643   5.478 -0.1521 -0.8050  0.1177
  704MOL0     C92803   0.789   1.777   5.527 -0.4370  0.9226 -0.3015
  704MOL0     O92804   0.695   1.845   5.597 -0.1699  0.1138  0.5267
  704MOL0     C92805   0.560   1.816   5.550 -0.5451  0.7570  0.7802
  704MOL0     C92806   0.465   1.913   5.626 -0.0403 -0.1085 -0.3036
  704MOL0     C92807   0.318   1.910   5.555  0.2748  0.1503 -0.2377
  704MOL0     C92808   0.305   1.963   5.420  0.5816  0.1010 -0.4641
  704MOL0     C92809   0.175   2.034   5.393 -0.0798  0.5922 -0.3743
  704MOL0     C92810   0.049   1.960   5.406 -0.0466 -0.2840  0.1771
  704MOL0     C92811  -0.064   2.064   5.370 -0.3709  0.4916 -1.2499
  704MOL0     C92812  -0.177   2.000   5.286 -0.9127  0.0380 -0.3413
  704MOL0     N92813  -0.276   2.099   5.250  0.3085 -0.2233  0.0273
  704MOL0     C92814  -0.252   2.211   5.175 -0.3410 -0.8319 -0.5811
  704MOL0     C92815  -0.373   2.271   5.171 -0.0629  0.3256  0.2229
  704MOL0     C92816  -0.399   2.408   5.108  0.4587 -0.0796 -0.2286
  704MOL0     C92817  -0.361   2.412   4.958 -0.8259 -0.0104 -0.2548
  704MOL0     C92818  -0.476   2.373   4.870 -0.0141 -0.8829  1.0492
  704MOL0     C92819  -0.435   2.322   4.736 -0.2844 -0.2816 -0.4756
  704MOL0     O92820  -0.372   2.426   4.660  0.2295 -0.1683 -0.0748
  704MOL0     C92821  -0.443   2.527   4.605  0.2475 -0.2135 -0.0115
  704MOL0     C92822  -0.367   2.641   4.572  0.2075  0.4232  0.3899
  704MOL0     C92823  -0.428   2.746   4.501 -0.4833  0.8750 -0.4853
  704MOL0     C92824  -0.570   2.744   4.483 -0.4840 -0.7072  0.1936
  704MOL0     C92825  -0.635   2.864   4.429  0.3335  0.7484  0.4971
  704MOL0     O92826  -0.770   2.863   4.439  0.1766  0.5679 -0.2112
  704MOL0     C92827  -0.855   2.964   4.395 -0.7228  0.0684 -0.3129
  704MOL0     C92828  -0.819   3.099   4.354  0.6013 -0.5927  0.6861
  704MOL0     C92829  -0.926   3.181   4.304 -0.4330 -0.6376  1.4398
  704MOL0     C92830  -1.058   3.134   4.283  0.1051 -0.1822  0.1573
  704MOL0     O92831  -1.157   3.196   4.220 -0.1047  0.1434 -0.2108
  704MOL0     C92832  -1.137   3.337   4.195 -0.1955  0.8309 -0.8935
  704MOL0     C92833  -1.278   3.398   4.213 -0.2009  0.2044  0.7006
  704MOL0     C92834  -1.403   3.329   4.153 -0.0584 -1.1595 -0.5585
  704MOL0     C92835  -1.520   3.427   4.162 -0.2729 -0.5058  0.2284
  704MOL0     C92836  -1.633   3.369   4.241 -0.4737  1.0556 -0.0261
  704MOL0     C92837  -1.676   3.230   4.180 -0.6437 -0.8627  0.3168
  704MOL0     C92838  -1.772   3.152   4.272  0.3032  0.4140  0.1144
  704MOL0     C92839  -1.894   3.233   4.331  0.5604 -0.3088  0.5572
  704MOL0    Cl92840  -1.986   3.313   4.192 -0.0874 -0.3572  0.0339
  704MOL0     C92841  -1.091   3.005   4.328 -0.1446  0.5142  0.3816
  704MOL0     C92842  -0.990   2.928   4.385 -0.1349  1.0304 -0.5494
  704MOL0     O92843  -0.569   2.956   4.388 -0.5513  0.8821 -0.4600
  704MOL0     C92844  -0.648   2.634   4.524 -0.0929  0.2927  0.2305
  704MOL0     C92845  -0.583   2.528   4.584  0.0964 -0.3206 -0.2400
  704MOL0     N92846  -0.457   2.202   5.247 -0.1388  0.9102  0.1802
  704MOL0     N92847  -0.402   2.090   5.290 -0.5441 -0.1801 -0.2547
  704MOL0     C92848   0.905   1.851   5.504 -0.0781 -0.6727  0.5525
  704MOL0     C92849   1.013   1.793   5.427 -0.7661  0.1848 -0.6605
  704MOL0     C92850   1.297   1.445   5.325 -0.4568 -0.6444  0.2648
  704MOL0     C92851   1.380   1.522   5.245 -0.2544  0.6113  0.2567
  704MOL0     C92852   1.504   1.489   5.195 -0.6070  0.6524 -0.0595
  704MOL0     C92853   1.545   1.350   5.211 -0.8765 -0.0213  1.2010
  704MOL0     O92854   1.671   1.298   5.162 -0.2025 -0.1556  0.1201
  704MOL0     C92855   1.699   1.163   5.143  0.5278  0.4822  0.7491
  704MOL0     C92856   1.823   1.155   5.057 -1.1529 -0.0405 -0.0332
  704MOL0     C92857   1.872   1.009   5.048 -0.3110  0.5000  0.0274
  704MOL0     C92858   2.022   0.998   5.006 -0.0558 -0.5232  0.3949
  704MOL0     C92859   2.043   0.859   4.963 -0.1084 -0.5374 -0.4543
  704MOL0     C92860   2.064   0.745   4.935 -0.1976 -0.3147  0.3087
  704MOL0     C92861   1.453   1.265   5.268 -0.1628 -0.2280 -0.6023
  704MOL0     C92862   1.335   1.308   5.330 -0.1282  0.0765  0.0102
  704MOL0     H92863   0.875   1.477   5.400  1.8122 -1.4713  3.2442
  704MOL0     H92864   0.686   1.581   5.489 -1.3766  0.7900 -0.3970
  704MOL0     H92865   0.516   1.719   5.578 -1.3712  0.9482  0.1746
  704MOL0     H92866   0.555   1.844   5.445  0.4321  1.8274  0.9970
  704MOL0     H92867   0.510   2.012   5.636 -0.3701  0.3093 -2.4456
  704MOL0     H92868   0.449   1.875   5.727  1.2143  2.8980  1.1690
  704MOL0     H92869   0.247   1.967   5.616  1.9215  0.7517  1.2265
  704MOL0     H92870   0.292   1.804   5.542 -1.2024  0.4119  0.3460
  704MOL0     H92871   0.392   2.028   5.410  0.5605 -0.1179 -2.8056
  704MOL0     H92872   0.324   1.888   5.342 -0.2663  0.0729 -0.6542
  704MOL0     H92873   0.191   2.087   5.298  1.1058  0.5335 -0.2254
  704MOL0     H92874   0.170   2.118   5.463  0.3413 -0.1094  0.5175
  704MOL0     H92875   0.034   1.916   5.505  2.0790 -1.2926  0.1102
  704MOL0     H92876   0.044   1.876   5.335  0.1006  0.3148 -0.5521
  704MOL0     H92877  -0.112   2.098   5.462 -1.6854 -1.8925 -0.9820
  704MOL0     H92878  -0.015   2.151   5.324  2.8234  0.9768  2.5120
  704MOL0     H92879  -0.226   1.920   5.343  0.3087 -0.6986 -0.2896
  704MOL0     H92880  -0.135   1.962   5.192 -0.4209  0.5998 -0.3560
  704MOL0     H92881  -0.151   2.213   5.134  0.7961 -1.9804  1.9780
  704MOL0     H92882  -0.349   2.486   5.165  0.8409 -0.3392 -0.2077
  704MOL0     H92883  -0.501   2.430   5.139 -1.4479 -5.7383 -1.2841
  704MOL0     H92884  -0.272   2.353   4.933 -1.2432 -0.1969 -1.3850
  704MOL0     H92885  -0.337   2.517   4.939 -2.4320 -0.0139 -2.7503
  704MOL0     H92886  -0.525   2.282   4.907  0.6371 -1.8978 -0.4862
  704MOL0     H92887  -0.556   2.447   4.859 -1.6326 -2.7482 -0.4239
  704MOL0     H92888  -0.522   2.275   4.690 -0.1487  0.0161 -1.0570
  704MOL0     H92889  -0.363   2.240   4.749 -0.6214 -0.6917 -1.1564
  704MOL0     H92890  -0.260   2.649   4.588  0.2832 -1.1902  0.7529
  704MOL0     H92891  -0.365   2.823   4.459 -1.2288  1.3656 -0.7340
  704MOL0     H92892  -0.717   3.137   4.352  0.4402 -0.1792 -0.2169
  704MOL0     H92893  -0.894   3.281   4.276 -1.1470 -0.8631 -0.3348
  704MOL0     H92894  -1.102   3.356   4.093 -0.1817 -0.0030 -1.0479
  704MOL0     H92895  -1.072   3.390   4.266  0.4857 -1.0275 -0.0704
  704MOL0     H92896  -1.273   3.501   4.176  2.3838  0.9212  2.6976
  704MOL0     H92897  -1.299   3.403   4.320  0.8062 -1.1279  0.9874
  704MOL0     H92898  -1.420   3.246   4.222  1.4230  1.0512  2.7316
  704MOL0     H92899  -1.380   3.300   4.050  1.0076 -0.1058 -0.6400
  704MOL0     H92900  -1.494   3.522   4.211  0.0070  1.6421 -3.6839
  704MOL0     H92901  -1.561   3.459   4.065 -5.0198  1.1111  2.4550
  704MOL0     H92902  -1.717   3.439   4.243 -1.7150 -0.3857  0.4961
  704MOL0     H92903  -1.602   3.349   4.343 -1.1834  0.2471  0.0445
  704MOL0     H92904  -1.596   3.159   4.157  0.6282  0.5402  0.2449
  704MOL0     H92905  -1.736   3.256   4.093  0.4348  2.3305  0.3975
  704MOL0     H92906  -1.809   3.063   4.221 -0.7130  0.7517  0.2363
  704MOL0     H92907  -1.712   3.110   4.353  1.0123  0.2923 -0.4630
  704MOL0     H92908  -1.867   3.296   4.417  2.2349  0.5699 -0.5527
  704MOL0     H92909  -1.966   3.158   4.364 -0.1280 -0.5870 -1.4995
  704MOL0     H92910  -1.193   2.970   4.313 -0.7372  1.9326  0.8469
  704MOL0     H92911  -1.027   2.828   4.402  2.8955 -0.6338 -2.6910
  704MOL0     H92912  -0.756   2.635   4.523 -0.1431 -1.3573  0.3052
  704MOL0     H92913  -0.650   2.448   4.615 -1.4745  0.1649 -2.2008
  704MOL0     H92914   0.918   1.956   5.528 -0.2644 -0.1407 -1.5106
  704MOL0     H92915   1.102   1.850   5.404  0.5917 -0.4820  2.4073
  704MOL0     H92916   1.339   1.616   5.211  0.1976  0.7261  0.0168
  704MOL0     H92917   1.542   1.556   5.119 -3.1839 -0.3692 -2.4393
  704MOL0     H92918   1.622   1.104   5.093 -1.4260  1.5981  2.2825
  704MOL0     H92919   1.713   1.120   5.243 -0.1760 -4.6997 -1.0690
  704MOL0     H92920   1.814   1.199   4.958  2.9870 -1.4259 -1.1980
  704MOL0     H92921   1.893   1.209   5.120 -3.1495  3.1520 -0.3494
  704MOL0     H92922   1.810   0.955   4.976  0.5208  1.3678 -1.4060
  704MOL0     H92923   1.865   0.965   5.148  1.1036  0.7895  0.2794
  704MOL0     H92924   2.038   1.073   4.927 -0.4204 -0.9354 -0.0817
  704MOL0     H92925   2.086   1.032   5.087 -0.3623  2.2272 -0.3919
  704MOL0     H92926   2.088   0.645   4.902 -1.5357 -0.6687  0.3523
  704MOL0     H92927   1.481   1.161   5.286 -3.3336 -1.2884 -1.1661
  704MOL0     H92928   1.270   1.245   5.389  0.6716  0.9031  1.8562
  705MOL0     O92929   4.448   0.416   5.868 -0.6482  0.1537  0.3477
  705MOL0     C92930   4.479   0.296   5.876 -0.4481 -0.3566 -1.3420
  705MOL0     O92931   4.401   0.198   5.918 -0.6677  0.1530 -0.5802
  705MOL0     C92932   4.268   0.216   5.937 -0.2512  0.3939  0.0531
  705MOL0     C92933   4.212   0.152   6.049  0.7069 -0.2242 -0.5976
  705MOL0     C92934   4.067   0.151   6.066 -0.3275  0.5204  0.1168
  705MOL0     C92935   3.985   0.224   5.980  0.4029 -0.5809  0.7747
  705MOL0     O92936   3.851   0.236   5.989  0.6503  0.0277 -0.2368
  705MOL0     C92937   3.772   0.117   6.013  0.0024  0.0717  0.1849
  705MOL0     C92938   3.785   0.004   5.912  0.3118 -0.0281 -0.6343
  705MOL0     C92939   3.756  -0.131   5.974  0.2152 -0.6744  0.4025
  705MOL0     C92940   3.762  -0.233   5.856  0.1125  0.4612  0.8154
  705MOL0     C92941   3.711  -0.367   5.884 -1.2175  0.5831  0.3887
  705MOL0     C92942   3.569  -0.376   5.946  0.9129 -1.0370  0.9584
  705MOL0     C92943   3.529  -0.516   5.975  0.6739  0.1311 -0.3636
  705MOL0     C92944   3.382  -0.527   6.007  0.9838  0.1976 -0.7940
  705MOL0     N92945   3.353  -0.463   6.135  0.3295 -0.0422 -1.1643
  705MOL0     C92946   3.353  -0.525   6.257  0.1419 -0.3383 -0.0011
  705MOL0     C92947   3.285  -0.435   6.335 -0.9227  0.6994  0.2730
  705MOL0     C92948   3.255  -0.456   6.476  0.4488  0.5119  0.8194
  705MOL0     C92949   3.127  -0.519   6.497  0.5095 -0.0570 -0.4758
  705MOL0     C92950   3.003  -0.439   6.439 -0.3270  0.1712  0.6029
  705MOL0     C92951   2.879  -0.499   6.486  1.2614  0.1574  0.2605
  705MOL0     O92952   2.865  -0.623   6.417  0.9495  0.1607  0.3238
  705MOL0     C92953   2.768  -0.717   6.456  0.0197 -0.0076 -0.3340
  705MOL0     C92954   2.773  -0.842   6.387  0.1191 -0.8309  0.4735
  705MOL0     C92955   2.687  -0.950   6.413  0.1467 -0.7620 -0.8380
  705MOL0     C92956   2.592  -0.937   6.511  0.1991 -0.0332 -0.6070
  705MOL0     C92957   2.485  -1.036   6.537 -0.4807  0.1953 -0.7173
  705MOL0     O92958   2.377  -0.994   6.605  0.3337  0.0102 -0.0763
  705MOL0     C92959   2.269  -1.079   6.642 -0.4221 -0.1162 -0.2858
  705MOL0     C92960   2.239  -1.204   6.596 -0.0568 -0.5993  0.2147
  705MOL0     C92961   2.140  -1.283   6.654  0.3081 -0.3975  0.9125
  705MOL0     C92962   2.059  -1.236   6.754 -0.2342 -0.4601  0.2910
  705MOL0     O92963   1.974  -1.319   6.813 -0.0112 -0.4793  0.2850
  705MOL0     C92964   1.883  -1.277   6.916 -0.3946  0.7559  0.3135
  705MOL0     C92965   1.767  -1.190   6.852  0.2829 -0.3758  0.1723
  705MOL0     C92966   1.680  -1.271   6.749  0.2060  0.4892 -0.5823
  705MOL0     C92967   1.545  -1.198   6.705 -0.4512  0.1095  0.7012
  705MOL0     C92968   1.462  -1.291   6.608 -0.6923  0.8506 -0.5008
  705MOL0     C92969   1.314  -1.238   6.614  0.0221 -0.4897  0.6405
  705MOL0     C92970   1.221  -1.323   6.526  1.1161  0.4006 -0.7664
  705MOL0     C92971   1.167  -1.449   6.601  0.6473  0.0373 -0.1215
  705MOL0    Cl92972   1.027  -1.408   6.704 -0.1753 -0.2067  0.2786
  705MOL0     C92973   2.071  -1.097   6.783  0.2312 -0.9959  0.1675
  705MOL0     C92974   2.172  -1.021   6.728 -0.2381 -0.4626  0.0574
  705MOL0     O92975   2.495  -1.134   6.470 -0.6493 -0.1045 -0.1905
  705MOL0     C92976   2.576  -0.815   6.581 -0.3091 -1.3320  0.3304
  705MOL0     C92977   2.670  -0.709   6.557 -0.0485  0.4105  0.3914
  705MOL0     N92978   3.244  -0.338   6.262  0.3319 -0.0507  0.2903
  705MOL0     N92979   3.282  -0.351   6.140  0.0644  0.8876  0.2520
  705MOL0     C92980   4.054   0.305   5.881  0.2508  0.2245 -0.4390
  705MOL0     C92981   4.187   0.290   5.854 -0.3790 -0.7587 -0.5657
  705MOL0     C92982   4.625   0.277   5.859 -0.1031  0.2745 -0.4437
  705MOL0     C92983   4.670   0.143   5.855 -0.6021  0.5497 -0.2687
  705MOL0     C92984   4.806   0.103   5.858 -0.0571  0.4266 -0.6034
  705MOL0     C92985   4.901   0.207   5.858 -0.1563 -0.0839  0.0498
  705MOL0     O92986   5.040   0.185   5.863 -0.4213 -0.1540 -0.7280
  705MOL0     C92987   5.090   0.070   5.933 -0.8956  0.1181 -0.2876
  705MOL0     C92988   5.061   0.066   6.080 -0.6592  0.3132 -0.8218
  705MOL0     C92989   5.103  -0.068   6.140 -0.2754  0.9634  0.4877
  705MOL0     C92990   4.996  -0.173   6.115 -0.2702  0.5978  0.0630
  705MOL0     C92991   4.888  -0.169   6.221  0.5809  0.3245  1.2297
  705MOL0     C92992   4.793  -0.152   6.298 -0.1692  0.3466  0.6213
  705MOL0     C92993   4.859   0.348   5.850 -0.2138  0.4593  0.2830
  705MOL0     C92994   4.729   0.379   5.846 -0.0827  0.7598  0.4473
  705MOL0     H92995   4.282   0.103   6.116  2.0608 -1.1256 -2.5865
  705MOL0     H92996   4.035   0.100   6.157  1.2455  1.4518  1.2608
  705MOL0     H92997   3.665   0.138   6.023 -0.3775 -2.0186  1.0697
  705MOL0     H92998   3.806   0.084   6.111  1.2875 -0.6493 -0.4761
  705MOL0     H92999   3.881   0.010   5.861 -0.9574 -0.2624 -3.1972
  705MOL0     H93000   3.710   0.026   5.835 -2.0040 -3.2715  0.4732
  705MOL0     H93001   3.652  -0.121   6.006 -0.5276  1.0298 -2.2564
  705MOL0     H93002   3.826  -0.164   6.052  0.2344 -4.0344 -0.8885
  705MOL0     H93003   3.697  -0.201   5.775  1.0739  0.0515 -0.1367
  705MOL0     H93004   3.864  -0.235   5.816  0.1684 -1.0016  0.9662
  705MOL0     H93005   3.780  -0.417   5.952  0.7343 -0.0224 -1.9121
  705MOL0     H93006   3.714  -0.410   5.783 -0.5930  1.5279 -0.0148
  705MOL0     H93007   3.496  -0.330   5.878 -0.1196  0.8581  3.2223
  705MOL0     H93008   3.565  -0.321   6.040  1.2939 -1.7612  1.4080
  705MOL0     H93009   3.551  -0.592   5.899  1.5378 -1.7144  1.6139
  705MOL0     H93010   3.586  -0.550   6.062  1.8749  1.2200 -0.6949
  705MOL0     H93011   3.347  -0.631   6.004 -0.0674  0.4443  1.1535
  705MOL0     H93012   3.329  -0.475   5.927  1.3524 -1.9921 -2.5702
  705MOL0     H93013   3.398  -0.623   6.271 -0.1101 -0.1961  2.0798
  705MOL0     H93014   3.245  -0.358   6.524  1.4157 -0.1135  2.4072
  705MOL0     H93015   3.333  -0.517   6.524  0.0844 -2.5637 -2.1556
  705MOL0     H93016   3.113  -0.526   6.605  2.2343  0.9566 -0.1510
  705MOL0     H93017   3.141  -0.624   6.469 -1.2051 -0.5904  0.4966
  705MOL0     H93018   3.008  -0.338   6.481  1.6448  1.3557 -2.1988
  705MOL0     H93019   2.996  -0.447   6.330 -2.5648  0.0254  0.6931
  705MOL0     H93020   2.787  -0.446   6.458  1.4994  1.2802  1.5055
  705MOL0     H93021   2.885  -0.501   6.595  1.9273 -0.6127  0.2186
  705MOL0     H93022   2.834  -0.837   6.298 -0.9911 -0.0767 -0.2729
  705MOL0     H93023   2.692  -1.035   6.345  1.1339 -0.5660 -1.0263
  705MOL0     H93024   2.306  -1.253   6.527 -1.0994 -0.6269 -0.8171
  705MOL0     H93025   2.130  -1.383   6.613  1.1138 -0.5873  1.1507
  705MOL0     H93026   1.941  -1.217   6.986  0.2225 -0.8919  1.2620
  705MOL0     H93027   1.846  -1.361   6.974 -0.3195  0.1624 -0.4851
  705MOL0     H93028   1.799  -1.095   6.808 -2.2939  1.1440  1.3042
  705MOL0     H93029   1.702  -1.146   6.929  0.6307  2.7899 -1.2019
  705MOL0     H93030   1.662  -1.370   6.793 -1.8265  0.1763 -1.9690
  705MOL0     H93031   1.737  -1.293   6.659  0.7025  0.7878 -0.3424
  705MOL0     H93032   1.493  -1.169   6.797  0.6384  0.4171  1.2390
  705MOL0     H93033   1.574  -1.107   6.651 -3.4849 -0.0707 -1.4828
  705MOL0     H93034   1.465  -1.392   6.649 -1.1425  1.1722  0.3502
  705MOL0     H93035   1.499  -1.293   6.505  2.7458 -0.5344  0.6160
  705MOL0     H93036   1.300  -1.138   6.572  1.7970 -1.1758 -1.8741
  705MOL0     H93037   1.277  -1.243   6.716  1.2507 -2.1956  1.0397
  705MOL0     H93038   1.136  -1.261   6.497  0.1843  0.3985  1.7171
  705MOL0     H93039   1.276  -1.359   6.439  3.0585 -2.2907  1.3701
  705MOL0     H93040   1.249  -1.483   6.666 -0.5651  0.2398  1.5807
  705MOL0     H93041   1.146  -1.525   6.525 -1.4981  1.3447 -0.8980
  705MOL0     H93042   2.004  -1.038   6.846  1.6822  0.0448  0.7766
  705MOL0     H93043   2.186  -0.918   6.757  1.3186 -0.5123 -0.4318
  705MOL0     H93044   2.492  -0.784   6.642  0.9446  0.9077  1.0301
  705MOL0     H93045   2.659  -0.608   6.596 -0.5310  0.7045 -0.4865
  705MOL0     H93046   4.004   0.376   5.816  1.6001  2.3051  0.6949
  705MOL0     H93047   4.242   0.334   5.772 -2.5843  0.4631 -1.4886
  705MOL0     H93048   4.593   0.067   5.851  0.2820 -0.4870  1.1617
  705MOL0     H93049   4.818  -0.004   5.854 -3.7056 -0.4741  3.4678
  705MOL0     H93050   5.197   0.094   5.927 -1.4602  2.8836 -0.9955
  705MOL0     H93051   5.055  -0.021   5.884 -2.6819  0.7454 -0.2338
  705MOL0     H93052   5.112   0.146   6.136 -0.7068  0.5960 -1.1787
  705MOL0     H93053   4.958   0.088   6.107  0.1390  0.3386  2.6553
  705MOL0     H93054   5.106  -0.045   6.247 -0.2012 -1.3658  1.0247
  705MOL0     H93055   5.198  -0.103   6.099 -0.1064  2.5451 -0.5887
  705MOL0     H93056   4.959  -0.172   6.012 -0.4853  1.4587  0.1420
  705MOL0     H93057   5.045  -0.267   6.140  0.2995  0.6536 -0.8193
  705MOL0     H93058   4.708  -0.129   6.359  0.0443 -0.1886  1.1330
  705MOL0     H93059   4.932   0.429   5.850 -2.0131  2.2176  2.4657
  705MOL0     H93060   4.705   0.483   5.864 -0.6412  0.2977  2.8040
  706MOL0     O93061   2.857   6.749   1.078  0.4246  0.3411  0.4782
  706MOL0     C93062   2.969   6.704   1.116 -0.0157 -0.6682  0.3063
  706MOL0     O93063   3.012   6.681   1.248  0.2663  0.2764 -0.2575
  706MOL0     C93064   2.912   6.669   1.340 -0.0417 -0.2787  0.6089
  706MOL0     C93065   2.936   6.732   1.470  0.7910 -1.3211  0.1621
  706MOL0     C93066   2.846   6.706   1.571  0.8210 -0.5329 -0.7418
  706MOL0     C93067   2.727   6.629   1.555  0.2203 -0.2455  0.2163
  706MOL0     O93068   2.657   6.597   1.665 -0.0271  0.4750  0.1727
  706MOL0     C93069   2.622   6.697   1.761  0.2029 -0.2624 -0.2004
  706MOL0     C93070   2.500   6.759   1.715 -0.0986  0.5614  0.4708
  706MOL0     C93071   2.409   6.805   1.834 -0.6003  0.6145 -0.4136
  706MOL0     C93072   2.326   6.695   1.902  0.4011  0.0554  0.0719
  706MOL0     C93073   2.214   6.652   1.812  0.4217 -0.8584  0.8599
  706MOL0     C93074   2.142   6.527   1.863  0.6586  0.5764  0.3785
  706MOL0     C93075   2.026   6.498   1.768  1.0176 -0.0619  0.8009
  706MOL0     C93076   1.919   6.611   1.753  0.1635 -0.2756  0.5401
  706MOL0     N93077   1.855   6.661   1.870 -0.2125  0.2884 -0.2631
  706MOL0     C93078   1.777   6.585   1.957 -0.9827 -0.1122  0.6796
  706MOL0     C93079   1.705   6.670   2.029  0.0082 -1.0802  0.4583
  706MOL0     C93080   1.604   6.647   2.136  0.8375  0.3222  0.3744
  706MOL0     C93081   1.464   6.617   2.068 -0.4561  0.5141 -0.2789
  706MOL0     C93082   1.359   6.551   2.161  0.1762 -1.4804 -0.3799
  706MOL0     C93083   1.287   6.674   2.218  0.0008  0.2070 -0.8494
  706MOL0     O93084   1.206   6.745   2.119 -0.1502  0.8114  0.5605
  706MOL0     C93085   1.083   6.683   2.081 -1.1221 -0.0663  0.1848
  706MOL0     C93086   1.007   6.735   1.980 -0.8492  0.1499  1.3132
  706MOL0     C93087   0.892   6.672   1.931  0.1530 -0.7002 -0.3238
  706MOL0     C93088   0.843   6.562   1.996 -0.4758  0.5367  0.2760
  706MOL0     C93089   0.716   6.512   1.955 -0.3597 -0.0319  0.2362
  706MOL0     O93090   0.631   6.594   1.884 -0.7356 -0.9685 -0.5995
  706MOL0     C93091   0.498   6.559   1.859 -0.5302 -0.3702 -0.4755
  706MOL0     C93092   0.433   6.435   1.850 -0.4086 -0.0763  0.0751
  706MOL0     C93093   0.306   6.415   1.802 -0.1924 -0.2398 -0.3966
  706MOL0     C93094   0.232   6.524   1.768  0.3218 -0.0846  0.0416
  706MOL0     O93095   0.108   6.519   1.700  0.2881  0.3193 -0.1467
  706MOL0     C93096   0.052   6.391   1.671  0.2891  0.5105 -0.2832
  706MOL0     C93097  -0.059   6.415   1.571 -0.2367  0.8908 -0.6160
  706MOL0     C93098  -0.125   6.284   1.522 -0.4250  0.2922 -0.0917
  706MOL0     C93099  -0.187   6.192   1.623 -0.2565 -0.0017  0.1382
  706MOL0     C93100  -0.262   6.065   1.582  0.2555  0.4500 -0.4803
  706MOL0     C93101  -0.321   6.000   1.706  0.3761 -0.3484  0.0140
  706MOL0     C93102  -0.384   5.869   1.669  0.6101 -0.0290  0.2502
  706MOL0     C93103  -0.443   5.797   1.791  0.3382 -0.0920 -0.7609
  706MOL0    Cl93104  -0.308   5.702   1.857  0.0967  0.0826 -0.0500
  706MOL0     C93105   0.286   6.653   1.791  0.4274 -0.1757  1.0121
  706MOL0     C93106   0.418   6.669   1.826  0.1318 -0.5563 -1.0161
  706MOL0     O93107   0.693   6.394   1.983 -0.4364 -0.2171  0.4065
  706MOL0     C93108   0.915   6.506   2.103 -0.2693  0.1041  0.3149
  706MOL0     C93109   1.039   6.561   2.133 -0.4725  0.5256  0.1101
  706MOL0     N93110   1.738   6.800   1.990 -0.6301 -0.3428 -0.1183
  706MOL0     N93111   1.827   6.795   1.896 -0.3984 -0.1375  0.1805
  706MOL0     C93112   2.703   6.574   1.427  0.4444  0.2248  0.3112
  706MOL0     C93113   2.792   6.591   1.328  0.1667  0.8358 -0.1138
  706MOL0     C93114   3.075   6.712   1.020  0.6690 -0.5133  0.0034
  706MOL0     C93115   3.199   6.643   1.038  0.3948 -0.0405  0.3127
  706MOL0     C93116   3.303   6.654   0.947 -0.7098  0.2089  0.5336
  706MOL0     C93117   3.286   6.722   0.819  0.2766 -0.0864  0.6163
  706MOL0     O93118   3.371   6.743   0.716  0.2904 -0.6076 -0.5233
  706MOL0     C93119   3.515   6.731   0.732  0.5514 -0.6752  0.2316
  706MOL0     C93120   3.579   6.862   0.785  0.4159  0.3794  0.8216
  706MOL0     C93121   3.717   6.854   0.752  0.2683 -0.5395 -0.8444
  706MOL0     C93122   3.789   6.962   0.844  0.5734  0.5638 -0.1477
  706MOL0     C93123   3.934   6.958   0.812 -0.8285  0.4346 -0.7725
  706MOL0     C93124   4.048   6.950   0.776 -0.3270 -0.3056  0.4851
  706MOL0     C93125   3.155   6.777   0.804  0.1178  0.1961 -1.1175
  706MOL0     C93126   3.055   6.771   0.897  0.1735  0.0805 -0.0275
  706MOL0     H93127   3.026   6.790   1.486  0.1122 -0.7802  2.4812
  706MOL0     H93128   2.873   6.738   1.671 -0.2118 -0.7259 -0.3863
  706MOL0     H93129   2.698   6.775   1.759 -1.2272  1.1865 -2.2390
  706MOL0     H93130   2.622   6.656   1.863 -0.4522 -0.2415 -0.1818
  706MOL0     H93131   2.437   6.686   1.663  0.4739  0.2775  0.1755
  706MOL0     H93132   2.520   6.845   1.651  0.9765  1.0849  1.4721
  706MOL0     H93133   2.334   6.877   1.799 -2.4761 -0.5133  1.1090
  706MOL0     H93134   2.467   6.859   1.910  1.1314  2.9056 -3.1404
  706MOL0     H93135   2.394   6.613   1.927  1.1470  0.3069 -1.1129
  706MOL0     H93136   2.283   6.729   1.997 -0.0138 -0.8808  0.2343
  706MOL0     H93137   2.239   6.641   1.706 -2.5668  1.1350 -0.1964
  706MOL0     H93138   2.142   6.735   1.806  1.8314  0.3120 -1.9059
  706MOL0     H93139   2.107   6.544   1.965 -0.4385 -0.7105  0.2400
  706MOL0     H93140   2.210   6.442   1.850  0.0265  0.3118 -1.5288
  706MOL0     H93141   2.065   6.481   1.667 -0.8021  2.1548 -0.3632
  706MOL0     H93142   1.977   6.407   1.804  1.8364 -0.7148  0.2913
  706MOL0     H93143   1.844   6.572   1.683  1.0864  0.6451 -1.0395
  706MOL0     H93144   1.963   6.698   1.702 -1.1072  0.8295  1.2586
  706MOL0     H93145   1.774   6.477   1.972 -1.9738 -0.1137  0.5448
  706MOL0     H93146   1.600   6.734   2.202  2.3234  0.9144 -0.2647
  706MOL0     H93147   1.649   6.569   2.199 -0.4200 -1.9417 -1.3818
  706MOL0     H93148   1.485   6.541   1.993 -2.7611 -1.3873  0.8884
  706MOL0     H93149   1.432   6.708   2.015  1.5099  3.0285  2.5016
  706MOL0     H93150   1.298   6.485   2.099  0.4334 -1.5274 -0.5837
  706MOL0     H93151   1.401   6.494   2.244 -2.8925 -1.0693  1.6315
  706MOL0     H93152   1.357   6.741   2.268 -0.9218  2.1832 -2.0948
  706MOL0     H93153   1.222   6.638   2.298  2.1051 -2.4821 -0.2237
  706MOL0     H93154   1.058   6.821   1.936  1.8738 -0.7626  2.4377
  706MOL0     H93155   0.853   6.710   1.837 -0.1070  0.6157  0.2882
  706MOL0     H93156   0.481   6.339   1.867  1.3361  0.2239 -2.5020
  706MOL0     H93157   0.254   6.320   1.794 -2.8014  0.9666  0.9388
  706MOL0     H93158   0.010   6.342   1.759 -3.2700 -1.0902 -2.6358
  706MOL0     H93159   0.124   6.331   1.615 -1.3881 -2.3949  0.4369
  706MOL0     H93160  -0.015   6.464   1.484  1.1820  1.1220  0.2139
  706MOL0     H93161  -0.141   6.472   1.617 -0.7796 -0.8126  0.6116
  706MOL0     H93162  -0.062   6.223   1.457 -0.7008 -0.2582  0.1427
  706MOL0     H93163  -0.209   6.313   1.459 -1.1138 -2.1782 -0.4259
  706MOL0     H93164  -0.113   6.160   1.697 -1.3942 -3.8433 -0.1795
  706MOL0     H93165  -0.256   6.261   1.674 -1.6033 -0.4727 -0.9844
  706MOL0     H93166  -0.193   5.995   1.532  0.7401  1.7613 -1.6998
  706MOL0     H93167  -0.337   6.083   1.505  0.6880 -2.0599 -1.5994
  706MOL0     H93168  -0.395   6.071   1.742  0.7357  0.9767 -1.6918
  706MOL0     H93169  -0.243   5.984   1.781  0.6044 -0.7500 -0.3045
  706MOL0     H93170  -0.461   5.902   1.599 -0.7923 -1.1909  1.1873
  706MOL0     H93171  -0.316   5.801   1.616  2.1479  0.1772  1.8759
  706MOL0     H93172  -0.518   5.725   1.757 -1.0650  0.4827  0.9557
  706MOL0     H93173  -0.495   5.854   1.868  0.7286 -1.2557  0.4047
  706MOL0     H93174   0.210   6.730   1.780 -0.1622 -1.1240 -4.1280
  706MOL0     H93175   0.461   6.768   1.841 -0.9869 -0.3450  1.2051
  706MOL0     H93176   0.872   6.420   2.153 -1.5393  1.8794  2.4551
  706MOL0     H93177   1.086   6.505   2.214 -2.2901 -0.7911  0.2980
  706MOL0     H93178   2.628   6.499   1.402  0.4414 -0.0077  1.0015
  706MOL0     H93179   2.766   6.549   1.231 -2.1352 -2.0999  1.6286
  706MOL0     H93180   3.215   6.569   1.116  0.7182 -2.0409 -1.5536
  706MOL0     H93181   3.402   6.611   0.960 -0.6778  0.8109  2.6919
  706MOL0     H93182   3.553   6.706   0.632  2.6018 -0.1209  0.8170
  706MOL0     H93183   3.540   6.653   0.804 -0.5491 -0.5004  0.8132
  706MOL0     H93184   3.523   6.943   0.737  1.9720  0.1507 -1.5856
  706MOL0     H93185   3.569   6.877   0.893  2.5731  0.5480  1.0505
  706MOL0     H93186   3.734   6.880   0.647  0.1868  2.2463 -0.2423
  706MOL0     H93187   3.758   6.757   0.782  2.7557  1.1172  1.5142
  706MOL0     H93188   3.749   7.063   0.835 -3.1310 -0.6564  0.5204
  706MOL0     H93189   3.783   6.934   0.950  0.5677 -1.7190 -0.6854
  706MOL0     H93190   4.149   6.948   0.741 -0.5829  1.0374 -0.4153
  706MOL0     H93191   3.123   6.835   0.719 -2.6646  0.5389  0.0633
  706MOL0     H93192   2.962   6.823   0.877  1.1544  1.6541 -0.7598
  707MOL0     O93193   0.664   7.425  10.139 -0.0306 -0.1968 -0.4575
  707MOL0     C93194   0.722   7.318  10.154 -0.1234  1.1318  0.0795
  707MOL0     O93195   0.670   7.194  10.140  0.7069 -0.1778 -0.0777
  707MOL0     C93196   0.536   7.166  10.116  0.0150  1.0922  0.3967
  707MOL0     C93197   0.441   7.254  10.067  0.7195  0.3695  0.0035
  707MOL0     C93198   0.302   7.219  10.052 -0.2987 -0.1156 -0.2465
  707MOL0     C93199   0.267   7.082  10.057  0.9322  0.0150 -1.1092
  707MOL0     O93200   0.136   7.048  10.018 -0.1983 -0.8254 -0.3186
  707MOL0     C93201   0.072   6.967  10.119 -0.0947  0.8350 -0.1608
  707MOL0     C93202  -0.077   6.956  10.098  0.3530 -0.0354  0.7602
  707MOL0     C93203  -0.147   6.885  10.214 -0.6798 -0.4778  0.2431
  707MOL0     C93204  -0.293   6.873  10.162  0.1440 -1.2385 -0.1259
  707MOL0     C93205  -0.406   6.939  10.240 -0.4772  0.3539 -0.2672
  707MOL0     C93206  -0.420   6.894  10.389 -0.4229  0.0656  0.5418
  707MOL0     C93207  -0.540   6.968  10.435 -0.2508  0.3051 -0.3355
  707MOL0     C93208  -0.671   6.961  10.362  0.3685  0.6966  0.0352
  707MOL0     N93209  -0.781   7.022  10.435  0.4464 -0.1435 -0.1879
  707MOL0     C93210  -0.822   6.990  10.562 -0.0381 -0.1609  0.1306
  707MOL0     C93211  -0.927   7.069  10.584  0.0620 -0.4916  0.0383
  707MOL0     C93212  -1.004   7.068  10.708  0.0360 -0.0182 -0.2156
  707MOL0     C93213  -0.931   7.151  10.820  0.3230 -0.0662 -1.0355
  707MOL0     C93214  -0.886   7.290  10.782 -0.0642 -0.2342 -0.7112
  707MOL0     C93215  -1.006   7.386  10.768  0.8800 -0.3601  0.4329
  707MOL0     O93216  -1.054   7.426  10.902  0.1819  0.0183  0.7827
  707MOL0     C93217  -1.173   7.493  10.905 -0.0278 -0.7112 -0.4120
  707MOL0     C93218  -1.248   7.482  11.026 -0.0381 -0.1916 -0.2958
  707MOL0     C93219  -1.363   7.555  11.049  0.3354  0.0166 -0.9157
  707MOL0     C93220  -1.419   7.635  10.953  0.5028 -0.1021 -0.9981
  707MOL0     C93221  -1.552   7.703  10.971  0.4553 -0.0801  0.6280
  707MOL0     O93222  -1.592   7.746  11.090  0.2213  0.2044  0.2771
  707MOL0     C93223  -1.720   7.796  11.121  0.5745  0.5087  1.2715
  707MOL0     C93224  -1.802   7.729  11.214 -0.1849 -0.9020  0.0412
  707MOL0     C93225  -1.931   7.788  11.243  0.3733 -0.7472  0.9518
  707MOL0     C93226  -1.974   7.907  11.174  1.4458  0.2561  0.1209
  707MOL0     O93227  -2.094   7.966  11.199 -0.0923 -0.1002 -0.3452
  707MOL0     C93228  -2.178   7.921  11.306 -0.8129  0.6118  0.5384
  707MOL0     C93229  -2.280   8.030  11.329  0.1384 -0.6849 -0.2841
  707MOL0     C93230  -2.410   7.974  11.388  0.7471 -0.5585 -0.1075
  707MOL0     C93231  -2.498   8.090  11.456 -0.2874 -0.1124 -0.3433
  707MOL0     C93232  -2.602   8.045  11.551  0.3998 -0.0420 -0.3739
  707MOL0     C93233  -2.746   8.021  11.490  0.5734 -0.3110  0.0073
  707MOL0     C93234  -2.853   8.033  11.597  0.4091 -0.7708  0.7899
  707MOL0     C93235  -2.993   8.005  11.546 -0.1414  0.3475  0.3504
  707MOL0    Cl93236  -3.102   7.959  11.668  0.1723  0.2754 -0.0979
  707MOL0     C93237  -1.890   7.968  11.088  0.3847  0.5178  0.6597
  707MOL0     C93238  -1.766   7.911  11.058 -0.0476 -0.7345 -0.5164
  707MOL0     O93239  -1.620   7.707  10.867 -0.2863  0.1909 -0.0848
  707MOL0     C93240  -1.360   7.637  10.828 -0.4605  0.5286 -0.6452
  707MOL0     C93241  -1.234   7.576  10.810 -0.1973 -0.0232 -0.2697
  707MOL0     N93242  -0.950   7.151  10.468 -0.0588  0.9555 -0.2716
  707MOL0     N93243  -0.866   7.114  10.377 -0.0159  0.2907 -0.5339
  707MOL0     C93244   0.367   6.988  10.095  0.2302  0.2006 -0.0296
  707MOL0     C93245   0.495   7.031  10.122  0.3937  0.5333 -0.8890
  707MOL0     C93246   0.866   7.320  10.172  0.3936  0.2891 -0.1853
  707MOL0     C93247   0.950   7.234  10.100 -0.5231 -0.0102 -0.4950
  707MOL0     C93248   1.088   7.243  10.118 -0.2405  0.5385 -0.3922
  707MOL0     C93249   1.149   7.324  10.217  0.1843 -0.3034 -0.0014
  707MOL0     O93250   1.282   7.330  10.237 -0.3705 -0.1827  0.0078
  707MOL0     C93251   1.358   7.374  10.119  1.6404 -0.3371  0.2326
  707MOL0     C93252   1.506   7.341  10.133 -0.3100 -0.2821  0.3323
  707MOL0     C93253   1.539   7.196  10.176  0.2587 -0.7759 -0.3550
  707MOL0     C93254   1.572   7.110  10.051  0.7240 -0.3208  0.4863
  707MOL0     C93255   1.572   6.967  10.085 -0.1659  0.1916  0.3474
  707MOL0     C93256   1.568   6.852  10.089 -0.0608 -0.0791 -0.4578
  707MOL0     C93257   1.059   7.415  10.286  0.4321  0.2898  0.3599
  707MOL0     C93258   0.922   7.408  10.266 -0.6658 -0.1919  0.0530
  707MOL0     H93259   0.466   7.357  10.044 -0.6862  0.9012  0.7025
  707MOL0     H93260   0.224   7.291  10.029 -2.0637 -1.8256  0.1360
  707MOL0     H93261   0.096   6.998  10.221  2.4479 -1.0302 -0.0946
  707MOL0     H93262   0.119   6.868  10.112 -0.4144  0.5513  1.3411
  707MOL0     H93263  -0.094   6.906  10.002  2.1494  0.4064  0.1701
  707MOL0     H93264  -0.110   7.057  10.075  1.9554  0.2354 -0.5652
  707MOL0     H93265  -0.149   6.957  10.297  0.1785 -1.9198  1.5843
  707MOL0     H93266  -0.110   6.787  10.246 -1.4062 -1.2820 -1.2943
  707MOL0     H93267  -0.302   6.911  10.060 -4.1242 -0.0927  0.5140
  707MOL0     H93268  -0.324   6.768  10.155 -1.1296 -0.9770  1.2574
  707MOL0     H93269  -0.497   6.924  10.182 -1.5574  1.7802  0.9904
  707MOL0     H93270  -0.378   7.045  10.241  0.0940  0.2152  0.8858
  707MOL0     H93271  -0.325   6.923  10.434  0.7382  0.9039 -2.2620
  707MOL0     H93272  -0.429   6.785  10.382  0.5197  0.0423 -0.6743
  707MOL0     H93273  -0.555   6.938  10.539  0.3412 -0.1408 -0.3716
  707MOL0     H93274  -0.526   7.077  10.440 -1.4030  0.4449  0.2715
  707MOL0     H93275  -0.688   6.856  10.337  0.1990  0.9884 -1.1566
  707MOL0     H93276  -0.668   7.014  10.266 -0.3526 -2.6057 -1.9491
  707MOL0     H93277  -0.788   6.915  10.633  0.3702 -1.4140 -1.3361
  707MOL0     H93278  -1.017   6.968  10.751 -0.8287 -0.4018 -1.3266
  707MOL0     H93279  -1.104   7.100  10.677  0.1229  0.0660 -0.4066
  707MOL0     H93280  -0.837   7.106  10.853  0.3066  1.0703  0.6968
  707MOL0     H93281  -0.994   7.158  10.909  0.2994 -0.8762 -0.9819
  707MOL0     H93282  -0.815   7.342  10.847 -3.1622  0.8795  2.0400
  707MOL0     H93283  -0.834   7.294  10.686  2.5059 -3.1992  0.4105
  707MOL0     H93284  -1.093   7.342  10.718  0.8201 -0.5185  0.6740
  707MOL0     H93285  -0.980   7.463  10.695 -1.6007 -1.3885 -1.7162
  707MOL0     H93286  -1.207   7.418  11.103  0.2504 -1.0895 -1.1697
  707MOL0     H93287  -1.414   7.546  11.145 -0.3943 -0.8524 -1.3610
  707MOL0     H93288  -1.775   7.637  11.264 -0.9367 -2.1479 -1.7437
  707MOL0     H93289  -1.998   7.735  11.311  1.8650 -1.3151  2.0476
  707MOL0     H93290  -2.124   7.894  11.397 -2.7153 -1.4007  1.1647
  707MOL0     H93291  -2.242   7.840  11.271  0.3790 -0.1703  0.0937
  707MOL0     H93292  -2.312   8.092  11.245 -2.8013 -0.3045  0.9841
  707MOL0     H93293  -2.237   8.111  11.389 -0.5613  1.1637 -2.1510
  707MOL0     H93294  -2.380   7.901  11.464 -2.0897  0.2630  1.9609
  707MOL0     H93295  -2.469   7.911  11.321 -0.2141 -0.1441  0.3385
  707MOL0     H93296  -2.423   8.142  11.517 -0.1315  1.9676 -2.1343
  707MOL0     H93297  -2.536   8.159  11.380 -0.0404 -1.8336 -2.1091
  707MOL0     H93298  -2.610   8.119  11.631  1.4441 -2.1402  1.8023
  707MOL0     H93299  -2.571   7.950  11.596  0.4560  0.3877  0.5273
  707MOL0     H93300  -2.756   7.922  11.444 -2.1304 -0.0548 -0.0763
  707MOL0     H93301  -2.764   8.096  11.412 -1.2958  0.8761  1.4843
  707MOL0     H93302  -2.828   7.965  11.679 -1.3661 -0.1986  1.8499
  707MOL0     H93303  -2.852   8.135  11.636 -0.1656  0.4251 -2.0712
  707MOL0     H93304  -2.983   7.917  11.482  1.3505  0.4758  0.3804
  707MOL0     H93305  -3.040   8.082  11.483 -2.4713 -0.0186  1.4968
  707MOL0     H93306  -1.932   8.057  11.043  4.9565  2.1523 -0.9174
  707MOL0     H93307  -1.700   7.946  10.979  0.9143 -0.3918  0.4067
  707MOL0     H93308  -1.404   7.687  10.743 -1.5917 -0.5068 -0.6968
  707MOL0     H93309  -1.187   7.569  10.713 -0.3933 -3.0920 -0.2254
  707MOL0     H93310   0.338   6.883  10.097  2.6635 -0.5134  0.4687
  707MOL0     H93311   0.577   6.966  10.152  0.1470 -0.2283 -1.8454
  707MOL0     H93312   0.900   7.174  10.025 -2.3919  1.9058 -0.8993
  707MOL0     H93313   1.148   7.176  10.057 -0.8356 -4.5711  3.8826
  707MOL0     H93314   1.339   7.482  10.107 -0.1230 -0.7168 -0.7820
  707MOL0     H93315   1.319   7.331  10.026  0.5915  2.9592 -1.0031
  707MOL0     H93316   1.553   7.363  10.037 -0.9758 -0.1927  0.0220
  707MOL0     H93317   1.555   7.409  10.203  1.6218 -1.5926  0.3179
  707MOL0     H93318   1.451   7.164  10.233  0.5170 -0.9708 -0.0608
  707MOL0     H93319   1.632   7.196  10.234 -0.0285 -1.5567  0.1154
  707MOL0     H93320   1.493   7.126   9.976  1.4160  0.9292 -0.0116
  707MOL0     H93321   1.664   7.140  10.000  0.0875  0.5751 -0.1820
  707MOL0     H93322   1.565   6.745  10.086 -2.1315 -0.1751  2.1271
  707MOL0     H93323   1.091   7.475  10.371  1.7422  0.0177  0.0855
  707MOL0     H93324   0.859   7.475  10.324 -0.0185 -0.6539  1.3384
  708MOL0     O93325   4.242  11.044   9.191 -0.6018  0.4917 -0.4829
  708MOL0     C93326   4.282  10.992   9.085  1.1497 -0.9656 -0.2439
  708MOL0     O93327   4.196  10.967   8.980  0.1701 -0.0862 -0.0421
  708MOL0     C93328   4.066  11.000   8.973  0.2051  0.3032 -0.4081
  708MOL0     C93329   3.985  10.918   8.896 -0.6068 -0.3013 -0.0741
  708MOL0     C93330   3.845  10.935   8.886  0.2115 -0.0515 -0.8125
  708MOL0     C93331   3.784  11.030   8.967 -0.0047  0.1779  0.1071
  708MOL0     O93332   3.650  11.049   8.937  0.0706  0.6523  0.0135
  708MOL0     C93333   3.567  11.040   9.052  0.4092  0.0352 -0.4118
  708MOL0     C93334   3.420  11.018   9.004 -0.7049  0.2708 -0.8348
  708MOL0     C93335   3.332  11.011   9.126 -0.9642  0.8946  0.5466
  708MOL0     C93336   3.354  10.870   9.200 -0.7791 -0.5204 -0.3892
  708MOL0     C93337   3.248  10.863   9.305 -0.6085 -0.1318  0.0290
  708MOL0     C93338   3.239  10.723   9.373 -0.0553  0.1659 -0.4901
  708MOL0     C93339   3.140  10.647   9.299  0.6874  0.6398 -0.7772
  708MOL0     C93340   3.127  10.498   9.348 -0.1881 -0.1992 -0.2811
  708MOL0     N93341   3.018  10.430   9.274  0.5096  0.2572 -0.9804
  708MOL0     C93342   3.031  10.311   9.206  0.3285 -0.0536 -0.3730
  708MOL0     C93343   2.901  10.270   9.191 -0.6215 -0.3706  0.1127
  708MOL0     C93344   2.834  10.155   9.117  0.1295  0.3845 -0.5492
  708MOL0     C93345   2.825  10.198   8.965 -1.1359 -0.0487 -0.3617
  708MOL0     C93346   2.750  10.093   8.881  0.4126  0.2798 -1.0371
  708MOL0     C93347   2.597  10.091   8.910 -0.4029  0.8308  0.6593
  708MOL0     O93348   2.526  10.026   8.804  0.1420 -0.1494 -0.4279
  708MOL0     C93349   2.391   9.995   8.820 -0.1128 -0.8243 -0.3347
  708MOL0     C93350   2.329   9.934   8.709 -0.0303  0.2221  1.1520
  708MOL0     C93351   2.195   9.903   8.713 -0.0286 -1.1489  0.2393
  708MOL0     C93352   2.120   9.909   8.826 -0.8630 -0.1434 -0.8410
  708MOL0     C93353   1.969   9.891   8.830  0.5973 -0.1636  0.2099
  708MOL0     O93354   1.896   9.902   8.721  0.4643 -0.4030 -0.0357
  708MOL0     C93355   1.763   9.869   8.723 -1.3198  0.7654  0.2130
  708MOL0     C93356   1.722   9.740   8.744 -0.7419  0.4817  0.2330
  708MOL0     C93357   1.588   9.699   8.720 -0.1839 -0.5414  0.6168
  708MOL0     C93358   1.497   9.791   8.691 -0.3749 -0.7395  0.0866
  708MOL0     O93359   1.366   9.758   8.669  0.1868  0.3976 -0.1254
  708MOL0     C93360   1.285   9.791   8.777 -0.2520 -0.5891  0.2656
  708MOL0     C93361   1.230   9.675   8.861 -0.0284 -0.0380 -0.5725
  708MOL0     C93362   1.112   9.601   8.803 -0.1940  0.0155 -0.6040
  708MOL0     C93363   1.084   9.473   8.877  0.7472  0.7741  0.1602
  708MOL0     C93364   0.934   9.433   8.889  0.1176 -0.2636  0.6184
  708MOL0     C93365   0.847   9.534   8.971  0.4437 -0.0884 -0.1194
  708MOL0     C93366   0.687   9.513   8.972  0.0434 -0.2817  0.5405
  708MOL0     C93367   0.616   9.629   9.035 -0.8477 -0.3412 -0.0407
  708MOL0    Cl93368   0.634   9.783   8.940  0.2026  0.1433 -0.1233
  708MOL0     C93369   1.536   9.931   8.677  0.1850  0.5903 -1.0421
  708MOL0     C93370   1.673   9.967   8.692  0.6800 -0.4506 -0.2025
  708MOL0     O93371   1.921   9.863   8.944  0.0612 -0.2692 -0.2473
  708MOL0     C93372   2.182   9.967   8.936 -0.5512  0.5721  0.5028
  708MOL0     C93373   2.317  10.003   8.939 -0.1500 -0.2039  0.3910
  708MOL0     N93374   2.813  10.365   9.250  0.3275 -0.0466  0.1980
  708MOL0     N93375   2.884  10.450   9.310 -0.5498  0.5629 -0.4245
  708MOL0     C93376   3.862  11.110   9.045  0.1430  0.0795  0.4405
  708MOL0     C93377   4.005  11.105   9.049  0.0567 -0.3341  1.6557
  708MOL0     C93378   4.428  10.969   9.053 -0.1874 -0.2519 -0.2081
  708MOL0     C93379   4.524  10.996   9.153  0.6147 -0.3207 -0.1841
  708MOL0     C93380   4.664  10.999   9.137 -0.3981  0.7621 -0.7053
  708MOL0     C93381   4.711  10.967   9.011 -0.6105 -0.1815  0.2510
  708MOL0     O93382   4.842  10.952   8.969 -0.4240  0.2033  0.1464
  708MOL0     C93383   4.932  10.912   9.069 -0.0131 -0.4009 -1.2244
  708MOL0     C93384   5.013  11.033   9.113  0.1218 -0.1107  0.1640
  708MOL0     C93385   5.065  11.014   9.248 -0.8173  0.1423  0.1035
  708MOL0     C93386   5.189  10.916   9.263 -0.0681 -0.1014 -0.3532
  708MOL0     C93387   5.178  10.770   9.235 -0.1396  0.0693  0.0479
  708MOL0     C93388   5.175  10.648   9.216  0.9257  0.3261  0.7933
  708MOL0     C93389   4.621  10.951   8.902  0.3446  0.4092 -0.7092
  708MOL0     C93390   4.482  10.958   8.923 -0.4930  0.1069 -0.3358
  708MOL0     H93391   4.029  10.849   8.825  1.2774 -0.3795  1.0860
  708MOL0     H93392   3.793  10.891   8.802  0.8190 -4.0859  0.7100
  708MOL0     H93393   3.565  11.131   9.113  2.8814 -1.3432  1.9653
  708MOL0     H93394   3.606  10.965   9.121 -0.4113 -0.7319 -0.7638
  708MOL0     H93395   3.403  10.932   8.939 -4.1292 -0.9746  1.4313
  708MOL0     H93396   3.393  11.105   8.943 -2.2904 -0.6530 -1.5127
  708MOL0     H93397   3.226  11.027   9.106 -1.5238 -1.2797  1.4901
  708MOL0     H93398   3.371  11.091   9.190  0.8998 -0.2722  0.9568
  708MOL0     H93399   3.339  10.801   9.116 -2.1323 -1.2950  0.4470
  708MOL0     H93400   3.454  10.864   9.242 -0.7268  0.6369 -0.3178
  708MOL0     H93401   3.154  10.890   9.256 -0.1802 -0.3849 -0.9705
  708MOL0     H93402   3.267  10.938   9.381 -0.0769  0.6237 -0.8239
  708MOL0     H93403   3.210  10.726   9.478  1.1160  3.0631 -0.1564
  708MOL0     H93404   3.340  10.682   9.377  0.3616  0.9177 -2.2946
  708MOL0     H93405   3.040  10.689   9.312  0.3673  0.1414 -1.5613
  708MOL0     H93406   3.160  10.651   9.192  1.6211  0.5617 -0.6079
  708MOL0     H93407   3.116  10.495   9.457  1.4563  2.7968  0.1000
  708MOL0     H93408   3.223  10.453   9.322  0.2267  0.2927  0.3481
  708MOL0     H93409   3.126  10.272   9.172  0.1501 -0.4845 -0.3878
  708MOL0     H93410   2.735  10.138   9.161 -0.1948  3.0278 -0.1274
  708MOL0     H93411   2.888  10.061   9.130  0.9911  1.0540  1.0407
  708MOL0     H93412   2.920  10.228   8.921 -2.1604  0.0893 -2.5979
  708MOL0     H93413   2.765  10.290   8.960  0.8988  1.3625 -0.3193
  708MOL0     H93414   2.762  10.122   8.776  3.3481  3.5625 -0.0055
  708MOL0     H93415   2.794   9.993   8.889  1.1530  0.7367  1.9125
  708MOL0     H93416   2.562  10.193   8.931  1.7211  2.1139 -1.5909
  708MOL0     H93417   2.579  10.046   9.008  1.4228 -0.1065  0.6034
  708MOL0     H93418   2.390   9.918   8.621  0.8356 -2.2115  2.1226
  708MOL0     H93419   2.153   9.858   8.624  0.6772 -1.3380 -0.0095
  708MOL0     H93420   1.804   9.672   8.764  1.4315  2.5812 -0.9694
  708MOL0     H93421   1.568   9.595   8.741  1.5440 -1.1257 -0.4577
  708MOL0     H93422   1.197   9.844   8.740 -0.2283  0.0177  1.0705
  708MOL0     H93423   1.339   9.861   8.840  0.2807 -1.1083  0.3953
  708MOL0     H93424   1.181   9.721   8.948  0.3741  1.7255 -1.2286
  708MOL0     H93425   1.310   9.606   8.889 -0.6777  0.1392  2.0267
  708MOL0     H93426   1.122   9.574   8.697 -2.1299 -0.1850 -0.7702
  708MOL0     H93427   1.031   9.674   8.809  0.3013  0.5968 -0.8810
  708MOL0     H93428   1.150   9.397   8.832  0.3214  1.5199 -1.8448
  708MOL0     H93429   1.103   9.489   8.983 -3.1148  0.1240  1.0935
  708MOL0     H93430   0.934   9.337   8.942  3.3335 -0.8370 -0.2468
  708MOL0     H93431   0.892   9.419   8.789  1.0589 -1.3766  0.3647
  708MOL0     H93432   0.862   9.623   8.909 -0.3000 -1.9078 -3.1417
  708MOL0     H93433   0.890   9.526   9.071  1.2305 -0.0277 -0.4494
  708MOL0     H93434   0.652   9.506   8.869  0.0007  4.7878 -0.0181
  708MOL0     H93435   0.666   9.418   9.023  0.1255 -0.8768 -0.5036
  708MOL0     H93436   0.655   9.640   9.137 -0.3671 -1.2465 -0.1208
  708MOL0     H93437   0.509   9.607   9.038 -1.0721  0.7909  0.9457
  708MOL0     H93438   1.456  10.001   8.653  0.3331  0.4781 -1.8905
  708MOL0     H93439   1.698  10.071   8.675 -1.3755  0.1064 -0.0594
  708MOL0     H93440   2.112   9.986   9.017  0.4393 -0.9598  1.7885
  708MOL0     H93441   2.343  10.049   9.034 -0.9351 -1.3315  1.1875
  708MOL0     H93442   3.817  11.186   9.108 -2.3077 -1.4784  0.7319
  708MOL0     H93443   4.068  11.174   9.103  2.0322 -2.2268  1.9051
  708MOL0     H93444   4.479  11.015   9.250 -0.4553  1.3230 -0.9496
  708MOL0     H93445   4.724  11.031   9.221 -2.1251  0.3244  0.7622
  708MOL0     H93446   5.005  10.851   9.014  1.1977 -0.4388  0.3537
  708MOL0     H93447   4.885  10.853   9.148 -0.9974  0.5236 -1.1094
  708MOL0     H93448   5.094  11.058   9.044  2.1004 -0.1827  2.3523
  708MOL0     H93449   4.954  11.124   9.129 -0.5359 -0.3254 -0.9298
  708MOL0     H93450   4.990  10.985   9.323  1.8096 -1.4207  2.3156
  708MOL0     H93451   5.117  11.105   9.280 -2.1028  0.6707  0.7981
  708MOL0     H93452   5.277  10.944   9.205 -0.3083  0.2605 -0.5508
  708MOL0     H93453   5.228  10.919   9.366  1.3025 -0.8207 -0.8326
  708MOL0     H93454   5.160  10.542   9.218  0.9608  0.2548 -1.1153
  708MOL0     H93455   4.654  10.924   8.802  1.1196 -0.7467 -0.1690
  708MOL0     H93456   4.420  10.947   8.834  0.2082  0.9814 -0.9465
  709MOL0     O93457   6.418   6.727   4.212  0.2604 -0.6018 -0.4201
  709MOL0     C93458   6.369   6.617   4.170  0.8393 -0.6885  0.6954
  709MOL0     O93459   6.423   6.544   4.063 -0.6297  0.3568  0.7789
  709MOL0     C93460   6.533   6.595   3.996 -0.0366 -0.2698 -0.5968
  709MOL0     C93461   6.522   6.702   3.907 -0.9185 -0.6111 -0.4007
  709MOL0     C93462   6.647   6.763   3.870  0.5681  0.7109  0.5697
  709MOL0     C93463   6.773   6.705   3.893 -0.3165 -0.1530  0.1776
  709MOL0     O93464   6.887   6.750   3.841  0.7022 -0.2523  0.1028
  709MOL0     C93465   6.872   6.828   3.726 -0.1958 -0.1091  0.0087
  709MOL0     C93466   7.013   6.827   3.660 -0.0413  0.3473 -0.1929
  709MOL0     C93467   7.064   6.682   3.657 -1.1677 -0.6175  0.4381
  709MOL0     C93468   6.994   6.594   3.550  0.3910 -1.1287  0.4512
  709MOL0     C93469   7.087   6.519   3.461  0.4385  0.1599  0.1552
  709MOL0     C93470   7.006   6.450   3.347 -0.7894  0.2118 -0.3839
  709MOL0     C93471   7.087   6.365   3.249 -0.4872  1.1930  0.5415
  709MOL0     C93472   7.149   6.238   3.298  0.1305  0.9572 -0.1847
  709MOL0     N93473   7.047   6.142   3.331 -0.1896  0.1745  1.1125
  709MOL0     C93474   7.004   6.116   3.458  0.9732  0.1384  0.3446
  709MOL0     C93475   6.941   5.997   3.444  0.0656 -1.0657 -0.5041
  709MOL0     C93476   6.872   5.917   3.547  0.0277  0.5491  0.0257
  709MOL0     C93477   6.723   5.928   3.520  0.1842  0.1924 -0.0203
  709MOL0     C93478   6.646   5.857   3.627 -0.4656  0.0857 -0.7463
  709MOL0     C93479   6.499   5.881   3.622 -0.1264 -0.5836  0.6689
  709MOL0     O93480   6.417   5.818   3.726 -0.0464 -0.1694 -0.2425
  709MOL0     C93481   6.279   5.821   3.712 -0.1573  0.0120 -0.3765
  709MOL0     C93482   6.207   5.755   3.814  0.5272 -0.5010  0.4624
  709MOL0     C93483   6.071   5.756   3.816  0.1361 -0.1339 -0.7246
  709MOL0     C93484   6.006   5.823   3.717  0.4411 -0.0599 -0.0403
  709MOL0     C93485   5.859   5.831   3.721 -0.6666  0.5676  0.4786
  709MOL0     O93486   5.803   5.811   3.846 -0.7983 -0.1481  0.2516
  709MOL0     C93487   5.674   5.851   3.864 -0.7391  0.4505 -0.2793
  709MOL0     C93488   5.583   5.754   3.905  1.0670  0.4763  1.1293
  709MOL0     C93489   5.440   5.790   3.908 -0.3210  0.1473  0.2564
  709MOL0     C93490   5.387   5.915   3.883 -0.6870 -0.2790 -0.3269
  709MOL0     O93491   5.255   5.932   3.911 -0.5493 -0.0284  0.9615
  709MOL0     C93492   5.198   6.067   3.892  0.6119  0.1923 -0.1793
  709MOL0     C93493   5.042   6.061   3.910 -1.0587  0.2535 -0.3724
  709MOL0     C93494   5.001   6.040   4.061 -0.7669  0.0775 -0.0873
  709MOL0     C93495   4.848   6.036   4.089 -0.6291 -0.2233 -0.1628
  709MOL0     C93496   4.835   6.050   4.246  0.2261 -0.0219  0.7555
  709MOL0     C93497   4.882   5.920   4.314 -0.1853 -0.6112  0.4158
  709MOL0     C93498   4.832   5.921   4.454  0.2422  0.6544  0.1505
  709MOL0     C93499   4.942   5.917   4.556 -0.6269  0.5738 -1.0336
  709MOL0    Cl93500   4.980   5.746   4.603 -0.4025 -0.4455  0.5082
  709MOL0     C93501   5.489   6.012   3.854  0.4061  0.4561  0.8747
  709MOL0     C93502   5.633   5.985   3.843  0.4188  0.6556  0.2967
  709MOL0     O93503   5.795   5.860   3.617  0.1080  0.1371 -0.4621
  709MOL0     C93504   6.077   5.880   3.602  1.1706  0.8140  0.4115
  709MOL0     C93505   6.215   5.878   3.601 -0.5675 -0.8766 -0.1746
  709MOL0     N93506   6.932   5.958   3.314 -0.3823  0.0375 -0.1012
  709MOL0     N93507   7.005   6.043   3.247 -0.3928  0.4669  0.6870
  709MOL0     C93508   6.778   6.601   3.980 -0.2081 -0.2284 -0.7756
  709MOL0     C93509   6.663   6.546   4.027  0.2754  0.4908 -0.5334
  709MOL0     C93510   6.227   6.571   4.214 -0.1566  0.4368  0.2088
  709MOL0     C93511   6.140   6.664   4.276  0.1953 -0.1802 -1.0670
  709MOL0     C93512   6.003   6.632   4.325 -0.2227 -0.8454 -0.1134
  709MOL0     C93513   5.970   6.505   4.310  0.2798  0.5808 -0.1059
  709MOL0     O93514   5.844   6.477   4.355  0.1944  0.4559 -0.3709
  709MOL0     C93515   5.795   6.339   4.365 -1.0592  0.1709  0.4956
  709MOL0     C93516   5.669   6.345   4.440 -0.4243 -0.3883  0.0309
  709MOL0     C93517   5.635   6.212   4.511 -0.3527 -0.1235 -0.3836
  709MOL0     C93518   5.483   6.214   4.547 -0.3810  0.3210 -0.1023
  709MOL0     C93519   5.407   6.139   4.438 -1.2828  0.3452  1.0773
  709MOL0     C93520   5.350   6.118   4.339  0.7498 -0.4532  0.4999
  709MOL0     C93521   6.056   6.403   4.258 -0.0405 -0.0020  0.4740
  709MOL0     C93522   6.185   6.440   4.207 -0.1730  0.2391  1.1304
  709MOL0     H93523   6.435   6.760   3.876 -0.5336  0.7832  0.9736
  709MOL0     H93524   6.648   6.858   3.817  0.5122  0.0424 -0.6778
  709MOL0     H93525   6.830   6.926   3.749  3.3570  2.1339 -2.3151
  709MOL0     H93526   6.817   6.776   3.647  2.0429 -0.4497 -1.4059
  709MOL0     H93527   7.066   6.897   3.724 -0.7455  1.3313 -0.6541
  709MOL0     H93528   7.008   6.874   3.561  1.4153 -0.8867 -0.8963
  709MOL0     H93529   7.062   6.629   3.752 -0.6049 -1.3279  0.0632
  709MOL0     H93530   7.171   6.690   3.635 -1.8339  2.8412 -2.6435
  709MOL0     H93531   6.917   6.532   3.597 -0.6396  0.7694  1.3953
  709MOL0     H93532   6.939   6.657   3.479 -3.3944 -3.1067  1.3594
  709MOL0     H93533   7.134   6.439   3.520  0.6723  1.2790  1.5328
  709MOL0     H93534   7.171   6.577   3.422  1.2426 -0.7339  0.5202
  709MOL0     H93535   6.961   6.526   3.283  2.4043  0.8556 -2.1035
  709MOL0     H93536   6.928   6.388   3.391  0.0119 -0.4351  0.1654
  709MOL0     H93537   7.031   6.333   3.161  1.2345 -4.8712  1.2421
  709MOL0     H93538   7.169   6.428   3.213 -0.7784 -0.0058 -2.4633
  709MOL0     H93539   7.214   6.254   3.385 -3.2924  0.0734  2.7816
  709MOL0     H93540   7.214   6.186   3.228  0.6987  1.1042  0.2212
  709MOL0     H93541   7.012   6.174   3.549 -2.9567  1.1875  0.2279
  709MOL0     H93542   6.898   5.952   3.647  3.5625 -0.1644 -0.5110
  709MOL0     H93543   6.901   5.812   3.544 -2.0460 -0.0556 -0.4652
  709MOL0     H93544   6.689   5.898   3.420 -0.2850  0.7729 -0.0409
  709MOL0     H93545   6.715   6.037   3.518  2.7292  0.4340 -0.4870
  709MOL0     H93546   6.661   5.750   3.612 -0.4939  0.2229 -1.8013
  709MOL0     H93547   6.691   5.885   3.723  0.3885 -1.4072 -0.6840
  709MOL0     H93548   6.463   5.851   3.524  1.8690 -1.2434  0.0852
  709MOL0     H93549   6.484   5.988   3.637  0.2707 -0.6553  1.6694
  709MOL0     H93550   6.276   5.709   3.885  0.2503  1.3176  2.0043
  709MOL0     H93551   6.008   5.707   3.891 -1.4321  0.5944 -1.5137
  709MOL0     H93552   5.632   5.657   3.913  4.0526  1.3469 -3.2421
  709MOL0     H93553   5.367   5.720   3.948  1.0529  0.5771  3.8909
  709MOL0     H93554   5.203   6.094   3.786  1.2396 -0.6681 -0.3778
  709MOL0     H93555   5.228   6.147   3.960 -3.4470  0.9577  0.9906
  709MOL0     H93556   5.008   5.981   3.844 -3.4546  1.0307 -0.1884
  709MOL0     H93557   5.002   6.157   3.876 -0.8750  0.3835 -0.2238
  709MOL0     H93558   5.046   6.120   4.120 -1.4600 -0.2926  0.9627
  709MOL0     H93559   5.064   5.957   4.094 -0.0615  0.7776  0.3524
  709MOL0     H93560   4.798   6.114   4.032  0.5383 -0.5492 -1.7056
  709MOL0     H93561   4.803   5.940   4.060  0.1829 -0.8668  0.6384
  709MOL0     H93562   4.727   6.066   4.249 -0.7525 -4.2847 -2.0743
  709MOL0     H93563   4.903   6.128   4.282  1.3816  0.7172 -2.6749
  709MOL0     H93564   4.991   5.908   4.315 -0.1255 -0.1122  0.6646
  709MOL0     H93565   4.843   5.833   4.262  1.6051 -0.2946 -1.5943
  709MOL0     H93566   4.772   6.008   4.478 -0.0260  0.8675 -1.2252
  709MOL0     H93567   4.773   5.830   4.472  1.4384  0.1121  1.5658
  709MOL0     H93568   4.906   5.972   4.643 -0.0463  0.5516 -0.7803
  709MOL0     H93569   5.031   5.972   4.525  0.5371  0.6471  2.0922
  709MOL0     H93570   5.467   6.119   3.858  3.9785  1.3046  1.7657
  709MOL0     H93571   5.690   6.074   3.820 -0.8086  1.3403 -0.1845
  709MOL0     H93572   6.019   5.920   3.520 -1.1961 -2.6024  0.2009
  709MOL0     H93573   6.265   5.933   3.522  0.3515 -0.0607  0.9481
  709MOL0     H93574   6.869   6.551   4.010 -1.7647 -4.2982 -2.1843
  709MOL0     H93575   6.663   6.458   4.092 -0.4766  0.6018 -0.3751
  709MOL0     H93576   6.177   6.766   4.280  0.6328 -0.2610 -2.2994
  709MOL0     H93577   5.949   6.702   4.387  0.7410 -0.0411 -0.1448
  709MOL0     H93578   5.876   6.290   4.418 -1.2775  0.0137  0.6890
  709MOL0     H93579   5.773   6.295   4.267 -0.9950 -0.6502  0.8422
  709MOL0     H93580   5.667   6.429   4.510  1.3219 -1.5200  1.5398
  709MOL0     H93581   5.591   6.357   4.364 -0.6445 -1.3774  0.0832
  709MOL0     H93582   5.695   6.211   4.602 -2.7603  1.8645  1.3523
  709MOL0     H93583   5.661   6.121   4.456 -0.8613 -0.6320  0.2029
  709MOL0     H93584   5.475   6.156   4.639  2.2517  2.8499  1.9461
  709MOL0     H93585   5.438   6.311   4.572 -2.0306 -0.2177 -0.8502
  709MOL0     H93586   5.293   6.092   4.252 -1.5789 -0.7711  2.0115
  709MOL0     H93587   6.023   6.301   4.238  2.1471 -0.2560 -2.4201
  709MOL0     H93588   6.235   6.362   4.150  0.3406  0.2412  1.5617
  710MOL0     O93589   1.614   2.774   9.063  0.3866  0.0282  0.0442
  710MOL0     C93590   1.692   2.702   9.130 -0.2665 -0.2979  0.2994
  710MOL0     O93591   1.654   2.599   9.217  0.2088  0.8447  0.7922
  710MOL0     C93592   1.520   2.564   9.239 -0.3776 -0.5433  0.0326
  710MOL0     C93593   1.469   2.441   9.194 -0.0684  0.2021  0.4378
  710MOL0     C93594   1.336   2.409   9.200 -0.2392  0.0916  0.8490
  710MOL0     C93595   1.249   2.502   9.257  0.3689  0.4436 -0.6275
  710MOL0     O93596   1.121   2.457   9.260  0.5677  0.2000 -0.8773
  710MOL0     C93597   1.012   2.545   9.293 -0.0188  0.6272 -0.4740
  710MOL0     C93598   0.892   2.448   9.317  0.2865  0.5953  0.2427
  710MOL0     C93599   0.765   2.527   9.304 -0.4076  0.6301 -0.6421
  710MOL0     C93600   0.648   2.438   9.361 -0.1031 -0.3401  0.1337
  710MOL0     C93601   0.514   2.501   9.336  0.9318  0.2216  1.0586
  710MOL0     C93602   0.397   2.416   9.383  0.5442  0.4584 -0.2251
  710MOL0     C93603   0.268   2.517   9.385  0.2311  0.4681  0.0119
  710MOL0     C93604   0.134   2.454   9.425 -0.0579  1.0265 -0.3763
  710MOL0     N93605   0.022   2.541   9.388  0.4577 -0.5443  0.7417
  710MOL0     C93606   0.010   2.673   9.419  0.0682 -1.0405  0.0277
  710MOL0     C93607  -0.105   2.711   9.374 -0.0316  0.2039 -0.5294
  710MOL0     C93608  -0.156   2.846   9.385 -0.1089 -0.2436 -0.3023
  710MOL0     C93609  -0.234   2.848   9.514 -0.5821  0.6629  0.0561
  710MOL0     C93610  -0.279   2.986   9.554  0.0696 -0.4739  0.6844
  710MOL0     C93611  -0.437   3.004   9.554 -0.6248  0.2377  0.4519
  710MOL0     O93612  -0.485   3.009   9.419  0.0162 -0.1686  0.1012
  710MOL0     C93613  -0.607   2.979   9.395  1.6255 -0.2374 -0.0874
  710MOL0     C93614  -0.709   3.063   9.440  0.1738 -0.9753  0.4332
  710MOL0     C93615  -0.847   3.030   9.431 -0.0878  0.8088 -0.7843
  710MOL0     C93616  -0.882   2.909   9.372 -0.0797 -0.3227  0.3228
  710MOL0     C93617  -1.022   2.865   9.366  0.3324  0.0628 -0.6813
  710MOL0     O93618  -1.119   2.928   9.447 -0.0295  0.7704  0.3656
  710MOL0     C93619  -1.250   2.886   9.448  0.4271 -0.1826 -0.2435
  710MOL0     C93620  -1.293   2.754   9.472 -0.3489  0.1610 -0.3473
  710MOL0     C93621  -1.427   2.714   9.458 -0.8110  0.1105  0.1850
  710MOL0     C93622  -1.517   2.811   9.427  0.3979 -1.1608 -0.1681
  710MOL0     O93623  -1.648   2.772   9.429  0.9255  0.1592  0.1616
  710MOL0     C93624  -1.738   2.852   9.507 -0.0397  0.8559 -0.0897
  710MOL0     C93625  -1.868   2.780   9.527  0.0848 -0.2794  0.2026
  710MOL0     C93626  -1.979   2.854   9.453  0.2517 -0.6692  0.0031
  710MOL0     C93627  -2.112   2.829   9.522 -0.0044  0.2118  0.1454
  710MOL0     C93628  -2.227   2.898   9.444 -0.2464 -0.3311 -0.1132
  710MOL0     C93629  -2.218   3.054   9.468 -0.7384  0.2166  0.5437
  710MOL0     C93630  -2.329   3.126   9.384 -0.1284 -0.1252 -0.7749
  710MOL0     C93631  -2.288   3.176   9.250  0.2380  0.4785 -0.1528
  710MOL0    Cl93632  -2.433   3.189   9.151  0.4587 -0.0470  0.1013
  710MOL0     C93633  -1.472   2.941   9.397 -0.0519  0.4935  0.0317
  710MOL0     C93634  -1.345   2.981   9.414  0.1653 -0.2384 -0.2077
  710MOL0     O93635  -1.043   2.774   9.287  0.4344 -0.1380  0.5325
  710MOL0     C93636  -0.784   2.835   9.300  0.5667  0.9750 -1.0954
  710MOL0     C93637  -0.654   2.871   9.320  0.1903  0.1634  0.0054
  710MOL0     N93638  -0.166   2.605   9.309  0.3902  0.4162  0.2158
  710MOL0     N93639  -0.096   2.504   9.330  0.1618  0.0374  0.4174
  710MOL0     C93640   1.297   2.623   9.312  0.1501 -0.5872  0.1646
  710MOL0     C93641   1.426   2.653   9.303 -0.0835  0.1214  0.0433
  710MOL0     C93642   1.832   2.732   9.110 -1.0911 -0.1714  0.6320
  710MOL0     C93643   1.938   2.648   9.159  0.2597 -0.2538  0.1654
  710MOL0     C93644   2.072   2.671   9.140 -0.6505 -0.6314  0.5565
  710MOL0     C93645   2.112   2.793   9.070 -1.2379  0.0273  0.8837
  710MOL0     O93646   2.243   2.833   9.047  0.1195  0.2251 -0.1483
  710MOL0     C93647   2.356   2.789   9.138  1.0502 -1.2696 -0.0873
  710MOL0     C93648   2.476   2.856   9.092 -0.9372  0.1896  0.0255
  710MOL0     C93649   2.535   2.808   8.958  0.2305 -0.0358 -0.9356
  710MOL0     C93650   2.540   2.656   8.940 -0.2890 -0.8589  0.5675
  710MOL0     C93651   2.620   2.627   8.821 -1.2669  0.5460 -0.5363
  710MOL0     C93652   2.691   2.604   8.720  1.0118  0.6129 -0.3841
  710MOL0     C93653   2.008   2.882   9.023  0.0848 -0.1459 -0.0984
  710MOL0     C93654   1.874   2.847   9.039  0.1117  0.7464 -0.7168
  710MOL0     H93655   1.529   2.361   9.152 -2.8473 -1.2638 -1.0104
  710MOL0     H93656   1.305   2.324   9.141  0.0081  1.4247 -1.2858
  710MOL0     H93657   1.001   2.626   9.220 -3.7478  0.4871 -0.2693
  710MOL0     H93658   1.032   2.592   9.390  4.8025 -1.5440 -0.1352
  710MOL0     H93659   0.898   2.393   9.411 -0.7258 -1.6263 -0.9112
  710MOL0     H93660   0.893   2.366   9.244 -2.0925 -0.2278  1.0539
  710MOL0     H93661   0.744   2.545   9.198 -1.5834 -0.4173 -0.6084
  710MOL0     H93662   0.763   2.620   9.363 -1.6487  1.0063 -1.2425
  710MOL0     H93663   0.647   2.340   9.313 -1.9940 -0.5893  0.5820
  710MOL0     H93664   0.665   2.417   9.467  2.8727 -3.9382 -0.8399
  710MOL0     H93665   0.498   2.513   9.229  1.7058 -4.5129  0.1978
  710MOL0     H93666   0.516   2.598   9.386  0.7272 -0.5180  2.5795
  710MOL0     H93667   0.431   2.389   9.483 -0.8990  1.2529  0.5138
  710MOL0     H93668   0.392   2.328   9.318  3.5447 -0.0506  0.0883
  710MOL0     H93669   0.290   2.599   9.454 -2.4988  1.9582 -0.7576
  710MOL0     H93670   0.262   2.567   9.288  0.1285  3.7046  1.5281
  710MOL0     H93671   0.125   2.435   9.532 -4.2750  2.5665 -0.2796
  710MOL0     H93672   0.107   2.358   9.378 -0.0239 -0.0233  1.6589
  710MOL0     H93673   0.083   2.728   9.477 -0.0097 -0.3112 -0.5598
  710MOL0     H93674  -0.218   2.884   9.303  2.2468  1.6058 -1.3238
  710MOL0     H93675  -0.073   2.916   9.398 -0.2304 -0.2453  0.5743
  710MOL0     H93676  -0.173   2.808   9.595 -2.3375 -1.2751  0.5314
  710MOL0     H93677  -0.318   2.777   9.515 -0.5550  0.6340  0.5248
  710MOL0     H93678  -0.250   3.007   9.658  0.5475 -0.6000  0.5798
  710MOL0     H93679  -0.241   3.067   9.492 -2.6576 -0.0824 -0.5912
  710MOL0     H93680  -0.467   3.101   9.596  0.0381  0.4739  0.3919
  710MOL0     H93681  -0.478   2.927   9.619 -0.8218  1.0299  1.2937
  710MOL0     H93682  -0.676   3.159   9.478  1.8664 -1.3361 -0.0527
  710MOL0     H93683  -0.920   3.086   9.489 -0.2476  0.2067 -0.3946
  710MOL0     H93684  -1.220   2.675   9.490  0.0197  0.7768  0.9679
  710MOL0     H93685  -1.456   2.612   9.480 -1.5118  0.8841  3.2315
  710MOL0     H93686  -1.741   2.955   9.469 -1.2329 -0.0932 -2.8488
  710MOL0     H93687  -1.695   2.862   9.607  0.9957  2.0113 -0.6309
  710MOL0     H93688  -1.897   2.774   9.632  2.4932 -0.6050  0.9031
  710MOL0     H93689  -1.859   2.677   9.492 -3.6349 -0.3880 -0.9024
  710MOL0     H93690  -1.985   2.822   9.349 -0.1576 -3.8641  0.9072
  710MOL0     H93691  -1.956   2.961   9.457 -0.0570 -0.6298  1.2877
  710MOL0     H93692  -2.140   2.724   9.518  2.8085 -0.5731 -2.0427
  710MOL0     H93693  -2.100   2.863   9.625  2.4969  0.3697 -0.1476
  710MOL0     H93694  -2.320   2.852   9.478 -0.6130  0.2947 -0.2659
  710MOL0     H93695  -2.223   2.888   9.335  0.7571  2.5676 -0.4205
  710MOL0     H93696  -2.120   3.098   9.449 -1.4416  0.9247 -1.8247
  710MOL0     H93697  -2.236   3.066   9.575 -1.1984 -1.3124  0.6614
  710MOL0     H93698  -2.408   3.053   9.371  2.3065 -2.7058 -2.0863
  710MOL0     H93699  -2.361   3.220   9.430  0.4754  0.2398 -1.0820
  710MOL0     H93700  -2.227   3.089   9.220  0.4063  0.6939 -0.4466
  710MOL0     H93701  -2.227   3.266   9.245  1.3600 -0.2471  0.0655
  710MOL0     H93702  -1.548   3.010   9.361  0.1919  0.3341 -0.8142
  710MOL0     H93703  -1.313   3.081   9.384  0.8072  0.0703  1.4334
  710MOL0     H93704  -0.797   2.745   9.240 -1.0274  1.3847 -1.4109
  710MOL0     H93705  -0.574   2.814   9.275 -0.1935 -0.5789  0.2383
  710MOL0     H93706   1.233   2.693   9.366  0.8954  0.0600  0.2399
  710MOL0     H93707   1.466   2.743   9.348  0.6635  0.2465 -0.8469
  710MOL0     H93708   1.920   2.562   9.223  2.5005 -2.2843 -1.7219
  710MOL0     H93709   2.150   2.604   9.175 -1.1904  0.0476  3.2247
  710MOL0     H93710   2.379   2.683   9.151  0.7737 -1.1895  1.1880
  710MOL0     H93711   2.341   2.823   9.241  1.7794  2.1780 -0.9864
  710MOL0     H93712   2.450   2.961   9.079 -0.2059  0.4292  0.4687
  710MOL0     H93713   2.555   2.849   9.167  0.1779  0.8114 -1.0514
  710MOL0     H93714   2.637   2.843   8.945  0.1320 -0.1757 -2.1752
  710MOL0     H93715   2.472   2.840   8.875  0.8248 -0.6281 -1.6329
  710MOL0     H93716   2.593   2.615   9.027  0.7481  0.6373  0.6805
  710MOL0     H93717   2.446   2.601   8.930 -1.2455  0.1309  3.2542
  710MOL0     H93718   2.753   2.579   8.637 -0.4818  1.8714 -1.9626
  710MOL0     H93719   2.036   2.978   8.981  1.4477 -0.9268 -1.0430
  710MOL0     H93720   1.790   2.895   8.991 -0.6225 -0.7060 -0.9401
  711MOL0     O93721   4.383   9.614   7.759  0.5299  0.0650 -0.3481
  711MOL0     C93722   4.468   9.587   7.840  0.1162 -0.5115  0.2445
  711MOL0     O93723   4.443   9.562   7.975 -0.1939  1.2601  0.0981
  711MOL0     C93724   4.327   9.601   8.035 -0.7173  1.2368 -0.1161
  711MOL0     C93725   4.201   9.538   8.014  0.0389  0.7386  0.3384
  711MOL0     C93726   4.084   9.584   8.080  0.1996  0.0428 -0.2296
  711MOL0     C93727   4.088   9.693   8.166 -0.3838  0.0479  0.1172
  711MOL0     O93728   3.971   9.722   8.230  0.5195  0.0601  0.0229
  711MOL0     C93729   3.952   9.845   8.300 -0.4744 -0.1602 -0.4279
  711MOL0     C93730   3.837   9.924   8.220  0.4385 -0.0216 -0.5426
  711MOL0     C93731   3.906  10.051   8.175 -0.0832  0.8767  0.1242
  711MOL0     C93732   3.819  10.115   8.061 -0.1677  0.3714  1.1212
  711MOL0     C93733   3.891  10.251   8.021 -0.0504  0.7925  0.3027
  711MOL0     C93734   3.803  10.323   7.916 -0.1431 -0.4230 -0.0599
  711MOL0     C93735   3.778  10.241   7.789 -0.2971  0.1938 -0.3788
  711MOL0     C93736   3.723  10.321   7.666  0.2004 -0.1672 -0.7442
  711MOL0     N93737   3.707  10.236   7.550 -0.3966 -0.8362 -0.6348
  711MOL0     C93738   3.630  10.122   7.558  0.2825 -0.3670 -0.2572
  711MOL0     C93739   3.632  10.068   7.433 -0.1493  0.3233  0.1079
  711MOL0     C93740   3.571   9.943   7.377 -1.0368 -0.8308 -0.6340
  711MOL0     C93741   3.671   9.829   7.346 -0.0536  0.1535  0.4515
  711MOL0     C93742   3.609   9.712   7.267  0.7683 -0.1114  0.0337
  711MOL0     C93743   3.504   9.635   7.346  0.6666  0.5315 -0.0625
  711MOL0     O93744   3.547   9.603   7.479 -0.0758  0.3368 -0.0678
  711MOL0     C93745   3.472   9.504   7.533 -0.0518  0.5492  0.4257
  711MOL0     C93746   3.438   9.384   7.472 -0.2621  0.6813 -0.4339
  711MOL0     C93747   3.354   9.299   7.543 -0.3000  0.0027 -0.1040
  711MOL0     C93748   3.305   9.334   7.672  0.6029 -0.5034 -0.5308
  711MOL0     C93749   3.208   9.245   7.743 -0.0726  0.3850 -0.0928
  711MOL0     O93750   3.163   9.138   7.668 -0.2670  0.0282 -0.6621
  711MOL0     C93751   3.056   9.068   7.722 -0.4615 -1.1750  0.0464
  711MOL0     C93752   2.932   9.074   7.654 -0.4605  0.5637 -0.2516
  711MOL0     C93753   2.823   8.997   7.697  0.0511  0.2889 -0.1160
  711MOL0     C93754   2.837   8.905   7.805 -0.1729  0.2873 -0.3162
  711MOL0     O93755   2.742   8.834   7.851 -0.1127 -0.9316  0.1448
  711MOL0     C93756   2.671   8.749   7.759  0.4118  0.3781 -0.4864
  711MOL0     C93757   2.557   8.691   7.848 -0.4347 -0.4304  0.2342
  711MOL0     C93758   2.498   8.569   7.770 -0.5897  0.1557 -0.4242
  711MOL0     C93759   2.383   8.505   7.857 -0.3439 -0.3666  0.3018
  711MOL0     C93760   2.362   8.351   7.828 -0.7120 -0.4857  0.1440
  711MOL0     C93761   2.339   8.316   7.678  1.1164 -0.3771 -0.8431
  711MOL0     C93762   2.205   8.384   7.617 -0.6711  0.6373  0.3475
  711MOL0     C93763   2.083   8.336   7.677 -1.0396 -0.2688 -0.2732
  711MOL0    Cl93764   1.949   8.394   7.587 -0.0246 -0.0656 -0.2540
  711MOL0     C93765   2.963   8.903   7.868 -1.2441 -0.9343  0.6557
  711MOL0     C93766   3.075   8.980   7.828 -0.6145 -0.9727 -0.5982
  711MOL0     O93767   3.190   9.262   7.867 -0.2017  0.3526  0.3807
  711MOL0     C93768   3.352   9.457   7.737  0.0139  0.2974  0.0622
  711MOL0     C93769   3.436   9.537   7.669 -0.3548  0.1284  0.2413
  711MOL0     N93770   3.693  10.161   7.349 -0.4455 -0.2877 -0.3617
  711MOL0     N93771   3.730  10.261   7.417  0.2397  0.4798 -0.7247
  711MOL0     C93772   4.214   9.753   8.193  0.3029 -0.0966  0.2510
  711MOL0     C93773   4.328   9.703   8.130 -1.3409 -0.8205 -0.6503
  711MOL0     C93774   4.597   9.561   7.796  0.0764 -0.3994  0.1175
  711MOL0     C93775   4.710   9.552   7.881  0.0268 -0.6488  0.2514
  711MOL0     C93776   4.840   9.539   7.833 -0.6727 -0.0377  0.4000
  711MOL0     C93777   4.857   9.513   7.693 -0.9668  0.0992  0.3698
  711MOL0     O93778   4.980   9.483   7.647 -1.1217 -0.1656 -0.4701
  711MOL0     C93779   4.996   9.421   7.522  0.1213  0.4358  0.8191
  711MOL0     C93780   5.139   9.360   7.522 -0.7575  0.3825 -0.0541
  711MOL0     C93781   5.248   9.455   7.476 -1.2436 -0.5223 -0.7990
  711MOL0     C93782   5.379   9.434   7.542  0.0912  0.6367  0.0822
  711MOL0     C93783   5.436   9.303   7.500  0.5686 -0.4709  0.6769
  711MOL0     C93784   5.475   9.194   7.493 -0.1088  0.2089  0.0592
  711MOL0     C93785   4.745   9.517   7.602  0.4540  0.8171  0.1705
  711MOL0     C93786   4.617   9.546   7.658  0.4934  0.9564  0.6232
  711MOL0     H93787   4.197   9.447   7.954 -3.0314  1.7143 -1.1538
  711MOL0     H93788   3.990   9.531   8.068 -0.4908  1.5441 -1.7671
  711MOL0     H93789   4.038   9.904   8.334  0.9517 -2.6076  0.5298
  711MOL0     H93790   3.916   9.827   8.402 -0.9943 -0.1969 -0.6174
  711MOL0     H93791   3.750   9.944   8.283 -0.5339  0.6718 -2.0540
  711MOL0     H93792   3.797   9.858   8.141 -2.0713  0.1807  0.4533
  711MOL0     H93793   4.005  10.034   8.131 -0.7923 -1.2423 -0.8174
  711MOL0     H93794   3.920  10.121   8.258 -1.0498  2.6092 -1.1053
  711MOL0     H93795   3.829  10.039   7.984  2.2830 -0.5072  2.2253
  711MOL0     H93796   3.713  10.126   8.087 -0.9156  0.5563 -1.6986
  711MOL0     H93797   3.994  10.246   7.986  0.0976  0.4777  0.7840
  711MOL0     H93798   3.899  10.308   8.114  0.7044  0.7610  0.2571
  711MOL0     H93799   3.860  10.411   7.884  3.4165 -2.5423 -0.0744
  711MOL0     H93800   3.705  10.358   7.951 -0.9746 -1.4189 -1.2658
  711MOL0     H93801   3.862  10.185   7.749 -2.2845 -1.3980 -2.6750
  711MOL0     H93802   3.704  10.164   7.813  0.3899 -0.4539 -0.3360
  711MOL0     H93803   3.790  10.402   7.634 -1.4860  1.4605 -0.2817
  711MOL0     H93804   3.628  10.364   7.699 -0.1397 -0.4775 -1.3081
  711MOL0     H93805   3.574  10.088   7.644 -1.2480  0.1292 -1.0388
  711MOL0     H93806   3.520   9.973   7.285 -3.9378  0.2458  1.1920
  711MOL0     H93807   3.498   9.910   7.451 -0.7538 -0.7238 -0.3090
  711MOL0     H93808   3.691   9.792   7.447 -0.5424 -2.9621 -0.4612
  711MOL0     H93809   3.753   9.872   7.287 -1.4841  3.8914  0.9211
  711MOL0     H93810   3.564   9.749   7.174  2.0615 -1.4095 -1.1393
  711MOL0     H93811   3.685   9.641   7.235  0.6012  0.0639 -0.7914
  711MOL0     H93812   3.468   9.551   7.286 -0.8086  1.0528  0.0459
  711MOL0     H93813   3.417   9.699   7.362  0.9779  1.0316 -0.3248
  711MOL0     H93814   3.480   9.351   7.377  2.5469 -1.0188  1.2476
  711MOL0     H93815   3.340   9.210   7.482  0.4499  0.9969 -1.8142
  711MOL0     H93816   2.925   9.124   7.558 -1.3168 -0.5501 -0.8026
  711MOL0     H93817   2.728   9.004   7.644 -0.5930 -2.5961  0.4443
  711MOL0     H93818   2.732   8.672   7.712  0.4086  0.8478 -1.2691
  711MOL0     H93819   2.628   8.814   7.682 -0.4795  1.0192  0.5020
  711MOL0     H93820   2.478   8.764   7.869  2.3278  2.6771  0.6107
  711MOL0     H93821   2.604   8.655   7.940  3.5763 -1.5809 -2.0349
  711MOL0     H93822   2.578   8.498   7.747 -0.3369  0.1869  0.3327
  711MOL0     H93823   2.455   8.599   7.674 -1.2093  0.1522 -0.1529
  711MOL0     H93824   2.406   8.501   7.964 -1.5165 -1.5011  0.5477
  711MOL0     H93825   2.282   8.547   7.848  0.1894  0.6069 -1.8892
  711MOL0     H93826   2.282   8.323   7.897  0.4605 -3.3130  0.4714
  711MOL0     H93827   2.453   8.301   7.863  0.7241  1.0574 -1.1507
  711MOL0     H93828   2.330   8.208   7.663 -0.4094 -0.5113  0.6228
  711MOL0     H93829   2.421   8.361   7.621  1.3247  1.2896  0.6854
  711MOL0     H93830   2.228   8.491   7.622  1.8031  0.1061  2.9280
  711MOL0     H93831   2.193   8.359   7.511  1.6796  0.2314  0.1281
  711MOL0     H93832   2.079   8.372   7.780 -4.1620 -0.5868 -0.1651
  711MOL0     H93833   2.060   8.229   7.685  0.4455 -0.5203  0.9684
  711MOL0     H93834   2.977   8.841   7.955  0.6361  1.8241  2.5032
  711MOL0     H93835   3.170   8.978   7.881 -1.4402 -1.1045  0.9291
  711MOL0     H93836   3.319   9.489   7.835 -1.3314 -0.4433 -0.1125
  711MOL0     H93837   3.466   9.631   7.713 -2.3143  0.8141  0.2137
  711MOL0     H93838   4.225   9.835   8.263  0.1421 -1.0838  1.4689
  711MOL0     H93839   4.426   9.740   8.158 -0.4933 -0.0856 -4.1566
  711MOL0     H93840   4.694   9.568   7.987 -3.0231  1.5247 -0.3891
  711MOL0     H93841   4.921   9.535   7.905 -1.7184 -1.4946  1.5589
  711MOL0     H93842   4.989   9.495   7.442  1.1483  0.5992  0.8621
  711MOL0     H93843   4.921   9.342   7.523 -1.0969  1.5327 -0.2381
  711MOL0     H93844   5.163   9.314   7.619 -2.8109  1.3653  1.0032
  711MOL0     H93845   5.129   9.276   7.452  1.7369 -0.2319  0.2270
  711MOL0     H93846   5.224   9.553   7.520  0.5375  0.3873 -1.7382
  711MOL0     H93847   5.254   9.459   7.366  0.2747  2.7693 -0.7273
  711MOL0     H93848   5.446   9.519   7.530  1.2277 -0.5472 -2.7219
  711MOL0     H93849   5.352   9.423   7.648  1.4230 -0.4335  0.3306
  711MOL0     H93850   5.515   9.095   7.490 -1.4000 -0.3188 -2.0030
  711MOL0     H93851   4.751   9.501   7.495  0.1795  1.0999  0.1127
  711MOL0     H93852   4.537   9.536   7.586  1.7514 -0.3784 -0.6597
  712MOL0     O93853   2.224   9.342   4.385 -0.0267 -0.8030  0.2647
  712MOL0     C93854   2.320   9.411   4.424 -0.3724  0.2845 -0.4153
  712MOL0     O93855   2.315   9.533   4.490  0.3873  0.1345 -0.1568
  712MOL0     C93856   2.191   9.576   4.514 -0.1684  0.6312  0.0642
  712MOL0     C93857   2.128   9.554   4.637  0.0788 -0.1380  0.4942
  712MOL0     C93858   2.005   9.616   4.660 -0.6296 -0.7666  0.1117
  712MOL0     C93859   1.939   9.702   4.577  0.2366 -0.0190  0.5218
  712MOL0     O93860   1.837   9.767   4.630  0.0767  0.0794  0.6584
  712MOL0     C93861   1.743   9.852   4.550 -0.0630  0.4025 -0.0015
  712MOL0     C93862   1.662   9.928   4.643 -0.4211  0.6043 -0.4188
  712MOL0     C93863   1.544   9.853   4.690  0.6312 -0.1782 -0.4973
  712MOL0     C93864   1.430   9.942   4.753 -0.1345 -0.4144 -0.6448
  712MOL0     C93865   1.305   9.875   4.800  0.0135  0.7506  0.7541
  712MOL0     C93866   1.247   9.959   4.916 -0.1224  0.0963 -0.0716
  712MOL0     C93867   1.234  10.104   4.879 -0.0273  0.5958 -0.8039
  712MOL0     C93868   1.151  10.183   4.984  0.1506 -0.2864 -0.1873
  712MOL0     N93869   1.016  10.127   5.004  0.1770 -0.3438 -0.3820
  712MOL0     C93870   0.903  10.161   4.934  0.6290  0.6711  0.4345
  712MOL0     C93871   0.799  10.078   4.980 -0.5960 -0.3506  0.0485
  712MOL0     C93872   0.661  10.056   4.911  0.7814 -0.0150 -0.1929
  712MOL0     C93873   0.591  10.192   4.876 -1.2271 -0.0669 -0.5975
  712MOL0     C93874   0.467  10.183   4.786  0.5471 -0.0552  0.0841
  712MOL0     C93875   0.351  10.105   4.854  0.2387 -0.0324 -0.4780
  712MOL0     O93876   0.229  10.178   4.822  0.3025 -0.5348  0.4160
  712MOL0     C93877   0.125  10.106   4.778  0.1681 -0.5964 -0.2473
  712MOL0     C93878   0.111   9.972   4.820  0.5649  0.3403 -0.1520
  712MOL0     C93879  -0.006   9.906   4.795 -0.0096 -0.0857 -0.5067
  712MOL0     C93880  -0.110   9.977   4.733  0.9101 -0.2241  0.3058
  712MOL0     C93881  -0.249   9.920   4.728  0.1083  0.5870  0.8015
  712MOL0     O93882  -0.340  10.001   4.667 -0.6919  0.2726  0.1264
  712MOL0     C93883  -0.473   9.967   4.688 -0.0506 -0.0701  0.3492
  712MOL0     C93884  -0.536   9.902   4.806 -0.8887  0.7041 -0.2266
  712MOL0     C93885  -0.673   9.866   4.797  0.5969  0.0081  0.1524
  712MOL0     C93886  -0.745   9.907   4.684  0.2498 -0.6811  0.0162
  712MOL0     O93887  -0.888   9.892   4.666 -0.0595  0.6048  0.2088
  712MOL0     C93888  -0.959   9.803   4.763 -0.4510 -0.3860  0.2940
  712MOL0     C93889  -1.108   9.799   4.727 -0.4387  0.3089  0.8205
  712MOL0     C93890  -1.198   9.777   4.847  0.5151 -0.7590 -0.4001
  712MOL0     C93891  -1.331   9.723   4.810  0.4378 -0.4225  0.8534
  712MOL0     C93892  -1.412   9.835   4.732 -0.2197  0.7221 -0.8713
  712MOL0     C93893  -1.560   9.791   4.717  0.2662  0.5359  0.2438
  712MOL0     C93894  -1.636   9.878   4.620 -0.0152  0.0400 -0.8465
  712MOL0     C93895  -1.792   9.866   4.634 -0.2117  0.0004  0.5019
  712MOL0    Cl93896  -1.836   9.691   4.579  0.0945 -0.0526  0.0330
  712MOL0     C93897  -0.691   9.991   4.586  0.0539 -0.0394 -0.9020
  712MOL0     C93898  -0.555  10.023   4.587 -1.0526 -0.1731  0.4535
  712MOL0     O93899  -0.276   9.807   4.773  0.2805 -0.3241 -0.9791
  712MOL0     C93900  -0.093  10.110   4.690  1.2596  0.4894  0.1712
  712MOL0     C93901   0.024  10.172   4.714  0.2796 -0.0820  0.8968
  712MOL0     N93902   0.849  10.010   5.090  0.4205 -0.5851 -0.0838
  712MOL0     N93903   0.977  10.030   5.094  0.5057  0.1454 -0.2896
  712MOL0     C93904   1.998   9.719   4.454 -0.5722  1.0168 -0.0649
  712MOL0     C93905   2.125   9.660   4.423 -0.0866  0.2573 -0.4326
  712MOL0     C93906   2.455   9.354   4.387 -0.7358 -0.1869 -0.4743
  712MOL0     C93907   2.565   9.437   4.392 -0.9180 -0.0562  1.1474
  712MOL0     C93908   2.693   9.385   4.351 -0.5954  0.8945 -0.4635
  712MOL0     C93909   2.708   9.251   4.305 -0.8130 -0.0383 -0.2537
  712MOL0     O93910   2.834   9.203   4.260 -0.8127  0.3844 -0.0744
  712MOL0     C93911   2.888   9.117   4.358 -0.7349  0.1131 -0.4399
  712MOL0     C93912   3.046   9.141   4.355  0.3928 -0.0762  0.1918
  712MOL0     C93913   3.103   9.264   4.425  1.0554  0.3679  0.3675
  712MOL0     C93914   3.247   9.278   4.395 -0.3009  0.4478  0.4001
  712MOL0     C93915   3.276   9.420   4.399  0.2864 -0.2038 -0.8742
  712MOL0     C93916   3.284   9.540   4.384  0.0557  0.2905 -0.3903
  712MOL0     C93917   2.593   9.171   4.301  0.3558  0.3976 -0.0411
  712MOL0     C93918   2.476   9.216   4.362  0.9739 -0.6445 -0.3669
  712MOL0     H93919   2.173   9.498   4.718 -0.6782 -1.4411  0.0349
  712MOL0     H93920   1.955   9.586   4.752 -1.2047  1.4780  0.6036
  712MOL0     H93921   1.677   9.797   4.482  0.4334 -0.7039  0.3875
  712MOL0     H93922   1.798   9.925   4.491  0.9106  1.5811  2.2178
  712MOL0     H93923   1.615  10.008   4.585  1.6019  0.3089 -2.5891
  712MOL0     H93924   1.724   9.987   4.712 -1.1640  1.9912 -0.8855
  712MOL0     H93925   1.584   9.790   4.770 -0.9678 -1.1017 -0.3770
  712MOL0     H93926   1.497   9.797   4.609  1.4379 -0.8218 -0.5349
  712MOL0     H93927   1.484   9.996   4.831 -0.9185 -0.2366 -0.2131
  712MOL0     H93928   1.405  10.026   4.687  0.2032 -0.9154 -1.4236
  712MOL0     H93929   1.340   9.778   4.834  0.8543  1.0946  0.8849
  712MOL0     H93930   1.234   9.866   4.718  0.7348  1.3718  0.0468
  712MOL0     H93931   1.316   9.970   5.000 -0.4557  4.8571 -0.1383
  712MOL0     H93932   1.147   9.922   4.941 -2.2283  3.8100 -1.9815
  712MOL0     H93933   1.333  10.148   4.866  0.1055  0.4712 -0.2280
  712MOL0     H93934   1.171  10.096   4.790 -3.0316  0.4286  1.1929
  712MOL0     H93935   1.141  10.289   4.960 -0.4289 -0.1097  0.7678
  712MOL0     H93936   1.217  10.185   5.072  0.6140 -0.3764 -0.5277
  712MOL0     H93937   0.893  10.231   4.851  0.1563  0.3071  0.1788
  712MOL0     H93938   0.595   9.991   4.969  1.6524 -1.3589 -0.6811
  712MOL0     H93939   0.674  10.004   4.815 -0.3137  1.3522 -1.1347
  712MOL0     H93940   0.655  10.260   4.819 -0.0061 -1.2827 -0.7263
  712MOL0     H93941   0.561  10.249   4.965 -2.3676  1.1201 -1.7045
  712MOL0     H93942   0.446  10.288   4.762  2.3605  0.1036 -1.0416
  712MOL0     H93943   0.483  10.136   4.688  1.3976  3.3131 -1.5732
  712MOL0     H93944   0.370  10.116   4.961 -0.2856  0.7150 -0.4477
  712MOL0     H93945   0.356  10.000   4.824 -0.0928 -0.9484  2.3403
  712MOL0     H93946   0.187   9.921   4.877 -0.4777  0.8207  1.7616
  712MOL0     H93947  -0.014   9.805   4.834  0.5857  0.3419  0.7883
  712MOL0     H93948  -0.482   9.870   4.895 -1.0280 -1.0296 -0.7361
  712MOL0     H93949  -0.714   9.823   4.888 -0.1705  3.0804  1.3983
  712MOL0     H93950  -0.959   9.836   4.867 -0.1084 -0.7112  0.3993
  712MOL0     H93951  -0.910   9.705   4.761  2.4181  0.9521 -0.1233
  712MOL0     H93952  -1.127   9.725   4.649  2.5492  0.7802 -0.5194
  712MOL0     H93953  -1.138   9.897   4.689  0.6179  0.3009 -0.1009
  712MOL0     H93954  -1.216   9.867   4.907  1.0889  0.0934 -1.4653
  712MOL0     H93955  -1.153   9.703   4.914 -3.2432 -1.5279  1.5836
  712MOL0     H93956  -1.317   9.634   4.748  4.1943  2.7188 -3.5434
  712MOL0     H93957  -1.387   9.711   4.903 -2.8108  1.3217 -0.6966
  712MOL0     H93958  -1.376   9.859   4.632  0.2057  0.7494 -0.7159
  712MOL0     H93959  -1.405   9.926   4.793  0.8621  1.1655 -1.6275
  712MOL0     H93960  -1.617   9.792   4.810 -1.4241  1.5361 -0.7419
  712MOL0     H93961  -1.568   9.687   4.683 -3.7803  0.8963 -0.4123
  712MOL0     H93962  -1.619   9.984   4.644 -5.6346  1.3425 -1.3254
  712MOL0     H93963  -1.599   9.860   4.519 -0.7218  1.0495 -1.2968
  712MOL0     H93964  -1.837   9.927   4.555  3.4366  0.7181 -1.2662
  712MOL0     H93965  -1.834   9.887   4.733  0.1082 -1.7318  1.0416
  712MOL0     H93966  -0.742  10.024   4.496 -3.1225 -0.5143  0.5689
  712MOL0     H93967  -0.514  10.086   4.509 -2.5133  1.3692  0.8731
  712MOL0     H93968  -0.176  10.167   4.649 -1.0236 -3.1584 -0.7700
  712MOL0     H93969   0.019  10.275   4.682 -1.3524 -0.3472  0.2007
  712MOL0     H93970   1.959   9.795   4.387  0.4362  1.3841 -0.2554
  712MOL0     H93971   2.165   9.690   4.327 -1.0862 -0.9507 -1.2596
  712MOL0     H93972   2.537   9.539   4.413 -3.5551 -0.4839  0.0708
  712MOL0     H93973   2.782   9.444   4.372  1.0951 -1.3926 -0.7532
  712MOL0     H93974   2.871   9.011   4.333  0.8022 -0.2588  0.0246
  712MOL0     H93975   2.846   9.127   4.458 -3.3848 -1.9871 -1.2054
  712MOL0     H93976   3.091   9.048   4.392 -0.5272 -0.9619 -0.8632
  712MOL0     H93977   3.068   9.153   4.248  3.9992 -1.4993  0.6068
  712MOL0     H93978   3.064   9.269   4.527  0.5736  0.0632  0.2021
  712MOL0     H93979   3.049   9.353   4.390  1.5718  2.0169  3.4603
  712MOL0     H93980   3.302   9.224   4.473  0.2306 -0.8549 -0.8234
  712MOL0     H93981   3.265   9.231   4.297  0.0149 -0.1420  0.7326
  712MOL0     H93982   3.277   9.646   4.370  0.0618  0.4553  0.7392
  712MOL0     H93983   2.596   9.063   4.286 -1.5840  0.1081  1.2150
  712MOL0     H93984   2.393   9.149   4.382  2.8272 -2.9821 -0.1871
  713MOL0     O93985   4.552   8.091   5.643  0.8329 -0.3657  0.4356
  713MOL0     C93986   4.615   8.007   5.701 -0.4551  0.0457 -0.4904
  713MOL0     O93987   4.564   7.932   5.808 -0.5308  0.0253 -0.5341
  713MOL0     C93988   4.431   7.954   5.855  0.4030  1.3978 -0.1155
  713MOL0     C93989   4.398   7.869   5.961  0.5150 -0.6235 -0.6073
  713MOL0     C93990   4.267   7.870   6.021  0.0900  0.0327  0.4546
  713MOL0     C93991   4.164   7.952   5.975 -0.9821 -0.3932  0.7876
  713MOL0     O93992   4.048   7.967   6.047  0.4048 -0.0816 -0.2187
  713MOL0     C93993   3.931   8.023   5.986  0.4015 -0.1084 -1.3058
  713MOL0     C93994   3.808   7.973   6.059  0.0828  0.0582  0.7647
  713MOL0     C93995   3.671   8.009   5.982 -0.1213 -0.1048 -0.3333
  713MOL0     C93996   3.558   7.911   6.021  0.4884 -0.7765  0.1364
  713MOL0     C93997   3.435   7.975   6.091  0.7077  0.6421 -0.0565
  713MOL0     C93998   3.368   8.081   6.003 -0.3297  0.8305 -0.0183
  713MOL0     C93999   3.213   8.091   6.021 -0.2358  0.5559  0.1066
  713MOL0     C94000   3.140   7.968   5.990 -0.0627  0.6923 -0.1688
  713MOL0     N94001   3.002   7.991   5.948 -0.5655  0.0766  0.7129
  713MOL0     C94002   2.972   8.068   5.835 -0.9404  0.4431 -0.5651
  713MOL0     C94003   2.837   8.080   5.852  0.4291 -0.5571  0.0396
  713MOL0     C94004   2.734   8.154   5.773 -0.0817  0.2876 -0.0575
  713MOL0     C94005   2.684   8.061   5.655 -0.3683  0.2380 -0.3056
  713MOL0     C94006   2.555   7.983   5.697 -0.7699  0.2687  1.0553
  713MOL0     C94007   2.432   8.071   5.681  0.5878  0.1029  0.1926
  713MOL0     O94008   2.329   7.976   5.628 -0.1972 -0.9681  0.0495
  713MOL0     C94009   2.197   8.030   5.613  0.5572  0.5100  0.7637
  713MOL0     C94010   2.142   8.138   5.678  0.2676 -0.4597 -0.6275
  713MOL0     C94011   2.014   8.188   5.662  0.7523 -0.1509  0.1027
  713MOL0     C94012   1.923   8.120   5.575 -0.7391  0.4414  0.2903
  713MOL0     C94013   1.781   8.160   5.555 -0.1251  0.3741  0.4772
  713MOL0     O94014   1.714   8.089   5.451  0.5800 -0.0969 -0.5725
  713MOL0     C94015   1.580   8.115   5.452  0.7371 -0.3528  0.1183
  713MOL0     C94016   1.531   8.159   5.332 -0.8418 -0.0803 -0.6445
  713MOL0     C94017   1.397   8.176   5.307  0.3722  0.1630 -0.2661
  713MOL0     C94018   1.304   8.176   5.413 -0.1789  0.2478  0.8901
  713MOL0     O94019   1.182   8.225   5.383  0.0252 -0.1940  0.8325
  713MOL0     C94020   1.079   8.236   5.482 -0.6521 -0.0345  0.4625
  713MOL0     C94021   0.938   8.263   5.420 -0.1029  0.4218  0.0185
  713MOL0     C94022   0.892   8.160   5.312 -0.2285 -1.4739  0.0716
  713MOL0     C94023   0.759   8.204   5.269 -0.5512  0.7793  0.8777
  713MOL0     C94024   0.723   8.131   5.137  0.2177  0.1094  0.4925
  713MOL0     C94025   0.755   8.208   5.006  0.1901  0.2543  0.1624
  713MOL0     C94026   0.678   8.345   4.975  0.2454  1.2270 -0.2067
  713MOL0     C94027   0.529   8.341   4.973  0.2711  0.8392 -0.2133
  713MOL0    Cl94028   0.478   8.517   4.984 -0.2454  0.1725  0.1676
  713MOL0     C94029   1.355   8.148   5.545 -0.4856 -0.0944  0.3215
  713MOL0     C94030   1.490   8.110   5.560  0.2121  0.8148 -0.1203
  713MOL0     O94031   1.751   8.265   5.603 -0.1033 -0.2566 -0.4473
  713MOL0     C94032   1.965   7.993   5.515  0.3990 -0.3550  0.2996
  713MOL0     C94033   2.100   7.962   5.532 -0.7458  0.0530 -0.0738
  713MOL0     N94034   2.794   8.024   5.973 -0.5640  0.8439 -0.0179
  713MOL0     N94035   2.893   7.974   6.034 -0.1230 -0.3362  0.0458
  713MOL0     C94036   4.200   8.047   5.869 -0.4405  0.0710  0.0364
  713MOL0     C94037   4.328   8.038   5.807  0.1728 -0.1314 -0.3555
  713MOL0     C94038   4.757   7.979   5.661 -0.1513  0.3031 -0.5412
  713MOL0     C94039   4.834   7.892   5.739 -0.5463  0.0615  0.3548
  713MOL0     C94040   4.966   7.858   5.702 -0.3105  0.3134  0.9756
  713MOL0     C94041   5.032   7.923   5.591  0.5551 -0.5090  0.5740
  713MOL0     O94042   5.148   7.903   5.530 -0.4701  0.3582 -0.2129
  713MOL0     C94043   5.258   7.807   5.570  0.3978 -1.7739 -0.6612
  713MOL0     C94044   5.384   7.839   5.487 -0.0340  0.3176 -0.3729
  713MOL0     C94045   5.363   7.830   5.343 -0.1779  0.1828 -0.4454
  713MOL0     C94046   5.491   7.882   5.281  0.6281 -0.0623  0.0962
  713MOL0     C94047   5.490   7.875   5.131  0.4854 -0.1431 -0.1437
  713MOL0     C94048   5.466   7.877   5.013  0.7457  0.4935  0.0952
  713MOL0     C94049   4.949   8.010   5.515 -0.2842  0.7677 -0.0561
  713MOL0     C94050   4.820   8.041   5.558 -0.4392  0.2331 -0.1916
  713MOL0     H94051   4.472   7.800   6.001  2.5345  2.9265  2.4741
  713MOL0     H94052   4.253   7.808   6.109  0.7595  1.5305  1.6588
  713MOL0     H94053   3.927   7.997   5.880 -2.3657 -0.1104 -1.2626
  713MOL0     H94054   3.927   8.132   5.990 -0.9076 -0.0665 -2.7103
  713MOL0     H94055   3.805   7.999   6.165 -1.5160 -0.0250  0.7566
  713MOL0     H94056   3.825   7.865   6.069 -0.3514 -0.1566 -0.5832
  713MOL0     H94057   3.697   8.029   5.878  2.6254 -1.5294 -0.0214
  713MOL0     H94058   3.639   8.105   6.023 -0.1391  0.0757 -0.7601
  713MOL0     H94059   3.524   7.865   5.927  1.5373  0.3909 -0.8496
  713MOL0     H94060   3.585   7.828   6.087  1.5494 -1.8315 -1.5407
  713MOL0     H94061   3.475   8.010   6.186  5.6537  2.7082 -2.5245
  713MOL0     H94062   3.364   7.894   6.113 -0.1973  1.3939 -0.1330
  713MOL0     H94063   3.389   8.066   5.897 -0.4764 -2.8425  0.3456
  713MOL0     H94064   3.412   8.176   6.037  0.1751  1.9750 -3.4780
  713MOL0     H94065   3.183   8.111   6.125  0.2426 -0.5299  0.4664
  713MOL0     H94066   3.181   8.174   5.957  2.1981  0.2161 -1.7238
  713MOL0     H94067   3.136   7.910   6.082  0.7045  2.4505  1.0442
  713MOL0     H94068   3.198   7.911   5.918 -0.9196 -1.3431  0.6871
  713MOL0     H94069   3.039   8.103   5.757 -0.1274  3.3892  1.2718
  713MOL0     H94070   2.789   8.241   5.736  2.4746 -1.7279 -1.2656
  713MOL0     H94071   2.657   8.188   5.843 -1.2160 -0.6110 -0.8274
  713MOL0     H94072   2.762   7.989   5.631 -0.4525 -0.4073  1.2429
  713MOL0     H94073   2.660   8.116   5.563  0.3616 -1.7015 -1.7194
  713MOL0     H94074   2.549   7.896   5.630  1.3797 -0.2921  1.5352
  713MOL0     H94075   2.561   7.942   5.798 -1.0153  1.0116  1.3751
  713MOL0     H94076   2.447   8.144   5.601  1.5005  0.9925  1.1356
  713MOL0     H94077   2.419   8.119   5.779 -0.7328  0.7242 -0.2566
  713MOL0     H94078   2.207   8.201   5.738 -1.0324  0.8774 -0.5723
  713MOL0     H94079   1.971   8.257   5.734 -1.0512 -1.8988  0.7984
  713MOL0     H94080   1.607   8.167   5.256  0.7501  1.7882  1.0403
  713MOL0     H94081   1.362   8.209   5.210  1.9793  0.4000 -0.8007
  713MOL0     H94082   1.106   8.321   5.546  1.4782 -0.1915 -0.1603
  713MOL0     H94083   1.081   8.148   5.546 -0.3402  0.4653  1.1606
  713MOL0     H94084   0.936   8.365   5.380  1.4337  0.2068 -0.6911
  713MOL0     H94085   0.869   8.256   5.503 -0.3031 -3.2763 -0.3137
  713MOL0     H94086   0.904   8.056   5.345  0.9240 -2.1359 -2.2180
  713MOL0     H94087   0.954   8.181   5.225 -1.4600  2.5284 -0.0234
  713MOL0     H94088   0.682   8.179   5.343 -3.2768  3.5052 -0.7868
  713MOL0     H94089   0.759   8.313   5.260  2.6792  1.2276  3.8763
  713MOL0     H94090   0.616   8.112   5.144  0.1469  1.1263  4.3116
  713MOL0     H94091   0.768   8.034   5.115 -3.0391 -0.8437 -3.1683
  713MOL0     H94092   0.728   8.144   4.921 -0.7868  1.3181 -0.3428
  713MOL0     H94093   0.862   8.228   5.003  0.2369 -0.0354 -0.4361
  713MOL0     H94094   0.709   8.414   5.053 -0.4540  0.4338  0.8007
  713MOL0     H94095   0.722   8.380   4.881  1.3907 -0.8532 -0.5319
  713MOL0     H94096   0.483   8.293   5.060 -0.3335  0.1494 -0.8964
  713MOL0     H94097   0.494   8.300   4.877 -0.8510  1.0977  0.0667
  713MOL0     H94098   1.280   8.148   5.623 -1.8339 -0.1871 -0.9205
  713MOL0     H94099   1.529   8.079   5.656 -0.5249  0.3772  0.0510
  713MOL0     H94100   1.898   7.929   5.459 -1.2830  1.9142 -0.4687
  713MOL0     H94101   2.126   7.861   5.502  1.7678  0.8448 -0.8263
  713MOL0     H94102   4.122   8.111   5.829 -0.1530 -1.0302 -2.4538
  713MOL0     H94103   4.337   8.108   5.724 -1.0964 -0.5738 -0.8940
  713MOL0     H94104   4.795   7.834   5.822 -1.5038  2.9190  2.0533
  713MOL0     H94105   5.018   7.787   5.766  0.4985  2.8499  3.3300
  713MOL0     H94106   5.234   7.702   5.551 -0.7518 -1.5674 -0.4290
  713MOL0     H94107   5.283   7.820   5.676  1.7513 -1.7880 -0.9613
  713MOL0     H94108   5.427   7.937   5.510  0.1597  0.8834 -2.8794
  713MOL0     H94109   5.456   7.759   5.508 -2.5826 -2.2643 -0.9635
  713MOL0     H94110   5.276   7.893   5.323 -3.5766 -4.0483 -0.5070
  713MOL0     H94111   5.345   7.729   5.304  0.6797  0.8302 -2.6661
  713MOL0     H94112   5.505   7.985   5.315  4.7708 -0.4465  0.0542
  713MOL0     H94113   5.574   7.824   5.322 -1.3462 -1.4798  2.3395
  713MOL0     H94114   5.439   7.889   4.910 -3.1405 -0.6526  0.8289
  713MOL0     H94115   4.971   8.057   5.420  0.6464  0.0302 -0.2250
  713MOL0     H94116   4.767   8.124   5.511  2.8829  2.6807  0.0724
  714MOL0     O94117   0.024   4.248   1.626 -0.4177  0.1170 -0.8939
  714MOL0     C94118   0.060   4.311   1.730  0.0727  0.9769 -1.0116
  714MOL0     O94119  -0.028   4.373   1.810 -0.1093 -0.2096  0.4292
  714MOL0     C94120  -0.156   4.392   1.772  0.3298  0.1358 -0.4684
  714MOL0     C94121  -0.198   4.427   1.646 -0.1159  0.3009  1.1421
  714MOL0     C94122  -0.335   4.447   1.618  0.3792 -0.2741  0.2265
  714MOL0     C94123  -0.422   4.449   1.725  0.1069 -1.1765  0.1101
  714MOL0     O94124  -0.548   4.490   1.713  0.4204  0.0355  1.0339
  714MOL0     C94125  -0.620   4.438   1.597 -0.9168  0.4426  0.1924
  714MOL0     C94126  -0.766   4.472   1.611 -0.7489  0.2968 -0.4016
  714MOL0     C94127  -0.858   4.393   1.518 -0.0038  0.2455 -0.6245
  714MOL0     C94128  -1.010   4.413   1.563 -0.5969 -0.1423  0.4918
  714MOL0     C94129  -1.102   4.330   1.470  0.5952 -0.1714  0.2323
  714MOL0     C94130  -1.245   4.330   1.510  0.6774  0.0294  0.3322
  714MOL0     C94131  -1.291   4.239   1.630 -0.5565  0.9165  0.0536
  714MOL0     C94132  -1.433   4.276   1.676 -0.9419 -0.3221 -0.1306
  714MOL0     N94133  -1.468   4.185   1.784 -0.2098  0.4110 -0.6006
  714MOL0     C94134  -1.476   4.046   1.772  0.2669 -0.7992 -0.5621
  714MOL0     C94135  -1.504   4.000   1.897  0.5536 -0.7942 -0.7195
  714MOL0     C94136  -1.534   3.852   1.924 -1.0426 -1.3363  0.6187
  714MOL0     C94137  -1.683   3.820   1.914 -0.5627 -0.2815  0.3188
  714MOL0     C94138  -1.722   3.749   1.784 -0.7312 -0.4886  0.8240
  714MOL0     C94139  -1.876   3.722   1.785 -0.1299 -0.1097  0.0080
  714MOL0     O94140  -1.894   3.639   1.676  0.3957  0.2021 -0.4587
  714MOL0     C94141  -2.029   3.607   1.654 -0.7557  0.1526 -0.0422
  714MOL0     C94142  -2.138   3.654   1.724  0.5152  0.4213 -0.5499
  714MOL0     C94143  -2.272   3.616   1.703 -0.1859 -0.0026 -0.4669
  714MOL0     C94144  -2.297   3.520   1.605 -0.3268 -0.3127  0.6003
  714MOL0     C94145  -2.435   3.469   1.575  0.4316 -0.0886 -0.0337
  714MOL0     O94146  -2.521   3.475   1.680 -0.2884 -0.9610 -1.0331
  714MOL0     C94147  -2.654   3.434   1.678 -0.6461 -0.0803  0.5518
  714MOL0     C94148  -2.733   3.472   1.785  0.3556  0.0944 -0.6227
  714MOL0     C94149  -2.873   3.440   1.793  0.3023 -0.4173  0.4572
  714MOL0     C94150  -2.934   3.358   1.692 -0.5100 -0.8325 -0.6465
  714MOL0     O94151  -3.057   3.301   1.697 -0.0578 -0.7328 -0.7423
  714MOL0     C94152  -3.151   3.343   1.792 -0.8521  0.3709 -0.4065
  714MOL0     C94153  -3.293   3.335   1.753  0.7875  0.1086  1.0839
  714MOL0     C94154  -3.391   3.372   1.873 -0.8465 -1.0140 -0.4369
  714MOL0     C94155  -3.537   3.373   1.827 -0.7823  0.2539  0.1333
  714MOL0     C94156  -3.624   3.425   1.940  0.2438  0.8078 -0.4281
  714MOL0     C94157  -3.771   3.444   1.901 -0.3718  0.8198  0.6052
  714MOL0     C94158  -3.858   3.329   1.962 -0.2856 -0.0660 -0.2417
  714MOL0     C94159  -4.008   3.364   1.945  0.0954  0.4613 -0.9418
  714MOL0    Cl94160  -4.115   3.231   1.995  0.3978  0.0175  0.1438
  714MOL0     C94161  -2.847   3.319   1.590  0.6832  0.4277 -0.0665
  714MOL0     C94162  -2.710   3.348   1.588  0.1937 -0.0711  1.3527
  714MOL0     O94163  -2.456   3.413   1.465 -0.6240 -0.3167 -0.4063
  714MOL0     C94164  -2.187   3.478   1.526 -0.5786 -0.3087  0.3716
  714MOL0     C94165  -2.055   3.516   1.550 -0.3787 -1.3266  0.3402
  714MOL0     N94166  -1.505   4.106   1.991 -0.5199 -0.1960  0.2905
  714MOL0     N94167  -1.503   4.213   1.915 -0.3279  0.1173 -0.1252
  714MOL0     C94168  -0.386   4.426   1.858 -0.2779 -0.6511  0.8296
  714MOL0     C94169  -0.254   4.391   1.876 -0.4815  1.0372  0.3751
  714MOL0     C94170   0.200   4.315   1.762  0.0693  0.1174  0.7309
  714MOL0     C94171   0.246   4.396   1.861 -0.4445 -0.0000  0.2140
  714MOL0     C94172   0.384   4.402   1.887  0.5446 -0.0409  0.2641
  714MOL0     C94173   0.477   4.312   1.819  0.4907  0.3509 -0.7598
  714MOL0     O94174   0.610   4.314   1.828 -0.9679  0.6746  0.9039
  714MOL0     C94175   0.667   4.441   1.874  0.0789  0.8939 -0.0745
  714MOL0     C94176   0.821   4.437   1.874  0.2953  0.6158  0.5524
  714MOL0     C94177   0.885   4.577   1.867  0.4594 -0.1477 -0.0701
  714MOL0     C94178   1.037   4.564   1.845  0.1762 -0.7096 -0.0146
  714MOL0     C94179   1.117   4.526   1.968  0.4469  0.3522  0.3869
  714MOL0     C94180   1.181   4.518   2.073 -0.1176 -0.3916  0.5080
  714MOL0     C94181   0.430   4.232   1.718  0.7328 -0.0556  0.1652
  714MOL0     C94182   0.289   4.231   1.696 -0.4324  0.1916 -0.6704
  714MOL0     H94183  -0.126   4.434   1.565 -2.9239  0.6807 -1.4941
  714MOL0     H94184  -0.365   4.478   1.519  1.7069  1.5212  0.3247
  714MOL0     H94185  -0.602   4.332   1.576 -0.3044  0.7577 -0.9702
  714MOL0     H94186  -0.590   4.501   1.513 -3.4361  2.0005  0.3290
  714MOL0     H94187  -0.784   4.576   1.582 -0.3242  0.8497  1.2323
  714MOL0     H94188  -0.803   4.452   1.712  0.7029  0.7376  0.2418
  714MOL0     H94189  -0.838   4.286   1.525 -1.5482 -0.0298  0.1027
  714MOL0     H94190  -0.839   4.421   1.414  1.7737  0.4638 -0.2687
  714MOL0     H94191  -1.035   4.375   1.663  0.9464  2.5407  2.0101
  714MOL0     H94192  -1.043   4.517   1.561 -3.3856 -0.9555 -0.5271
  714MOL0     H94193  -1.075   4.226   1.489 -0.3835 -0.0680  2.5561
  714MOL0     H94194  -1.104   4.360   1.365  0.8907 -1.6885 -0.2393
  714MOL0     H94195  -1.304   4.295   1.424 -0.9034  0.8520  1.0321
  714MOL0     H94196  -1.282   4.431   1.525  1.5887  0.5557 -0.7756
  714MOL0     H94197  -1.287   4.133   1.602  4.2384  0.6863  0.7929
  714MOL0     H94198  -1.228   4.260   1.717 -1.0186  0.9331  0.3897
  714MOL0     H94199  -1.505   4.257   1.596 -0.8834 -1.3972  0.0495
  714MOL0     H94200  -1.414   4.378   1.710 -0.1973 -1.3938  3.0876
  714MOL0     H94201  -1.462   3.980   1.687  0.0574  0.7201 -1.8342
  714MOL0     H94202  -1.493   3.830   2.023  1.5068  1.8581  0.4599
  714MOL0     H94203  -1.474   3.788   1.858 -0.2545  0.4405 -0.4768
  714MOL0     H94204  -1.757   3.898   1.931  0.1403  0.1894  1.3263
  714MOL0     H94205  -1.703   3.737   1.982 -1.3934 -0.8713 -0.6213
  714MOL0     H94206  -1.690   3.798   1.692 -1.3967 -1.8183 -0.1416
  714MOL0     H94207  -1.674   3.651   1.792 -1.1557 -0.5551  4.0467
  714MOL0     H94208  -1.940   3.811   1.791 -0.9259 -0.6004 -0.8722
  714MOL0     H94209  -1.895   3.673   1.880  2.2175 -2.1364 -0.4629
  714MOL0     H94210  -2.121   3.717   1.811  1.7079 -0.0729 -0.3987
  714MOL0     H94211  -2.358   3.647   1.762 -1.4271 -1.5340 -1.3678
  714MOL0     H94212  -2.709   3.534   1.870 -0.5189 -1.3531  0.7419
  714MOL0     H94213  -2.940   3.471   1.872 -3.5611 -1.9544 -1.9406
  714MOL0     H94214  -3.137   3.449   1.816  2.4159 -0.5638  2.7934
  714MOL0     H94215  -3.126   3.290   1.884  1.2384  0.2634 -0.9844
  714MOL0     H94216  -3.318   3.235   1.716 -0.8679  0.6473  0.6761
  714MOL0     H94217  -3.303   3.396   1.663  2.5576 -2.3328 -0.9161
  714MOL0     H94218  -3.362   3.463   1.927 -0.7097 -2.5484  2.2582
  714MOL0     H94219  -3.379   3.303   1.957 -1.1411 -1.4574 -0.7539
  714MOL0     H94220  -3.558   3.434   1.739 -2.2594 -0.4143 -0.0195
  714MOL0     H94221  -3.568   3.271   1.803  1.0114  0.0238 -1.4384
  714MOL0     H94222  -3.591   3.527   1.964 -0.7905  0.6647  1.8974
  714MOL0     H94223  -3.620   3.354   2.024 -2.6104  1.2646  0.1787
  714MOL0     H94224  -3.797   3.428   1.796 -2.1904 -0.5830  1.1974
  714MOL0     H94225  -3.817   3.540   1.925 -1.6114  0.3506  0.2047
  714MOL0     H94226  -3.832   3.235   1.913  0.4663  0.1936 -0.3568
  714MOL0     H94227  -3.846   3.329   2.071 -0.1683  1.1974 -0.2349
  714MOL0     H94228  -4.027   3.401   1.844 -0.6070  1.3101 -0.5089
  714MOL0     H94229  -4.038   3.447   2.009  0.3366 -1.6102  2.0177
  714MOL0     H94230  -2.893   3.256   1.514  0.0908 -0.4871  1.0126
  714MOL0     H94231  -2.645   3.310   1.510  1.9744  3.7837  0.7255
  714MOL0     H94232  -2.193   3.408   1.443 -2.2602  1.4911 -1.1131
  714MOL0     H94233  -1.976   3.483   1.482  1.1900  0.5607  1.1219
  714MOL0     H94234  -0.457   4.450   1.937 -0.4295 -0.8443  0.7525
  714MOL0     H94235  -0.212   4.369   1.974 -0.4794  0.7829  0.3183
  714MOL0     H94236   0.173   4.449   1.921 -1.5377 -3.5368  2.3413
  714MOL0     H94237   0.414   4.466   1.969  0.9548  0.7569 -0.4908
  714MOL0     H94238   0.624   4.450   1.975 -1.6575 -4.4223 -0.0036
  714MOL0     H94239   0.649   4.522   1.802  2.8979  0.6886 -1.1082
  714MOL0     H94240   0.852   4.408   1.975  3.3495  1.6860  0.0456
  714MOL0     H94241   0.864   4.367   1.802  0.1328  1.6830 -0.6034
  714MOL0     H94242   0.864   4.637   1.956  2.3702  0.3249  0.1085
  714MOL0     H94243   0.838   4.637   1.788  0.2507 -1.8367 -1.2880
  714MOL0     H94244   1.056   4.499   1.759 -2.1735 -1.3407 -0.1325
  714MOL0     H94245   1.071   4.666   1.823  1.7494 -1.1213  0.3711
  714MOL0     H94246   1.251   4.510   2.154 -1.4960 -1.2783  1.6446
  714MOL0     H94247   0.495   4.157   1.674  0.0573  0.2068 -1.3661
  714MOL0     H94248   0.237   4.161   1.632 -0.2829 -2.8350  2.2630
  715MOL0     O94249   0.242   5.581   3.723  0.1724 -1.0895 -0.1330
  715MOL0     C94250   0.233   5.643   3.828  0.5634  0.4756  1.1562
  715MOL0     O94251   0.159   5.756   3.844  0.1633 -0.2344  0.4904
  715MOL0     C94252   0.101   5.828   3.736 -0.4538  0.0992 -0.4634
  715MOL0     C94253   0.080   5.960   3.763  0.0110  1.0980 -0.1663
  715MOL0     C94254   0.029   6.041   3.665  0.6616  0.6341  0.3904
  715MOL0     C94255  -0.008   6.000   3.539  0.0543  1.0132 -0.3119
  715MOL0     O94256  -0.050   6.083   3.434 -0.1082  0.2010  0.5963
  715MOL0     C94257  -0.166   6.160   3.462 -0.2746 -0.4906  0.6808
  715MOL0     C94258  -0.183   6.277   3.362 -0.3392  1.2257 -0.2360
  715MOL0     C94259  -0.331   6.331   3.366 -0.6281  1.3353  0.1668
  715MOL0     C94260  -0.361   6.413   3.493 -0.0651  0.2255 -0.3336
  715MOL0     C94261  -0.507   6.465   3.496 -0.2338  0.4875  0.5201
  715MOL0     C94262  -0.615   6.364   3.435 -0.0825 -0.5629 -1.0084
  715MOL0     C94263  -0.644   6.238   3.519  0.3896 -0.2842  0.4697
  715MOL0     C94264  -0.741   6.163   3.433 -0.6222 -0.0454 -0.6373
  715MOL0     N94265  -0.877   6.227   3.416 -0.0918  0.6023 -0.1243
  715MOL0     C94266  -0.985   6.206   3.493 -0.6973  1.3659  0.5009
  715MOL0     C94267  -1.087   6.266   3.430  0.1398 -0.0623 -0.5136
  715MOL0     C94268  -1.228   6.255   3.466  0.2518  0.2037  0.3407
  715MOL0     C94269  -1.255   6.258   3.615  0.5125 -0.2350 -0.5621
  715MOL0     C94270  -1.402   6.274   3.659  0.1087  1.0953 -0.2602
  715MOL0     C94271  -1.504   6.333   3.567  0.0592  0.4399  0.4137
  715MOL0     O94272  -1.624   6.307   3.635 -0.8507  0.1048 -0.2065
  715MOL0     C94273  -1.746   6.355   3.590 -0.5248  0.3725 -0.2307
  715MOL0     C94274  -1.763   6.411   3.461 -0.0411 -1.0667  0.3861
  715MOL0     C94275  -1.885   6.467   3.423  1.2056  0.5119  0.2819
  715MOL0     C94276  -1.994   6.456   3.507  0.1656  0.4486  0.0448
  715MOL0     C94277  -2.133   6.514   3.471  0.2927  0.0127  0.6414
  715MOL0     O94278  -2.227   6.504   3.570 -0.8144 -0.5160  0.3814
  715MOL0     C94279  -2.353   6.566   3.574  0.1332 -0.6289 -0.0677
  715MOL0     C94280  -2.424   6.615   3.463  0.0968 -0.2891  0.4374
  715MOL0     C94281  -2.556   6.666   3.482 -0.7591 -0.3494  0.0947
  715MOL0     C94282  -2.613   6.669   3.612  0.3667  0.0538  0.3014
  715MOL0     O94283  -2.735   6.729   3.618  0.3737 -0.1498 -0.2152
  715MOL0     C94284  -2.785   6.762   3.752  0.3151  0.4008  0.8082
  715MOL0     C94285  -2.918   6.838   3.753 -0.9376  0.9469 -0.1617
  715MOL0     C94286  -3.027   6.737   3.737 -0.8247  0.6630 -0.0618
  715MOL0     C94287  -3.156   6.809   3.743  0.2403 -0.4662 -0.2789
  715MOL0     C94288  -3.280   6.722   3.788 -0.1857  0.0490  0.0232
  715MOL0     C94289  -3.401   6.810   3.795 -0.2256  0.0847  0.1568
  715MOL0     C94290  -3.520   6.719   3.835  0.0829 -0.4117  0.4023
  715MOL0     C94291  -3.656   6.781   3.801 -0.4075 -0.9428 -0.0176
  715MOL0    Cl94292  -3.789   6.663   3.827 -0.0224  0.1113 -0.0202
  715MOL0     C94293  -2.537   6.633   3.719 -0.5337  0.2201 -0.0616
  715MOL0     C94294  -2.412   6.582   3.700 -0.2832  0.1331 -0.6178
  715MOL0     O94295  -2.143   6.570   3.364 -0.2811 -0.6366 -0.3806
  715MOL0     C94296  -1.984   6.393   3.633 -1.3306  0.0738  0.3321
  715MOL0     C94297  -1.854   6.351   3.679  0.5104  0.6145  0.4498
  715MOL0     N94298  -1.035   6.331   3.321 -0.1650 -0.1356 -0.0024
  715MOL0     N94299  -0.910   6.308   3.309 -0.3134 -0.1109 -0.2328
  715MOL0     C94300   0.010   5.863   3.513 -0.3862 -0.5926  0.1600
  715MOL0     C94301   0.070   5.779   3.609 -0.1088 -0.2622 -0.1546
  715MOL0     C94302   0.303   5.591   3.938 -0.4181  0.5852  0.1548
  715MOL0     C94303   0.346   5.452   3.955 -0.2686  0.4392  0.6626
  715MOL0     C94304   0.411   5.404   4.072 -0.1686 -0.2328  0.4283
  715MOL0     C94305   0.429   5.488   4.187  0.3363  0.1763  1.1201
  715MOL0     O94306   0.473   5.425   4.299 -0.4673 -0.0601  0.4768
  715MOL0     C94307   0.572   5.506   4.368 -0.2552 -0.1455 -0.2766
  715MOL0     C94308   0.702   5.455   4.309 -0.2986  0.4539  0.1659
  715MOL0     C94309   0.812   5.541   4.366 -0.0696 -0.0469 -0.0484
  715MOL0     C94310   0.942   5.536   4.288 -0.0567 -0.6752  0.0987
  715MOL0     C94311   1.021   5.419   4.330 -0.2004 -0.1805  0.7523
  715MOL0     C94312   1.112   5.337   4.349 -0.2546  0.2823 -0.3372
  715MOL0     C94313   0.386   5.624   4.177  0.5075  0.3274  0.0678
  715MOL0     C94314   0.335   5.670   4.056 -0.2648  0.1056 -0.6820
  715MOL0     H94315   0.103   5.987   3.866 -0.5510  1.1353 -0.0517
  715MOL0     H94316   0.006   6.144   3.691  0.3137  0.6579 -0.0023
  715MOL0     H94317  -0.156   6.209   3.560  1.1067  1.4926 -0.3931
  715MOL0     H94318  -0.249   6.089   3.455 -0.2663 -0.2990 -2.3368
  715MOL0     H94319  -0.157   6.235   3.265 -0.0020  1.0928 -0.0899
  715MOL0     H94320  -0.114   6.359   3.383  1.6316 -0.5873  0.7663
  715MOL0     H94321  -0.398   6.244   3.364  0.5749  0.4091 -1.5167
  715MOL0     H94322  -0.349   6.397   3.281 -1.5100  0.8768 -0.0184
  715MOL0     H94323  -0.355   6.347   3.580 -1.1932  1.0548  0.3988
  715MOL0     H94324  -0.288   6.493   3.510 -0.2018  0.2285  0.2560
  715MOL0     H94325  -0.523   6.561   3.446 -0.4325  1.1683  1.8344
  715MOL0     H94326  -0.544   6.491   3.596 -0.3457 -1.3505  0.9832
  715MOL0     H94327  -0.590   6.333   3.333 -0.2794 -1.3325 -0.8258
  715MOL0     H94328  -0.710   6.420   3.435 -2.3569 -4.0949 -1.6536
  715MOL0     H94329  -0.560   6.172   3.541 -0.9283 -2.6210 -1.0888
  715MOL0     H94330  -0.694   6.272   3.610  1.8939 -0.7431  1.5090
  715MOL0     H94331  -0.742   6.063   3.476  1.8240 -0.4611 -1.3825
  715MOL0     H94332  -0.702   6.146   3.332 -3.7952  1.0188 -2.1742
  715MOL0     H94333  -0.989   6.145   3.583 -0.8996 -0.9043 -0.9705
  715MOL0     H94334  -1.273   6.163   3.427 -1.0911  0.0472  2.1098
  715MOL0     H94335  -1.287   6.336   3.422 -2.1547 -1.2764  0.6572
  715MOL0     H94336  -1.199   6.341   3.660 -2.1953  1.4272 -0.0078
  715MOL0     H94337  -1.212   6.165   3.653 -2.6549 -1.2908  0.7443
  715MOL0     H94338  -1.438   6.174   3.684  3.7399 -0.8799 -2.0427
  715MOL0     H94339  -1.398   6.332   3.752 -0.3367  1.0372 -0.2041
  715MOL0     H94340  -1.511   6.278   3.473  0.2822  2.4912 -0.8674
  715MOL0     H94341  -1.497   6.441   3.550  0.4546  0.6361  1.6584
  715MOL0     H94342  -1.677   6.432   3.399  1.1812  1.3341  2.6597
  715MOL0     H94343  -1.890   6.503   3.320  2.1000 -2.6277 -0.9886
  715MOL0     H94344  -2.387   6.605   3.361 -0.9580  0.1024  0.0074
  715MOL0     H94345  -2.615   6.705   3.400 -2.1445 -1.2204  0.6578
  715MOL0     H94346  -2.719   6.839   3.792 -0.5437  0.7724  1.5484
  715MOL0     H94347  -2.806   6.676   3.817  1.0836 -0.4785 -0.0679
  715MOL0     H94348  -2.917   6.917   3.677  3.2413  0.9109 -0.3569
  715MOL0     H94349  -2.936   6.887   3.849 -2.2781  1.8621 -0.8374
  715MOL0     H94350  -3.026   6.657   3.811  0.5456  0.9429  0.2526
  715MOL0     H94351  -3.023   6.681   3.643  2.4424 -0.8924  0.8717
  715MOL0     H94352  -3.145   6.894   3.811 -0.8215 -2.1850  2.1939
  715MOL0     H94353  -3.182   6.852   3.646 -2.2740 -0.6034  0.2687
  715MOL0     H94354  -3.262   6.678   3.886 -0.5990 -1.7546 -0.6642
  715MOL0     H94355  -3.297   6.643   3.714  2.9454 -1.9234  1.2187
  715MOL0     H94356  -3.414   6.862   3.699  1.6759 -1.3732 -0.9572
  715MOL0     H94357  -3.384   6.878   3.879 -0.1511  1.5294 -0.9665
  715MOL0     H94358  -3.517   6.642   3.757  2.0750  0.8034 -0.7938
  715MOL0     H94359  -3.521   6.663   3.929  1.6437 -0.6447  0.2973
  715MOL0     H94360  -3.651   6.841   3.710 -2.0068 -0.2891  0.2990
  715MOL0     H94361  -3.668   6.850   3.885  2.7596  0.0138 -0.2143
  715MOL0     H94362  -2.567   6.636   3.823  0.4357  1.1281  0.2047
  715MOL0     H94363  -2.360   6.554   3.791 -0.3488  0.6246 -0.4275
  715MOL0     H94364  -2.070   6.394   3.699 -1.1515  0.7871  0.5659
  715MOL0     H94365  -1.855   6.305   3.777 -0.9609 -0.5569 -0.0685
  715MOL0     H94366  -0.012   5.813   3.420 -0.6278  0.6801 -0.4766
  715MOL0     H94367   0.072   5.673   3.587  2.9556 -0.0795 -1.1863
  715MOL0     H94368   0.333   5.371   3.884  4.7868 -2.3818  2.4316
  715MOL0     H94369   0.428   5.297   4.068 -1.3547 -0.6270  3.3102
  715MOL0     H94370   0.564   5.498   4.477  0.8587  1.7131 -0.0155
  715MOL0     H94371   0.566   5.613   4.346 -1.7731 -0.2900 -0.6639
  715MOL0     H94372   0.727   5.349   4.321 -3.3356 -0.4221 -0.3770
  715MOL0     H94373   0.698   5.470   4.201  1.6929  3.0007  0.3580
  715MOL0     H94374   0.829   5.506   4.468 -1.7540  2.1257  1.0333
  715MOL0     H94375   0.790   5.647   4.376  0.7260  0.0184  1.2198
  715MOL0     H94376   0.920   5.538   4.181  3.5280  0.1238 -0.7489
  715MOL0     H94377   0.991   5.630   4.315 -1.8576  0.0039  1.2078
  715MOL0     H94378   1.192   5.268   4.362  2.3316  2.3205 -3.6416
  715MOL0     H94379   0.374   5.693   4.260  0.0183  4.0921 -2.8323
  715MOL0     H94380   0.293   5.770   4.063 -0.6064  0.0795 -2.0036
  716MOL0     O94381   5.637   9.922   6.241 -0.6230  0.9917  0.0784
  716MOL0     C94382   5.740   9.930   6.321  0.2570  0.6855  1.0859
  716MOL0     O94383   5.740   9.921   6.459  0.3261 -0.2698  0.3018
  716MOL0     C94384   5.618   9.925   6.509  0.8734  0.3457  0.4892
  716MOL0     C94385   5.530  10.031   6.500  0.0611  0.1679 -0.0040
  716MOL0     C94386   5.399  10.016   6.530  0.2264  0.1099 -0.2453
  716MOL0     C94387   5.357   9.903   6.597 -0.0963 -0.3405 -0.1282
  716MOL0     O94388   5.226   9.906   6.647 -0.6377  0.2629 -0.3428
  716MOL0     C94389   5.197   9.819   6.756 -0.2091 -0.2517 -0.2113
  716MOL0     C94390   5.082   9.877   6.843  0.1935  0.8435  0.2729
  716MOL0     C94391   4.966   9.934   6.759 -0.5407 -0.7188  0.9980
  716MOL0     C94392   4.871  10.012   6.837 -0.4508 -0.7721  0.0747
  716MOL0     C94393   4.722  10.007   6.802  0.4146 -0.6719 -0.1908
  716MOL0     C94394   4.656   9.867   6.843 -0.0604 -0.7910  0.6701
  716MOL0     C94395   4.520   9.870   6.792 -0.1847 -0.0079  0.1641
  716MOL0     C94396   4.445   9.753   6.859 -0.2777 -0.7608 -0.0664
  716MOL0     N94397   4.312   9.786   6.880  0.3624  0.0997 -0.3163
  716MOL0     C94398   4.206   9.740   6.805  0.1104  0.5458  0.0766
  716MOL0     C94399   4.102   9.795   6.874 -0.1145 -0.0883  0.5424
  716MOL0     C94400   3.962   9.787   6.825 -1.3207 -0.3688 -0.3889
  716MOL0     C94401   3.881   9.670   6.880 -1.1215 -0.2591 -0.2442
  716MOL0     C94402   3.735   9.692   6.868  0.5061 -0.2142 -0.1750
  716MOL0     C94403   3.690   9.675   6.727  0.6713  0.6882  0.1547
  716MOL0     O94404   3.605   9.558   6.710 -0.5758 -0.0656 -0.8102
  716MOL0     C94405   3.486   9.566   6.775  0.0194  0.0004  1.2781
  716MOL0     C94406   3.389   9.665   6.771  0.2431 -0.3935  0.4232
  716MOL0     C94407   3.272   9.650   6.850  0.0216  0.4037 -0.7325
  716MOL0     C94408   3.250   9.531   6.922  0.2537 -0.2394 -0.3597
  716MOL0     C94409   3.134   9.527   7.020  0.1835 -0.6814 -0.4957
  716MOL0     O94410   3.087   9.402   7.057 -0.0844 -0.3546  0.1316
  716MOL0     C94411   2.997   9.398   7.163  0.1415  0.3450  0.2914
  716MOL0     C94412   3.036   9.361   7.284  0.6531  0.6307  0.0886
  716MOL0     C94413   2.949   9.365   7.394 -0.4586  0.8439  0.6955
  716MOL0     C94414   2.816   9.414   7.384 -0.1106 -0.1738 -0.5503
  716MOL0     O94415   2.738   9.408   7.500  0.8893 -0.5551 -0.0692
  716MOL0     C94416   2.604   9.463   7.484 -0.1569  0.3178 -0.0078
  716MOL0     C94417   2.543   9.456   7.616 -0.5824  0.1544 -0.5838
  716MOL0     C94418   2.433   9.344   7.622  0.2234  0.0764 -0.8627
  716MOL0     C94419   2.507   9.202   7.631 -0.0226  1.6704 -0.4527
  716MOL0     C94420   2.421   9.071   7.602 -0.4670  0.9167  0.3058
  716MOL0     C94421   2.307   9.039   7.692  0.7274  0.3617 -0.3364
  716MOL0     C94422   2.213   8.941   7.616 -1.0616  0.9375 -1.0394
  716MOL0     C94423   2.093   8.893   7.701  0.0281 -0.4319  0.1581
  716MOL0    Cl94424   1.955   9.010   7.703 -0.0045  0.0686 -0.0897
  716MOL0     C94425   2.772   9.440   7.255  0.5724 -0.9672 -0.7044
  716MOL0     C94426   2.865   9.454   7.154 -0.1588 -0.0609  0.4839
  716MOL0     O94427   3.090   9.634   7.053  0.6749  0.0258 -0.1685
  716MOL0     C94428   3.356   9.436   6.923  0.6755 -0.4679 -0.0893
  716MOL0     C94429   3.461   9.456   6.843  0.0331  0.3700 -0.2532
  716MOL0     N94430   4.150   9.872   6.973  1.6775  0.0177 -0.1426
  716MOL0     N94431   4.277   9.883   6.964  0.2562  0.0129  0.0048
  716MOL0     C94432   5.440   9.789   6.608  0.0800  0.0800 -0.0075
  716MOL0     C94433   5.574   9.803   6.563  0.1776 -0.8020  0.2367
  716MOL0     C94434   5.873   9.920   6.254 -0.1642  0.6149 -0.5845
  716MOL0     C94435   5.891   9.932   6.114 -0.5913  0.5781  0.0934
  716MOL0     C94436   6.014   9.948   6.057 -0.4416  0.1233 -0.1368
  716MOL0     C94437   6.126   9.965   6.137  0.2475 -0.2518 -0.6061
  716MOL0     O94438   6.247  10.003   6.093 -0.9101 -0.6837 -0.0204
  716MOL0     C94439   6.356   9.939   6.162  0.1095  0.6381 -0.8654
  716MOL0     C94440   6.470   9.959   6.083 -1.0899 -0.2017  0.2066
  716MOL0     C94441   6.515  10.106   6.069 -0.0953  0.0790  0.3531
  716MOL0     C94442   6.653  10.119   6.002  1.0455 -0.1266 -0.3543
  716MOL0     C94443   6.765  10.047   6.063  0.2883 -0.4753 -0.4779
  716MOL0     C94444   6.857   9.996   6.126 -0.1217 -0.1457  0.5859
  716MOL0     C94445   6.109   9.946   6.280  0.0513  0.2052  0.2179
  716MOL0     C94446   5.987   9.928   6.339 -0.3193  0.8712 -0.8669
  716MOL0     H94447   5.554  10.131   6.465  0.1306  0.2867  0.3785
  716MOL0     H94448   5.333  10.101   6.513  0.4859  0.5043  0.6518
  716MOL0     H94449   5.286   9.802   6.816 -0.5304  0.4193  0.4656
  716MOL0     H94450   5.154   9.726   6.716 -0.6877 -0.9841  1.9115
  716MOL0     H94451   5.112   9.960   6.907  0.8120  0.6901  0.1814
  716MOL0     H94452   5.049   9.798   6.911  0.8177  0.7205  0.4386
  716MOL0     H94453   4.912   9.846   6.722 -1.3131 -0.1661  0.7904
  716MOL0     H94454   4.998   9.998   6.677 -3.9241  0.2278  0.2550
  716MOL0     H94455   4.886   9.996   6.944  0.6633 -5.6658 -0.5731
  716MOL0     H94456   4.900  10.117   6.823 -0.8133 -0.4909  1.3130
  716MOL0     H94457   4.714  10.021   6.694 -1.2156 -0.3591 -0.0579
  716MOL0     H94458   4.660  10.087   6.843  1.1765  0.4326 -1.1152
  716MOL0     H94459   4.668   9.847   6.950 -3.2804 -2.6113  0.7929
  716MOL0     H94460   4.707   9.790   6.784  1.0157  0.2762  0.1560
  716MOL0     H94461   4.477   9.967   6.818 -0.0236  0.0590  0.1849
  716MOL0     H94462   4.516   9.855   6.684  0.4626 -4.0265  0.5456
  716MOL0     H94463   4.493   9.731   6.955 -0.5321 -1.4523 -0.0869
  716MOL0     H94464   4.454   9.660   6.802  1.1606 -0.0739 -1.0107
  716MOL0     H94465   4.201   9.682   6.713  0.5395  0.4766  0.0921
  716MOL0     H94466   3.954   9.769   6.717 -2.4208 -0.2839 -0.3309
  716MOL0     H94467   3.916   9.882   6.851 -1.1322 -0.5495  0.6731
  716MOL0     H94468   3.888   9.657   6.988 -3.6365 -1.9187 -0.2054
  716MOL0     H94469   3.920   9.595   6.811 -0.3876  2.6780 -3.3280
  716MOL0     H94470   3.686   9.612   6.924  0.0867  0.0686 -0.1428
  716MOL0     H94471   3.715   9.792   6.906  2.0752  0.1610 -0.2693
  716MOL0     H94472   3.777   9.649   6.667  1.6745 -0.6856  2.1194
  716MOL0     H94473   3.645   9.765   6.684  2.5608  1.2009 -0.8712
  716MOL0     H94474   3.405   9.755   6.712  1.1619 -0.7679  0.0907
  716MOL0     H94475   3.209   9.738   6.856  1.2953  1.6977 -4.0049
  716MOL0     H94476   3.141   9.340   7.301  0.5644 -1.2322 -1.3153
  716MOL0     H94477   2.971   9.323   7.492  0.3703  0.6430  0.4225
  716MOL0     H94478   2.546   9.412   7.407  1.5216 -1.1416 -0.3686
  716MOL0     H94479   2.604   9.569   7.454 -1.1051 -0.1548 -1.8182
  716MOL0     H94480   2.488   9.550   7.626  0.3273  0.5626  1.0776
  716MOL0     H94481   2.615   9.447   7.699 -2.2265  0.1983  0.9114
  716MOL0     H94482   2.375   9.343   7.529  1.0194 -2.9598 -1.4642
  716MOL0     H94483   2.362   9.361   7.704  1.1926  0.9160 -0.1685
  716MOL0     H94484   2.582   9.202   7.552  2.0745  0.8534  1.4319
  716MOL0     H94485   2.561   9.199   7.726  1.9994  1.0256 -1.5709
  716MOL0     H94486   2.492   8.987   7.600 -0.8448  0.5548  1.5966
  716MOL0     H94487   2.384   9.075   7.499  0.4695 -0.7241 -0.1362
  716MOL0     H94488   2.250   9.126   7.727  1.0122  0.1311  0.7552
  716MOL0     H94489   2.349   8.992   7.781 -0.2537 -0.5572 -0.3389
  716MOL0     H94490   2.170   8.972   7.520 -2.6736 -3.3766 -1.9207
  716MOL0     H94491   2.273   8.851   7.605 -4.9623 -1.9077 -1.0091
  716MOL0     H94492   2.127   8.878   7.804  1.5707 -2.1156 -0.5311
  716MOL0     H94493   2.060   8.795   7.666 -0.3150 -0.7219  1.2707
  716MOL0     H94494   2.668   9.457   7.230 -0.5883 -0.5179  3.6171
  716MOL0     H94495   2.814   9.491   7.066 -0.2284 -0.9190  0.1536
  716MOL0     H94496   3.341   9.348   6.984  2.0908 -0.3318  0.4840
  716MOL0     H94497   3.536   9.378   6.853  0.7065  1.1182  0.6015
  716MOL0     H94498   5.426   9.696   6.664 -0.6627  1.3587  2.0471
  716MOL0     H94499   5.641   9.718   6.561  0.3231 -0.7492  1.9245
  716MOL0     H94500   5.805   9.916   6.050 -0.4736  1.7627 -0.3735
  716MOL0     H94501   6.036   9.948   5.951 -2.9933 -1.9841 -0.7866
  716MOL0     H94502   6.344   9.833   6.186 -1.5305  0.7424 -1.1031
  716MOL0     H94503   6.359   9.991   6.259 -3.1705  0.8010 -0.7402
  716MOL0     H94504   6.544   9.885   6.112 -1.3179 -2.0263 -3.3017
  716MOL0     H94505   6.451   9.922   5.982 -0.1637  0.0889 -0.0821
  716MOL0     H94506   6.527  10.147   6.169 -2.4561 -0.2754  0.8385
  716MOL0     H94507   6.432  10.161   6.022 -2.3849 -2.1061  1.6421
  716MOL0     H94508   6.634  10.081   5.902  1.5039  2.0708 -1.3217
  716MOL0     H94509   6.679  10.225   6.003  0.9065  0.0692  3.8631
  716MOL0     H94510   6.934   9.957   6.189 -0.5898  1.1242  2.0002
  716MOL0     H94511   6.189   9.944   6.353 -1.3862  0.3077  1.8647
  716MOL0     H94512   5.989   9.928   6.447 -0.7062 -0.4029 -0.8422
  717MOL0     O94513   4.147   4.809   5.769  0.1829 -0.3630  0.4975
  717MOL0     C94514   4.164   4.811   5.893  0.5343 -0.7213 -0.0335
  717MOL0     O94515   4.072   4.796   5.988  0.0191  0.0468  0.5220
  717MOL0     C94516   3.944   4.836   5.962  0.6810 -0.3739 -0.2376
  717MOL0     C94517   3.904   4.971   5.954 -0.6601  0.0052  1.0998
  717MOL0     C94518   3.766   5.008   5.966  0.7266  0.6090  0.8710
  717MOL0     C94519   3.667   4.905   5.953  0.5022 -1.0176  0.5094
  717MOL0     O94520   3.534   4.942   5.941  0.2418  0.0540 -0.2177
  717MOL0     C94521   3.483   5.034   6.031  0.8169  0.5508 -0.6045
  717MOL0     C94522   3.338   4.998   6.067  0.6388  0.1593  0.5286
  717MOL0     C94523   3.232   5.106   6.024  0.1970 -0.3898 -0.4197
  717MOL0     C94524   3.094   5.052   6.042  0.3237  0.9995  0.0341
  717MOL0     C94525   2.987   5.156   6.030  0.9568  0.0485  0.3851
  717MOL0     C94526   2.843   5.098   6.036  0.5852 -0.3522 -0.7553
  717MOL0     C94527   2.725   5.204   6.013 -0.4580 -0.1035  0.2344
  717MOL0     C94528   2.597   5.122   6.038 -0.2507 -1.3332 -0.1127
  717MOL0     N94529   2.475   5.187   5.984  0.0206 -1.3317 -0.1309
  717MOL0     C94530   2.425   5.165   5.861  0.2988  0.3537  0.2070
  717MOL0     C94531   2.302   5.212   5.882  0.5381  0.5591 -0.9562
  717MOL0     C94532   2.197   5.223   5.779  0.2007  0.2635  0.5390
  717MOL0     C94533   2.055   5.185   5.832  0.6842  0.0919  1.1853
  717MOL0     C94534   2.043   5.043   5.897 -0.4104 -0.2473  0.5171
  717MOL0     C94535   1.906   5.046   5.965  0.8216  0.7484  0.5703
  717MOL0     O94536   1.814   5.016   5.859 -0.6339 -0.8458 -0.5174
  717MOL0     C94537   1.682   5.045   5.889 -0.4303  0.8115  0.5522
  717MOL0     C94538   1.625   5.106   6.012  0.8168 -0.2574  0.4873
  717MOL0     C94539   1.490   5.148   6.007  0.5811 -1.1396  0.1662
  717MOL0     C94540   1.407   5.120   5.898 -0.2282 -0.2707 -0.2642
  717MOL0     C94541   1.267   5.168   5.892  0.1642 -0.3826  0.4669
  717MOL0     O94542   1.198   5.149   5.769  0.6378 -0.0121 -0.3924
  717MOL0     C94543   1.079   5.218   5.741  0.2183 -0.6207 -0.1441
  717MOL0     C94544   1.051   5.345   5.786  0.1767 -0.6735  0.2718
  717MOL0     C94545   0.944   5.426   5.750 -0.7230 -0.5556 -0.8602
  717MOL0     C94546   0.839   5.371   5.673  0.5351  0.3476  0.0496
  717MOL0     O94547   0.739   5.457   5.647  0.5517  0.0598  0.0056
  717MOL0     C94548   0.615   5.405   5.592 -0.4201  0.5501 -0.0870
  717MOL0     C94549   0.607   5.410   5.437 -0.0670 -0.0359 -0.8114
  717MOL0     C94550   0.457   5.411   5.405  0.3074  0.2213 -0.1511
  717MOL0     C94551   0.397   5.553   5.409 -0.3591 -0.8909 -0.0615
  717MOL0     C94552   0.263   5.565   5.335  0.7839 -0.6827 -0.2107
  717MOL0     C94553   0.154   5.508   5.425 -0.1609  0.8087  0.1122
  717MOL0     C94554   0.010   5.497   5.360  0.3413 -0.1312  0.3732
  717MOL0     C94555  -0.009   5.362   5.290 -0.8735  0.1930  0.8275
  717MOL0    Cl94556  -0.153   5.377   5.186 -0.5530 -0.3325  0.0654
  717MOL0     C94557   0.854   5.231   5.630 -0.3263  0.3386  0.5147
  717MOL0     C94558   0.976   5.155   5.668 -0.2701 -0.3160  0.2942
  717MOL0     O94559   1.226   5.225   5.989  0.0908  0.0120 -0.9474
  717MOL0     C94560   1.459   5.044   5.793  0.3932  0.0821  1.0841
  717MOL0     C94561   1.599   5.016   5.786  0.6482  0.0714 -0.6803
  717MOL0     N94562   2.274   5.261   6.013  0.1653  0.0578 -0.3234
  717MOL0     N94563   2.394   5.254   6.075  0.0574  0.6904  0.1611
  717MOL0     C94564   3.707   4.769   5.949 -0.7756 -0.4193 -0.1833
  717MOL0     C94565   3.842   4.736   5.947  0.0581 -0.2455  0.0070
  717MOL0     C94566   4.307   4.835   5.947 -1.4415  0.5013  0.0302
  717MOL0     C94567   4.415   4.806   5.861  0.1859  0.1714  0.3613
  717MOL0     C94568   4.541   4.792   5.915 -1.1885 -0.0556 -1.3147
  717MOL0     C94569   4.567   4.829   6.050  0.1547  0.3621  0.1039
  717MOL0     O94570   4.697   4.799   6.088  0.0347 -0.4612  0.1450
  717MOL0     C94571   4.752   4.860   6.209 -0.4822 -1.0279  1.3132
  717MOL0     C94572   4.824   4.999   6.203  0.0843  0.1401 -0.3903
  717MOL0     C94573   4.969   4.989   6.154 -0.0217  0.9636  0.1058
  717MOL0     C94574   5.073   4.976   6.268 -0.4090  0.6079  0.6154
  717MOL0     C94575   5.070   5.084   6.367  0.3383  0.4676 -0.3890
  717MOL0     C94576   5.052   5.179   6.441 -0.2855 -0.9520  0.5316
  717MOL0     C94577   4.464   4.844   6.134  0.0220  0.8926 -0.2672
  717MOL0     C94578   4.330   4.863   6.086 -0.3006  0.2126  0.3043
  717MOL0     H94579   3.977   5.048   5.975 -1.2734  0.2502  2.4517
  717MOL0     H94580   3.733   5.111   5.967 -3.4104 -0.5121  0.4697
  717MOL0     H94581   3.490   5.138   6.000  0.7447  0.2762 -1.5768
  717MOL0     H94582   3.531   5.022   6.128 -0.5642  1.4456  0.2225
  717MOL0     H94583   3.328   4.992   6.176 -0.9790 -0.5373  0.3732
  717MOL0     H94584   3.307   4.902   6.026 -0.6636  0.7523  0.0511
  717MOL0     H94585   3.253   5.138   5.922  1.5772  1.2419  0.3439
  717MOL0     H94586   3.242   5.197   6.084  1.8258 -1.9784  1.9195
  717MOL0     H94587   3.081   4.973   5.967  1.9061  2.0561 -1.4473
  717MOL0     H94588   3.093   5.012   6.144 -1.1169  2.8663  0.8055
  717MOL0     H94589   2.991   5.212   5.936  0.6217 -0.7889 -0.1367
  717MOL0     H94590   2.988   5.232   6.109 -0.5172 -1.0357  1.5053
  717MOL0     H94591   2.835   5.051   6.134  1.6948 -0.5033 -0.7309
  717MOL0     H94592   2.822   5.019   5.963  2.4048  0.3094 -2.0731
  717MOL0     H94593   2.720   5.288   6.082  0.2458  0.2506 -0.1350
  717MOL0     H94594   2.719   5.233   5.908  1.4848  1.0134  0.3767
  717MOL0     H94595   2.582   5.110   6.146  0.2553 -1.1520 -0.0223
  717MOL0     H94596   2.607   5.024   5.992 -1.6068 -1.6228  0.1612
  717MOL0     H94597   2.460   5.125   5.766 -1.6779 -0.3732 -0.2681
  717MOL0     H94598   2.217   5.143   5.706  0.4734 -0.1430  1.0447
  717MOL0     H94599   2.213   5.322   5.737 -0.5904 -0.8281 -2.6392
  717MOL0     H94600   1.993   5.204   5.744  3.2372  0.9843 -0.5197
  717MOL0     H94601   2.037   5.256   5.913 -0.5819  0.2333  0.7954
  717MOL0     H94602   2.048   4.970   5.816 -1.0565 -0.3119  0.5307
  717MOL0     H94603   2.126   5.019   5.964  0.2675 -1.4849 -0.7218
  717MOL0     H94604   1.883   5.126   6.035 -0.6723 -0.7472  1.8838
  717MOL0     H94605   1.879   4.955   6.019  1.3727  0.0494 -0.3001
  717MOL0     H94606   1.686   5.117   6.100  1.4478 -0.2016  0.0473
  717MOL0     H94607   1.467   5.215   6.090  0.3588  0.5170 -1.1695
  717MOL0     H94608   1.128   5.402   5.839 -0.8963  1.5508 -0.4399
  717MOL0     H94609   0.939   5.521   5.802 -3.0997 -2.2131  2.3126
  717MOL0     H94610   0.530   5.468   5.620  1.1093  1.7948  2.1150
  717MOL0     H94611   0.598   5.303   5.628  0.0037  0.8332  0.9520
  717MOL0     H94612   0.663   5.325   5.397  3.5797  0.9455  1.6674
  717MOL0     H94613   0.648   5.502   5.396  5.0998 -1.3808  0.6586
  717MOL0     H94614   0.391   5.353   5.470 -2.4657  1.8383 -1.2986
  717MOL0     H94615   0.444   5.367   5.305 -0.1938  1.9616 -0.8846
  717MOL0     H94616   0.398   5.586   5.513  1.1935  0.8975 -0.5855
  717MOL0     H94617   0.463   5.625   5.360 -1.0877 -1.2939 -1.7115
  717MOL0     H94618   0.270   5.518   5.236  2.3306 -1.9207  0.4493
  717MOL0     H94619   0.242   5.671   5.317 -1.4084 -1.4778 -3.2715
  717MOL0     H94620   0.147   5.567   5.517 -3.2040  3.1949 -1.4389
  717MOL0     H94621   0.177   5.404   5.450  0.7016  1.1543  0.7872
  717MOL0     H94622  -0.073   5.501   5.432 -0.0911 -1.8892  0.0319
  717MOL0     H94623   0.008   5.571   5.280 -1.5397 -1.9175 -1.3546
  717MOL0     H94624  -0.010   5.269   5.348  0.8260 -1.5789 -1.7387
  717MOL0     H94625   0.073   5.353   5.218 -3.2395 -0.3825 -1.9918
  717MOL0     H94626   0.780   5.177   5.571  1.1883 -0.9986 -0.2548
  717MOL0     H94627   0.986   5.052   5.634  2.8490 -0.9599  2.7629
  717MOL0     H94628   1.415   5.030   5.695 -0.2201  4.7353  0.4665
  717MOL0     H94629   1.642   4.971   5.697  0.6814  1.0599 -1.1845
  717MOL0     H94630   3.632   4.693   5.932 -0.2617 -0.4724 -2.6442
  717MOL0     H94631   3.874   4.632   5.936  1.3311  0.0123  1.0803
  717MOL0     H94632   4.388   4.784   5.758 -1.1686  0.3049  0.6673
  717MOL0     H94633   4.622   4.780   5.843  1.7821  1.7108  1.4403
  717MOL0     H94634   4.830   4.790   6.241  0.1478 -1.6715 -1.4170
  717MOL0     H94635   4.691   4.854   6.300  0.9537  2.3514  2.6702
  717MOL0     H94636   4.762   5.060   6.137 -3.4060 -1.3505  1.2499
  717MOL0     H94637   4.814   5.035   6.306 -1.8197 -0.8659 -0.1717
  717MOL0     H94638   5.003   5.072   6.092  3.7995  0.9284  1.8850
  717MOL0     H94639   4.975   4.904   6.086  0.5076  0.7649  0.3945
  717MOL0     H94640   5.043   4.895   6.335 -1.3240  0.7222  0.3544
  717MOL0     H94641   5.171   4.971   6.220 -0.5782  3.4114 -0.2308
  717MOL0     H94642   5.025   5.256   6.510  1.2970  0.3286 -0.2019
  717MOL0     H94643   4.479   4.864   6.239  0.3187 -1.5070  0.2014
  717MOL0     H94644   4.248   4.884   6.155 -2.2796 -0.6912 -1.6355
  718MOL0     O94645  10.609   6.695  10.670 -0.4946 -0.2234  0.1756
  718MOL0     C94646  10.612   6.649  10.559  0.1254  0.5672 -0.5266
  718MOL0     O94647  10.503   6.637  10.475 -0.7501 -0.6751 -0.0770
  718MOL0     C94648  10.382   6.688  10.501 -0.3669 -0.6823 -0.2068
  718MOL0     C94649  10.308   6.683  10.627  0.3680  0.3962  0.1468
  718MOL0     C94650  10.177   6.723  10.636  0.7643  0.1160 -0.8946
  718MOL0     C94651  10.108   6.783  10.531  0.0889  0.3660  0.2219
  718MOL0     O94652   9.977   6.831  10.533 -0.4978 -0.4604 -0.4582
  718MOL0     C94653   9.886   6.789  10.633  0.2067 -0.0621 -0.2897
  718MOL0     C94654   9.774   6.891  10.622  0.1380 -0.6790  1.0344
  718MOL0     C94655   9.645   6.847  10.683  1.0797 -0.7046 -0.0459
  718MOL0     C94656   9.534   6.947  10.670  0.7249  0.3696  0.1333
  718MOL0     C94657   9.431   6.907  10.768  1.1649  0.2172 -0.0304
  718MOL0     C94658   9.446   6.989  10.892 -0.3370  0.0643  0.1510
  718MOL0     C94659   9.379   6.915  11.011  0.0343 -0.1825 -0.3255
  718MOL0     C94660   9.488   6.819  11.071  0.4855 -0.1013 -0.1809
  718MOL0     N94661   9.421   6.739  11.180 -0.0307  0.3309 -0.2145
  718MOL0     C94662   9.449   6.597  11.188 -0.0597 -0.0675  0.2888
  718MOL0     C94663   9.368   6.554  11.285  0.3714  0.7906  0.0233
  718MOL0     C94664   9.363   6.410  11.334  0.0147  0.0855  0.3224
  718MOL0     C94665   9.302   6.315  11.236  0.5716  0.5354 -0.1926
  718MOL0     C94666   9.151   6.319  11.237 -0.0333  0.6335 -0.3146
  718MOL0     C94667   9.096   6.220  11.133 -0.5346  0.0261 -0.7218
  718MOL0     O94668   9.103   6.079  11.186 -0.0286 -0.5579  1.0198
  718MOL0     C94669   9.016   6.040  11.288  0.4409  0.9019  0.3561
  718MOL0     C94670   8.903   6.103  11.339  0.2010  0.0928  0.6530
  718MOL0     C94671   8.820   6.043  11.432  0.4823  0.0879  0.4030
  718MOL0     C94672   8.853   5.920  11.490 -1.0302 -0.2909 -0.3898
  718MOL0     C94673   8.755   5.858  11.577  0.2719  0.0274 -0.7392
  718MOL0     O94674   8.662   5.932  11.631 -0.0137  0.0272 -0.1792
  718MOL0     C94675   8.546   5.876  11.671 -0.4995 -0.4183  0.5586
  718MOL0     C94676   8.487   5.758  11.622 -0.2158 -0.7500 -0.5881
  718MOL0     C94677   8.356   5.725  11.666 -0.4882 -0.0109  0.7494
  718MOL0     C94678   8.286   5.806  11.758 -0.0845  0.5535 -0.3767
  718MOL0     O94679   8.155   5.789  11.787 -0.2258 -0.0763 -0.1438
  718MOL0     C94680   8.108   5.649  11.784 -0.5736 -0.7048 -0.0026
  718MOL0     C94681   7.998   5.645  11.888  0.4603  0.0726 -0.0366
  718MOL0     C94682   7.865   5.701  11.816 -0.3529  1.2252 -0.2410
  718MOL0     C94683   7.760   5.744  11.919 -0.7647 -0.7607 -0.3205
  718MOL0     C94684   7.627   5.796  11.855  0.0217 -0.3538 -0.5737
  718MOL0     C94685   7.500   5.769  11.940 -0.9973  0.4746  0.3082
  718MOL0     C94686   7.372   5.802  11.870 -0.2033  0.1388  0.0514
  718MOL0     C94687   7.266   5.729  11.953  0.0945 -0.1335 -0.0154
  718MOL0    Cl94688   7.116   5.720  11.863  0.1451  0.1196 -0.0146
  718MOL0     C94689   8.355   5.910  11.825 -0.5862 -0.6407 -0.3946
  718MOL0     C94690   8.480   5.948  11.774 -0.0905  0.2909 -0.4494
  718MOL0     O94691   8.766   5.737  11.584  0.2231  0.1131 -0.6135
  718MOL0     C94692   8.979   5.853  11.450 -0.1271 -1.3651 -0.2160
  718MOL0     C94693   9.042   5.917  11.347  0.1940 -0.2939  0.0671
  718MOL0     N94694   9.313   6.659  11.347  0.1395  0.0344  0.8418
  718MOL0     N94695   9.336   6.773  11.284 -0.0924  0.1848 -0.2890
  718MOL0     C94696  10.185   6.809  10.415 -0.6705  1.1846  0.3813
  718MOL0     C94697  10.316   6.753  10.392 -0.5533  0.1365  0.2830
  718MOL0     C94698  10.728   6.572  10.514 -0.0504  0.1876  0.1914
  718MOL0     C94699  10.837   6.563  10.601 -0.3463 -0.5633 -0.4019
  718MOL0     C94700  10.957   6.521  10.568  0.9913  0.0479  0.4620
  718MOL0     C94701  10.967   6.458  10.443 -0.2618 -0.3882  0.3064
  718MOL0     O94702  11.096   6.403  10.422  0.4789 -0.3675 -0.4261
  718MOL0     C94703  11.149   6.386  10.289  0.0829  0.5819  0.3314
  718MOL0     C94704  11.205   6.239  10.273 -0.0543  0.4875  0.3190
  718MOL0     C94705  11.302   6.182  10.369 -0.3464  0.1760  0.6812
  718MOL0     C94706  11.409   6.101  10.302 -1.2166  0.7212 -0.4542
  718MOL0     C94707  11.511   6.061  10.399 -0.4934 -0.0611  0.2999
  718MOL0     C94708  11.599   6.044  10.491 -0.0073  0.5560 -0.1271
  718MOL0     C94709  10.858   6.437  10.358  1.1433 -0.1568  0.5486
  718MOL0     C94710  10.735   6.500  10.399 -0.3903 -0.1199  0.0210
  718MOL0     H94711  10.353   6.631  10.711  0.9376 -2.5422 -1.8232
  718MOL0     H94712  10.115   6.698  10.722  0.3832  0.0275 -1.1964
  718MOL0     H94713   9.928   6.788  10.734  2.8553 -1.5661 -1.3094
  718MOL0     H94714   9.856   6.685  10.615 -1.9300  0.7694 -2.0348
  718MOL0     H94715   9.750   6.905  10.516 -0.7635  1.3440  1.4544
  718MOL0     H94716   9.809   6.991  10.649 -1.3707  0.2177 -0.1529
  718MOL0     H94717   9.661   6.815  10.786  0.8794 -3.0725 -0.7082
  718MOL0     H94718   9.604   6.766  10.623 -0.9100  2.2607 -3.1050
  718MOL0     H94719   9.571   7.049  10.683 -1.2738  1.0760  0.7188
  718MOL0     H94720   9.483   6.950  10.574  0.1516  1.2817  0.4519
  718MOL0     H94721   9.438   6.799  10.788  0.7802  0.7470  3.5212
  718MOL0     H94722   9.327   6.925  10.739  1.2842  2.7965  0.9022
  718MOL0     H94723   9.390   7.083  10.891 -1.0139 -0.3215  0.5685
  718MOL0     H94724   9.549   7.012  10.919 -0.9840  2.5187  0.7810
  718MOL0     H94725   9.355   6.996  11.081  0.6908 -0.4834  0.2636
  718MOL0     H94726   9.290   6.865  10.972  0.0795  0.2493 -0.9866
  718MOL0     H94727   9.564   6.885  11.115 -0.0153 -0.0490  0.6172
  718MOL0     H94728   9.539   6.754  11.000 -0.2901  1.4970 -2.2952
  718MOL0     H94729   9.513   6.543  11.120 -1.0186  1.8673 -2.3085
  718MOL0     H94730   9.313   6.411  11.431 -1.8007 -0.5803 -0.5552
  718MOL0     H94731   9.464   6.382  11.363  0.5205  0.2646 -1.1903
  718MOL0     H94732   9.341   6.213  11.248  1.4999  0.6236 -2.1011
  718MOL0     H94733   9.340   6.351  11.140 -3.2547  1.7428 -1.4240
  718MOL0     H94734   9.115   6.307  11.340 -0.8200 -2.2930 -0.8460
  718MOL0     H94735   9.106   6.415  11.211 -2.5096  0.3459  2.3528
  718MOL0     H94736   9.162   6.230  11.046  2.0383  2.0240  1.2780
  718MOL0     H94737   8.995   6.241  11.096 -0.2000  0.1798 -1.5706
  718MOL0     H94738   8.881   6.206  11.311 -3.5136 -0.4845  1.0113
  718MOL0     H94739   8.731   6.090  11.472 -0.8708 -0.6315 -1.6209
  718MOL0     H94740   8.538   5.705  11.543  0.6445  1.4639 -1.6021
  718MOL0     H94741   8.314   5.634  11.625  1.9674 -1.5514  1.4595
  718MOL0     H94742   8.183   5.572  11.805  1.4236  0.8719 -1.0603
  718MOL0     H94743   8.058   5.615  11.693 -0.2981  1.5340 -1.0399
  718MOL0     H94744   8.024   5.700  11.979  0.2062 -2.6322  1.7615
  718MOL0     H94745   7.989   5.539  11.910 -0.1913 -0.1856 -1.4206
  718MOL0     H94746   7.820   5.636  11.741 -0.3852 -0.8169  1.4227
  718MOL0     H94747   7.889   5.789  11.756  0.8344  0.0426 -1.5876
  718MOL0     H94748   7.736   5.654  11.976  0.1724 -0.8150  0.0031
  718MOL0     H94749   7.800   5.817  11.989 -2.2959  0.2576 -0.4544
  718MOL0     H94750   7.618   5.745  11.759  2.8484 -0.0906 -1.0654
  718MOL0     H94751   7.640   5.903  11.842 -1.4828 -0.2890 -1.7540
  718MOL0     H94752   7.503   5.811  12.041  1.8716  0.9090  0.1453
  718MOL0     H94753   7.505   5.661  11.955  0.6740  0.3022 -1.0751
  718MOL0     H94754   7.358   5.911  11.877 -2.2100 -0.1080  0.1938
  718MOL0     H94755   7.371   5.761  11.768 -0.2205  1.2813 -0.4355
  718MOL0     H94756   7.255   5.779  12.049  0.5842 -1.8869  1.0038
  718MOL0     H94757   7.303   5.629  11.978  0.2495 -0.0575  0.0570
  718MOL0     H94758   8.307   5.976  11.896  1.6499  0.7216 -0.0322
  718MOL0     H94759   8.536   6.034  11.808  1.4009 -0.2910 -1.3099
  718MOL0     H94760   9.006   5.754  11.484 -3.9769 -1.7052  2.4519
  718MOL0     H94761   9.125   5.867  11.297  0.2496  0.2239 -0.3708
  718MOL0     H94762  10.131   6.854  10.332 -1.8406  0.3409  0.6744
  718MOL0     H94763  10.366   6.750  10.296  0.1060 -1.2843  0.6404
  718MOL0     H94764  10.825   6.605  10.700  1.3336 -3.3051  1.0769
  718MOL0     H94765  11.042   6.520  10.635 -0.6008  0.0024  2.5810
  718MOL0     H94766  11.212   6.465  10.249  0.4749  0.5848  0.9470
  718MOL0     H94767  11.066   6.389  10.218 -1.3290  0.5230  1.9094
  718MOL0     H94768  11.121   6.169  10.268 -1.9487  2.7240 -1.1764
  718MOL0     H94769  11.249   6.228  10.173 -0.2841 -0.4264  0.3142
  718MOL0     H94770  11.252   6.125  10.449 -0.2878  0.3998  0.8803
  718MOL0     H94771  11.356   6.258  10.427  1.4041  0.5934 -1.3572
  718MOL0     H94772  11.374   6.004  10.266  0.9574 -0.8491  1.3454
  718MOL0     H94773  11.460   6.151  10.219  3.5437  1.4725  2.5355
  718MOL0     H94774  11.667   6.016  10.568  2.4503  2.7725 -1.3536
  718MOL0     H94775  10.864   6.379  10.266 -1.4370 -0.3720  0.4497
  718MOL0     H94776  10.650   6.490  10.331  0.5839  3.5763 -2.0057
  719MOL0     O94777   0.602   7.172   6.202  0.0182  0.3185  0.2879
  719MOL0     C94778   0.598   7.122   6.316 -0.1260  0.1002  0.5219
  719MOL0     O94779   0.483   7.100   6.392 -0.2944 -0.9804 -0.4154
  719MOL0     C94780   0.369   7.171   6.357  0.2596 -0.0961 -0.9858
  719MOL0     C94781   0.364   7.301   6.302  0.5634  0.1010 -0.4229
  719MOL0     C94782   0.241   7.368   6.283  0.7254  0.2509 -0.0462
  719MOL0     C94783   0.120   7.316   6.308  0.6362  0.9615 -0.3448
  719MOL0     O94784   0.001   7.381   6.267  0.0237 -0.2949  0.4065
  719MOL0     C94785  -0.127   7.343   6.322 -0.0875 -0.2661  0.3104
  719MOL0     C94786  -0.238   7.415   6.250  0.1885 -0.2088  0.1561
  719MOL0     C94787  -0.365   7.333   6.274 -0.1448 -0.1490  0.3600
  719MOL0     C94788  -0.422   7.327   6.417 -1.0130 -0.4064  0.3410
  719MOL0     C94789  -0.547   7.246   6.450  0.0866  0.0090  0.5726
  719MOL0     C94790  -0.659   7.263   6.351 -0.0665  0.4725  0.0111
  719MOL0     C94791  -0.784   7.251   6.430  1.4045 -0.3778 -0.2943
  719MOL0     C94792  -0.910   7.267   6.342 -0.0269 -0.0702 -0.8032
  719MOL0     N94793  -1.023   7.186   6.390  0.1023 -0.5750 -0.3303
  719MOL0     C94794  -1.029   7.048   6.399 -0.1752  0.1748  0.8863
  719MOL0     C94795  -1.156   7.023   6.444 -0.1858  0.1791 -0.5841
  719MOL0     C94796  -1.225   6.888   6.465  0.4130 -0.9665 -1.7098
  719MOL0     C94797  -1.375   6.890   6.420 -0.0290  0.9661 -0.4119
  719MOL0     C94798  -1.429   6.745   6.420  0.1908 -0.1333 -0.5741
  719MOL0     C94799  -1.588   6.740   6.393  0.4742  0.5966 -0.8095
  719MOL0     O94800  -1.646   6.808   6.512  0.0743  0.6956  0.0495
  719MOL0     C94801  -1.742   6.751   6.588  0.9391  0.2504  0.8953
  719MOL0     C94802  -1.786   6.616   6.576 -0.6904 -0.1701  0.7369
  719MOL0     C94803  -1.882   6.565   6.667  0.2914  0.1245 -0.1592
  719MOL0     C94804  -1.924   6.637   6.782 -0.3184  0.6017 -0.8592
  719MOL0     C94805  -2.042   6.593   6.867 -0.8190  0.3676 -0.2256
  719MOL0     O94806  -2.111   6.480   6.833 -0.6433  0.9346  0.0870
  719MOL0     C94807  -2.208   6.435   6.911  0.5066 -0.3496 -0.0191
  719MOL0     C94808  -2.320   6.375   6.848 -0.0646  0.1317  0.3061
  719MOL0     C94809  -2.425   6.312   6.918 -0.3460  0.2475  0.7393
  719MOL0     C94810  -2.408   6.292   7.057 -0.5534  0.4712 -0.1644
  719MOL0     O94811  -2.491   6.214   7.139  0.1171 -0.4537  0.1671
  719MOL0     C94812  -2.613   6.173   7.074 -0.0128  0.5216 -0.4264
  719MOL0     C94813  -2.713   6.117   7.181 -1.2255 -0.1591  0.9327
  719MOL0     C94814  -2.716   5.963   7.176  0.5937  0.7572  0.6970
  719MOL0     C94815  -2.826   5.908   7.274  0.6159  0.1311  0.4019
  719MOL0     C94816  -2.970   5.897   7.220  0.2678 -0.0823  1.1681
  719MOL0     C94817  -2.977   5.805   7.101 -0.2580 -0.2376  0.4142
  719MOL0     C94818  -2.993   5.877   6.971  0.2119 -0.9949  0.1883
  719MOL0     C94819  -2.923   5.806   6.867 -0.3944 -0.7084  0.4618
  719MOL0    Cl94820  -2.998   5.642   6.838  0.8350 -0.1122  0.1553
  719MOL0     C94821  -2.295   6.342   7.118  0.4565 -0.1814  0.3794
  719MOL0     C94822  -2.195   6.416   7.051  0.4645  0.2856 -0.7095
  719MOL0     O94823  -2.069   6.673   6.959 -0.0788 -0.4936 -0.3316
  719MOL0     C94824  -1.856   6.757   6.804 -0.8781 -0.4189  0.4935
  719MOL0     C94825  -1.769   6.818   6.707 -0.1445  0.7654 -0.4099
  719MOL0     N94826  -1.214   7.147   6.477 -0.3836 -0.1415 -0.0806
  719MOL0     N94827  -1.135   7.244   6.442 -0.2295  0.2957 -0.3260
  719MOL0     C94828   0.116   7.188   6.364 -0.1048 -0.0650  0.1837
  719MOL0     C94829   0.242   7.114   6.389  1.0062 -0.5489 -0.2058
  719MOL0     C94830   0.722   7.068   6.376  0.1362  0.1221 -0.0548
  719MOL0     C94831   0.724   7.037   6.508 -0.5121  0.7460  0.5377
  719MOL0     C94832   0.835   6.983   6.567  0.5396 -0.3419 -0.6914
  719MOL0     C94833   0.945   6.947   6.493 -0.3955  0.2088 -0.4068
  719MOL0     O94834   1.052   6.892   6.568  0.5164  0.1295  0.3389
  719MOL0     C94835   1.180   6.864   6.507  0.4373  0.7647  0.7507
  719MOL0     C94836   1.288   6.840   6.611 -0.5927 -0.5035 -0.1516
  719MOL0     C94837   1.295   6.952   6.711 -0.2728 -0.8466 -0.7530
  719MOL0     C94838   1.358   7.076   6.664 -0.2013 -0.4609  0.0576
  719MOL0     C94839   1.500   7.085   6.664 -0.5894 -0.0119 -0.2933
  719MOL0     C94840   1.622   7.090   6.670  0.3055  0.8274  0.0097
  719MOL0     C94841   0.948   6.983   6.359 -0.1657  0.1861  0.6780
  719MOL0     C94842   0.838   7.041   6.301  0.1206 -0.6990  0.2660
  719MOL0     H94843   0.446   7.359   6.261  0.3723 -0.6382 -1.9166
  719MOL0     H94844   0.239   7.472   6.252  1.7354  0.5737  0.9298
  719MOL0     H94845  -0.132   7.372   6.427 -1.6009 -1.1591  0.5126
  719MOL0     H94846  -0.137   7.235   6.309  2.9833 -0.3956 -2.2602
  719MOL0     H94847  -0.212   7.420   6.144  3.4232 -4.4389  0.4994
  719MOL0     H94848  -0.245   7.519   6.282 -0.3900  0.2459 -1.3290
  719MOL0     H94849  -0.368   7.231   6.236 -1.2104 -1.1892  2.9978
  719MOL0     H94850  -0.440   7.378   6.208 -0.5943 -1.6582 -0.2055
  719MOL0     H94851  -0.345   7.283   6.481  0.2472  0.6212 -0.4357
  719MOL0     H94852  -0.438   7.423   6.466 -0.5106  0.4734 -1.1743
  719MOL0     H94853  -0.583   7.268   6.551 -1.2274  2.2209 -0.3009
  719MOL0     H94854  -0.522   7.141   6.435 -0.6042 -0.1799  0.6905
  719MOL0     H94855  -0.639   7.185   6.276  0.7383  0.6330  0.0505
  719MOL0     H94856  -0.653   7.362   6.305  2.1707 -0.4255 -1.8776
  719MOL0     H94857  -0.789   7.149   6.471  0.9321 -0.1240  0.3023
  719MOL0     H94858  -0.794   7.322   6.513  0.6584 -0.3905 -0.3707
  719MOL0     H94859  -0.899   7.237   6.237 -0.4689  1.1832 -1.2165
  719MOL0     H94860  -0.943   7.370   6.351  3.6073  1.3778 -2.1303
  719MOL0     H94861  -0.959   6.978   6.355 -1.7665  0.7045 -2.8231
  719MOL0     H94862  -1.220   6.861   6.571 -1.8029  0.3013 -1.2322
  719MOL0     H94863  -1.172   6.812   6.408  2.3780 -0.6273 -0.4371
  719MOL0     H94864  -1.389   6.930   6.319 -2.4064  0.2718 -0.4219
  719MOL0     H94865  -1.428   6.958   6.488 -1.8788 -0.9345  0.1763
  719MOL0     H94866  -1.370   6.681   6.354 -0.2552 -2.8541  1.4629
  719MOL0     H94867  -1.408   6.713   6.522  1.2017 -1.4855 -1.1793
  719MOL0     H94868  -1.622   6.637   6.379  0.1513  0.5551  0.1712
  719MOL0     H94869  -1.618   6.799   6.307  0.1938  3.5515  1.1809
  719MOL0     H94870  -1.757   6.544   6.501  2.3577  0.1531  1.4644
  719MOL0     H94871  -1.916   6.464   6.647 -0.4031  0.2109  0.5458
  719MOL0     H94872  -2.336   6.383   6.741 -2.7468  1.1086  0.6984
  719MOL0     H94873  -2.517   6.282   6.869  0.6704  0.9049 -1.7321
  719MOL0     H94874  -2.594   6.103   6.991 -2.0761 -0.5815 -0.0404
  719MOL0     H94875  -2.651   6.264   7.027  0.1863  0.0200 -1.6020
  719MOL0     H94876  -2.809   6.163   7.159 -1.3928 -0.7315  0.4404
  719MOL0     H94877  -2.679   6.159   7.276  3.1110  0.9041 -0.8512
  719MOL0     H94878  -2.618   5.927   7.210  0.8441  0.2292 -0.5445
  719MOL0     H94879  -2.736   5.924   7.076 -2.9959  4.2474 -0.1953
  719MOL0     H94880  -2.802   5.809   7.312  1.1097 -0.6889 -1.9231
  719MOL0     H94881  -2.833   5.985   7.351  1.1941  1.7565 -1.1019
  719MOL0     H94882  -3.001   5.999   7.193 -0.0642 -0.1437  1.3149
  719MOL0     H94883  -3.036   5.860   7.298 -0.0042  1.4912  1.7240
  719MOL0     H94884  -3.070   5.750   7.115  0.3181 -1.2963  0.1411
  719MOL0     H94885  -2.894   5.734   7.107  0.6399  0.6497 -0.7765
  719MOL0     H94886  -3.093   5.907   6.939  0.9717  3.0310  1.0581
  719MOL0     H94887  -2.945   5.976   6.976 -1.8170  0.0122  4.3561
  719MOL0     H94888  -2.817   5.791   6.885  0.3506  1.0714 -1.9814
  719MOL0     H94889  -2.930   5.862   6.773  1.3994  3.0311  2.3299
  719MOL0     H94890  -2.264   6.320   7.219 -0.5038 -2.0725  0.3021
  719MOL0     H94891  -2.102   6.450   7.094  0.7296 -0.9324 -0.2870
  719MOL0     H94892  -1.871   6.826   6.887  0.4287  2.3989 -1.4474
  719MOL0     H94893  -1.711   6.906   6.733 -1.9835  1.8889  0.0717
  719MOL0     H94894   0.023   7.142   6.395  0.2913  0.2634  1.9805
  719MOL0     H94895   0.230   7.019   6.439 -2.3446  0.0725  0.4270
  719MOL0     H94896   0.638   7.059   6.571  1.0312  1.5053  2.4999
  719MOL0     H94897   0.821   6.943   6.667  2.2688 -1.7257 -0.9387
  719MOL0     H94898   1.222   6.938   6.438  1.9761 -1.1806 -0.5135
  719MOL0     H94899   1.172   6.778   6.441 -1.5207  1.2116  0.3512
  719MOL0     H94900   1.254   6.751   6.665 -0.5302 -0.5009 -0.1082
  719MOL0     H94901   1.386   6.823   6.567 -0.6928  1.7867 -1.4295
  719MOL0     H94902   1.342   6.909   6.800 -0.9513  2.0989  1.1505
  719MOL0     H94903   1.191   6.976   6.736 -0.3245  0.5272 -2.1194
  719MOL0     H94904   1.315   7.089   6.565 -0.6822 -1.0458  0.1855
  719MOL0     H94905   1.332   7.167   6.720  2.7190 -0.3378  1.3926
  719MOL0     H94906   1.727   7.107   6.688  0.3951 -0.4083  0.7367
  719MOL0     H94907   1.030   6.953   6.294 -1.1973  1.2174 -1.1667
  719MOL0     H94908   0.837   7.060   6.194  0.7566  2.1222  0.6808
  720MOL0     O94909   8.946   3.453   5.233 -0.2941  0.1594  0.1572
  720MOL0     C94910   9.001   3.365   5.172  0.8200 -0.5482 -0.7795
  720MOL0     O94911   8.934   3.275   5.088 -0.1657 -0.0089 -0.4875
  720MOL0     C94912   8.801   3.301   5.076  0.0263 -0.6522 -0.7750
  720MOL0     C94913   8.747   3.326   4.948 -0.0898 -0.3400 -0.2379
  720MOL0     C94914   8.612   3.359   4.920  0.8644 -0.0819  0.1367
  720MOL0     C94915   8.527   3.352   5.032  1.0186 -0.0206  0.7777
  720MOL0     O94916   8.392   3.385   5.003 -0.2222  0.6233 -0.1044
  720MOL0     C94917   8.287   3.281   5.027 -0.1468 -0.1196  0.3723
  720MOL0     C94918   8.288   3.166   4.927 -1.4817  0.3496 -0.4966
  720MOL0     C94919   8.202   3.043   4.960  0.1798  0.2425 -0.1979
  720MOL0     C94920   8.057   3.088   4.996  0.6208  0.0326 -0.2245
  720MOL0     C94921   7.966   2.967   5.003 -0.1194  0.0010  0.6224
  720MOL0     C94922   7.989   2.895   5.135 -0.0812 -0.0201 -0.4922
  720MOL0     C94923   7.896   2.780   5.159  0.0932  0.0444  0.6718
  720MOL0     C94924   7.891   2.688   5.035  0.3373  0.5978 -0.1357
  720MOL0     N94925   7.816   2.563   5.061 -0.7386  0.4590  0.3835
  720MOL0     C94926   7.680   2.546   5.052 -0.7210  1.0407  0.3056
  720MOL0     C94927   7.663   2.432   5.126 -1.4075  0.5420  0.0805
  720MOL0     C94928   7.531   2.364   5.152  0.3236 -0.4417  0.3386
  720MOL0     C94929   7.420   2.388   5.046  0.7428  0.2550 -0.4881
  720MOL0     C94930   7.348   2.528   5.077 -0.5296  0.2409  0.2200
  720MOL0     C94931   7.236   2.565   4.983 -0.0664 -0.1366 -0.2014
  720MOL0     O94932   7.132   2.475   4.970 -1.1863  0.7290  0.0969
  720MOL0     C94933   7.010   2.507   4.913  0.5787  0.0714 -0.1505
  720MOL0     C94934   6.894   2.461   4.970 -0.5126 -0.2999  0.7574
  720MOL0     C94935   6.772   2.506   4.929 -0.8331  0.2472 -0.4405
  720MOL0     C94936   6.761   2.605   4.826 -0.1637 -0.4540 -0.1611
  720MOL0     C94937   6.626   2.650   4.783  0.8197  0.8512 -0.5172
  720MOL0     O94938   6.522   2.615   4.871 -0.0847 -0.4168  0.2178
  720MOL0     C94939   6.397   2.654   4.841 -0.2291 -0.0446  0.4092
  720MOL0     C94940   6.361   2.787   4.853 -0.2620 -0.5262 -0.1617
  720MOL0     C94941   6.223   2.821   4.829 -0.2368 -0.8492 -0.3682
  720MOL0     C94942   6.132   2.718   4.796  0.8314 -0.0284  0.9445
  720MOL0     O94943   5.997   2.748   4.772  0.1642 -0.8805  0.1434
  720MOL0     C94944   5.966   2.737   4.631 -0.2820  0.0677 -0.9153
  720MOL0     C94945   5.812   2.736   4.607 -0.1317 -0.4281 -0.0283
  720MOL0     C94946   5.752   2.609   4.660  0.5582 -0.2206  1.3196
  720MOL0     C94947   5.599   2.617   4.623 -0.2270  0.1102 -0.2576
  720MOL0     C94948   5.515   2.504   4.682  0.2663  0.9836 -0.3261
  720MOL0     C94949   5.566   2.369   4.628  0.4824 -0.2710 -0.8863
  720MOL0     C94950   5.488   2.256   4.688  0.2681  0.0384  0.0768
  720MOL0     C94951   5.528   2.123   4.620 -0.8088 -0.4088  0.0352
  720MOL0    Cl94952   5.692   2.090   4.646 -0.5471 -0.0920  0.3710
  720MOL0     C94953   6.171   2.587   4.796  0.1424  0.4655  0.4710
  720MOL0     C94954   6.305   2.554   4.817 -0.6374  0.1417  1.0423
  720MOL0     O94955   6.611   2.718   4.678 -0.3133  0.4619 -0.1055
  720MOL0     C94956   6.882   2.663   4.775  1.2272  0.8112 -0.0815
  720MOL0     C94957   7.005   2.612   4.819  0.3337 -0.6363  0.1019
  720MOL0     N94958   7.782   2.380   5.174 -0.8256  0.1434 -0.0837
  720MOL0     N94959   7.870   2.459   5.135 -0.0494 -0.1220  0.1651
  720MOL0     C94960   8.571   3.312   5.163  0.3847 -0.1957 -0.3746
  720MOL0     C94961   8.709   3.290   5.187  0.4161  0.5662 -0.1692
  720MOL0     C94962   9.144   3.349   5.193 -0.3787 -0.3174  0.6970
  720MOL0     C94963   9.211   3.257   5.114 -0.4586  0.0628 -0.0040
  720MOL0     C94964   9.341   3.231   5.129 -0.4199 -0.1715 -0.0957
  720MOL0     C94965   9.415   3.293   5.226 -0.1334 -0.0234  0.5045
  720MOL0     O94966   9.547   3.275   5.229 -0.6822  0.0094 -0.3808
  720MOL0     C94967   9.622   3.369   5.316  0.1116 -0.7181  0.3598
  720MOL0     C94968   9.770   3.323   5.315  1.2186  0.3499 -0.0538
  720MOL0     C94969   9.800   3.168   5.286 -1.3531  0.4260  0.7208
  720MOL0     C94970   9.958   3.140   5.302 -1.1163  0.3526 -0.3807
  720MOL0     C94971  10.036   3.195   5.188  0.0882  0.3390  0.6040
  720MOL0     C94972  10.090   3.257   5.100  0.2037 -0.4168  0.0826
  720MOL0     C94973   9.350   3.380   5.320 -0.2733  0.5381  0.6516
  720MOL0     C94974   9.214   3.413   5.302  0.4510 -0.3691  0.2045
  720MOL0     H94975   8.823   3.315   4.871 -0.5462 -1.3965 -0.5569
  720MOL0     H94976   8.580   3.387   4.820 -1.7202 -1.7619  0.3941
  720MOL0     H94977   8.191   3.334   5.021  0.4809  0.9640 -0.6186
  720MOL0     H94978   8.303   3.239   5.127  1.4982  0.1317  0.2419
  720MOL0     H94979   8.392   3.133   4.921 -1.1242  0.9284  1.6705
  720MOL0     H94980   8.265   3.203   4.826 -0.4643  1.0621 -0.4737
  720MOL0     H94981   8.239   2.978   5.040 -2.9867  2.7469  3.6663
  720MOL0     H94982   8.189   2.980   4.871 -1.3581 -0.3154  0.3840
  720MOL0     H94983   8.045   3.150   5.085 -0.6967 -0.4751 -0.0287
  720MOL0     H94984   8.019   3.153   4.917  1.4469  1.3355  0.4171
  720MOL0     H94985   7.981   2.898   4.920 -3.0203  0.4451 -0.3692
  720MOL0     H94986   7.860   2.993   4.997 -0.4404 -1.4425 -0.3876
  720MOL0     H94987   7.987   2.959   5.224 -2.1571 -1.8737  0.8847
  720MOL0     H94988   8.083   2.841   5.124 -0.2671 -0.9856  2.0245
  720MOL0     H94989   7.937   2.718   5.240  0.1155 -3.1475 -1.5796
  720MOL0     H94990   7.798   2.817   5.189  0.4703  0.3415  1.5922
  720MOL0     H94991   7.995   2.654   5.022  0.1377 -1.4638  2.6721
  720MOL0     H94992   7.838   2.731   4.950  0.0629 -0.9058 -0.7582
  720MOL0     H94993   7.603   2.605   5.002 -2.1215  0.7958  2.0893
  720MOL0     H94994   7.493   2.383   5.253 -2.1652  2.0202 -0.9475
  720MOL0     H94995   7.558   2.258   5.143 -2.4985 -1.2466  0.2490
  720MOL0     H94996   7.346   2.310   5.063  3.7667 -2.2730  2.4124
  720MOL0     H94997   7.469   2.385   4.949 -1.3991 -0.7189 -1.6227
  720MOL0     H94998   7.314   2.511   5.179  0.1668 -2.9894  0.0224
  720MOL0     H94999   7.424   2.606   5.062  0.1767 -0.7125 -1.6044
  720MOL0     H95000   7.270   2.590   4.882 -2.0619  3.1798 -0.2076
  720MOL0     H95001   7.200   2.662   5.020 -1.1625  0.1527 -1.9273
  720MOL0     H95002   6.895   2.386   5.049 -1.5310  1.3657  2.4221
  720MOL0     H95003   6.685   2.469   4.982 -0.4702  0.5901  0.4266
  720MOL0     H95004   6.436   2.856   4.890 -1.7912  0.9732  0.2730
  720MOL0     H95005   6.187   2.922   4.842 -3.0848 -1.7640 -0.5197
  720MOL0     H95006   6.016   2.649   4.588  4.1781  0.9538  1.8215
  720MOL0     H95007   6.010   2.824   4.582 -3.4785  3.2256  1.3001
  720MOL0     H95008   5.804   2.752   4.499 -0.1942  0.2902  0.0772
  720MOL0     H95009   5.765   2.818   4.663  0.9582 -0.1951  0.5748
  720MOL0     H95010   5.763   2.591   4.767 -0.6286  0.3320  1.5501
  720MOL0     H95011   5.786   2.528   4.595 -4.6482 -0.8873 -1.1011
  720MOL0     H95012   5.560   2.713   4.659  3.5775  1.4672  0.8231
  720MOL0     H95013   5.589   2.612   4.515  1.5716 -0.9397 -0.4215
  720MOL0     H95014   5.410   2.516   4.657  0.4021 -1.1506 -2.2683
  720MOL0     H95015   5.518   2.482   4.789 -0.0035 -0.4656 -0.6082
  720MOL0     H95016   5.668   2.334   4.646 -0.2857 -3.3814 -1.9570
  720MOL0     H95017   5.559   2.379   4.519  1.1912  3.0031 -0.7525
  720MOL0     H95018   5.508   2.257   4.796  1.4666 -0.4005 -0.1230
  720MOL0     H95019   5.379   2.259   4.677  0.1354  0.6397  1.3462
  720MOL0     H95020   5.500   2.126   4.514  0.2595  0.7943 -0.2472
  720MOL0     H95021   5.479   2.037   4.667  1.1331 -2.7133 -1.8685
  720MOL0     H95022   6.106   2.508   4.760  1.3961  0.6594 -2.4507
  720MOL0     H95023   6.348   2.455   4.809 -0.0381  0.3365  1.7390
  720MOL0     H95024   6.885   2.745   4.704 -0.1935 -0.8526 -2.1893
  720MOL0     H95025   7.095   2.656   4.777 -0.5065  0.1635 -0.8948
  720MOL0     H95026   8.498   3.281   5.237 -0.6359 -0.2796 -1.3938
  720MOL0     H95027   8.749   3.260   5.283 -1.1158 -0.9050  0.0708
  720MOL0     H95028   9.152   3.194   5.047 -1.0645  0.4326  0.1837
  720MOL0     H95029   9.391   3.156   5.068  1.2300 -0.5685  1.6213
  720MOL0     H95030   9.599   3.362   5.423 -2.2318  2.6990  0.2327
  720MOL0     H95031   9.617   3.471   5.278  0.8296 -1.5868 -2.2405
  720MOL0     H95032   9.814   3.374   5.229  0.0129  1.6985  0.0929
  720MOL0     H95033   9.829   3.351   5.403 -1.8072  2.2675  1.5296
  720MOL0     H95034   9.773   3.140   5.184 -3.4088 -3.0643  2.0385
  720MOL0     H95035   9.745   3.094   5.346 -0.7032 -1.8845 -1.3381
  720MOL0     H95036  10.007   3.165   5.397  0.3278 -0.9712 -0.7398
  720MOL0     H95037   9.974   3.032   5.307 -0.8714  0.4506  1.4735
  720MOL0     H95038  10.143   3.305   5.020  0.8719  2.2902  2.0085
  720MOL0     H95039   9.396   3.428   5.406  2.9197  1.0644 -1.1932
  720MOL0     H95040   9.163   3.480   5.370  2.1887  0.1797  1.0117
  721MOL0     O95041   6.644   2.914   8.050 -0.1066 -0.4035 -0.2301
  721MOL0     C95042   6.741   2.842   8.036 -0.4371  0.5043 -0.2897
  721MOL0     O95043   6.733   2.706   8.028  0.0285 -0.2607 -0.4042
  721MOL0     C95044   6.606   2.652   8.031  0.0762 -0.7851  0.1630
  721MOL0     C95045   6.526   2.659   8.146 -0.3066 -0.3391 -0.3145
  721MOL0     C95046   6.409   2.579   8.161 -0.1866  0.0870 -0.3994
  721MOL0     C95047   6.366   2.505   8.053  0.2293 -0.4557 -0.0809
  721MOL0     O95048   6.257   2.428   8.076  0.2135  0.6671  0.4370
  721MOL0     C95049   6.163   2.407   7.973  0.1573  0.4603 -0.2684
  721MOL0     C95050   6.061   2.300   8.015  0.2523 -0.1862 -0.3485
  721MOL0     C95051   5.955   2.259   7.913 -0.4858 -0.8704 -0.6757
  721MOL0     C95052   5.865   2.145   7.967  0.0431 -1.0103  0.2307
  721MOL0     C95053   5.769   2.096   7.854  0.5776  0.3142  0.7336
  721MOL0     C95054   5.661   2.193   7.822 -0.0130 -0.3738  0.3966
  721MOL0     C95055   5.565   2.131   7.715 -0.1737  0.3698 -0.1129
  721MOL0     C95056   5.445   2.041   7.769 -0.0144 -0.4081 -0.3207
  721MOL0     N95057   5.389   2.118   7.885  0.0691  0.0545 -0.2542
  721MOL0     C95058   5.309   2.233   7.880  1.0395  0.1563  0.1616
  721MOL0     C95059   5.272   2.261   8.003  0.9169  0.5574 -0.7221
  721MOL0     C95060   5.183   2.381   8.031 -0.2798  0.7349 -0.8145
  721MOL0     C95061   5.232   2.496   8.114 -0.7214 -0.8695  0.4703
  721MOL0     C95062   5.145   2.625   8.113 -0.0020 -1.1562 -0.1202
  721MOL0     C95063   5.205   2.742   8.194 -0.0296 -0.9057  0.3189
  721MOL0     O95064   5.120   2.854   8.211  0.0928  0.2295  0.8531
  721MOL0     C95065   5.001   2.843   8.273 -0.7320 -0.2196  0.4597
  721MOL0     C95066   4.986   2.765   8.382  0.5132 -1.1696  0.1037
  721MOL0     C95067   4.865   2.761   8.451  0.3539 -0.4008  0.7055
  721MOL0     C95068   4.760   2.855   8.420  0.2268  0.1150  0.4620
  721MOL0     C95069   4.625   2.837   8.479  1.1602 -0.0978 -0.0030
  721MOL0     O95070   4.631   2.778   8.602 -0.2190  0.3653  0.3448
  721MOL0     C95071   4.515   2.783   8.674 -0.4386 -0.0980 -0.2002
  721MOL0     C95072   4.464   2.670   8.723  0.1849  0.3532  0.7578
  721MOL0     C95073   4.351   2.676   8.806 -0.3538 -0.1246 -0.6176
  721MOL0     C95074   4.306   2.805   8.843  0.5314  0.4827 -0.1457
  721MOL0     O95075   4.199   2.814   8.928  0.7955  0.1523  0.0918
  721MOL0     C95076   4.147   2.691   8.978  0.3213 -1.2181  0.2844
  721MOL0     C95077   4.010   2.737   9.039 -0.6371  0.4765 -0.5258
  721MOL0     C95078   4.010   2.843   9.156 -0.5120  0.4298 -0.0064
  721MOL0     C95079   3.877   2.925   9.139  0.0581 -0.7469  0.2720
  721MOL0     C95080   3.756   2.845   9.182  0.3143 -0.7428  0.8226
  721MOL0     C95081   3.624   2.923   9.163  0.0959  0.3670 -0.1519
  721MOL0     C95082   3.599   2.968   9.022  1.6681 -0.2601  0.2496
  721MOL0     C95083   3.591   2.851   8.920  0.8335 -0.4190  0.5132
  721MOL0    Cl95084   3.494   2.889   8.782 -0.1602 -0.0661 -0.3377
  721MOL0     C95085   4.353   2.921   8.787 -0.3027  0.4767 -0.3822
  721MOL0     C95086   4.466   2.913   8.711 -0.0959 -0.2407 -0.4247
  721MOL0     O95087   4.522   2.869   8.426  0.3665  0.1258 -0.0098
  721MOL0     C95088   4.777   2.937   8.307 -0.3076  0.8126 -0.2007
  721MOL0     C95089   4.903   2.935   8.243  0.0602 -0.4135  0.3638
  721MOL0     N95090   5.345   2.177   8.090  1.1182 -0.5354  0.0828
  721MOL0     N95091   5.406   2.090   8.015 -0.6843 -0.2614 -0.0785
  721MOL0     C95092   6.439   2.498   7.935 -0.3162  0.3640  0.1887
  721MOL0     C95093   6.557   2.574   7.928 -0.3380 -0.4833  0.0812
  721MOL0     C95094   6.871   2.904   8.045 -0.4278  1.2027  0.8474
  721MOL0     C95095   6.981   2.824   8.010  0.1801  0.2931 -1.0592
  721MOL0     C95096   7.111   2.871   8.022 -0.2352 -0.0323 -1.3870
  721MOL0     C95097   7.136   3.002   8.074 -0.4454  0.8090  0.7407
  721MOL0     O95098   7.265   3.053   8.094  0.1506 -0.2661 -0.1488
  721MOL0     C95099   7.299   3.185   8.059 -0.1241 -0.2422 -0.5011
  721MOL0     C95100   7.450   3.193   8.025  0.4102  0.1285  1.0681
  721MOL0     C95101   7.529   3.209   8.150 -0.7403 -0.0573  0.3723
  721MOL0     C95102   7.680   3.248   8.124  0.9397  0.3297 -0.3867
  721MOL0     C95103   7.746   3.154   8.037  0.6952  0.2920  0.9252
  721MOL0     C95104   7.795   3.086   7.948  0.1430 -0.0092 -0.5122
  721MOL0     C95105   7.025   3.082   8.100  1.0566  0.1594  0.3567
  721MOL0     C95106   6.891   3.039   8.090 -0.6287  0.4195  0.1841
  721MOL0     H95107   6.567   2.710   8.233  0.1971  1.1425 -1.3654
  721MOL0     H95108   6.363   2.574   8.259  0.9468  0.4721  0.1663
  721MOL0     H95109   6.203   2.375   7.876 -0.1313 -3.3617  0.7131
  721MOL0     H95110   6.106   2.500   7.968  2.1625  2.0313  2.8470
  721MOL0     H95111   6.021   2.331   8.112  0.3408  2.2759 -1.0265
  721MOL0     H95112   6.125   2.215   8.040  0.6815  0.6096  1.3830
  721MOL0     H95113   6.004   2.215   7.825  0.6261  0.2145 -0.6271
  721MOL0     H95114   5.890   2.344   7.893 -1.8927 -1.3253  1.6455
  721MOL0     H95115   5.930   2.061   7.993  1.2449 -0.4024 -0.7441
  721MOL0     H95116   5.813   2.174   8.059  0.6207  0.4344  0.1288
  721MOL0     H95117   5.734   1.997   7.885  0.9047 -0.6790 -1.8628
  721MOL0     H95118   5.835   2.081   7.768  0.8237  0.1496  0.9502
  721MOL0     H95119   5.700   2.281   7.770  0.7738 -0.5924  0.5942
  721MOL0     H95120   5.609   2.220   7.914 -0.0835  1.0656 -0.0365
  721MOL0     H95121   5.519   2.215   7.662 -1.0823  0.6240  1.0250
  721MOL0     H95122   5.631   2.076   7.648  0.1826  1.2847 -0.5342
  721MOL0     H95123   5.481   1.943   7.802 -1.4334 -0.4552  1.2088
  721MOL0     H95124   5.369   2.038   7.690  0.8179  0.2094 -1.1772
  721MOL0     H95125   5.268   2.280   7.791  0.7073 -1.9197 -0.8590
  721MOL0     H95126   5.097   2.337   8.081  3.3097 -2.9445  2.8548
  721MOL0     H95127   5.155   2.428   7.936 -1.5114  1.3596 -0.1698
  721MOL0     H95128   5.333   2.517   8.077 -1.2996  1.2910 -0.0750
  721MOL0     H95129   5.255   2.468   8.217  2.7265  0.5047  0.1997
  721MOL0     H95130   5.146   2.672   8.015 -1.4286 -0.1680  0.3060
  721MOL0     H95131   5.050   2.598   8.160 -0.1493 -2.6060 -1.2002
  721MOL0     H95132   5.290   2.782   8.139 -0.8637  1.5608  0.7056
  721MOL0     H95133   5.232   2.701   8.292  1.0267  0.4861  0.6398
  721MOL0     H95134   5.060   2.690   8.408  1.3925 -0.4059 -0.1652
  721MOL0     H95135   4.856   2.687   8.530 -1.3896 -0.6004  0.3469
  721MOL0     H95136   4.519   2.580   8.697  1.5516  2.2820 -4.0755
  721MOL0     H95137   4.319   2.576   8.835 -0.3787  0.1259  0.2373
  721MOL0     H95138   4.227   2.656   9.043  2.1996  0.4679 -0.9712
  721MOL0     H95139   4.135   2.609   8.907  0.1067  0.2345 -1.4378
  721MOL0     H95140   3.972   2.646   9.087 -1.2858  2.5281  3.2852
  721MOL0     H95141   3.939   2.772   8.964 -1.4867  0.6328  0.3272
  721MOL0     H95142   4.091   2.914   9.145 -0.2273 -0.1482 -2.1691
  721MOL0     H95143   4.005   2.792   9.253  1.9878 -3.0739 -1.4876
  721MOL0     H95144   3.889   3.009   9.209  1.2727 -2.5252  2.3201
  721MOL0     H95145   3.876   2.954   9.034  2.1628  0.7437  0.5967
  721MOL0     H95146   3.763   2.832   9.290 -0.3322 -0.5698  0.8944
  721MOL0     H95147   3.748   2.746   9.135  0.0172 -0.7498  0.8844
  721MOL0     H95148   3.615   3.000   9.241 -3.8930  0.4598 -0.4935
  721MOL0     H95149   3.548   2.854   9.200 -1.8890  3.0117  1.1088
  721MOL0     H95150   3.505   3.024   9.019 -1.3986 -4.8635  0.6685
  721MOL0     H95151   3.687   3.024   8.987  2.3927 -0.5272  1.5799
  721MOL0     H95152   3.529   2.778   8.974 -2.5294  0.0679 -2.3471
  721MOL0     H95153   3.684   2.799   8.894 -0.2790 -2.9821  1.2469
  721MOL0     H95154   4.312   3.015   8.825 -2.0253 -0.4331  0.1050
  721MOL0     H95155   4.511   2.998   8.660 -1.2288  0.4860 -0.2289
  721MOL0     H95156   4.697   2.993   8.260 -1.0263 -1.1371 -1.4501
  721MOL0     H95157   4.919   3.010   8.166 -1.2479 -0.4849 -0.0038
  721MOL0     H95158   6.421   2.419   7.863  0.0754  1.7216 -1.5027
  721MOL0     H95159   6.623   2.564   7.842  0.8561 -0.8319  1.0049
  721MOL0     H95160   6.978   2.721   7.976  1.7231 -1.3868  3.1365
  721MOL0     H95161   7.200   2.813   8.004  0.1392  0.7643 -2.2293
  721MOL0     H95162   7.267   3.255   8.136  2.1657  1.9092 -1.3842
  721MOL0     H95163   7.238   3.208   7.972  0.1386  0.4439 -0.5061
  721MOL0     H95164   7.474   3.102   7.970  0.7425  0.7172  0.2086
  721MOL0     H95165   7.469   3.280   7.961  0.7297 -0.2782  0.5999
  721MOL0     H95166   7.533   3.123   8.217  0.0794 -2.0057 -2.0127
  721MOL0     H95167   7.490   3.295   8.206  0.1192  0.8263 -0.3452
  721MOL0     H95168   7.675   3.348   8.080 -1.0159  0.8931  0.9877
  721MOL0     H95169   7.732   3.266   8.219 -0.0140  1.3450 -0.0284
  721MOL0     H95170   7.819   3.016   7.870 -0.4704 -0.7288 -0.0716
  721MOL0     H95171   7.035   3.187   8.126  0.3642  0.7020 -1.3840
  721MOL0     H95172   6.804   3.102   8.106  0.2091  1.8881 -0.8081
  722MOL0     O95173   1.887  10.224   8.719  0.1593 -0.2670  0.7830
  722MOL0     C95174   1.921  10.341   8.702 -0.2920 -0.3771  0.8471
  722MOL0     O95175   1.853  10.434   8.627 -0.2877  0.5142 -0.4083
  722MOL0     C95176   1.744  10.378   8.568 -0.2389 -0.4305 -0.0801
  722MOL0     C95177   1.615  10.411   8.608 -0.6241  0.4978  0.2393
  722MOL0     C95178   1.499  10.358   8.563  0.0213  0.1355  0.4825
  722MOL0     C95179   1.513  10.276   8.451  0.5688 -0.1879  0.6956
  722MOL0     O95180   1.394  10.222   8.406  0.4364 -0.4851 -0.6043
  722MOL0     C95181   1.403  10.105   8.324 -0.6093  0.4737 -0.3185
  722MOL0     C95182   1.264  10.047   8.303 -0.1452 -0.5331 -0.3250
  722MOL0     C95183   1.204  10.004   8.430  0.6605  0.6681  0.3158
  722MOL0     C95184   1.056   9.960   8.405 -0.3520  0.3260 -0.5952
  722MOL0     C95185   0.998   9.865   8.506 -1.4768 -0.3952  0.6393
  722MOL0     C95186   0.873   9.806   8.450  1.1930  0.9640  0.1813
  722MOL0     C95187   0.836   9.661   8.503 -0.0612  0.0695 -0.6869
  722MOL0     C95188   0.710   9.600   8.439 -0.2994  0.5295  0.2593
  722MOL0     N95189   0.592   9.679   8.471  0.2582 -0.7339 -0.2553
  722MOL0     C95190   0.537   9.687   8.595 -0.2345  0.9076  1.0439
  722MOL0     C95191   0.444   9.780   8.590  0.1158  0.3151 -0.3351
  722MOL0     C95192   0.358   9.830   8.706 -0.6709 -0.6958  0.1118
  722MOL0     C95193   0.267   9.723   8.772 -0.0957  0.2261 -0.2620
  722MOL0     C95194   0.174   9.663   8.666  0.8562 -0.0456 -0.4029
  722MOL0     C95195   0.094   9.566   8.746  1.0881  0.3742  0.8096
  722MOL0     O95196   0.035   9.479   8.647  0.1234  0.0779  0.6092
  722MOL0     C95197  -0.099   9.483   8.651 -0.2497  0.2109 -0.0900
  722MOL0     C95198  -0.160   9.451   8.777  0.4223  0.0508  0.7311
  722MOL0     C95199  -0.307   9.436   8.779 -0.1880  0.4039  0.4895
  722MOL0     C95200  -0.384   9.458   8.662 -0.6851 -0.3552 -1.4978
  722MOL0     C95201  -0.529   9.435   8.681 -0.9143 -0.4898 -0.4254
  722MOL0     O95202  -0.573   9.335   8.769  0.1243  0.4317  0.2987
  722MOL0     C95203  -0.706   9.312   8.794 -1.2213 -0.1630  1.1688
  722MOL0     C95204  -0.855   9.404   8.673 -0.9021  0.5499 -0.0546
  722MOL0     C95205  -1.057   9.342   8.694  0.3450 -0.1965  0.4384
  722MOL0     C95206  -1.108   9.195   8.837 -0.5486  0.0448  0.0680
  722MOL0     O95207  -1.230   9.153   8.862 -1.0292 -0.0018 -0.1843
  722MOL0     C95208  -1.320   9.139   8.748  0.7870  0.8103 -0.2695
  722MOL0     C95209  -1.453   9.053   8.786  0.0316 -0.0037  0.2418
  722MOL0     C95210  -1.526   9.096   8.914  0.4271 -0.0646 -1.0130
  722MOL0     C95211  -1.681   9.055   8.911  0.0322 -0.7445  0.4382
  722MOL0     C95212  -1.761   9.177   8.964  0.9959  0.3572 -0.0139
  722MOL0     C95213  -1.778   9.278   8.855  0.5877 -0.5637 -0.2687
  722MOL0     C95214  -1.887   9.381   8.889 -0.3073  0.9080  1.5975
  722MOL0     C95215  -1.835   9.512   8.935  0.1422  0.2654  0.2744
  722MOL0    Cl95216  -1.729   9.499   9.080 -0.4309 -0.3442  0.1540
  722MOL0     C95217  -0.958   9.105   8.957  0.6255  0.0134  0.1300
  722MOL0     C95218  -0.756   9.163   8.935  0.6391 -0.5300 -0.3375
  722MOL0     O95219  -0.589   9.509   8.607  0.7399 -0.0036  0.3465
  722MOL0     C95220  -0.319   9.493   8.548  0.9311  0.7245  0.3961
  722MOL0     C95221  -0.181   9.493   8.536 -0.9867  0.3401  0.0242
  722MOL0     N95222   0.423   9.809   8.457 -0.4699 -0.3314 -0.3905
  722MOL0     N95223   0.516   9.752   8.381 -0.3241 -0.3569 -0.9241
  722MOL0     C95224   1.639  10.254   8.399  0.2351 -0.0519  1.3037
  722MOL0     C95225   1.753  10.303   8.450 -0.1149  0.0997  0.4048
  722MOL0     C95226   2.054  10.383   8.764 -0.3698  0.2297 -0.1349
  722MOL0     C95227   2.104  10.512   8.732 -0.5266 -0.4559  0.1429
  722MOL0     C95228   2.229  10.551   8.785  0.5301 -0.6823  0.1910
  722MOL0     C95229   2.308  10.462   8.863 -0.5847  0.0783 -0.5983
  722MOL0     O95230   2.417  10.507   8.932 -0.3371 -0.8072 -0.1008
  722MOL0     C95231   2.510  10.582   8.852 -0.0116 -0.4415 -0.5189
  722MOL0     C95232   2.621  10.597   8.953 -1.3045 -0.6389 -0.6706
  722MOL0     C95233   2.761  10.621   8.892  0.4933  0.3821  0.6685
  722MOL0     C95234   2.875  10.640   8.993 -0.7032 -1.0499 -1.0869
  722MOL0     C95235   2.885  10.777   9.045 -0.0082  0.2498 -0.6284
  722MOL0     C95236   2.878  10.887   9.096  0.9536  0.8645 -1.1279
  722MOL0     C95237   2.257  10.330   8.888 -0.1470 -0.3864  0.4127
  722MOL0     C95238   2.129  10.292   8.851 -0.3021 -0.1029  1.5242
  722MOL0     H95239   1.612  10.475   8.696 -0.5576  1.8801 -0.7345
  722MOL0     H95240   1.407  10.385   8.614  0.5061  1.8548  0.4963
  722MOL0     H95241   1.452  10.030   8.387 -2.9332 -0.5200  0.3985
  722MOL0     H95242   1.456  10.122   8.229  2.5609 -0.4436  1.1589
  722MOL0     H95243   1.267   9.967   8.228 -0.6404  0.6530 -1.6476
  722MOL0     H95244   1.205  10.125   8.256  0.1034 -1.3805 -2.1212
  722MOL0     H95245   1.202  10.089   8.499  0.7709  1.1871 -0.3120
  722MOL0     H95246   1.259   9.922   8.478  3.8726  0.7229 -2.9239
  722MOL0     H95247   0.987  10.045   8.399  0.3532  1.1371  1.8151
  722MOL0     H95248   1.051   9.907   8.310  0.9862 -1.7739  0.4323
  722MOL0     H95249   0.984   9.917   8.601  1.8673 -0.8019  1.4696
  722MOL0     H95250   1.072   9.786   8.517  1.3326  2.1107  0.8885
  722MOL0     H95251   0.867   9.787   8.342  0.0907 -0.9780  0.5369
  722MOL0     H95252   0.793   9.875   8.480  1.8825  2.3734 -1.0774
  722MOL0     H95253   0.923   9.603   8.472  1.0734  0.1160  2.1323
  722MOL0     H95254   0.831   9.655   8.612  2.4758  0.1828 -0.5138
  722MOL0     H95255   0.693   9.498   8.473 -0.5824  0.1779 -0.9069
  722MOL0     H95256   0.724   9.591   8.331 -2.7017 -1.6293  0.0367
  722MOL0     H95257   0.570   9.635   8.684 -0.6637 -2.0338 -0.4114
  722MOL0     H95258   0.302   9.910   8.656  2.4113  0.2901 -2.0280
  722MOL0     H95259   0.416   9.877   8.786 -1.6112  2.7991 -1.0686
  722MOL0     H95260   0.207   9.767   8.851 -0.8833 -0.6786 -0.3422
  722MOL0     H95261   0.324   9.637   8.807 -0.6590  0.4520  1.2417
  722MOL0     H95262   0.109   9.740   8.622 -1.9396 -2.0476 -0.1028
  722MOL0     H95263   0.235   9.612   8.591  0.6683 -1.6977  0.5098
  722MOL0     H95264   0.019   9.616   8.808 -1.8324 -1.1242 -1.2570
  722MOL0     H95265   0.148   9.503   8.817 -3.5427 -2.0993  2.5825
  722MOL0     H95266  -0.111   9.432   8.872  1.4513 -0.8529  0.0579
  722MOL0     H95267  -0.354   9.428   8.876 -1.7901  0.3255 -0.2544
  722MOL0     H95268  -0.832   9.489   8.609 -2.9096  1.1825 -0.0318
  722MOL0     H95269  -1.129   9.392   8.630  2.0442 -1.6670 -2.8945
  722MOL0     H95270  -1.271   9.101   8.658 -0.4197 -1.5385 -0.0270
  722MOL0     H95271  -1.361   9.237   8.722 -3.2076 -0.9736 -1.6930
  722MOL0     H95272  -1.418   8.950   8.787 -3.3417 -1.2630  0.4190
  722MOL0     H95273  -1.512   9.060   8.694  0.5877 -1.6420 -0.2756
  722MOL0     H95274  -1.519   9.204   8.928 -4.7936  0.5473 -1.0083
  722MOL0     H95275  -1.480   9.078   9.011  0.2491  0.0498 -0.9056
  722MOL0     H95276  -1.730   9.027   8.817 -1.4633  0.9784  0.6518
  722MOL0     H95277  -1.692   8.964   8.972  1.1291 -0.3309  1.2765
  722MOL0     H95278  -1.718   9.227   9.051  1.3510 -0.1497  0.1132
  722MOL0     H95279  -1.858   9.139   8.997  0.3307  0.6978 -1.5160
  722MOL0     H95280  -1.801   9.220   8.766  3.0047 -2.9873  0.5330
  722MOL0     H95281  -1.677   9.316   8.837  1.6256 -2.4985  1.0528
  722MOL0     H95282  -1.952   9.397   8.802 -1.2261 -2.1680  1.5988
  722MOL0     H95283  -1.951   9.346   8.970 -0.4337  1.1380  1.5950
  722MOL0     H95284  -1.922   9.573   8.960  0.0882  0.4476 -0.3439
  722MOL0     H95285  -1.777   9.560   8.856  0.3474  1.8677  1.3445
  722MOL0     H95286  -0.993   9.044   9.040 -1.2891 -0.0422 -0.6645
  722MOL0     H95287  -0.675   9.120   8.993  1.2152  0.0308 -0.7140
  722MOL0     H95288  -0.384   9.505   8.462  1.2138  0.6965  0.1778
  722MOL0     H95289  -0.132   9.518   8.443  1.5638  2.7225  1.8337
  722MOL0     H95290   1.648  10.187   8.313  0.4855 -1.1411  2.1615
  722MOL0     H95291   1.853  10.289   8.411  0.1207  2.5544 -0.0022
  722MOL0     H95292   2.055  10.595   8.683 -1.2129 -0.9834 -0.0849
  722MOL0     H95293   2.263  10.653   8.770  0.5156 -0.4849  1.3857
  722MOL0     H95294   2.471  10.679   8.822  1.3579  0.5139  0.6392
  722MOL0     H95295   2.551  10.524   8.768 -2.2426 -1.9564 -0.6497
  722MOL0     H95296   2.604  10.682   9.020  1.4008 -1.1977  0.9013
  722MOL0     H95297   2.628  10.506   9.013  1.7962  0.2883  0.5762
  722MOL0     H95298   2.760  10.699   8.815  4.5262 -0.3801 -0.3988
  722MOL0     H95299   2.784  10.530   8.835  3.3195  0.0873  2.0909
  722MOL0     H95300   2.873  10.568   9.075 -3.2868  0.2559  0.1162
  722MOL0     H95301   2.966  10.607   8.941  0.7420  1.5097 -0.3803
  722MOL0     H95302   2.876  10.987   9.134 -2.1377  0.5720 -0.2833
  722MOL0     H95303   2.321  10.277   8.958 -1.7143  0.1522  2.3691
  722MOL0     H95304   2.092  10.195   8.883  0.2354 -0.5934  0.6988
  723MOL0     O95305   1.107   8.377   7.670 -0.5052  0.0586 -0.2271
  723MOL0     C95306   1.113   8.308   7.567 -0.0594  0.2848  0.2312
  723MOL0     O95307   1.012   8.237   7.520 -0.2036  0.1086  0.9465
  723MOL0     C95308   0.881   8.259   7.547  0.5320 -0.0011 -0.4927
  723MOL0     C95309   0.798   8.148   7.540  0.3419  0.5007  0.3415
  723MOL0     C95310   0.665   8.161   7.590 -0.7001  0.8044  0.3375
  723MOL0     C95311   0.623   8.290   7.636  0.3969  0.2752 -1.0622
  723MOL0     O95312   0.506   8.305   7.695 -0.1936 -0.0456 -0.1341
  723MOL0     C95313   0.423   8.191   7.743 -0.2256  0.0191 -0.4290
  723MOL0     C95314   0.289   8.248   7.785  0.3248  0.3452  0.2864
  723MOL0     C95315   0.172   8.147   7.767  0.5375 -0.2557 -0.2571
  723MOL0     C95316   0.032   8.197   7.814  0.0394 -0.4403 -0.3782
  723MOL0     C95317  -0.077   8.094   7.821  0.0813  0.0735  1.7868
  723MOL0     C95318  -0.198   8.157   7.897 -0.6231  0.9071 -0.0449
  723MOL0     C95319  -0.322   8.071   7.918 -0.1404  0.2421  0.3369
  723MOL0     C95320  -0.412   8.170   7.985  0.6635  0.7615 -0.2184
  723MOL0     N95321  -0.442   8.303   7.935 -0.3077  0.0829  0.9421
  723MOL0     C95322  -0.478   8.330   7.800 -0.3632 -0.9050 -1.0515
  723MOL0     C95323  -0.495   8.465   7.803 -0.2122  0.3587 -0.9256
  723MOL0     C95324  -0.537   8.558   7.692 -0.4764  0.4412 -0.0085
  723MOL0     C95325  -0.698   8.536   7.665 -1.1509 -1.0052 -0.8512
  723MOL0     C95326  -0.777   8.651   7.730  0.4719 -0.7416 -0.3290
  723MOL0     C95327  -0.925   8.660   7.701 -0.2255 -0.2102  0.0454
  723MOL0     O95328  -0.977   8.551   7.776  0.4477 -0.1932  0.5834
  723MOL0     C95329  -1.116   8.530   7.761  0.3670  1.0967 -1.5539
  723MOL0     C95330  -1.172   8.440   7.850 -0.1949  0.2299 -0.3839
  723MOL0     C95331  -1.308   8.404   7.847  0.2165 -0.1471 -0.2609
  723MOL0     C95332  -1.392   8.459   7.751  1.2013 -0.2695 -0.0293
  723MOL0     C95333  -1.535   8.415   7.743 -0.7058 -0.1519 -0.8258
  723MOL0     O95334  -1.613   8.472   7.644  0.4615  0.0315  0.0246
  723MOL0     C95335  -1.742   8.436   7.617  0.1395 -0.1169 -0.9854
  723MOL0     C95336  -1.826   8.534   7.571  0.1573  0.5760  0.5787
  723MOL0     C95337  -1.966   8.522   7.558 -0.4310 -0.0642  0.0689
  723MOL0     C95338  -2.021   8.398   7.592 -0.3284  0.3940 -0.8208
  723MOL0     O95339  -2.154   8.370   7.567 -0.3578 -0.4790  0.3174
  723MOL0     C95340  -2.227   8.380   7.690 -0.9091  0.3277  0.0247
  723MOL0     C95341  -2.272   8.524   7.720  0.1869  0.8488 -0.0802
  723MOL0     C95342  -2.380   8.591   7.631  0.4118  0.1310  0.8934
  723MOL0     C95343  -2.460   8.696   7.698  0.0182  0.0005  0.1061
  723MOL0     C95344  -2.586   8.720   7.615 -0.1630  1.2219  0.3959
  723MOL0     C95345  -2.716   8.628   7.646 -0.2976  0.7116  0.2698
  723MOL0     C95346  -2.730   8.509   7.543 -1.0591  1.1463 -0.3799
  723MOL0     C95347  -2.818   8.393   7.605 -0.3353 -0.7073  0.1647
  723MOL0    Cl95348  -2.983   8.456   7.631 -0.0582 -0.2307  0.2337
  723MOL0     C95349  -1.935   8.289   7.623  1.0736 -0.0455  0.1111
  723MOL0     C95350  -1.802   8.312   7.643 -0.5268  0.8511  0.5550
  723MOL0     O95351  -1.578   8.329   7.820 -0.2780 -0.2469  0.1470
  723MOL0     C95352  -1.345   8.560   7.663  0.1144 -0.1074  0.0045
  723MOL0     C95353  -1.202   8.588   7.669  0.3960  0.5629 -0.8063
  723MOL0     N95354  -0.486   8.515   7.928  0.4126  0.1436 -0.2406
  723MOL0     N95355  -0.449   8.422   8.011 -0.7984 -0.4101  0.2715
  723MOL0     C95356   0.705   8.402   7.629  0.1149  0.4444  1.6666
  723MOL0     C95357   0.834   8.383   7.586 -0.9016 -0.3658  0.1783
  723MOL0     C95358   1.242   8.300   7.492  0.6821  0.2798  0.2266
  723MOL0     C95359   1.364   8.336   7.553  0.5079 -0.5976 -0.3339
  723MOL0     C95360   1.482   8.341   7.485  0.7078 -0.3354  0.1837
  723MOL0     C95361   1.484   8.303   7.348  0.3161 -0.7198  0.7396
  723MOL0     O95362   1.597   8.309   7.271  0.1994 -0.0346 -0.4235
  723MOL0     C95363   1.716   8.262   7.325 -0.0650  1.0496  0.4308
  723MOL0     C95364   1.786   8.190   7.211 -0.1277 -0.8122 -0.6106
  723MOL0     C95365   1.927   8.156   7.257 -0.0161 -0.8409 -0.1223
  723MOL0     C95366   1.943   8.066   7.377 -0.6928  0.8562 -0.5763
  723MOL0     C95367   2.083   8.063   7.418  0.5403 -1.7768  0.3307
  723MOL0     C95368   2.194   8.039   7.460  0.1054 -0.0981  1.2424
  723MOL0     C95369   1.364   8.277   7.285  0.1109 -0.8232  0.8181
  723MOL0     C95370   1.246   8.266   7.358  0.1351  0.7925  0.6281
  723MOL0     H95371   0.844   8.065   7.488 -1.9945 -0.0893 -0.9510
  723MOL0     H95372   0.605   8.070   7.589  1.9051 -1.0170 -0.5722
  723MOL0     H95373   0.477   8.131   7.818  2.0676 -0.5991 -2.4480
  723MOL0     H95374   0.419   8.123   7.657  1.0107  0.4397 -0.8337
  723MOL0     H95375   0.264   8.333   7.721 -0.7222  0.3263  0.6587
  723MOL0     H95376   0.299   8.277   7.889  6.5622 -1.1047  0.5038
  723MOL0     H95377   0.198   8.056   7.822 -0.6572 -1.8914 -2.2551
  723MOL0     H95378   0.170   8.121   7.661  1.1599  2.2993 -0.9482
  723MOL0     H95379   0.043   8.239   7.915  0.2594 -1.2776 -0.0501
  723MOL0     H95380  -0.005   8.285   7.761 -2.1998 -1.6792 -0.9747
  723MOL0     H95381  -0.038   8.010   7.880  0.8877  0.0752  1.2645
  723MOL0     H95382  -0.118   8.049   7.731 -0.6381 -2.5567  3.3119
  723MOL0     H95383  -0.225   8.249   7.845  0.6272  0.5858 -1.3517
  723MOL0     H95384  -0.162   8.183   7.997 -5.0417  0.1993  1.9464
  723MOL0     H95385  -0.366   8.032   7.826 -1.5178  1.2894  0.5204
  723MOL0     H95386  -0.303   7.983   7.980 -0.2753 -0.8322 -1.1007
  723MOL0     H95387  -0.373   8.180   8.087  2.3127 -3.1353 -0.3003
  723MOL0     H95388  -0.508   8.127   8.015 -0.8909  1.5978 -3.5372
  723MOL0     H95389  -0.493   8.272   7.709  1.3925 -0.5611 -1.6022
  723MOL0     H95390  -0.478   8.521   7.608  1.9967  0.4393  1.6272
  723MOL0     H95391  -0.516   8.665   7.696  1.3858  0.1527 -0.9807
  723MOL0     H95392  -0.746   8.443   7.696 -0.0953 -2.1747 -2.5312
  723MOL0     H95393  -0.719   8.547   7.558 -3.4995 -1.6187 -0.5212
  723MOL0     H95394  -0.767   8.638   7.838  1.1565 -1.4022 -0.4637
  723MOL0     H95395  -0.741   8.748   7.694 -0.4809 -1.1760 -2.6123
  723MOL0     H95396  -0.944   8.658   7.593  1.3081  0.2328 -0.2560
  723MOL0     H95397  -0.959   8.754   7.745 -0.0744 -0.6530  1.1460
  723MOL0     H95398  -1.110   8.396   7.928  0.4069  1.3646 -0.2119
  723MOL0     H95399  -1.341   8.328   7.916 -0.2623 -2.8707 -3.2516
  723MOL0     H95400  -1.790   8.630   7.537 -1.3425  1.3149  0.9650
  723MOL0     H95401  -2.028   8.602   7.519  0.6883  1.3095  1.0382
  723MOL0     H95402  -2.179   8.326   7.772 -2.5852 -0.1068  0.7459
  723MOL0     H95403  -2.317   8.321   7.674  1.0923 -2.8232 -0.5208
  723MOL0     H95404  -2.187   8.594   7.714 -0.2692  1.3142 -1.6185
  723MOL0     H95405  -2.307   8.517   7.823  1.4777 -0.8588  0.2853
  723MOL0     H95406  -2.439   8.505   7.599  1.2196  0.1365 -0.7228
  723MOL0     H95407  -2.340   8.641   7.542 -0.0621  2.3785  1.8605
  723MOL0     H95408  -2.489   8.666   7.799 -3.0312  1.0933 -0.3450
  723MOL0     H95409  -2.401   8.787   7.715  1.6765 -0.9946 -0.0453
  723MOL0     H95410  -2.549   8.717   7.512 -2.4126 -1.1513 -0.4455
  723MOL0     H95411  -2.623   8.821   7.637 -0.7148  1.3552 -1.0529
  723MOL0     H95412  -2.808   8.681   7.621 -1.4933 -2.5329 -3.1598
  723MOL0     H95413  -2.704   8.578   7.742  1.9940 -0.3340 -0.4770
  723MOL0     H95414  -2.777   8.541   7.450 -0.0733  3.3192 -0.1713
  723MOL0     H95415  -2.633   8.465   7.520 -1.3304 -0.0358  0.5823
  723MOL0     H95416  -2.777   8.354   7.698  0.5647  0.3955  0.2591
  723MOL0     H95417  -2.829   8.309   7.535  0.2462 -0.6257 -0.0276
  723MOL0     H95418  -1.995   8.199   7.635 -1.6712  1.1635 -3.2285
  723MOL0     H95419  -1.749   8.231   7.691 -2.5891  0.0388  1.5961
  723MOL0     H95420  -1.417   8.609   7.598  0.2930  0.1676  0.0112
  723MOL0     H95421  -1.155   8.655   7.597  0.9159  3.7760  2.2252
  723MOL0     H95422   0.681   8.505   7.656 -0.9014  0.3901  1.0140
  723MOL0     H95423   0.905   8.466   7.585  0.0181 -1.1167  1.2013
  723MOL0     H95424   1.362   8.376   7.654 -0.3065 -2.3471  0.3924
  723MOL0     H95425   1.577   8.356   7.535 -0.8994  0.4158  3.2252
  723MOL0     H95426   1.685   8.190   7.401  1.5018 -3.2982 -2.6488
  723MOL0     H95427   1.772   8.346   7.368 -1.6634  1.6565  1.4547
  723MOL0     H95428   1.723   8.107   7.176  1.2051 -1.4136 -1.6627
  723MOL0     H95429   1.793   8.263   7.130 -2.7394 -2.0864 -2.1050
  723MOL0     H95430   1.979   8.250   7.276 -0.2685 -0.5877 -0.6374
  723MOL0     H95431   1.979   8.126   7.165  0.0723  2.7192 -1.3787
  723MOL0     H95432   1.877   8.106   7.454  0.6863 -0.3035  1.2995
  723MOL0     H95433   1.911   7.963   7.355 -3.0832  1.3653  0.2187
  723MOL0     H95434   2.292   8.008   7.490  0.8625 -2.3577 -2.7606
  723MOL0     H95435   1.369   8.245   7.181  1.5387 -1.3455  1.0205
  723MOL0     H95436   1.147   8.247   7.316 -0.2446 -0.9706  2.1616
  724MOL0     O95437   0.383   2.434   3.537 -0.0649 -0.3173  0.6838
  724MOL0     C95438   0.327   2.343   3.484 -0.5964  0.9661  0.5837
  724MOL0     O95439   0.364   2.212   3.485  0.2074 -0.4070  0.6768
  724MOL0     C95440   0.463   2.179   3.576 -0.7101 -0.8852 -0.1030
  724MOL0     C95441   0.445   2.186   3.720 -1.2913  0.6269 -0.3408
  724MOL0     C95442   0.551   2.145   3.803 -0.7283  0.3891 -0.2729
  724MOL0     C95443   0.671   2.094   3.748  0.5481 -0.9460  0.4442
  724MOL0     O95444   0.763   2.042   3.833 -0.0510  0.1411  0.4896
  724MOL0     C95445   0.898   2.090   3.805 -0.7506  0.4071 -0.9895
  724MOL0     C95446   0.998   2.022   3.910 -0.1681  0.0438  0.1695
  724MOL0     C95447   1.139   2.092   3.907 -1.0912 -0.1575 -0.2192
  724MOL0     C95448   1.217   2.056   3.770  0.4937  0.2717 -0.1898
  724MOL0     C95449   1.364   2.093   3.782  0.5189  1.2033  1.0877
  724MOL0     C95450   1.462   1.987   3.828  0.2234  0.0542 -0.6379
  724MOL0     C95451   1.482   1.880   3.708  0.9281 -0.3682  0.1823
  724MOL0     C95452   1.549   1.769   3.775  0.1896  0.0091 -0.0919
  724MOL0     N95453   1.577   1.655   3.696  1.3405  0.2592  0.1553
  724MOL0     C95454   1.479   1.562   3.665 -0.3731 -0.1360  0.7635
  724MOL0     C95455   1.541   1.491   3.576  1.0410  0.4773 -0.4320
  724MOL0     C95456   1.496   1.368   3.517 -0.2017 -0.1502  0.1705
  724MOL0     C95457   1.592   1.253   3.541  0.8467 -0.5770 -0.4674
  724MOL0     C95458   1.530   1.113   3.526 -0.2304  0.1566  0.1197
  724MOL0     C95459   1.463   1.068   3.654 -0.2426  0.3714  0.0947
  724MOL0     O95460   1.363   1.153   3.712 -0.6137 -0.3498 -0.0631
  724MOL0     C95461   1.238   1.152   3.654 -0.5607  0.1765 -0.6383
  724MOL0     C95462   1.157   1.254   3.702 -0.3179 -0.2859 -0.2932
  724MOL0     C95463   1.035   1.277   3.636 -0.4673  0.2881 -0.1012
  724MOL0     C95464   0.996   1.195   3.532  0.0984 -1.0273  1.1059
  724MOL0     C95465   0.864   1.218   3.476  0.5110 -0.3226  0.0573
  724MOL0     O95466   0.811   1.336   3.498  0.0681  0.0918  0.0146
  724MOL0     C95467   0.673   1.340   3.508 -0.0997  0.2740 -0.5824
  724MOL0     C95468   0.612   1.371   3.633 -0.8092 -0.9183 -0.5040
  724MOL0     C95469   0.471   1.383   3.651 -0.2937 -1.1565  0.1120
  724MOL0     C95470   0.390   1.361   3.537  0.4805 -0.4938 -0.8443
  724MOL0     O95471   0.255   1.366   3.544  0.4293 -0.3307  0.4060
  724MOL0     C95472   0.194   1.471   3.620  0.4137  0.1063  0.0203
  724MOL0     C95473   0.041   1.446   3.644  0.1221 -0.1630 -0.4042
  724MOL0     C95474  -0.051   1.466   3.521 -0.2956  0.6054  0.5379
  724MOL0     C95475  -0.196   1.445   3.539  0.2685  0.1327  1.2310
  724MOL0     C95476  -0.270   1.570   3.589 -0.2383 -0.7662 -0.0076
  724MOL0     C95477  -0.422   1.544   3.635 -0.6546  0.5078  0.4347
  724MOL0     C95478  -0.486   1.662   3.705  0.3607 -0.1600  0.3231
  724MOL0     C95479  -0.636   1.674   3.687  0.1125  0.3011 -0.2075
  724MOL0    Cl95480  -0.663   1.704   3.503  0.1465 -0.1538 -0.7126
  724MOL0     C95481   0.448   1.339   3.413 -0.2255  0.6643 -0.8746
  724MOL0     C95482   0.588   1.323   3.402  1.2135  0.5022  0.1742
  724MOL0     O95483   0.810   1.125   3.410  0.2004 -0.3884 -0.0774
  724MOL0     C95484   1.072   1.086   3.489 -0.4191 -0.8294 -0.1473
  724MOL0     C95485   1.200   1.076   3.544 -0.6502 -0.3477 -1.1254
  724MOL0     N95486   1.661   1.536   3.550  0.2203 -0.0452 -0.4175
  724MOL0     N95487   1.689   1.641   3.625 -0.0710  0.6611  0.0512
  724MOL0     C95488   0.689   2.088   3.599 -0.2242  0.0368 -1.1226
  724MOL0     C95489   0.583   2.139   3.517 -0.7694  0.4815  0.7417
  724MOL0     C95490   0.192   2.383   3.429  0.2565  0.2892 -1.4953
  724MOL0     C95491   0.104   2.276   3.394 -0.1820 -0.1509  0.6810
  724MOL0     C95492  -0.012   2.320   3.320 -0.1096 -1.0323 -1.2199
  724MOL0     C95493  -0.048   2.447   3.294 -0.1608  0.5381  0.3884
  724MOL0     O95494  -0.169   2.483   3.236 -0.8082  0.0241  1.1004
  724MOL0     C95495  -0.217   2.616   3.238 -0.3077 -0.5417 -0.6498
  724MOL0     C95496  -0.357   2.628   3.176  0.6522  0.2288 -0.8056
  724MOL0     C95497  -0.417   2.763   3.184 -0.4376  0.0475 -0.0410
  724MOL0     C95498  -0.401   2.855   3.060 -0.6061  0.4475 -0.4649
  724MOL0     C95499  -0.499   2.805   2.954 -0.7506 -0.3000 -0.4068
  724MOL0     C95500  -0.569   2.764   2.859 -0.6604 -0.0898  1.1455
  724MOL0     C95501   0.041   2.548   3.333  0.1361  0.2864 -0.5594
  724MOL0     C95502   0.159   2.520   3.408  0.6460 -0.0445 -0.1854
  724MOL0     H95503   0.353   2.224   3.765 -1.3233  2.2143 -1.6604
  724MOL0     H95504   0.550   2.154   3.911  0.0399 -1.5297 -0.0596
  724MOL0     H95505   0.900   2.191   3.847 -1.1395 -1.1857  3.3312
  724MOL0     H95506   0.931   2.077   3.701  0.8500  0.1785 -0.4907
  724MOL0     H95507   1.006   1.914   3.898  0.9972 -0.0322  1.3889
  724MOL0     H95508   0.960   2.034   4.011  0.4648 -0.8090  0.5206
  724MOL0     H95509   1.191   2.049   3.993  2.3492 -0.5558 -2.3283
  724MOL0     H95510   1.137   2.200   3.920 -0.6344  0.1503 -2.3863
  724MOL0     H95511   1.208   1.951   3.738  1.1038  0.7139 -1.9161
  724MOL0     H95512   1.172   2.122   3.695 -2.1478 -1.1884 -0.0063
  724MOL0     H95513   1.363   2.185   3.840  0.1096  1.6803  0.3524
  724MOL0     H95514   1.407   2.122   3.685 -0.6189 -3.7082 -1.2220
  724MOL0     H95515   1.414   1.928   3.907 -0.7811 -0.0461 -1.3018
  724MOL0     H95516   1.555   2.037   3.857  0.0372  0.3994 -0.6261
  724MOL0     H95517   1.390   1.852   3.656  0.8690  2.6956 -1.6415
  724MOL0     H95518   1.541   1.923   3.626 -0.9295 -0.0931 -1.0607
  724MOL0     H95519   1.489   1.724   3.853 -0.7114  0.8473 -0.2783
  724MOL0     H95520   1.640   1.807   3.823 -0.9367 -0.4622  2.5632
  724MOL0     H95521   1.385   1.538   3.713 -1.1706  1.6912  0.2145
  724MOL0     H95522   1.503   1.397   3.412 -3.5340  0.9012  0.1263
  724MOL0     H95523   1.393   1.345   3.545 -0.5662  0.0676 -0.9578
  724MOL0     H95524   1.613   1.259   3.648  0.6291  1.2946 -0.4913
  724MOL0     H95525   1.685   1.273   3.487 -1.3889  2.6317 -3.6258
  724MOL0     H95526   1.460   1.097   3.443  0.6944 -3.8747 -0.1238
  724MOL0     H95527   1.617   1.049   3.506 -2.4095 -3.5726  1.5465
  724MOL0     H95528   1.540   1.069   3.731  2.5235  0.3579 -2.4749
  724MOL0     H95529   1.428   0.966   3.639  1.2166 -0.3279  1.2443
  724MOL0     H95530   1.185   1.327   3.777  0.1700 -0.3395 -0.4175
  724MOL0     H95531   0.968   1.355   3.671 -0.3686 -0.1963  1.2197
  724MOL0     H95532   0.673   1.384   3.721 -2.4073  0.7838  0.4193
  724MOL0     H95533   0.429   1.397   3.750  1.2856 -0.2387  0.6932
  724MOL0     H95534   0.207   1.575   3.587 -1.5387  1.2666  2.5193
  724MOL0     H95535   0.232   1.479   3.722 -1.6821 -2.1727  1.0934
  724MOL0     H95536   0.007   1.514   3.722  2.1531 -0.1441  0.5256
  724MOL0     H95537   0.034   1.341   3.675 -2.2833  0.1025  0.1961
  724MOL0     H95538  -0.016   1.389   3.451  2.3422  0.4398  1.9175
  724MOL0     H95539  -0.025   1.562   3.476  1.8234  0.2089  0.7821
  724MOL0     H95540  -0.245   1.430   3.443  1.7663  2.0940  0.0868
  724MOL0     H95541  -0.196   1.357   3.604  0.8455 -0.3285  0.6162
  724MOL0     H95542  -0.275   1.642   3.507 -0.9817 -1.5759 -0.6930
  724MOL0     H95543  -0.215   1.612   3.674 -1.8186 -1.0393  1.2202
  724MOL0     H95544  -0.428   1.460   3.705 -0.7994 -0.6162 -0.8803
  724MOL0     H95545  -0.473   1.517   3.542  0.1101 -2.0210  0.6983
  724MOL0     H95546  -0.470   1.643   3.812  2.1375 -0.6751  0.0108
  724MOL0     H95547  -0.434   1.753   3.674  0.0620  0.0627  0.4789
  724MOL0     H95548  -0.690   1.748   3.748 -1.0335 -1.3405  0.8648
  724MOL0     H95549  -0.678   1.578   3.717 -1.9269 -0.2883 -4.2205
  724MOL0     H95550   0.384   1.328   3.326 -1.1500  0.4094 -0.1758
  724MOL0     H95551   0.628   1.296   3.305 -2.5854 -0.4472 -1.2725
  724MOL0     H95552   1.035   1.021   3.411 -2.4259 -0.7716  0.7068
  724MOL0     H95553   1.267   1.003   3.502 -0.1545 -1.9783  2.2044
  724MOL0     H95554   0.773   2.037   3.552 -0.2298 -1.3303  0.2595
  724MOL0     H95555   0.598   2.124   3.411 -0.7158 -0.1786  0.8347
  724MOL0     H95556   0.131   2.171   3.399  2.0032  0.3540  0.6675
  724MOL0     H95557  -0.091   2.252   3.290  0.2900 -1.1667 -1.9940
  724MOL0     H95558  -0.156   2.682   3.176  0.6499 -2.5568 -1.9509
  724MOL0     H95559  -0.221   2.639   3.345  0.0263  0.0601 -0.7600
  724MOL0     H95560  -0.358   2.593   3.073  1.0503 -2.8126  0.1311
  724MOL0     H95561  -0.425   2.562   3.230  1.1178 -1.8648 -2.6747
  724MOL0     H95562  -0.368   2.813   3.268 -1.8124  0.7944  0.3436
  724MOL0     H95563  -0.523   2.748   3.208 -0.0777 -1.2919  0.8060
  724MOL0     H95564  -0.425   2.959   3.082  4.1465  0.8195  5.7978
  724MOL0     H95565  -0.294   2.847   3.038 -0.1113  0.9614  1.5229
  724MOL0     H95566  -0.629   2.727   2.778  0.0660 -0.3524  0.7215
  724MOL0     H95567   0.030   2.651   3.302  0.0267  1.0392  1.7315
  724MOL0     H95568   0.222   2.606   3.428 -0.0409  0.9400 -1.9880
  725MOL0     O95569   8.945   2.513   7.024 -0.0704 -0.1709 -0.3752
  725MOL0     C95570   8.914   2.397   7.066 -0.4392 -0.6946 -1.0617
  725MOL0     O95571   8.797   2.338   7.057 -0.5157 -0.7260 -0.3814
  725MOL0     C95572   8.698   2.379   6.971 -0.6731 -0.1593 -1.0763
  725MOL0     C95573   8.575   2.328   6.983  0.3661 -0.6333  0.2648
  725MOL0     C95574   8.467   2.351   6.895  0.1026 -0.0876  0.5569
  725MOL0     C95575   8.490   2.416   6.768  0.0489 -0.1185 -0.2188
  725MOL0     O95576   8.391   2.442   6.672  0.1751  0.2196 -0.3175
  725MOL0     C95577   8.410   2.521   6.554  0.3150  0.3332  0.2905
  725MOL0     C95578   8.292   2.494   6.463 -0.1925 -0.7014 -0.6755
  725MOL0     C95579   8.166   2.552   6.531 -0.4620  0.1136  0.2172
  725MOL0     C95580   8.080   2.605   6.415 -0.1675 -0.2782  0.0461
  725MOL0     C95581   7.965   2.694   6.464 -0.8466  0.1632  0.4913
  725MOL0     C95582   7.859   2.595   6.506 -0.3641  0.4437 -0.4922
  725MOL0     C95583   7.725   2.666   6.500  0.1780  0.7709  1.0746
  725MOL0     C95584   7.710   2.792   6.571 -0.1677  0.2237 -0.0577
  725MOL0     N95585   7.588   2.867   6.535  0.4808  0.7899  0.5449
  725MOL0     C95586   7.573   2.995   6.475  0.0636  0.0110 -0.4699
  725MOL0     C95587   7.443   3.003   6.442 -0.4608  0.2457  0.5641
  725MOL0     C95588   7.381   3.118   6.365 -0.1109  0.8179  0.1110
  725MOL0     C95589   7.253   3.171   6.448 -0.0571  0.2468 -1.3336
  725MOL0     C95590   7.172   3.274   6.394  0.2332 -0.0698  0.1538
  725MOL0     C95591   7.241   3.417   6.412 -0.0906  0.0054 -0.4802
  725MOL0     O95592   7.256   3.467   6.548 -0.1412  0.0801  0.0365
  725MOL0     C95593   7.150   3.525   6.607  0.5503 -0.9034 -0.1772
  725MOL0     C95594   7.071   3.620   6.544  0.0963 -1.2812  0.3722
  725MOL0     C95595   6.978   3.686   6.613  0.8695 -0.3022 -1.1310
  725MOL0     C95596   6.948   3.655   6.748 -0.3554  0.3126 -0.5170
  725MOL0     C95597   6.842   3.713   6.823 -0.0127 -0.2700  1.3696
  725MOL0     O95598   6.751   3.775   6.745  0.8069  0.4049  0.6976
  725MOL0     C95599   6.637   3.826   6.805 -0.1675  0.9576 -0.3415
  725MOL0     C95600   6.653   3.936   6.879 -0.0632  0.0386  0.2222
  725MOL0     C95601   6.544   4.004   6.935 -0.1207  0.1112  0.4056
  725MOL0     C95602   6.420   3.932   6.936  0.8704 -1.1801 -0.9703
  725MOL0     O95603   6.306   3.968   7.002  0.8851 -0.0171 -0.5671
  725MOL0     C95604   6.320   4.081   7.093 -0.0309  0.4183 -0.7219
  725MOL0     C95605   6.199   4.075   7.199 -0.4252 -0.5324  0.3483
  725MOL0     C95606   6.060   4.069   7.136 -0.6523  0.3780 -1.0088
  725MOL0     C95607   5.968   4.009   7.241  0.1716  0.5396  0.9749
  725MOL0     C95608   5.825   4.036   7.205  0.4301 -0.1253 -0.5051
  725MOL0     C95609   5.790   4.188   7.233  0.5149  0.3248  0.5482
  725MOL0     C95610   5.644   4.242   7.209  0.3189  0.2621  0.2313
  725MOL0     C95611   5.534   4.153   7.273  0.7777  0.5267 -1.0461
  725MOL0    Cl95612   5.375   4.197   7.225  0.0027  0.5566  0.0596
  725MOL0     C95613   6.405   3.818   6.855  0.3745 -0.1243  0.9718
  725MOL0     C95614   6.516   3.765   6.784  0.7691  0.1390  0.3817
  725MOL0     O95615   6.846   3.710   6.938 -0.1798 -0.2722 -0.3101
  725MOL0     C95616   7.022   3.554   6.813  0.1347  1.1359 -0.1736
  725MOL0     C95617   7.124   3.496   6.739  0.1867  1.0374  0.7158
  725MOL0     N95618   7.381   2.882   6.478  0.4861 -0.9996  0.1763
  725MOL0     N95619   7.466   2.804   6.531  0.7191  0.2346 -0.6537
  725MOL0     C95620   8.625   2.467   6.747  0.3449  0.1517 -0.3321
  725MOL0     C95621   8.722   2.449   6.847  0.1411  0.2437 -0.0680
  725MOL0     C95622   8.999   2.335   7.169 -0.1358  1.0444 -0.5224
  725MOL0     C95623   9.116   2.399   7.218 -0.8708 -0.6525  0.0651
  725MOL0     C95624   9.185   2.340   7.319  0.1420 -0.4155 -0.4384
  725MOL0     C95625   9.170   2.210   7.363  0.3373 -0.1567 -0.3267
  725MOL0     O95626   9.249   2.138   7.449  0.1880  0.2705  0.3184
  725MOL0     C95627   9.375   2.192   7.492 -0.7844  1.0439 -0.3164
  725MOL0     C95628   9.460   2.069   7.531 -0.7597 -0.0841 -0.7600
  725MOL0     C95629   9.592   2.100   7.601  0.7099 -0.0289  0.0561
  725MOL0     C95630   9.669   1.963   7.626  0.2464 -0.0686  0.3489
  725MOL0     C95631   9.794   2.009   7.683  0.3917  0.2662 -0.8834
  725MOL0     C95632   9.895   2.041   7.744  0.4258  0.8983  0.7311
  725MOL0     C95633   9.062   2.149   7.313  0.1754  0.2548  0.7741
  725MOL0     C95634   8.964   2.217   7.231 -0.2217  0.8586 -0.7125
  725MOL0     H95635   8.568   2.270   7.074  0.7168  0.2426  0.8663
  725MOL0     H95636   8.365   2.321   6.919 -0.5372  1.5202 -0.0479
  725MOL0     H95637   8.488   2.494   6.483  0.1210  0.0854  0.1725
  725MOL0     H95638   8.420   2.624   6.589 -3.3941  0.5494  1.0818
  725MOL0     H95639   8.277   2.387   6.444 -1.1648 -0.7892  0.4332
  725MOL0     H95640   8.319   2.539   6.367 -1.6957 -2.0372 -1.7683
  725MOL0     H95641   8.184   2.629   6.607 -1.2054 -1.6743  2.3051
  725MOL0     H95642   8.108   2.477   6.586 -1.4290  2.9764  3.4778
  725MOL0     H95643   8.139   2.667   6.348 -0.7841  1.0544  0.6977
  725MOL0     H95644   8.045   2.522   6.352 -0.8553  1.7138 -2.3441
  725MOL0     H95645   7.931   2.761   6.385  2.8715  0.4467 -1.0926
  725MOL0     H95646   8.005   2.754   6.546 -0.9333  0.1206  0.5646
  725MOL0     H95647   7.879   2.560   6.608 -0.4833  1.6745 -0.0263
  725MOL0     H95648   7.856   2.503   6.447  2.8808 -1.3524  1.8698
  725MOL0     H95649   7.695   2.685   6.396 -0.3011 -3.9330  0.1289
  725MOL0     H95650   7.644   2.599   6.530  0.4291 -0.3798 -0.6952
  725MOL0     H95651   7.799   2.853   6.557  0.8347 -1.4231 -1.1618
  725MOL0     H95652   7.716   2.761   6.676 -0.5581 -1.6326 -0.5508
  725MOL0     H95653   7.648   3.072   6.457 -1.1375  1.3359  0.0344
  725MOL0     H95654   7.349   3.076   6.269  0.0987 -1.7219  1.0839
  725MOL0     H95655   7.449   3.203   6.354 -1.8597  2.1797 -0.7890
  725MOL0     H95656   7.301   3.218   6.534  1.2766 -2.8790 -0.1885
  725MOL0     H95657   7.191   3.086   6.480  0.5210  1.0822  2.6286
  725MOL0     H95658   7.145   3.261   6.289  1.2549 -1.0935 -0.0009
  725MOL0     H95659   7.080   3.268   6.454  2.5730 -0.2025  4.0806
  725MOL0     H95660   7.192   3.486   6.343  1.5190  0.0910 -1.5877
  725MOL0     H95661   7.338   3.409   6.362  0.0732  2.3757 -0.6461
  725MOL0     H95662   7.078   3.633   6.437 -2.9973  2.0446  0.3673
  725MOL0     H95663   6.925   3.769   6.568  0.5627  1.8525  2.7256
  725MOL0     H95664   6.748   3.988   6.870  1.1812 -2.3970 -2.2333
  725MOL0     H95665   6.558   4.104   6.976 -3.5817  0.0428  2.0982
  725MOL0     H95666   6.323   4.178   7.042 -2.3798  1.0903  0.2828
  725MOL0     H95667   6.410   4.070   7.154 -0.1325  0.9645 -0.4724
  725MOL0     H95668   6.209   4.161   7.267 -0.6236  0.6345 -1.0424
  725MOL0     H95669   6.213   3.982   7.254 -0.5536  0.0306  1.3679
  725MOL0     H95670   6.058   3.997   7.053 -1.5402 -2.5160  1.3665
  725MOL0     H95671   6.029   4.170   7.107  2.2110  0.9619 -2.4133
  725MOL0     H95672   5.973   3.900   7.233 -2.7199  0.4582 -3.3301
  725MOL0     H95673   6.004   4.041   7.339  3.6638  0.0797 -0.0148
  725MOL0     H95674   5.769   3.978   7.278  0.1261 -0.5829 -1.0962
  725MOL0     H95675   5.798   4.002   7.105 -1.9770  0.0392  0.0439
  725MOL0     H95676   5.861   4.249   7.177  0.7314 -0.1573  0.2859
  725MOL0     H95677   5.807   4.207   7.339  0.5149  1.6066  0.3371
  725MOL0     H95678   5.643   4.342   7.252 -0.1299 -0.6554  2.4697
  725MOL0     H95679   5.624   4.256   7.102  2.2750 -0.6576 -0.2944
  725MOL0     H95680   5.542   4.170   7.381 -0.2103  1.8285 -1.1493
  725MOL0     H95681   5.539   4.045   7.257 -0.3789  0.0286  1.4309
  725MOL0     H95682   6.302   3.787   6.847  0.4324  0.0154 -0.5479
  725MOL0     H95683   6.511   3.671   6.730  3.9128 -0.7356  1.3933
  725MOL0     H95684   6.980   3.517   6.907 -3.0966  0.0335 -1.8822
  725MOL0     H95685   7.190   3.422   6.785 -2.3288 -0.9764  1.3352
  725MOL0     H95686   8.645   2.514   6.652 -1.1056  2.7209  0.5274
  725MOL0     H95687   8.822   2.486   6.827  0.1043 -0.8875 -2.7178
  725MOL0     H95688   9.151   2.494   7.177 -0.5682 -0.8420 -0.1146
  725MOL0     H95689   9.265   2.400   7.362  0.8697 -1.7670  0.1621
  725MOL0     H95690   9.358   2.255   7.580 -1.9800 -1.3220  1.2322
  725MOL0     H95691   9.422   2.245   7.408  1.1237 -1.0926 -0.6803
  725MOL0     H95692   9.408   1.994   7.591  2.4623 -1.4199  0.6405
  725MOL0     H95693   9.486   2.013   7.441 -2.7330 -1.9668 -0.2382
  725MOL0     H95694   9.579   2.156   7.695 -0.4614  0.4331 -0.3524
  725MOL0     H95695   9.651   2.160   7.532  2.8055 -1.7113  0.2939
  725MOL0     H95696   9.623   1.894   7.697 -0.0622 -0.9065 -0.6531
  725MOL0     H95697   9.693   1.913   7.532 -1.9262 -2.4981  0.9836
  725MOL0     H95698   9.973   2.085   7.803 -1.4107  0.1431  3.9402
  725MOL0     H95699   9.037   2.046   7.335 -0.6436  0.1735 -0.4477
  725MOL0     H95700   8.875   2.160   7.209  1.5977 -1.7620 -1.7897
  726MOL0     O95701   0.782   5.774   9.731 -0.5711 -0.4580 -0.9224
  726MOL0     C95702   0.882   5.706   9.761  0.2772 -0.2358  0.5710
  726MOL0     O95703   0.914   5.586   9.704 -0.2565  0.2493 -1.1391
  726MOL0     C95704   0.815   5.519   9.645 -0.1131 -0.0806 -0.2723
  726MOL0     C95705   0.822   5.487   9.516 -0.1716  0.6771  0.2382
  726MOL0     C95706   0.726   5.402   9.454 -0.3935  0.8351 -0.7823
  726MOL0     C95707   0.642   5.322   9.530 -1.1551 -0.6358 -0.5854
  726MOL0     O95708   0.559   5.225   9.490  0.2866  0.6446  1.2168
  726MOL0     C95709   0.512   5.245   9.357  0.5324  1.1112  0.1274
  726MOL0     C95710   0.405   5.139   9.324 -0.2761  0.5350 -0.3348
  726MOL0     C95711   0.273   5.148   9.398  0.3239 -0.0777  0.3674
  726MOL0     C95712   0.175   5.034   9.361 -0.2691  0.8003 -0.0922
  726MOL0     C95713   0.096   5.051   9.233  0.1542 -0.2481 -0.0254
  726MOL0     C95714  -0.017   4.949   9.223 -0.1757  0.0485 -0.6463
  726MOL0     C95715  -0.084   4.959   9.086  0.3749 -0.5171  0.0828
  726MOL0     C95716  -0.204   5.060   9.102 -0.3264 -0.7962  0.1686
  726MOL0     N95717  -0.268   5.076   8.969  0.2285 -0.2509 -0.3857
  726MOL0     C95718  -0.393   5.046   8.942 -0.1301  0.1920 -0.2972
  726MOL0     C95719  -0.406   5.039   8.805 -0.8110 -0.2830  0.2994
  726MOL0     C95720  -0.533   5.009   8.735  0.3288 -0.8990 -0.7672
  726MOL0     C95721  -0.631   5.124   8.772  0.4759 -0.2743  0.1096
  726MOL0     C95722  -0.767   5.083   8.721  0.3838  0.1647  0.1254
  726MOL0     C95723  -0.844   5.212   8.710  0.0795  0.2276  0.1856
  726MOL0     O95724  -0.989   5.193   8.693  0.0271  0.0380 -0.4813
  726MOL0     C95725  -1.066   5.304   8.692  0.5719  0.5206  1.0414
  726MOL0     C95726  -1.018   5.436   8.698 -0.4473 -0.0150  0.1354
  726MOL0     C95727  -1.103   5.545   8.682 -0.6701 -0.0727  0.0859
  726MOL0     C95728  -1.246   5.526   8.664  0.2016  0.0570 -0.2904
  726MOL0     C95729  -1.336   5.655   8.657 -0.0701  1.5725  0.4739
  726MOL0     O95730  -1.468   5.646   8.602  0.6129 -0.1779  0.1198
  726MOL0     C95731  -1.559   5.755   8.615  0.5044  0.2367 -0.2964
  726MOL0     C95732  -1.582   5.829   8.733  0.5755  0.1119 -0.2911
  726MOL0     C95733  -1.679   5.929   8.745  0.3487  0.4302  0.1807
  726MOL0     C95734  -1.749   5.962   8.626  0.3827  0.1442 -0.6691
  726MOL0     O95735  -1.831   6.069   8.636  0.1545 -0.4674 -1.0358
  726MOL0     C95736  -1.945   6.061   8.555  0.1031  0.1513  0.0806
  726MOL0     C95737  -2.060   6.157   8.609 -0.0938 -0.1908 -0.5995
  726MOL0     C95738  -2.188   6.189   8.531  0.5677 -0.4311 -0.3791
  726MOL0     C95739  -2.288   6.260   8.623  0.3718 -0.1982  0.5902
  726MOL0     C95740  -2.409   6.310   8.528 -0.6402  0.2226 -1.5198
  726MOL0     C95741  -2.530   6.338   8.614 -1.0246  0.0480 -0.3582
  726MOL0     C95742  -2.640   6.392   8.528  0.2213  0.1906 -0.8507
  726MOL0     C95743  -2.750   6.422   8.624 -0.5332  0.3443  0.1749
  726MOL0    Cl95744  -2.827   6.278   8.707  0.0055  0.1766 -0.3481
  726MOL0     C95745  -1.726   5.899   8.504  0.5178 -0.5371 -0.1634
  726MOL0     C95746  -1.630   5.796   8.503  0.4200  0.4820 -0.2566
  726MOL0     O95747  -1.284   5.754   8.707 -0.1415 -0.1644  0.5258
  726MOL0     C95748  -1.294   5.395   8.649 -0.3620  0.0754  0.2232
  726MOL0     C95749  -1.205   5.293   8.667 -0.2310 -0.1998 -0.2061
  726MOL0     N95750  -0.281   5.073   8.752 -0.4735 -0.0831 -0.5725
  726MOL0     N95751  -0.202   5.094   8.848  0.3735  0.4899 -0.1283
  726MOL0     C95752   0.643   5.353   9.672  1.0131 -0.5946  0.0325
  726MOL0     C95753   0.728   5.452   9.725  0.2966  0.3112 -0.3639
  726MOL0     C95754   0.988   5.775   9.833 -0.1322  0.0769  0.3473
  726MOL0     C95755   1.076   5.699   9.915 -1.0712  0.1292  0.3737
  726MOL0     C95756   1.190   5.761   9.971  0.5313 -0.2764 -0.6634
  726MOL0     C95757   1.232   5.892   9.946  0.5011  0.7696  0.2614
  726MOL0     O95758   1.354   5.927  10.000  0.1270  0.1864  0.1818
  726MOL0     C95759   1.408   6.054  10.000  0.0792 -0.0962  0.0090
  726MOL0     C95760   1.531   6.061   9.907  0.6969  1.2709 -0.3436
  726MOL0     C95761   1.599   6.194   9.900 -0.6878 -0.5757  0.1896
  726MOL0     C95762   1.621   6.249  10.041  0.6169  0.1909 -0.2063
  726MOL0     C95763   1.685   6.380  10.035  0.6156 -0.0632  0.0634
  726MOL0     C95764   1.738   6.487  10.021  0.2519 -0.3219  0.5311
  726MOL0     C95765   1.143   5.959   9.860  0.7027 -0.1481  0.2702
  726MOL0     C95766   1.021   5.905   9.821  0.1683  0.3220 -0.0604
  726MOL0     H95767   0.886   5.532   9.441  1.7099 -2.5615 -0.3039
  726MOL0     H95768   0.728   5.379   9.348  1.3378 -2.1109 -0.2230
  726MOL0     H95769   0.588   5.239   9.278 -0.7110 -1.3629 -0.9864
  726MOL0     H95770   0.475   5.347   9.344 -5.2173 -0.7045 -0.5290
  726MOL0     H95771   0.453   5.043   9.347 -0.6012  0.4617  0.0526
  726MOL0     H95772   0.384   5.135   9.217 -0.9540 -0.5923 -0.1796
  726MOL0     H95773   0.228   5.247   9.381  2.4741  0.7966 -0.5949
  726MOL0     H95774   0.301   5.144   9.503 -1.3418 -2.8314  0.8209
  726MOL0     H95775   0.220   4.934   9.364 -1.3498 -0.1241 -4.9866
  726MOL0     H95776   0.102   5.043   9.441 -0.3092 -0.6470  0.0646
  726MOL0     H95777   0.159   5.056   9.143  2.5837 -0.2730  1.5800
  726MOL0     H95778   0.051   5.151   9.237  1.1272  0.1909  0.3225
  726MOL0     H95779  -0.084   4.956   9.309  1.1493 -0.0200  0.4355
  726MOL0     H95780   0.039   4.858   9.244  1.4205  1.6249  2.7314
  726MOL0     H95781  -0.020   4.994   9.004  0.6788 -2.0676 -0.3753
  726MOL0     H95782  -0.126   4.859   9.067  3.9278 -2.1901  0.2793
  726MOL0     H95783  -0.186   5.163   9.135 -3.6924  0.7264 -2.1762
  726MOL0     H95784  -0.270   5.004   9.169 -0.6428 -0.8243 -0.1665
  726MOL0     H95785  -0.477   5.016   9.003 -2.3452  5.2940 -0.3660
  726MOL0     H95786  -0.569   4.913   8.773  0.6384 -0.3980  0.8684
  726MOL0     H95787  -0.510   5.005   8.628  2.1022  1.6000 -0.5777
  726MOL0     H95788  -0.581   5.213   8.732  1.6137 -0.9131  0.0785
  726MOL0     H95789  -0.637   5.129   8.881  1.1303  0.1566  0.1340
  726MOL0     H95790  -0.757   5.030   8.626 -2.0553  1.1292 -0.7773
  726MOL0     H95791  -0.815   5.011   8.788  1.1433  0.5576  1.1063
  726MOL0     H95792  -0.797   5.264   8.626  0.7417 -5.0607 -3.2159
  726MOL0     H95793  -0.826   5.264   8.805 -1.3802  1.7861 -0.3408
  726MOL0     H95794  -0.917   5.465   8.725 -1.2377 -0.4022  4.0515
  726MOL0     H95795  -1.064   5.644   8.701 -0.6002 -0.5078  2.4179
  726MOL0     H95796  -1.531   5.806   8.826  1.3014  2.2669 -0.0934
  726MOL0     H95797  -1.677   6.002   8.826  2.1402  1.0339 -0.3580
  726MOL0     H95798  -1.981   5.958   8.550 -0.6812  0.4519 -0.4845
  726MOL0     H95799  -1.909   6.089   8.456  1.7619  1.6190  1.0324
  726MOL0     H95800  -2.020   6.257   8.627  1.0944 -1.1380  2.6749
  726MOL0     H95801  -2.079   6.129   8.713  2.4951  0.8287  0.2478
  726MOL0     H95802  -2.234   6.096   8.495  3.0557 -2.2910  0.9163
  726MOL0     H95803  -2.151   6.256   8.453  3.4564 -0.7257  0.5956
  726MOL0     H95804  -2.323   6.179   8.687  0.1534 -0.5269  0.0656
  726MOL0     H95805  -2.247   6.345   8.677  0.4432 -0.7775  1.4596
  726MOL0     H95806  -2.435   6.249   8.441 -0.6514  0.4253 -1.6577
  726MOL0     H95807  -2.372   6.403   8.484 -1.1196  0.1781 -2.0220
  726MOL0     H95808  -2.502   6.424   8.676 -0.8833  1.3046 -2.1038
  726MOL0     H95809  -2.554   6.246   8.669  1.1960 -0.9122 -0.8781
  726MOL0     H95810  -2.607   6.488   8.485 -0.5981 -0.8599 -4.1201
  726MOL0     H95811  -2.668   6.317   8.454  0.0786 -0.8332  0.2342
  726MOL0     H95812  -2.825   6.476   8.567  0.7226  0.9267 -0.9762
  726MOL0     H95813  -2.709   6.494   8.696  0.8415 -1.5923  1.4176
  726MOL0     H95814  -1.775   5.943   8.417  0.0482 -2.1331 -0.7424
  726MOL0     H95815  -1.588   5.756   8.411  4.0793  0.2138  1.3522
  726MOL0     H95816  -1.398   5.386   8.619  0.7399  0.3772 -4.4752
  726MOL0     H95817  -1.240   5.193   8.645  3.1076 -1.1212 -2.0597
  726MOL0     H95818   0.578   5.297   9.739  0.5980  0.7618  0.7996
  726MOL0     H95819   0.737   5.446   9.833  0.5748 -0.4213 -0.4229
  726MOL0     H95820   1.080   5.592   9.935  0.3601  0.2651  0.9712
  726MOL0     H95821   1.256   5.708  10.039 -0.2085  1.0756  1.1784
  726MOL0     H95822   1.424   6.077  10.106  0.5900 -0.8672  0.1116
  726MOL0     H95823   1.338   6.126   9.957  1.9811  1.7501 -0.1695
  726MOL0     H95824   1.595   5.972   9.917  3.6761  3.1945 -1.0863
  726MOL0     H95825   1.506   6.061   9.800 -0.4769  2.5327 -0.0963
  726MOL0     H95826   1.527   6.265   9.857 -0.4875 -1.3327 -1.4551
  726MOL0     H95827   1.692   6.189   9.842 -0.9896 -1.2411 -0.2558
  726MOL0     H95828   1.527   6.258  10.094  0.2126 -2.2465 -0.4207
  726MOL0     H95829   1.680   6.178  10.099 -0.3253  1.1053  1.9691
  726MOL0     H95830   1.790   6.580  10.012 -0.0738  0.0682  2.3833
  726MOL0     H95831   1.159   6.062   9.827  2.2854  0.3527  2.3862
  726MOL0     H95832   0.949   5.969   9.771 -2.4747 -0.7642  2.1261
  727MOL0     O95833   7.731   4.324   0.474  0.0412  0.4778  0.0264
  727MOL0     C95834   7.781   4.321   0.357 -0.5754 -0.0124 -0.8822
  727MOL0     O95835   7.721   4.261   0.251  0.0932 -0.0091  0.0997
  727MOL0     C95836   7.594   4.207   0.266 -0.0127  0.7734  0.3381
  727MOL0     C95837   7.569   4.083   0.213  0.1768  1.4978 -0.5679
  727MOL0     C95838   7.440   4.024   0.203  0.0613  0.3496  0.3128
  727MOL0     C95839   7.332   4.084   0.264 -0.3306  0.1447  0.1638
  727MOL0     O95840   7.210   4.016   0.267 -0.0269  1.0292  0.4297
  727MOL0     C95841   7.125   4.009   0.381 -0.1957 -0.8862  0.8284
  727MOL0     C95842   6.990   3.965   0.314  0.2199 -0.1481 -0.0265
  727MOL0     C95843   6.895   3.935   0.431  0.2903 -0.4113  0.4450
  727MOL0     C95844   6.774   3.855   0.373 -0.4124 -0.1791  0.0644
  727MOL0     C95845   6.654   3.835   0.470  0.1573  0.1662  0.0152
  727MOL0     C95846   6.560   3.959   0.485 -0.7588  1.0487 -0.0113
  727MOL0     C95847   6.413   3.923   0.488  0.2298 -0.2857  0.4069
  727MOL0     C95848   6.375   3.818   0.595 -0.3639  0.6526 -0.6833
  727MOL0     N95849   6.238   3.838   0.632  0.2013 -0.8153  0.7615
  727MOL0     C95850   6.130   3.757   0.605 -0.7068  0.6616  0.7592
  727MOL0     C95851   6.025   3.805   0.681 -0.0126  0.5631  0.2470
  727MOL0     C95852   5.886   3.747   0.683 -1.0962 -0.3432  0.7184
  727MOL0     C95853   5.776   3.817   0.766  0.4174 -0.4673  0.7915
  727MOL0     C95854   5.654   3.715   0.773 -0.1881 -0.4058 -0.7964
  727MOL0     C95855   5.549   3.765   0.874  0.1760  0.8162  0.7193
  727MOL0     O95856   5.469   3.646   0.910  0.3374  0.2695 -0.3326
  727MOL0     C95857   5.333   3.670   0.917 -0.1722  0.1481  0.1835
  727MOL0     C95858   5.250   3.566   0.866 -0.5814  0.0622 -0.3753
  727MOL0     C95859   5.114   3.573   0.884 -0.5107  1.0653  0.5937
  727MOL0     C95860   5.057   3.694   0.937 -0.6941  0.8601  0.0943
  727MOL0     C95861   4.913   3.709   0.940  0.2118  0.5473 -0.3664
  727MOL0     O95862   4.857   3.813   1.014 -0.5882 -0.1553  0.8938
  727MOL0     C95863   4.717   3.828   1.019  0.0796 -0.1707 -0.3124
  727MOL0     C95864   4.637   3.729   1.072 -0.3344  0.0960  0.1158
  727MOL0     C95865   4.493   3.738   1.055  0.6729 -0.1914  0.3128
  727MOL0     C95866   4.437   3.853   1.003 -0.8692  0.0795 -1.1054
  727MOL0     O95867   4.300   3.862   0.989 -0.7614 -1.1852  0.3956
  727MOL0     C95868   4.227   3.836   1.115  0.6934 -0.0533 -0.7208
  727MOL0     C95869   4.134   3.708   1.098 -1.4887 -0.0799 -0.0267
  727MOL0     C95870   4.045   3.723   0.979 -0.3025  0.0453 -0.1072
  727MOL0     C95871   3.972   3.595   0.942 -0.9985 -0.0030 -1.2273
  727MOL0     C95872   3.843   3.628   0.873  0.2404 -0.7658  0.4066
  727MOL0     C95873   3.843   3.586   0.727  0.5424  0.0768  0.7230
  727MOL0     C95874   3.713   3.591   0.652  1.9709  0.8794  1.1376
  727MOL0     C95875   3.604   3.479   0.683 -0.7205  0.2117  1.2976
  727MOL0    Cl95876   3.703   3.327   0.657  0.1358 -0.2363  0.0421
  727MOL0     C95877   4.519   3.960   0.949 -0.5226  0.4685 -0.2191
  727MOL0     C95878   4.658   3.940   0.960  0.0165 -0.2814  0.4005
  727MOL0     O95879   4.841   3.631   0.882  0.0436  0.1278  0.0651
  727MOL0     C95880   5.137   3.797   0.970 -0.8078  0.1548  1.1148
  727MOL0     C95881   5.273   3.792   0.959 -0.7648  0.3140  0.3551
  727MOL0     N95882   6.068   3.901   0.765  0.4992  0.2139 -0.1313
  727MOL0     N95883   6.193   3.920   0.733  0.3813  0.2408  0.5695
  727MOL0     C95884   7.350   4.212   0.322 -0.1575  0.3699 -0.2445
  727MOL0     C95885   7.479   4.266   0.328 -0.9944  0.0806 -0.3744
  727MOL0     C95886   7.911   4.402   0.336  0.1982 -0.7225 -0.2195
  727MOL0     C95887   7.994   4.440   0.452  0.6382  0.5044  0.0141
  727MOL0     C95888   8.125   4.487   0.423  0.2764 -0.6205 -0.5991
  727MOL0     C95889   8.177   4.502   0.293 -0.9398 -0.5024  0.9136
  727MOL0     O95890   8.303   4.561   0.269  0.5111 -0.3269  0.4872
  727MOL0     C95891   8.371   4.636   0.364  0.2892  0.0950 -1.1103
  727MOL0     C95892   8.310   4.767   0.402  0.2718 -0.1379 -0.5271
  727MOL0     C95893   8.310   4.869   0.275 -0.8717 -0.6386  0.4712
  727MOL0     C95894   8.446   4.895   0.209  0.2416  0.3338 -1.0555
  727MOL0     C95895   8.547   4.914   0.320 -0.6843  0.1058  0.4893
  727MOL0     C95896   8.629   4.942   0.399  0.4526 -0.8200 -0.9024
  727MOL0     C95897   8.101   4.458   0.182 -0.3540  0.3686 -0.0671
  727MOL0     C95898   7.963   4.416   0.208 -0.0229 -0.0287  0.0795
  727MOL0     H95899   7.657   4.032   0.178 -0.9273 -0.7021 -0.2932
  727MOL0     H95900   7.420   3.935   0.144  0.5935  1.6105 -1.9133
  727MOL0     H95901   7.110   4.104   0.432  0.9274  1.0554 -2.1935
  727MOL0     H95902   7.158   3.930   0.449 -2.2846 -2.6879 -0.1006
  727MOL0     H95903   7.014   3.879   0.251 -1.2744 -1.7204  1.4392
  727MOL0     H95904   6.951   4.044   0.250  0.5125 -1.1637 -1.5097
  727MOL0     H95905   6.852   4.023   0.480 -2.8511 -3.3666  3.5003
  727MOL0     H95906   6.937   3.883   0.518  1.4680  0.0597  0.1846
  727MOL0     H95907   6.741   3.895   0.277 -0.1142 -1.9497 -0.8134
  727MOL0     H95908   6.803   3.750   0.361 -1.0511 -0.4025  0.4448
  727MOL0     H95909   6.693   3.810   0.570  1.2923  1.3315 -0.1024
  727MOL0     H95910   6.605   3.754   0.416  1.3877 -1.7087  1.5550
  727MOL0     H95911   6.576   4.026   0.400  1.8905  0.0822 -0.3832
  727MOL0     H95912   6.584   4.010   0.579 -1.7502  1.5534 -0.0229
  727MOL0     H95913   6.363   4.017   0.513  2.2943  0.9668 -0.0092
  727MOL0     H95914   6.372   3.885   0.394 -1.0427 -2.2266  1.6590
  727MOL0     H95915   6.442   3.833   0.680 -1.5685  0.5345  0.3237
  727MOL0     H95916   6.396   3.719   0.553  3.9530  0.9691  0.2252
  727MOL0     H95917   6.136   3.661   0.555 -2.5249  1.6823 -1.6109
  727MOL0     H95918   5.890   3.639   0.701 -1.3954 -0.6339 -0.8017
  727MOL0     H95919   5.840   3.745   0.583 -3.3304  1.0620  1.6313
  727MOL0     H95920   5.746   3.912   0.722 -0.9240 -0.9976  0.5208
  727MOL0     H95921   5.810   3.842   0.867  2.7885  0.0581 -0.0531
  727MOL0     H95922   5.618   3.689   0.673 -2.2115  0.8871 -0.4482
  727MOL0     H95923   5.691   3.621   0.816  0.8892 -0.6887 -2.2381
  727MOL0     H95924   5.491   3.841   0.821  1.4026  0.4586 -1.2521
  727MOL0     H95925   5.595   3.816   0.959  0.3327  1.4741  0.2491
  727MOL0     H95926   5.301   3.474   0.836 -1.1551 -1.6690  3.3803
  727MOL0     H95927   5.046   3.499   0.843 -1.6002  1.9286  0.7962
  727MOL0     H95928   4.678   3.642   1.121  2.0840  0.7780 -0.5658
  727MOL0     H95929   4.432   3.654   1.084  1.6774 -1.1247 -0.2114
  727MOL0     H95930   4.159   3.916   1.145 -0.7522 -1.2382 -0.6966
  727MOL0     H95931   4.299   3.824   1.196  0.6438  1.4942 -0.4123
  727MOL0     H95932   4.064   3.690   1.180 -0.7573  2.2840  1.2124
  727MOL0     H95933   4.201   3.624   1.080 -2.1480 -0.7342  0.4914
  727MOL0     H95934   4.108   3.757   0.896  0.4535  1.7494  1.1166
  727MOL0     H95935   3.986   3.808   1.013 -1.6426  0.2794 -2.7613
  727MOL0     H95936   4.043   3.534   0.885 -1.2997 -1.1698 -0.3871
  727MOL0     H95937   3.954   3.541   1.035  1.1941  0.1760 -0.6366
  727MOL0     H95938   3.813   3.733   0.882 -1.1405 -1.0823 -0.1741
  727MOL0     H95939   3.759   3.578   0.921 -1.0487  1.7131  0.8787
  727MOL0     H95940   3.881   3.484   0.715 -2.5135 -1.0267 -0.5116
  727MOL0     H95941   3.898   3.661   0.669 -2.6459  1.4030 -0.8414
  727MOL0     H95942   3.666   3.687   0.678 -1.0327 -0.5126  1.3391
  727MOL0     H95943   3.732   3.599   0.545 -2.5804 -1.9303 -0.1675
  727MOL0     H95944   3.532   3.485   0.601  1.0058  2.3635 -0.1946
  727MOL0     H95945   3.555   3.481   0.781 -1.2917 -2.9058  1.1817
  727MOL0     H95946   4.464   4.044   0.909  2.8082  1.2496 -3.6871
  727MOL0     H95947   4.717   4.014   0.908 -1.2138  0.6346  0.2804
  727MOL0     H95948   5.094   3.893   0.998 -1.1038  0.3549  0.0213
  727MOL0     H95949   5.342   3.873   0.979  4.2774 -2.9101 -1.9943
  727MOL0     H95950   7.267   4.262   0.371 -0.1351 -1.1579  1.4638
  727MOL0     H95951   7.497   4.363   0.375 -1.4356  0.6449 -1.3393
  727MOL0     H95952   7.951   4.427   0.551  0.5287  0.8343  0.0094
  727MOL0     H95953   8.193   4.500   0.507  0.9752  0.0768 -1.2543
  727MOL0     H95954   8.468   4.648   0.315 -0.3481  0.4567 -2.3239
  727MOL0     H95955   8.381   4.579   0.457  2.0647 -1.9738 -2.4521
  727MOL0     H95956   8.208   4.753   0.440  0.7265 -3.2551 -0.1811
  727MOL0     H95957   8.372   4.805   0.484 -2.7442  1.2787  1.2707
  727MOL0     H95958   8.274   4.966   0.312 -0.1887 -0.0803 -0.2802
  727MOL0     H95959   8.235   4.830   0.207  1.6256  0.0297 -2.9217
  727MOL0     H95960   8.480   4.808   0.152  2.3839 -1.0671  2.0728
  727MOL0     H95961   8.438   4.986   0.150  1.6648  0.7838 -0.5988
  727MOL0     H95962   8.692   4.972   0.480 -0.1184  1.1386 -1.1234
  727MOL0     H95963   8.132   4.451   0.079 -0.6522  0.4570 -0.1629
  727MOL0     H95964   7.908   4.371   0.127  2.4932 -2.0602 -0.6543
  728MOL0     O95965   9.056   8.735  10.693  0.0723  0.0398  0.4300
  728MOL0     C95966   9.088   8.763  10.576  0.1186 -0.2767  0.9892
  728MOL0     O95967   9.005   8.802  10.476 -0.3694 -0.0719  0.3116
  728MOL0     C95968   8.873   8.803  10.483  0.3032 -0.2623 -0.6742
  728MOL0     C95969   8.801   8.687  10.524 -0.1594 -0.2579 -0.1340
  728MOL0     C95970   8.660   8.688  10.528 -0.2060  0.7104  0.4780
  728MOL0     C95971   8.579   8.794  10.481 -0.8558 -1.0276 -0.1339
  728MOL0     O95972   8.439   8.807  10.481  0.2562  0.0593 -0.9555
  728MOL0     C95973   8.357   8.699  10.526 -0.4636  1.1962 -0.3214
  728MOL0     C95974   8.218   8.756  10.529 -0.5268 -0.1564 -0.5984
  728MOL0     C95975   8.175   8.839  10.654 -1.2532  0.8674  0.3532
  728MOL0     C95976   8.020   8.853  10.667 -0.3472  0.5447 -0.2847
  728MOL0     C95977   7.939   8.723  10.690 -0.1169  0.4417  0.7722
  728MOL0     C95978   7.795   8.776  10.707 -0.0891 -0.3526  0.3589
  728MOL0     C95979   7.704   8.684  10.785 -0.0216  0.1134 -0.2934
  728MOL0     C95980   7.573   8.755  10.799 -0.3922  0.5040  0.0116
  728MOL0     N95981   7.480   8.663  10.863  0.1057  0.6019  0.5771
  728MOL0     C95982   7.400   8.573  10.793  0.7347  0.0583 -0.4434
  728MOL0     C95983   7.319   8.517  10.894  0.2872 -0.4284  0.4158
  728MOL0     C95984   7.228   8.403  10.881  0.7307 -0.3153 -0.0896
  728MOL0     C95985   7.077   8.441  10.877 -0.0824  0.6023 -0.0848
  728MOL0     C95986   7.030   8.518  10.756 -0.0211  0.5885 -0.0566
  728MOL0     C95987   6.877   8.537  10.762  0.3939 -0.1187 -0.7871
  728MOL0     O95988   6.839   8.590  10.891  0.6745  0.1138  0.1886
  728MOL0     C95989   6.722   8.554  10.948 -0.0773  0.4577 -0.4594
  728MOL0     C95990   6.718   8.567  11.085 -1.3400  0.0193  0.4387
  728MOL0     C95991   6.597   8.544  11.153 -0.8180  0.8969 -0.0638
  728MOL0     C95992   6.479   8.515  11.087 -0.2091 -0.5880  0.4933
  728MOL0     C95993   6.353   8.498  11.156  0.2805 -0.1310  0.3335
  728MOL0     O95994   6.247   8.462  11.084  0.3101  0.4917 -0.1555
  728MOL0     C95995   6.133   8.441  11.166 -0.4624 -0.0609  0.2825
  728MOL0     C95996   6.091   8.308  11.199 -0.3901 -0.0503  0.4627
  728MOL0     C95997   5.979   8.289  11.280  0.3798  0.9702 -0.0664
  728MOL0     C95998   5.897   8.399  11.315  0.5308 -0.5667 -0.0079
  728MOL0     O95999   5.772   8.375  11.373  0.2676 -0.5514 -0.4608
  728MOL0     C96000   5.763   8.259  11.454 -0.1346 -0.1516 -0.4354
  728MOL0     C96001   5.641   8.283  11.537 -0.3783 -1.1441  0.2960
  728MOL0     C96002   5.594   8.163  11.635  0.5527 -0.3579 -0.0964
  728MOL0     C96003   5.476   8.202  11.731 -0.0851 -1.1061 -0.6540
  728MOL0     C96004   5.466   8.093  11.844  0.8232  0.0092 -0.4370
  728MOL0     C96005   5.386   8.123  11.971 -0.0809  0.5066  0.6995
  728MOL0     C96006   5.260   8.202  11.943  0.1472  0.8411  0.7419
  728MOL0     C96007   5.195   8.236  12.077 -0.3485  0.3399 -0.2376
  728MOL0    Cl96008   5.104   8.102  12.169 -0.8180 -0.2070 -0.6341
  728MOL0     C96009   5.933   8.529  11.272 -0.1405 -0.4406 -0.7448
  728MOL0     C96010   6.054   8.553  11.203  1.0252 -0.3020 -0.2613
  728MOL0     O96011   6.353   8.529  11.272  0.0914  0.0725 -0.1335
  728MOL0     C96012   6.489   8.500  10.949 -1.6411 -0.2559 -0.5764
  728MOL0     C96013   6.608   8.529  10.883 -0.2861 -0.6404  0.4794
  728MOL0     N96014   7.338   8.587  11.009  0.2566 -0.5304  0.5988
  728MOL0     N96015   7.430   8.678  10.987  0.3265 -0.0635 -0.3816
  728MOL0     C96016   8.650   8.901  10.437 -0.0838  0.1659 -0.7376
  728MOL0     C96017   8.793   8.916  10.441  0.1242  0.5469 -0.6223
  728MOL0     C96018   9.234   8.754  10.557 -0.2987 -0.1263 -0.0995
  728MOL0     C96019   9.303   8.833  10.461  0.4197  0.0363 -0.0486
  728MOL0     C96020   9.441   8.824  10.446  0.2530  0.1536 -0.0294
  728MOL0     C96021   9.522   8.748  10.532  0.7779  0.1011 -0.1337
  728MOL0     O96022   9.652   8.748  10.505 -0.3449  0.2434  0.2299
  728MOL0     C96023   9.743   8.685  10.592  0.0256  0.1985 -0.6807
  728MOL0     C96024   9.873   8.685  10.519 -0.8777 -0.1130  0.9203
  728MOL0     C96025   9.988   8.604  10.595 -0.0187  0.6895 -0.2139
  728MOL0     C96026  10.115   8.600  10.507 -0.5758  0.8825 -0.6107
  728MOL0     C96027  10.238   8.529  10.560 -0.0164  0.2421 -0.4910
  728MOL0     C96028  10.325   8.471  10.628  0.2370  0.3790 -0.1326
  728MOL0     C96029   9.457   8.677  10.633 -0.3138  0.5126 -0.1490
  728MOL0     C96030   9.314   8.679  10.639 -0.9544 -0.1928 -0.0144
  728MOL0     H96031   8.850   8.598  10.562 -0.8981 -0.0195  1.4450
  728MOL0     H96032   8.601   8.610  10.576 -0.8279  0.2181 -1.0107
  728MOL0     H96033   8.372   8.645  10.620 -3.5501 -2.4461 -1.6761
  728MOL0     H96034   8.380   8.625  10.449  1.0128  2.7454 -1.4328
  728MOL0     H96035   8.163   8.662  10.536  0.3269 -0.6537 -0.4377
  728MOL0     H96036   8.188   8.815  10.441 -0.4141  1.1037  0.1791
  728MOL0     H96037   8.218   8.939  10.652 -1.6589  1.0710 -2.1771
  728MOL0     H96038   8.207   8.780  10.740 -1.4312 -1.8284 -1.3165
  728MOL0     H96039   8.010   8.932  10.741 -0.6601  3.2093 -2.9845
  728MOL0     H96040   7.984   8.895  10.573  2.3875  0.9707 -1.2174
  728MOL0     H96041   7.980   8.679  10.782 -0.0595 -0.1438  0.4652
  728MOL0     H96042   7.960   8.655  10.607 -1.6801  0.4334  0.3477
  728MOL0     H96043   7.754   8.807  10.610  0.0202 -3.1161 -0.6683
  728MOL0     H96044   7.795   8.863  10.773 -0.8670 -0.8448  1.0405
  728MOL0     H96045   7.686   8.593  10.727  1.6227 -0.1522 -0.4289
  728MOL0     H96046   7.766   8.661  10.872 -1.2558  2.5008  1.3519
  728MOL0     H96047   7.535   8.790  10.703  1.3383 -0.3707 -1.0380
  728MOL0     H96048   7.587   8.837  10.871 -0.3735 -0.8632  1.6131
  728MOL0     H96049   7.405   8.533  10.692 -0.9431 -2.0677  0.2296
  728MOL0     H96050   7.252   8.330  10.959  2.8946  1.3561  0.9193
  728MOL0     H96051   7.262   8.351  10.792  1.0505 -0.9807  0.4132
  728MOL0     H96052   7.076   8.499  10.971  1.0619 -2.7189  2.1657
  728MOL0     H96053   7.002   8.364  10.899 -0.3442  1.2148  1.2946
  728MOL0     H96054   7.085   8.612  10.765  0.0983  0.3400  3.1176
  728MOL0     H96055   7.057   8.463  10.665 -3.6078 -1.9807  0.2115
  728MOL0     H96056   6.842   8.433  10.758 -1.3973  0.4181 -0.0389
  728MOL0     H96057   6.850   8.595  10.674 -0.0480  0.7448 -0.0943
  728MOL0     H96058   6.802   8.602  11.145 -0.3197 -0.1283 -0.8434
  728MOL0     H96059   6.601   8.543  11.261 -3.5173 -1.8742  0.1516
  728MOL0     H96060   6.149   8.220  11.176 -0.6033 -0.9982  3.1358
  728MOL0     H96061   5.949   8.185  11.288 -0.1062  0.7181 -3.6033
  728MOL0     H96062   5.844   8.256  11.527 -0.6466  2.5692  0.3305
  728MOL0     H96063   5.760   8.178  11.380 -0.0337  2.0624 -3.0294
  728MOL0     H96064   5.552   8.310  11.480  0.0725 -0.6588 -0.1824
  728MOL0     H96065   5.674   8.364  11.602  0.5256 -0.6205 -0.7944
  728MOL0     H96066   5.677   8.135  11.702  0.3173 -0.7597  0.0308
  728MOL0     H96067   5.567   8.077  11.573 -4.3871 -0.4873  1.8127
  728MOL0     H96068   5.487   8.304  11.769 -1.2513 -0.7010 -1.3711
  728MOL0     H96069   5.385   8.222  11.674  0.9380 -1.6451 -2.5799
  728MOL0     H96070   5.560   8.074  11.896 -0.5854 -1.6097  1.6471
  728MOL0     H96071   5.427   8.004  11.793  2.0853 -1.3746  0.9141
  728MOL0     H96072   5.457   8.185  12.027  0.4007  1.5456 -0.9823
  728MOL0     H96073   5.364   8.031  12.027 -0.3200  0.0152 -0.1914
  728MOL0     H96074   5.284   8.291  11.883  1.8635 -0.5794 -0.8133
  728MOL0     H96075   5.190   8.137  11.889  0.5167 -0.7006  2.0660
  728MOL0     H96076   5.112   8.304  12.053 -1.9607 -0.6146  2.2606
  728MOL0     H96077   5.265   8.287  12.143 -1.0556 -2.6123  3.1287
  728MOL0     H96078   5.871   8.618  11.283  1.3337  0.4156  1.2766
  728MOL0     H96079   6.075   8.652  11.165  0.9138  0.2841  1.1597
  728MOL0     H96080   6.405   8.482  10.882  0.4180 -0.2936 -3.3007
  728MOL0     H96081   6.610   8.537  10.775 -1.0103 -0.8321  0.4470
  728MOL0     H96082   8.588   8.984  10.405 -0.8239  0.5452  1.5037
  728MOL0     H96083   8.834   9.007  10.399  0.8148 -0.0717 -1.3147
  728MOL0     H96084   9.256   8.913  10.405  3.5897  2.4227  0.4198
  728MOL0     H96085   9.479   8.890  10.368 -0.0961  3.3391  2.2702
  728MOL0     H96086   9.699   8.585  10.598 -3.2374  1.4202 -2.1030
  728MOL0     H96087   9.766   8.727  10.691 -3.6113  1.1684 -0.1082
  728MOL0     H96088   9.868   8.666  10.411  0.4534  0.6391  0.6922
  728MOL0     H96089   9.905   8.790  10.525 -2.1448  0.2681  1.3160
  728MOL0     H96090   9.956   8.505  10.630 -0.7597  1.6095  1.9032
  728MOL0     H96091  10.007   8.657  10.689 -1.7011  0.9906 -0.0085
  728MOL0     H96092  10.090   8.560  10.408 -0.0383  1.4107 -0.9707
  728MOL0     H96093  10.145   8.701  10.477  0.1410  0.0592 -2.9072
  728MOL0     H96094  10.403   8.443  10.695 -2.2022  1.3856  3.4002
  728MOL0     H96095   9.507   8.603  10.694 -2.8498 -0.7116  0.5618
  728MOL0     H96096   9.263   8.607  10.702 -0.2907  0.0089  0.7685
  729MOL0     O96097   7.129   6.172   6.712  0.4422  0.6951  0.5686
  729MOL0     C96098   7.168   6.176   6.829 -0.6977 -0.3365 -0.5681
  729MOL0     O96099   7.091   6.144   6.940 -0.4399 -0.6548  0.1512
  729MOL0     C96100   6.969   6.089   6.918  0.0580 -1.1572 -0.2125
  729MOL0     C96101   6.871   6.110   7.010 -1.0335 -0.4219  0.1534
  729MOL0     C96102   6.751   6.038   7.002 -0.5375  0.1210  0.2030
  729MOL0     C96103   6.729   5.937   6.917  0.3072  0.2259  0.2683
  729MOL0     O96104   6.605   5.871   6.926 -0.5405  0.1133  0.6542
  729MOL0     C96105   6.566   5.785   6.818 -0.3751 -0.3048  0.1224
  729MOL0     C96106   6.429   5.738   6.858 -0.5092  0.5307 -0.1326
  729MOL0     C96107   6.310   5.841   6.853  0.0178 -0.1135  0.5973
  729MOL0     C96108   6.179   5.783   6.925 -0.0050  0.7427 -0.3183
  729MOL0     C96109   6.186   5.804   7.079  0.8628 -0.6721 -0.5643
  729MOL0     C96110   6.144   5.947   7.116  0.7870  0.6608  0.8084
  729MOL0     C96111   6.138   5.973   7.265  0.4995  0.1240  0.1770
  729MOL0     C96112   6.019   5.915   7.331  0.0950  0.2877 -0.3945
  729MOL0     N96113   5.883   5.914   7.274  0.0673 -0.0821  0.6976
  729MOL0     C96114   5.804   6.024   7.257  0.4101 -0.6803  0.5840
  729MOL0     C96115   5.693   5.986   7.191  0.0158  0.2552 -0.0125
  729MOL0     C96116   5.566   6.056   7.158  0.5257  0.8298  0.1183
  729MOL0     C96117   5.468   6.078   7.280 -0.3422  0.1466  0.3715
  729MOL0     C96118   5.355   6.171   7.232  0.4243  0.8460 -0.3035
  729MOL0     C96119   5.214   6.149   7.303 -0.3689  0.2704 -0.1265
  729MOL0     O96120   5.181   6.005   7.295  0.2977  0.1366 -0.4981
  729MOL0     C96121   5.074   5.973   7.370 -0.0641  1.2647 -0.6448
  729MOL0     C96122   4.989   6.067   7.434 -0.2017  0.0110 -0.6385
  729MOL0     C96123   4.854   6.031   7.465 -0.1789 -0.7957  0.0072
  729MOL0     C96124   4.815   5.897   7.450 -0.2770  0.1658 -0.7266
  729MOL0     C96125   4.677   5.862   7.482  0.2639  0.1856  0.7105
  729MOL0     O96126   4.610   5.965   7.540  0.4016 -0.5037 -0.2189
  729MOL0     C96127   4.474   5.970   7.577 -0.4201  0.0141 -0.3884
  729MOL0     C96128   4.370   5.890   7.515 -0.1208  0.3449 -0.4455
  729MOL0     C96129   4.236   5.893   7.569 -0.2648 -0.2938 -0.4095
  729MOL0     C96130   4.210   5.975   7.676 -0.2781 -0.3920 -0.7138
  729MOL0     O96131   4.081   5.989   7.720  0.1192 -0.3135  0.4386
  729MOL0     C96132   4.031   6.101   7.793 -0.6443  0.7907  1.4190
  729MOL0     C96133   3.880   6.090   7.775  0.2039  0.0336  0.8085
  729MOL0     C96134   3.811   6.192   7.861  0.0406  1.0014  0.0663
  729MOL0     C96135   3.830   6.164   8.012 -0.2081  0.4564 -0.2477
  729MOL0     C96136   3.733   6.245   8.100  0.4347  0.1475  0.6292
  729MOL0     C96137   3.709   6.184   8.240 -0.2529  0.2620 -0.9526
  729MOL0     C96138   3.826   6.191   8.347 -0.6212 -0.1808 -0.1723
  729MOL0     C96139   3.788   6.125   8.474  0.0830 -0.3310 -0.1041
  729MOL0    Cl96140   3.895   6.166   8.617  0.9829 -0.0074 -0.2582
  729MOL0     C96141   4.310   6.048   7.742 -0.9420  0.0681 -0.1489
  729MOL0     C96142   4.435   6.048   7.691  0.5305 -0.2751 -0.8826
  729MOL0     O96143   4.621   5.749   7.453 -0.1590  0.3390 -0.0637
  729MOL0     C96144   4.908   5.798   7.395  0.6784 -0.6013 -0.0770
  729MOL0     C96145   5.033   5.842   7.363 -0.4668  1.1379 -0.3222
  729MOL0     N96146   5.711   5.849   7.170 -0.3289 -0.6725 -0.6382
  729MOL0     N96147   5.823   5.811   7.220  0.5160  0.2029  0.2834
  729MOL0     C96148   6.833   5.909   6.822  0.2658  0.4704 -0.1050
  729MOL0     C96149   6.953   5.980   6.831  0.0299 -0.3535  0.6310
  729MOL0     C96150   7.302   6.225   6.862 -0.0189  0.5099  0.5195
  729MOL0     C96151   7.391   6.263   6.766 -0.0929 -0.1983 -0.2917
  729MOL0     C96152   7.517   6.311   6.789 -0.2160  0.1127  0.3822
  729MOL0     C96153   7.556   6.335   6.919 -0.8585  0.4435  0.3608
  729MOL0     O96154   7.687   6.365   6.954  0.0159 -0.4031  0.2801
  729MOL0     C96155   7.778   6.409   6.848 -0.4748  0.2574  0.1690
  729MOL0     C96156   7.907   6.464   6.915  0.5100 -0.5555  0.2084
  729MOL0     C96157   8.002   6.527   6.805 -0.0710 -0.6388  0.4802
  729MOL0     C96158   8.145   6.548   6.847  0.7079  0.9900 -0.1528
  729MOL0     C96159   8.221   6.440   6.903 -0.5186  0.1191 -0.8267
  729MOL0     C96160   8.301   6.366   6.957 -0.8561 -0.4879 -0.1058
  729MOL0     C96161   7.464   6.319   7.021 -0.3524 -0.2280  0.6186
  729MOL0     C96162   7.334   6.259   6.995 -0.0924  0.0033  0.0286
  729MOL0     H96163   6.889   6.169   7.099 -1.3097  1.8161 -1.1968
  729MOL0     H96164   6.683   6.051   7.087  1.5222  1.9583  1.6898
  729MOL0     H96165   6.631   5.697   6.817 -1.2576 -0.9670 -0.3818
  729MOL0     H96166   6.548   5.842   6.726 -2.1737  1.1975  1.3482
  729MOL0     H96167   6.439   5.690   6.956  2.0715 -0.1444 -0.6722
  729MOL0     H96168   6.394   5.651   6.802 -1.4655  0.7394  0.1049
  729MOL0     H96169   6.288   5.853   6.747 -0.6553 -2.6427  0.3897
  729MOL0     H96170   6.325   5.936   6.905 -0.2280  0.3879 -0.2419
  729MOL0     H96171   6.087   5.828   6.886 -1.5324 -0.0561  2.1751
  729MOL0     H96172   6.184   5.676   6.903  1.1288  0.3362  1.7195
  729MOL0     H96173   6.288   5.776   7.105  0.5473 -0.8128  0.5904
  729MOL0     H96174   6.123   5.727   7.124  0.4840 -1.6916 -2.6890
  729MOL0     H96175   6.045   5.950   7.068  0.5737 -1.0961  1.0902
  729MOL0     H96176   6.209   6.023   7.071 -1.2023  0.0479 -3.6931
  729MOL0     H96177   6.225   5.928   7.314 -0.2203  0.1111  1.4971
  729MOL0     H96178   6.129   6.082   7.272  3.5439  0.3885  2.3736
  729MOL0     H96179   6.009   5.969   7.426 -0.8644 -0.4263 -0.0622
  729MOL0     H96180   6.044   5.811   7.357  1.4308  0.3475 -1.3682
  729MOL0     H96181   5.817   6.129   7.282 -0.1561 -0.4289 -0.1320
  729MOL0     H96182   5.501   6.003   7.088  1.9729 -1.7496  0.6222
  729MOL0     H96183   5.588   6.158   7.125  1.9089  0.7325  0.6970
  729MOL0     H96184   5.530   6.131   7.354  0.1196  1.2564 -0.7553
  729MOL0     H96185   5.444   5.975   7.307  1.2624 -0.1037  0.9873
  729MOL0     H96186   5.401   6.270   7.235  3.4487 -0.4445 -0.5522
  729MOL0     H96187   5.338   6.150   7.126  1.0548 -0.5948 -0.1445
  729MOL0     H96188   5.137   6.210   7.255 -0.7858  0.6719  1.0178
  729MOL0     H96189   5.215   6.188   7.405 -2.0328 -0.1088  0.0645
  729MOL0     H96190   5.004   6.175   7.438  0.1783 -0.0655  0.1187
  729MOL0     H96191   4.787   6.102   7.512  1.4012  1.3235 -0.7582
  729MOL0     H96192   4.396   5.834   7.426 -1.1781 -1.0287  0.0772
  729MOL0     H96193   4.155   5.843   7.516  0.0284 -1.1590 -0.0546
  729MOL0     H96194   4.073   6.192   7.749 -2.0225  0.6238 -0.3696
  729MOL0     H96195   4.060   6.092   7.898  1.5947  2.1145  0.9914
  729MOL0     H96196   3.843   5.989   7.794 -2.6016  1.1280  1.5837
  729MOL0     H96197   3.850   6.109   7.671  0.4112 -0.2483  0.6947
  729MOL0     H96198   3.705   6.179   7.835 -0.9587 -0.6529  4.1791
  729MOL0     H96199   3.845   6.293   7.835 -1.1742  1.1117 -1.2115
  729MOL0     H96200   3.797   6.060   8.027 -1.0320  0.7959  0.3298
  729MOL0     H96201   3.931   6.182   8.048  1.0218  1.7617 -3.9065
  729MOL0     H96202   3.636   6.248   8.049  0.3031 -1.0709  0.7678
  729MOL0     H96203   3.762   6.350   8.101  3.1217 -0.3179 -3.2264
  729MOL0     H96204   3.683   6.078   8.233 -0.5817  0.0965  1.6997
  729MOL0     H96205   3.633   6.240   8.295  0.3920 -0.2682  0.5226
  729MOL0     H96206   3.915   6.140   8.311 -0.4280  1.8301 -2.8388
  729MOL0     H96207   3.859   6.296   8.353 -0.0101 -0.3215 -0.9241
  729MOL0     H96208   3.791   6.017   8.453 -1.7655 -0.5127  0.3370
  729MOL0     H96209   3.686   6.154   8.501  0.3485  1.1954 -0.6656
  729MOL0     H96210   4.294   6.098   7.837  0.2493 -0.9730  0.6237
  729MOL0     H96211   4.506   6.109   7.745 -0.3973 -0.9478  1.1803
  729MOL0     H96212   4.873   5.699   7.368  1.7742 -0.4149 -2.4545
  729MOL0     H96213   5.099   5.764   7.326 -1.0220  0.1858  0.6197
  729MOL0     H96214   6.816   5.838   6.742  0.7914  2.2374 -1.8919
  729MOL0     H96215   7.031   5.951   6.762  1.0540  3.9652 -0.3474
  729MOL0     H96216   7.374   6.237   6.662 -4.2709  1.1779 -0.1482
  729MOL0     H96217   7.588   6.310   6.707  1.0301  1.0320  1.4115
  729MOL0     H96218   7.721   6.489   6.800 -3.1232 -1.0858  0.8598
  729MOL0     H96219   7.794   6.326   6.779 -1.1542 -3.4242  4.0501
  729MOL0     H96220   7.881   6.533   6.995  3.8487  1.6006 -0.3596
  729MOL0     H96221   7.966   6.380   6.953 -0.4676 -0.8914  1.0049
  729MOL0     H96222   7.974   6.629   6.775 -0.8293  0.2485  3.8413
  729MOL0     H96223   8.012   6.455   6.723  1.7695  1.5613 -1.3873
  729MOL0     H96224   8.184   6.587   6.753 -0.6350  1.9933 -0.3277
  729MOL0     H96225   8.137   6.619   6.930 -2.6011 -0.7064  1.1760
  729MOL0     H96226   8.366   6.298   7.008 -2.0265  0.6900  3.2347
  729MOL0     H96227   7.483   6.367   7.116  0.0200  0.3335  0.2630
  729MOL0     H96228   7.271   6.259   7.083 -0.8130  1.8809 -0.4430
  730MOL0     O96229   3.954   8.717   7.738  0.6296 -0.6043  0.1564
  730MOL0     C96230   4.024   8.617   7.763  0.1436 -0.8925  0.2916
  730MOL0     O96231   3.978   8.495   7.782  0.2886 -0.3091 -0.5709
  730MOL0     C96232   3.845   8.452   7.785  0.2023 -0.0555  0.3737
  730MOL0     C96233   3.732   8.517   7.733  1.0611  0.3108 -0.1060
  730MOL0     C96234   3.605   8.465   7.754  0.3066 -0.1777 -0.2940
  730MOL0     C96235   3.582   8.351   7.834  0.0922 -0.0093  0.5383
  730MOL0     O96236   3.463   8.307   7.884  0.5466 -0.0856  0.2738
  730MOL0     C96237   3.345   8.365   7.840 -0.0070 -0.7622 -0.3955
  730MOL0     C96238   3.238   8.262   7.830 -0.1993 -0.4200 -0.0618
  730MOL0     C96239   3.100   8.312   7.788 -0.6369  0.3034 -0.1921
  730MOL0     C96240   3.005   8.201   7.743 -0.0624 -0.0408 -0.6205
  730MOL0     C96241   2.859   8.247   7.707  0.0547  0.4923  0.5392
  730MOL0     C96242   2.867   8.316   7.563 -0.2822 -0.5976  0.1371
  730MOL0     C96243   2.738   8.328   7.480 -0.3166  0.2456  0.3079
  730MOL0     C96244   2.715   8.185   7.419  0.4902  0.0254  0.2455
  730MOL0     N96245   2.606   8.202   7.320 -0.6613  0.2948 -0.0682
  730MOL0     C96246   2.619   8.260   7.194 -0.2698  0.5416 -0.4899
  730MOL0     C96247   2.490   8.261   7.139  0.5154  0.7225 -0.3116
  730MOL0     C96248   2.453   8.333   7.009  0.1083  0.2456  0.3367
  730MOL0     C96249   2.384   8.245   6.907 -0.9052  0.0407 -0.3262
  730MOL0     C96250   2.270   8.314   6.828  0.1995  0.3265 -0.0742
  730MOL0     C96251   2.158   8.374   6.912  0.2887 -0.1330 -1.2759
  730MOL0     O96252   2.049   8.389   6.818  0.0224  0.5803 -0.3018
  730MOL0     C96253   1.925   8.421   6.869 -0.0540  0.1574 -0.4358
  730MOL0     C96254   1.814   8.369   6.818  1.0027  0.3802 -0.2001
  730MOL0     C96255   1.690   8.383   6.876 -0.6063  0.3438 -0.3176
  730MOL0     C96256   1.674   8.466   6.985  0.6243 -1.3951  0.3589
  730MOL0     C96257   1.529   8.490   7.028 -1.5853  1.2678  0.2526
  730MOL0     O96258   1.517   8.593   7.110  0.3215 -0.0915 -0.3076
  730MOL0     C96259   1.391   8.619   7.158 -0.5025 -0.4100 -0.2332
  730MOL0     C96260   1.386   8.618   7.295  0.2404  0.2537 -0.9847
  730MOL0     C96261   1.252   8.606   7.350  1.0520  0.9142  0.1085
  730MOL0     C96262   1.133   8.639   7.272 -0.8987  0.6980  0.6862
  730MOL0     O96263   1.006   8.640   7.330 -0.3419 -0.1035 -0.8781
  730MOL0     C96264   0.921   8.741   7.285 -0.3646  0.7410  0.6211
  730MOL0     C96265   0.838   8.805   7.402 -0.8880 -0.1249  0.3414
  730MOL0     C96266   0.913   8.899   7.502 -0.0087 -0.6594 -0.0318
  730MOL0     C96267   1.015   8.828   7.586  0.1020  0.4303 -0.6143
  730MOL0     C96268   1.111   8.927   7.659 -0.6209  0.0542 -0.2263
  730MOL0     C96269   1.248   8.958   7.583  0.8609  0.5631 -0.7260
  730MOL0     C96270   1.243   9.003   7.439  0.1047 -1.5206  0.4159
  730MOL0     C96271   1.385   8.997   7.373 -0.2370  0.3288  0.4465
  730MOL0    Cl96272   1.393   9.067   7.210 -0.1759 -0.3352 -0.1499
  730MOL0     C96273   1.155   8.653   7.136  0.3477 -0.6168  0.9467
  730MOL0     C96274   1.283   8.640   7.077 -0.0591  0.6897 -0.5058
  730MOL0     O96275   1.442   8.428   6.969  0.7657  0.5233 -0.0760
  730MOL0     C96276   1.784   8.533   7.048 -0.7931  0.7966 -0.1935
  730MOL0     C96277   1.907   8.500   6.989 -0.7258  0.2926 -0.5186
  730MOL0     N96278   2.404   8.202   7.231  0.1618 -0.0111  0.0678
  730MOL0     N96279   2.476   8.159   7.331  0.0425 -0.9383 -0.0639
  730MOL0     C96280   3.696   8.276   7.874 -1.3379 -0.5643 -0.1947
  730MOL0     C96281   3.830   8.327   7.847 -0.1387  0.1823  0.0397
  730MOL0     C96282   4.171   8.644   7.781  0.4013 -0.2138  0.7041
  730MOL0     C96283   4.216   8.774   7.757 -0.1771 -0.1665 -0.5047
  730MOL0     C96284   4.348   8.808   7.771  0.4740  0.6895 -1.0485
  730MOL0     C96285   4.448   8.717   7.822 -0.7786  0.1620  0.2948
  730MOL0     O96286   4.580   8.763   7.831 -0.1053  0.2217  0.1929
  730MOL0     C96287   4.671   8.692   7.917 -0.6101 -1.1242  0.3236
  730MOL0     C96288   4.738   8.589   7.825  0.3866  0.1367 -0.3048
  730MOL0     C96289   4.891   8.572   7.847  0.4335 -0.3132 -0.2655
  730MOL0     C96290   4.948   8.480   7.742 -0.0627 -0.5273 -0.3322
  730MOL0     C96291   5.089   8.493   7.750  0.3095 -0.5464 -0.4929
  730MOL0     C96292   5.205   8.504   7.760  0.7049 -0.3055  0.2335
  730MOL0     C96293   4.395   8.588   7.855  0.2851  0.0567  0.0083
  730MOL0     C96294   4.263   8.547   7.823  0.3614  0.8286  0.4263
  730MOL0     H96295   3.735   8.618   7.693  0.6888 -0.5057 -2.3766
  730MOL0     H96296   3.522   8.522   7.712  1.0834 -1.0988 -3.3456
  730MOL0     H96297   3.350   8.409   7.740 -1.2425 -0.8109 -0.4927
  730MOL0     H96298   3.327   8.447   7.909  0.3671  0.9386 -2.2327
  730MOL0     H96299   3.226   8.217   7.929 -2.4617 -0.4831 -0.3277
  730MOL0     H96300   3.262   8.178   7.765 -1.7668 -1.3626  0.5263
  730MOL0     H96301   3.108   8.385   7.707  3.2610  1.4882  1.0099
  730MOL0     H96302   3.052   8.355   7.876  0.6361 -0.5742  0.9776
  730MOL0     H96303   3.039   8.130   7.668 -0.3000 -0.7106 -0.1103
  730MOL0     H96304   2.984   8.137   7.830 -0.1196  1.1258  0.2408
  730MOL0     H96305   2.817   8.303   7.791 -2.7478 -0.3362 -0.1839
  730MOL0     H96306   2.788   8.164   7.698 -1.3407  1.8195 -1.5947
  730MOL0     H96307   2.947   8.265   7.509 -1.5547 -0.1754 -2.2656
  730MOL0     H96308   2.906   8.419   7.566 -1.7102 -0.0236 -0.2560
  730MOL0     H96309   2.650   8.372   7.529 -0.8934 -2.3274  1.8066
  730MOL0     H96310   2.762   8.398   7.400  1.7819  1.0396  1.5622
  730MOL0     H96311   2.680   8.113   7.493 -0.6795  0.8179  0.5013
  730MOL0     H96312   2.803   8.154   7.363  0.0395  0.3113 -0.6490
  730MOL0     H96313   2.717   8.290   7.156  1.6823 -4.2447  0.1123
  730MOL0     H96314   2.544   8.384   6.977  0.5125 -0.4979  0.2619
  730MOL0     H96315   2.387   8.416   7.035  0.3912  1.5137 -2.6273
  730MOL0     H96316   2.338   8.156   6.951  0.9909 -1.0630 -0.4569
  730MOL0     H96317   2.462   8.203   6.844 -0.3992 -0.9729  0.9247
  730MOL0     H96318   2.321   8.389   6.767 -0.0994  2.7455  2.4064
  730MOL0     H96319   2.229   8.244   6.755 -0.5230  0.7973 -0.1250
  730MOL0     H96320   2.185   8.467   6.962  0.9218 -0.5674 -0.7930
  730MOL0     H96321   2.126   8.296   6.981 -0.1644 -1.1985 -2.6457
  730MOL0     H96322   1.830   8.288   6.747  3.0918 -2.1692  2.8868
  730MOL0     H96323   1.615   8.328   6.820  0.5411 -1.5675 -0.0528
  730MOL0     H96324   1.477   8.605   7.354  0.3783 -0.6058 -1.3618
  730MOL0     H96325   1.246   8.597   7.458  2.5236 -0.2702  0.1121
  730MOL0     H96326   0.852   8.696   7.214 -1.3441 -0.2081  2.1162
  730MOL0     H96327   0.984   8.818   7.240  0.8477  0.1881  1.3355
  730MOL0     H96328   0.783   8.723   7.450  1.5637 -1.6220  0.7326
  730MOL0     H96329   0.767   8.874   7.356 -1.1671  1.0778  2.4686
  730MOL0     H96330   0.846   8.945   7.575 -1.0517 -0.6831 -0.9481
  730MOL0     H96331   0.962   8.982   7.451 -3.3980  2.3363  1.1600
  730MOL0     H96332   0.966   8.765   7.661 -0.3551  0.1093 -1.1716
  730MOL0     H96333   1.077   8.763   7.524  1.4686  2.2085 -1.1986
  730MOL0     H96334   1.142   8.892   7.758  1.7138 -1.1173 -1.2901
  730MOL0     H96335   1.061   9.023   7.671  0.4123  0.8017 -1.6227
  730MOL0     H96336   1.317   8.875   7.603 -0.7766  0.0387  4.0246
  730MOL0     H96337   1.287   9.041   7.642 -0.5352 -0.1031  1.2535
  730MOL0     H96338   1.177   8.939   7.380 -1.8375  0.5459  0.2376
  730MOL0     H96339   1.205   9.105   7.437  0.2996 -1.2430 -4.7372
  730MOL0     H96340   1.403   8.889   7.370 -0.6320  0.2831 -0.2602
  730MOL0     H96341   1.453   9.043   7.446 -0.5145 -1.4219  1.8966
  730MOL0     H96342   1.064   8.669   7.080 -0.4332 -1.1595  2.0285
  730MOL0     H96343   1.304   8.643   6.971 -1.1168  1.5831 -0.6999
  730MOL0     H96344   1.773   8.604   7.130 -0.9543 -0.2411  0.7048
  730MOL0     H96345   1.992   8.551   7.033  0.1105 -0.4900 -1.1950
  730MOL0     H96346   3.686   8.177   7.918 -0.3262  0.3703  2.3290
  730MOL0     H96347   3.919   8.280   7.888 -1.6396 -0.1551  3.2221
  730MOL0     H96348   4.147   8.849   7.718  1.1778 -0.1905 -3.1906
  730MOL0     H96349   4.406   8.900   7.763  3.0509 -0.8803 -1.3646
  730MOL0     H96350   4.616   8.653   8.004 -2.9373  0.9366 -0.1379
  730MOL0     H96351   4.754   8.750   7.959  0.2815 -1.5023 -0.8549
  730MOL0     H96352   4.697   8.489   7.842  2.4399 -0.7139  0.0196
  730MOL0     H96353   4.726   8.610   7.718  2.0664  0.3769 -0.4754
  730MOL0     H96354   4.910   8.524   7.943  1.9902 -1.7058 -1.2154
  730MOL0     H96355   4.931   8.674   7.849  0.2925 -0.2059 -1.7313
  730MOL0     H96356   4.936   8.372   7.748  2.5461 -1.0054 -2.1438
  730MOL0     H96357   4.917   8.520   7.645  0.0391  2.7683  0.8520
  730MOL0     H96358   5.306   8.540   7.757 -0.3392  2.9079 -1.7716
  730MOL0     H96359   4.454   8.501   7.881 -1.5734 -1.1934  0.2616
  730MOL0     H96360   4.226   8.448   7.845  2.5968 -0.0704  0.4060
  731MOL0     O96361   3.637   9.580   1.003  0.3168 -0.2006  1.2140
  731MOL0     C96362   3.707   9.506   0.935 -0.1964  0.1137  0.4287
  731MOL0     O96363   3.671   9.421   0.836 -0.6340 -0.1213  0.6555
  731MOL0     C96364   3.539   9.404   0.803  0.2186 -0.4007  0.6650
  731MOL0     C96365   3.486   9.428   0.675 -0.0309 -0.3740 -0.0083
  731MOL0     C96366   3.352   9.404   0.646  0.5583 -0.1794 -0.0052
  731MOL0     C96367   3.264   9.344   0.740 -1.1345  0.7610  0.2843
  731MOL0     O96368   3.141   9.293   0.700  0.3312 -0.5635 -0.1985
  731MOL0     C96369   3.040   9.392   0.646 -1.3324 -0.4132  0.5918
  731MOL0     C96370   2.919   9.307   0.594 -0.3191 -0.3334 -0.4738
  731MOL0     C96371   2.825   9.259   0.705 -0.2192  0.2521 -0.0488
  731MOL0     C96372   2.738   9.373   0.774  0.8851  0.8787  0.5009
  731MOL0     C96373   2.644   9.310   0.886 -0.5147 -0.2375 -0.4507
  731MOL0     C96374   2.719   9.247   1.011  0.0423  0.3301  0.2978
  731MOL0     C96375   2.778   9.354   1.096  0.0410 -0.3549  0.4489
  731MOL0     C96376   2.889   9.315   1.195 -0.4705 -0.3032  0.1724
  731MOL0     N96377   2.960   9.437   1.245 -0.6578  0.0913  0.4534
  731MOL0     C96378   3.029   9.525   1.160  0.7830 -0.3617  0.1925
  731MOL0     C96379   3.046   9.632   1.235 -0.3650  0.1146 -0.0898
  731MOL0     C96380   3.104   9.775   1.213 -0.4452  0.0866  0.0704
  731MOL0     C96381   3.230   9.802   1.303 -0.6651 -0.3387 -0.2797
  731MOL0     C96382   3.363   9.747   1.239 -0.5108  0.3077  0.1384
  731MOL0     C96383   3.429   9.684   1.360 -0.2926  0.3674 -0.1378
  731MOL0     O96384   3.460   9.779   1.459  0.0058 -0.1060 -0.2663
  731MOL0     C96385   3.555   9.875   1.447 -0.8070  0.4028 -0.5971
  731MOL0     C96386   3.653   9.888   1.346 -0.3220  0.6522  0.7354
  731MOL0     C96387   3.756   9.981   1.352 -0.2054 -0.2002  0.0816
  731MOL0     C96388   3.767  10.072   1.456  0.1418  0.5581  0.5751
  731MOL0     C96389   3.871  10.173   1.443 -0.6602  0.3590 -0.1946
  731MOL0     O96390   3.919  10.224   1.562 -0.7134  0.5028  0.5470
  731MOL0     C96391   4.043  10.290   1.555 -0.4824  0.3788  0.0680
  731MOL0     C96392   4.155  10.213   1.596  0.0881 -0.2107  0.2656
  731MOL0     C96393   4.280  10.273   1.603  0.0021 -0.0713  0.1960
  731MOL0     C96394   4.304  10.407   1.565  0.4882 -0.0878  0.1137
  731MOL0     O96395   4.433  10.443   1.578 -0.3409 -0.0607 -0.1330
  731MOL0     C96396   4.456  10.577   1.545  0.2500 -0.2134 -0.7897
  731MOL0     C96397   4.598  10.602   1.542  0.3927  0.7558 -0.5329
  731MOL0     C96398   4.618  10.753   1.519 -0.8905  0.2598 -0.0857
  731MOL0     C96399   4.765  10.792   1.536  0.6235  0.1590 -0.6361
  731MOL0     C96400   4.788  10.935   1.484 -0.0817 -0.4584 -0.6344
  731MOL0     C96401   4.911  10.997   1.556 -1.2151  0.2489  0.0316
  731MOL0     C96402   5.036  10.933   1.490 -0.2049 -0.3098 -0.1364
  731MOL0     C96403   5.152  10.940   1.592  0.5667  0.2036 -0.4236
  731MOL0    Cl96404   5.197  11.108   1.624 -0.1084  0.4228 -0.3306
  731MOL0     C96405   4.187  10.479   1.515 -0.1000 -0.3206 -0.2137
  731MOL0     C96406   4.057  10.421   1.518 -1.0709  0.1284  0.3983
  731MOL0     O96407   3.913  10.203   1.333  0.4412 -0.4806  0.2819
  731MOL0     C96408   3.679  10.047   1.562 -0.3261 -0.3712  0.8890
  731MOL0     C96409   3.575   9.957   1.561 -0.4924  0.5565 -0.1899
  731MOL0     N96410   2.989   9.609   1.360  0.0602 -0.5958  0.4472
  731MOL0     N96411   2.926   9.495   1.357 -0.1059 -0.0772 -0.4394
  731MOL0     C96412   3.323   9.313   0.865  0.0166  0.8575 -0.0365
  731MOL0     C96413   3.457   9.348   0.903 -0.3049  1.1522  0.4615
  731MOL0     C96414   3.847   9.485   0.972 -0.2098 -0.8577  1.0449
  731MOL0     C96415   3.901   9.548   1.086  0.1266  0.0517  0.3477
  731MOL0     C96416   4.035   9.536   1.112 -0.7582  0.2437  0.3445
  731MOL0     C96417   4.117   9.471   1.015 -0.3786  0.3822 -0.6006
  731MOL0     O96418   4.248   9.461   1.027 -0.1708  0.0901  0.5710
  731MOL0     C96419   4.301   9.365   1.112  0.1138  0.4281 -0.8846
  731MOL0     C96420   4.279   9.216   1.062 -0.2066  0.4209  0.0402
  731MOL0     C96421   4.329   9.108   1.153 -0.2804 -0.0284 -0.0901
  731MOL0     C96422   4.223   9.014   1.208 -0.2355 -0.0713 -0.1315
  731MOL0     C96423   4.264   8.882   1.263  0.1482 -0.2548  0.7692
  731MOL0     C96424   4.314   8.779   1.302 -0.1912  0.2911  0.5051
  731MOL0     C96425   4.057   9.412   0.898 -0.4747 -0.1873  0.3065
  731MOL0     C96426   3.922   9.423   0.873  0.1286 -0.4882  0.4194
  731MOL0     H96427   3.558   9.460   0.600 -2.5434 -1.9472 -3.4012
  731MOL0     H96428   3.313   9.394   0.546  0.7602 -4.9504  0.1549
  731MOL0     H96429   3.084   9.445   0.561 -0.4083 -2.2460 -0.1431
  731MOL0     H96430   3.018   9.454   0.733  0.0481 -0.3174  0.8836
  731MOL0     H96431   2.944   9.213   0.543 -0.8715 -0.6950 -0.1017
  731MOL0     H96432   2.873   9.372   0.520 -0.3525  1.0590  0.7164
  731MOL0     H96433   2.893   9.216   0.780  0.0073 -2.0825 -1.5053
  731MOL0     H96434   2.762   9.176   0.671  1.2754 -0.3791 -1.3705
  731MOL0     H96435   2.800   9.458   0.807  2.0406  1.3814 -2.6599
  731MOL0     H96436   2.673   9.411   0.695  2.1739  0.8665 -0.5943
  731MOL0     H96437   2.586   9.229   0.841 -1.1594  0.2999 -0.6099
  731MOL0     H96438   2.573   9.390   0.911  0.3738  1.2334 -2.3306
  731MOL0     H96439   2.804   9.183   0.985 -0.7238 -1.2984  1.6153
  731MOL0     H96440   2.652   9.185   1.071 -1.6463  0.2657 -1.5631
  731MOL0     H96441   2.821   9.432   1.032  0.8959 -0.7885  0.4835
  731MOL0     H96442   2.690   9.397   1.145 -2.7375 -0.4177 -3.9134
  731MOL0     H96443   2.960   9.247   1.147 -1.6734 -2.3402  1.1484
  731MOL0     H96444   2.846   9.261   1.280 -1.6494  1.7907  0.9715
  731MOL0     H96445   3.070   9.501   1.063  0.7504 -1.8158  0.5263
  731MOL0     H96446   3.027   9.849   1.240 -0.4941 -1.2472  4.3348
  731MOL0     H96447   3.129   9.780   1.107  1.9630 -1.2594  0.5152
  731MOL0     H96448   3.214   9.764   1.404  1.9854  0.8788  0.6677
  731MOL0     H96449   3.228   9.910   1.319 -2.2824 -0.3855  0.0450
  731MOL0     H96450   3.335   9.678   1.159  0.0394 -0.1240  0.3133
  731MOL0     H96451   3.419   9.826   1.188 -0.2828  0.8816  1.2488
  731MOL0     H96452   3.524   9.633   1.340 -1.4502 -2.8536  1.8294
  731MOL0     H96453   3.361   9.612   1.407 -1.6419  0.8381 -1.3071
  731MOL0     H96454   3.659   9.814   1.267  1.2608  1.3808  0.1161
  731MOL0     H96455   3.814   9.994   1.262 -1.2446 -1.0764 -0.7436
  731MOL0     H96456   4.137  10.108   1.617 -0.8204  0.0529  0.8701
  731MOL0     H96457   4.358  10.210   1.643 -0.4357 -1.8230 -1.5698
  731MOL0     H96458   4.404  10.641   1.618  0.7378 -0.3986 -0.2736
  731MOL0     H96459   4.416  10.587   1.444  1.8656 -3.6350 -1.9071
  731MOL0     H96460   4.656  10.546   1.468  0.1659 -1.0895  0.6221
  731MOL0     H96461   4.638  10.579   1.641 -0.7022  0.6832 -0.0850
  731MOL0     H96462   4.558  10.802   1.596  1.9598  2.8305  0.6903
  731MOL0     H96463   4.580  10.787   1.422  1.5417 -1.6579 -1.8525
  731MOL0     H96464   4.770  10.793   1.645  0.2254 -0.8157 -0.5985
  731MOL0     H96465   4.835  10.719   1.495 -0.4813 -0.2407 -1.8847
  731MOL0     H96466   4.711  11.008   1.510  0.2757 -0.1638 -0.3778
  731MOL0     H96467   4.807  10.934   1.376  0.2010 -1.4292 -0.5803
  731MOL0     H96468   4.910  10.984   1.664 -0.5474 -0.1191  0.0010
  731MOL0     H96469   4.926  11.105   1.555  0.0085  0.1524  1.9913
  731MOL0     H96470   5.018  10.828   1.462  0.2861 -1.1287  2.2985
  731MOL0     H96471   5.066  10.992   1.404 -1.6526 -1.1127 -1.2536
  731MOL0     H96472   5.239  10.879   1.565 -0.0734 -2.1812  2.3121
  731MOL0     H96473   5.121  10.895   1.687  4.1151 -2.5818 -0.3291
  731MOL0     H96474   4.188  10.578   1.471  0.1257 -0.6920 -1.0757
  731MOL0     H96475   3.974  10.486   1.491 -0.7038  1.7961  2.9141
  731MOL0     H96476   3.683  10.102   1.656 -0.5713  0.1582  0.5928
  731MOL0     H96477   3.507   9.956   1.646 -2.3995  3.5008 -1.5123
  731MOL0     H96478   3.258   9.256   0.930 -0.9654  0.4505 -1.3469
  731MOL0     H96479   3.502   9.293   0.985 -0.0006  0.3999 -0.1983
  731MOL0     H96480   3.849   9.617   1.151 -1.9955 -2.2958  1.2975
  731MOL0     H96481   4.086   9.592   1.190 -0.6338  1.3041 -0.4670
  731MOL0     H96482   4.250   9.374   1.208 -1.7704 -0.6422 -1.7427
  731MOL0     H96483   4.407   9.385   1.134  0.1071  0.5709 -0.9826
  731MOL0     H96484   4.178   9.188   1.030  0.7887 -1.6413 -1.4839
  731MOL0     H96485   4.332   9.224   0.967 -1.5284  0.5821 -0.7189
  731MOL0     H96486   4.374   9.159   1.239 -1.7269 -0.1187  0.7454
  731MOL0     H96487   4.398   9.048   1.092 -3.1331 -3.3094 -0.3792
  731MOL0     H96488   4.161   9.073   1.276  0.3395  0.1232  0.2354
  731MOL0     H96489   4.160   8.982   1.124  1.8158  0.1671 -1.8648
  731MOL0     H96490   4.378   8.701   1.335 -0.1664  0.7004  1.4554
  731MOL0     H96491   4.126   9.368   0.827  1.0136  2.1429  0.2217
  731MOL0     H96492   3.894   9.371   0.782  2.9421 -1.4496 -0.0068
  732MOL0     O96493   8.667   6.926   6.786 -0.4163  0.0899  0.6990
  732MOL0     C96494   8.781   6.880   6.790  0.1861  0.2942 -0.3543
  732MOL0     O96495   8.823   6.777   6.874 -0.4709  0.4250  0.0983
  732MOL0     C96496   8.739   6.711   6.960  0.3669  0.5784  0.4185
  732MOL0     C96497   8.793   6.665   7.077 -0.6873  0.3443 -0.0868
  732MOL0     C96498   8.717   6.598   7.169  1.0848  0.4849 -0.3159
  732MOL0     C96499   8.581   6.562   7.134  0.9055  0.0078  0.1724
  732MOL0     O96500   8.487   6.496   7.214  0.7688 -0.4202 -0.0750
  732MOL0     C96501   8.525   6.466   7.343  0.4079 -0.0283  0.7641
  732MOL0     C96502   8.407   6.395   7.395 -0.1044  0.2964 -0.9352
  732MOL0     C96503   8.437   6.334   7.540 -0.4451  1.1377  0.7366
  732MOL0     C96504   8.311   6.273   7.597 -0.4172  0.0153  0.1541
  732MOL0     C96505   8.343   6.219   7.733 -0.9843 -0.4228 -0.4547
  732MOL0     C96506   8.231   6.139   7.789  1.3024 -0.3430 -0.3575
  732MOL0     C96507   8.103   6.220   7.823 -0.6498  0.6935  0.1825
  732MOL0     C96508   8.005   6.127   7.887 -0.0628  0.0153  0.1434
  732MOL0     N96509   7.881   6.192   7.917  0.4405  1.0402 -0.2012
  732MOL0     C96510   7.780   6.203   7.830  0.0624  0.2751 -0.3144
  732MOL0     C96511   7.670   6.246   7.898 -0.3627 -0.8298  0.0382
  732MOL0     C96512   7.528   6.272   7.833 -0.1832  0.1107 -0.3242
  732MOL0     C96513   7.423   6.287   7.939 -0.2142  0.6683 -0.6678
  732MOL0     C96514   7.281   6.283   7.885 -0.1257  0.0757  0.6948
  732MOL0     C96515   7.163   6.261   7.978  0.0475 -0.5336 -0.0684
  732MOL0     O96516   7.062   6.289   7.884  0.1334  0.0115  0.3440
  732MOL0     C96517   6.935   6.300   7.934  0.3613  0.2637 -0.6296
  732MOL0     C96518   6.828   6.282   7.840 -0.2403  0.6374 -1.2015
  732MOL0     C96519   6.697   6.296   7.865  0.6169  0.7021 -0.2214
  732MOL0     C96520   6.654   6.332   7.995 -0.0328 -0.4397  0.0071
  732MOL0     C96521   6.514   6.328   8.039  0.0289  0.0030  0.9006
  732MOL0     O96522   6.417   6.297   7.963 -0.3636 -0.3269 -0.6313
  732MOL0     C96523   6.285   6.285   8.002 -0.0394 -0.2092  0.7337
  732MOL0     C96524   6.199   6.390   7.981 -0.7040  0.1782  0.1651
  732MOL0     C96525   6.062   6.373   8.016 -0.3750  0.0605  0.3824
  732MOL0     C96526   6.013   6.253   8.065  0.0887 -0.0595 -0.6003
  732MOL0     O96527   5.877   6.228   8.077  0.6339 -0.2589  1.0022
  732MOL0     C96528   5.774   6.330   8.044  0.1796  0.7295  0.7627
  732MOL0     C96529   5.641   6.274   8.097 -1.4313 -0.5568  1.3723
  732MOL0     C96530   5.525   6.356   8.036 -0.7569 -0.1137 -0.1843
  732MOL0     C96531   5.536   6.502   8.062 -0.2064 -1.1540 -0.4404
  732MOL0     C96532   5.393   6.565   8.087 -0.5319  0.9256 -0.4021
  732MOL0     C96533   5.302   6.539   7.963  0.1918 -0.6642  0.6420
  732MOL0     C96534   5.162   6.613   7.983 -0.8308  0.1607  0.5612
  732MOL0     C96535   5.158   6.762   8.018  0.5423  0.3113  0.2544
  732MOL0    Cl96536   4.994   6.827   8.005  0.1868 -0.2572 -0.1906
  732MOL0     C96537   6.101   6.146   8.075  0.5806  0.5438 -0.2979
  732MOL0     C96538   6.234   6.165   8.046 -0.3577  0.5704  0.4700
  732MOL0     O96539   6.497   6.369   8.155  0.0299  0.1798 -0.1523
  732MOL0     C96540   6.757   6.350   8.094 -0.7843  0.2785 -0.2133
  732MOL0     C96541   6.890   6.336   8.063  0.1148 -0.7141 -0.6908
  732MOL0     N96542   7.712   6.259   8.030 -0.8114 -1.3030  0.3623
  732MOL0     N96543   7.840   6.226   8.041  0.2388 -0.2397 -0.0878
  732MOL0     C96544   8.527   6.609   7.005 -0.4628  0.6366 -0.6632
  732MOL0     C96545   8.610   6.685   6.925 -0.7336 -0.3201 -0.6708
  732MOL0     C96546   8.879   6.923   6.691 -0.0898 -0.5100  0.6502
  732MOL0     C96547   9.014   6.893   6.709  0.3583 -0.4791  0.2475
  732MOL0     C96548   9.112   6.947   6.621 -0.0595  0.3887 -1.0795
  732MOL0     C96549   9.077   7.022   6.511  1.0668  0.7847  0.4145
  732MOL0     O96550   9.159   7.056   6.409  0.7199  0.7703 -0.2037
  732MOL0     C96551   9.298   7.025   6.424  0.4217 -0.3300  0.4685
  732MOL0     C96552   9.363   7.070   6.290 -1.0078  0.1894  0.7014
  732MOL0     C96553   9.516   7.084   6.312 -0.0982 -0.1945  0.5173
  732MOL0     C96554   9.568   7.182   6.201  0.3902 -0.5780 -0.1913
  732MOL0     C96555   9.690   7.235   6.252 -0.6662 -0.1075 -0.2152
  732MOL0     C96556   9.791   7.301   6.278  0.0204 -0.4381  0.1774
  732MOL0     C96557   8.935   7.055   6.493 -1.1380  0.6452 -0.1834
  732MOL0     C96558   8.842   6.999   6.580  0.5311 -0.4380 -0.2163
  732MOL0     H96559   8.897   6.676   7.105 -0.2143  2.1463 -2.2436
  732MOL0     H96560   8.760   6.579   7.267 -1.6298  3.0769  1.5454
  732MOL0     H96561   8.548   6.551   7.409 -1.1327  1.5203 -0.5930
  732MOL0     H96562   8.604   6.390   7.345 -3.4203 -4.4477  1.0825
  732MOL0     H96563   8.382   6.311   7.329  0.8902 -0.1856 -0.7061
  732MOL0     H96564   8.317   6.456   7.404 -1.6443 -1.7099 -1.7446
  732MOL0     H96565   8.483   6.402   7.612  2.3025 -0.1766  0.3526
  732MOL0     H96566   8.503   6.247   7.525  1.1816  2.1054  2.0097
  732MOL0     H96567   8.236   6.352   7.606  1.7281  2.0721  0.8351
  732MOL0     H96568   8.283   6.191   7.531 -0.3270  0.1461 -0.0472
  732MOL0     H96569   8.361   6.305   7.797  2.1436 -0.4133 -1.2265
  732MOL0     H96570   8.431   6.154   7.733 -0.6126 -0.0259 -2.8812
  732MOL0     H96571   8.267   6.097   7.884 -0.7209 -2.6022 -0.4811
  732MOL0     H96572   8.200   6.058   7.722  0.0515 -0.1281 -0.0568
  732MOL0     H96573   8.137   6.295   7.895  2.7857 -0.3399 -0.1544
  732MOL0     H96574   8.053   6.252   7.731 -1.6874 -2.2809 -0.3925
  732MOL0     H96575   8.040   6.093   7.985 -1.2235 -2.4348 -0.2159
  732MOL0     H96576   7.989   6.032   7.835 -0.7515  0.7471 -1.0355
  732MOL0     H96577   7.786   6.174   7.726  1.0819  1.1305 -0.5159
  732MOL0     H96578   7.507   6.181   7.776 -1.3929  0.9479 -1.2766
  732MOL0     H96579   7.534   6.355   7.762 -0.0475 -0.9394 -1.5805
  732MOL0     H96580   7.451   6.367   8.008  1.5889 -0.9780  0.5981
  732MOL0     H96581   7.432   6.203   8.008  2.1318  2.0846  0.8619
  732MOL0     H96582   7.254   6.368   7.820  2.1300  1.1909  1.1119
  732MOL0     H96583   7.281   6.199   7.816  3.1045 -0.3826  1.1134
  732MOL0     H96584   7.172   6.331   8.061  2.0997 -1.1631  0.2824
  732MOL0     H96585   7.167   6.161   8.024 -0.3077  1.8529  6.0329
  732MOL0     H96586   6.854   6.233   7.747 -0.4137 -1.1010 -0.3699
  732MOL0     H96587   6.628   6.260   7.789 -0.5191  0.6761  0.8009
  732MOL0     H96588   6.247   6.476   7.934 -2.0347 -0.0831 -1.7971
  732MOL0     H96589   5.993   6.450   7.983 -0.1349 -1.0337 -3.0251
  732MOL0     H96590   5.778   6.338   7.935  2.5387  1.7719  0.8543
  732MOL0     H96591   5.797   6.433   8.074  1.0228  0.4904  0.9535
  732MOL0     H96592   5.646   6.287   8.205  0.4771 -0.0370  1.2524
  732MOL0     H96593   5.630   6.168   8.071 -1.3673  0.1584 -2.0308
  732MOL0     H96594   5.437   6.324   8.092 -1.4416 -0.9485 -1.6786
  732MOL0     H96595   5.509   6.340   7.929  0.9888  2.0090 -0.8224
  732MOL0     H96596   5.593   6.521   8.154 -1.3532  1.1824 -0.1375
  732MOL0     H96597   5.577   6.547   7.971 -2.0525 -0.1419 -0.8129
  732MOL0     H96598   5.415   6.672   8.097  2.9684  0.4411 -1.6510
  732MOL0     H96599   5.339   6.520   8.171 -0.7130 -1.6011 -1.7774
  732MOL0     H96600   5.276   6.432   7.957  0.2913 -0.6079 -3.9112
  732MOL0     H96601   5.349   6.570   7.869  3.6237 -1.9852  1.7403
  732MOL0     H96602   5.106   6.598   7.890  1.4760  3.6308 -1.6740
  732MOL0     H96603   5.104   6.564   8.061 -2.0564  0.0114 -0.4096
  732MOL0     H96604   5.224   6.811   7.946  0.0987 -1.2317 -1.2739
  732MOL0     H96605   5.203   6.769   8.118 -1.8670 -2.8862  1.7494
  732MOL0     H96606   6.072   6.051   8.118  0.5876  1.6017  2.2240
  732MOL0     H96607   6.293   6.077   8.066 -1.2940 -0.9981 -2.9959
  732MOL0     H96608   6.730   6.360   8.198 -1.7066 -2.0703 -0.1733
  732MOL0     H96609   6.959   6.357   8.144  0.3873  0.4708 -1.2151
  732MOL0     H96610   8.422   6.588   6.986 -0.1619 -2.2868  0.2917
  732MOL0     H96611   8.565   6.707   6.829 -3.2999 -3.8254 -0.4888
  732MOL0     H96612   9.048   6.834   6.794 -0.1042 -0.7114  0.2783
  732MOL0     H96613   9.212   6.913   6.645 -0.0173 -0.0066 -1.7826
  732MOL0     H96614   9.323   6.922   6.451 -0.4333 -0.3222  1.3408
  732MOL0     H96615   9.331   7.084   6.509  0.2660 -0.1031  0.3745
  732MOL0     H96616   9.336   7.013   6.201 -2.3249  1.5502  0.1883
  732MOL0     H96617   9.317   7.167   6.271 -0.0019  0.0974 -2.8694
  732MOL0     H96618   9.559   6.983   6.309 -0.0042 -0.1516  0.4070
  732MOL0     H96619   9.527   7.118   6.415 -1.2272  1.5608  0.1105
  732MOL0     H96620   9.577   7.129   6.106 -0.7535  2.7576 -2.3332
  732MOL0     H96621   9.503   7.269   6.186 -1.4837 -1.7754  0.5539
  732MOL0     H96622   9.889   7.346   6.283  0.1698 -0.2379 -2.8638
  732MOL0     H96623   8.911   7.114   6.405 -0.0672  3.0271  1.0292
  732MOL0     H96624   8.740   7.030   6.563  0.8905  0.1206 -1.5462
  733MOL0     O96625   3.636   0.582   4.092  0.3323  0.8471  0.2735
  733MOL0     C96626   3.696   0.689   4.107  0.6064 -0.7292 -0.0470
  733MOL0     O96627   3.654   0.808   4.166  0.5805  0.7054 -0.1066
  733MOL0     C96628   3.536   0.827   4.234  0.3691  0.4858 -1.0876
  733MOL0     C96629   3.428   0.737   4.241 -0.0240 -0.4518 -0.7243
  733MOL0     C96630   3.308   0.774   4.309 -0.1841  0.3886  0.2403
  733MOL0     C96631   3.293   0.896   4.368 -0.5185 -0.8354  0.5490
  733MOL0     O96632   3.177   0.926   4.430  0.4446 -0.0038  0.3054
  733MOL0     C96633   3.165   0.890   4.572 -0.5425 -0.0935 -0.1611
  733MOL0     C96634   3.064   0.768   4.580  0.7453  0.3279 -0.2193
  733MOL0     C96635   2.913   0.797   4.548 -0.2200 -0.2963  0.8371
  733MOL0     C96636   2.842   0.671   4.505  0.8064 -0.0581  0.0312
  733MOL0     C96637   2.697   0.691   4.527  0.2029  1.3109  0.5763
  733MOL0     C96638   2.620   0.567   4.466  0.0059 -1.0772 -0.7525
  733MOL0     C96639   2.470   0.607   4.454  0.7502  0.1012 -0.2684
  733MOL0     C96640   2.390   0.495   4.393 -0.7452 -0.1154  0.6053
  733MOL0     N96641   2.268   0.552   4.340  0.9137  0.2963 -0.1828
  733MOL0     C96642   2.167   0.486   4.266 -0.2236 -0.0244 -0.5314
  733MOL0     C96643   2.058   0.558   4.284 -0.3572 -0.4549 -0.0860
  733MOL0     C96644   1.928   0.514   4.233 -0.2518  0.6636 -0.1969
  733MOL0     C96645   1.916   0.525   4.072 -0.1513 -0.4704  0.6040
  733MOL0     C96646   1.781   0.485   4.006 -1.1014 -0.4631  0.1945
  733MOL0     C96647   1.663   0.576   4.059 -0.2860 -0.7909 -0.0558
  733MOL0     O96648   1.682   0.715   4.029  0.0023  0.1090  0.0467
  733MOL0     C96649   1.568   0.788   4.030  0.3703  0.1704  0.3846
  733MOL0     C96650   1.495   0.787   3.910  0.4726  0.2429 -0.9197
  733MOL0     C96651   1.378   0.861   3.902  0.1004  0.4151  0.3508
  733MOL0     C96652   1.328   0.938   4.009  0.0358  0.2979 -0.3026
  733MOL0     C96653   1.191   1.004   3.992 -0.2811  0.8438 -0.6519
  733MOL0     O96654   1.096   0.923   3.935 -0.8919 -0.5576  0.3852
  733MOL0     C96655   0.971   0.964   3.936 -0.1394 -0.5872 -0.0495
  733MOL0     C96656   0.898   0.986   4.056  0.7932 -0.0379  0.8470
  733MOL0     C96657   0.758   1.020   4.046 -0.3057  0.2735 -0.4034
  733MOL0     C96658   0.699   1.051   3.933  0.1631 -0.5178 -0.2589
  733MOL0     O96659   0.576   1.105   3.930  0.4043  0.1037  0.2903
  733MOL0     C96660   0.487   1.030   3.852  0.1939  0.1189  0.1823
  733MOL0     C96661   0.343   1.074   3.884 -0.0639 -0.3705 -0.8541
  733MOL0     C96662   0.235   0.990   3.819  0.2094  0.2383 -0.4334
  733MOL0     C96663   0.099   1.046   3.858 -1.0399 -0.4674 -0.1784
  733MOL0     C96664  -0.005   0.941   3.849  0.7434  0.6090 -0.6795
  733MOL0     C96665  -0.032   0.884   3.708  0.1641  1.0698 -0.9750
  733MOL0     C96666  -0.141   0.773   3.707  0.3394 -0.1978 -0.4242
  733MOL0     C96667  -0.157   0.728   3.565  0.3740 -0.4941  0.2934
  733MOL0    Cl96668  -0.286   0.600   3.561  0.5711  0.2494  0.4159
  733MOL0     C96669   0.773   1.030   3.810 -0.5654  0.5473 -0.8218
  733MOL0     C96670   0.909   0.989   3.812 -0.3274 -0.0436  0.3369
  733MOL0     O96671   1.174   1.119   4.033  0.2380  0.4502  0.0646
  733MOL0     C96672   1.408   0.944   4.128 -0.1879 -0.3279  0.0004
  733MOL0     C96673   1.526   0.874   4.137 -0.0038  0.9894 -0.0261
  733MOL0     N96674   2.087   0.670   4.363  0.2777  0.2477 -0.1970
  733MOL0     N96675   2.209   0.657   4.406  0.5532 -0.2398  0.5219
  733MOL0     C96676   3.397   0.991   4.355  0.1583  0.8049 -0.3117
  733MOL0     C96677   3.515   0.958   4.293  0.4621  0.3344 -0.3109
  733MOL0     C96678   3.843   0.688   4.069 -1.0848 -0.5788  1.0957
  733MOL0     C96679   3.888   0.600   3.963 -0.3066  0.1461 -0.6094
  733MOL0     C96680   4.027   0.591   3.936  0.6671 -0.5771  0.0904
  733MOL0     C96681   4.117   0.676   4.009  1.1471  0.7904 -0.6591
  733MOL0     O96682   4.242   0.652   3.977  1.0742 -0.1967  0.1865
  733MOL0     C96683   4.349   0.723   4.046 -0.1824 -0.0072 -0.0902
  733MOL0     C96684   4.482   0.718   3.976 -1.1908  0.6470 -0.1194
  733MOL0     C96685   4.595   0.788   4.054 -0.5650 -0.0679  0.2976
  733MOL0     C96686   4.719   0.773   3.973 -0.5530 -0.0179  0.5315
  733MOL0     C96687   4.820   0.877   4.007  0.3546  0.4319  0.2641
  733MOL0     C96688   4.896   0.969   4.037 -0.0404  0.2713 -0.3540
  733MOL0     C96689   4.067   0.762   4.109 -0.3610 -0.0337  0.2676
  733MOL0     C96690   3.935   0.756   4.144  0.0417  0.3234 -0.4474
  733MOL0     H96691   3.431   0.642   4.187  1.2958 -0.4625 -0.6742
  733MOL0     H96692   3.218   0.714   4.301  0.5032 -0.6125 -0.1734
  733MOL0     H96693   3.114   0.961   4.638 -0.1086 -0.7527  0.9028
  733MOL0     H96694   3.263   0.873   4.616 -1.1646  2.5551  2.5969
  733MOL0     H96695   3.071   0.735   4.684  1.9230  2.1214  0.3174
  733MOL0     H96696   3.098   0.684   4.519  3.1425 -2.0846  3.9720
  733MOL0     H96697   2.907   0.871   4.468 -2.2160  0.6513  1.7881
  733MOL0     H96698   2.866   0.842   4.636 -2.2193 -0.5832 -0.0315
  733MOL0     H96699   2.858   0.640   4.402  0.6965 -3.1451  0.8559
  733MOL0     H96700   2.878   0.581   4.557  1.9138 -1.0664 -2.3464
  733MOL0     H96701   2.660   0.782   4.479  0.9882  0.1979 -2.3417
  733MOL0     H96702   2.682   0.698   4.635  2.2754  3.9912  0.7865
  733MOL0     H96703   2.627   0.490   4.543  1.3512 -0.6472 -0.4178
  733MOL0     H96704   2.659   0.539   4.368  1.4437  1.5410 -1.0109
  733MOL0     H96705   2.431   0.630   4.554  0.6275 -0.1963 -0.2497
  733MOL0     H96706   2.466   0.700   4.396  1.1620  1.2449  1.4609
  733MOL0     H96707   2.385   0.405   4.454 -0.1719  0.7080  1.9124
  733MOL0     H96708   2.453   0.469   4.308  1.1714  2.4640  1.1152
  733MOL0     H96709   2.183   0.392   4.214 -2.1465  0.2951 -1.7811
  733MOL0     H96710   1.852   0.581   4.274 -3.0064 -2.1227 -0.4063
  733MOL0     H96711   1.900   0.414   4.269 -0.5996  1.4836  1.9540
  733MOL0     H96712   1.984   0.445   4.041 -1.8297 -1.7220 -0.0024
  733MOL0     H96713   1.945   0.626   4.043 -3.9968  0.2780 -1.2995
  733MOL0     H96714   1.776   0.501   3.898  0.1562 -2.4670 -0.1930
  733MOL0     H96715   1.757   0.380   4.025 -2.5516 -0.1578  0.1810
  733MOL0     H96716   1.654   0.568   4.168  1.6610  1.7213  0.3917
  733MOL0     H96717   1.569   0.540   4.017  0.0748 -1.5180 -0.2564
  733MOL0     H96718   1.526   0.732   3.821  0.0445 -0.7022 -0.5004
  733MOL0     H96719   1.320   0.844   3.812  3.3215  0.4734 -1.8950
  733MOL0     H96720   0.944   0.980   4.154 -1.3777 -1.7297  1.8434
  733MOL0     H96721   0.697   1.047   4.132 -2.4764  1.8328 -2.3289
  733MOL0     H96722   0.502   0.925   3.877  0.2426 -0.0547 -0.5546
  733MOL0     H96723   0.498   1.050   3.745  2.7148 -1.1496  0.1204
  733MOL0     H96724   0.325   1.181   3.870  1.7389  0.2190  0.8280
  733MOL0     H96725   0.337   1.056   3.992  0.2398 -1.1825 -0.9609
  733MOL0     H96726   0.247   0.890   3.861 -0.4938 -0.6109 -2.1352
  733MOL0     H96727   0.254   0.977   3.712  2.1720  0.9204 -0.2053
  733MOL0     H96728   0.109   1.066   3.965  2.8838 -0.7519 -0.3447
  733MOL0     H96729   0.076   1.135   3.798  2.0241  0.5444 -0.0204
  733MOL0     H96730  -0.103   0.972   3.884 -0.6766 -0.0675 -3.7577
  733MOL0     H96731   0.038   0.866   3.917 -3.8442  1.0136  3.1451
  733MOL0     H96732   0.060   0.841   3.667 -0.2412 -0.9372  0.0801
  733MOL0     H96733  -0.068   0.960   3.639 -0.3309  0.7114 -1.1158
  733MOL0     H96734  -0.118   0.695   3.780 -0.4864  1.7295  2.0203
  733MOL0     H96735  -0.227   0.823   3.752  1.5596 -0.7638  2.7360
  733MOL0     H96736  -0.064   0.685   3.528  0.9901  1.6217 -0.7728
  733MOL0     H96737  -0.195   0.812   3.506 -0.5067  2.9272  5.0951
  733MOL0     H96738   0.732   1.070   3.718  3.4166  1.6255 -2.3509
  733MOL0     H96739   0.981   0.994   3.731  0.0286  1.0673  0.7057
  733MOL0     H96740   1.367   1.002   4.210 -0.3525 -0.8609  0.3011
  733MOL0     H96741   1.599   0.897   4.214 -0.1719 -0.4252  0.5856
  733MOL0     H96742   3.367   1.084   4.403 -1.4145 -0.9436  2.4078
  733MOL0     H96743   3.594   1.032   4.281  1.4844  0.0399  3.2626
  733MOL0     H96744   3.837   0.522   3.906  1.6897  0.2465 -2.6392
  733MOL0     H96745   4.067   0.528   3.857  0.4264 -0.7654  0.1180
  733MOL0     H96746   4.361   0.695   4.151  1.1698 -0.3489 -0.3247
  733MOL0     H96747   4.332   0.830   4.061 -0.4219 -0.1569  0.8166
  733MOL0     H96748   4.507   0.612   3.971  0.2968  1.0032 -0.5476
  733MOL0     H96749   4.467   0.745   3.871 -0.7992  2.0154  0.1630
  733MOL0     H96750   4.605   0.746   4.155 -1.8485 -0.8533  0.1189
  733MOL0     H96751   4.570   0.894   4.057  4.6379  1.5530 -2.2173
  733MOL0     H96752   4.758   0.671   3.979 -0.7567 -0.3887 -2.5196
  733MOL0     H96753   4.696   0.785   3.867 -1.6829 -0.7255  0.6814
  733MOL0     H96754   4.954   1.054   4.067 -1.3889  0.9211  0.5124
  733MOL0     H96755   4.133   0.821   4.172  1.0314 -0.5298 -0.7054
  733MOL0     H96756   3.903   0.809   4.232  2.0493 -1.0055  1.1759
  734MOL0     O96757   8.778   8.234   6.775 -0.4297  0.0325 -1.0073
  734MOL0     C96758   8.785   8.359   6.767 -1.1000  0.7202  0.4977
  734MOL0     O96759   8.688   8.445   6.768 -0.3384  0.1349  0.8802
  734MOL0     C96760   8.559   8.399   6.744 -0.8840  0.2306 -0.0758
  734MOL0     C96761   8.484   8.465   6.646 -0.7779  0.8226  0.6401
  734MOL0     C96762   8.354   8.418   6.615  0.5455 -0.6543 -0.6560
  734MOL0     C96763   8.289   8.321   6.690 -0.3027  0.7375  0.0754
  734MOL0     O96764   8.162   8.289   6.648 -0.3674 -0.0965 -0.0088
  734MOL0     C96765   8.072   8.265   6.759  0.9742 -0.1069  0.7114
  734MOL0     C96766   7.936   8.228   6.699  0.0948 -1.0641  0.7743
  734MOL0     C96767   7.918   8.085   6.661 -0.2540  0.6107 -0.0357
  734MOL0     C96768   7.779   8.033   6.642  0.1055  0.0521 -0.2114
  734MOL0     C96769   7.721   8.113   6.528  0.6237 -0.3306  0.3671
  734MOL0     C96770   7.583   8.175   6.562 -0.3601 -0.3150 -0.8120
  734MOL0     C96771   7.514   8.225   6.436  0.9913 -0.4198  0.4077
  734MOL0     C96772   7.563   8.364   6.403  0.1857 -0.7631 -1.2612
  734MOL0     N96773   7.485   8.431   6.299  0.6541  0.1852  0.3824
  734MOL0     C96774   7.433   8.362   6.196  0.2210 -0.3706 -0.0514
  734MOL0     C96775   7.334   8.446   6.152  0.1121  0.0301 -0.1185
  734MOL0     C96776   7.255   8.402   6.033  0.5675  0.2021 -0.5590
  734MOL0     C96777   7.120   8.466   6.034  0.1536  0.8097 -0.5218
  734MOL0     C96778   7.033   8.416   6.143 -0.8131  0.2746 -1.3380
  734MOL0     C96779   6.895   8.474   6.127 -0.0889  0.1817 -0.6351
  734MOL0     O96780   6.895   8.609   6.154 -0.3831 -0.4529 -0.4043
  734MOL0     C96781   6.782   8.675   6.161 -0.1033 -0.6476  0.2065
  734MOL0     C96782   6.661   8.628   6.098  0.0235  0.7901  0.1186
  734MOL0     C96783   6.545   8.699   6.104  0.2717 -0.3082  0.1076
  734MOL0     C96784   6.550   8.827   6.161 -0.5460 -0.8046 -0.5481
  734MOL0     C96785   6.441   8.933   6.154 -0.4596  0.5263 -0.2803
  734MOL0     O96786   6.315   8.867   6.130 -0.6970 -0.9075  0.0368
  734MOL0     C96787   6.195   8.934   6.133 -0.4502 -0.2966 -0.1101
  734MOL0     C96788   6.170   9.053   6.197 -0.5048 -0.4005 -0.0630
  734MOL0     C96789   6.049   9.120   6.205  0.4946 -0.1238  0.7121
  734MOL0     C96790   5.939   9.065   6.132 -0.1787  0.6239 -0.5979
  734MOL0     O96791   5.823   9.136   6.139 -0.1762  0.6065 -0.0974
  734MOL0     C96792   5.796   9.229   6.030 -0.6141 -0.4191  0.4319
  734MOL0     C96793   5.695   9.177   5.924  0.0243  1.0926 -0.3250
  734MOL0     C96794   5.648   9.291   5.834 -0.7344  0.1649 -0.2927
  734MOL0     C96795   5.527   9.258   5.735  0.0658 -0.2676 -0.1505
  734MOL0     C96796   5.540   9.339   5.599  0.9149  0.4534 -0.5315
  734MOL0     C96797   5.418   9.294   5.511  0.1958  0.4172 -0.8449
  734MOL0     C96798   5.385   9.385   5.398  0.5759  0.1307 -0.0308
  734MOL0     C96799   5.283   9.324   5.293 -1.1081 -1.0593 -1.1154
  734MOL0    Cl96800   5.235   9.446   5.157 -0.1553  0.2284 -0.0899
  734MOL0     C96801   5.954   8.946   6.051 -0.0462  0.9709 -0.0659
  734MOL0     C96802   6.084   8.878   6.063 -0.3151 -1.2805 -0.6636
  734MOL0     O96803   6.456   9.047   6.179 -0.4623  0.8094 -0.7651
  734MOL0     C96804   6.672   8.881   6.214 -0.4861 -0.6440 -0.4887
  734MOL0     C96805   6.784   8.805   6.212 -0.8824  0.4642 -1.0852
  734MOL0     N96806   7.336   8.559   6.232 -0.7647  0.0898  0.4176
  734MOL0     N96807   7.432   8.558   6.311  0.1674  0.0135  0.1719
  734MOL0     C96808   8.362   8.254   6.793 -0.4504 -0.2119  0.4273
  734MOL0     C96809   8.492   8.299   6.826 -0.5143  0.2322 -0.3505
  734MOL0     C96810   8.912   8.414   6.770  0.3535 -0.0009 -0.1811
  734MOL0     C96811   9.025   8.346   6.818 -0.1256 -0.6721  0.3250
  734MOL0     C96812   9.149   8.408   6.836 -0.0429  0.1576  0.2885
  734MOL0     C96813   9.170   8.544   6.811  0.0408  0.0130 -0.1741
  734MOL0     O96814   9.291   8.602   6.839 -1.1171  0.3427  0.2605
  734MOL0     C96815   9.311   8.739   6.807  0.1611 -0.5635 -0.1937
  734MOL0     C96816   9.365   8.769   6.671  0.3595  0.2467 -0.7477
  734MOL0     C96817   9.473   8.673   6.627  0.2262 -0.2107  0.0046
  734MOL0     C96818   9.542   8.693   6.497 -0.1987  0.2903 -0.3059
  734MOL0     C96819   9.463   8.735   6.386  0.0441  0.7668 -0.5711
  734MOL0     C96820   9.402   8.763   6.282 -0.6979 -0.3098 -0.4961
  734MOL0     C96821   9.056   8.611   6.757  0.3038 -0.0063 -0.6145
  734MOL0     C96822   8.934   8.552   6.750 -0.3122 -0.4538 -0.6830
  734MOL0     H96823   8.515   8.551   6.587 -1.0042 -0.5134 -1.4937
  734MOL0     H96824   8.302   8.478   6.541  3.3607  1.9083 -0.7748
  734MOL0     H96825   8.068   8.349   6.829  0.7096  1.0966 -0.6831
  734MOL0     H96826   8.116   8.186   6.821  1.1042  0.4199  1.3064
  734MOL0     H96827   7.925   8.291   6.610 -4.7892 -2.5050  0.0596
  734MOL0     H96828   7.853   8.263   6.761  0.4306  0.2019  0.5294
  734MOL0     H96829   7.952   8.042   6.756 -0.0062  0.3730 -0.2339
  734MOL0     H96830   7.983   8.064   6.576  3.1402  0.0336  2.5095
  734MOL0     H96831   7.773   7.925   6.626  1.8489 -0.0614 -0.3704
  734MOL0     H96832   7.729   8.066   6.734  1.7718  0.8146  0.4697
  734MOL0     H96833   7.704   8.042   6.447 -0.6754 -0.9377  1.1257
  734MOL0     H96834   7.784   8.190   6.484  1.0438 -0.5881  0.5145
  734MOL0     H96835   7.599   8.258   6.631  1.5626 -1.7267  0.5569
  734MOL0     H96836   7.530   8.093   6.610 -1.2658 -0.4587 -2.0221
  734MOL0     H96837   7.535   8.169   6.345  3.8136 -3.1922  2.5507
  734MOL0     H96838   7.407   8.230   6.457  1.0510  0.1115  0.6015
  734MOL0     H96839   7.669   8.366   6.379  0.7837  2.9295  0.9861
  734MOL0     H96840   7.552   8.436   6.484 -1.8639 -0.6181 -1.5957
  734MOL0     H96841   7.466   8.266   6.158 -1.0128 -0.6272 -0.5309
  734MOL0     H96842   7.253   8.294   6.020  0.9478  0.2605 -1.1322
  734MOL0     H96843   7.313   8.430   5.945  1.2374 -1.5226 -0.7045
  734MOL0     H96844   7.070   8.460   5.937 -0.1050  2.3395 -0.4996
  734MOL0     H96845   7.145   8.573   6.039 -0.0553  0.8251  0.3266
  734MOL0     H96846   7.036   8.308   6.156  1.5081  0.1422 -2.4409
  734MOL0     H96847   7.074   8.451   6.238 -3.0866  0.9567 -0.5417
  734MOL0     H96848   6.834   8.436   6.209 -0.3086  1.1324 -0.3480
  734MOL0     H96849   6.857   8.458   6.026  1.5103  3.2744 -1.8717
  734MOL0     H96850   6.653   8.541   6.033 -2.2205 -0.3661  1.8247
  734MOL0     H96851   6.456   8.662   6.053  0.7012 -1.5061  0.2027
  734MOL0     H96852   6.253   9.098   6.251 -0.0154  0.6305 -1.6060
  734MOL0     H96853   6.038   9.211   6.263  1.1939 -1.9442  3.9313
  734MOL0     H96854   5.889   9.245   5.976 -0.4390 -0.9986  0.5628
  734MOL0     H96855   5.759   9.323   6.073  0.1869  0.2916 -0.4068
  734MOL0     H96856   5.614   9.140   5.987  0.7271  0.0278 -0.0145
  734MOL0     H96857   5.720   9.096   5.855 -0.9366  0.0206  0.5288
  734MOL0     H96858   5.733   9.324   5.774 -1.3597  1.6877 -0.3926
  734MOL0     H96859   5.621   9.376   5.897 -3.1174  0.4942 -1.6204
  734MOL0     H96860   5.525   9.153   5.702 -1.4737  0.3917 -2.3752
  734MOL0     H96861   5.431   9.266   5.787  1.5474  0.4484  2.6548
  734MOL0     H96862   5.635   9.327   5.546  1.6046 -5.5367  1.3383
  734MOL0     H96863   5.521   9.445   5.622 -0.3754 -0.4267  3.2241
  734MOL0     H96864   5.328   9.290   5.574 -0.1755  0.1266 -1.3823
  734MOL0     H96865   5.451   9.195   5.477  3.2152  0.2415  2.1339
  734MOL0     H96866   5.346   9.476   5.444 -0.3147  0.0987 -0.6966
  734MOL0     H96867   5.484   9.410   5.360  1.4949 -0.5478  1.7938
  734MOL0     H96868   5.187   9.296   5.338 -1.7604  0.3789 -1.5541
  734MOL0     H96869   5.323   9.232   5.248  0.6575 -0.2332 -1.2999
  734MOL0     H96870   5.880   8.902   5.985  2.4157  0.1652 -2.5038
  734MOL0     H96871   6.116   8.808   5.986  2.3196  0.3900 -1.2608
  734MOL0     H96872   6.684   8.980   6.258  0.1145  0.9321 -3.8707
  734MOL0     H96873   6.874   8.845   6.258 -1.5383  0.6166  0.1148
  734MOL0     H96874   8.316   8.178   6.854  0.1554 -2.1735 -1.4059
  734MOL0     H96875   8.566   8.258   6.893 -0.1778 -1.8700 -1.9215
  734MOL0     H96876   9.023   8.239   6.839 -1.3646 -0.4966  1.2548
  734MOL0     H96877   9.235   8.347   6.858  0.4992  0.9258  0.3376
  734MOL0     H96878   9.373   8.791   6.881 -0.0185  0.1920 -0.5587
  734MOL0     H96879   9.215   8.790   6.826  0.6727  0.3849 -0.0719
  734MOL0     H96880   9.277   8.748   6.610  1.4835 -2.3602 -1.6045
  734MOL0     H96881   9.395   8.874   6.663  2.0211 -0.3293 -2.9261
  734MOL0     H96882   9.429   8.575   6.607 -2.2446  1.4252 -3.4896
  734MOL0     H96883   9.549   8.664   6.706  1.8676  0.6099 -1.4149
  734MOL0     H96884   9.614   8.774   6.512  2.6848 -1.9839 -0.8845
  734MOL0     H96885   9.606   8.605   6.487 -0.1575  0.0641  1.5966
  734MOL0     H96886   9.357   8.789   6.188 -0.8967 -0.6258 -0.4931
  734MOL0     H96887   9.062   8.717   6.737  1.5287 -0.2861 -1.8523
  734MOL0     H96888   8.855   8.612   6.707  3.8445  2.5930 -5.2158
  735MOL0     O96889   1.262   2.013   0.394  0.5737 -0.7867 -1.0253
  735MOL0     C96890   1.370   2.055   0.375 -0.8511 -0.1784 -0.1613
  735MOL0     O96891   1.428   2.161   0.431  0.1320 -0.1932  0.2279
  735MOL0     C96892   1.380   2.200   0.549 -0.2128  0.2130 -0.8636
  735MOL0     C96893   1.297   2.313   0.569 -0.3932 -0.5499  0.3390
  735MOL0     C96894   1.270   2.361   0.700 -0.2912 -0.3689 -0.4015
  735MOL0     C96895   1.305   2.289   0.815  0.3481 -0.7801 -0.5069
  735MOL0     O96896   1.250   2.303   0.941 -0.0499  0.0488 -0.3849
  735MOL0     C96897   1.153   2.399   0.976  0.0685  0.4552  1.0019
  735MOL0     C96898   1.021   2.317   0.962  0.3983 -0.0217  0.0337
  735MOL0     C96899   0.899   2.396   1.011 -0.2873  0.2509 -0.2718
  735MOL0     C96900   0.888   2.416   1.167 -0.4925 -0.4061  0.0360
  735MOL0     C96901   0.771   2.505   1.179 -1.0494  0.8902  0.1214
  735MOL0     C96902   0.744   2.512   1.325 -0.3797  0.5718  0.3929
  735MOL0     C96903   0.638   2.611   1.367 -0.8876  0.5218  0.6712
  735MOL0     C96904   0.693   2.761   1.342 -0.2270 -0.0898 -0.1092
  735MOL0     N96905   0.800   2.786   1.437 -0.3330  0.3142 -0.7514
  735MOL0     C96906   0.777   2.789   1.572 -0.8006 -0.0891  0.0348
  735MOL0     C96907   0.887   2.846   1.620  0.0556  0.2994  0.0840
  735MOL0     C96908   0.910   2.885   1.764  0.0133  0.0885 -0.5989
  735MOL0     C96909   1.053   2.915   1.791 -0.2505 -0.3973  0.3987
  735MOL0     C96910   1.064   2.937   1.949  0.1968  0.0368  0.1738
  735MOL0     C96911   1.199   2.996   1.985 -0.4173  0.6199  0.2512
  735MOL0     O96912   1.181   3.124   2.067 -0.6038 -0.0881  0.5696
  735MOL0     C96913   1.296   3.176   2.112 -0.2195 -0.5222 -0.6347
  735MOL0     C96914   1.378   3.112   2.211 -0.3323 -0.1791 -0.0917
  735MOL0     C96915   1.489   3.187   2.246  0.0699 -0.4604 -0.5779
  735MOL0     C96916   1.530   3.313   2.195 -0.3390  0.5915 -0.3780
  735MOL0     C96917   1.658   3.369   2.242 -0.2021 -0.1667 -0.1218
  735MOL0     O96918   1.724   3.311   2.349  0.2842 -0.3708 -0.4439
  735MOL0     C96919   1.845   3.348   2.386  0.5839 -0.2600 -0.5448
  735MOL0     C96920   1.870   3.462   2.461 -0.3003  0.3005  0.6695
  735MOL0     C96921   1.997   3.502   2.501  0.6007 -0.2097  0.1682
  735MOL0     C96922   2.102   3.417   2.463  0.1559  0.5817  0.2681
  735MOL0     O96923   2.227   3.444   2.490 -0.0841  0.6393 -0.1558
  735MOL0     C96924   2.271   3.565   2.545 -0.6578 -0.4064 -0.3838
  735MOL0     C96925   2.384   3.542   2.649 -0.2123  0.5799 -0.2263
  735MOL0     C96926   2.479   3.660   2.638 -0.2708 -0.1151  0.6933
  735MOL0     C96927   2.598   3.641   2.732  0.6047  0.0709  0.2809
  735MOL0     C96928   2.686   3.769   2.712  0.2955 -0.0091  0.2388
  735MOL0     C96929   2.822   3.753   2.791 -0.4853  0.2176 -0.1910
  735MOL0     C96930   2.925   3.864   2.760 -0.6506  0.4282 -1.5446
  735MOL0     C96931   3.065   3.830   2.799 -0.3440  0.0951 -0.3144
  735MOL0    Cl96932   3.177   3.966   2.769  0.2913 -0.3168 -0.1415
  735MOL0     C96933   2.077   3.296   2.403 -0.4406  0.1819 -0.6184
  735MOL0     C96934   1.945   3.263   2.358 -0.3704  0.5494  0.2339
  735MOL0     O96935   1.694   3.467   2.183 -0.3199 -0.7248  0.2257
  735MOL0     C96936   1.444   3.362   2.094 -0.3088  0.1243 -0.8402
  735MOL0     C96937   1.332   3.300   2.053 -0.1184 -0.2641 -1.0635
  735MOL0     N96938   0.982   2.860   1.518 -0.0611  0.3819 -0.5230
  735MOL0     N96939   0.923   2.830   1.407 -0.3831  1.0209 -0.1623
  735MOL0     C96940   1.393   2.170   0.792  0.0296  0.0211 -1.1140
  735MOL0     C96941   1.437   2.138   0.661  0.1913  0.1832  0.7177
  735MOL0     C96942   1.453   2.003   0.271 -0.1832 -0.3745 -0.6160
  735MOL0     C96943   1.388   1.974   0.149 -0.8826  0.5560 -0.5917
  735MOL0     C96944   1.465   1.930   0.040  0.1236  0.2751 -0.0925
  735MOL0     C96945   1.607   1.925   0.047  0.0364  0.5453 -0.1017
  735MOL0     O96946   1.690   1.896  -0.061  0.4947 -1.0093 -0.4175
  735MOL0     C96947   1.630   1.857  -0.182 -0.0943 -0.3609 -0.0909
  735MOL0     C96948   1.734   1.809  -0.289  0.0583 -0.8375 -0.3767
  735MOL0     C96949   1.665   1.704  -0.384  0.9487  0.5211 -0.0416
  735MOL0     C96950   1.765   1.608  -0.458 -0.1051 -0.8515 -0.3390
  735MOL0     C96951   1.849   1.540  -0.355  0.0014 -0.2409  0.6361
  735MOL0     C96952   1.925   1.484  -0.284 -0.9007  0.6988  0.3479
  735MOL0     C96953   1.662   1.944   0.181  0.0243 -0.1664  1.1618
  735MOL0     C96954   1.587   1.977   0.291  0.4122 -0.1456 -0.1050
  735MOL0     H96955   1.258   2.372   0.487  0.6506  1.6669  1.3579
  735MOL0     H96956   1.204   2.446   0.704  0.1646 -0.0498  2.7491
  735MOL0     H96957   1.152   2.490   0.915  2.7228  0.6048  1.0765
  735MOL0     H96958   1.177   2.419   1.081  1.7519 -1.2325  0.9891
  735MOL0     H96959   1.013   2.212   0.994 -0.2093 -0.5333 -1.7065
  735MOL0     H96960   1.016   2.299   0.854 -2.1159 -1.2744  0.2879
  735MOL0     H96961   0.810   2.344   0.974 -0.7882 -0.7950  2.1805
  735MOL0     H96962   0.891   2.493   0.961 -2.5351  0.6804  0.7532
  735MOL0     H96963   0.877   2.316   1.210  3.3535 -1.0399 -0.1169
  735MOL0     H96964   0.982   2.456   1.206 -0.3194 -1.0422  0.2914
  735MOL0     H96965   0.682   2.462   1.133  0.9342 -1.7197 -1.5202
  735MOL0     H96966   0.797   2.601   1.132  0.4589  0.2016 -0.4995
  735MOL0     H96967   0.833   2.531   1.385 -1.5338 -5.1305  4.8125
  735MOL0     H96968   0.715   2.415   1.367 -0.9998 -0.0323 -1.3537
  735MOL0     H96969   0.541   2.592   1.320 -0.5865 -3.7545  1.3166
  735MOL0     H96970   0.617   2.596   1.473 -2.5547 -0.9883  0.1839
  735MOL0     H96971   0.621   2.842   1.354  2.5135  2.3954  0.7191
  735MOL0     H96972   0.748   2.777   1.248  2.0472  0.7270  1.2684
  735MOL0     H96973   0.697   2.745   1.630 -0.3833 -3.1432 -1.5370
  735MOL0     H96974   0.875   2.798   1.821 -0.0434 -0.2617 -1.1587
  735MOL0     H96975   0.842   2.970   1.775 -3.4107 -2.2750 -1.5140
  735MOL0     H96976   1.079   3.008   1.740 -0.7566 -0.8767 -0.7814
  735MOL0     H96977   1.119   2.836   1.753 -3.1630 -3.0615  0.4775
  735MOL0     H96978   0.983   2.991   1.999 -0.0929 -1.6860  1.7006
  735MOL0     H96979   1.046   2.838   1.993 -0.5705 -0.5732 -1.4512
  735MOL0     H96980   1.258   3.013   1.894 -2.1030  1.3981 -0.7511
  735MOL0     H96981   1.254   2.917   2.036 -1.6908 -2.0322 -2.1957
  735MOL0     H96982   1.352   3.013   2.248  0.3151  0.2365  1.5431
  735MOL0     H96983   1.558   3.147   2.320  1.5698  0.2969 -1.5171
  735MOL0     H96984   1.786   3.523   2.492 -0.2960  0.3739  0.5391
  735MOL0     H96985   2.000   3.590   2.564 -1.5680  1.0364 -1.3221
  735MOL0     H96986   2.188   3.625   2.582 -0.0174 -0.7891  1.8166
  735MOL0     H96987   2.313   3.622   2.461 -3.2119  1.1306 -0.7201
  735MOL0     H96988   2.437   3.449   2.626  2.3523  1.1386  2.7694
  735MOL0     H96989   2.343   3.526   2.749  0.0067  0.6525 -0.1243
  735MOL0     H96990   2.435   3.755   2.669 -0.4348 -0.4789  1.5837
  735MOL0     H96991   2.522   3.682   2.539 -0.4231  4.2775  1.3930
  735MOL0     H96992   2.553   3.645   2.832 -4.6723  1.5689 -1.8408
  735MOL0     H96993   2.656   3.551   2.707  0.5754 -0.2834  1.4379
  735MOL0     H96994   2.645   3.859   2.758 -1.1921  0.0384 -1.0666
  735MOL0     H96995   2.707   3.792   2.607  2.0552 -0.0494  0.5629
  735MOL0     H96996   2.866   3.658   2.760  3.7326  1.3941  1.5219
  735MOL0     H96997   2.808   3.752   2.900  0.8428 -0.3784 -0.0099
  735MOL0     H96998   2.927   3.873   2.651 -1.4786 -1.7652 -1.7972
  735MOL0     H96999   2.890   3.954   2.812 -1.5004 -1.3065  1.0576
  735MOL0     H97000   3.091   3.749   2.730  1.9778  0.6711 -0.2010
  735MOL0     H97001   3.067   3.798   2.904  0.2903  1.0886 -0.0146
  735MOL0     H97002   2.166   3.235   2.394 -0.4112  0.3009 -1.1436
  735MOL0     H97003   1.936   3.171   2.302  0.8653  0.3085  0.3886
  735MOL0     H97004   1.472   3.456   2.048  0.2473  0.0692 -0.6240
  735MOL0     H97005   1.264   3.351   1.985  0.0052  2.2477  0.5362
  735MOL0     H97006   1.410   2.110   0.881 -4.1596 -1.3484 -1.0255
  735MOL0     H97007   1.506   2.056   0.646 -0.0337  0.0665  0.3062
  735MOL0     H97008   1.282   1.993   0.136 -0.5180  1.9238 -1.7400
  735MOL0     H97009   1.409   1.907  -0.050  0.3023  0.0325 -0.1420
  735MOL0     H97010   1.575   1.944  -0.218 -0.5417 -0.3037  0.7169
  735MOL0     H97011   1.558   1.778  -0.159  0.5364 -1.2867 -1.2371
  735MOL0     H97012   1.753   1.889  -0.361  1.7305 -1.6914 -0.9524
  735MOL0     H97013   1.826   1.770  -0.245  1.3679  1.7876 -0.5579
  735MOL0     H97014   1.601   1.754  -0.457  1.1577 -0.0302 -0.6116
  735MOL0     H97015   1.599   1.633  -0.334 -0.8452  2.3010  0.2098
  735MOL0     H97016   1.706   1.534  -0.512 -0.2602 -1.3332  0.4619
  735MOL0     H97017   1.833   1.662  -0.524 -1.1836 -0.0227 -0.7840
  735MOL0     H97018   2.002   1.448  -0.218  2.0134  0.6662 -2.7894
  735MOL0     H97019   1.770   1.940   0.195  0.2010  3.4685  1.7487
  735MOL0     H97020   1.638   2.015   0.379  1.6973  1.0521 -1.3066
  736MOL0     O97021   5.478  11.088   5.493  1.0800 -0.7184  0.6304
  736MOL0     C97022   5.519  11.207   5.514 -0.4177  0.0528  0.1552
  736MOL0     O97023   5.445  11.312   5.508  0.2320 -0.6089  0.9826
  736MOL0     C97024   5.316  11.308   5.465  0.3079 -0.3630 -0.3422
  736MOL0     C97025   5.271  11.281   5.332  0.3390  0.4317  0.4849
  736MOL0     C97026   5.139  11.280   5.311 -0.4297 -0.6187 -0.0600
  736MOL0     C97027   5.046  11.301   5.416  0.2595  0.0407  0.0534
  736MOL0     O97028   4.912  11.290   5.380  0.4136  0.3249  0.2625
  736MOL0     C97029   4.805  11.305   5.471  0.8066  0.7217  0.0872
  736MOL0     C97030   4.688  11.216   5.420  0.8014  1.1520 -0.5305
  736MOL0     C97031   4.563  11.207   5.503 -0.1274  0.1339 -0.7046
  736MOL0     C97032   4.459  11.319   5.471 -0.2099  0.9689 -0.5578
  736MOL0     C97033   4.336  11.324   5.552  1.0181 -0.0780 -0.2456
  736MOL0     C97034   4.220  11.227   5.511 -0.6199 -0.4452 -0.6882
  736MOL0     C97035   4.106  11.216   5.609 -0.0992  0.2285  0.6603
  736MOL0     C97036   4.004  11.327   5.586  0.1777 -0.5178  0.0872
  736MOL0     N97037   3.940  11.321   5.450 -0.0695  0.5936  0.2036
  736MOL0     C97038   3.872  11.212   5.399 -0.7025 -0.4395 -0.5893
  736MOL0     C97039   3.841  11.250   5.273  0.6187  0.9516 -0.5199
  736MOL0     C97040   3.782  11.167   5.161  0.8555 -0.1966 -0.2797
  736MOL0     C97041   3.624  11.142   5.187 -0.9763  0.0335  0.0778
  736MOL0     C97042   3.593  10.992   5.195  0.8029  0.9317 -0.0506
  736MOL0     C97043   3.441  10.958   5.194  0.4112  0.0587  0.2838
  736MOL0     O97044   3.426  10.831   5.245  0.3652 -1.1906  0.2311
  736MOL0     C97045   3.321  10.761   5.205 -0.1094 -0.4317 -0.2234
  736MOL0     C97046   3.201  10.777   5.265  0.1363 -0.2649 -0.8357
  736MOL0     C97047   3.092  10.696   5.231 -0.6679 -0.3799 -0.5226
  736MOL0     C97048   3.113  10.584   5.143 -0.7135  0.8637 -0.8724
  736MOL0     C97049   3.004  10.501   5.109  0.3760  0.1602  0.3118
  736MOL0     O97050   2.902  10.485   5.202  0.4228  0.2253 -0.2613
  736MOL0     C97051   2.799  10.394   5.178  0.6925 -0.6595 -0.7259
  736MOL0     C97052   2.776  10.296   5.288 -0.5578 -0.1402  0.3055
  736MOL0     C97053   2.648  10.238   5.308  0.2739 -0.2753 -0.3328
  736MOL0     C97054   2.546  10.252   5.214  0.4473 -1.1795 -0.2200
  736MOL0     O97055   2.428  10.181   5.230  0.2194  0.9729  0.1829
  736MOL0     C97056   2.322  10.200   5.143 -0.3998 -0.0927  0.2348
  736MOL0     C97057   2.186  10.146   5.193 -1.0297 -0.6597  0.7383
  736MOL0     C97058   2.161  10.204   5.335 -0.2921 -0.1686 -0.4017
  736MOL0     C97059   2.034  10.143   5.392  0.5062  0.1787  0.3911
  736MOL0     C97060   2.000  10.214   5.527  0.4237 -0.1580 -0.0428
  736MOL0     C97061   1.906  10.129   5.609 -0.5211 -0.0556  0.0575
  736MOL0     C97062   1.837  10.212   5.725 -0.1021 -0.0098 -0.1679
  736MOL0     C97063   1.792  10.124   5.836  0.0004 -0.6475  0.1868
  736MOL0    Cl97064   1.686   9.999   5.763 -0.0805 -0.0448  0.0366
  736MOL0     C97065   2.578  10.330   5.103 -1.3953  0.9249  0.7969
  736MOL0     C97066   2.704  10.396   5.076  1.4131  0.2505 -0.3270
  736MOL0     O97067   3.010  10.443   4.995  0.2857  0.5106 -0.6666
  736MOL0     C97068   3.245  10.562   5.089 -0.2536  0.6355 -0.5819
  736MOL0     C97069   3.347  10.652   5.125 -0.1270  0.2752  0.0328
  736MOL0     N97070   3.880  11.380   5.254  0.3397 -0.1997  0.2492
  736MOL0     N97071   3.953  11.414   5.351  0.0782  0.5355 -0.1423
  736MOL0     C97072   5.093  11.332   5.549 -0.1199  0.4901  0.1978
  736MOL0     C97073   5.225  11.334   5.575  0.0989  0.2848 -0.4796
  736MOL0     C97074   5.659  11.216   5.567  0.2571 -0.6708  1.2121
  736MOL0     C97075   5.748  11.112   5.547 -0.7166 -0.3687  0.0152
  736MOL0     C97076   5.880  11.123   5.586 -0.0244 -0.0932 -0.2959
  736MOL0     C97077   5.931  11.239   5.637  0.1252  0.6174  0.3225
  736MOL0     O97078   6.063  11.241   5.665  0.1340  0.8028 -0.3888
  736MOL0     C97079   6.140  11.316   5.568  0.5323  0.3591 -0.4000
  736MOL0     C97080   6.290  11.267   5.581 -0.3892 -0.4004  0.1977
  736MOL0     C97081   6.313  11.113   5.544  0.1797 -0.1474  0.2752
  736MOL0     C97082   6.267  11.003   5.634 -0.1863  1.4026 -0.2513
  736MOL0     C97083   6.325  11.018   5.768 -0.4600 -0.2854 -0.5555
  736MOL0     C97084   6.370  11.045   5.869  0.2095  0.7500  0.2738
  736MOL0     C97085   5.843  11.347   5.664 -0.0253  0.6101  0.1004
  736MOL0     C97086   5.709  11.333   5.624  0.5106 -0.1601  0.4236
  736MOL0     H97087   5.340  11.269   5.250  0.5401  1.0068  0.5654
  736MOL0     H97088   5.112  11.272   5.207  4.3967 -0.1777 -1.6206
  736MOL0     H97089   4.773  11.409   5.481  0.7186  0.5790  1.4728
  736MOL0     H97090   4.832  11.269   5.571 -0.1602  0.3179  0.2208
  736MOL0     H97091   4.720  11.111   5.420  0.2609  0.9831 -0.2820
  736MOL0     H97092   4.662  11.246   5.318 -1.0188  0.6999 -0.2330
  736MOL0     H97093   4.595  11.211   5.607  1.6538 -1.8062 -1.1036
  736MOL0     H97094   4.517  11.110   5.486 -3.0816  1.7102 -2.4870
  736MOL0     H97095   4.509  11.416   5.476  1.4125  0.2718 -2.0986
  736MOL0     H97096   4.431  11.296   5.368  1.3830  0.0121 -0.7946
  736MOL0     H97097   4.309  11.429   5.569 -0.7790 -0.5350  0.0152
  736MOL0     H97098   4.368  11.289   5.651  2.1101  2.3755  0.3214
  736MOL0     H97099   4.269  11.130   5.499  2.5980  0.6871  1.8493
  736MOL0     H97100   4.187  11.261   5.412 -0.5736  1.5332 -0.0633
  736MOL0     H97101   4.066  11.116   5.591 -1.8066  0.7487  1.4117
  736MOL0     H97102   4.140  11.216   5.713  0.6597  0.6401  0.4270
  736MOL0     H97103   4.050  11.426   5.588 -0.5587 -0.0699 -1.8954
  736MOL0     H97104   3.926  11.322   5.663  1.2318 -1.9076  1.1031
  736MOL0     H97105   3.858  11.116   5.447 -2.1415 -0.7249 -1.5115
  736MOL0     H97106   3.833  11.071   5.159 -0.4195 -0.8873 -1.7973
  736MOL0     H97107   3.801  11.213   5.063  1.4833 -0.4599 -0.2903
  736MOL0     H97108   3.578  11.176   5.093  0.6518 -3.9097 -2.4010
  736MOL0     H97109   3.583  11.200   5.271 -1.8532  1.0887 -1.0368
  736MOL0     H97110   3.638  10.935   5.114  0.5631 -0.0821  0.5011
  736MOL0     H97111   3.635  10.949   5.287 -0.0557  0.1699  0.0080
  736MOL0     H97112   3.398  10.977   5.096  3.5390 -1.4061 -1.5158
  736MOL0     H97113   3.395  11.033   5.259 -0.5749 -0.2752 -0.0048
  736MOL0     H97114   3.183  10.861   5.331 -1.2545 -1.6446  0.6244
  736MOL0     H97115   3.006  10.728   5.288  0.1824 -0.3402  0.7789
  736MOL0     H97116   2.845  10.297   5.372  2.1949 -0.9909 -1.7861
  736MOL0     H97117   2.635  10.180   5.399  0.9463 -0.5028 -0.3826
  736MOL0     H97118   2.348  10.153   5.048  1.7421  2.6299 -0.6260
  736MOL0     H97119   2.313  10.306   5.120  0.2034 -0.3991 -1.5953
  736MOL0     H97120   2.185  10.037   5.208  0.7988 -0.6632  1.0100
  736MOL0     H97121   2.112  10.189   5.125  3.0207  2.1160 -2.3957
  736MOL0     H97122   2.149  10.312   5.330  0.8337 -0.0697 -1.2819
  736MOL0     H97123   2.244  10.175   5.400  1.5714  0.3089 -2.4405
  736MOL0     H97124   1.953  10.159   5.320  2.5879  0.3495 -2.0375
  736MOL0     H97125   2.055  10.037   5.408 -1.2624 -0.3390 -0.4290
  736MOL0     H97126   1.958  10.313   5.505  2.5080  0.9886  0.8748
  736MOL0     H97127   2.092  10.225   5.584  0.3935  0.8199 -0.1655
  736MOL0     H97128   1.968  10.045   5.642  1.5368 -0.7372 -4.6105
  736MOL0     H97129   1.835  10.088   5.536  0.7786 -3.3729  0.4700
  736MOL0     H97130   1.900  10.280   5.782 -0.9066 -2.3245  3.8514
  736MOL0     H97131   1.757  10.269   5.676  0.8191  0.5887 -1.0272
  736MOL0     H97132   1.733  10.181   5.909  1.5055  2.4389 -0.8462
  736MOL0     H97133   1.880  10.082   5.886  0.1629  0.6728  1.0639
  736MOL0     H97134   2.502  10.335   5.026 -0.6028  1.6729  0.0314
  736MOL0     H97135   2.728  10.462   4.993 -1.4558  1.6458 -0.1707
  736MOL0     H97136   3.263  10.485   5.015 -1.6920 -1.9734  1.6073
  736MOL0     H97137   3.452  10.639   5.098 -0.5074  0.8162 -1.9212
  736MOL0     H97138   5.013  11.354   5.620  1.1218  0.6867  1.5825
  736MOL0     H97139   5.250  11.340   5.680 -0.3552  1.1629 -0.4109
  736MOL0     H97140   5.713  11.025   5.493  0.9507  0.5278 -2.7238
  736MOL0     H97141   5.951  11.043   5.567 -0.7098 -1.0182  0.9429
  736MOL0     H97142   6.143  11.420   5.604  1.6115  0.9214 -1.9795
  736MOL0     H97143   6.110  11.305   5.463  2.7247 -0.3522 -1.0075
  736MOL0     H97144   6.338  11.337   5.511 -3.7280  1.3365 -0.5893
  736MOL0     H97145   6.321  11.290   5.683  0.2807  0.6839 -0.2253
  736MOL0     H97146   6.420  11.113   5.522 -0.0505  2.5031 -1.3760
  736MOL0     H97147   6.271  11.094   5.445  1.5294 -2.7568  0.1144
  736MOL0     H97148   6.158  10.999   5.627 -0.1028 -0.5071 -1.2459
  736MOL0     H97149   6.312  10.922   5.576 -0.8641  1.0174 -0.2527
  736MOL0     H97150   6.418  11.079   5.958  2.3237  1.5382 -1.0636
  736MOL0     H97151   5.872  11.442   5.707 -3.0676  2.1983 -1.0764
  736MOL0     H97152   5.639  11.414   5.643  0.7818 -0.0459  0.9766
  737MOL0     O97153   0.093   0.586   7.157 -0.7177 -0.3866 -0.0593
  737MOL0     C97154   0.042   0.619   7.049  0.0930  0.0378  0.4506
  737MOL0     O97155  -0.090   0.644   7.027  0.0041  0.0188  0.1164
  737MOL0     C97156  -0.196   0.604   7.110 -0.3026 -0.0043 -0.0560
  737MOL0     C97157  -0.316   0.677   7.116  0.6127 -0.0798 -0.6688
  737MOL0     C97158  -0.423   0.642   7.203 -0.4869 -1.0085  0.8083
  737MOL0     C97159  -0.416   0.520   7.273 -0.7617 -0.8050 -0.0011
  737MOL0     O97160  -0.524   0.481   7.341  0.6372  0.5478  0.3545
  737MOL0     C97161  -0.503   0.472   7.487 -0.7173  0.7950  0.3556
  737MOL0     C97162  -0.625   0.505   7.573  0.6612  0.9576 -0.4741
  737MOL0     C97163  -0.720   0.622   7.551  0.2870 -0.1722 -0.2400
  737MOL0     C97164  -0.806   0.632   7.677  0.5242  0.1526  0.3473
  737MOL0     C97165  -0.952   0.679   7.643  0.1281  0.8547 -0.4373
  737MOL0     C97166  -0.940   0.832   7.623  0.4194  0.4625 -0.2189
  737MOL0     C97167  -1.077   0.895   7.621  0.0671 -0.4499 -0.1162
  737MOL0     C97168  -1.090   1.018   7.535 -0.0033 -0.2678  0.5168
  737MOL0     N97169  -1.222   1.090   7.554 -0.7942  1.0465  0.5496
  737MOL0     C97170  -1.291   1.130   7.669 -0.3113  0.8867  0.2881
  737MOL0     C97171  -1.424   1.151   7.627 -0.3823 -0.1046  0.1923
  737MOL0     C97172  -1.539   1.174   7.724 -0.2399 -0.6768 -0.0471
  737MOL0     C97173  -1.643   1.271   7.675 -0.4157 -0.1478 -0.5048
  737MOL0     C97174  -1.737   1.186   7.589  0.4383 -0.4471  0.1362
  737MOL0     C97175  -1.847   1.275   7.530  0.6063 -0.4886  0.4090
  737MOL0     O97176  -1.955   1.194   7.488 -0.4801 -0.1534  0.2142
  737MOL0     C97177  -2.064   1.258   7.437  0.3955  0.0878 -0.3276
  737MOL0     C97178  -2.182   1.179   7.430 -0.3634  0.0803  0.0812
  737MOL0     C97179  -2.295   1.241   7.378 -0.2461 -0.0918  0.8757
  737MOL0     C97180  -2.294   1.366   7.315  0.1533 -0.5857 -0.2500
  737MOL0     C97181  -2.417   1.422   7.247  0.1117 -0.4228 -0.4110
  737MOL0     O97182  -2.519   1.337   7.205  0.2346  0.4020  0.6465
  737MOL0     C97183  -2.640   1.392   7.162  0.0051  0.5680 -0.5124
  737MOL0     C97184  -2.702   1.317   7.053  0.0283 -0.8353  0.4843
  737MOL0     C97185  -2.834   1.330   7.012  0.7003  0.1416  0.6247
  737MOL0     C97186  -2.909   1.422   7.083  0.1560 -0.2456 -0.2900
  737MOL0     O97187  -3.037   1.449   7.049  0.1656 -0.1262 -0.2994
  737MOL0     C97188  -3.128   1.392   7.148  0.0894  0.4973 -0.0644
  737MOL0     C97189  -3.234   1.492   7.188 -0.2377  0.0641 -0.6076
  737MOL0     C97190  -3.344   1.452   7.291  0.5326 -0.0878 -0.0952
  737MOL0     C97191  -3.275   1.416   7.430  1.4428 -0.0744  0.9091
  737MOL0     C97192  -3.375   1.385   7.547  0.2965 -0.9040  0.3833
  737MOL0     C97193  -3.298   1.391   7.680  0.6067 -0.3984  0.7535
  737MOL0     C97194  -3.357   1.315   7.790 -0.1206 -0.1948 -0.5252
  737MOL0     C97195  -3.254   1.282   7.896  0.1106 -0.2698  0.1467
  737MOL0    Cl97196  -3.334   1.273   8.062  0.0394 -0.1432 -0.1880
  737MOL0     C97197  -2.852   1.505   7.187 -0.4959  0.3619 -0.0172
  737MOL0     C97198  -2.716   1.492   7.218 -0.0191 -0.2632  0.1053
  737MOL0     O97199  -2.423   1.545   7.244  0.5611  0.4415 -0.2535
  737MOL0     C97200  -2.174   1.443   7.333 -0.0470  0.1028  0.0630
  737MOL0     C97201  -2.061   1.388   7.392 -0.0755  0.4297 -0.5544
  737MOL0     N97202  -1.435   1.117   7.493 -0.4989 -0.3760  0.2512
  737MOL0     N97203  -1.317   1.088   7.449  0.2935 -0.4055 -0.5648
  737MOL0     C97204  -0.293   0.454   7.274 -0.2953  0.4885 -0.6510
  737MOL0     C97205  -0.189   0.499   7.201 -0.5246 -0.7914  0.3112
  737MOL0     C97206   0.132   0.669   6.941 -0.2521  0.1286  0.0436
  737MOL0     C97207   0.076   0.744   6.838 -0.3121 -0.3635 -1.1492
  737MOL0     C97208   0.150   0.796   6.739  0.1077 -0.8019  0.4985
  737MOL0     C97209   0.295   0.780   6.730  0.1761  0.4534 -0.2084
  737MOL0     O97210   0.367   0.842   6.638 -0.2845  0.5317  0.2243
  737MOL0     C97211   0.511   0.800   6.618 -0.3857 -0.3767  0.6386
  737MOL0     C97212   0.552   0.857   6.469 -0.3380  0.3346 -0.5327
  737MOL0     C97213   0.687   0.815   6.418  0.0527 -0.6516  0.1328
  737MOL0     C97214   0.799   0.824   6.514  0.1001  0.0965  0.0755
  737MOL0     C97215   0.913   0.758   6.458  0.1955  0.9235 -0.3102
  737MOL0     C97216   1.014   0.707   6.415  0.5142  0.0369 -0.0130
  737MOL0     C97217   0.348   0.704   6.837 -0.7122  0.1935 -0.0286
  737MOL0     C97218   0.274   0.659   6.938  0.0659  0.0206 -0.2582
  737MOL0     H97219  -0.321   0.770   7.061 -0.3401  0.2265 -0.0903
  737MOL0     H97220  -0.508   0.708   7.215 -2.0089 -2.5167 -1.0853
  737MOL0     H97221  -0.432   0.553   7.504 -1.3188  2.1850 -2.9819
  737MOL0     H97222  -0.454   0.377   7.513 -0.6145  0.7805  0.1089
  737MOL0     H97223  -0.585   0.503   7.675 -2.7139  5.1387  1.1991
  737MOL0     H97224  -0.688   0.415   7.574 -1.0912  2.1457 -0.4185
  737MOL0     H97225  -0.774   0.587   7.462 -0.0331 -2.2266  0.7235
  737MOL0     H97226  -0.664   0.715   7.534  0.0022  0.1086  0.3054
  737MOL0     H97227  -0.821   0.534   7.722 -3.1957 -0.9210 -2.7507
  737MOL0     H97228  -0.752   0.694   7.750 -1.0473  1.6381  0.3159
  737MOL0     H97229  -1.007   0.665   7.737  4.9136 -1.9066  2.3950
  737MOL0     H97230  -1.003   0.616   7.570 -0.4288  0.0076  0.6437
  737MOL0     H97231  -0.881   0.848   7.532 -1.1728 -0.0464 -1.3943
  737MOL0     H97232  -0.892   0.876   7.711 -1.6240  1.0815  0.6483
  737MOL0     H97233  -1.142   0.821   7.574  0.7027 -0.8020 -0.4481
  737MOL0     H97234  -1.118   0.900   7.722 -2.9390 -0.3273 -1.2383
  737MOL0     H97235  -1.088   0.981   7.432  0.0917  1.0109  0.0451
  737MOL0     H97236  -1.005   1.082   7.559  0.1850  0.6434 -2.2619
  737MOL0     H97237  -1.256   1.131   7.772 -4.9823 -1.7991  2.1985
  737MOL0     H97238  -1.501   1.226   7.813 -0.9302 -2.0844  1.1274
  737MOL0     H97239  -1.579   1.081   7.765 -2.3045  0.3941  0.5084
  737MOL0     H97240  -1.595   1.349   7.616 -0.2852  2.8113  3.1401
  737MOL0     H97241  -1.700   1.317   7.756 -1.3607  1.1894 -1.8751
  737MOL0     H97242  -1.688   1.138   7.504 -0.5639 -0.6634 -0.3424
  737MOL0     H97243  -1.780   1.111   7.655 -0.4966 -0.3244 -0.3058
  737MOL0     H97244  -1.808   1.347   7.458  0.1363  0.3731  0.9930
  737MOL0     H97245  -1.884   1.344   7.607 -3.2973  1.9002 -3.1387
  737MOL0     H97246  -2.197   1.077   7.464  0.8991 -0.8548 -1.9734
  737MOL0     H97247  -2.387   1.183   7.373  0.0210 -0.4548 -3.0953
  737MOL0     H97248  -2.645   1.234   7.012  2.3407 -0.5339  2.7861
  737MOL0     H97249  -2.888   1.268   6.941 -0.1549 -1.2032  2.3554
  737MOL0     H97250  -3.082   1.369   7.244 -0.0333  0.4634 -0.0142
  737MOL0     H97251  -3.159   1.291   7.120  1.7083 -0.5506  1.6866
  737MOL0     H97252  -3.292   1.524   7.102 -1.5460  0.2833  0.3278
  737MOL0     H97253  -3.171   1.576   7.219  0.1043 -0.4936  0.2598
  737MOL0     H97254  -3.401   1.370   7.246 -0.2832  1.0090 -1.1192
  737MOL0     H97255  -3.411   1.538   7.306  0.5771  0.3823 -2.3334
  737MOL0     H97256  -3.225   1.318   7.426  0.5870 -0.4866 -0.4935
  737MOL0     H97257  -3.201   1.493   7.455  1.6243 -0.0477  0.3200
  737MOL0     H97258  -3.406   1.283   7.524 -2.9548  0.7237 -3.6699
  737MOL0     H97259  -3.468   1.442   7.559  0.7872 -0.1014  0.4803
  737MOL0     H97260  -3.288   1.494   7.715 -4.0959  0.3230  0.5974
  737MOL0     H97261  -3.202   1.353   7.645  0.3341  1.3642 -2.2846
  737MOL0     H97262  -3.441   1.368   7.836 -1.0304 -2.9205  1.2480
  737MOL0     H97263  -3.395   1.218   7.755 -4.2654  0.3583  1.7794
  737MOL0     H97264  -3.188   1.370   7.902 -4.2568  3.2849  1.4412
  737MOL0     H97265  -3.200   1.190   7.869  4.3425  1.3663  2.0248
  737MOL0     H97266  -2.908   1.581   7.241 -0.9799  1.7181 -2.3084
  737MOL0     H97267  -2.672   1.554   7.296  2.5891 -0.8984 -0.7775
  737MOL0     H97268  -2.163   1.543   7.292 -0.2565 -0.7158 -2.0967
  737MOL0     H97269  -1.977   1.455   7.409  2.0069 -2.0277 -0.4299
  737MOL0     H97270  -0.280   0.367   7.337  2.2263  0.1132 -1.6007
  737MOL0     H97271  -0.096   0.448   7.221  0.0845 -0.6624 -1.9516
  737MOL0     H97272  -0.032   0.757   6.841 -0.2879 -0.2661 -0.7006
  737MOL0     H97273   0.102   0.856   6.663  0.9610 -0.0305  0.5583
  737MOL0     H97274   0.521   0.691   6.620 -1.6109 -0.4998  0.5759
  737MOL0     H97275   0.569   0.846   6.698 -0.0598  0.7763 -0.2337
  737MOL0     H97276   0.481   0.815   6.398 -0.6845  1.6797 -0.9910
  737MOL0     H97277   0.554   0.966   6.481  1.0546  0.2278  0.5605
  737MOL0     H97278   0.710   0.872   6.328 -0.2791  0.8052  0.9438
  737MOL0     H97279   0.677   0.707   6.400  1.4692 -1.0163  1.2771
  737MOL0     H97280   0.834   0.928   6.520 -0.7629  0.7492 -3.7502
  737MOL0     H97281   0.775   0.782   6.612  0.4731  0.5927  0.3873
  737MOL0     H97282   1.104   0.674   6.369 -0.0165 -1.2078 -0.1955
  737MOL0     H97283   0.455   0.687   6.849 -0.7798 -0.2596 -0.0404
  737MOL0     H97284   0.306   0.596   7.020 -4.4226 -1.4422  0.6514
  738MOL0     O97285   7.942   8.553   0.386  0.1683 -0.5925 -0.7810
  738MOL0     C97286   8.017   8.465   0.348 -0.1551  0.9791  0.2959
  738MOL0     O97287   7.983   8.336   0.324  0.2111  0.3417 -0.2117
  738MOL0     C97288   7.854   8.275   0.342  0.2160  0.4420  0.1344
  738MOL0     C97289   7.853   8.142   0.395 -0.4082 -0.4626 -0.5088
  738MOL0     C97290   7.727   8.079   0.426 -0.6843 -0.2322 -0.1595
  738MOL0     C97291   7.613   8.138   0.395  0.6751  0.2715 -0.4937
  738MOL0     O97292   7.494   8.074   0.426  0.0614 -0.0979 -0.4533
  738MOL0     C97293   7.373   8.133   0.377 -0.7989  0.2199 -0.5181
  738MOL0     C97294   7.268   8.032   0.408 -0.3094  0.2843 -0.6346
  738MOL0     C97295   7.132   8.066   0.368  0.2821  0.8280 -1.1069
  738MOL0     C97296   7.025   7.964   0.411 -0.7095 -0.2566  0.6483
  738MOL0     C97297   6.993   7.973   0.563  0.5664 -0.3812 -0.0584
  738MOL0     C97298   6.866   7.886   0.601  0.3978 -1.2442  1.3139
  738MOL0     C97299   6.739   7.993   0.625 -1.0727  0.2552  0.3436
  738MOL0     C97300   6.613   7.937   0.690 -0.2988 -0.6555  0.2667
  738MOL0     N97301   6.625   7.929   0.837 -0.2490 -0.3096 -0.3698
  738MOL0     C97302   6.524   7.955   0.920 -0.3021  0.4637 -0.0190
  738MOL0     C97303   6.566   7.925   1.045 -0.1406  0.3547 -0.5149
  738MOL0     C97304   6.485   7.908   1.168 -1.4210  0.2133  0.0402
  738MOL0     C97305   6.333   7.881   1.140  0.0489  0.0361  0.3002
  738MOL0     C97306   6.259   7.853   1.277 -0.2728  0.6692  0.2016
  738MOL0     C97307   6.107   7.824   1.271 -0.1120 -0.5484  0.2796
  738MOL0     O97308   6.060   7.771   1.394 -0.5082 -0.4877 -0.4458
  738MOL0     C97309   5.928   7.742   1.410  0.7027 -0.2440  0.1468
  738MOL0     C97310   5.828   7.762   1.318  0.4223 -0.7742 -0.5910
  738MOL0     C97311   5.694   7.715   1.352 -0.5718  0.2916 -0.5216
  738MOL0     C97312   5.660   7.651   1.473 -0.8179  0.0741 -0.3455
  738MOL0     C97313   5.532   7.580   1.484 -0.7720 -1.1957 -0.7793
  738MOL0     O97314   5.541   7.463   1.561  0.0164 -0.0866  0.5178
  738MOL0     C97315   5.425   7.393   1.576 -0.3776 -0.0803  0.1287
  738MOL0     C97316   5.388   7.289   1.484 -0.6543  0.5680 -0.0523
  738MOL0     C97317   5.272   7.217   1.492  0.3755  0.1966 -0.1464
  738MOL0     C97318   5.183   7.238   1.598  0.4628  0.2611  0.7071
  738MOL0     O97319   5.064   7.177   1.589  0.0756 -0.0490  0.5942
  738MOL0     C97320   4.982   7.171   1.706 -0.2951 -0.7526 -0.9400
  738MOL0     C97321   4.876   7.071   1.687  0.5563  0.2373  0.1098
  738MOL0     C97322   4.789   7.101   1.565 -0.4114 -0.8832 -0.4743
  738MOL0     C97323   4.695   6.987   1.546  0.0084  0.6875  0.2832
  738MOL0     C97324   4.592   7.027   1.436 -1.3250  0.6625 -0.7107
  738MOL0     C97325   4.473   6.924   1.424 -0.5603 -0.4437  0.8065
  738MOL0     C97326   4.515   6.796   1.337  0.8821 -0.6678 -0.1675
  738MOL0     C97327   4.500   6.836   1.190 -0.3011  0.1507  0.8116
  738MOL0    Cl97328   4.545   6.679   1.111 -0.4958  0.1141  0.7212
  738MOL0     C97329   5.208   7.349   1.679  0.7371 -0.3123  0.0929
  738MOL0     C97330   5.336   7.418   1.673  0.1261 -0.6018  0.6132
  738MOL0     O97331   5.428   7.637   1.438 -0.1583  0.6430  0.5002
  738MOL0     C97332   5.764   7.637   1.567  0.1677 -0.0762  0.7925
  738MOL0     C97333   5.897   7.679   1.531 -0.0646  0.4288 -0.2195
  738MOL0     N97334   6.698   7.896   1.034 -0.1062  0.5305 -0.0724
  738MOL0     N97335   6.737   7.897   0.912  0.1906 -0.2819 -0.2030
  738MOL0     C97336   7.612   8.275   0.357 -0.3327 -0.8828  1.1259
  738MOL0     C97337   7.733   8.346   0.331 -0.0720  0.1718 -0.2900
  738MOL0     C97338   8.163   8.503   0.318 -0.6087 -0.1006  0.3450
  738MOL0     C97339   8.264   8.413   0.330 -0.4230 -0.3986 -0.3870
  738MOL0     C97340   8.390   8.460   0.306  0.9567  0.2897 -0.2346
  738MOL0     C97341   8.425   8.587   0.263 -0.1429  0.4255  0.8664
  738MOL0     O97342   8.557   8.616   0.239 -0.1177  0.0424 -0.2131
  738MOL0     C97343   8.593   8.757   0.217 -0.5936  0.0932  0.1721
  738MOL0     C97344   8.741   8.778   0.181 -0.1985 -0.2554  0.3988
  738MOL0     C97345   8.841   8.714   0.280  0.0637  0.2280 -1.0655
  738MOL0     C97346   8.991   8.723   0.238 -0.2494  0.4484  0.2947
  738MOL0     C97347   9.017   8.868   0.253 -0.4672  0.2779  0.8786
  738MOL0     C97348   9.051   8.977   0.237 -0.2115  0.1849 -0.4609
  738MOL0     C97349   8.319   8.678   0.256  0.8878 -0.2290  0.2284
  738MOL0     C97350   8.188   8.634   0.290 -0.2343 -0.2083  0.3077
  738MOL0     H97351   7.948   8.106   0.432 -0.3730  1.9435  2.0738
  738MOL0     H97352   7.727   7.980   0.471  1.2269 -1.2732 -2.2450
  738MOL0     H97353   7.377   8.158   0.270 -0.2733  3.4689  0.1733
  738MOL0     H97354   7.348   8.227   0.426 -1.1853  0.5587 -1.3438
  738MOL0     H97355   7.272   8.011   0.515 -0.7478  3.3983  0.0804
  738MOL0     H97356   7.296   7.942   0.353  0.6114 -0.1937  0.5720
  738MOL0     H97357   7.143   8.074   0.259  7.5661  0.0562 -0.9058
  738MOL0     H97358   7.107   8.165   0.409  1.0566 -0.0859  1.7796
  738MOL0     H97359   6.935   7.994   0.357 -0.2270  0.1665  0.0606
  738MOL0     H97360   7.057   7.865   0.379  2.4115  0.3885  1.4345
  738MOL0     H97361   6.983   8.080   0.585 -2.1997  0.0522 -2.7811
  738MOL0     H97362   7.078   7.929   0.616 -0.1457 -0.0287  1.4345
  738MOL0     H97363   6.884   7.833   0.695 -2.5143 -0.4952  2.3980
  738MOL0     H97364   6.839   7.816   0.521 -1.2702 -0.1415  0.8586
  738MOL0     H97365   6.781   8.064   0.696 -1.0575 -0.7254  1.3390
  738MOL0     H97366   6.710   8.049   0.535 -0.5934  1.7629  1.0924
  738MOL0     H97367   6.602   7.836   0.649  1.3749 -0.4481 -0.7695
  738MOL0     H97368   6.533   8.001   0.649  0.4218 -0.2961 -0.6089
  738MOL0     H97369   6.429   7.995   0.885 -0.8797  1.2948  2.3315
  738MOL0     H97370   6.495   7.991   1.237 -0.6024  1.0056 -0.9927
  738MOL0     H97371   6.515   7.822   1.229 -4.3701 -0.8169  0.2114
  738MOL0     H97372   6.313   7.793   1.078 -0.1923  0.2339  0.0903
  738MOL0     H97373   6.291   7.974   1.098 -0.5394 -0.1178  0.5287
  738MOL0     H97374   6.304   7.762   1.319 -1.7335  0.3419  1.1318
  738MOL0     H97375   6.267   7.946   1.333 -1.6154  0.6015  0.5294
  738MOL0     H97376   6.098   7.741   1.201 -3.9390  0.2433 -0.3717
  738MOL0     H97377   6.048   7.911   1.243 -0.0820  0.2266  2.4282
  738MOL0     H97378   5.835   7.810   1.221 -1.1400 -3.5136 -2.1982
  738MOL0     H97379   5.614   7.727   1.279 -1.7361 -2.1713  0.2753
  738MOL0     H97380   5.446   7.254   1.399 -1.1997 -0.3716 -0.0543
  738MOL0     H97381   5.250   7.133   1.426  2.3268  1.2077 -2.1955
  738MOL0     H97382   4.937   7.265   1.738  3.5081  0.4241  1.5829
  738MOL0     H97383   5.039   7.149   1.797 -1.0336  2.5342  0.4472
  738MOL0     H97384   4.805   7.072   1.770  0.5317 -0.5474  0.1095
  738MOL0     H97385   4.914   6.969   1.670  1.8953  0.9138 -1.2142
  738MOL0     H97386   4.845   7.104   1.471 -2.9586 -0.0076 -2.0436
  738MOL0     H97387   4.736   7.194   1.587 -2.3811 -1.5617 -2.0221
  738MOL0     H97388   4.755   6.902   1.511 -3.2476 -2.1079  1.0015
  738MOL0     H97389   4.641   6.969   1.639  1.9947  5.0824  2.5974
  738MOL0     H97390   4.643   7.044   1.341  0.5321 -0.0165  0.1213
  738MOL0     H97391   4.545   7.124   1.457 -0.4731  1.2169 -1.3049
  738MOL0     H97392   4.382   6.972   1.388  0.5983  2.2467  1.1940
  738MOL0     H97393   4.456   6.883   1.524  2.8900  1.4026  2.3483
  738MOL0     H97394   4.616   6.766   1.368  0.7180 -0.0445  1.0261
  738MOL0     H97395   4.450   6.715   1.372 -1.4133  0.6899 -1.0465
  738MOL0     H97396   4.572   6.916   1.171  1.1304 -1.0620  0.9196
  738MOL0     H97397   4.400   6.865   1.157  0.4188  1.6653 -0.1156
  738MOL0     H97398   5.133   7.366   1.756 -1.1208 -0.9651 -1.4923
  738MOL0     H97399   5.361   7.494   1.747  1.5577 -1.2986  0.8646
  738MOL0     H97400   5.747   7.582   1.659 -1.2755 -1.3500 -0.1873
  738MOL0     H97401   5.967   7.659   1.612 -1.7609 -0.0126  1.2026
  738MOL0     H97402   7.525   8.340   0.359  0.7726  0.6717  1.2293
  738MOL0     H97403   7.736   8.448   0.294 -1.4275 -0.1557 -1.3708
  738MOL0     H97404   8.250   8.310   0.360  1.3830 -0.8796 -1.0821
  738MOL0     H97405   8.472   8.390   0.306 -0.8397 -1.9460 -0.5085
  738MOL0     H97406   8.568   8.810   0.309  3.0364  2.8452 -0.2258
  738MOL0     H97407   8.529   8.807   0.143 -1.7766 -0.3473  0.8614
  738MOL0     H97408   8.763   8.736   0.082  1.9475  0.4642  0.5091
  738MOL0     H97409   8.763   8.882   0.155  0.3608 -0.2298  0.9514
  738MOL0     H97410   8.813   8.609   0.271  0.9375 -0.0027 -1.1423
  738MOL0     H97411   8.822   8.757   0.379  2.6585  0.4473 -0.5952
  738MOL0     H97412   9.068   8.671   0.295  0.1630  1.3075  0.5365
  738MOL0     H97413   9.009   8.707   0.131 -1.1029 -1.1868  0.3574
  738MOL0     H97414   9.083   9.080   0.237  0.9447 -0.1579  0.1719
  738MOL0     H97415   8.327   8.778   0.213  0.7410  0.3778  1.5598
  738MOL0     H97416   8.110   8.706   0.267  2.0257  2.3136  0.0166
  739MOL0     O97417   3.313   0.365   2.470  0.4682  0.2559 -0.1031
  739MOL0     C97418   3.261   0.450   2.398  0.7636  0.1983  1.3034
  739MOL0     O97419   3.134   0.451   2.363  0.7293 -0.4794 -0.3641
  739MOL0     C97420   3.041   0.372   2.426 -0.5274 -0.0634  0.7096
  739MOL0     C97421   3.035   0.366   2.570  0.0609  0.2612  0.2342
  739MOL0     C97422   2.924   0.310   2.631 -0.5660  1.0251 -0.6054
  739MOL0     C97423   2.819   0.247   2.557 -0.3416  0.2723  0.1701
  739MOL0     O97424   2.715   0.181   2.616 -1.2066  0.8655 -0.2445
  739MOL0     C97425   2.701   0.190   2.755 -0.5093 -0.1542 -0.7127
  739MOL0     C97426   2.570   0.134   2.795 -0.7397 -0.7983 -0.6184
  739MOL0     C97427   2.474   0.254   2.830 -0.1004 -0.3097  0.0665
  739MOL0     C97428   2.330   0.196   2.869 -0.0413  0.3658  0.6629
  739MOL0     C97429   2.238   0.302   2.935  0.1419 -0.7803  0.2298
  739MOL0     C97430   2.215   0.433   2.857 -0.1022 -0.5338 -0.5863
  739MOL0     C97431   2.103   0.522   2.906  0.4626 -0.0447  0.5479
  739MOL0     C97432   1.967   0.456   2.879  0.6485  0.8235  0.5122
  739MOL0     N97433   1.864   0.512   2.966  0.4955 -0.4136  0.6516
  739MOL0     C97434   1.852   0.642   2.987 -0.3152 -0.0612  0.2931
  739MOL0     C97435   1.722   0.667   3.011  0.0155 -0.5877  0.1347
  739MOL0     C97436   1.671   0.808   3.056 -0.1706  0.8682  0.2871
  739MOL0     C97437   1.525   0.810   3.055  0.1679 -0.6264  0.0159
  739MOL0     C97438   1.482   0.947   3.125 -0.6486  0.5776 -0.2769
  739MOL0     C97439   1.329   0.988   3.106 -0.3141  0.4837  0.9067
  739MOL0     O97440   1.319   1.123   3.152 -0.5244 -0.2479  0.2202
  739MOL0     C97441   1.202   1.186   3.124 -0.2291 -0.1532 -0.0701
  739MOL0     C97442   1.191   1.319   3.166  0.4668 -0.6191  0.2259
  739MOL0     C97443   1.069   1.392   3.154 -0.2496 -0.9486 -0.3544
  739MOL0     C97444   0.958   1.329   3.094 -0.2365  0.5021  0.9472
  739MOL0     C97445   0.828   1.405   3.057 -0.2342  0.0710 -0.3624
  739MOL0     O97446   0.731   1.346   2.988  0.2376  0.0356  0.2201
  739MOL0     C97447   0.609   1.398   2.958  0.4036  0.3493 -0.2238
  739MOL0     C97448   0.529   1.477   3.031 -0.3309 -0.1653 -0.2856
  739MOL0     C97449   0.411   1.531   2.981  0.3919 -0.3584 -0.2988
  739MOL0     C97450   0.371   1.504   2.854 -1.0831 -0.0342  0.0235
  739MOL0     O97451   0.258   1.547   2.798  0.0597  0.0716 -0.0377
  739MOL0     C97452   0.166   1.634   2.867 -0.4522  0.2758  0.1000
  739MOL0     C97453   0.081   1.697   2.755 -0.2411 -1.0065 -0.2386
  739MOL0     C97454   0.155   1.789   2.655  0.2244  0.8342  0.4560
  739MOL0     C97455   0.217   1.908   2.718 -0.8506  0.9368 -0.3378
  739MOL0     C97456   0.114   1.984   2.802  0.5273  0.0490  1.0154
  739MOL0     C97457   0.170   2.129   2.831 -0.6301  0.2247 -0.0294
  739MOL0     C97458   0.049   2.216   2.862 -0.1353 -0.7881 -0.4224
  739MOL0     C97459   0.006   2.211   3.006  0.1073  1.0619 -1.1988
  739MOL0    Cl97460  -0.124   2.082   3.021 -0.5355  0.1142 -0.3557
  739MOL0     C97461   0.450   1.419   2.769 -0.3133  0.0066 -0.0639
  739MOL0     C97462   0.562   1.369   2.826  0.2086 -0.0654 -0.6996
  739MOL0     O97463   0.840   1.522   3.089 -1.0830 -0.2188  0.0857
  739MOL0     C97464   0.979   1.200   3.045 -0.0823  0.2288  0.4212
  739MOL0     C97465   1.099   1.128   3.054  0.0552  0.5878  1.1173
  739MOL0     N97466   1.653   0.549   3.015 -0.5278 -0.2008  0.0728
  739MOL0     N97467   1.739   0.458   2.981  0.1327  0.0028 -0.0088
  739MOL0     C97468   2.827   0.248   2.420 -0.1860  0.0820 -0.2507
  739MOL0     C97469   2.939   0.308   2.353 -0.0274 -0.3349 -1.0556
  739MOL0     C97470   3.335   0.571   2.371  0.2134 -0.2441 -0.2426
  739MOL0     C97471   3.279   0.676   2.298  0.0411 -0.7166  0.0718
  739MOL0     C97472   3.356   0.786   2.255  0.1639  0.0321 -0.2190
  739MOL0     C97473   3.487   0.804   2.299  0.6013 -0.5016  0.1706
  739MOL0     O97474   3.574   0.905   2.264  0.2328 -0.3236  0.3542
  739MOL0     C97475   3.535   1.012   2.180  0.2827  0.5479  0.0952
  739MOL0     C97476   3.661   1.095   2.136  0.8472  0.1091 -0.1207
  739MOL0     C97477   3.776   1.002   2.080 -0.1163  0.3627  0.1904
  739MOL0     C97478   3.878   0.975   2.187 -0.0812  0.9201 -0.1430
  739MOL0     C97479   3.994   0.912   2.127 -0.6745  0.9011 -0.4801
  739MOL0     C97480   4.094   0.837   2.112  0.0751 -0.0189  0.3886
  739MOL0     C97481   3.535   0.703   2.384 -0.5217 -0.1147 -0.3691
  739MOL0     C97482   3.466   0.582   2.413 -0.3621 -0.3410 -0.4251
  739MOL0     H97483   3.120   0.399   2.629 -0.5017  0.0328  1.2004
  739MOL0     H97484   2.927   0.306   2.740 -0.5035  0.1133 -0.6274
  739MOL0     H97485   2.730   0.293   2.779  3.2084 -1.4973  1.4007
  739MOL0     H97486   2.776   0.128   2.805 -0.3494  1.6318  1.4265
  739MOL0     H97487   2.572   0.086   2.893 -2.5991 -0.2564 -0.2777
  739MOL0     H97488   2.525   0.077   2.712  0.4975 -1.7872 -0.6492
  739MOL0     H97489   2.477   0.329   2.750 -0.2997 -0.1595  0.1971
  739MOL0     H97490   2.512   0.305   2.919 -1.6359 -0.0161  0.5841
  739MOL0     H97491   2.268   0.164   2.784  0.1082 -0.6083  0.9082
  739MOL0     H97492   2.342   0.108   2.933 -3.2685  0.1847  1.2152
  739MOL0     H97493   2.284   0.324   3.032  0.1459 -1.1995  0.3218
  739MOL0     H97494   2.141   0.256   2.956  0.3866 -0.9366  1.0333
  739MOL0     H97495   2.197   0.420   2.749 -0.7447  0.2467 -0.5803
  739MOL0     H97496   2.304   0.496   2.864 -1.1267  0.7293  3.4220
  739MOL0     H97497   2.121   0.553   3.010  1.5666  1.8254 -0.1485
  739MOL0     H97498   2.100   0.615   2.849  0.5634  0.6063  1.5620
  739MOL0     H97499   1.981   0.347   2.878  3.7806  1.1382 -1.3268
  739MOL0     H97500   1.940   0.477   2.775  3.0070  1.8654  0.0555
  739MOL0     H97501   1.926   0.720   2.966  2.0872 -2.4577 -0.7940
  739MOL0     H97502   1.707   0.894   3.000  0.4507  0.7378  0.4855
  739MOL0     H97503   1.713   0.819   3.157  1.2905  0.3823 -0.2429
  739MOL0     H97504   1.489   0.720   3.106 -0.9402  0.2778  0.8887
  739MOL0     H97505   1.479   0.794   2.957  1.6619  2.4511 -1.3342
  739MOL0     H97506   1.507   0.931   3.230  0.6684  0.2506 -0.6184
  739MOL0     H97507   1.546   1.024   3.080  0.3962 -0.4112 -0.5077
  739MOL0     H97508   1.274   0.915   3.166  0.8017 -2.3830 -1.3172
  739MOL0     H97509   1.312   0.976   2.999  0.9618  0.0247  0.7348
  739MOL0     H97510   1.273   1.366   3.220  1.1554  0.3412 -1.5729
  739MOL0     H97511   1.043   1.489   3.196 -0.3672 -0.5329 -1.3439
  739MOL0     H97512   0.555   1.471   3.136  0.9725 -1.2949 -0.6415
  739MOL0     H97513   0.361   1.599   3.050  3.1469  2.2290 -0.6334
  739MOL0     H97514   0.226   1.707   2.921  1.2896 -2.1715  1.6717
  739MOL0     H97515   0.102   1.579   2.936 -1.4397 -0.8876 -1.6707
  739MOL0     H97516  -0.006   1.745   2.801  2.1223  4.1701 -0.4839
  739MOL0     H97517   0.038   1.615   2.697  1.4123 -0.7537 -1.9340
  739MOL0     H97518   0.080   1.835   2.590 -1.0333 -0.8700  0.6358
  739MOL0     H97519   0.226   1.737   2.589  0.2675  0.8081  0.5234
  739MOL0     H97520   0.303   1.884   2.783 -1.0113  0.0813 -0.4252
  739MOL0     H97521   0.250   1.972   2.636  0.4337 -0.2141 -0.7756
  739MOL0     H97522   0.111   1.939   2.901 -0.9464  1.7046  1.7897
  739MOL0     H97523   0.012   1.987   2.761  0.7935  0.7739  0.3701
  739MOL0     H97524   0.230   2.165   2.747 -0.1689 -0.3428  0.0524
  739MOL0     H97525   0.240   2.121   2.915 -2.2776 -0.1679  1.3740
  739MOL0     H97526   0.088   2.318   2.852 -1.0313 -0.1930  1.5461
  739MOL0     H97527  -0.030   2.199   2.789 -0.4932 -2.2400  0.2604
  739MOL0     H97528  -0.044   2.304   3.033 -2.4081  0.5966 -3.6599
  739MOL0     H97529   0.091   2.194   3.072  0.2357 -0.1706 -1.6463
  739MOL0     H97530   0.412   1.388   2.672  1.0766 -0.5073 -0.4608
  739MOL0     H97531   0.625   1.300   2.771  1.8857  0.3194  0.6595
  739MOL0     H97532   0.898   1.157   2.987  0.9374  1.5520 -2.1788
  739MOL0     H97533   1.091   1.028   3.012 -0.1235  0.0751  2.3228
  739MOL0     H97534   2.749   0.199   2.362  0.3754 -0.9707 -0.1386
  739MOL0     H97535   2.940   0.298   2.245 -0.8629  1.0655 -1.2257
  739MOL0     H97536   3.183   0.671   2.248  0.4156  0.5058 -0.8151
  739MOL0     H97537   3.306   0.856   2.188 -1.9311 -0.6131  0.5923
  739MOL0     H97538   3.453   1.058   2.235 -1.3270  2.0714 -3.2782
  739MOL0     H97539   3.488   0.969   2.091 -0.7221 -1.4436  1.5236
  739MOL0     H97540   3.623   1.167   2.063  2.0789 -0.9854 -1.9242
  739MOL0     H97541   3.694   1.153   2.223  0.6171  0.5068 -0.2972
  739MOL0     H97542   3.821   1.055   1.996  3.3287 -1.5024  0.6735
  739MOL0     H97543   3.733   0.904   2.055  2.4797 -0.8820  0.2204
  739MOL0     H97544   3.918   1.069   2.226  1.3667  0.7845 -1.2239
  739MOL0     H97545   3.844   0.911   2.269  0.0228  1.0227 -0.0177
  739MOL0     H97546   4.181   0.782   2.084 -0.6833 -0.8646 -0.3706
  739MOL0     H97547   3.641   0.710   2.404 -0.1517  0.3212 -2.2958
  739MOL0     H97548   3.523   0.500   2.455  1.0308 -0.2652 -2.0545
  740MOL0     O97549   3.322   8.448   4.099 -1.3136  0.2792  0.1019
  740MOL0     C97550   3.386   8.541   4.156 -0.9828  0.0310  0.5107
  740MOL0     O97551   3.334   8.636   4.231  0.1389 -0.2160 -0.2763
  740MOL0     C97552   3.195   8.649   4.218 -0.6156  1.3542  0.3846
  740MOL0     C97553   3.137   8.679   4.334 -0.1417  0.5599 -0.6027
  740MOL0     C97554   3.003   8.683   4.343 -0.2958  0.0918 -0.1743
  740MOL0     C97555   2.918   8.671   4.237  0.0854  0.0540  0.0333
  740MOL0     O97556   2.780   8.680   4.235  0.3133 -0.1309 -0.0819
  740MOL0     C97557   2.708   8.732   4.353  0.6291  0.4408 -0.6602
  740MOL0     C97558   2.574   8.755   4.296  0.0659 -0.0706 -0.0359
  740MOL0     C97559   2.463   8.817   4.393  0.7452 -0.2149 -0.3269
  740MOL0     C97560   2.341   8.842   4.309 -0.0068  0.1364 -0.4014
  740MOL0     C97561   2.234   8.891   4.416  0.4050 -0.0617  1.0221
  740MOL0     C97562   2.114   8.969   4.349 -0.3110 -0.1543  0.2040
  740MOL0     C97563   2.015   9.033   4.447  0.1015  0.2766 -0.0359
  740MOL0     C97564   1.922   9.132   4.365 -0.0980  0.2566 -0.3509
  740MOL0     N97565   1.806   9.178   4.438  0.1533  0.2885 -0.4280
  740MOL0     C97566   1.800   9.292   4.509  0.0769  0.8544  0.8033
  740MOL0     C97567   1.667   9.312   4.511  0.1402 -0.1934 -0.0392
  740MOL0     C97568   1.594   9.449   4.554  0.0982  0.4682  0.2456
  740MOL0     C97569   1.469   9.407   4.645  0.0753  0.6136 -1.0442
  740MOL0     C97570   1.379   9.530   4.656  0.0245 -0.3847  0.8314
  740MOL0     C97571   1.255   9.482   4.731  0.6096  1.2032  0.1336
  740MOL0     O97572   1.171   9.576   4.779  0.9648  0.4395 -0.2109
  740MOL0     C97573   1.067   9.622   4.704 -0.3190  0.3671  0.7456
  740MOL0     C97574   1.046   9.591   4.573 -0.0845  0.4546 -0.1011
  740MOL0     C97575   0.933   9.640   4.508  1.1171  0.4125  0.5086
  740MOL0     C97576   0.841   9.735   4.568  0.6710  0.0098 -0.3347
  740MOL0     C97577   0.719   9.777   4.488  0.2195 -0.2875 -0.3347
  740MOL0     O97578   0.627   9.858   4.553  0.2551  0.3371  0.2177
  740MOL0     C97579   0.517   9.897   4.488 -0.8423 -0.1049 -0.5813
  740MOL0     C97580   0.518   9.974   4.375 -0.0656  0.7138  0.4512
  740MOL0     C97581   0.404  10.031   4.320  0.2243  0.7103 -1.0074
  740MOL0     C97582   0.278  10.004   4.371 -0.0424 -0.6237  0.5600
  740MOL0     O97583   0.180  10.054   4.295  0.2509  0.8437  0.7779
  740MOL0     C97584   0.047  10.003   4.328 -0.2095 -0.5658  0.3804
  740MOL0     C97585  -0.055  10.086   4.248  0.4297  0.4449 -0.1846
  740MOL0     C97586  -0.195  10.073   4.295 -0.3849  0.1404 -0.8862
  740MOL0     C97587  -0.294  10.124   4.186 -0.1128  0.4338  0.4800
  740MOL0     C97588  -0.441  10.133   4.245 -0.2533  0.1135  0.3335
  740MOL0     C97589  -0.526  10.204   4.144  0.6983  0.0183  0.1287
  740MOL0     C97590  -0.664  10.235   4.197  0.0497  0.2257 -0.1102
  740MOL0     C97591  -0.736  10.330   4.094 -0.3419  0.8915  0.3885
  740MOL0    Cl97592  -0.912  10.349   4.119  0.0755  0.3531  0.3265
  740MOL0     C97593   0.271   9.929   4.488 -0.1391  0.3638  0.0326
  740MOL0     C97594   0.392   9.882   4.559 -0.1464 -0.4257  0.4077
  740MOL0     O97595   0.725   9.760   4.369 -0.7050  0.1702 -0.4544
  740MOL0     C97596   0.854   9.758   4.707 -0.5073 -0.8912 -0.0096
  740MOL0     C97597   0.974   9.707   4.769  0.0274  0.2969  0.9894
  740MOL0     N97598   1.604   9.208   4.455  0.0278  0.1606 -0.1167
  740MOL0     N97599   1.691   9.128   4.409 -0.0320  0.0350  0.1656
  740MOL0     C97600   2.980   8.650   4.110  1.0621 -0.4011 -0.5617
  740MOL0     C97601   3.118   8.643   4.095 -0.2230  0.6242  0.1347
  740MOL0     C97602   3.533   8.553   4.127 -0.1695 -0.3141  0.1302
  740MOL0     C97603   3.592   8.671   4.175 -0.3135  0.5655 -1.1334
  740MOL0     C97604   3.726   8.695   4.168  0.6393  0.1766  1.3799
  740MOL0     C97605   3.805   8.611   4.089  0.3142  0.1820 -0.2846
  740MOL0     O97606   3.933   8.642   4.067 -0.9044  0.1100  0.1290
  740MOL0     C97607   4.016   8.552   3.987  0.1672  0.3325 -0.3102
  740MOL0     C97608   4.154   8.604   3.951  0.3338  0.8411  0.4833
  740MOL0     C97609   4.237   8.514   3.865 -0.4288  0.6184  0.2018
  740MOL0     C97610   4.309   8.400   3.932 -0.4136  0.2326  0.6110
  740MOL0     C97611   4.418   8.359   3.833  0.3208 -0.4040  0.3393
  740MOL0     C97612   4.501   8.314   3.752 -1.0633 -0.3052 -0.4794
  740MOL0     C97613   3.750   8.484   4.045 -0.4766 -0.3848  0.8727
  740MOL0     C97614   3.608   8.469   4.052 -0.3594  0.3857 -0.8607
  740MOL0     H97615   3.197   8.695   4.423 -1.0244  0.3918  0.0332
  740MOL0     H97616   2.955   8.689   4.440  1.2319 -1.2604  0.7144
  740MOL0     H97617   2.751   8.821   4.398 -0.8049  1.5431 -1.3852
  740MOL0     H97618   2.699   8.664   4.439  1.3521  0.5372 -0.5064
  740MOL0     H97619   2.524   8.666   4.258 -1.3684  0.7472 -0.1553
  740MOL0     H97620   2.586   8.819   4.208 -1.0185 -1.9280 -1.6349
  740MOL0     H97621   2.496   8.912   4.434 -0.4511  0.1966 -0.2704
  740MOL0     H97622   2.442   8.750   4.477 -3.0531  1.6238  0.4252
  740MOL0     H97623   2.377   8.911   4.232 -0.2654  0.2833 -0.3914
  740MOL0     H97624   2.303   8.748   4.269 -0.8002  0.3902 -0.2596
  740MOL0     H97625   2.281   8.962   4.485 -1.9527  2.5294  0.1840
  740MOL0     H97626   2.205   8.803   4.474 -0.2652 -1.8561 -1.8688
  740MOL0     H97627   2.056   8.896   4.292 -0.6579  1.0339 -1.0397
  740MOL0     H97628   2.160   9.043   4.282  3.5421 -2.6061 -0.1761
  740MOL0     H97629   1.953   8.957   4.496  1.7990 -1.7492 -0.8408
  740MOL0     H97630   2.061   9.096   4.524 -0.7005 -0.5914  1.1802
  740MOL0     H97631   1.886   9.073   4.280  0.5515 -2.1258  0.9127
  740MOL0     H97632   1.980   9.216   4.326 -0.6879  0.9309  0.1918
  740MOL0     H97633   1.885   9.352   4.542  0.7006 -0.4935  1.7266
  740MOL0     H97634   1.568   9.504   4.463  2.2268 -0.1439 -0.7936
  740MOL0     H97635   1.671   9.502   4.610  0.4525  0.2533 -0.0330
  740MOL0     H97636   1.503   9.371   4.743 -1.1172 -0.4957 -1.0187
  740MOL0     H97637   1.410   9.329   4.596 -0.6475  2.2280 -2.8478
  740MOL0     H97638   1.428   9.607   4.715  0.9132 -0.9503  0.8498
  740MOL0     H97639   1.360   9.563   4.554  2.7881 -0.5580  0.1981
  740MOL0     H97640   1.289   9.429   4.821 -0.5253  0.2283  0.0095
  740MOL0     H97641   1.202   9.404   4.677 -0.6344  0.4014  2.3644
  740MOL0     H97642   1.101   9.513   4.522  2.4898  1.1911  1.3600
  740MOL0     H97643   0.915   9.616   4.404  0.0075 -2.6860  1.3025
  740MOL0     H97644   0.613   9.987   4.323 -0.5496 -0.4565 -0.7818
  740MOL0     H97645   0.419  10.085   4.227 -2.0097  0.9311 -1.2784
  740MOL0     H97646   0.028  10.027   4.433  1.8819  1.1927  0.4447
  740MOL0     H97647   0.043   9.897   4.304  1.6609 -0.4134 -0.8630
  740MOL0     H97648  -0.055  10.045   4.147 -4.3239 -1.2485  0.2116
  740MOL0     H97649  -0.024  10.191   4.260 -0.1056  0.6150 -0.2414
  740MOL0     H97650  -0.229  10.141   4.374 -0.1625  0.9575 -1.4729
  740MOL0     H97651  -0.215   9.967   4.310 -1.6809  0.5722  0.7284
  740MOL0     H97652  -0.266  10.227   4.164 -1.0468  1.3954  3.2685
  740MOL0     H97653  -0.287  10.062   4.097  2.5623  0.8678  0.3279
  740MOL0     H97654  -0.436  10.200   4.331 -1.6299  0.7225 -0.0381
  740MOL0     H97655  -0.468  10.029   4.267  2.2241 -0.7708 -0.5203
  740MOL0     H97656  -0.546  10.138   4.059 -0.3224  0.0338  0.3480
  740MOL0     H97657  -0.486  10.300   4.110  0.7515 -0.7976 -2.2488
  740MOL0     H97658  -0.715  10.141   4.216  0.0944  0.1859 -0.1860
  740MOL0     H97659  -0.657  10.285   4.294 -0.7408 -1.7499  1.0248
  740MOL0     H97660  -0.727  10.275   4.000  1.1691  1.2163  0.3179
  740MOL0     H97661  -0.688  10.428   4.087 -0.3312  0.8523 -0.0819
  740MOL0     H97662   0.173   9.903   4.526 -0.6377  2.2584  0.1544
  740MOL0     H97663   0.380   9.825   4.651  1.2867  1.7727  2.0532
  740MOL0     H97664   0.789   9.815   4.772  0.7801  0.1815  0.3868
  740MOL0     H97665   0.985   9.739   4.872 -0.6722 -1.1457  1.5385
  740MOL0     H97666   2.915   8.660   4.023  2.7743  1.8320 -1.6830
  740MOL0     H97667   3.155   8.633   3.994 -2.6577 -2.0677 -0.6240
  740MOL0     H97668   3.528   8.744   4.222 -0.4465  0.8060 -1.6789
  740MOL0     H97669   3.774   8.783   4.209  0.2475 -0.1314  2.5557
  740MOL0     H97670   3.964   8.541   3.892 -1.1378  3.4613 -0.0645
  740MOL0     H97671   4.016   8.452   4.033  0.5280 -0.7376 -2.5025
  740MOL0     H97672   4.134   8.698   3.900 -0.0846  0.1841 -0.6162
  740MOL0     H97673   4.193   8.633   4.049  2.8298  1.2407 -0.5525
  740MOL0     H97674   4.318   8.573   3.821 -0.6480  0.0247 -1.0316
  740MOL0     H97675   4.190   8.472   3.776  1.2098 -1.2706  0.1389
  740MOL0     H97676   4.367   8.434   4.019  2.0727  0.2331 -0.9455
  740MOL0     H97677   4.248   8.316   3.966  0.8544 -1.7577 -1.7133
  740MOL0     H97678   4.583   8.298   3.685  0.4983  2.1523  0.7297
  740MOL0     H97679   3.806   8.411   3.988 -1.0391 -0.1060 -0.0476
  740MOL0     H97680   3.560   8.384   4.005 -2.4082  1.5209 -0.9251
  741MOL0     O97681   1.508   1.299   9.830  0.0589  0.1972  0.4087
  741MOL0     C97682   1.576   1.332   9.926 -0.3000  0.7755 -0.0874
  741MOL0     O97683   1.531   1.373  10.049  0.6326 -0.1617 -0.1486
  741MOL0     C97684   1.398   1.351  10.068 -1.0919  0.3065 -0.5013
  741MOL0     C97685   1.317   1.465  10.079  0.2383 -0.2552  0.1275
  741MOL0     C97686   1.179   1.454  10.086 -0.3889 -0.7384  0.0861
  741MOL0     C97687   1.125   1.324  10.075  0.0039  0.2004  0.0809
  741MOL0     O97688   0.989   1.308  10.074  0.1568  0.3866 -0.6512
  741MOL0     C97689   0.922   1.386  10.174  0.9751 -0.2898  0.2485
  741MOL0     C97690   0.775   1.334  10.195 -0.0216  0.3651 -0.2168
  741MOL0     C97691   0.711   1.410  10.305 -0.2313  0.3367  0.7842
  741MOL0     C97692   0.582   1.354  10.356  0.2397  0.1684 -0.1968
  741MOL0     C97693   0.466   1.365  10.242 -0.7185  0.1460  0.4096
  741MOL0     C97694   0.330   1.352  10.303 -0.5465 -0.0301  0.5357
  741MOL0     C97695   0.224   1.392  10.204  0.0141  0.5463  0.2253
  741MOL0     C97696   0.083   1.386  10.266  0.0103 -0.9917 -0.3382
  741MOL0     N97697   0.015   1.527  10.264  0.4896  0.3342 -0.4186
  741MOL0     C97698  -0.031   1.582  10.145 -0.3383  0.0441  0.0017
  741MOL0     C97699  -0.053   1.709  10.172  0.8021  0.0415 -0.7362
  741MOL0     C97700  -0.111   1.809  10.069 -0.0936 -0.3636  0.7058
  741MOL0     C97701  -0.254   1.772  10.022 -0.5838  0.4121 -0.5206
  741MOL0     C97702  -0.354   1.746  10.142 -0.7759 -1.0323  0.0811
  741MOL0     C97703  -0.494   1.759  10.091  0.0757  0.2131 -0.1610
  741MOL0     O97704  -0.597   1.728  10.186 -0.2275  0.1791 -0.6609
  741MOL0     C97705  -0.628   1.601  10.226 -0.5442  0.2714  0.3983
  741MOL0     C97706  -0.554   1.487  10.185 -0.7675 -0.2677 -0.6939
  741MOL0     C97707  -0.585   1.358  10.225 -0.2175 -0.3477  0.1584
  741MOL0     C97708  -0.686   1.349  10.322  0.2492 -0.2512 -1.0066
  741MOL0     C97709  -0.720   1.212  10.377 -0.3255 -0.1885  0.8942
  741MOL0     O97710  -0.839   1.202  10.441  0.4463 -0.8855  0.1883
  741MOL0     C97711  -0.877   1.076  10.476 -0.5312 -0.4367 -0.6318
  741MOL0     C97712  -0.856   1.027  10.606 -0.6963 -0.7206 -0.6969
  741MOL0     C97713  -0.894   0.906  10.642  0.6489  0.5040 -0.8934
  741MOL0     C97714  -0.969   0.826  10.549  0.4933 -0.6733  0.6449
  741MOL0     O97715  -1.020   0.700  10.577 -0.2236 -0.4507 -0.2265
  741MOL0     C97716  -1.138   0.637  10.511  0.3791 -0.3953  0.2295
  741MOL0     C97717  -1.193   0.517  10.598 -0.0009 -0.4274 -0.2150
  741MOL0     C97718  -1.204   0.556  10.743  1.5340  0.6010 -0.1367
  741MOL0     C97719  -1.300   0.674  10.771  0.2655 -0.4691  0.1570
  741MOL0     C97720  -1.446   0.647  10.800 -0.2729 -0.2467  0.8515
  741MOL0     C97721  -1.512   0.786  10.835 -1.2508  0.5330 -0.1015
  741MOL0     C97722  -1.658   0.769  10.878 -0.0481  0.4216  0.1529
  741MOL0     C97723  -1.695   0.902  10.941  0.4036 -0.2709  0.3231
  741MOL0    Cl97724  -1.871   0.910  10.970  0.1748  0.0933  0.0132
  741MOL0     C97725  -0.994   0.875  10.426  0.2512 -0.8230  0.5223
  741MOL0     C97726  -0.951   1.003  10.381 -0.1346  0.1573  0.2742
  741MOL0     O97727  -0.624   1.135  10.381 -0.4762  0.1159 -0.4101
  741MOL0     C97728  -0.757   1.463  10.369 -0.3393  0.0575  0.4973
  741MOL0     C97729  -0.724   1.587  10.318  0.8219  0.5260 -0.4340
  741MOL0     N97730  -0.029   1.736  10.309 -0.0593  0.0039 -0.3202
  741MOL0     N97731   0.015   1.626  10.363  0.9312 -0.7416 -0.1551
  741MOL0     C97732   1.205   1.207  10.056  0.4626 -0.3350 -0.6000
  741MOL0     C97733   1.345   1.225  10.055  0.1387 -0.3584  0.3075
  741MOL0     C97734   1.722   1.328   9.908  0.0559 -0.2065  0.2470
  741MOL0     C97735   1.795   1.274   9.796 -0.4045 -0.3976  0.1559
  741MOL0     C97736   1.930   1.264   9.782  0.1625 -0.6621  0.8608
  741MOL0     C97737   2.015   1.290   9.894  0.4106 -0.3223 -0.0392
  741MOL0     O97738   2.143   1.257   9.909 -0.2011 -0.0947  0.0842
  741MOL0     C97739   2.191   1.131   9.849  0.2516 -0.5265 -0.4932
  741MOL0     C97740   2.322   1.093   9.897 -0.3864  0.6096  0.4194
  741MOL0     C97741   2.436   1.182   9.855 -0.5914  1.4702 -0.2549
  741MOL0     C97742   2.468   1.170   9.707  0.0021 -0.0323  0.6580
  741MOL0     C97743   2.574   1.266   9.663  0.1475  0.5039  0.2152
  741MOL0     C97744   2.630   1.354   9.606 -0.4767 -0.6941  0.4148
  741MOL0     C97745   1.949   1.349  10.008 -0.1757  0.9754 -0.2660
  741MOL0     C97746   1.806   1.368  10.013  0.0524  0.0823 -0.9042
  741MOL0     H97747   1.367   1.561  10.083 -0.3846  0.0508  0.5929
  741MOL0     H97748   1.115   1.542  10.084  2.4491  1.4672 -1.3650
  741MOL0     H97749   0.922   1.493  10.152  3.3905 -0.4531 -0.8581
  741MOL0     H97750   0.973   1.379  10.270  1.0214  2.2202  0.4703
  741MOL0     H97751   0.786   1.233  10.235 -0.7819  0.1236 -0.5979
  741MOL0     H97752   0.715   1.343  10.103  0.5275 -0.0339 -0.6215
  741MOL0     H97753   0.684   1.509  10.269  0.0156 -0.4466 -1.8048
  741MOL0     H97754   0.784   1.427  10.385 -0.5190  0.8331  0.9402
  741MOL0     H97755   0.597   1.250  10.386  1.4660  0.6733  1.0758
  741MOL0     H97756   0.542   1.418  10.435 -0.3787  0.4620 -0.7391
  741MOL0     H97757   0.482   1.291  10.162  0.7728  2.4820 -1.6246
  741MOL0     H97758   0.464   1.465  10.198 -3.1891 -0.6866 -1.6279
  741MOL0     H97759   0.318   1.423  10.385 -0.3767  1.0672 -0.3618
  741MOL0     H97760   0.314   1.246  10.326 -0.2574 -0.3774 -0.7934
  741MOL0     H97761   0.239   1.491  10.160  1.3774  0.4405  0.3963
  741MOL0     H97762   0.228   1.313  10.128  2.8930  1.4125 -0.6608
  741MOL0     H97763   0.085   1.352  10.370 -0.4767  0.9534  0.3480
  741MOL0     H97764   0.016   1.330  10.201  1.6064  0.3484 -3.3554
  741MOL0     H97765  -0.041   1.546  10.044  2.4307 -0.2320 -0.2510
  741MOL0     H97766  -0.048   1.804   9.979  1.1236 -2.7174  1.6125
  741MOL0     H97767  -0.099   1.912  10.106  1.1443  0.3610 -1.5165
  741MOL0     H97768  -0.246   1.680   9.964  0.6114  0.3392 -0.2682
  741MOL0     H97769  -0.277   1.851   9.950  2.8653  0.8377 -1.3446
  741MOL0     H97770  -0.347   1.645  10.185 -3.2905 -0.7143  1.4117
  741MOL0     H97771  -0.331   1.817  10.221 -0.5872  0.2039 -1.0423
  741MOL0     H97772  -0.498   1.686  10.010  2.1705 -0.2494  0.0797
  741MOL0     H97773  -0.513   1.859  10.053 -1.3518  0.3886  0.9174
  741MOL0     H97774  -0.477   1.483  10.109 -1.8332 -1.8621 -1.7463
  741MOL0     H97775  -0.527   1.275  10.185  1.8527  0.4227  1.3878
  741MOL0     H97776  -0.797   1.082  10.679 -1.1313  0.6236 -1.3354
  741MOL0     H97777  -0.869   0.865  10.740 -0.3151  1.8552 -0.0371
  741MOL0     H97778  -1.104   0.596  10.416  2.3258  0.9557  0.2891
  741MOL0     H97779  -1.217   0.711  10.496  1.5184  1.0143  0.8879
  741MOL0     H97780  -1.128   0.430  10.595 -0.5221 -0.8849  1.0502
  741MOL0     H97781  -1.284   0.482  10.548  0.4918 -1.1489 -0.6257
  741MOL0     H97782  -1.103   0.564  10.785  2.6790  2.2569 -2.9711
  741MOL0     H97783  -1.241   0.474  10.805  1.0353  0.7273 -0.2577
  741MOL0     H97784  -1.258   0.728  10.857  0.5203 -1.6836  0.8140
  741MOL0     H97785  -1.297   0.738  10.682 -1.0274 -3.9942 -2.6775
  741MOL0     H97786  -1.439   0.573  10.880 -0.3641 -0.5538  0.5752
  741MOL0     H97787  -1.506   0.602  10.721 -0.8470 -2.0520  2.2581
  741MOL0     H97788  -1.500   0.856  10.752  0.7869  2.8394  1.9373
  741MOL0     H97789  -1.452   0.822  10.920  2.4565 -1.3293 -1.7346
  741MOL0     H97790  -1.723   0.748  10.793  1.0884  1.1555 -0.9265
  741MOL0     H97791  -1.672   0.685  10.947 -3.1279  0.4937 -0.2799
  741MOL0     H97792  -1.680   0.982  10.869  0.2266  0.4094  1.0248
  741MOL0     H97793  -1.639   0.927  11.032  4.6808  2.8026 -2.7573
  741MOL0     H97794  -1.046   0.814  10.353 -2.2058 -0.2299  1.7010
  741MOL0     H97795  -0.962   1.032  10.277  0.0183 -0.5300  0.0564
  741MOL0     H97796  -0.838   1.466  10.441 -1.8681 -0.0687 -1.1543
  741MOL0     H97797  -0.782   1.668  10.362  0.5347  0.2575 -0.3033
  741MOL0     H97798   1.160   1.108  10.045 -0.4560  0.1963 -1.8910
  741MOL0     H97799   1.413   1.141  10.051  0.2058 -0.2853 -0.1408
  741MOL0     H97800   1.729   1.245   9.715 -1.5376  0.5430  0.6994
  741MOL0     H97801   1.967   1.221   9.689  2.5079 -0.5353  1.6580
  741MOL0     H97802   2.181   1.142   9.741 -1.1997 -0.9096 -0.4207
  741MOL0     H97803   2.117   1.057   9.880 -0.5417 -0.2279 -1.6051
  741MOL0     H97804   2.320   1.094  10.006 -3.2341  1.1537  0.4334
  741MOL0     H97805   2.342   0.988   9.876 -0.3495  0.6700  0.1499
  741MOL0     H97806   2.527   1.156   9.911 -0.2326 -1.0377 -1.8092
  741MOL0     H97807   2.406   1.286   9.870  0.3975  2.4700 -4.1112
  741MOL0     H97808   2.503   1.068   9.689 -0.8378 -0.2576  0.2591
  741MOL0     H97809   2.382   1.176   9.640 -0.6115  3.4171  1.5655
  741MOL0     H97810   2.684   1.437   9.564 -1.6053 -0.3902 -0.4826
  741MOL0     H97811   2.013   1.372  10.092 -1.0798 -2.3584  1.5136
  741MOL0     H97812   1.766   1.393  10.110 -1.0329 -2.6021 -0.5850
  742MOL0     O97813  10.444  10.452   6.076  0.2543 -0.0712 -0.2564
  742MOL0     C97814  10.417  10.558   6.144 -0.9296  0.1299  0.2609
  742MOL0     O97815  10.302  10.626   6.149  0.3950 -0.2707  0.0498
  742MOL0     C97816  10.188  10.560   6.091 -0.2280 -0.5924 -0.0375
  742MOL0     C97817  10.077  10.554   6.173  0.5834 -0.0832  1.4734
  742MOL0     C97818   9.951  10.495   6.132  0.1811  0.8089 -0.3986
  742MOL0     C97819   9.943  10.434   6.007 -0.0715  0.1081  0.0084
  742MOL0     O97820   9.814  10.393   5.981  0.1425  0.2386  0.5337
  742MOL0     C97821   9.795  10.300   5.863  0.5037  0.5002 -0.4702
  742MOL0     C97822   9.661  10.243   5.835  0.5289 -0.5060 -0.9003
  742MOL0     C97823   9.594  10.181   5.953  0.6042  0.4206 -0.0291
  742MOL0     C97824   9.446  10.134   5.914  0.1757  0.3131 -0.7604
  742MOL0     C97825   9.397  10.052   6.034  0.2819  0.0463  0.5132
  742MOL0     C97826   9.254  10.000   5.997 -0.0216  0.1183  0.8320
  742MOL0     C97827   9.210   9.909   6.107 -0.6217 -0.0550  0.5843
  742MOL0     C97828   9.101   9.808   6.068  0.1887 -0.0916  0.3897
  742MOL0     N97829   8.979   9.880   6.035  0.0327 -0.2936  0.3155
  742MOL0     C97830   8.907   9.858   5.920  0.3423  0.2041  0.2540
  742MOL0     C97831   8.793   9.914   5.942  0.1797  0.1941  0.0853
  742MOL0     C97832   8.687   9.931   5.831 -0.5468  0.1649 -0.7556
  742MOL0     C97833   8.616  10.058   5.852 -0.1850 -0.9095 -0.0178
  742MOL0     C97834   8.508  10.092   5.747 -0.0067  0.5047  0.8631
  742MOL0     C97835   8.437  10.230   5.779 -0.5684 -0.1701  0.4728
  742MOL0     O97836   8.342  10.247   5.674 -1.1119 -0.2294  0.0367
  742MOL0     C97837   8.257  10.361   5.659  0.4105  0.2609 -1.4056
  742MOL0     C97838   8.237  10.457   5.756  0.4782  1.2804  0.6030
  742MOL0     C97839   8.149  10.567   5.734  0.1375 -0.3469 -0.0701
  742MOL0     C97840   8.094  10.585   5.602 -0.1504  0.0317  0.0486
  742MOL0     C97841   8.000  10.697   5.574  0.0008 -0.1153  0.3549
  742MOL0     O97842   7.961  10.707   5.448  0.0376  0.6940  0.2629
  742MOL0     C97843   7.851  10.774   5.420  0.5919  0.7667  0.2288
  742MOL0     C97844   7.733  10.700   5.391  0.7166 -0.3228 -0.0169
  742MOL0     C97845   7.609  10.771   5.366 -0.2301  0.8248 -1.1094
  742MOL0     C97846   7.599  10.905   5.360 -0.6356 -0.6528 -0.0973
  742MOL0     O97847   7.480  10.965   5.321  0.5862  0.2874 -0.5736
  742MOL0     C97848   7.425  11.068   5.402  0.2788  0.8770 -1.3107
  742MOL0     C97849   7.318  11.138   5.316  0.2481 -0.2168  1.0005
  742MOL0     C97850   7.221  11.216   5.406  0.3483 -0.7520  0.1017
  742MOL0     C97851   7.098  11.120   5.420  0.0728  0.1803 -0.4867
  742MOL0     C97852   7.000  11.195   5.506  0.2010  0.4031  0.1053
  742MOL0     C97853   6.921  11.296   5.420 -0.5334 -0.5334 -0.1074
  742MOL0     C97854   6.801  11.369   5.490 -1.0770  0.4885 -0.3754
  742MOL0     C97855   6.667  11.294   5.492 -0.8408  0.7493 -0.9150
  742MOL0    Cl97856   6.620  11.281   5.322  0.2923  0.0276  0.1370
  742MOL0     C97857   7.711  10.986   5.385 -0.8152  0.8375 -0.0763
  742MOL0     C97858   7.832  10.913   5.422  0.1223  0.0072 -0.7941
  742MOL0     O97859   7.964  10.769   5.671 -0.2857 -0.3112 -0.5731
  742MOL0     C97860   8.101  10.480   5.513  0.1422 -0.0104  0.7376
  742MOL0     C97861   8.177  10.367   5.545 -0.6430 -0.0509 -0.3673
  742MOL0     N97862   8.793   9.956   6.074 -0.2793  0.6589  0.3442
  742MOL0     N97863   8.908   9.952   6.125 -0.7841 -0.0553  0.6680
  742MOL0     C97864  10.058  10.441   5.926 -0.4358  0.4640  0.0640
  742MOL0     C97865  10.182  10.500   5.963 -1.4538  0.5794 -0.8523
  742MOL0     C97866  10.535  10.619   6.217  0.4922 -1.0652 -0.8513
  742MOL0     C97867  10.666  10.562   6.215  0.1821 -1.0267  0.2079
  742MOL0     C97868  10.768  10.618   6.286 -0.3700  0.2746 -0.1295
  742MOL0     C97869  10.746  10.737   6.363  0.7525 -0.2470  0.5077
  742MOL0     O97870  10.855  10.776   6.442  0.3356 -0.5972  0.1401
  742MOL0     C97871  10.835  10.872   6.546 -0.8230 -0.3825 -0.1096
  742MOL0     C97872  10.957  10.865   6.635  0.0527  0.0177 -0.1153
  742MOL0     C97873  10.988  10.729   6.705 -0.5976 -0.6738 -0.3035
  742MOL0     C97874  11.134  10.725   6.760  0.6820  0.0164 -0.0600
  742MOL0     C97875  11.154  10.822   6.867  0.2098 -0.0592  0.7799
  742MOL0     C97876  11.175  10.890   6.969 -0.1221  0.5775 -0.2639
  742MOL0     C97877  10.623  10.809   6.357 -0.7846  0.9561 -0.7317
  742MOL0     C97878  10.514  10.746   6.283 -0.1996 -0.6182  0.5465
  742MOL0     H97879  10.086  10.600   6.272  1.3974 -0.2069  1.4659
  742MOL0     H97880   9.863  10.508   6.194  0.7354  1.1762  0.3307
  742MOL0     H97881   9.860  10.213   5.873 -0.3639 -0.1722 -0.6024
  742MOL0     H97882   9.824  10.356   5.773 -0.6603  1.2693 -0.3849
  742MOL0     H97883   9.686  10.160   5.768  1.7990  0.0005 -1.0805
  742MOL0     H97884   9.599  10.324   5.794 -1.4088 -1.7508 -0.5721
  742MOL0     H97885   9.607  10.247   6.040 -0.0388 -1.5601  1.6512
  742MOL0     H97886   9.656  10.093   5.968 -0.7200 -0.7381 -1.0889
  742MOL0     H97887   9.382  10.222   5.904  1.1244  1.1033 -0.1012
  742MOL0     H97888   9.441  10.075   5.822 -0.7769  0.0824 -0.5649
  742MOL0     H97889   9.393  10.116   6.123 -0.3295  0.2755  0.3281
  742MOL0     H97890   9.461   9.965   6.051 -0.8988 -1.0610 -0.5079
  742MOL0     H97891   9.261   9.940   5.905  0.9990  1.9188 -0.3244
  742MOL0     H97892   9.180  10.078   5.983 -2.3621 -1.9266  1.1537
  742MOL0     H97893   9.295   9.857   6.153  1.5839  0.5723 -2.4165
  742MOL0     H97894   9.173   9.978   6.183  1.9250  0.8109  1.1495
  742MOL0     H97895   9.070   9.742   6.150 -2.1443 -1.0679 -1.1625
  742MOL0     H97896   9.126   9.746   5.981 -4.6478  0.5976 -1.7858
  742MOL0     H97897   8.950   9.799   5.840 -0.3335 -0.8863  0.6694
  742MOL0     H97898   8.616   9.848   5.840  0.0370 -0.2756 -0.0885
  742MOL0     H97899   8.739   9.936   5.735 -1.1254  1.5361 -1.0170
  742MOL0     H97900   8.684  10.143   5.859  0.8324 -1.7661  0.7413
  742MOL0     H97901   8.566  10.051   5.949  2.2126 -0.3028  1.3501
  742MOL0     H97902   8.560  10.092   5.651  1.1687 -2.1287  1.4013
  742MOL0     H97903   8.428  10.019   5.733 -0.7360  1.1477  1.5692
  742MOL0     H97904   8.506  10.315   5.777 -0.0151 -0.3569  4.1533
  742MOL0     H97905   8.396  10.226   5.881 -0.0228 -1.3482  0.6576
  742MOL0     H97906   8.285  10.436   5.851 -0.3918 -2.7514  0.3213
  742MOL0     H97907   8.118  10.630   5.817  0.0722  0.3590 -0.6239
  742MOL0     H97908   7.749  10.592   5.390  2.3128 -0.1492  1.5156
  742MOL0     H97909   7.513  10.719   5.356  0.4249 -1.1090  1.4665
  742MOL0     H97910   7.498  11.140   5.440 -1.1346  0.7810  1.8194
  742MOL0     H97911   7.379  11.027   5.492  0.7897 -0.4774 -1.6467
  742MOL0     H97912   7.268  11.073   5.244  0.4364  0.1669  0.5160
  742MOL0     H97913   7.380  11.213   5.265  1.4336  0.6411  3.5045
  742MOL0     H97914   7.198  11.316   5.368  1.3529 -0.2095  0.8689
  742MOL0     H97915   7.268  11.237   5.503  1.6796  0.6803 -0.8104
  742MOL0     H97916   7.058  11.086   5.324 -0.9934  1.5363 -0.5538
  742MOL0     H97917   7.135  11.037   5.480 -1.1474 -1.0695 -1.4036
  742MOL0     H97918   7.053  11.251   5.584 -0.7892  1.4018  0.0883
  742MOL0     H97919   6.921  11.136   5.553 -1.2450  2.1126 -0.0637
  742MOL0     H97920   6.883  11.243   5.333 -1.6914  1.2483 -0.7541
  742MOL0     H97921   6.989  11.363   5.367  0.4274 -1.6740 -0.3612
  742MOL0     H97922   6.831  11.401   5.590 -2.7725  0.1071  0.2898
  742MOL0     H97923   6.778  11.456   5.429 -0.5206  1.1416  0.3289
  742MOL0     H97924   6.599  11.350   5.557  1.3822  1.9829  0.4637
  742MOL0     H97925   6.669  11.194   5.537 -0.1931  0.6924 -1.0547
  742MOL0     H97926   7.715  11.094   5.388  1.2572  0.8160 -0.2716
  742MOL0     H97927   7.925  10.968   5.431  1.4637 -1.9937 -1.7839
  742MOL0     H97928   8.039  10.481   5.424  0.1609  2.2832  0.6970
  742MOL0     H97929   8.192  10.286   5.474  0.3670  0.3762 -0.6549
  742MOL0     H97930  10.050  10.397   5.827  0.9951  0.7498 -0.2070
  742MOL0     H97931  10.261  10.495   5.890 -0.8013 -0.8451 -0.0956
  742MOL0     H97932  10.698  10.473   6.161 -0.2126 -0.5628 -0.8308
  742MOL0     H97933  10.858  10.559   6.303 -0.3939  0.1189 -0.5208
  742MOL0     H97934  10.752  10.848   6.613 -1.5477 -0.5713 -1.0458
  742MOL0     H97935  10.827  10.972   6.503  1.6464 -1.2374 -2.9464
  742MOL0     H97936  11.041  10.893   6.570  0.0793 -2.6640 -1.3659
  742MOL0     H97937  10.954  10.938   6.716  2.1309 -1.6941  1.6343
  742MOL0     H97938  10.987  10.646   6.633 -1.4858 -0.8254 -0.1282
  742MOL0     H97939  10.912  10.709   6.781 -2.0578 -2.4163 -2.1159
  742MOL0     H97940  11.147  10.625   6.803  3.8515  1.2543  2.2709
  742MOL0     H97941  11.208  10.739   6.680  1.5371  2.8461  1.0853
  742MOL0     H97942  11.199  10.947   7.056  0.4661 -2.9780  2.0976
  742MOL0     H97943  10.625  10.896   6.421  3.6993 -0.4198  1.4493
  742MOL0     H97944  10.423  10.805   6.284 -0.2190 -0.6174  2.5147
  743MOL0     O97945   1.832   6.202   1.871  0.0870  0.4735 -0.2981
  743MOL0     C97946   1.815   6.083   1.907  0.5656  0.0930  0.9181
  743MOL0     O97947   1.697   6.015   1.906 -0.0107  0.0905  0.0291
  743MOL0     C97948   1.597   6.096   1.865  1.5912 -0.3307 -0.2465
  743MOL0     C97949   1.503   6.148   1.952  0.7966 -0.2898 -0.8495
  743MOL0     C97950   1.403   6.241   1.904 -0.8646  0.0110  0.0738
  743MOL0     C97951   1.387   6.272   1.761 -0.3293 -0.1368  0.0753
  743MOL0     O97952   1.286   6.348   1.708 -0.0186 -0.2908  0.4726
  743MOL0     C97953   1.223   6.457   1.780  0.3364 -0.3071  0.7570
  743MOL0     C97954   1.153   6.537   1.672 -0.0810 -0.0959  0.5752
  743MOL0     C97955   1.017   6.469   1.629  0.2856 -0.1606  0.1590
  743MOL0     C97956   0.940   6.568   1.540 -0.2953 -0.1231  0.3693
  743MOL0     C97957   0.788   6.538   1.539 -0.1391 -0.3190  0.6096
  743MOL0     C97958   0.701   6.658   1.508  0.1369 -0.0847  0.2939
  743MOL0     C97959   0.559   6.616   1.481 -0.2904  0.0851  0.2199
  743MOL0     C97960   0.477   6.736   1.433 -0.7622  0.3906  0.2654
  743MOL0     N97961   0.402   6.703   1.316  0.0205 -0.2859 -0.3221
  743MOL0     C97962   0.338   6.586   1.281  0.2305 -0.3772  0.5981
  743MOL0     C97963   0.302   6.611   1.151 -0.7290 -0.2409 -0.9303
  743MOL0     C97964   0.237   6.510   1.065  0.4534 -0.0911 -0.1941
  743MOL0     C97965   0.176   6.570   0.943 -0.5533  0.0943 -0.1177
  743MOL0     C97966   0.110   6.461   0.854 -0.4153  0.0602 -0.0733
  743MOL0     C97967   0.079   6.530   0.720 -0.1703 -0.1917 -0.5718
  743MOL0     O97968  -0.031   6.626   0.729  0.0665  0.4308  0.7019
  743MOL0     C97969  -0.159   6.580   0.726  1.0149  0.4153 -0.6253
  743MOL0     C97970  -0.260   6.668   0.751 -0.1790  0.1714  0.0279
  743MOL0     C97971  -0.392   6.619   0.750 -0.2450 -0.4481  0.9751
  743MOL0     C97972  -0.429   6.489   0.705 -0.6851  0.5990 -0.5492
  743MOL0     C97973  -0.574   6.446   0.701 -0.5805 -0.8899  0.4488
  743MOL0     O97974  -0.606   6.316   0.671 -0.1151  0.5772  0.0352
  743MOL0     C97975  -0.738   6.293   0.653  0.0196  0.4188  1.2033
  743MOL0     C97976  -0.807   6.205   0.741 -0.2356  0.2801  0.3411
  743MOL0     C97977  -0.942   6.171   0.714  0.1718 -0.8104  0.0329
  743MOL0     C97978  -1.014   6.227   0.602 -0.1014 -0.3494 -0.1683
  743MOL0     O97979  -1.155   6.219   0.580  0.1699 -0.0930  0.3822
  743MOL0     C97980  -1.210   6.099   0.630  0.5545  0.4084  0.2385
  743MOL0     C97981  -1.356   6.122   0.656  0.5161  0.3389  0.1320
  743MOL0     C97982  -1.447   6.098   0.525  0.5910  0.3639  0.0209
  743MOL0     C97983  -1.598   6.120   0.557  1.1733 -0.1878  0.0776
  743MOL0     C97984  -1.670   6.118   0.428  0.8618 -0.1626  0.1530
  743MOL0     C97985  -1.823   6.136   0.417  0.0803  0.0860 -1.2658
  743MOL0     C97986  -1.901   6.012   0.471 -0.4582 -0.7549 -0.1793
  743MOL0     C97987  -1.864   5.879   0.401  0.3992 -0.1324 -0.7614
  743MOL0    Cl97988  -1.941   5.881   0.235  0.1958 -0.2396 -0.2358
  743MOL0     C97989  -0.950   6.316   0.519  0.4211 -0.3852 -0.6208
  743MOL0     C97990  -0.811   6.343   0.537 -0.4247  0.6711 -1.0073
  743MOL0     O97991  -0.660   6.533   0.720 -0.3155 -0.2852  0.1807
  743MOL0     C97992  -0.326   6.408   0.663  0.5240 -0.0026  0.0850
  743MOL0     C97993  -0.190   6.446   0.675  0.1709  0.4087 -0.1946
  743MOL0     N97994   0.339   6.738   1.109  1.1578  0.0210  0.2121
  743MOL0     N97995   0.400   6.791   1.208  0.5392  0.1134 -1.7582
  743MOL0     C97996   1.478   6.204   1.681  0.2824 -0.3031 -0.1702
  743MOL0     C97997   1.579   6.119   1.722 -0.2840  0.1732 -0.4015
  743MOL0     C97998   1.943   6.009   1.950  0.4024  0.5646  0.2531
  743MOL0     C97999   1.929   5.880   1.988  0.4649  0.8864  0.4820
  743MOL0     C98000   2.037   5.810   2.037 -0.6980  0.1881 -0.8220
  743MOL0     C98001   2.164   5.873   2.038 -0.7488  0.1662 -0.6961
  743MOL0     O98002   2.285   5.826   2.059 -0.2098 -0.2419  0.0434
  743MOL0     C98003   2.312   5.687   2.089  0.5411  0.1975 -0.1650
  743MOL0     C98004   2.338   5.611   1.957 -0.2264 -0.1855  0.2524
  743MOL0     C98005   2.489   5.600   1.924 -1.0225 -0.3757  0.4849
  743MOL0     C98006   2.513   5.562   1.773 -0.0041  0.4620 -0.1513
  743MOL0     C98007   2.650   5.560   1.730 -0.2386  0.3841  0.7847
  743MOL0     C98008   2.771   5.565   1.729 -0.5369 -0.5471  0.1763
  743MOL0     C98009   2.178   6.004   1.994  0.2021  0.0523 -0.9387
  743MOL0     C98010   2.070   6.076   1.955  0.5570 -0.0728 -0.4408
  743MOL0     H98011   1.513   6.138   2.060 -0.6020  0.4103 -0.6213
  743MOL0     H98012   1.334   6.282   1.978  0.4288 -1.0019  1.9267
  743MOL0     H98013   1.309   6.513   1.817  0.7154 -2.6971  3.8315
  743MOL0     H98014   1.162   6.420   1.863 -0.3992  0.4087  0.5541
  743MOL0     H98015   1.219   6.543   1.585  1.1496 -2.6980  1.2270
  743MOL0     H98016   1.143   6.641   1.707  0.9755  0.4574 -0.6879
  743MOL0     H98017   0.962   6.458   1.723  0.3696  1.1213  0.3855
  743MOL0     H98018   1.034   6.381   1.567 -1.6937 -0.4577 -0.0323
  743MOL0     H98019   0.956   6.674   1.560  0.0272  0.0780 -0.8604
  743MOL0     H98020   0.971   6.553   1.436 -0.1769 -1.3371  0.5568
  743MOL0     H98021   0.758   6.497   1.636  0.2710 -0.9983  0.4553
  743MOL0     H98022   0.769   6.457   1.468 -0.1793  1.1249 -1.1000
  743MOL0     H98023   0.740   6.714   1.423  1.8763  2.1738  2.4309
  743MOL0     H98024   0.714   6.736   1.584 -0.8993  0.8984 -0.4984
  743MOL0     H98025   0.567   6.539   1.404 -1.9606  0.2532 -0.1600
  743MOL0     H98026   0.510   6.570   1.568 -3.5241 -0.2054 -1.5973
  743MOL0     H98027   0.538   6.826   1.420 -2.6238  2.0580  2.4749
  743MOL0     H98028   0.413   6.762   1.517  0.5986  0.0696  1.4505
  743MOL0     H98029   0.317   6.494   1.335 -0.5192  0.4700  1.8113
  743MOL0     H98030   0.151   6.468   1.119  1.1450  2.2066  2.9726
  743MOL0     H98031   0.301   6.425   1.038 -2.4578 -2.9319  1.1687
  743MOL0     H98032   0.258   6.613   0.885  0.9135 -0.0428  1.7609
  743MOL0     H98033   0.101   6.641   0.978 -1.7170 -1.5009  0.7944
  743MOL0     H98034   0.178   6.377   0.839 -0.1846 -0.1053  1.6188
  743MOL0     H98035   0.019   6.417   0.896 -0.7381 -0.7191 -1.5385
  743MOL0     H98036   0.062   6.447   0.652  1.0318 -1.7676  0.9464
  743MOL0     H98037   0.171   6.575   0.681  0.2745  0.5004  1.1359
  743MOL0     H98038  -0.239   6.770   0.780  0.8696 -0.6987  2.6918
  743MOL0     H98039  -0.478   6.675   0.785 -1.8755 -1.7947 -0.6834
  743MOL0     H98040  -0.768   6.156   0.830 -1.0297  0.4046  0.7633
  743MOL0     H98041  -0.999   6.126   0.795 -1.5839  1.6043  0.2556
  743MOL0     H98042  -1.166   6.060   0.723 -0.2807 -3.2782 -0.7710
  743MOL0     H98043  -1.184   6.023   0.557  5.3773  2.2232 -0.2702
  743MOL0     H98044  -1.383   6.211   0.715  2.4034 -0.1240  1.7974
  743MOL0     H98045  -1.389   6.037   0.716  1.7882  0.7275  1.4408
  743MOL0     H98046  -1.435   5.995   0.492  2.1474  1.3100 -2.6909
  743MOL0     H98047  -1.408   6.160   0.443 -3.6684 -0.2801 -2.8582
  743MOL0     H98048  -1.638   6.039   0.620 -0.1237  0.7833  0.5433
  743MOL0     H98049  -1.594   6.216   0.609  0.3415 -0.4696  0.6790
  743MOL0     H98050  -1.648   6.032   0.364 -2.1179 -0.1365 -1.0755
  743MOL0     H98051  -1.625   6.207   0.383 -0.4394  0.2962 -0.2984
  743MOL0     H98052  -1.866   6.160   0.319 -0.5102 -2.3055 -1.6642
  743MOL0     H98053  -1.846   6.217   0.486 -4.2977  0.0979 -2.4118
  743MOL0     H98054  -1.877   6.005   0.577  1.1454 -2.1964 -0.5838
  743MOL0     H98055  -2.007   6.038   0.468  0.4223  3.4925 -0.2763
  743MOL0     H98056  -1.900   5.787   0.449  2.2376 -1.5879 -2.0094
  743MOL0     H98057  -1.756   5.862   0.397  0.2615 -1.0643 -4.4695
  743MOL0     H98058  -0.999   6.369   0.438  0.0270  2.9005  1.5964
  743MOL0     H98059  -0.778   6.418   0.467 -0.8735  1.1491 -0.7182
  743MOL0     H98060  -0.350   6.314   0.614  0.3907 -0.7745  1.5797
  743MOL0     H98061  -0.114   6.376   0.641  1.2644  0.9089  1.1565
  743MOL0     H98062   1.460   6.217   1.575  1.6290 -2.0953 -0.6867
  743MOL0     H98063   1.639   6.062   1.652 -1.2352  0.2604 -1.3050
  743MOL0     H98064   1.836   5.826   1.978  1.5398 -1.0434  0.4136
  743MOL0     H98065   2.024   5.712   2.083  2.7002  1.1249  2.6763
  743MOL0     H98066   2.228   5.639   2.139  1.6150 -1.7935 -0.1549
  743MOL0     H98067   2.398   5.686   2.157 -0.3118  0.8002  0.9473
  743MOL0     H98068   2.297   5.510   1.966 -2.3359  0.7859  2.8908
  743MOL0     H98069   2.289   5.653   1.868  3.1503 -1.7122 -2.6006
  743MOL0     H98070   2.523   5.513   1.979 -1.1781 -2.5638 -2.6046
  743MOL0     H98071   2.544   5.691   1.952  0.4652 -0.8801 -0.6578
  743MOL0     H98072   2.477   5.459   1.763 -1.7758  1.0461 -0.1194
  743MOL0     H98073   2.453   5.623   1.706  2.5109  0.2524 -2.8095
  743MOL0     H98074   2.878   5.566   1.721 -0.4767  1.1515  0.7789
  743MOL0     H98075   2.279   6.043   1.984  0.5738  0.0124  1.9864
  743MOL0     H98076   2.073   6.181   1.925 -1.1559  1.2109  3.2466
  744MOL0     O98077   9.064   9.780   1.326 -0.2493 -0.5328 -0.4246
  744MOL0     C98078   9.090   9.797   1.446  0.6531  1.0317  0.2133
  744MOL0     O98079   8.999   9.782   1.549 -0.5420 -0.7768  0.6200
  744MOL0     C98080   8.868   9.815   1.521 -0.1536  0.0507  0.2059
  744MOL0     C98081   8.775   9.794   1.623  0.5265  1.1870 -0.1582
  744MOL0     C98082   8.640   9.834   1.609  0.5081  0.4752  0.6757
  744MOL0     C98083   8.594   9.903   1.501  0.1742  0.8323 -0.0735
  744MOL0     O98084   8.468   9.947   1.502 -0.0600  0.9740 -0.3462
  744MOL0     C98085   8.373   9.844   1.509  0.7140 -0.1248 -0.1012
  744MOL0     C98086   8.233   9.897   1.466  0.4383 -0.3251  0.4606
  744MOL0     C98087   8.131   9.778   1.449  0.1767  0.1242  0.2794
  744MOL0     C98088   7.991   9.817   1.409 -0.7081  0.1805  0.0777
  744MOL0     C98089   7.901   9.693   1.409  0.1860 -0.7345 -0.0321
  744MOL0     C98090   7.761   9.726   1.350 -1.4110 -0.1599  0.0489
  744MOL0     C98091   7.682   9.597   1.370 -0.1035 -0.5500 -0.6755
  744MOL0     C98092   7.535   9.626   1.351  0.5226  0.0476  0.4050
  744MOL0     N98093   7.502   9.631   1.210  0.0410 -0.1842  0.9249
  744MOL0     C98094   7.367   9.653   1.154 -0.4067  0.3482  1.1561
  744MOL0     C98095   7.383   9.632   1.022 -0.0723 -0.8600  0.7474
  744MOL0     C98096   7.260   9.636   0.933  0.2960  0.3147  0.5227
  744MOL0     C98097   7.164   9.522   0.956 -0.2137 -0.8378  0.0728
  744MOL0     C98098   7.218   9.397   0.903  0.1472  0.8366 -0.0243
  744MOL0     C98099   7.138   9.271   0.934 -0.7170 -0.1665 -0.9836
  744MOL0     O98100   7.027   9.292   0.847 -0.0034  0.3393  0.1575
  744MOL0     C98101   6.937   9.187   0.835 -0.6222  0.3123  0.9028
  744MOL0     C98102   6.815   9.207   0.763  0.5296  0.6954 -0.3679
  744MOL0     C98103   6.715   9.112   0.748 -0.0674 -0.2263  0.2313
  744MOL0     C98104   6.721   9.000   0.823  1.1745 -0.6780 -0.3353
  744MOL0     C98105   6.603   8.914   0.808 -0.8498  0.0951 -1.3170
  744MOL0     O98106   6.512   8.937   0.719  0.2097  0.0975  0.4223
  744MOL0     C98107   6.381   8.894   0.742  0.5765  0.8381 -0.3326
  744MOL0     C98108   6.310   8.827   0.641 -0.3963 -0.2874 -0.3934
  744MOL0     C98109   6.183   8.772   0.666 -0.5887  0.1264 -0.5958
  744MOL0     C98110   6.126   8.795   0.797  0.3739 -0.2477 -0.1021
  744MOL0     O98111   5.999   8.750   0.822  0.5071  0.2284  0.1468
  744MOL0     C98112   5.938   8.754   0.952  0.1672  0.5010 -1.2736
  744MOL0     C98113   5.977   8.639   1.038 -0.3569 -1.1131 -0.4111
  744MOL0     C98114   5.898   8.633   1.168 -0.6237 -0.4563  0.7965
  744MOL0     C98115   5.930   8.496   1.237  0.4012 -0.1611  0.1333
  744MOL0     C98116   5.871   8.486   1.380 -0.8376 -0.2187 -0.8501
  744MOL0     C98117   5.721   8.467   1.365  0.1163  0.7582  0.0924
  744MOL0     C98118   5.650   8.417   1.494 -0.5663 -0.2137  1.6405
  744MOL0     C98119   5.500   8.403   1.474  0.2535 -0.2380  0.2128
  744MOL0    Cl98120   5.442   8.351   1.628  0.2365  0.1402 -0.0313
  744MOL0     C98121   6.191   8.862   0.898 -0.1944  1.0320 -0.6770
  744MOL0     C98122   6.317   8.906   0.866  0.9754  0.9476  0.5198
  744MOL0     O98123   6.594   8.833   0.899  0.7283  0.1855  0.5067
  744MOL0     C98124   6.838   8.967   0.894  0.8702 -0.4369 -0.1953
  744MOL0     C98125   6.953   9.052   0.902  0.2308 -0.8266  1.2897
  744MOL0     N98126   7.506   9.579   0.998 -0.3079 -0.1033 -0.9577
  744MOL0     N98127   7.576   9.575   1.112 -0.4452 -0.8564 -0.5482
  744MOL0     C98128   8.692   9.931   1.402 -0.5692 -0.4698  0.4177
  744MOL0     C98129   8.826   9.893   1.418  1.1323 -0.1264 -0.1612
  744MOL0     C98130   9.229   9.826   1.479 -0.3130 -0.6664  0.0737
  744MOL0     C98131   9.277   9.820   1.610 -0.2494  0.1747  0.2175
  744MOL0     C98132   9.415   9.833   1.652  1.5365  0.5768  0.0176
  744MOL0     C98133   9.506   9.852   1.549 -0.1132  0.3845 -1.2469
  744MOL0     O98134   9.642   9.868   1.565  1.0799  0.1085  0.4498
  744MOL0     C98135   9.700   9.798   1.672 -0.5153  0.4967 -0.3787
  744MOL0     C98136   9.844   9.775   1.644  0.3891 -0.3216 -0.8383
  744MOL0     C98137   9.878   9.711   1.503 -0.7948 -0.8074 -0.4403
  744MOL0     C98138  10.019   9.656   1.489  0.7017 -1.1861  0.1799
  744MOL0     C98139  10.123   9.765   1.509 -0.1610 -0.7363  0.5406
  744MOL0     C98140  10.196   9.860   1.544  0.4604  0.6202 -0.9603
  744MOL0     C98141   9.461   9.870   1.427 -0.3571 -0.4384  0.6126
  744MOL0     C98142   9.329   9.855   1.381  0.2789  0.0525  0.2464
  744MOL0     H98143   8.817   9.740   1.707 -0.3796 -1.3283 -1.2226
  744MOL0     H98144   8.580   9.807   1.696  0.3214 -1.8223 -0.1013
  744MOL0     H98145   8.363   9.801   1.609 -0.7855  0.7594  0.1755
  744MOL0     H98146   8.392   9.763   1.438 -1.7072 -0.0629 -0.9280
  744MOL0     H98147   8.240   9.942   1.366 -0.9664 -3.3695 -1.1298
  744MOL0     H98148   8.186   9.966   1.535 -0.2328  0.4724 -0.7534
  744MOL0     H98149   8.116   9.736   1.549 -3.1102  0.8480  0.2154
  744MOL0     H98150   8.170   9.702   1.381  1.4085  1.2287 -0.2964
  744MOL0     H98151   7.961   9.895   1.480  0.5232  0.9861 -0.2608
  744MOL0     H98152   7.981   9.868   1.313 -2.7080 -0.1866  0.0389
  744MOL0     H98153   7.893   9.655   1.511 -1.2961 -1.8554 -0.5194
  744MOL0     H98154   7.943   9.620   1.339 -2.5343 -2.1800 -0.3084
  744MOL0     H98155   7.765   9.753   1.245 -0.1194  0.2864  0.1969
  744MOL0     H98156   7.729   9.817   1.400  1.4112 -0.7031  3.2811
  744MOL0     H98157   7.725   9.509   1.320  2.5886 -0.2751  0.9789
  744MOL0     H98158   7.690   9.576   1.478  0.1462  0.4579 -0.4957
  744MOL0     H98159   7.520   9.725   1.395  2.7647  0.9371 -0.6777
  744MOL0     H98160   7.472   9.554   1.404  1.3456  0.4747  2.0232
  744MOL0     H98161   7.273   9.677   1.203 -1.6936  1.0433 -1.5094
  744MOL0     H98162   7.276   9.645   0.825 -2.9239  0.7960 -0.0350
  744MOL0     H98163   7.206   9.730   0.952  0.6426  0.1825  2.3106
  744MOL0     H98164   7.070   9.548   0.906  0.6509  0.3050 -0.9926
  744MOL0     H98165   7.152   9.522   1.065 -1.6680  2.8240  0.0503
  744MOL0     H98166   7.229   9.403   0.794 -0.6118 -0.7835 -0.2358
  744MOL0     H98167   7.319   9.388   0.943 -1.2873 -0.9433  3.6142
  744MOL0     H98168   7.109   9.256   1.038  3.0599 -0.8076  0.1594
  744MOL0     H98169   7.206   9.186   0.918  2.0807  1.0829  2.8358
  744MOL0     H98170   6.813   9.294   0.698 -1.0433  1.9436  1.2466
  744MOL0     H98171   6.631   9.149   0.690 -1.0640 -0.6870  1.3634
  744MOL0     H98172   6.356   8.799   0.547  0.4301 -0.1382 -0.0459
  744MOL0     H98173   6.125   8.725   0.587 -3.1320  1.5924  0.2644
  744MOL0     H98174   5.829   8.754   0.945  0.1976 -1.8218 -2.8629
  744MOL0     H98175   5.954   8.850   1.002 -0.5507  0.3110 -0.6601
  744MOL0     H98176   6.081   8.636   1.070 -0.5230 -1.6100  0.0935
  744MOL0     H98177   5.952   8.554   0.974 -0.0353 -1.5377  0.0249
  744MOL0     H98178   5.793   8.633   1.138 -1.0231  0.8452  2.1104
  744MOL0     H98179   5.917   8.723   1.228  0.0190 -0.0085 -0.0504
  744MOL0     H98180   5.895   8.414   1.173  2.3893 -1.6574  0.8545
  744MOL0     H98181   6.038   8.481   1.245  1.1007  2.4208 -2.6216
  744MOL0     H98182   5.900   8.575   1.436 -2.1264 -0.1600 -0.2644
  744MOL0     H98183   5.914   8.397   1.428 -3.6607 -0.9648  0.4921
  744MOL0     H98184   5.690   8.406   1.280 -1.7218  3.3321 -1.2495
  744MOL0     H98185   5.675   8.566   1.353  0.3217  0.8447  0.0186
  744MOL0     H98186   5.693   8.321   1.525  2.3606  0.7227  0.8923
  744MOL0     H98187   5.660   8.492   1.573  5.4888 -0.1763  1.3463
  744MOL0     H98188   5.466   8.333   1.398  3.1889 -0.5889 -0.9154
  744MOL0     H98189   5.471   8.502   1.439  2.1794  2.0139  4.2761
  744MOL0     H98190   6.162   8.866   1.003 -0.7066  2.4028 -0.8430
  744MOL0     H98191   6.366   8.956   0.949  0.5915  0.6099  0.9525
  744MOL0     H98192   6.857   8.869   0.938  1.9739  1.0689  2.9728
  744MOL0     H98193   7.040   9.009   0.949  1.8517  0.3425 -0.4523
  744MOL0     H98194   8.663  10.002   1.326  0.0090  1.4576  1.8975
  744MOL0     H98195   8.897   9.944   1.354 -0.2610  5.1668  1.9038
  744MOL0     H98196   9.205   9.782   1.682 -1.2626  0.7196 -0.4824
  744MOL0     H98197   9.442   9.837   1.757 -1.6247  1.1146  0.9054
  744MOL0     H98198   9.659   9.697   1.683  1.0770 -0.2457 -1.0064
  744MOL0     H98199   9.685   9.848   1.768  3.2377 -0.7510  1.0474
  744MOL0     H98200   9.893   9.872   1.650 -0.4898  0.2036 -1.6401
  744MOL0     H98201   9.880   9.710   1.723 -1.0158 -0.1542 -0.0308
  744MOL0     H98202   9.874   9.790   1.426 -1.1373  0.3587  0.7290
  744MOL0     H98203   9.796   9.643   1.479 -1.4566 -0.9273  1.9035
  744MOL0     H98204  10.030   9.574   1.561 -0.5376 -1.8140 -0.3222
  744MOL0     H98205  10.027   9.615   1.388 -2.2248 -0.5446 -0.3914
  744MOL0     H98206  10.245   9.942   1.593 -2.2603  0.0112  3.3435
  744MOL0     H98207   9.542   9.902   1.363  0.1619  1.8531  2.2801
  744MOL0     H98208   9.317   9.878   1.276  0.3297 -0.0312  0.2218
  745MOL0     O98209   5.133   9.935  11.012  0.1141  0.7396 -0.1133
  745MOL0     C98210   5.162   9.857  11.102  0.6104  0.2452  0.0678
  745MOL0     O98211   5.267   9.876  11.193 -0.2335  0.6061  0.3436
  745MOL0     C98212   5.371   9.960  11.175 -0.5487 -1.0868 -0.1232
  745MOL0     C98213   5.347  10.092  11.124 -0.5371  0.3411 -0.1372
  745MOL0     C98214   5.461  10.175  11.113  0.4471 -0.3458  0.1834
  745MOL0     C98215   5.586  10.140  11.167 -0.0308 -0.2913 -0.4661
  745MOL0     O98216   5.680  10.237  11.166 -0.6571 -0.2431 -0.1143
  745MOL0     C98217   5.817  10.206  11.193 -0.4768 -0.1220  0.5013
  745MOL0     C98218   5.908  10.333  11.184  0.2079  0.0404  0.5734
  745MOL0     C98219   6.063  10.304  11.151 -0.4147 -0.9913  0.3362
  745MOL0     C98220   6.142  10.438  11.160  0.8073  0.6324 -0.0175
  745MOL0     C98221   6.293  10.410  11.173  0.8572 -0.4104 -0.2527
  745MOL0     C98222   6.342  10.344  11.044 -0.5033  0.1874 -0.3434
  745MOL0     C98223   6.494  10.337  11.062 -0.4328 -0.3964 -0.7521
  745MOL0     C98224   6.560  10.230  10.960 -0.2914 -0.6442 -0.2014
  745MOL0     N98225   6.552  10.273  10.814 -0.1212 -0.0924 -0.4243
  745MOL0     C98226   6.634  10.361  10.750  0.2096 -0.3405  0.1584
  745MOL0     C98227   6.597  10.357  10.620 -0.6051  0.0140  0.0476
  745MOL0     C98228   6.646  10.457  10.517  0.5765 -0.2047 -0.1210
  745MOL0     C98229   6.771  10.426  10.452 -0.5299 -0.4574 -0.0557
  745MOL0     C98230   6.886  10.489  10.531 -0.2586  0.0293 -0.0586
  745MOL0     C98231   7.021  10.466  10.465 -0.2154  0.4083 -0.1008
  745MOL0     O98232   7.113  10.571  10.513  0.4243  0.1241  0.0629
  745MOL0     C98233   7.248  10.575  10.479 -0.4316  0.5278  0.0702
  745MOL0     C98234   7.309  10.693  10.516 -0.3669  0.6570  0.7158
  745MOL0     C98235   7.448  10.701  10.503  1.1803  0.3295  0.0709
  745MOL0     C98236   7.523  10.603  10.437 -0.2798 -0.1149  0.0268
  745MOL0     C98237   7.660  10.633  10.398 -0.4729  0.4363  0.6484
  745MOL0     O98238   7.730  10.532  10.336 -0.2948  0.6508  0.3200
  745MOL0     C98239   7.869  10.517  10.342  0.0877 -0.6322 -0.3138
  745MOL0     C98240   7.973  10.611  10.388  1.6301  1.0414 -0.5640
  745MOL0     C98241   8.106  10.591  10.372  0.1764 -1.3923 -0.2475
  745MOL0     C98242   8.146  10.480  10.304  0.5213  0.3777  0.5492
  745MOL0     O98243   8.281  10.436  10.295  0.4959 -0.5254 -0.7201
  745MOL0     C98244   8.379  10.498  10.388 -0.2664  0.8360 -0.9401
  745MOL0     C98245   8.506  10.409  10.392  0.8403 -0.1971 -0.9666
  745MOL0     C98246   8.588  10.436  10.271  0.3225  0.2587  0.1265
  745MOL0     C98247   8.710  10.343  10.277  0.6688 -0.3651  0.1781
  745MOL0     C98248   8.799  10.387  10.165 -2.1715  0.2520  0.4336
  745MOL0     C98249   8.953  10.356  10.173  0.1516 -0.0305 -0.0528
  745MOL0     C98250   9.024  10.392  10.033 -0.8342  0.2565 -1.1997
  745MOL0     C98251   9.177  10.365  10.045  0.1758  0.1742  0.1618
  745MOL0    Cl98252   9.249  10.440  10.180  0.1462  0.2665 -0.4574
  745MOL0     C98253   8.049  10.391  10.254 -0.4994 -0.0457  0.2260
  745MOL0     C98254   7.921  10.404  10.285  0.6566 -0.2068  0.4362
  745MOL0     O98255   7.707  10.744  10.428  0.4487 -0.1089 -0.0580
  745MOL0     C98256   7.459  10.478  10.401 -0.7413 -0.2803 -0.8184
  745MOL0     C98257   7.324  10.469  10.416  0.4100  0.0569 -0.1471
  745MOL0     N98258   6.486  10.274  10.611  0.1779  0.1056  0.2418
  745MOL0     N98259   6.465  10.222  10.726 -0.2598 -0.4004  0.2711
  745MOL0     C98260   5.612  10.016  11.224 -0.5921  0.3734  0.2816
  745MOL0     C98261   5.503   9.929  11.236  0.8486  0.2991  0.7850
  745MOL0     C98262   5.071   9.735  11.122  0.3970 -0.8386 -0.2540
  745MOL0     C98263   5.086   9.653  11.232 -0.7062  0.2854  0.1361
  745MOL0     C98264   5.003   9.540  11.253  0.1514 -0.3583 -0.2285
  745MOL0     C98265   4.896   9.511  11.167 -0.2076 -0.3182 -0.7089
  745MOL0     O98266   4.799   9.424  11.210  0.2789  0.8376  0.6468
  745MOL0     C98267   4.731   9.345  11.101  0.3448 -1.2105 -1.6287
  745MOL0     C98268   4.688   9.215  11.164 -0.1819  0.1803 -0.4774
  745MOL0     C98269   4.610   9.235  11.291 -0.3429  0.0011 -0.7936
  745MOL0     C98270   4.480   9.318  11.271 -0.7743 -0.6350 -0.6956
  745MOL0     C98271   4.395   9.252  11.172 -0.3511  0.5856  0.3870
  745MOL0     C98272   4.330   9.201  11.087 -0.3136 -0.3551 -0.2492
  745MOL0     C98273   4.878   9.596  11.055 -0.3264  0.3326 -0.1966
  745MOL0     C98274   4.973   9.700  11.027  0.4596  0.1504  0.7795
  745MOL0     H98275   5.251  10.130  11.092 -1.2732 -0.1252  1.4301
  745MOL0     H98276   5.446  10.272  11.065 -0.6100 -0.4280  0.3112
  745MOL0     H98277   5.860  10.128  11.130  1.9511 -0.2034  2.1373
  745MOL0     H98278   5.826  10.169  11.295 -2.8070 -2.1847  0.0483
  745MOL0     H98279   5.890  10.386  11.278 -1.6501 -1.1244  0.9315
  745MOL0     H98280   5.869  10.385  11.096 -1.3572 -1.4002  0.3673
  745MOL0     H98281   6.064  10.274  11.045 -2.5498  2.0356 -0.6794
  745MOL0     H98282   6.113  10.229  11.211  2.8712  0.8251  0.0891
  745MOL0     H98283   6.128  10.496  11.068 -0.7959  0.4205  0.0689
  745MOL0     H98284   6.120  10.493  11.252  2.0077  0.1671  0.5665
  745MOL0     H98285   6.321  10.343  11.255 -1.0402 -1.2330 -0.2275
  745MOL0     H98286   6.327  10.514  11.183 -0.5458 -0.0407  1.4230
  745MOL0     H98287   6.322  10.406  10.956 -0.9059  1.9249  0.9143
  745MOL0     H98288   6.297  10.246  11.026  0.3170 -0.0128 -1.3848
  745MOL0     H98289   6.533  10.437  11.039  2.3552 -1.5064 -1.2490
  745MOL0     H98290   6.530  10.307  11.161  0.9209  0.6524 -0.8915
  745MOL0     H98291   6.513  10.131  10.964 -0.6135 -0.4343  1.8375
  745MOL0     H98292   6.666  10.224  10.984 -0.1158 -0.6348 -0.9464
  745MOL0     H98293   6.710  10.424  10.796 -0.4196 -0.4040  1.3322
  745MOL0     H98294   6.638  10.560  10.551  0.3832 -1.4154  4.1329
  745MOL0     H98295   6.566  10.443  10.444 -0.2198 -1.7714  0.9919
  745MOL0     H98296   6.774  10.471  10.353 -0.3137  1.5666  0.8266
  745MOL0     H98297   6.784  10.318  10.444  0.8276 -0.3132 -0.0751
  745MOL0     H98298   6.866  10.593  10.555  0.7387  0.4961 -1.1734
  745MOL0     H98299   6.893  10.433  10.625 -2.4797 -2.1426 -1.0561
  745MOL0     H98300   7.017  10.474  10.356  1.0949 -1.3334 -0.3171
  745MOL0     H98301   7.050  10.363  10.485  0.2144  0.3548 -0.9686
  745MOL0     H98302   7.261  10.780  10.559  1.4581  2.6954 -1.1452
  745MOL0     H98303   7.488  10.795  10.538  2.6825 -0.4108  0.4567
  745MOL0     H98304   7.947  10.702  10.441  0.6806  0.4810 -0.0305
  745MOL0     H98305   8.169  10.663  10.423 -2.0970 -0.9624  2.1764
  745MOL0     H98306   8.323  10.488  10.482 -1.7051 -0.7710 -1.9135
  745MOL0     H98307   8.404  10.597  10.350  2.1984 -0.0912 -1.8767
  745MOL0     H98308   8.482  10.303  10.405 -1.0294  0.3099  0.1195
  745MOL0     H98309   8.569  10.440  10.476  0.0527 -0.8730 -0.1038
  745MOL0     H98310   8.621  10.540  10.267  3.2730 -0.5663  0.5359
  745MOL0     H98311   8.528  10.413  10.182 -1.7820  1.0818  1.2466
  745MOL0     H98312   8.763  10.352  10.372 -1.0024  0.6767  1.0669
  745MOL0     H98313   8.679  10.239  10.267 -0.2912 -0.3321  2.2353
  745MOL0     H98314   8.785  10.494  10.144 -2.3733  0.4929  1.7308
  745MOL0     H98315   8.768  10.329  10.077 -0.8959  3.7242 -2.6075
  745MOL0     H98316   8.963  10.249  10.194 -1.3060 -1.2054 -4.2962
  745MOL0     H98317   8.995  10.421  10.249  0.2843 -0.1303 -0.0422
  745MOL0     H98318   8.991  10.344   9.941  4.9435 -3.8709 -1.6937
  745MOL0     H98319   9.008  10.499  10.017 -0.2567  0.3214 -1.3631
  745MOL0     H98320   9.221  10.390   9.948  1.7981 -3.3725 -0.1858
  745MOL0     H98321   9.199  10.258  10.059 -1.1373 -0.3240 -1.2349
  745MOL0     H98322   8.081  10.301  10.202 -1.5181  0.7642 -1.9834
  745MOL0     H98323   7.845  10.335  10.248  2.5061 -1.0148 -2.1386
  745MOL0     H98324   7.518  10.404  10.347  2.0046  0.6803  0.6326
  745MOL0     H98325   7.271  10.380  10.384  0.0718  1.3135 -3.5331
  745MOL0     H98326   5.706   9.982  11.266 -1.1649 -3.3966 -1.0412
  745MOL0     H98327   5.512   9.838  11.295  1.0918  0.9868  1.8326
  745MOL0     H98328   5.154   9.659  11.316  0.4189 -3.4094 -0.3178
  745MOL0     H98329   5.013   9.486  11.347  1.0308 -1.0503 -0.6988
  745MOL0     H98330   4.801   9.318  11.022 -1.1153 -1.7325 -2.7913
  745MOL0     H98331   4.638   9.388  11.061  1.1746  0.5644 -1.7732
  745MOL0     H98332   4.615   9.160  11.103 -0.1585 -2.5705  1.7808
  745MOL0     H98333   4.773   9.148  11.175  0.0731  0.6850  0.7524
  745MOL0     H98334   4.670   9.286  11.368 -2.1138  1.3486 -0.2232
  745MOL0     H98335   4.577   9.137  11.325 -2.6406  0.7684 -0.6158
  745MOL0     H98336   4.432   9.325  11.369  0.4594  2.2432 -0.1995
  745MOL0     H98337   4.507   9.418  11.234  1.4425 -1.5572 -1.7465
  745MOL0     H98338   4.286   9.153  11.001  0.7522 -0.9614 -0.4853
  745MOL0     H98339   4.788   9.586  10.996 -0.9128 -1.1368  0.8774
  745MOL0     H98340   4.968   9.751  10.931  1.0211 -1.5135 -0.1742
  746MOL0     O98341   6.885   6.083   8.444  0.2542  0.0992 -1.3708
  746MOL0     C98342   6.894   6.030   8.333 -0.6184 -0.2222  0.3022
  746MOL0     O98343   6.785   5.993   8.253  0.5467  0.2834  0.2778
  746MOL0     C98344   6.659   5.996   8.310 -0.3225  0.1719  0.8092
  746MOL0     C98345   6.611   5.881   8.382  0.3122 -0.5463  0.4533
  746MOL0     C98346   6.492   5.894   8.463 -0.4864  0.4972 -0.0027
  746MOL0     C98347   6.405   6.005   8.439 -0.3545 -0.4815  0.3386
  746MOL0     O98348   6.286   5.999   8.504 -0.4934 -0.3833 -0.2544
  746MOL0     C98349   6.179   6.092   8.480  0.3099 -0.7398  0.2983
  746MOL0     C98350   6.171   6.200   8.586  0.1912 -0.3040  0.2468
  746MOL0     C98351   6.070   6.318   8.563  0.0794  0.1796  0.0841
  746MOL0     C98352   5.931   6.271   8.536 -0.5664 -0.3355  0.0565
  746MOL0     C98353   5.833   6.381   8.529 -0.4067 -0.3003 -1.1628
  746MOL0     C98354   5.697   6.321   8.566 -0.0652 -0.5576  0.0385
  746MOL0     C98355   5.586   6.387   8.491  0.2922 -0.1530 -0.0695
  746MOL0     C98356   5.572   6.540   8.538  0.2210 -0.0886 -0.5655
  746MOL0     N98357   5.461   6.606   8.471 -0.1323 -0.5131  0.6235
  746MOL0     C98358   5.448   6.742   8.446 -0.3759 -0.1165  0.3731
  746MOL0     C98359   5.316   6.751   8.409 -0.1651  0.4229  0.2150
  746MOL0     C98360   5.253   6.874   8.389 -0.1511 -0.9110  0.9584
  746MOL0     C98361   5.226   6.936   8.532 -0.0513 -0.0585  0.2967
  746MOL0     C98362   5.134   7.057   8.510 -0.7331 -0.8497  0.2672
  746MOL0     C98363   5.080   7.115   8.643 -1.7012 -0.0573  0.0320
  746MOL0     O98364   5.010   7.019   8.715  0.3841 -0.7147 -0.1301
  746MOL0     C98365   4.883   6.989   8.684 -0.5635  1.1560  0.0904
  746MOL0     C98366   4.774   7.082   8.685 -0.0448 -0.5144 -0.7798
  746MOL0     C98367   4.643   7.037   8.658  0.1333 -0.0487 -0.1054
  746MOL0     C98368   4.625   6.908   8.613  0.8089 -0.0671  0.1764
  746MOL0     C98369   4.484   6.868   8.572 -0.6062  0.0508 -0.7875
  746MOL0     O98370   4.384   6.963   8.592  0.0823  0.8178 -0.0283
  746MOL0     C98371   4.256   6.921   8.555  0.3467 -0.2185  0.1107
  746MOL0     C98372   4.165   6.875   8.645 -0.1478 -0.6173  0.0359
  746MOL0     C98373   4.038   6.828   8.612  0.3874  0.8213  0.4018
  746MOL0     C98374   3.997   6.821   8.482 -0.5380  0.3206  0.4320
  746MOL0     O98375   3.874   6.776   8.438 -0.2052  0.1560 -0.9395
  746MOL0     C98376   3.786   6.720   8.540  0.2928 -0.4478 -0.2018
  746MOL0     C98377   3.701   6.823   8.604 -0.1910  0.3258  0.6855
  746MOL0     C98378   3.590   6.878   8.519  0.2647  0.0151 -0.3430
  746MOL0     C98379   3.494   6.781   8.454  0.6602  0.8815 -0.4362
  746MOL0     C98380   3.366   6.841   8.395  0.2495  0.4962  0.5519
  746MOL0     C98381   3.256   6.755   8.328  0.2129  0.6249  0.9087
  746MOL0     C98382   3.159   6.855   8.266 -0.2658 -0.5406  0.7593
  746MOL0     C98383   3.034   6.786   8.220 -0.6955  0.4904 -0.6194
  746MOL0    Cl98384   2.902   6.768   8.353  0.3954  0.2265  0.3914
  746MOL0     C98385   4.084   6.882   8.385  0.8223  0.1035  0.4013
  746MOL0     C98386   4.211   6.928   8.421 -0.3816 -0.3150  0.2103
  746MOL0     O98387   4.467   6.751   8.540  0.6104 -0.3124  0.0252
  746MOL0     C98388   4.735   6.822   8.601 -0.0645  0.7917  0.0381
  746MOL0     C98389   4.858   6.860   8.644 -0.0351  0.0037  0.5201
  746MOL0     N98390   5.251   6.631   8.418  0.0556  0.0254 -0.6582
  746MOL0     N98391   5.337   6.541   8.452 -1.0974 -0.7191  0.5669
  746MOL0     C98392   6.452   6.107   8.354  0.3888 -0.4889 -0.5335
  746MOL0     C98393   6.576   6.107   8.311  0.8930  0.1313  0.5865
  746MOL0     C98394   7.032   5.999   8.277  0.2445 -0.8953  0.8284
  746MOL0     C98395   7.141   6.048   8.347 -1.1803  0.0353  0.3016
  746MOL0     C98396   7.271   6.000   8.300 -0.3299  0.0916  0.7209
  746MOL0     C98397   7.277   5.905   8.195  0.1059 -0.6082  0.0483
  746MOL0     O98398   7.386   5.871   8.119  0.2116  0.0265 -0.1759
  746MOL0     C98399   7.507   5.935   8.158  0.0692  1.1024  0.1644
  746MOL0     C98400   7.613   5.901   8.057  0.0056  0.0721 -0.5617
  746MOL0     C98401   7.760   5.909   8.112  0.2664 -0.9883 -0.2665
  746MOL0     C98402   7.796   5.783   8.206 -0.8933 -0.9331 -0.5412
  746MOL0     C98403   7.933   5.793   8.263 -0.1541  0.4359  0.1095
  746MOL0     C98404   8.052   5.785   8.303  0.5056 -0.6253 -1.1531
  746MOL0     C98405   7.159   5.871   8.132 -0.6875 -0.6181 -0.1931
  746MOL0     C98406   7.033   5.911   8.177  0.5627 -0.1554  0.8254
  746MOL0     H98407   6.678   5.795   8.389  0.2918 -0.6150 -0.0851
  746MOL0     H98408   6.468   5.816   8.535  1.6264 -0.3753 -0.1781
  746MOL0     H98409   6.095   6.024   8.467  0.4124 -0.3694 -2.9616
  746MOL0     H98410   6.199   6.146   8.387  0.4479  4.2856  2.8618
  746MOL0     H98411   6.268   6.246   8.569  0.4443  0.7880  3.8214
  746MOL0     H98412   6.164   6.171   8.691  0.3886  2.6373  1.1851
  746MOL0     H98413   6.112   6.377   8.481  1.6750  1.0244  1.4556
  746MOL0     H98414   6.066   6.370   8.660  0.1395 -2.3276  1.5142
  746MOL0     H98415   5.923   6.199   8.454 -0.1104 -1.3754  0.8888
  746MOL0     H98416   5.911   6.211   8.625  0.6904  2.2415  2.2173
  746MOL0     H98417   5.839   6.423   8.428  0.4448 -1.9522 -1.8515
  746MOL0     H98418   5.868   6.457   8.598  2.9967 -1.6766 -1.1951
  746MOL0     H98419   5.679   6.344   8.671  2.9907 -1.1488  0.8112
  746MOL0     H98420   5.688   6.215   8.545 -2.6463 -0.0399 -1.9326
  746MOL0     H98421   5.603   6.383   8.383 -4.2171 -0.6095 -0.9925
  746MOL0     H98422   5.497   6.332   8.525 -0.5445  1.9951  1.4439
  746MOL0     H98423   5.667   6.587   8.511 -0.1661 -0.2728 -2.4219
  746MOL0     H98424   5.546   6.538   8.644  1.7924  1.9737 -0.0857
  746MOL0     H98425   5.518   6.824   8.457  1.9963 -2.2411  2.4512
  746MOL0     H98426   5.157   6.857   8.340 -0.4741  1.9236  0.4776
  746MOL0     H98427   5.312   6.945   8.330 -0.9351  0.1419  1.4197
  746MOL0     H98428   5.322   6.963   8.578  2.0161 -0.6683 -3.2198
  746MOL0     H98429   5.181   6.864   8.600 -1.9086  2.3647  1.8125
  746MOL0     H98430   5.194   7.136   8.463 -0.3039 -1.9964 -1.1972
  746MOL0     H98431   5.063   7.024   8.433 -0.3718 -0.5508 -0.2031
  746MOL0     H98432   5.019   7.203   8.621 -0.0963  1.0719 -0.0810
  746MOL0     H98433   5.167   7.138   8.705 -1.2343 -1.7090  0.0336
  746MOL0     H98434   4.792   7.186   8.708  3.3445 -0.7454 -1.8305
  746MOL0     H98435   4.560   7.106   8.668  1.3236  1.2046  1.6969
  746MOL0     H98436   4.193   6.857   8.748 -0.5546  0.6645  0.3980
  746MOL0     H98437   3.988   6.772   8.690  0.3650  0.9251  0.4614
  746MOL0     H98438   3.839   6.670   8.622  2.2205 -2.5685 -2.5393
  746MOL0     H98439   3.738   6.634   8.491 -2.1633  0.1810  0.9776
  746MOL0     H98440   3.760   6.911   8.628 -0.1730  0.4244  0.2941
  746MOL0     H98441   3.654   6.783   8.694  1.2931  0.0089  1.3435
  746MOL0     H98442   3.632   6.936   8.437  0.5323 -0.7602 -0.7572
  746MOL0     H98443   3.533   6.948   8.582 -0.6708 -1.7828  0.8833
  746MOL0     H98444   3.549   6.716   8.386 -0.6272 -2.8462  1.7922
  746MOL0     H98445   3.459   6.709   8.529 -1.3798  0.2829 -1.8988
  746MOL0     H98446   3.403   6.915   8.325 -0.5946 -0.6372 -1.1569
  746MOL0     H98447   3.326   6.904   8.475 -0.8208 -1.5202  1.6958
  746MOL0     H98448   3.205   6.709   8.414  2.1160 -1.5037  0.9671
  746MOL0     H98449   3.294   6.690   8.249 -1.2945 -0.0050  0.6549
  746MOL0     H98450   3.131   6.934   8.337 -0.0993 -1.6104  2.0579
  746MOL0     H98451   3.221   6.908   8.193 -0.5953 -3.1326 -1.5563
  746MOL0     H98452   3.056   6.685   8.184  0.7727  0.2437  0.8668
  746MOL0     H98453   2.995   6.843   8.135 -2.7245 -0.0157 -0.0869
  746MOL0     H98454   4.046   6.896   8.284  1.5621  0.7043  0.1960
  746MOL0     H98455   4.283   6.956   8.344 -0.5638  0.1452  0.2040
  746MOL0     H98456   4.719   6.719   8.569  0.2706  0.2878  1.4326
  746MOL0     H98457   4.939   6.788   8.644  1.6762  1.8039 -1.3219
  746MOL0     H98458   6.398   6.201   8.352  0.7675 -0.2105 -4.2241
  746MOL0     H98459   6.611   6.192   8.255 -1.3394  0.3071 -0.6637
  746MOL0     H98460   7.138   6.110   8.437  1.7889  0.5051  0.1894
  746MOL0     H98461   7.352   6.050   8.352 -0.0525 -0.5190  0.8917
  746MOL0     H98462   7.535   5.899   8.258 -2.7384 -1.8490  0.0579
  746MOL0     H98463   7.483   6.041   8.143 -4.2909  0.1231 -1.3138
  746MOL0     H98464   7.604   5.800   8.018 -1.1657 -1.0755  2.3509
  746MOL0     H98465   7.591   5.958   7.966  1.2843  0.1621 -0.8260
  746MOL0     H98466   7.763   6.003   8.169  1.1700 -0.4708 -1.1335
  746MOL0     H98467   7.823   5.920   8.023  0.1307 -1.1155 -0.3793
  746MOL0     H98468   7.736   5.777   8.298 -1.5778  0.6235 -0.8604
  746MOL0     H98469   7.795   5.700   8.134  1.8430 -0.9162 -0.6799
  746MOL0     H98470   8.144   5.771   8.357  0.2782  1.2305 -0.1803
  746MOL0     H98471   7.169   5.809   8.043  0.6932 -0.7233  0.0104
  746MOL0     H98472   6.948   5.867   8.127  2.1233 -2.4098 -0.0346
  747MOL0     O98473   6.333   1.711   9.958  0.7499  0.5543 -0.2326
  747MOL0     C98474   6.374   1.701   9.841 -0.3549 -0.1371  1.2230
  747MOL0     O98475   6.297   1.664   9.730 -0.9383  0.5070 -0.3350
  747MOL0     C98476   6.162   1.679   9.744  0.6237  0.5112  0.1967
  747MOL0     C98477   6.109   1.800   9.705  0.1214 -0.7042 -0.0783
  747MOL0     C98478   5.977   1.824   9.718 -0.2967 -0.1718  0.2983
  747MOL0     C98479   5.892   1.717   9.763 -0.8866 -0.2369  0.0830
  747MOL0     O98480   5.763   1.750   9.761 -0.3982 -0.2621 -0.4185
  747MOL0     C98481   5.685   1.678   9.860  0.7462  0.2562  0.4202
  747MOL0     C98482   5.572   1.769   9.917  0.1023 -0.4828  0.3449
  747MOL0     C98483   5.636   1.872  10.022 -0.4515 -0.3334  1.2476
  747MOL0     C98484   5.532   1.934  10.124 -0.3015  0.6794 -0.0588
  747MOL0     C98485   5.592   2.041  10.218  0.2563 -0.1572  0.3930
  747MOL0     C98486   5.598   2.182  10.169  0.3841 -0.1918  0.3803
  747MOL0     C98487   5.664   2.288  10.258  0.4419 -0.7800  0.5425
  747MOL0     C98488   5.657   2.421  10.188  0.4271  1.1158  0.5021
  747MOL0     N98489   5.524   2.472  10.165  0.4438 -0.5339 -1.2501
  747MOL0     C98490   5.474   2.502  10.044 -0.1711  0.4143  0.7435
  747MOL0     C98491   5.361   2.578  10.065  0.4956  1.3644 -0.7419
  747MOL0     C98492   5.251   2.633   9.979  0.6828  0.9035  0.0383
  747MOL0     C98493   5.123   2.544   9.987  0.4072  0.8268  0.5970
  747MOL0     C98494   5.129   2.400   9.917 -0.0182  0.0647 -0.8597
  747MOL0     C98495   4.993   2.339   9.899 -0.9168  0.4209 -0.2922
  747MOL0     O98496   4.929   2.330  10.021  0.5545  0.4831 -0.1258
  747MOL0     C98497   4.803   2.280  10.025  0.0793  0.6268  0.9982
  747MOL0     C98498   4.723   2.293  10.143 -0.0015 -1.0948  0.1033
  747MOL0     C98499   4.593   2.246  10.152 -0.1479  0.0596 -0.1774
  747MOL0     C98500   4.530   2.186  10.041 -0.4573  0.6982  0.0783
  747MOL0     C98501   4.390   2.157  10.047  0.8005 -0.6185  0.1659
  747MOL0     O98502   4.324   2.209  10.152 -0.1658 -0.0715 -0.1981
  747MOL0     C98503   4.198   2.154  10.170 -0.4708  0.0469  0.1806
  747MOL0     C98504   4.177   2.070  10.280 -0.3293 -0.1886 -0.2029
  747MOL0     C98505   4.055   2.008  10.304  0.4410 -0.1840  0.0601
  747MOL0     C98506   3.944   2.040  10.215 -0.2506  0.0264  0.1513
  747MOL0     O98507   3.816   1.982  10.225  0.1922  0.0881  0.1417
  747MOL0     C98508   3.787   1.891  10.334 -0.3649 -1.1077 -0.1166
  747MOL0     C98509   3.645   1.853  10.305 -0.1950 -0.0006 -0.0765
  747MOL0     C98510   3.594   1.764  10.430  0.3881  0.2187 -0.3240
  747MOL0     C98511   3.445   1.733  10.403  0.3987  0.0922  0.3020
  747MOL0     C98512   3.383   1.622  10.482  0.0515 -0.0479  0.1576
  747MOL0     C98513   3.234   1.601  10.436  0.0122 -0.3978 -0.9094
  747MOL0     C98514   3.220   1.475  10.350  0.2848 -0.5732 -0.0584
  747MOL0     C98515   3.078   1.462  10.295 -0.8668 -0.4196 -0.6926
  747MOL0    Cl98516   2.971   1.395  10.427  0.2600 -0.5125  0.2504
  747MOL0     C98517   3.964   2.125  10.104 -0.6887  0.4495 -0.3294
  747MOL0     C98518   4.091   2.191  10.086  0.6320 -0.4578  1.3097
  747MOL0     O98519   4.341   2.075   9.967 -0.0939 -0.2385  0.0780
  747MOL0     C98520   4.604   2.171   9.920  0.0350 -0.2232 -0.7707
  747MOL0     C98521   4.737   2.220   9.914  0.4317  0.2619 -0.4438
  747MOL0     N98522   5.349   2.594  10.196  0.6040  0.3509 -0.4899
  747MOL0     N98523   5.439   2.534  10.257 -0.4225 -0.1233 -0.6314
  747MOL0     C98524   5.955   1.599   9.821 -0.0461 -0.1553  1.0168
  747MOL0     C98525   6.085   1.576   9.804  0.1536  1.2308  0.4566
  747MOL0     C98526   6.516   1.710   9.816  0.0661  0.6026 -0.4421
  747MOL0     C98527   6.607   1.745   9.919  0.3283  0.1415  0.9506
  747MOL0     C98528   6.747   1.744   9.886  0.3011 -0.1567  0.1517
  747MOL0     C98529   6.795   1.714   9.760  0.2217 -0.3183  0.2599
  747MOL0     O98530   6.934   1.711   9.750  0.3102  0.6309  0.0393
  747MOL0     C98531   6.999   1.739   9.629 -0.4541 -0.3019  0.4878
  747MOL0     C98532   7.143   1.770   9.653  0.4023 -0.2903 -0.2184
  747MOL0     C98533   7.219   1.638   9.689 -0.0099 -0.5113  0.0986
  747MOL0     C98534   7.374   1.653   9.680  0.0330  0.2771  0.1127
  747MOL0     C98535   7.454   1.525   9.697 -0.0157  0.4144 -0.3691
  747MOL0     C98536   7.530   1.425   9.705 -0.5769 -0.5606  0.4663
  747MOL0     C98537   6.707   1.677   9.657  0.1651  0.5614 -0.3403
  747MOL0     C98538   6.566   1.671   9.687 -0.6938  0.2845 -0.3710
  747MOL0     H98539   6.179   1.874   9.666 -3.0031  3.8922  2.1304
  747MOL0     H98540   5.938   1.916   9.677  0.3976 -0.6098 -1.4500
  747MOL0     H98541   5.754   1.653   9.942 -1.6249  0.1241  2.4901
  747MOL0     H98542   5.635   1.588   9.826 -4.6137  2.0040  2.6227
  747MOL0     H98543   5.505   1.710   9.980 -2.7907  0.1217 -2.0031
  747MOL0     H98544   5.523   1.817   9.832  3.3100  1.6486 -0.5129
  747MOL0     H98545   5.685   1.956   9.972 -2.7285  0.8148  0.7697
  747MOL0     H98546   5.710   1.819  10.081 -1.5275 -2.4607  0.7752
  747MOL0     H98547   5.437   1.964  10.078 -1.0907 -1.3541  0.1214
  747MOL0     H98548   5.511   1.848  10.188  1.2073  0.3677  0.0336
  747MOL0     H98549   5.693   2.013  10.250  0.0276 -0.6643  0.6839
  747MOL0     H98550   5.532   2.034  10.309  3.2078  0.3782  2.5663
  747MOL0     H98551   5.498   2.208  10.132 -0.3001 -3.9727 -0.9667
  747MOL0     H98552   5.654   2.176  10.075 -0.7434 -1.0020 -0.2716
  747MOL0     H98553   5.614   2.298  10.354  1.4866 -0.6964  1.0894
  747MOL0     H98554   5.767   2.261  10.280  0.8492  0.0072 -0.3325
  747MOL0     H98555   5.698   2.395  10.090  1.0663  2.6409  0.3262
  747MOL0     H98556   5.719   2.502  10.227 -0.3369  3.0865 -2.0712
  747MOL0     H98557   5.516   2.474   9.948 -3.2267 -3.0337  0.1719
  747MOL0     H98558   5.287   2.622   9.876 -0.5002 -2.9075 -0.1327
  747MOL0     H98559   5.226   2.734  10.011  2.2259  1.3294 -0.0064
  747MOL0     H98560   5.048   2.594   9.924 -0.5515 -2.2475 -0.8765
  747MOL0     H98561   5.074   2.540  10.085 -4.1846  0.9686 -1.4387
  747MOL0     H98562   5.183   2.425   9.826  1.2030  4.2477  0.7965
  747MOL0     H98563   5.193   2.339   9.982 -0.4902  0.7801  0.3230
  747MOL0     H98564   5.015   2.243   9.852  1.8678  0.4876  0.7074
  747MOL0     H98565   4.938   2.403   9.828 -1.2071 -0.3255 -0.7507
  747MOL0     H98566   4.777   2.344  10.222  1.4686  0.2013 -1.6502
  747MOL0     H98567   4.542   2.261  10.247  1.6595  2.6790  0.4848
  747MOL0     H98568   4.261   2.054  10.347  0.9071  1.6615 -1.2259
  747MOL0     H98569   4.039   1.936  10.384 -1.9808 -1.5895 -1.5476
  747MOL0     H98570   3.789   1.951  10.425  0.0780  0.6652 -1.2481
  747MOL0     H98571   3.848   1.800  10.346  0.0068 -1.4175 -3.2745
  747MOL0     H98572   3.637   1.799  10.210  0.4903  1.6879 -1.1416
  747MOL0     H98573   3.576   1.938  10.309  0.1035  0.2335  0.1546
  747MOL0     H98574   3.605   1.813  10.528 -2.8840  0.1061  0.2003
  747MOL0     H98575   3.644   1.667  10.440  0.4045  0.0823 -1.6366
  747MOL0     H98576   3.395   1.829  10.415  1.2522  0.7873 -1.4478
  747MOL0     H98577   3.434   1.711  10.296  0.7789 -0.0796  0.2984
  747MOL0     H98578   3.383   1.642  10.590  0.4625  0.4760  0.0675
  747MOL0     H98579   3.433   1.525  10.473  0.7453  0.1170  1.8567
  747MOL0     H98580   3.189   1.689  10.389  0.0808  1.0156  1.4923
  747MOL0     H98581   3.172   1.584  10.525 -4.1907 -1.6638 -3.7470
  747MOL0     H98582   3.282   1.496  10.262 -1.4884  0.3958 -1.1491
  747MOL0     H98583   3.260   1.393  10.411  0.7702  0.0188  0.4302
  747MOL0     H98584   3.085   1.389  10.213 -0.9703 -2.6039  1.1245
  747MOL0     H98585   3.047   1.559  10.256 -1.4509  0.5098  1.8952
  747MOL0     H98586   3.877   2.141  10.040 -0.3898 -0.7627 -1.0659
  747MOL0     H98587   4.116   2.252  10.000 -0.9541 -2.8992 -1.0676
  747MOL0     H98588   4.571   2.106   9.840  2.2886 -1.5262 -0.7410
  747MOL0     H98589   4.792   2.217   9.820 -0.4948  0.5636 -1.0148
  747MOL0     H98590   5.902   1.521   9.875 -0.0231 -2.4280 -2.0252
  747MOL0     H98591   6.134   1.481   9.825  2.1293  2.0028 -0.4595
  747MOL0     H98592   6.572   1.753  10.021 -0.5528  0.9503  0.5918
  747MOL0     H98593   6.822   1.758   9.964  3.0496 -1.4205 -2.0892
  747MOL0     H98594   6.944   1.811   9.566  1.1695  0.7329  0.1934
  747MOL0     H98595   7.009   1.648   9.569 -0.7643  0.0862 -0.1699
  747MOL0     H98596   7.190   1.815   9.565  1.4972  3.9539  2.2540
  747MOL0     H98597   7.146   1.825   9.747 -0.9952  0.5706 -0.6551
  747MOL0     H98598   7.187   1.550   9.634 -1.7261 -0.5789  1.1322
  747MOL0     H98599   7.201   1.613   9.794 -0.5774 -2.0702 -0.3454
  747MOL0     H98600   7.392   1.699   9.583 -0.5771  2.4113  0.9571
  747MOL0     H98601   7.396   1.731   9.754 -3.4679  0.8754  0.6895
  747MOL0     H98602   7.598   1.343   9.695 -1.9321 -1.5729 -1.0687
  747MOL0     H98603   6.736   1.645   9.558  1.6005  2.6895 -0.6869
  747MOL0     H98604   6.494   1.631   9.615  0.1289 -3.2732  0.5647
  748MOL0     O98605  10.733   1.714   8.629 -0.5051  0.3330 -0.2186
  748MOL0     C98606  10.760   1.756   8.742  0.3009 -0.1375 -0.9282
  748MOL0     O98607  10.685   1.739   8.855  0.1730 -0.4390 -0.3154
  748MOL0     C98608  10.581   1.650   8.863  0.2005  0.4884  0.7172
  748MOL0     C98609  10.585   1.528   8.802  0.3398  0.0056 -0.3260
  748MOL0     C98610  10.473   1.438   8.794 -0.4388  0.8752 -0.5279
  748MOL0     C98611  10.350   1.480   8.859  0.4779  0.3356  0.5980
  748MOL0     O98612  10.226   1.411   8.858 -0.0936  0.2304  0.2693
  748MOL0     C98613  10.238   1.274   8.819 -0.3814  0.6228 -0.4327
  748MOL0     C98614  10.112   1.200   8.860 -0.0890  0.5671 -0.4872
  748MOL0     C98615  10.098   1.207   9.015 -0.4929  0.2363 -0.3555
  748MOL0     C98616   9.959   1.172   9.057 -0.8273 -0.4710  0.1167
  748MOL0     C98617   9.955   1.167   9.203  0.0144 -0.0139 -0.2204
  748MOL0     C98618   9.813   1.129   9.260 -0.4522 -0.2247  0.3554
  748MOL0     C98619   9.711   1.241   9.249  0.3875  0.4133 -0.2606
  748MOL0     C98620   9.570   1.193   9.289 -0.6383  1.2307  0.9091
  748MOL0     N98621   9.547   1.213   9.432  0.2662 -0.4999  0.2411
  748MOL0     C98622   9.505   1.330   9.496  0.2687  0.1087  0.3500
  748MOL0     C98623   9.523   1.305   9.627  0.0420  0.8391 -0.3464
  748MOL0     C98624   9.510   1.395   9.747  0.1652  0.2595 -0.1576
  748MOL0     C98625   9.368   1.433   9.790 -0.0640 -1.0942  0.0519
  748MOL0     C98626   9.296   1.297   9.818  0.3555 -0.4106 -1.1491
  748MOL0     C98627   9.192   1.322   9.922 -0.1995  0.7691 -0.4849
  748MOL0     O98628   9.130   1.201   9.962 -0.7879  0.1791  0.0757
  748MOL0     C98629   8.995   1.197   9.996 -0.2864  0.5682  0.1882
  748MOL0     C98630   8.922   1.303  10.047  0.0624 -1.1549  0.1992
  748MOL0     C98631   8.785   1.292  10.064 -0.1880 -0.9222  0.2389
  748MOL0     C98632   8.713   1.178  10.035 -0.6199 -0.2191 -0.3877
  748MOL0     C98633   8.569   1.177  10.034 -0.1960  1.3763  0.6912
  748MOL0     O98634   8.523   1.073   9.965  0.9162  0.0149 -0.0307
  748MOL0     C98635   8.389   1.040   9.963  0.2003 -1.0459  0.7314
  748MOL0     C98636   8.301   1.061  10.074 -0.4448 -0.5092  0.7116
  748MOL0     C98637   8.170   1.035  10.059  0.3839  0.2755 -0.0075
  748MOL0     C98638   8.114   0.983   9.939 -0.3477  1.0183  0.5563
  748MOL0     O98639   7.983   0.928   9.931 -0.1913  0.4036 -0.6887
  748MOL0     C98640   7.887   0.988  10.011  0.1065  0.0454  0.1724
  748MOL0     C98641   7.798   1.052   9.903 -0.0989  0.9163 -0.3430
  748MOL0     C98642   7.677   1.132   9.963  0.0071 -0.1299 -0.2104
  748MOL0     C98643   7.568   1.041  10.018  0.8018  0.2856 -1.0113
  748MOL0     C98644   7.448   1.137  10.044  0.2317 -0.0404  0.1375
  748MOL0     C98645   7.312   1.058  10.067  0.9150 -0.3438  0.2696
  748MOL0     C98646   7.186   1.150  10.077 -0.3452  0.1409  0.3219
  748MOL0     C98647   7.059   1.063  10.068 -0.3746  0.0475 -0.0814
  748MOL0    Cl98648   6.938   1.149   9.992  0.4578  0.2544 -0.0047
  748MOL0     C98649   8.200   0.976   9.830  0.2183  0.7224  0.7711
  748MOL0     C98650   8.337   1.005   9.836 -0.3228  0.6136 -0.4701
  748MOL0     O98651   8.499   1.269  10.078  0.3712  0.7406  0.6608
  748MOL0     C98652   8.787   1.070   9.977 -0.0334 -0.1096  0.9186
  748MOL0     C98653   8.928   1.079   9.972 -0.0990  0.6948  0.0451
  748MOL0     N98654   9.557   1.170   9.646  0.1125  0.5786  0.3698
  748MOL0     N98655   9.565   1.121   9.526  0.2022  0.4360 -0.0778
  748MOL0     C98656  10.349   1.600   8.925  1.2844  0.2659  0.6361
  748MOL0     C98657  10.464   1.683   8.929 -0.0963 -0.4581 -0.4115
  748MOL0     C98658  10.887   1.816   8.768  0.6045 -0.5279 -0.5282
  748MOL0     C98659  10.934   1.833   8.903  0.2692  1.0234  0.5930
  748MOL0     C98660  11.065   1.876   8.927 -0.3204 -0.2729  0.2247
  748MOL0     C98661  11.148   1.925   8.829 -1.1065 -0.5873 -0.0693
  748MOL0     O98662  11.285   1.943   8.867  0.2233  0.0037 -0.1295
  748MOL0     C98663  11.380   1.983   8.757  0.5983  1.2153 -1.1270
  748MOL0     C98664  11.526   1.988   8.803 -0.2789  0.1243 -0.2304
  748MOL0     C98665  11.580   1.845   8.842 -0.0387 -0.9673  0.2124
  748MOL0     C98666  11.722   1.839   8.885 -0.8343  0.4271  0.9905
  748MOL0     C98667  11.806   1.929   8.798  0.4979 -0.7470  1.0350
  748MOL0     C98668  11.867   2.009   8.724 -0.4506  0.0996 -0.4100
  748MOL0     C98669  11.095   1.927   8.703  0.0199 -0.0204  0.1922
  748MOL0     C98670  10.970   1.868   8.675  0.6560  0.2739  0.0667
  748MOL0     H98671  10.686   1.507   8.769  0.9132  1.8204  0.1596
  748MOL0     H98672  10.471   1.342   8.743 -1.6318  2.1662 -3.0761
  748MOL0     H98673  10.316   1.224   8.876  0.2762 -2.2468 -3.5447
  748MOL0     H98674  10.246   1.276   8.710 -2.4577 -1.2107 -0.6940
  748MOL0     H98675  10.108   1.093   8.836 -1.6678  0.5365 -0.2403
  748MOL0     H98676  10.028   1.251   8.811  2.6184  2.4286 -3.5817
  748MOL0     H98677  10.122   1.307   9.054 -1.9117  1.0680 -1.4972
  748MOL0     H98678  10.171   1.146   9.069  0.7993  0.6377 -1.5654
  748MOL0     H98679   9.893   1.253   9.024  1.6465  0.0940 -4.2880
  748MOL0     H98680   9.935   1.076   9.011  0.9627 -0.8781 -0.0241
  748MOL0     H98681   9.992   1.265   9.236  3.4187 -0.4292 -2.3019
  748MOL0     H98682  10.020   1.086   9.238  4.2831  2.5080 -1.5424
  748MOL0     H98683   9.827   1.119   9.368  1.1312 -0.0795  0.1859
  748MOL0     H98684   9.780   1.034   9.216  0.5966  0.2462 -1.5427
  748MOL0     H98685   9.731   1.328   9.313 -0.5839 -0.1543  0.8432
  748MOL0     H98686   9.708   1.271   9.144  1.0760  2.2284  0.1837
  748MOL0     H98687   9.561   1.086   9.269  0.4554  1.4043 -0.6109
  748MOL0     H98688   9.486   1.244   9.240 -1.0301  1.8061  2.1219
  748MOL0     H98689   9.461   1.414   9.444  0.9211 -1.1907 -2.4959
  748MOL0     H98690   9.568   1.485   9.722 -0.8803  0.5904 -1.5369
  748MOL0     H98691   9.563   1.356   9.834 -0.1987  1.3115  0.5553
  748MOL0     H98692   9.323   1.496   9.713 -0.1999 -3.2613 -1.7430
  748MOL0     H98693   9.380   1.497   9.878  0.3783  0.1881 -0.9079
  748MOL0     H98694   9.256   1.253   9.726  1.4496  1.1385 -2.4313
  748MOL0     H98695   9.376   1.237   9.861  0.6666  0.9582  0.2672
  748MOL0     H98696   9.108   1.374   9.876 -1.1445  0.0488  0.3728
  748MOL0     H98697   9.243   1.372  10.005 -0.1548  1.9182 -1.1854
  748MOL0     H98698   8.960   1.402  10.070 -1.0244 -0.9186  1.0400
  748MOL0     H98699   8.736   1.377  10.111  2.0100 -0.7405  2.4089
  748MOL0     H98700   8.346   1.084  10.170  3.2311  0.5671 -1.1037
  748MOL0     H98701   8.116   1.031  10.153 -1.6295  1.2442 -1.0609
  748MOL0     H98702   7.915   1.065  10.084 -0.6068  1.4726 -1.0161
  748MOL0     H98703   7.831   0.905  10.056  1.3935  0.4893  2.7988
  748MOL0     H98704   7.756   0.980   9.832  1.7293 -2.6921  1.9145
  748MOL0     H98705   7.857   1.129   9.851 -0.6060  0.7900 -1.1301
  748MOL0     H98706   7.632   1.184   9.879  1.6115 -0.4230 -1.3035
  748MOL0     H98707   7.708   1.208  10.035  2.5830 -0.7440 -0.5799
  748MOL0     H98708   7.541   0.966   9.943 -3.7456  0.5989  0.0550
  748MOL0     H98709   7.593   0.989  10.111 -1.7543 -1.1316 -1.0378
  748MOL0     H98710   7.434   1.203   9.958 -0.9910 -1.1990 -0.5765
  748MOL0     H98711   7.485   1.196  10.129  0.5561  0.6296 -0.4509
  748MOL0     H98712   7.313   1.009  10.165 -1.9778  1.9375  1.6053
  748MOL0     H98713   7.295   0.986   9.986 -1.3746 -0.5302  0.8346
  748MOL0     H98714   7.186   1.196  10.176 -0.5139  2.0912 -0.5430
  748MOL0     H98715   7.194   1.235  10.009 -1.7661 -0.5752 -0.7899
  748MOL0     H98716   7.020   1.030  10.165  0.9399 -1.2016  0.0437
  748MOL0     H98717   7.080   0.974  10.008 -2.5777 -1.4183  1.1772
  748MOL0     H98718   8.146   0.946   9.741 -0.5675  0.1067  1.4456
  748MOL0     H98719   8.398   0.986   9.748 -1.4345  0.6870 -1.2884
  748MOL0     H98720   8.751   0.975   9.938 -2.2304  1.2294 -0.4663
  748MOL0     H98721   8.984   1.001   9.921  0.4017 -0.2280  1.9238
  748MOL0     H98722  10.262   1.629   8.984 -0.5221 -0.2012 -1.6243
  748MOL0     H98723  10.485   1.775   8.983 -0.2297 -0.6808  0.0233
  748MOL0     H98724  10.873   1.800   8.987 -1.9854 -2.2395 -2.0848
  748MOL0     H98725  11.112   1.880   9.025 -1.3482 -2.6032  0.8859
  748MOL0     H98726  11.361   2.085   8.723  2.3866  1.0492 -2.8594
  748MOL0     H98727  11.368   1.906   8.681 -1.3485 -1.5360  1.7042
  748MOL0     H98728  11.571   2.021   8.709  1.0534  0.2833  0.4463
  748MOL0     H98729  11.545   2.062   8.880  0.7213  0.3417 -0.6727
  748MOL0     H98730  11.562   1.782   8.755 -3.0327  0.9274 -0.6570
  748MOL0     H98731  11.516   1.810   8.923 -4.2307  2.4175 -1.2450
  748MOL0     H98732  11.712   1.881   8.985 -1.0827  0.9087  0.7697
  748MOL0     H98733  11.768   1.740   8.887 -1.7350 -0.0018  1.1536
  748MOL0     H98734  11.928   2.071   8.662 -1.1457  1.6415  0.3877
  748MOL0     H98735  11.153   1.937   8.611 -1.2399 -0.8002 -0.7184
  748MOL0     H98736  10.937   1.857   8.573 -0.3510 -2.8649  0.6218
  749MOL0     O98737   9.571   0.189   9.563  0.5592 -0.0215 -0.7367
  749MOL0     C98738   9.597   0.140   9.453 -0.3908  0.6996 -0.1241
  749MOL0     O98739   9.515   0.050   9.388 -0.0318  0.6548 -0.2373
  749MOL0     C98740   9.391   0.029   9.450 -0.4469 -0.6766 -0.7947
  749MOL0     C98741   9.394  -0.063   9.558  0.1129  0.4941 -0.1128
  749MOL0     C98742   9.277  -0.088   9.622  0.0315  0.3778  0.1750
  749MOL0     C98743   9.154  -0.025   9.589  0.3981 -0.1205  0.3698
  749MOL0     O98744   9.032  -0.049   9.655 -0.8861 -1.2339 -0.0152
  749MOL0     C98745   9.014  -0.166   9.743  0.2825 -0.4547  0.2808
  749MOL0     C98746   8.863  -0.189   9.763  0.2913 -0.5159  0.4324
  749MOL0     C98747   8.775  -0.146   9.643 -0.5831  0.0967  1.0418
  749MOL0     C98748   8.739  -0.005   9.629  0.8234 -0.5276  0.1482
  749MOL0     C98749   8.590   0.001   9.598  0.0372  1.6833 -0.5995
  749MOL0     C98750   8.544   0.135   9.570 -0.0370 -1.1972  0.0746
  749MOL0     C98751   8.396   0.127   9.518  0.6673  0.9682 -1.0892
  749MOL0     C98752   8.325   0.257   9.499  0.4200 -0.8176 -0.8380
  749MOL0     N98753   8.319   0.351   9.613 -0.1131 -0.0116 -0.0783
  749MOL0     C98754   8.242   0.323   9.719 -0.1738 -0.1350  0.6924
  749MOL0     C98755   8.238   0.441   9.783 -0.3836 -0.1353  0.1535
  749MOL0     C98756   8.150   0.460   9.900 -0.0036 -0.4020  0.6138
  749MOL0     C98757   8.011   0.484   9.836 -0.0437 -0.2042  0.1953
  749MOL0     C98758   7.991   0.617   9.768  0.3082 -0.1589  0.4193
  749MOL0     C98759   7.847   0.660   9.780  1.0095 -0.7548 -0.6328
  749MOL0     O98760   7.811   0.661   9.921  0.3329 -0.1327 -0.0294
  749MOL0     C98761   7.682   0.649   9.948  0.3905  0.3974  0.2506
  749MOL0     C98762   7.662   0.571  10.066 -0.1526 -0.7808  0.3882
  749MOL0     C98763   7.538   0.565  10.120 -0.3657  1.0723  0.7328
  749MOL0     C98764   7.428   0.619  10.048 -0.2557  0.5269  0.3376
  749MOL0     C98765   7.295   0.617  10.108 -0.3179 -0.2266  1.0523
  749MOL0     O98766   7.273   0.555  10.227  0.4200 -0.3849  0.2783
  749MOL0     C98767   7.143   0.552  10.276  0.0602  0.1177 -0.6788
  749MOL0     C98768   7.048   0.647  10.266 -0.5642 -0.5540 -0.3061
  749MOL0     C98769   6.919   0.630  10.314  0.4072  0.3934 -1.0552
  749MOL0     C98770   6.885   0.514  10.390 -0.0668  0.8193  0.1630
  749MOL0     O98771   6.759   0.495  10.446  0.9306 -0.2860  0.3692
  749MOL0     C98772   6.684   0.613  10.490  1.0611  0.2995  0.3309
  749MOL0     C98773   6.571   0.547  10.568 -0.9357  0.0527 -0.1414
  749MOL0     C98774   6.624   0.526  10.713  0.1568 -0.2836 -0.0329
  749MOL0     C98775   6.513   0.491  10.809  0.9330 -0.6202 -0.5862
  749MOL0     C98776   6.418   0.606  10.841  0.8450 -0.3045  0.0651
  749MOL0     C98777   6.470   0.748  10.884 -1.2351  0.2848 -0.3136
  749MOL0     C98778   6.560   0.741  11.015  1.1413  0.0711 -0.2583
  749MOL0     C98779   6.540   0.883  11.089 -0.7002 -0.1839  0.0646
  749MOL0    Cl98780   6.382   0.873  11.158 -0.0210 -0.1838 -0.2307
  749MOL0     C98781   6.979   0.409  10.399 -0.5348 -0.8692 -0.5086
  749MOL0     C98782   7.107   0.434  10.351  0.3604  0.9463 -0.1274
  749MOL0     O98783   7.203   0.653  10.030 -0.3303  0.7751 -0.7656
  749MOL0     C98784   7.446   0.672   9.917  0.2752  0.4065  0.1875
  749MOL0     C98785   7.574   0.687   9.871  0.6272 -0.2480  0.3078
  749MOL0     N98786   8.317   0.531   9.712  0.1766  0.3655  0.2887
  749MOL0     N98787   8.356   0.475   9.604  0.1991 -1.3134  0.3058
  749MOL0     C98788   9.152   0.063   9.481  0.6146  0.4745 -1.1333
  749MOL0     C98789   9.268   0.095   9.417  0.0444 -0.0138 -0.6022
  749MOL0     C98790   9.720   0.188   9.382 -0.3507  0.2221  0.0788
  749MOL0     C98791   9.806   0.282   9.443 -0.6740 -0.4056  0.3435
  749MOL0     C98792   9.923   0.319   9.373 -0.3534  0.7540  0.1481
  749MOL0     C98793   9.957   0.272   9.250  0.2273  0.1068 -0.3851
  749MOL0     O98794  10.051   0.324   9.166 -0.7881 -0.4570  0.5040
  749MOL0     C98795  10.168   0.390   9.223 -0.7285 -0.2830 -0.0018
  749MOL0     C98796  10.278   0.286   9.240 -0.2887  0.7967  0.7654
  749MOL0     C98797  10.314   0.217   9.111  0.0486 -0.0437 -0.6056
  749MOL0     C98798  10.405   0.099   9.145 -0.0318 -0.1708  0.2267
  749MOL0     C98799  10.328  -0.010   9.192  0.4686  0.1980 -0.2860
  749MOL0     C98800  10.266  -0.115   9.211  0.1732 -0.2505 -0.2425
  749MOL0     C98801   9.870   0.180   9.192  0.0465  0.0271 -0.2315
  749MOL0     C98802   9.751   0.131   9.254 -0.3692 -0.6750 -0.8550
  749MOL0     H98803   9.475  -0.132   9.576  0.8114  1.1891 -0.5639
  749MOL0     H98804   9.275  -0.168   9.696 -3.2053 -0.7717 -0.9819
  749MOL0     H98805   9.068  -0.148   9.837 -0.3202 -0.3870  0.6171
  749MOL0     H98806   9.059  -0.261   9.711 -0.3329 -0.3234 -1.0513
  749MOL0     H98807   8.829  -0.122   9.842  0.2601  1.6332 -1.2965
  749MOL0     H98808   8.848  -0.293   9.793  1.6545 -0.8106  0.1528
  749MOL0     H98809   8.687  -0.208   9.663 -0.2128 -0.9295 -0.3275
  749MOL0     H98810   8.821  -0.185   9.552 -0.8751 -2.0492  1.7368
  749MOL0     H98811   8.773   0.064   9.707  2.5956  0.7526 -1.6455
  749MOL0     H98812   8.796   0.038   9.546  3.0026  0.9053  2.2691
  749MOL0     H98813   8.539  -0.029   9.691  2.1297  0.8428  0.3380
  749MOL0     H98814   8.571  -0.056   9.507  0.8225  1.0609 -0.3842
  749MOL0     H98815   8.617   0.179   9.502 -0.4085 -0.2305  0.2891
  749MOL0     H98816   8.548   0.191   9.664  2.1981 -0.1318 -0.6031
  749MOL0     H98817   8.382   0.069   9.426 -2.4356  0.2462 -0.2835
  749MOL0     H98818   8.339   0.061   9.584  1.3214 -0.6520 -2.0630
  749MOL0     H98819   8.220   0.226   9.489 -0.0388  0.4769 -0.2707
  749MOL0     H98820   8.355   0.302   9.404  2.6261 -3.2318 -1.3924
  749MOL0     H98821   8.191   0.231   9.745 -0.0671 -0.3187  0.2745
  749MOL0     H98822   8.188   0.549   9.951 -1.0288  0.9843 -0.9038
  749MOL0     H98823   8.143   0.374   9.967 -0.7691 -0.9014 -0.0876
  749MOL0     H98824   7.938   0.463   9.915 -0.0097 -2.8419 -0.3610
  749MOL0     H98825   7.998   0.409   9.757  1.5815 -1.0423  0.6755
  749MOL0     H98826   8.063   0.687   9.811 -0.4109  2.5135 -2.3452
  749MOL0     H98827   8.007   0.607   9.660  0.3898  1.1449  0.2995
  749MOL0     H98828   7.778   0.595   9.726  0.3567 -1.6104  1.1454
  749MOL0     H98829   7.818   0.758   9.742 -0.5368 -0.1368  1.8880
  749MOL0     H98830   7.752   0.551  10.123  1.9002  2.8255 -1.2032
  749MOL0     H98831   7.510   0.516  10.213  1.0698 -0.7874  0.2273
  749MOL0     H98832   7.073   0.741  10.219 -0.5505  0.0841  0.9483
  749MOL0     H98833   6.849   0.712  10.297  2.0143  1.8050 -1.2003
  749MOL0     H98834   6.644   0.664  10.401 -2.4266 -0.1598  1.4762
  749MOL0     H98835   6.749   0.678  10.549 -0.8214  0.3993  2.4229
  749MOL0     H98836   6.528   0.455  10.529 -4.1998  0.9493  0.9340
  749MOL0     H98837   6.484   0.614  10.566 -0.6288  0.4609  0.0907
  749MOL0     H98838   6.684   0.613  10.742 -0.3181  0.5852 -1.5246
  749MOL0     H98839   6.697   0.446  10.701  0.2981  0.1463 -2.7251
  749MOL0     H98840   6.460   0.398  10.784 -2.2699  0.4062  1.8068
  749MOL0     H98841   6.557   0.468  10.906 -1.1971  1.4507  0.9619
  749MOL0     H98842   6.353   0.577  10.923  0.6907 -0.8371 -0.2432
  749MOL0     H98843   6.360   0.616  10.749  1.9411 -1.0855 -0.7303
  749MOL0     H98844   6.383   0.812  10.898 -0.0518  2.0210 -0.6226
  749MOL0     H98845   6.530   0.795  10.806 -1.1308  0.0659 -0.3658
  749MOL0     H98846   6.518   0.663  11.079 -1.7236  1.4047 -0.3371
  749MOL0     H98847   6.666   0.722  10.995  1.0965 -1.8478  1.0858
  749MOL0     H98848   6.537   0.961  11.012 -2.0865 -0.8880 -0.6221
  749MOL0     H98849   6.619   0.895  11.164  0.2645 -4.1387 -0.1108
  749MOL0     H98850   6.962   0.320  10.459  2.0941 -2.8325 -2.4185
  749MOL0     H98851   7.192   0.375  10.382 -0.8774  0.0709  1.7963
  749MOL0     H98852   7.376   0.698   9.838  1.6077 -2.5263 -2.1796
  749MOL0     H98853   7.580   0.735   9.774 -0.1415  2.5388  1.5325
  749MOL0     H98854   9.052   0.102   9.462 -0.6422 -0.1571  3.1247
  749MOL0     H98855   9.265   0.172   9.340 -0.8641 -0.4003 -0.9782
  749MOL0     H98856   9.789   0.315   9.544 -2.9388  3.9277 -1.1907
  749MOL0     H98857   9.994   0.380   9.430 -0.3165  0.6297  0.2357
  749MOL0     H98858  10.149   0.432   9.322  1.3759  0.3223  0.2013
  749MOL0     H98859  10.187   0.464   9.145 -2.3909 -0.7574 -0.9138
  749MOL0     H98860  10.372   0.324   9.280  1.3043 -1.6245 -0.5052
  749MOL0     H98861  10.255   0.218   9.322 -0.3896 -1.0611 -0.7453
  749MOL0     H98862  10.352   0.289   9.038 -3.5816 -1.0886 -3.8276
  749MOL0     H98863  10.228   0.180   9.054 -0.7239  2.0747 -0.8873
  749MOL0     H98864  10.456   0.073   9.052  1.8575 -0.4936  1.3018
  749MOL0     H98865  10.492   0.120   9.209  1.3589 -1.9027 -1.0040
  749MOL0     H98866  10.205  -0.202   9.224 -0.7268 -0.1089 -2.9989
  749MOL0     H98867   9.889   0.143   9.092  2.1100  2.2867 -0.7823
  749MOL0     H98868   9.688   0.056   9.206 -1.4116 -1.5820  1.7492
  750MOL0     O98869  10.061   5.620   7.110  0.4861 -0.3182 -0.3183
  750MOL0     C98870   9.987   5.596   7.200  0.6275  0.4925 -0.6804
  750MOL0     O98871  10.026   5.593   7.331 -0.3492 -0.0155 -0.2167
  750MOL0     C98872  10.162   5.587   7.361  0.1452  0.0456 -0.1567
  750MOL0     C98873  10.211   5.663   7.475 -0.6791 -0.3763  0.4972
  750MOL0     C98874  10.349   5.658   7.512  0.0757  0.3668 -0.0641
  750MOL0     C98875  10.441   5.586   7.428  0.2109  0.1414  0.4952
  750MOL0     O98876  10.579   5.587   7.450 -0.1989 -0.0333 -0.1217
  750MOL0     C98877  10.644   5.652   7.561 -0.0348 -0.7099 -0.0030
  750MOL0     C98878  10.793   5.620   7.544 -0.5022 -0.3865 -0.1289
  750MOL0     C98879  10.885   5.668   7.657  1.1329  0.4684  0.4372
  750MOL0     C98880  11.029   5.648   7.619  0.2318  0.5905  0.0035
  750MOL0     C98881  11.133   5.694   7.723  0.0454  0.2220  0.6929
  750MOL0     C98882  11.277   5.704   7.672 -0.6953 -0.5180 -0.0679
  750MOL0     C98883  11.379   5.741   7.778 -0.6915 -0.1810  0.3888
  750MOL0     C98884  11.383   5.632   7.887 -0.3991  0.7154  0.5646
  750MOL0     N98885  11.485   5.673   7.995  0.5408 -0.4337  0.9467
  750MOL0     C98886  11.619   5.662   7.986 -0.0111 -0.0178 -0.2182
  750MOL0     C98887  11.652   5.729   8.096 -0.3547 -0.4744 -0.2450
  750MOL0     C98888  11.788   5.756   8.146  0.2763  0.7239  0.0785
  750MOL0     C98889  11.821   5.643   8.231  0.7977 -0.3904  0.8484
  750MOL0     C98890  11.963   5.654   8.293  0.5317 -1.0714  0.1114
  750MOL0     C98891  11.989   5.553   8.409 -0.2535 -0.0745 -0.6880
  750MOL0     O98892  12.065   5.589   8.524  0.5002 -0.1534 -0.0737
  750MOL0     C98893  12.193   5.631   8.515 -1.0805 -0.9745 -0.4571
  750MOL0     C98894  12.287   5.585   8.423  0.0678 -0.0909 -0.1496
  750MOL0     C98895  12.422   5.609   8.441  0.5251 -0.3839 -1.3841
  750MOL0     C98896  12.469   5.705   8.537 -0.0163  0.0823 -0.8200
  750MOL0     C98897  12.603   5.766   8.532  0.3190  0.3929  0.4571
  750MOL0     O98898  12.705   5.684   8.484 -0.5514  0.2358 -0.3365
  750MOL0     C98899  12.837   5.730   8.496 -0.8638  0.4222  0.8948
  750MOL0     C98900  12.943   5.637   8.498 -0.1426 -0.1782 -0.0689
  750MOL0     C98901  13.077   5.678   8.496 -0.2838  0.0978  0.2096
  750MOL0     C98902  13.105   5.811   8.459 -0.3208 -0.1614 -0.2657
  750MOL0     O98903  13.233   5.867   8.437  0.1211  1.2647  0.6903
  750MOL0     C98904  13.328   5.772   8.369  0.8539 -0.1473  0.2269
  750MOL0     C98905  13.460   5.843   8.345  0.0336  0.0716  0.1480
  750MOL0     C98906  13.577   5.750   8.326  0.1940  0.0271  0.4949
  750MOL0     C98907  13.692   5.840   8.311  0.3689 -0.0647 -0.0527
  750MOL0     C98908  13.822   5.754   8.285 -0.1445  0.3837  0.1238
  750MOL0     C98909  13.949   5.840   8.309 -0.6417  0.6573  0.0704
  750MOL0     C98910  13.980   5.871   8.463  0.0384  1.0924 -0.6149
  750MOL0     C98911  14.109   5.939   8.473 -0.2139 -0.1509 -0.8263
  750MOL0    Cl98912  14.094   6.098   8.388 -0.0358  0.2860  0.2523
  750MOL0     C98913  12.999   5.905   8.443 -0.3932 -0.1586  0.9070
  750MOL0     C98914  12.867   5.860   8.463  0.2432  0.1703 -0.4851
  750MOL0     O98915  12.620   5.875   8.589  0.6078 -0.1470  0.5286
  750MOL0     C98916  12.375   5.757   8.624  0.1543  0.1851 -0.6049
  750MOL0     C98917  12.240   5.715   8.625 -0.0623  0.5990  0.1075
  750MOL0     N98918  11.542   5.766   8.172  0.0448  0.1457 -0.1589
  750MOL0     N98919  11.442   5.719   8.121  0.3757  0.3648  0.7353
  750MOL0     C98920  10.388   5.501   7.330 -0.1279 -1.0979  0.2044
  750MOL0     C98921  10.257   5.501   7.300  0.0104 -0.9497 -0.9508
  750MOL0     C98922   9.843   5.567   7.182  0.2156 -0.6810 -0.4969
  750MOL0     C98923   9.789   5.580   7.053  0.2169  0.1673  0.2379
  750MOL0     C98924   9.650   5.555   7.031  0.3190  0.0846 -0.1172
  750MOL0     C98925   9.567   5.532   7.145 -0.1192 -0.0926  0.1047
  750MOL0     O98926   9.434   5.522   7.131 -0.2933  0.0395 -0.4391
  750MOL0     C98927   9.356   5.606   7.039 -1.2527 -0.1079  0.0272
  750MOL0     C98928   9.204   5.601   7.036  0.2190 -0.3960 -0.1441
  750MOL0     C98929   9.137   5.603   7.180 -0.0992  0.7541  0.4187
  750MOL0     C98930   9.148   5.726   7.257  0.2333 -0.0079 -0.2155
  750MOL0     C98931   9.107   5.849   7.190  0.4303 -0.5901  0.3940
  750MOL0     C98932   9.055   5.951   7.152  1.0140  0.8462  0.2467
  750MOL0     C98933   9.624   5.507   7.271  0.7260 -0.0061 -0.6767
  750MOL0     C98934   9.758   5.520   7.285  0.0069 -0.0565 -0.6630
  750MOL0     H98935  10.130   5.719   7.521 -3.1219  1.1528 -4.8479
  750MOL0     H98936  10.385   5.721   7.593  0.6931 -0.5584  0.4012
  750MOL0     H98937  10.607   5.617   7.657 -1.2981  0.7165  0.0724
  750MOL0     H98938  10.617   5.758   7.551  3.4414  0.5353  2.1951
  750MOL0     H98939  10.838   5.660   7.453 -0.7698  1.2848  0.4269
  750MOL0     H98940  10.806   5.512   7.541 -1.6705 -0.5628 -4.3790
  750MOL0     H98941  10.863   5.612   7.748 -1.7781 -0.0241 -0.4827
  750MOL0     H98942  10.872   5.775   7.672  4.8702  1.0987  0.1940
  750MOL0     H98943  11.051   5.541   7.607 -0.4015  0.1413  2.3575
  750MOL0     H98944  11.052   5.701   7.526  1.2245  2.4631  1.2639
  750MOL0     H98945  11.130   5.622   7.805  3.2479  1.2965  1.9037
  750MOL0     H98946  11.113   5.792   7.767 -2.9798 -0.3274  0.7975
  750MOL0     H98947  11.292   5.774   7.589  1.8470  1.3343  1.7979
  750MOL0     H98948  11.304   5.606   7.632 -2.0037 -0.7389 -0.4858
  750MOL0     H98949  11.477   5.744   7.731 -1.1024 -1.3523 -0.5971
  750MOL0     H98950  11.348   5.839   7.817  1.3003  0.3453  0.7404
  750MOL0     H98951  11.409   5.542   7.831  2.7339  1.6542  0.3176
  750MOL0     H98952  11.291   5.619   7.946  1.0751 -0.5111  2.7362
  750MOL0     H98953  11.691   5.622   7.916  1.1067  1.3028  0.1190
  750MOL0     H98954  11.791   5.849   8.203 -3.6529  2.0447 -1.4785
  750MOL0     H98955  11.858   5.762   8.062  0.9861 -0.6656  0.5364
  750MOL0     H98956  11.813   5.553   8.169  0.3829 -0.4478  0.9848
  750MOL0     H98957  11.744   5.637   8.308 -1.9016  1.3116 -1.4965
  750MOL0     H98958  12.027   5.621   8.210  0.6159 -2.4381  0.6917
  750MOL0     H98959  11.981   5.758   8.320 -1.9695 -0.4928 -0.2717
  750MOL0     H98960  12.034   5.458   8.378 -0.0298 -0.3431  0.4010
  750MOL0     H98961  11.890   5.533   8.453 -0.3861 -0.1151 -0.9990
  750MOL0     H98962  12.256   5.520   8.342 -2.8292  0.7394  0.1977
  750MOL0     H98963  12.498   5.553   8.388  2.1358 -1.0283  1.3776
  750MOL0     H98964  12.911   5.534   8.511 -1.2558 -0.1722 -2.2235
  750MOL0     H98965  13.162   5.615   8.521 -0.0732  0.1691 -0.3139
  750MOL0     H98966  13.283   5.734   8.278  1.1074 -0.3553  0.1870
  750MOL0     H98967  13.350   5.687   8.434 -0.6083  1.8143  3.5597
  750MOL0     H98968  13.480   5.892   8.441  0.4583 -1.0520  0.6462
  750MOL0     H98969  13.458   5.916   8.264 -0.4562  0.9275  0.9000
  750MOL0     H98970  13.557   5.687   8.239 -2.0597  0.5033  0.5908
  750MOL0     H98971  13.593   5.679   8.408  1.5077 -0.4752 -0.1749
  750MOL0     H98972  13.679   5.915   8.234 -1.1874  0.2081  0.4524
  750MOL0     H98973  13.706   5.887   8.409  2.1862  0.1458 -0.3809
  750MOL0     H98974  13.807   5.708   8.187 -1.2951 -0.6581  0.7606
  750MOL0     H98975  13.824   5.669   8.354 -0.6903  0.3384  0.0883
  750MOL0     H98976  13.949   5.928   8.245 -1.1351 -0.4209 -1.4912
  750MOL0     H98977  14.023   5.767   8.276 -2.7096 -1.8163  0.4757
  750MOL0     H98978  13.896   5.927   8.507 -1.1431 -0.9517 -0.1457
  750MOL0     H98979  13.977   5.777   8.517  1.0992  2.2449  1.5775
  750MOL0     H98980  14.189   5.889   8.417 -0.8753 -2.7268  0.4155
  750MOL0     H98981  14.146   5.950   8.575 -1.1137 -0.2236 -0.4843
  750MOL0     H98982  13.012   6.009   8.418  4.4732 -0.9534 -0.9104
  750MOL0     H98983  12.791   5.934   8.439  1.5776  1.2252 -1.7161
  750MOL0     H98984  12.408   5.836   8.690 -0.2977 -1.8803  2.2897
  750MOL0     H98985  12.166   5.753   8.695 -0.8451  2.8989 -1.8287
  750MOL0     H98986  10.459   5.438   7.277  0.0237  0.3227 -1.3739
  750MOL0     H98987  10.227   5.440   7.216  2.4296  1.5303 -3.8262
  750MOL0     H98988   9.839   5.615   6.964 -0.1845  0.4844  0.1335
  750MOL0     H98989   9.608   5.566   6.931  1.7964 -0.2718 -0.8168
  750MOL0     H98990   9.387   5.587   6.936  0.7427  0.4377  0.4949
  750MOL0     H98991   9.374   5.711   7.060 -3.3429  0.1647  0.6375
  750MOL0     H98992   9.157   5.678   6.974  0.3363 -1.4698 -1.6124
  750MOL0     H98993   9.174   5.512   6.981  1.2304 -0.0563 -1.2913
  750MOL0     H98994   9.169   5.515   7.237 -1.6350  0.0443  0.2132
  750MOL0     H98995   9.030   5.596   7.163 -0.4614  3.3111  1.2075
  750MOL0     H98996   9.086   5.710   7.345 -0.6479 -1.6543 -1.0912
  750MOL0     H98997   9.253   5.742   7.280  1.2276  0.2556 -4.1506
  750MOL0     H98998   9.010   6.045   7.126  1.5478  1.4439  1.4071
  750MOL0     H98999   9.559   5.496   7.357  0.6903  1.1635 -0.5374
  750MOL0     H99000   9.803   5.505   7.383 -0.0088  0.0921 -0.6327
  751MOL0     O99001   4.419   2.169   9.049  0.2832 -0.1947  0.5560
  751MOL0     C99002   4.525   2.184   9.106 -0.1542  0.2871  0.2471
  751MOL0     O99003   4.597   2.082   9.165 -0.2727 -0.5476  1.3519
  751MOL0     C99004   4.543   1.958   9.175  0.5729 -0.5451  0.5821
  751MOL0     C99005   4.607   1.841   9.153 -0.6114  0.7611 -0.6371
  751MOL0     C99006   4.553   1.719   9.194 -0.1908 -1.2522 -0.1809
  751MOL0     C99007   4.419   1.702   9.234  0.3507 -0.6021 -0.5731
  751MOL0     O99008   4.380   1.583   9.282 -0.3518 -0.0194  0.0791
  751MOL0     C99009   4.262   1.569   9.358  0.1442 -0.0843 -0.3558
  751MOL0     C99010   4.258   1.422   9.403 -0.0600 -0.1250  0.3160
  751MOL0     C99011   4.114   1.362   9.400  0.5497  0.1509 -0.4852
  751MOL0     C99012   4.062   1.333   9.258  0.0792  0.0740  0.2358
  751MOL0     C99013   3.945   1.225   9.252 -0.1719 -0.6958  0.0449
  751MOL0     C99014   3.812   1.267   9.321 -0.5980 -0.2321  0.3023
  751MOL0     C99015   3.714   1.155   9.301  0.4743  1.0992 -0.2046
  751MOL0     C99016   3.649   1.165   9.160 -0.4688  0.8032 -0.3374
  751MOL0     N99017   3.566   1.279   9.147  0.1777 -0.3505 -0.4663
  751MOL0     C99018   3.447   1.293   9.223  1.2085  0.4891  0.7755
  751MOL0     C99019   3.378   1.396   9.158 -0.5419 -0.7379  0.4430
  751MOL0     C99020   3.244   1.446   9.194 -0.3011  0.0378 -0.5666
  751MOL0     C99021   3.136   1.387   9.102  0.3476 -0.5153  0.0507
  751MOL0     C99022   3.130   1.232   9.120 -0.7938  0.9600  0.0907
  751MOL0     C99023   2.991   1.181   9.081 -0.2517  0.2229  0.1496
  751MOL0     O99024   2.886   1.234   9.160 -0.0235 -0.5799  0.8496
  751MOL0     C99025   2.751   1.206   9.139 -0.4352  0.6574  0.0868
  751MOL0     C99026   2.661   1.220   9.250  0.5929 -0.3657 -0.2832
  751MOL0     C99027   2.526   1.192   9.245  0.3339 -0.3308 -0.3605
  751MOL0     C99028   2.473   1.147   9.120 -0.4880 -0.8044  0.9419
  751MOL0     C99029   2.325   1.114   9.102 -0.4730  0.0084 -0.8505
  751MOL0     O99030   2.288   1.039   9.000 -0.1901  0.2890 -0.2675
  751MOL0     C99031   2.146   1.026   8.982 -0.1840  0.7823  0.4461
  751MOL0     C99032   2.067   1.117   8.911 -0.2069  0.3229 -0.8036
  751MOL0     C99033   1.922   1.101   8.885 -0.0883  0.0676 -0.5630
  751MOL0     C99034   1.872   0.980   8.944  0.8193 -0.1139 -0.5501
  751MOL0     O99035   1.739   0.943   8.945 -0.3537 -0.9878  0.0559
  751MOL0     C99036   1.632   1.043   8.936  0.0823 -0.8909 -0.5909
  751MOL0     C99037   1.497   0.994   8.982 -0.0070 -0.5587  0.0047
  751MOL0     C99038   1.409   0.948   8.873 -0.3520  0.0868  0.6387
  751MOL0     C99039   1.359   1.055   8.778 -0.2050  0.2338 -0.3835
  751MOL0     C99040   1.295   1.000   8.653  0.7904 -0.0261 -0.4840
  751MOL0     C99041   1.155   0.956   8.688  0.6937  0.0324 -0.1575
  751MOL0     C99042   1.085   0.875   8.579  0.3985 -0.8053 -0.3403
  751MOL0     C99043   0.930   0.870   8.599 -0.4872 -0.9307  0.6126
  751MOL0    Cl99044   0.837   1.001   8.525  0.5382 -0.2541 -0.3431
  751MOL0     C99045   1.952   0.888   9.015  0.0973  0.0312  0.2879
  751MOL0     C99046   2.083   0.908   9.026  0.3637  0.2046 -0.4271
  751MOL0     O99047   2.246   1.158   9.185  0.1139  0.0558 -0.2652
  751MOL0     C99048   2.561   1.141   9.010 -0.2764  0.7862 -0.5620
  751MOL0     C99049   2.693   1.164   9.019 -1.0515  0.2560  0.4710
  751MOL0     N99050   3.440   1.432   9.039 -0.9732  0.1375 -0.1850
  751MOL0     N99051   3.551   1.361   9.032 -0.5627  0.3544  0.6475
  751MOL0     C99052   4.344   1.825   9.241 -0.1444  0.6879 -0.3689
  751MOL0     C99053   4.409   1.943   9.218  0.7133 -0.1769 -0.1320
  751MOL0     C99054   4.585   2.315   9.102 -0.4401 -0.1993 -0.3252
  751MOL0     C99055   4.518   2.424   9.051  0.9039  0.1109 -0.1989
  751MOL0     C99056   4.585   2.546   9.039  0.6086  0.6557  0.5453
  751MOL0     C99057   4.717   2.559   9.092  0.7565 -0.0033 -0.2670
  751MOL0     O99058   4.759   2.689   9.089  1.0574 -0.1039  0.2879
  751MOL0     C99059   4.891   2.732   9.115  0.4618  0.2138 -0.3858
  751MOL0     C99060   4.988   2.691   8.998 -0.0028 -0.7732 -0.3667
  751MOL0     C99061   4.983   2.778   8.878 -0.0200 -0.5328  0.5765
  751MOL0     C99062   5.079   2.757   8.757  0.1110  0.2929 -0.5547
  751MOL0     C99063   5.068   2.614   8.715 -0.0306  0.3799  0.4416
  751MOL0     C99064   5.038   2.499   8.692 -1.1178  0.5123  1.1656
  751MOL0     C99065   4.781   2.451   9.143  0.5785 -0.6713  0.3710
  751MOL0     C99066   4.722   2.329   9.144 -0.3142 -0.3550 -0.4837
  751MOL0     H99067   4.709   1.845   9.116 -0.6629  0.9693 -0.7642
  751MOL0     H99068   4.613   1.629   9.189 -1.2600 -1.9774 -0.3489
  751MOL0     H99069   4.168   1.595   9.308 -0.8600 -1.3602  0.7946
  751MOL0     H99070   4.259   1.628   9.450  2.0392  1.8191 -1.4101
  751MOL0     H99071   4.307   1.404   9.499  1.5327  2.5767  0.0985
  751MOL0     H99072   4.313   1.366   9.326 -0.7505  0.4670 -0.6325
  751MOL0     H99073   4.037   1.426   9.444  0.9973  0.1268  0.3531
  751MOL0     H99074   4.115   1.267   9.454 -0.5067 -0.4949 -1.5578
  751MOL0     H99075   4.015   1.424   9.220 -0.3405  0.1803  0.9849
  751MOL0     H99076   4.147   1.313   9.193  1.6741 -1.6877  2.6674
  751MOL0     H99077   3.999   1.145   9.303  0.4716 -0.6758 -0.5994
  751MOL0     H99078   3.927   1.193   9.148 -1.7292 -1.1574  0.4233
  751MOL0     H99079   3.775   1.362   9.280 -3.5091 -1.5167 -0.3583
  751MOL0     H99080   3.827   1.275   9.429 -2.7179 -0.4224  0.6652
  751MOL0     H99081   3.749   1.054   9.324 -1.9694  0.3225  0.4197
  751MOL0     H99082   3.631   1.143   9.371  2.7142 -0.5788  2.3733
  751MOL0     H99083   3.609   1.070   9.124  1.2576  0.2713 -0.9886
  751MOL0     H99084   3.733   1.177   9.090  0.8088  2.3522  1.3636
  751MOL0     H99085   3.423   1.240   9.314 -2.2316  0.6475  0.0747
  751MOL0     H99086   3.246   1.555   9.186  2.1233  0.2284  1.5723
  751MOL0     H99087   3.216   1.422   9.297 -2.0696  0.1539 -0.9873
  751MOL0     H99088   3.162   1.398   8.996 -0.2990 -2.1398 -0.3064
  751MOL0     H99089   3.045   1.445   9.120  0.8074 -0.3023  1.8745
  751MOL0     H99090   3.202   1.177   9.058 -1.6921 -1.6367  1.2028
  751MOL0     H99091   3.162   1.207   9.221 -0.4489  3.3226  0.6203
  751MOL0     H99092   2.990   1.072   9.087  0.6029  0.2613  1.2048
  751MOL0     H99093   2.966   1.217   8.980 -1.3427  0.1882  0.3957
  751MOL0     H99094   2.702   1.262   9.341  2.8324 -0.5236 -1.1479
  751MOL0     H99095   2.466   1.206   9.334  0.1008  0.0586 -0.5752
  751MOL0     H99096   2.129   1.190   8.860 -0.3171  0.0881 -1.2800
  751MOL0     H99097   1.863   1.162   8.818  0.2822  0.3318 -0.6557
  751MOL0     H99098   1.642   1.084   8.835  1.3823 -2.3897 -1.1142
  751MOL0     H99099   1.653   1.126   9.004 -1.8448 -1.6333  0.9830
  751MOL0     H99100   1.442   1.074   9.033 -1.3845 -3.1838  2.9934
  751MOL0     H99101   1.520   0.923   9.062 -1.0926 -2.2208 -1.0897
  751MOL0     H99102   1.330   0.890   8.922  0.5052 -0.2340  1.6896
  751MOL0     H99103   1.469   0.885   8.807 -0.9454  2.7275 -2.6348
  751MOL0     H99104   1.298   1.121   8.840  1.1370  0.1142  1.1268
  751MOL0     H99105   1.451   1.104   8.744  1.0587 -2.4811 -1.1872
  751MOL0     H99106   1.354   0.921   8.606  2.6475  0.0758  1.5181
  751MOL0     H99107   1.285   1.087   8.588  0.1155  2.1353  2.3133
  751MOL0     H99108   1.103   1.052   8.691  1.3439  0.3664  0.6167
  751MOL0     H99109   1.147   0.903   8.783 -1.7977  0.4675 -0.0462
  751MOL0     H99110   1.116   0.915   8.482 -1.0412 -2.3761 -1.4897
  751MOL0     H99111   1.116   0.771   8.586 -0.6061 -1.1243 -0.5325
  751MOL0     H99112   0.911   0.852   8.705 -0.1545  3.4529  1.6112
  751MOL0     H99113   0.885   0.785   8.546  1.3679 -1.8543  0.4425
  751MOL0     H99114   1.901   0.804   9.061 -0.1086  0.1033  0.1932
  751MOL0     H99115   2.132   0.838   9.093 -2.8052 -2.1506 -0.3588
  751MOL0     H99116   2.522   1.106   8.915  1.0959  1.4449 -1.3942
  751MOL0     H99117   2.760   1.162   8.933  0.9144  0.8142  1.9216
  751MOL0     H99118   4.243   1.824   9.280 -0.6115 -2.6122 -1.4084
  751MOL0     H99119   4.342   2.029   9.228 -0.7024 -0.5156 -4.6918
  751MOL0     H99120   4.416   2.417   9.016  1.7403  2.2547 -3.4878
  751MOL0     H99121   4.536   2.632   8.995 -1.6888 -0.0615  1.5420
  751MOL0     H99122   4.925   2.698   9.213 -1.8647 -0.4015  0.2749
  751MOL0     H99123   4.875   2.840   9.114 -0.4273  0.0888 -1.1592
  751MOL0     H99124   5.090   2.712   9.033 -0.5151 -1.5712  1.7318
  751MOL0     H99125   4.982   2.583   8.977 -1.2490 -0.9022  0.5559
  751MOL0     H99126   5.001   2.883   8.901 -0.8228 -0.2235 -0.1212
  751MOL0     H99127   4.880   2.764   8.843  0.1979 -2.5738  0.6361
  751MOL0     H99128   5.044   2.819   8.674 -1.4228 -1.9694 -1.6845
  751MOL0     H99129   5.183   2.777   8.785  0.1249 -2.7291  2.0778
  751MOL0     H99130   5.016   2.395   8.678  1.8042 -0.0048 -0.6073
  751MOL0     H99131   4.876   2.455   9.195  0.9681  1.7637 -0.3768
  751MOL0     H99132   4.775   2.262   9.210  1.0856  2.3203  1.3042
  752MOL0     O99133   3.120   5.024   6.449  0.5940  0.0445  0.2549
  752MOL0     C99134   3.090   4.914   6.498 -0.0537 -0.6356 -0.5329
  752MOL0     O99135   3.183   4.812   6.518  0.0514 -0.3892 -0.7620
  752MOL0     C99136   3.317   4.826   6.479  0.4746 -0.5423  0.2721
  752MOL0     C99137   3.366   4.776   6.362  0.2292 -0.1625 -0.3116
  752MOL0     C99138   3.509   4.782   6.331  0.3137  0.3670  0.2671
  752MOL0     C99139   3.591   4.842   6.425 -0.6849  0.4586  0.1149
  752MOL0     O99140   3.731   4.846   6.418 -0.0147  0.5933 -0.0341
  752MOL0     C99141   3.801   4.808   6.307 -0.3394 -0.5700  0.6334
  752MOL0     C99142   3.945   4.859   6.325  0.9935  0.1225 -0.1589
  752MOL0     C99143   4.019   4.812   6.453 -0.6285  0.8461  0.4357
  752MOL0     C99144   4.135   4.905   6.477  0.1103  0.2230 -0.0434
  752MOL0     C99145   4.210   4.874   6.601 -1.1773 -0.5675 -0.1845
  752MOL0     C99146   4.356   4.928   6.616  0.4012  0.3048 -0.0384
  752MOL0     C99147   4.425   4.895   6.744  0.6565  0.7426 -0.0745
  752MOL0     C99148   4.365   4.956   6.868 -0.0411 -0.9870  0.1218
  752MOL0     N99149   4.324   5.094   6.855  0.0231  0.3833  0.3532
  752MOL0     C99150   4.198   5.139   6.841 -0.2388 -0.6639 -0.1616
  752MOL0     C99151   4.210   5.278   6.825  0.5185 -0.3442 -0.0736
  752MOL0     C99152   4.107   5.376   6.800  0.4935 -0.4262 -0.4505
  752MOL0     C99153   3.965   5.322   6.839  0.1387  0.7599 -0.2473
  752MOL0     C99154   3.905   5.249   6.722 -0.8371  0.4418  0.2177
  752MOL0     C99155   3.772   5.161   6.754  0.3438  0.2021  0.7029
  752MOL0     O99156   3.686   5.234   6.849 -0.8446  0.0792  0.3928
  752MOL0     C99157   3.556   5.206   6.839  0.2718  0.4466 -1.1440
  752MOL0     C99158   3.488   5.121   6.933  0.0691 -0.1385 -0.5075
  752MOL0     C99159   3.353   5.097   6.919  0.5953 -0.9967  0.1030
  752MOL0     C99160   3.285   5.163   6.813  0.4525  0.3086 -0.2712
  752MOL0     C99161   3.129   5.164   6.815 -0.2870 -0.3195  0.3678
  752MOL0     O99162   3.070   5.176   6.932  0.4114 -0.5204 -0.3222
  752MOL0     C99163   2.932   5.187   6.957  0.3226  0.2044  0.7908
  752MOL0     C99164   2.883   5.283   7.049 -0.3139  0.3969 -0.2307
  752MOL0     C99165   2.743   5.308   7.074 -0.0332  0.5656 -0.3485
  752MOL0     C99166   2.650   5.241   6.993 -0.1854 -0.7302 -0.0408
  752MOL0     O99167   2.515   5.257   7.001  0.4915  0.5361 -0.0657
  752MOL0     C99168   2.463   5.274   7.133 -0.1421  0.4121  0.2540
  752MOL0     C99169   2.358   5.385   7.134  0.7080 -0.4564 -0.1377
  752MOL0     C99170   2.391   5.523   7.078 -0.5578  0.0925 -0.4942
  752MOL0     C99171   2.273   5.625   7.090  0.3025  0.0854  0.6671
  752MOL0     C99172   2.153   5.587   7.013  0.1928  0.0602  0.6419
  752MOL0     C99173   2.039   5.689   7.026 -0.3059 -0.9260 -0.4123
  752MOL0     C99174   1.902   5.633   6.970  0.2554  0.1437  0.2300
  752MOL0     C99175   1.903   5.626   6.814 -0.0506  0.3101 -0.1840
  752MOL0    Cl99176   1.915   5.449   6.771  0.0111  0.0003 -0.0699
  752MOL0     C99177   2.697   5.142   6.903 -0.7734  0.8235  0.7020
  752MOL0     C99178   2.835   5.111   6.881  0.6420 -0.7771 -0.0838
  752MOL0     O99179   3.072   5.181   6.704 -0.0408 -0.5877 -0.5824
  752MOL0     C99180   3.350   5.237   6.719 -0.5159  1.0789 -0.3576
  752MOL0     C99181   3.488   5.260   6.730  0.2044  0.8686  0.6170
  752MOL0     N99182   4.347   5.307   6.825  0.1331 -0.1378 -0.1230
  752MOL0     N99183   4.414   5.194   6.840 -0.2622  0.5099 -0.3441
  752MOL0     C99184   3.545   4.890   6.543  0.0771  0.3624  0.5362
  752MOL0     C99185   3.406   4.888   6.570 -0.6703  0.4002  0.8209
  752MOL0     C99186   2.948   4.905   6.545  0.0021  0.3887  1.0018
  752MOL0     C99187   2.898   4.793   6.604 -0.8715  0.3954  0.2492
  752MOL0     C99188   2.767   4.776   6.657  0.1300 -0.5891 -0.3901
  752MOL0     C99189   2.684   4.890   6.644  0.2693  0.9471 -0.4468
  752MOL0     O99190   2.546   4.883   6.666  0.4640  0.4929  0.2201
  752MOL0     C99191   2.516   4.783   6.765 -0.6065 -0.1321 -0.0541
  752MOL0     C99192   2.386   4.819   6.835  0.1177  0.4754  0.6658
  752MOL0     C99193   2.377   4.959   6.893 -0.9262 -0.1762  0.0595
  752MOL0     C99194   2.233   4.989   6.937 -0.8049  0.0497 -1.0697
  752MOL0     C99195   2.186   4.890   7.037  0.5490 -0.2455 -0.5181
  752MOL0     C99196   2.129   4.804   7.107 -0.0469 -0.6779 -0.7835
  752MOL0     C99197   2.731   5.002   6.589  0.3807  0.1362 -0.0872
  752MOL0     C99198   2.860   5.017   6.545  0.0374 -0.9296 -0.3794
  752MOL0     H99199   3.302   4.721   6.293 -0.4881 -3.9522  3.0136
  752MOL0     H99200   3.544   4.742   6.237  1.3885 -3.2191  1.9783
  752MOL0     H99201   3.767   4.857   6.215  0.8655 -0.7134  0.0948
  752MOL0     H99202   3.813   4.700   6.297  0.8009 -0.5138  1.2959
  752MOL0     H99203   3.937   4.968   6.325 -2.0742  0.1672 -4.6956
  752MOL0     H99204   4.010   4.842   6.239  2.8324  1.4134  0.8990
  752MOL0     H99205   4.064   4.712   6.445 -3.5555 -0.4920 -0.6412
  752MOL0     H99206   3.950   4.814   6.537 -3.2084  2.6400 -1.5684
  752MOL0     H99207   4.204   4.900   6.392  0.8661  4.0474  0.1865
  752MOL0     H99208   4.107   5.010   6.483  2.4608  0.8088  2.7944
  752MOL0     H99209   4.231   4.766   6.605 -0.7842 -0.4606  1.7648
  752MOL0     H99210   4.155   4.896   6.693 -0.7999  1.7679 -0.4740
  752MOL0     H99211   4.342   5.036   6.605 -3.5637  0.0894  1.2364
  752MOL0     H99212   4.416   4.893   6.532 -0.4837 -1.7077  0.1193
  752MOL0     H99213   4.417   4.786   6.751  0.9371  0.7326  0.0996
  752MOL0     H99214   4.528   4.933   6.738  1.6960 -2.0297 -1.9029
  752MOL0     H99215   4.445   4.948   6.941 -0.8479 -2.6993  0.8814
  752MOL0     H99216   4.280   4.891   6.894 -0.3461 -0.2993  0.8902
  752MOL0     H99217   4.109   5.078   6.837 -1.4713  0.5359  4.0801
  752MOL0     H99218   4.115   5.437   6.710  0.6491  2.7877  1.5669
  752MOL0     H99219   4.128   5.459   6.869 -0.4395  0.9221 -1.7223
  752MOL0     H99220   3.903   5.410   6.859  0.7422  1.2470 -0.4780
  752MOL0     H99221   3.974   5.267   6.933  3.1466  2.8789  0.8856
  752MOL0     H99222   3.882   5.328   6.650  1.5940  0.5618 -0.5469
  752MOL0     H99223   3.969   5.178   6.668 -1.1891  1.3534 -1.4759
  752MOL0     H99224   3.786   5.057   6.785  1.1533  0.2445  0.5086
  752MOL0     H99225   3.725   5.157   6.655  0.2681  1.2334  0.6846
  752MOL0     H99226   3.533   5.089   7.027 -1.9292 -1.6761  0.0091
  752MOL0     H99227   3.287   5.048   6.990 -1.3360 -0.4588 -1.2139
  752MOL0     H99228   2.966   5.334   7.097  2.1984 -0.8640 -2.9025
  752MOL0     H99229   2.706   5.386   7.140  0.9598 -0.6072  1.7057
  752MOL0     H99230   2.537   5.288   7.213  1.8868  0.0927 -1.4824
  752MOL0     H99231   2.417   5.177   7.152  0.5333 -0.4934 -2.2938
  752MOL0     H99232   2.318   5.399   7.235  1.5027  1.7334 -0.0706
  752MOL0     H99233   2.281   5.339   7.071  0.2672  0.3909 -0.2328
  752MOL0     H99234   2.440   5.508   6.982  4.0374  0.5314  1.5220
  752MOL0     H99235   2.470   5.568   7.138 -1.0877  1.6082 -0.8923
  752MOL0     H99236   2.245   5.633   7.196 -2.2802 -3.0483  0.3895
  752MOL0     H99237   2.319   5.722   7.068 -0.9686  0.7399  0.7675
  752MOL0     H99238   2.103   5.496   7.046  1.4369  0.0211  2.5156
  752MOL0     H99239   2.174   5.580   6.906 -0.9218  2.7621  0.1553
  752MOL0     H99240   2.065   5.792   6.998 -0.3124 -0.9226 -0.4046
  752MOL0     H99241   2.024   5.689   7.135 -0.7760 -1.9603 -0.4703
  752MOL0     H99242   1.885   5.534   7.013  1.8336  0.2099  1.0885
  752MOL0     H99243   1.823   5.703   6.998 -0.2144 -0.7250  1.1053
  752MOL0     H99244   1.970   5.697   6.765  0.5923 -1.3619 -1.8574
  752MOL0     H99245   1.801   5.644   6.776 -0.5322 -0.8252  0.5171
  752MOL0     H99246   2.625   5.085   6.845  1.5658 -1.2773 -0.3270
  752MOL0     H99247   2.875   5.037   6.812  1.3613 -0.9673  0.5249
  752MOL0     H99248   3.296   5.282   6.637  2.4859  3.6074 -1.1303
  752MOL0     H99249   3.542   5.306   6.648  1.2973 -0.7690  0.3793
  752MOL0     H99250   3.603   4.940   6.620 -1.1678 -0.5271  2.1059
  752MOL0     H99251   3.355   4.918   6.661 -1.9385  0.2242  0.1951
  752MOL0     H99252   2.969   4.713   6.620 -1.5557 -0.3877 -0.4908
  752MOL0     H99253   2.739   4.680   6.698  0.0823 -1.9150 -3.2810
  752MOL0     H99254   2.591   4.784   6.845 -1.5571  2.5171  0.9022
  752MOL0     H99255   2.519   4.683   6.720  1.0476 -0.8912  1.6006
  752MOL0     H99256   2.300   4.800   6.769  0.9279 -0.3168 -0.1905
  752MOL0     H99257   2.381   4.745   6.915 -2.1530 -1.4734 -1.0953
  752MOL0     H99258   2.413   5.041   6.830 -4.5560  0.8680 -0.9474
  752MOL0     H99259   2.447   4.966   6.977  0.1144 -2.4351 -0.5709
  752MOL0     H99260   2.232   5.093   6.973  0.2831 -0.0524 -0.6812
  752MOL0     H99261   2.162   4.996   6.855 -0.2701  1.8783 -1.4361
  752MOL0     H99262   2.084   4.723   7.160 -1.7966 -0.2750 -1.5475
  752MOL0     H99263   2.669   5.090   6.607  0.9984  0.3185  1.3093
  752MOL0     H99264   2.897   5.113   6.509 -0.7265 -0.4382  0.1192
  753MOL0     O99265   8.506   0.387  11.008  0.0118 -0.1804  0.5085
  753MOL0     C99266   8.557   0.467  11.087 -0.1748  0.5085  0.2045
  753MOL0     O99267   8.536   0.468  11.220  0.3582 -0.0511 -0.2842
  753MOL0     C99268   8.438   0.386  11.269  0.6805 -0.8303  0.5978
  753MOL0     C99269   8.445   0.248  11.275 -0.4471  0.3092 -0.3754
  753MOL0     C99270   8.353   0.162  11.335  0.5143 -1.1504 -0.2627
  753MOL0     C99271   8.234   0.221  11.380 -0.4777 -0.4903 -0.7557
  753MOL0     O99272   8.123   0.156  11.439  1.1066 -0.7122 -0.0340
  753MOL0     C99273   8.146   0.013  11.457 -0.5387  0.0257 -0.4003
  753MOL0     C99274   8.041  -0.042  11.555  0.2629 -0.4196  0.0975
  753MOL0     C99275   7.905  -0.053  11.486 -0.6074  0.0264 -0.2690
  753MOL0     C99276   7.797  -0.089  11.580  1.2638  0.4644  0.0470
  753MOL0     C99277   7.650  -0.078  11.526 -0.1897  0.0726 -0.4297
  753MOL0     C99278   7.575   0.053  11.552 -1.1719  0.4012 -0.3343
  753MOL0     C99279   7.428   0.037  11.504 -0.2963  0.4615 -0.2073
  753MOL0     C99280   7.345   0.157  11.541 -0.3910 -0.3842  0.1214
  753MOL0     N99281   7.206   0.115  11.586  0.4911 -0.9095  0.5341
  753MOL0     C99282   7.177   0.035  11.692  0.0830 -1.0859  0.0330
  753MOL0     C99283   7.042   0.047  11.704 -1.3549  0.1401 -0.4649
  753MOL0     C99284   6.963  -0.001  11.823  0.7826  0.0931 -0.0143
  753MOL0     C99285   6.841  -0.086  11.779 -0.0775 -0.4144 -0.4461
  753MOL0     C99286   6.892  -0.199  11.689  0.3623  0.5407  0.7495
  753MOL0     C99287   6.777  -0.290  11.654  0.2583 -0.4852 -0.5389
  753MOL0     O99288   6.737  -0.354  11.771  0.1935  0.3868  0.1014
  753MOL0     C99289   6.615  -0.415  11.771  0.1183 -0.6925 -0.2913
  753MOL0     C99290   6.553  -0.427  11.888 -0.1148  0.3236 -0.8030
  753MOL0     C99291   6.421  -0.477  11.895 -0.4628 -0.1653  0.5458
  753MOL0     C99292   6.366  -0.541  11.780  0.5798  1.4437 -0.3578
  753MOL0     C99293   6.239  -0.609  11.793  0.5239  0.6984  0.4108
  753MOL0     O99294   6.171  -0.635  11.676 -0.1402  0.3003  0.7569
  753MOL0     C99295   6.053  -0.702  11.677  1.0058  0.1630 -0.5619
  753MOL0     C99296   5.957  -0.670  11.571  0.2979  0.9975 -0.5694
  753MOL0     C99297   5.840  -0.747  11.556 -0.2910  0.8040  0.0219
  753MOL0     C99298   5.802  -0.849  11.645  0.6814 -0.0476 -0.2158
  753MOL0     O99299   5.689  -0.930  11.632 -0.6738  0.4195  0.0591
  753MOL0     C99300   5.674  -0.991  11.505  1.0037 -0.7114  1.1721
  753MOL0     C99301   5.533  -1.049  11.507  0.4440  1.1020  0.4822
  753MOL0     C99302   5.519  -1.170  11.595  0.1409 -0.5996  0.3254
  753MOL0     C99303   5.377  -1.216  11.620  0.4662 -0.4744  0.4516
  753MOL0     C99304   5.376  -1.338  11.717  1.1686 -0.2394  0.9445
  753MOL0     C99305   5.432  -1.322  11.862 -0.4558 -0.1414 -0.0631
  753MOL0     C99306   5.359  -1.399  11.961  0.6169  0.1654  0.0664
  753MOL0     C99307   5.435  -1.429  12.087  0.3666 -0.3531 -1.1916
  753MOL0    Cl99308   5.467  -1.283  12.191  0.1286 -0.2133 -0.3866
  753MOL0     C99309   5.891  -0.876  11.753 -0.6547 -0.1344 -0.2512
  753MOL0     C99310   6.009  -0.794  11.766 -0.3686  0.4857  0.9713
  753MOL0     O99311   6.186  -0.614  11.908 -0.2509 -0.8137 -0.2633
  753MOL0     C99312   6.429  -0.535  11.654 -0.0416 -1.1640 -0.2877
  753MOL0     C99313   6.563  -0.476  11.649  0.2963 -0.8378 -0.8989
  753MOL0     N99314   6.989   0.124  11.599 -0.1754 -0.6577 -0.1373
  753MOL0     N99315   7.089   0.167  11.525 -0.2903  1.0427 -0.2038
  753MOL0     C99316   8.220   0.359  11.373 -0.1510  0.4729 -0.2304
  753MOL0     C99317   8.322   0.438  11.323 -0.6139 -0.5263  0.8972
  753MOL0     C99318   8.653   0.563  11.026  0.0708 -0.4144  0.1617
  753MOL0     C99319   8.667   0.689  11.078 -0.0042 -0.3027  0.2848
  753MOL0     C99320   8.759   0.778  11.022  0.1941  1.2270 -0.0884
  753MOL0     C99321   8.845   0.734  10.922 -0.4025  0.0863 -0.1795
  753MOL0     O99322   8.940   0.816  10.866 -0.6175 -0.4450  0.1608
  753MOL0     C99323   9.034   0.768  10.772  0.4579  0.8455 -0.3997
  753MOL0     C99324   9.135   0.875  10.753 -0.6549  0.0128 -0.0814
  753MOL0     C99325   9.240   0.816  10.647 -0.7008 -0.2527  0.2931
  753MOL0     C99326   9.344   0.930  10.601  1.0449  0.3783 -1.0680
  753MOL0     C99327   9.451   0.873  10.527  0.2589 -0.6273  0.4923
  753MOL0     C99328   9.542   0.836  10.455  0.2762  0.2274  0.3015
  753MOL0     C99329   8.837   0.603  10.880  0.1832  0.3186  0.4918
  753MOL0     C99330   8.738   0.520  10.923 -0.1222  0.2995 -0.3121
  753MOL0     H99331   8.532   0.195  11.237  1.0347  1.8510  0.6462
  753MOL0     H99332   8.376   0.056  11.328  2.7672 -1.0609  3.5570
  753MOL0     H99333   8.245  -0.015  11.495  0.2320 -1.9608 -3.5316
  753MOL0     H99334   8.129  -0.032  11.359  0.8700  1.0623 -1.1662
  753MOL0     H99335   8.033   0.025  11.641  0.1781  1.7248 -1.5190
  753MOL0     H99336   8.075  -0.137  11.599  0.3953  0.2303  1.4559
  753MOL0     H99337   7.917  -0.137  11.417  0.6661 -0.2699  0.2733
  753MOL0     H99338   7.887   0.032  11.420 -0.5498 -0.9393 -1.5648
  753MOL0     H99339   7.820  -0.193  11.604  3.1487  1.1822  1.5493
  753MOL0     H99340   7.790  -0.035  11.675 -0.4932  1.6793 -0.7173
  753MOL0     H99341   7.594  -0.158  11.575 -1.8644  1.8024  0.6313
  753MOL0     H99342   7.647  -0.108  11.421 -3.1158 -0.6644 -0.2139
  753MOL0     H99343   7.615   0.137  11.494  1.4670  0.1871  1.0215
  753MOL0     H99344   7.580   0.085  11.657 -2.0567 -0.8832  0.1203
  753MOL0     H99345   7.436   0.040  11.395  1.6186 -0.0849 -0.1194
  753MOL0     H99346   7.379  -0.055  11.535 -1.2844  1.2828  0.7439
  753MOL0     H99347   7.347   0.231  11.460 -1.6312  0.4726  0.8470
  753MOL0     H99348   7.398   0.212  11.619 -0.4465  0.0065 -0.1085
  753MOL0     H99349   7.248  -0.013  11.759  1.1444  1.4683  0.8630
  753MOL0     H99350   6.942   0.090  11.879  1.0521 -1.3607  2.6037
  753MOL0     H99351   7.023  -0.068  11.885 -0.5181 -2.1248 -1.0184
  753MOL0     H99352   6.773  -0.018  11.727 -0.8064  0.4803  1.5460
  753MOL0     H99353   6.784  -0.123  11.865 -2.9207  1.1818 -1.4824
  753MOL0     H99354   6.936  -0.156  11.599  1.0390 -3.0241 -0.7792
  753MOL0     H99355   6.969  -0.260  11.738 -0.5840 -1.2322  0.1133
  753MOL0     H99356   6.823  -0.360  11.585  0.5119 -0.6246 -0.2295
  753MOL0     H99357   6.690  -0.239  11.610 -0.6120 -0.0940  1.5086
  753MOL0     H99358   6.613  -0.394  11.972  1.9675  1.1484 -2.5261
  753MOL0     H99359   6.367  -0.473  11.989 -2.8192 -0.1236 -0.7363
  753MOL0     H99360   5.980  -0.596  11.496 -1.3454  0.8117 -1.2978
  753MOL0     H99361   5.775  -0.722  11.472  1.8813  1.9472 -1.4062
  753MOL0     H99362   5.743  -1.072  11.483 -0.2017 -1.5718  0.4396
  753MOL0     H99363   5.680  -0.923  11.420  2.3418 -3.2116 -0.8714
  753MOL0     H99364   5.511  -1.073  11.403  2.3896  1.0140  0.0559
  753MOL0     H99365   5.465  -0.968  11.535  0.3265  1.9878 -2.1255
  753MOL0     H99366   5.554  -1.134  11.693  1.3015  1.4060 -0.7571
  753MOL0     H99367   5.575  -1.259  11.565  1.1413 -0.2181  0.9883
  753MOL0     H99368   5.319  -1.128  11.648  2.5837  0.4935  2.0488
  753MOL0     H99369   5.325  -1.252  11.531  0.6792 -0.2809  0.2458
  753MOL0     H99370   5.425  -1.424  11.669  0.1439  0.6517 -1.9246
  753MOL0     H99371   5.274  -1.372  11.736  1.1337 -1.1654 -0.6307
  753MOL0     H99372   5.436  -1.216  11.889  1.1318  0.1988 -1.4563
  753MOL0     H99373   5.538  -1.347  11.863 -0.3147  0.3788 -0.9590
  753MOL0     H99374   5.265  -1.355  11.994 -0.0685 -1.6827  0.6829
  753MOL0     H99375   5.334  -1.494  11.914  0.6887  0.5730 -0.8126
  753MOL0     H99376   5.532  -1.474  12.063  1.4590 -0.3051  2.4667
  753MOL0     H99377   5.381  -1.505  12.145 -0.9181  0.3211 -1.4630
  753MOL0     H99378   5.865  -0.960  11.816 -4.8983 -0.2949 -1.8882
  753MOL0     H99379   6.072  -0.821  11.850 -1.1452 -2.2241  0.7512
  753MOL0     H99380   6.389  -0.572  11.560 -4.8112 -0.3279  1.1509
  753MOL0     H99381   6.614  -0.463  11.554  4.2545 -0.8921  0.9923
  753MOL0     H99382   8.132   0.405  11.416 -0.7895 -1.0852  0.1813
  753MOL0     H99383   8.303   0.544  11.309 -0.6643 -0.6472 -0.0375
  753MOL0     H99384   8.601   0.722  11.157 -0.4851  0.2867 -0.3529
  753MOL0     H99385   8.772   0.881  11.054  0.8632  1.6129 -1.5115
  753MOL0     H99386   8.992   0.736  10.677 -1.5002 -0.8103  0.9511
  753MOL0     H99387   9.066   0.673  10.816  0.1680 -1.0885 -4.0471
  753MOL0     H99388   9.093   0.963  10.704  1.9345  1.7732  0.6404
  753MOL0     H99389   9.183   0.902  10.848 -1.3732  0.4281  0.1678
  753MOL0     H99390   9.185   0.791  10.555 -1.8951  3.2423 -0.1129
  753MOL0     H99391   9.290   0.730  10.691 -1.4671 -1.9601 -1.9675
  753MOL0     H99392   9.302   1.009  10.538  0.6178 -0.1269 -1.4185
  753MOL0     H99393   9.385   0.972  10.694  0.0492  0.1745 -0.5249
  753MOL0     H99394   9.620   0.817  10.384  0.7181  1.5708  0.3872
  753MOL0     H99395   8.897   0.557  10.803  0.8709 -2.5750  2.5853
  753MOL0     H99396   8.728   0.420  10.882  0.5926  0.0641  0.0764
  754MOL0     O99397   0.342   4.240  10.736  0.3222 -0.0365  0.3576
  754MOL0     C99398   0.419   4.313  10.803 -1.0298  0.2012  0.3759
  754MOL0     O99399   0.394   4.434  10.868  0.3852  0.7365  0.2583
  754MOL0     C99400   0.277   4.497  10.831  0.5978  0.7148 -0.4136
  754MOL0     C99401   0.247   4.531  10.699  0.0524 -0.2609  0.5829
  754MOL0     C99402   0.128   4.599  10.670 -0.3717 -0.4191  0.8834
  754MOL0     C99403   0.055   4.647  10.780  0.4673 -0.3581  0.8373
  754MOL0     O99404  -0.043   4.742  10.769  0.1655 -0.1106  0.2590
  754MOL0     C99405  -0.136   4.743  10.667 -0.4452 -0.4701 -0.3444
  754MOL0     C99406  -0.278   4.775  10.727 -0.8110 -0.4958  0.2805
  754MOL0     C99407  -0.271   4.875  10.841  0.6563 -0.4474 -1.6373
  754MOL0     C99408  -0.415   4.919  10.889 -0.1690 -0.2638 -0.6433
  754MOL0     C99409  -0.403   5.027  11.004 -0.0095 -0.0479 -0.5320
  754MOL0     C99410  -0.537   5.067  11.069  0.7532  0.7154 -0.7256
  754MOL0     C99411  -0.575   4.962  11.174  0.6870  0.9380 -0.5207
  754MOL0     C99412  -0.701   4.989  11.251 -0.4871 -0.0183 -1.0404
  754MOL0     N99413  -0.821   4.976  11.175  0.1988 -0.6411  0.0878
  754MOL0     C99414  -0.938   5.043  11.191 -0.1835  0.2082  0.3019
  754MOL0     C99415  -1.031   4.971  11.103 -0.6771  0.9163  0.0313
  754MOL0     C99416  -1.178   5.003  11.088  0.4076 -0.1301  0.0627
  754MOL0     C99417  -1.196   5.100  10.974 -0.6974  0.2556 -0.0380
  754MOL0     C99418  -1.350   5.139  10.957 -0.4537 -0.9640  1.0363
  754MOL0     C99419  -1.421   5.200  11.086  0.8533 -0.1345 -1.1725
  754MOL0     O99420  -1.513   5.301  11.048 -0.0325 -0.0760  0.2643
  754MOL0     C99421  -1.645   5.263  11.034  0.4718  0.0919  0.9366
  754MOL0     C99422  -1.700   5.134  11.013  0.0562  0.8176  0.2558
  754MOL0     C99423  -1.838   5.102  11.009  0.5332  0.0052  0.7430
  754MOL0     C99424  -1.922   5.217  11.007 -0.6185 -1.3555  0.0634
  754MOL0     C99425  -2.066   5.208  11.008 -0.1120 -0.3471  0.0238
  754MOL0     O99426  -2.144   5.303  10.938 -0.9289 -0.7045  0.1919
  754MOL0     C99427  -2.281   5.307  10.926 -0.3099 -0.1845  0.0246
  754MOL0     C99428  -2.331   5.424  10.865 -0.2073  0.5792 -0.1123
  754MOL0     C99429  -2.467   5.431  10.822 -0.6600 -0.3994 -0.8271
  754MOL0     C99430  -2.556   5.327  10.842  0.3888 -1.7033  0.0055
  754MOL0     O99431  -2.688   5.331  10.802  0.0110 -0.3853 -0.4916
  754MOL0     C99432  -2.733   5.439  10.721  0.2361  0.2274 -0.1380
  754MOL0     C99433  -2.864   5.421  10.656  0.3486  0.3056 -0.1722
  754MOL0     C99434  -2.986   5.426  10.750 -1.2755  0.5224 -0.0247
  754MOL0     C99435  -3.119   5.402  10.700 -0.9205 -0.4789 -0.5043
  754MOL0     C99436  -3.222   5.404  10.815 -0.1069 -0.0470  0.2710
  754MOL0     C99437  -3.261   5.548  10.858 -0.3704  0.0951  0.3263
  754MOL0     C99438  -3.386   5.553  10.944  0.5604 -0.1201  0.7236
  754MOL0     C99439  -3.433   5.696  10.948  0.7662  0.4454  0.4658
  754MOL0    Cl99440  -3.323   5.830  11.016  0.4027  0.2976 -0.1060
  754MOL0     C99441  -2.506   5.211  10.907 -0.1179 -0.2804  1.0173
  754MOL0     C99442  -2.370   5.199  10.937  0.0697  0.0928  0.0939
  754MOL0     O99443  -2.116   5.124  11.082 -0.2946  0.3714 -0.0378
  754MOL0     C99444  -1.876   5.348  11.002 -0.9967 -0.5535 -0.3428
  754MOL0     C99445  -1.734   5.365  11.024 -0.8506 -1.0733  0.5111
  754MOL0     N99446  -0.956   4.869  11.044 -0.6579  0.0860  0.2637
  754MOL0     N99447  -0.838   4.871  11.089 -0.5027 -0.3781  0.3379
  754MOL0     C99448   0.080   4.613  10.910  0.4485 -0.0424 -0.1936
  754MOL0     C99449   0.190   4.537  10.930 -0.4979 -0.2641 -0.0744
  754MOL0     C99450   0.550   4.249  10.832  1.1075 -0.0393  0.6423
  754MOL0     C99451   0.632   4.305  10.929 -1.0166  0.8775  0.1044
  754MOL0     C99452   0.759   4.252  10.946  0.2781  0.8362 -0.1397
  754MOL0     C99453   0.802   4.133  10.881 -0.8119 -0.2171  0.1174
  754MOL0     O99454   0.916   4.058  10.919  0.5191  0.6204 -0.0839
  754MOL0     C99455   0.983   4.095  11.040 -0.1848  0.6574  0.4865
  754MOL0     C99456   1.078   3.977  11.063 -0.5871 -0.4162 -0.1374
  754MOL0     C99457   1.186   4.014  11.165  0.0037 -0.3470 -0.3688
  754MOL0     C99458   1.274   3.899  11.204 -1.0182  0.1768 -0.5930
  754MOL0     C99459   1.194   3.785  11.260 -0.2979  0.2440 -0.8446
  754MOL0     C99460   1.141   3.692  11.319  0.4723 -1.0515 -0.1740
  754MOL0     C99461   0.730   4.093  10.771  0.2894 -0.3835 -0.7681
  754MOL0     C99462   0.604   4.148  10.749 -1.3921 -0.3017  1.3049
  754MOL0     H99463   0.302   4.507  10.609  0.8795 -2.7134  1.6494
  754MOL0     H99464   0.111   4.612  10.563 -0.2782 -0.0994  0.9060
  754MOL0     H99465  -0.125   4.652  10.607 -0.9718 -0.8036  0.0558
  754MOL0     H99466  -0.101   4.825  10.604 -1.2855  0.1981  0.0404
  754MOL0     H99467  -0.328   4.684  10.761 -0.4285 -0.9155 -0.2610
  754MOL0     H99468  -0.327   4.830  10.646  1.9678 -1.2389 -2.0743
  754MOL0     H99469  -0.206   4.955  10.804  3.4700 -1.4460  0.7869
  754MOL0     H99470  -0.221   4.830  10.926 -2.0492  0.2444  0.4546
  754MOL0     H99471  -0.470   4.957  10.802  1.4231 -2.2483 -2.6561
  754MOL0     H99472  -0.475   4.832  10.917  0.1509  0.3209  2.0743
  754MOL0     H99473  -0.358   5.119  10.968  0.8204  0.0178  0.6074
  754MOL0     H99474  -0.338   4.983  11.081 -2.2642 -0.6420  1.1648
  754MOL0     H99475  -0.621   5.069  11.000 -0.8273  1.1735  1.1334
  754MOL0     H99476  -0.528   5.166  11.115  2.8864 -0.2835  1.2277
  754MOL0     H99477  -0.566   4.859  11.140  0.9886 -0.0114  2.1980
  754MOL0     H99478  -0.497   4.978  11.249  0.1558 -0.6151  0.4049
  754MOL0     H99479  -0.691   5.093  11.286  1.3354  0.4150 -2.6794
  754MOL0     H99480  -0.716   4.925  11.339 -2.8970  2.8368  0.8334
  754MOL0     H99481  -0.969   5.125  11.256  0.2615 -0.5498  1.5180
  754MOL0     H99482  -1.210   5.055  11.179  0.3724  1.7415 -0.9790
  754MOL0     H99483  -1.239   4.917  11.059 -0.0461  0.8370 -2.0738
  754MOL0     H99484  -1.167   5.061  10.875 -1.2368 -0.2842  0.0091
  754MOL0     H99485  -1.131   5.185  10.995 -1.2850 -0.0282  3.4327
  754MOL0     H99486  -1.352   5.217  10.881 -2.5607  0.1024  2.0989
  754MOL0     H99487  -1.415   5.054  10.933 -0.5912 -0.3691 -0.8146
  754MOL0     H99488  -1.346   5.241  11.155  2.4664 -2.1303 -1.6316
  754MOL0     H99489  -1.460   5.112  11.137  2.9091 -0.4925 -0.1258
  754MOL0     H99490  -1.636   5.046  11.014  0.1179  0.8070 -1.7656
  754MOL0     H99491  -1.867   4.997  11.019  1.0941 -0.1079  1.2431
  754MOL0     H99492  -2.254   5.499  10.848  2.4917 -1.6542  1.3222
  754MOL0     H99493  -2.492   5.516  10.760  1.2378  1.2517  0.5356
  754MOL0     H99494  -2.656   5.461  10.646  1.2086 -0.7738  0.5342
  754MOL0     H99495  -2.740   5.530  10.783 -0.0651 -0.0949  0.3055
  754MOL0     H99496  -2.859   5.332  10.593 -1.5765  0.0109  0.0092
  754MOL0     H99497  -2.886   5.508  10.593 -3.5436 -0.2486  0.1237
  754MOL0     H99498  -2.987   5.525  10.797  0.6254  1.4341 -1.7293
  754MOL0     H99499  -2.949   5.354  10.823  0.3932  1.6814  0.3361
  754MOL0     H99500  -3.150   5.471  10.621  1.3991  1.7836  0.3724
  754MOL0     H99501  -3.112   5.302  10.658 -1.1142 -0.1989 -1.2080
  754MOL0     H99502  -3.195   5.343  10.901 -3.1451 -0.9434  0.7181
  754MOL0     H99503  -3.313   5.352  10.783 -0.7965  2.3943 -2.1325
  754MOL0     H99504  -3.278   5.594  10.761 -0.9857  2.4814  1.5003
  754MOL0     H99505  -3.174   5.598  10.901  0.4779 -1.4787  0.5439
  754MOL0     H99506  -3.467   5.496  10.897  0.5839  2.2758 -2.6425
  754MOL0     H99507  -3.371   5.503  11.040 -1.4647  0.0253  1.1586
  754MOL0     H99508  -3.520   5.690  11.013  1.5615  0.7776  1.5882
  754MOL0     H99509  -3.460   5.711  10.843 -1.1890 -1.5596  0.6103
  754MOL0     H99510  -2.573   5.125  10.918 -3.5351  2.1580  0.9300
  754MOL0     H99511  -2.341   5.096  10.956 -0.4893 -0.2219 -0.6914
  754MOL0     H99512  -1.946   5.431  11.003  0.7347  0.9692  1.4642
  754MOL0     H99513  -1.695   5.466  11.034 -0.5904 -1.2309  1.1427
  754MOL0     H99514   0.030   4.642  11.001  0.8956  2.1281 -0.5935
  754MOL0     H99515   0.213   4.507  11.032  0.6230  0.2414 -0.1614
  754MOL0     H99516   0.595   4.383  10.996 -0.6401  2.4806 -1.4766
  754MOL0     H99517   0.817   4.302  11.023 -1.4383 -0.3930  2.0755
  754MOL0     H99518   0.919   4.105  11.128  0.0789 -2.5550  1.1478
  754MOL0     H99519   1.044   4.186  11.031 -0.9845  1.0296 -1.9902
  754MOL0     H99520   1.026   3.886  11.096 -0.6921 -0.2704  0.0976
  754MOL0     H99521   1.134   3.951  10.973 -0.4470  0.4308 -0.3009
  754MOL0     H99522   1.144   4.066  11.252 -0.1985  0.4763 -0.9472
  754MOL0     H99523   1.253   4.091  11.127  2.3896 -1.8657  0.5530
  754MOL0     H99524   1.343   3.857  11.130 -0.1160 -0.0055  0.3240
  754MOL0     H99525   1.337   3.937  11.286 -1.7059 -3.6518  1.9992
  754MOL0     H99526   1.100   3.605  11.368 -0.4149 -1.0848 -0.9453
  754MOL0     H99527   0.770   4.013  10.709 -1.6715 -0.3807 -2.1559
  754MOL0     H99528   0.543   4.123  10.663 -0.2921  1.5845 -0.0794
  755MOL0     O99529   2.816   1.502   8.609  0.1635 -0.3302  0.6955
  755MOL0     C99530   2.791   1.620   8.609 -0.2039  0.4257 -0.5468
  755MOL0     O99531   2.882   1.713   8.575 -0.3964  0.3040 -0.0278
  755MOL0     C99532   3.019   1.687   8.594 -0.2492  0.1086  0.7589
  755MOL0     C99533   3.081   1.629   8.706  1.1571  0.1150  1.0149
  755MOL0     C99534   3.217   1.600   8.705 -0.1399 -0.0660 -0.4104
  755MOL0     C99535   3.294   1.627   8.586  0.0530  0.3494  0.7598
  755MOL0     O99536   3.418   1.583   8.558 -0.1384  0.6458 -0.0688
  755MOL0     C99537   3.508   1.562   8.666  0.2750 -0.1683 -0.1760
  755MOL0     C99538   3.646   1.551   8.613 -1.0899 -0.0568 -0.8771
  755MOL0     C99539   3.739   1.539   8.738 -0.6929 -0.3109 -0.6657
  755MOL0     C99540   3.883   1.507   8.696 -0.0781 -0.7235 -0.2486
  755MOL0     C99541   3.980   1.485   8.816 -0.1500 -0.4629 -0.3832
  755MOL0     C99542   3.987   1.603   8.916 -0.0331 -1.5789  0.3724
  755MOL0     C99543   4.114   1.607   8.993 -0.9997  0.2671 -0.5592
  755MOL0     C99544   4.237   1.636   8.916  0.2252 -0.5147  0.1852
  755MOL0     N99545   4.230   1.754   8.821 -0.1493  0.1496 -0.4571
  755MOL0     C99546   4.251   1.884   8.853  0.1543  0.3236  0.4068
  755MOL0     C99547   4.222   1.954   8.740  0.0641  0.8329 -0.5231
  755MOL0     C99548   4.238   2.105   8.728 -0.3881  0.1828 -0.4791
  755MOL0     C99549   4.110   2.175   8.758  0.1126 -0.9657 -0.3166
  755MOL0     C99550   4.085   2.310   8.695 -0.3162  0.1592  0.6276
  755MOL0     C99551   3.981   2.396   8.766  0.5909  0.3539 -0.8670
  755MOL0     O99552   3.861   2.321   8.745 -0.2807 -0.4857 -0.1910
  755MOL0     C99553   3.748   2.373   8.803 -0.3782 -0.0879  0.6232
  755MOL0     C99554   3.630   2.385   8.728 -0.2405  0.4713 -0.1125
  755MOL0     C99555   3.504   2.421   8.783  0.0445 -0.1919 -0.6463
  755MOL0     C99556   3.499   2.455   8.924  0.6202 -0.9131  0.1519
  755MOL0     C99557   3.372   2.502   9.000  1.1539  0.3953 -0.2588
  755MOL0     O99558   3.251   2.489   8.938  0.0225  0.5370 -0.3226
  755MOL0     C99559   3.133   2.555   8.987 -0.9244 -0.2251  0.5567
  755MOL0     C99560   3.031   2.471   9.024  0.7674 -0.4831 -0.0285
  755MOL0     C99561   2.914   2.516   9.084 -0.7398  0.1704  0.1337
  755MOL0     C99562   2.906   2.649   9.122  0.0205  0.0534 -0.7774
  755MOL0     O99563   2.794   2.685   9.196  0.7716 -0.7750 -0.3638
  755MOL0     C99564   2.813   2.698   9.338  0.5310 -0.1887 -0.0595
  755MOL0     C99565   2.815   2.569   9.416  0.2758  0.5989  0.4905
  755MOL0     C99566   2.691   2.476   9.413 -0.8466 -0.8765 -0.6314
  755MOL0     C99567   2.563   2.547   9.461 -0.1700  0.3330  0.2471
  755MOL0     C99568   2.448   2.444   9.460 -0.0323  0.0294 -0.0504
  755MOL0     C99569   2.327   2.523   9.515  0.0943  0.0588 -0.9209
  755MOL0     C99570   2.227   2.430   9.594 -0.0913  0.4006 -0.4825
  755MOL0     C99571   2.155   2.347   9.499  0.1198  0.0856  0.0457
  755MOL0    Cl99572   2.015   2.267   9.585  0.2876  0.1476 -0.2447
  755MOL0     C99573   3.002   2.741   9.084  0.2105 -0.4299 -0.3039
  755MOL0     C99574   3.120   2.692   9.021 -0.4981 -1.0026 -0.2072
  755MOL0     O99575   3.390   2.556   9.104 -0.0794 -0.7226 -0.3707
  755MOL0     C99576   3.625   2.457   8.993 -1.0625 -0.0091 -0.4668
  755MOL0     C99577   3.742   2.411   8.942 -0.7190  0.2745  0.2336
  755MOL0     N99578   4.192   1.865   8.643 -0.0795  0.1870 -0.3041
  755MOL0     N99579   4.189   1.746   8.698 -1.1914 -0.0608  0.2071
  755MOL0     C99580   3.230   1.694   8.481 -1.0757  0.4494 -0.1652
  755MOL0     C99581   3.095   1.730   8.484  0.0482 -0.0263  0.0252
  755MOL0     C99582   2.656   1.666   8.603  0.6575  1.0685 -0.5957
  755MOL0     C99583   2.554   1.578   8.647  1.0724 -0.4503  0.4409
  755MOL0     C99584   2.416   1.614   8.649 -0.2852 -0.4015  0.1853
  755MOL0     C99585   2.380   1.743   8.601  0.5867  0.2868  0.6809
  755MOL0     O99586   2.241   1.775   8.597 -0.2735  0.1332  0.0060
  755MOL0     C99587   2.197   1.907   8.557 -0.2053  0.4565 -0.6801
  755MOL0     C99588   2.038   1.922   8.578 -0.8275  0.8095  0.5393
  755MOL0     C99589   2.014   1.988   8.723  0.4235  1.1296 -0.5339
  755MOL0     C99590   1.858   2.012   8.749  0.0054 -0.0978 -0.0843
  755MOL0     C99591   1.772   1.923   8.673 -1.2782 -0.1348  0.2798
  755MOL0     C99592   1.694   1.853   8.606 -0.1112 -0.2690 -0.3403
  755MOL0     C99593   2.482   1.838   8.571  0.7150 -0.0754  0.1756
  755MOL0     C99594   2.614   1.796   8.573 -0.0748 -0.3170  0.8670
  755MOL0     H99595   3.021   1.599   8.791 -0.9808 -0.4496 -0.6136
  755MOL0     H99596   3.268   1.543   8.783  0.4005 -1.5374 -1.7883
  755MOL0     H99597   3.476   1.479   8.729 -0.4027  0.9095  0.9591
  755MOL0     H99598   3.497   1.645   8.737 -2.9225  0.1902 -0.9375
  755MOL0     H99599   3.669   1.646   8.564 -0.1739  0.1430 -0.0750
  755MOL0     H99600   3.661   1.462   8.551  2.6332  0.7974 -1.3910
  755MOL0     H99601   3.717   1.450   8.799 -3.6842  1.0519  0.3963
  755MOL0     H99602   3.727   1.624   8.805 -2.9144  0.2983 -1.7716
  755MOL0     H99603   3.877   1.419   8.632 -1.9013 -1.2885  0.6273
  755MOL0     H99604   3.932   1.588   8.642  0.9139 -0.2710  1.2589
  755MOL0     H99605   4.077   1.476   8.767 -0.6071 -2.4595 -1.0259
  755MOL0     H99606   3.959   1.397   8.877  2.1829  0.2707  1.6246
  755MOL0     H99607   3.904   1.606   8.988 -0.9279  0.6806 -0.6475
  755MOL0     H99608   3.994   1.697   8.860  1.3982 -0.8822  1.6261
  755MOL0     H99609   4.100   1.673   9.079  0.0817 -1.6640  1.2311
  755MOL0     H99610   4.126   1.512   9.048  1.2285  1.1877  0.7114
  755MOL0     H99611   4.266   1.547   8.860  1.2760 -0.4058  0.5299
  755MOL0     H99612   4.314   1.650   8.993  0.5884  0.8364 -0.3938
  755MOL0     H99613   4.296   1.922   8.945  0.1009 -0.2884  0.6885
  755MOL0     H99614   4.254   2.137   8.625 -2.3075 -1.1466 -1.2337
  755MOL0     H99615   4.319   2.136   8.795 -0.6184  1.2719 -0.6819
  755MOL0     H99616   4.107   2.185   8.867  0.7099  1.4286 -0.4584
  755MOL0     H99617   4.020   2.117   8.736 -1.2122  1.2725 -1.1668
  755MOL0     H99618   4.183   2.358   8.703 -0.1058 -0.1667  0.0359
  755MOL0     H99619   4.055   2.295   8.591  2.6529 -3.4304  0.0765
  755MOL0     H99620   3.959   2.491   8.717  0.7186 -0.4250 -2.5234
  755MOL0     H99621   4.002   2.406   8.873 -0.7699  0.0318 -0.5469
  755MOL0     H99622   3.632   2.367   8.621 -1.0595  0.4010 -0.1195
  755MOL0     H99623   3.421   2.431   8.714 -0.3210 -3.3422 -0.8049
  755MOL0     H99624   3.037   2.366   8.997 -0.7878 -0.3036 -1.2591
  755MOL0     H99625   2.839   2.441   9.105 -0.9665  0.4185  0.2145
  755MOL0     H99626   2.734   2.762   9.378 -1.2640 -1.7983 -0.9100
  755MOL0     H99627   2.909   2.748   9.355  0.1535  0.4824  0.1285
  755MOL0     H99628   2.832   2.601   9.520  4.3955 -0.1214  0.2132
  755MOL0     H99629   2.899   2.505   9.386  1.3006  1.9325  0.4295
  755MOL0     H99630   2.709   2.382   9.466 -0.8719  0.5850  2.1230
  755MOL0     H99631   2.680   2.458   9.305  0.9882 -0.1782 -0.9700
  755MOL0     H99632   2.588   2.582   9.562 -0.8134  0.5702  0.3281
  755MOL0     H99633   2.557   2.632   9.392  3.0471 -0.1905 -0.8855
  755MOL0     H99634   2.465   2.357   9.524  1.2352  0.9698  0.9313
  755MOL0     H99635   2.424   2.410   9.359  1.3945  0.9039 -0.7133
  755MOL0     H99636   2.279   2.578   9.434  1.6090  3.4022  0.2800
  755MOL0     H99637   2.361   2.604   9.580  0.6786  0.9324 -2.2737
  755MOL0     H99638   2.261   2.364   9.674 -2.4005 -0.9207 -0.4887
  755MOL0     H99639   2.147   2.489   9.639 -0.3748 -0.4900  0.2074
  755MOL0     H99640   2.214   2.268   9.451 -0.2967 -0.1295 -0.1164
  755MOL0     H99641   2.108   2.410   9.422 -1.2935 -1.7835 -0.6912
  755MOL0     H99642   3.003   2.848   9.102 -0.7760 -0.7690  2.1532
  755MOL0     H99643   3.203   2.755   8.993 -1.1612 -0.5176 -1.1629
  755MOL0     H99644   3.628   2.490   9.097 -3.5762 -2.8256  0.6403
  755MOL0     H99645   3.832   2.407   9.002 -0.3013  2.1718 -0.2124
  755MOL0     H99646   3.300   1.708   8.400  1.4508  0.3575  1.8899
  755MOL0     H99647   3.050   1.787   8.403 -0.1858 -0.1976  0.0347
  755MOL0     H99648   2.593   1.483   8.680  0.4843 -0.7542  0.2780
  755MOL0     H99649   2.337   1.541   8.662  0.6280 -1.2309  1.2160
  755MOL0     H99650   2.225   1.934   8.455 -0.0097  0.2759 -0.6763
  755MOL0     H99651   2.248   1.988   8.610  1.4814 -0.2988 -1.0754
  755MOL0     H99652   2.002   1.988   8.499 -0.3163  1.1043  0.5498
  755MOL0     H99653   1.998   1.821   8.567  1.5946 -0.0984 -0.5419
  755MOL0     H99654   2.087   2.067   8.745  0.8886  0.8715 -1.1196
  755MOL0     H99655   2.044   1.914   8.797  1.6106  0.8016 -1.3138
  755MOL0     H99656   1.833   2.009   8.855 -0.2487 -1.1917 -0.1662
  755MOL0     H99657   1.841   2.116   8.719  1.9692  0.6801  1.3235
  755MOL0     H99658   1.628   1.783   8.560  0.5167  0.7596 -2.9625
  755MOL0     H99659   2.458   1.942   8.552 -1.2126 -0.4714  0.2705
  755MOL0     H99660   2.693   1.870   8.559 -0.6297  0.6423  2.5834
  756MOL0     O99661   8.433   0.711   6.386  0.0276  0.5265 -0.9702
  756MOL0     C99662   8.490   0.684   6.497 -0.0969 -0.0925  0.7128
  756MOL0     O99663   8.472   0.754   6.614  0.0480  0.8203 -0.3353
  756MOL0     C99664   8.413   0.879   6.614 -0.0064 -0.0235  0.2456
  756MOL0     C99665   8.386   0.976   6.512 -0.4524 -0.2738  0.6567
  756MOL0     C99666   8.306   1.088   6.538 -0.0455 -0.1783  0.7884
  756MOL0     C99667   8.248   1.110   6.667 -0.1689 -0.2854  0.8467
  756MOL0     O99668   8.172   1.218   6.697  0.6388  0.2279 -0.5307
  756MOL0     C99669   8.073   1.251   6.591  0.3341  0.0045 -0.2997
  756MOL0     C99670   7.966   1.336   6.662 -0.4933  0.7698  0.0880
  756MOL0     C99671   7.901   1.255   6.774 -0.0544 -0.0359  0.3580
  756MOL0     C99672   7.790   1.346   6.837  0.6432  0.6782  0.5763
  756MOL0     C99673   7.704   1.271   6.945  0.1557 -0.2892  0.1338
  756MOL0     C99674   7.629   1.372   7.032  0.0845  0.5050 -0.1658
  756MOL0     C99675   7.557   1.297   7.152 -1.0692  0.5798 -0.1099
  756MOL0     C99676   7.504   1.412   7.246 -0.1298  0.5141  1.6620
  756MOL0     N99677   7.389   1.490   7.194 -0.8410 -0.0359 -0.5193
  756MOL0     C99678   7.261   1.439   7.168 -1.1583 -0.4256  0.1390
  756MOL0     C99679   7.203   1.549   7.119 -0.5604 -0.0543  0.1502
  756MOL0     C99680   7.053   1.550   7.095  0.5039 -0.1387  0.5610
  756MOL0     C99681   6.986   1.682   7.146  0.1440  0.5731 -0.4109
  756MOL0     C99682   6.838   1.691   7.127  0.0128 -0.0238 -0.3488
  756MOL0     C99683   6.761   1.577   7.197 -1.1665  1.3145 -1.0206
  756MOL0     O99684   6.712   1.482   7.098 -0.0519 -0.4591 -0.2059
  756MOL0     C99685   6.595   1.414   7.136  0.1242  0.7165 -0.2874
  756MOL0     C99686   6.508   1.366   7.039 -0.0106 -0.2632  0.1254
  756MOL0     C99687   6.388   1.309   7.062  0.3518  0.1271  0.4157
  756MOL0     C99688   6.355   1.289   7.194 -0.2991  0.3569 -0.7042
  756MOL0     C99689   6.229   1.219   7.220 -0.6114  0.3519 -0.1195
  756MOL0     O99690   6.160   1.166   7.112 -0.0023  0.6166  0.3929
  756MOL0     C99691   6.027   1.122   7.138 -0.3139 -0.2573  0.0508
  756MOL0     C99692   5.933   1.135   7.031 -0.2707  0.0461 -0.5154
  756MOL0     C99693   5.809   1.066   7.046 -0.2590 -0.9151  0.0748
  756MOL0     C99694   5.776   1.006   7.165  0.6874 -0.0079  0.6670
  756MOL0     O99695   5.648   0.960   7.168 -0.3433 -0.0184  0.0874
  756MOL0     C99696   5.615   0.833   7.229  0.8150  0.0425  0.5701
  756MOL0     C99697   5.474   0.786   7.186  0.3548  0.1715 -0.2100
  756MOL0     C99698   5.462   0.747   7.036  0.0506 -0.7901  0.2930
  756MOL0     C99699   5.345   0.658   7.006 -0.6069 -0.1064 -0.3253
  756MOL0     C99700   5.208   0.680   7.084 -0.3333  0.3085  0.2145
  756MOL0     C99701   5.091   0.605   7.020  0.6278  0.3986  0.2257
  756MOL0     C99702   4.960   0.614   7.102  0.0859  0.6191 -0.4157
  756MOL0     C99703   4.835   0.559   7.024  1.0439 -0.1180 -0.2762
  756MOL0    Cl99704   4.862   0.390   6.971 -0.3051 -0.0593  0.1616
  756MOL0     C99705   5.868   0.994   7.269 -0.1323  0.3009 -0.4933
  756MOL0     C99706   5.993   1.048   7.255 -0.0991  1.1174 -0.4154
  756MOL0     O99707   6.187   1.231   7.333  0.3045 -0.0762  0.1713
  756MOL0     C99708   6.441   1.312   7.298 -0.2242 -0.2318 -1.0649
  756MOL0     C99709   6.559   1.382   7.272 -0.7432 -0.9941 -0.8887
  756MOL0     N99710   7.294   1.654   7.107  0.2150  0.0184 -0.2423
  756MOL0     N99711   7.405   1.615   7.147  0.3183  1.0420  0.3403
  756MOL0     C99712   8.265   1.012   6.767 -0.4203  0.2918  0.0605
  756MOL0     C99713   8.353   0.899   6.742  0.2468  0.9359  0.3010
  756MOL0     C99714   8.591   0.580   6.495 -0.3479  0.3583 -0.3598
  756MOL0     C99715   8.637   0.520   6.375 -0.1458 -0.3435  0.3706
  756MOL0     C99716   8.753   0.432   6.364  0.2681  0.3859 -0.5238
  756MOL0     C99717   8.822   0.395   6.480  0.2212 -1.0108  0.0443
  756MOL0     O99718   8.931   0.309   6.491  0.8079  0.4294  0.6796
  756MOL0     C99719   9.026   0.332   6.390  0.6400  0.0922 -0.7778
  756MOL0     C99720   9.167   0.303   6.441  0.0518 -0.2359 -0.0879
  756MOL0     C99721   9.287   0.332   6.348 -0.1895 -0.2410 -0.6766
  756MOL0     C99722   9.391   0.225   6.367 -0.7461 -0.8079  0.0048
  756MOL0     C99723   9.468   0.259   6.487 -0.0179 -0.1481  0.1977
  756MOL0     C99724   9.541   0.283   6.584 -0.4430 -0.6208  0.6262
  756MOL0     C99725   8.775   0.448   6.603 -0.0363 -0.3282  0.4871
  756MOL0     C99726   8.665   0.537   6.609 -0.2115 -0.3679 -0.1576
  756MOL0     H99727   8.427   0.959   6.413 -2.1174 -2.1944  0.2167
  756MOL0     H99728   8.289   1.158   6.457 -0.8381 -2.7019 -1.3536
  756MOL0     H99729   8.026   1.162   6.547  0.6515 -1.9251  2.9682
  756MOL0     H99730   8.129   1.313   6.520  2.0870  0.7150  1.6094
  756MOL0     H99731   7.899   1.369   6.581 -0.1711  2.6589  0.5416
  756MOL0     H99732   8.016   1.425   6.701 -0.8759  1.6704 -1.4075
  756MOL0     H99733   7.974   1.224   6.849  3.5317 -2.5294 -3.6729
  756MOL0     H99734   7.862   1.163   6.729 -0.3508  1.0012 -1.6087
  756MOL0     H99735   7.830   1.436   6.883  0.4712  1.1995 -0.2615
  756MOL0     H99736   7.719   1.387   6.763  0.3912  1.5442  1.2798
  756MOL0     H99737   7.766   1.205   7.005  1.5608  1.3334  0.5653
  756MOL0     H99738   7.619   1.219   6.899 -2.2195  1.1377  2.6475
  756MOL0     H99739   7.552   1.434   6.986 -0.8636 -0.5038  0.0298
  756MOL0     H99740   7.698   1.441   7.082 -0.3320 -0.1312  1.3206
  756MOL0     H99741   7.468   1.243   7.120 -1.0596  1.5347 -1.8648
  756MOL0     H99742   7.636   1.248   7.210  0.9911  2.7460 -0.9388
  756MOL0     H99743   7.587   1.479   7.271  1.4536  0.0074 -1.6737
  756MOL0     H99744   7.476   1.360   7.339 -0.8335  0.5543  1.4794
  756MOL0     H99745   7.214   1.344   7.190 -3.6338  1.1062  2.1099
  756MOL0     H99746   6.994   1.464   7.130 -2.1373  0.7235 -1.4126
  756MOL0     H99747   7.037   1.541   6.987 -0.7791 -5.0401  0.8827
  756MOL0     H99748   7.035   1.767   7.098  1.8296 -0.5718 -0.7941
  756MOL0     H99749   7.012   1.672   7.252  1.2025  0.8520 -0.6347
  756MOL0     H99750   6.797   1.789   7.155 -0.4489  0.7834 -3.4796
  756MOL0     H99751   6.807   1.687   7.022 -2.2345  2.4223  0.1105
  756MOL0     H99752   6.692   1.632   7.262 -0.6178  0.0777  0.6694
  756MOL0     H99753   6.820   1.515   7.264  1.0552  2.3270 -1.9134
  756MOL0     H99754   6.526   1.372   6.933 -1.3898  1.0879 -0.0660
  756MOL0     H99755   6.325   1.278   6.979  3.2853  0.0350 -1.9433
  756MOL0     H99756   5.958   1.198   6.947  1.5365  3.4988  2.3488
  756MOL0     H99757   5.741   1.090   6.965  0.1478  1.4455  0.3331
  756MOL0     H99758   5.624   0.853   7.336  1.8257  1.5217  0.2387
  756MOL0     H99759   5.689   0.757   7.200  1.5177  0.7516  0.4588
  756MOL0     H99760   5.394   0.856   7.210 -0.2616  0.2703 -2.3867
  756MOL0     H99761   5.464   0.688   7.235 -1.5540  0.5698  0.2768
  756MOL0     H99762   5.556   0.696   7.014  1.5742  2.1551 -0.5777
  756MOL0     H99763   5.455   0.844   6.986  0.3347 -0.3622  1.0682
  756MOL0     H99764   5.329   0.666   6.898 -0.1505  1.2119 -0.3110
  756MOL0     H99765   5.370   0.561   7.049  0.3140 -0.2664 -1.1817
  756MOL0     H99766   5.185   0.787   7.078 -0.5683  0.1976 -1.3177
  756MOL0     H99767   5.211   0.644   7.187 -0.4674 -2.8250 -0.7846
  756MOL0     H99768   5.118   0.499   7.016 -2.2868 -0.4550  0.7697
  756MOL0     H99769   5.082   0.643   6.918  1.7171 -1.7542 -0.7369
  756MOL0     H99770   4.975   0.551   7.190 -1.0801  2.5670  1.2526
  756MOL0     H99771   4.941   0.715   7.138  0.4278  0.0581  1.4899
  756MOL0     H99772   4.832   0.620   6.933  2.3672  2.8038  1.4839
  756MOL0     H99773   4.740   0.582   7.072  1.3674 -0.9559  0.8119
  756MOL0     H99774   5.843   0.936   7.357  1.6051  0.7407  0.3480
  756MOL0     H99775   6.066   1.029   7.333  0.3687  0.0191 -1.1001
  756MOL0     H99776   6.424   1.286   7.402  0.0066  3.7657  0.1510
  756MOL0     H99777   6.626   1.418   7.348 -2.1388  2.9658 -1.3018
  756MOL0     H99778   8.231   1.024   6.870 -0.7314  2.1943 -0.2215
  756MOL0     H99779   8.377   0.826   6.819  0.3735  0.8410  0.1717
  756MOL0     H99780   8.581   0.544   6.285  0.9110 -2.2059 -0.8542
  756MOL0     H99781   8.784   0.386   6.271 -1.4703  0.0425 -0.9526
  756MOL0     H99782   9.027   0.433   6.348  2.6016  1.2630  1.8090
  756MOL0     H99783   9.013   0.271   6.300 -0.6788  0.6370 -0.9838
  756MOL0     H99784   9.180   0.357   6.536  1.2032 -1.4408  0.4716
  756MOL0     H99785   9.165   0.199   6.475  1.9569 -0.2072  0.1820
  756MOL0     H99786   9.325   0.434   6.361  2.2255 -0.8531 -2.3022
  756MOL0     H99787   9.248   0.320   6.246 -2.2270  2.3723 -0.3310
  756MOL0     H99788   9.346   0.127   6.386 -1.1280 -1.0444 -1.9072
  756MOL0     H99789   9.461   0.218   6.282 -0.4089 -0.2789  0.2331
  756MOL0     H99790   9.590   0.300   6.677 -0.6751 -2.5150  1.1178
  756MOL0     H99791   8.836   0.426   6.690  1.5014 -2.3327 -0.9926
  756MOL0     H99792   8.651   0.601   6.696  0.8189  1.4360 -1.2563
  757MOL0     O99793   1.437   1.198   2.391  0.0558 -0.3180 -0.1971
  757MOL0     C99794   1.518   1.259   2.314  0.4840 -0.5265 -0.1378
  757MOL0     O99795   1.493   1.375   2.237  0.5782  0.0771  0.3496
  757MOL0     C99796   1.358   1.399   2.219 -0.0370 -1.2010  0.7277
  757MOL0     C99797   1.296   1.344   2.119 -0.0862 -0.0291 -0.2301
  757MOL0     C99798   1.166   1.370   2.085  0.2098 -0.6094  0.2966
  757MOL0     C99799   1.096   1.461   2.162 -0.0505 -0.2412 -0.8298
  757MOL0     O99800   0.972   1.502   2.115 -0.0951  0.3358 -0.4473
  757MOL0     C99801   0.945   1.649   2.114 -0.5932 -0.3015  0.2071
  757MOL0     C99802   0.793   1.669   2.092 -0.1374  0.5669 -0.2235
  757MOL0     C99803   0.744   1.802   2.053 -0.3940 -0.5679  0.1520
  757MOL0     C99804   0.775   1.912   2.148 -0.1553  0.2869 -0.0821
  757MOL0     C99805   0.660   2.017   2.173 -0.6539 -0.7903 -0.3913
  757MOL0     C99806   0.707   2.139   2.258 -0.1698  0.7837  0.2701
  757MOL0     C99807   0.631   2.273   2.234  0.5034 -0.2872 -0.3300
  757MOL0     C99808   0.499   2.291   2.323 -0.0387  0.7209  0.5605
  757MOL0     N99809   0.412   2.175   2.313  0.0569  0.2478 -0.1008
  757MOL0     C99810   0.310   2.141   2.224  0.5680 -0.6958  0.8745
  757MOL0     C99811   0.250   2.035   2.278  0.6937  0.2840  0.1212
  757MOL0     C99812   0.132   1.989   2.196  0.3994  0.1459  0.6485
  757MOL0     C99813  -0.002   2.049   2.260 -0.6336  0.5703  0.7958
  757MOL0     C99814  -0.108   1.946   2.219  0.2338 -1.1307 -0.1541
  757MOL0     C99815  -0.162   1.968   2.079  0.6747  0.3806 -0.4110
  757MOL0     O99816  -0.265   1.869   2.066  0.0877 -0.1364  0.2133
  757MOL0     C99817  -0.358   1.891   1.970  0.3434 -0.2300  0.2404
  757MOL0     C99818  -0.475   1.964   2.002 -0.1006 -0.2917  0.9429
  757MOL0     C99819  -0.583   1.986   1.915 -0.6527  0.5420 -0.5003
  757MOL0     C99820  -0.577   1.927   1.790 -0.5243  0.8750  0.1791
  757MOL0     C99821  -0.699   1.938   1.703  0.2661  0.2335  0.4189
  757MOL0     O99822  -0.803   2.008   1.742 -0.0511  0.1746 -0.1760
  757MOL0     C99823  -0.916   2.017   1.661 -0.1713  0.7208  0.1064
  757MOL0     C99824  -0.888   2.057   1.529 -0.2633 -0.1348 -0.3806
  757MOL0     C99825  -0.994   2.080   1.444 -0.9604  0.2518  0.4201
  757MOL0     C99826  -1.125   2.056   1.478 -0.3669  0.0916  0.7603
  757MOL0     O99827  -1.234   2.072   1.389  0.2470 -0.2967 -0.4495
  757MOL0     C99828  -1.241   2.195   1.320  0.9281 -0.0249 -0.2934
  757MOL0     C99829  -1.330   2.177   1.195  0.4617  0.3944 -0.2814
  757MOL0     C99830  -1.484   2.174   1.215  0.0633  0.0012 -0.0278
  757MOL0     C99831  -1.524   2.063   1.314  0.5495  0.1608 -0.3964
  757MOL0     C99832  -1.675   2.070   1.340 -0.4944 -0.7110 -0.7292
  757MOL0     C99833  -1.738   2.023   1.209  0.9315  0.6191  0.1158
  757MOL0     C99834  -1.871   1.960   1.240  0.3303  0.2152 -0.1629
  757MOL0     C99835  -1.873   1.818   1.289 -0.6385  0.2111 -0.1357
  757MOL0    Cl99836  -1.824   1.715   1.153  0.2110  0.0411 -0.1050
  757MOL0     C99837  -1.151   2.001   1.609 -0.8434  0.7004 -0.6870
  757MOL0     C99838  -1.045   1.988   1.700  0.7170  0.0500 -1.0595
  757MOL0     O99839  -0.695   1.876   1.600 -0.3612 -0.0725 -0.4004
  757MOL0     C99840  -0.463   1.859   1.748 -0.4625 -0.4234  0.6802
  757MOL0     C99841  -0.348   1.845   1.832  0.7260 -0.1944  0.0444
  757MOL0     N99842   0.309   1.999   2.399  0.7551  1.2189  0.7287
  757MOL0     N99843   0.405   2.083   2.417  0.9181  0.1460 -1.0143
  757MOL0     C99844   1.156   1.511   2.274 -0.2997 -0.0722  0.4382
  757MOL0     C99845   1.291   1.491   2.300 -0.4616  0.4354  0.7300
  757MOL0     C99846   1.648   1.194   2.296  0.7132 -0.1695 -0.9828
  757MOL0     C99847   1.678   1.077   2.369  0.0224  0.2842  0.8901
  757MOL0     C99848   1.789   0.994   2.352  0.7296 -0.5981  0.1873
  757MOL0     C99849   1.886   1.033   2.263 -0.4805  0.3475  0.2163
  757MOL0     O99850   1.995   0.951   2.240 -0.2692 -0.1237 -0.0186
  757MOL0     C99851   2.091   0.970   2.133  0.1980 -0.0193 -0.3018
  757MOL0     C99852   2.025   0.916   2.003 -0.3974 -0.1390  0.2278
  757MOL0     C99853   2.113   0.947   1.888  0.2639 -0.2968  1.0837
  757MOL0     C99854   2.260   0.915   1.909  0.9114  0.6297  1.3421
  757MOL0     C99855   2.348   0.883   1.796  0.3004  0.1268  1.0952
  757MOL0     C99856   2.415   0.879   1.693 -0.5335  0.2255 -0.2823
  757MOL0     C99857   1.861   1.157   2.187  0.2354 -0.2563  0.2421
  757MOL0     C99858   1.739   1.230   2.203 -0.1286 -0.0853  0.3175
  757MOL0     H99859   1.349   1.270   2.061  0.6008  0.5814 -0.4010
  757MOL0     H99860   1.140   1.320   1.992 -0.0433  0.2855 -0.1238
  757MOL0     H99861   0.994   1.692   2.026  1.2455 -0.6724  1.0042
  757MOL0     H99862   0.972   1.693   2.211 -0.6283  1.1629 -0.4196
  757MOL0     H99863   0.736   1.636   2.180 -2.1259  1.0375 -1.2870
  757MOL0     H99864   0.765   1.606   2.007  0.4910 -0.2225  0.1384
  757MOL0     H99865   0.636   1.785   2.041 -0.0367 -1.2682 -2.8847
  757MOL0     H99866   0.777   1.831   1.953  0.6255  0.1306  0.6675
  757MOL0     H99867   0.801   1.874   2.247  0.3281  1.6105  0.3170
  757MOL0     H99868   0.858   1.959   2.094 -1.3360  1.2856 -1.0978
  757MOL0     H99869   0.578   1.959   2.217  0.0925 -1.1730  0.5357
  757MOL0     H99870   0.618   2.046   2.076  1.5116 -1.5827 -1.6332
  757MOL0     H99871   0.810   2.162   2.231 -0.0456 -0.6073 -0.4758
  757MOL0     H99872   0.709   2.131   2.367  0.6564  1.1487  0.2942
  757MOL0     H99873   0.702   2.355   2.220 -0.5318  0.8281  0.6687
  757MOL0     H99874   0.593   2.253   2.133 -0.2813  0.8634 -0.2796
  757MOL0     H99875   0.452   2.387   2.298  0.0203  0.6262  0.0691
  757MOL0     H99876   0.538   2.288   2.425 -1.4209 -2.3854  1.1336
  757MOL0     H99877   0.286   2.199   2.135 -1.3235 -0.4574  1.4910
  757MOL0     H99878   0.137   1.881   2.213  2.8381  0.0974 -0.1192
  757MOL0     H99879   0.139   2.019   2.091  1.8839 -1.0613  0.3708
  757MOL0     H99880  -0.015   2.153   2.228 -0.8949 -0.1515 -1.5725
  757MOL0     H99881   0.014   2.047   2.369  3.0420  0.1352  0.3990
  757MOL0     H99882  -0.087   1.841   2.239 -0.9636 -1.4917 -0.6588
  757MOL0     H99883  -0.195   1.969   2.281 -0.8112  1.8466 -2.4663
  757MOL0     H99884  -0.087   1.933   2.008  0.0698 -3.0461  0.4695
  757MOL0     H99885  -0.167   2.075   2.056  2.8500 -0.0864 -3.7729
  757MOL0     H99886  -0.480   2.010   2.100  0.0355 -1.1837  1.3779
  757MOL0     H99887  -0.670   2.046   1.941 -0.5964  0.0138  1.0055
  757MOL0     H99888  -0.785   2.083   1.504  0.2953 -1.7910  0.0384
  757MOL0     H99889  -0.957   2.092   1.343 -1.2907 -0.0882  0.2535
  757MOL0     H99890  -1.140   2.221   1.285 -0.5614  1.6659 -3.8304
  757MOL0     H99891  -1.285   2.274   1.380  3.3103  0.1462  1.3667
  757MOL0     H99892  -1.296   2.086   1.143 -2.9154 -0.6483 -0.9084
  757MOL0     H99893  -1.317   2.259   1.124  2.4243  0.7218  0.3911
  757MOL0     H99894  -1.536   2.156   1.120 -0.5562 -1.4679  0.5662
  757MOL0     H99895  -1.507   2.270   1.263  1.2696  0.6348 -0.6763
  757MOL0     H99896  -1.479   1.971   1.275  0.1515  0.2924 -1.1885
  757MOL0     H99897  -1.476   2.082   1.410 -0.0155 -2.0961  0.3917
  757MOL0     H99898  -1.708   2.171   1.369 -0.2400 -0.4387 -1.3694
  757MOL0     H99899  -1.700   2.001   1.421 -2.1518  0.8953  0.2241
  757MOL0     H99900  -1.679   1.941   1.167 -1.6533  0.1492 -2.9554
  757MOL0     H99901  -1.745   2.098   1.130  0.7840 -1.8191 -2.3140
  757MOL0     H99902  -1.916   2.030   1.311 -1.5535 -0.7123 -0.3641
  757MOL0     H99903  -1.934   1.958   1.151 -0.2558 -1.3846  0.2525
  757MOL0     H99904  -1.974   1.785   1.314  0.2112 -2.6240  0.0174
  757MOL0     H99905  -1.808   1.806   1.376 -3.1830 -1.0559  1.7222
  757MOL0     H99906  -1.250   1.981   1.648  0.5470 -3.2150  1.3052
  757MOL0     H99907  -1.070   1.958   1.802  1.6203 -3.2147 -1.6728
  757MOL0     H99908  -0.460   1.811   1.650 -1.0881 -1.6944  1.2674
  757MOL0     H99909  -0.256   1.804   1.790  1.8045  1.3244  0.8429
  757MOL0     H99910   1.096   1.568   2.345  0.1285  4.1095 -2.1796
  757MOL0     H99911   1.343   1.530   2.387 -0.6693  0.6528  0.7558
  757MOL0     H99912   1.600   1.039   2.433 -2.8449  3.7984 -0.1494
  757MOL0     H99913   1.790   0.904   2.413  1.1347  0.7730  2.2879
  757MOL0     H99914   2.171   0.903   2.168 -1.5457 -1.9634  0.2232
  757MOL0     H99915   2.130   1.071   2.132  2.5289 -0.8662 -0.3930
  757MOL0     H99916   2.012   0.808   2.015 -2.8623  0.1585  0.8432
  757MOL0     H99917   1.925   0.956   1.984 -1.2642 -2.8879 -1.5186
  757MOL0     H99918   2.093   1.050   1.855  1.6517 -0.2412  0.3280
  757MOL0     H99919   2.074   0.881   1.809 -1.0579  1.5413  0.1075
  757MOL0     H99920   2.308   0.994   1.966 -0.0021  2.7729 -0.7116
  757MOL0     H99921   2.256   0.815   1.955 -0.8617 -2.7362 -4.8982
  757MOL0     H99922   2.473   0.889   1.604  0.7698  2.7354  0.7732
  757MOL0     H99923   1.936   1.190   2.117  0.7433  0.9232  1.3017
  757MOL0     H99924   1.703   1.312   2.141 -0.8352 -0.3286  0.3980
  758MOL0     O99925   6.629   0.662   2.909  0.5834 -0.4751 -0.4601
  758MOL0     C99926   6.555   0.705   2.826 -0.1880 -0.0665 -0.3280
  758MOL0     O99927   6.421   0.714   2.838  0.2051 -0.2370 -0.4085
  758MOL0     C99928   6.361   0.682   2.950 -0.0276  0.4444 -0.0798
  758MOL0     C99929   6.298   0.563   2.962  0.1849  0.6680 -0.5343
  758MOL0     C99930   6.233   0.529   3.087 -0.6063 -0.6586  0.5096
  758MOL0     C99931   6.237   0.629   3.195  0.1946  0.0152  0.7474
  758MOL0     O99932   6.160   0.613   3.304 -0.3276 -0.2989  0.3827
  758MOL0     C99933   6.039   0.696   3.299 -0.0350  0.1367 -0.6722
  758MOL0     C99934   5.921   0.640   3.219 -0.0896 -0.2624 -0.0456
  758MOL0     C99935   5.892   0.731   3.108  0.9498  0.6462  0.7193
  758MOL0     C99936   5.803   0.667   3.000 -0.4194 -0.1007  0.0221
  758MOL0     C99937   5.890   0.610   2.882 -0.8627  0.1213  0.0597
  758MOL0     C99938   5.970   0.720   2.807 -0.0292  0.1515  0.3788
  758MOL0     C99939   6.023   0.667   2.673  0.9009  0.2400 -0.1090
  758MOL0     C99940   6.079   0.793   2.605  0.1809  0.1635 -0.6412
  758MOL0     N99941   6.142   0.752   2.484  0.0328  0.3749  0.4317
  758MOL0     C99942   6.147   0.626   2.426  0.5423  0.0888 -0.8736
  758MOL0     C99943   6.233   0.642   2.323 -0.0331  1.0846  0.1841
  758MOL0     C99944   6.282   0.520   2.242 -0.1271  1.1966 -0.9199
  758MOL0     C99945   6.372   0.423   2.325 -1.1760 -0.5115  0.0426
  758MOL0     C99946   6.468   0.477   2.423  0.9550 -0.6805 -0.3908
  758MOL0     C99947   6.588   0.545   2.363  0.0269 -0.1528  0.4373
  758MOL0     O99948   6.658   0.470   2.264  0.0224 -0.3768  0.4136
  758MOL0     C99949   6.784   0.514   2.215 -0.1442 -0.8562  0.6942
  758MOL0     C99950   6.853   0.433   2.122 -0.5703 -0.4286 -0.6258
  758MOL0     C99951   6.984   0.453   2.095 -0.3648  0.4725 -0.2495
  758MOL0     C99952   7.055   0.552   2.152  0.5425 -0.1282 -0.2013
  758MOL0     C99953   7.192   0.578   2.122  0.1665 -0.1877 -0.0094
  758MOL0     O99954   7.247   0.503   2.022 -0.3514  0.5946  0.0433
  758MOL0     C99955   7.350   0.545   1.945 -0.3331 -0.0315  0.5054
  758MOL0     C99956   7.365   0.675   1.886  0.4934 -0.0213 -0.3486
  758MOL0     C99957   7.467   0.703   1.799 -0.6507 -0.0018  0.6642
  758MOL0     C99958   7.562   0.605   1.763 -0.5685 -0.7889  0.7464
  758MOL0     O99959   7.661   0.629   1.671 -0.1619  0.4087 -0.2007
  758MOL0     C99960   7.746   0.529   1.616 -0.1854  0.2362  0.5712
  758MOL0     C99961   7.819   0.595   1.505 -0.0601  0.9964  0.0353
  758MOL0     C99962   7.921   0.491   1.449 -0.5403  0.2541  0.3508
  758MOL0     C99963   8.034   0.581   1.392  0.3872  1.5718  0.5377
  758MOL0     C99964   8.129   0.515   1.288  1.1781 -0.5356  0.3227
  758MOL0     C99965   8.184   0.388   1.333  0.3803  0.3226  0.4664
  758MOL0     C99966   8.309   0.353   1.252 -1.0999  0.3232  0.0970
  758MOL0     C99967   8.338   0.199   1.261  0.0564  1.0269  0.4043
  758MOL0    Cl99968   8.486   0.164   1.144  0.2621 -0.1055 -0.1695
  758MOL0     C99969   7.551   0.477   1.824  0.2439 -0.2481  0.2310
  758MOL0     C99970   7.440   0.445   1.907  0.4520 -0.1555  0.4458
  758MOL0     O99971   7.254   0.675   2.181 -0.3794  0.4853  0.8022
  758MOL0     C99972   6.986   0.648   2.227 -0.1755  1.0985  0.6147
  758MOL0     C99973   6.851   0.627   2.260  0.6550 -0.1351 -0.1309
  758MOL0     N99974   6.281   0.770   2.315 -0.1885  0.2146 -0.4437
  758MOL0     N99975   6.232   0.836   2.418 -0.2748  0.1249 -0.0590
  758MOL0     C99976   6.306   0.751   3.179  0.6171  1.1459  0.7945
  758MOL0     C99977   6.365   0.772   3.059  0.8241 -0.1265  0.2446
  758MOL0     C99978   6.613   0.762   2.703  0.1987 -0.0969  0.8488
  758MOL0     C99979   6.536   0.815   2.602 -0.2172 -0.3538 -0.4877
  758MOL0     C99980   6.582   0.888   2.501 -0.3712  0.3747 -0.5369
  758MOL0     C99981   6.718   0.905   2.495  0.4537 -0.1724 -0.6994
  758MOL0     O99982   6.778   0.971   2.387  0.5079  0.0916 -0.3013
  758MOL0     C99983   6.712   0.971   2.265 -0.9168  0.1703  0.1273
  758MOL0     C99984   6.817   0.966   2.152  0.0146 -0.5066 -0.1925
  758MOL0     C99985   6.913   1.093   2.142  0.2416  0.5752  0.3422
  758MOL0     C99986   7.013   1.074   2.020  1.2447 -0.6284  0.6552
  758MOL0     C99987   6.942   1.042   1.897  0.4762 -0.0386  1.1791
  758MOL0     C99988   6.883   1.013   1.795 -0.1871  0.7587 -0.2253
  758MOL0     C99989   6.807   0.845   2.592  0.4407 -0.0461  0.8714
  758MOL0     C99990   6.756   0.771   2.693  0.3671 -0.2280 -0.7066
  758MOL0     H99991   6.291   0.499   2.875  2.9321  1.4255 -1.4280
  758MOL0     H99992   6.173   0.440   3.103 -2.5434  0.6021  0.5669
  758MOL0     H99993   6.057   0.800   3.270  0.2456  0.6968  1.4203
  758MOL0     H99994   6.014   0.700   3.405  0.9841 -4.7789 -0.0338
  758MOL0     H99995   5.835   0.630   3.286 -2.7530 -2.2960 -3.3999
  758MOL0     H99996   5.938   0.539   3.179 -0.9244 -0.7420  0.7732
  758MOL0     H99997   5.987   0.758   3.061  1.3626 -0.7895  0.6851
  758MOL0     H99998   5.846   0.821   3.150  2.2874  0.9283  1.6258
  758MOL0     H99999   5.747   0.590   3.053  0.3042  1.9280  4.2352
  758MOL0     H    0   5.726   0.741   2.977 -1.4135 -1.0279  0.3273
  758MOL0     H    1   5.832   0.561   2.803  1.0300  1.8434 -2.5689
  758MOL0     H    2   5.960   0.532   2.910 -0.7540 -0.2581 -1.1987
  758MOL0     H    3   6.061   0.756   2.856 -0.1750  2.8321 -1.1048
  758MOL0     H    4   5.912   0.812   2.792 -0.9998 -0.3547  0.9791
  758MOL0     H    5   6.101   0.593   2.693 -0.5556 -0.8262  2.0052
  758MOL0     H    6   5.943   0.629   2.610  0.2970 -0.2778  0.9302
  758MOL0     H    7   6.158   0.842   2.663  0.4391  1.3442 -1.9432
  758MOL0     H    8   6.004   0.866   2.571  0.3122  1.4887  1.6693
  758MOL0     H    9   6.092   0.536   2.450  1.0350  0.2459  1.0302
  758MOL0     H   10   6.326   0.553   2.147  2.1361  0.1220 -0.3188
  758MOL0     H   11   6.195   0.462   2.209  1.7283 -1.4458 -1.4544
  758MOL0     H   12   6.426   0.357   2.257 -1.2844 -0.1701 -0.3817
  758MOL0     H   13   6.296   0.364   2.377 -1.6187  0.1640  0.1875
  758MOL0     H   14   6.427   0.547   2.496  0.8591  0.7167 -1.7201
  758MOL0     H   15   6.513   0.396   2.481 -1.0300 -2.7828 -1.6286
  758MOL0     H   16   6.657   0.558   2.447 -1.8633  2.7390  1.7086
  758MOL0     H   17   6.564   0.642   2.318 -1.7927 -2.0282 -3.0586
  758MOL0     H   18   6.795   0.346   2.093 -0.7307 -0.4874 -0.1341
  758MOL0     H   19   7.041   0.395   2.022  0.1332 -0.5197  0.9000
  758MOL0     H   20   7.300   0.753   1.923 -1.7125 -2.2485  0.8221
  758MOL0     H   21   7.467   0.794   1.739  0.4465 -1.7156 -2.1064
  758MOL0     H   22   7.692   0.445   1.571  1.7546 -0.2662 -0.9313
  758MOL0     H   23   7.818   0.489   1.688  1.2890  0.7409 -0.5776
  758MOL0     H   24   7.877   0.678   1.547 -0.3781  0.5587  1.4007
  758MOL0     H   25   7.747   0.644   1.439 -1.3650  1.6186  1.8420
  758MOL0     H   26   7.888   0.432   1.363  0.8017 -2.0884  1.3328
  758MOL0     H   27   7.954   0.418   1.523 -0.7865  0.5903  0.7956
  758MOL0     H   28   7.995   0.667   1.336  0.5158  0.9123 -0.6027
  758MOL0     H   29   8.094   0.633   1.467 -0.1750  0.9844  1.3995
  758MOL0     H   30   8.209   0.588   1.275 -0.1229  0.6971 -1.2977
  758MOL0     H   31   8.078   0.501   1.192  0.1764  1.1573  0.5520
  758MOL0     H   32   8.122   0.300   1.316  3.2887 -1.6207 -0.8770
  758MOL0     H   33   8.213   0.382   1.439  1.9516  0.3268  0.0649
  758MOL0     H   34   8.292   0.384   1.148 -1.7933  3.4342  1.0398
  758MOL0     H   35   8.393   0.409   1.293 -1.9582  0.9222  1.0683
  758MOL0     H   36   8.258   0.130   1.233  3.1112 -1.9868 -1.7404
  758MOL0     H   37   8.355   0.177   1.367  0.8574  1.7845  0.4456
  758MOL0     H   38   7.629   0.403   1.809 -0.2037 -0.7529  0.3621
  758MOL0     H   39   7.429   0.340   1.932  1.7758 -0.8474 -1.5960
  758MOL0     H   40   7.050   0.722   2.276  0.7573  1.3888 -0.9726
  758MOL0     H   41   6.803   0.688   2.336  0.1475 -0.3652 -0.2559
  758MOL0     H   42   6.305   0.827   3.257  1.2491  0.2276  1.7328
  758MOL0     H   43   6.426   0.859   3.035  1.0175 -1.0915 -3.3743
  758MOL0     H   44   6.429   0.808   2.619  0.0176 -0.7879  1.0172
  758MOL0     H   45   6.509   0.929   2.432 -0.4780 -1.5018 -1.5888
  758MOL0     H   46   6.653   1.063   2.265  0.6863  1.2799  2.6118
  758MOL0     H   47   6.646   0.883   2.257  0.3420 -0.9884  1.8512
  758MOL0     H   48   6.881   0.880   2.176 -2.1007 -2.1050  0.0788
  758MOL0     H   49   6.771   0.947   2.055 -0.3399  0.2943 -0.1888
  758MOL0     H   50   6.964   1.109   2.237  2.9170 -2.0404 -0.5004
  758MOL0     H   51   6.854   1.184   2.126  0.7013  0.7585 -0.3620
  758MOL0     H   52   7.074   1.163   2.006  0.5454 -0.3448 -0.7758
  758MOL0     H   53   7.083   0.993   2.041  0.6911 -1.0311  0.9796
  758MOL0     H   54   6.827   0.986   1.707 -0.1609 -0.1037  0.0119
  758MOL0     H   55   6.915   0.847   2.588  0.4297 -0.6036  0.3019
  758MOL0     H   56   6.813   0.718   2.768  0.2654 -0.3151 -0.6916
  759MOL0     O   57   0.511   0.855  10.580  0.3340  0.6700  0.4939
  759MOL0     C   58   0.519   0.972  10.608 -0.2450 -1.2494  0.0803
  759MOL0     O   59   0.416   1.066  10.618  0.3749 -0.7658  0.4686
  759MOL0     C   60   0.281   1.038  10.597 -1.0162  0.7184  0.3807
  759MOL0     C   61   0.193   1.144  10.600  1.3999 -0.5457  0.5167
  759MOL0     C   62   0.055   1.147  10.589 -0.2438  0.3059  0.5125
  759MOL0     C   63   0.001   1.020  10.576  0.7331 -0.4034  0.7479
  759MOL0     O   64  -0.132   1.003  10.565  0.2266 -0.3229  0.0766
  759MOL0     C   65  -0.194   0.949  10.445  0.0046 -0.0945  0.8319
  759MOL0     C   66  -0.344   0.916  10.445 -0.1453 -0.7402  0.2012
  759MOL0     C   67  -0.371   0.827  10.571 -0.2252  0.4505 -0.6837
  759MOL0     C   68  -0.513   0.792  10.568  0.3166  0.5354 -0.1361
  759MOL0     C   69  -0.554   0.681  10.667 -0.9108  0.0260 -0.2484
  759MOL0     C   70  -0.641   0.580  10.603  0.3847 -1.0026  0.2456
  759MOL0     C   71  -0.727   0.498  10.695  0.4328 -0.5355 -0.6772
  759MOL0     C   72  -0.815   0.402  10.635 -0.3122  0.9436 -0.2662
  759MOL0     N   73  -0.728   0.281  10.603 -0.2147 -0.1321 -0.3580
  759MOL0     C   74  -0.726   0.172  10.686 -0.3503  0.0079  0.0641
  759MOL0     C   75  -0.638   0.081  10.630 -1.0605  0.9758  0.0549
  759MOL0     C   76  -0.598  -0.058  10.666 -0.5727  0.3436 -0.4074
  759MOL0     C   77  -0.715  -0.146  10.641 -0.3422 -0.6741  0.7070
  759MOL0     C   78  -0.709  -0.286  10.697  0.5033  0.1101 -0.1293
  759MOL0     C   79  -0.852  -0.344  10.722 -0.4059 -0.0176 -0.1567
  759MOL0     O   80  -0.927  -0.285  10.824 -0.2750 -0.3064  0.3616
  759MOL0     C   81  -1.050  -0.344  10.819  0.8430  0.3431 -0.3801
  759MOL0     C   82  -1.071  -0.459  10.902  1.3071 -0.5824 -0.2137
  759MOL0     C   83  -1.200  -0.519  10.890 -0.4628 -0.6517  0.0050
  759MOL0     C   84  -1.307  -0.471  10.813 -0.5262  0.2005 -0.3572
  759MOL0     C   85  -1.442  -0.536  10.807 -1.3269  0.8111 -1.4503
  759MOL0     O   86  -1.424  -0.672  10.828  0.8008 -0.1376 -0.4473
  759MOL0     C   87  -1.525  -0.766  10.846  0.7225 -0.6995  0.2301
  759MOL0     C   88  -1.501  -0.891  10.791  0.3648  0.2838 -1.0790
  759MOL0     C   89  -1.594  -0.996  10.796  0.4090  0.7451 -0.0573
  759MOL0     C   90  -1.728  -0.973  10.837 -0.7181  0.1341 -0.5490
  759MOL0     O   91  -1.819  -1.076  10.834  0.4998  0.4190 -0.5702
  759MOL0     C   92  -1.777  -1.201  10.895 -0.9166 -0.2753  0.1211
  759MOL0     C   93  -1.804  -1.318  10.797 -1.3870  0.2934 -0.0311
  759MOL0     C   94  -1.951  -1.355  10.807  0.1162 -0.4676 -0.7274
  759MOL0     C   95  -2.001  -1.410  10.946 -0.7128  0.8658  0.3101
  759MOL0     C   96  -2.145  -1.466  10.944  0.1819 -0.0999 -0.2202
  759MOL0     C   97  -2.178  -1.544  11.075  0.5609  0.0958 -0.4995
  759MOL0     C   98  -2.307  -1.634  11.063  0.1566 -0.0194 -0.9050
  759MOL0     C   99  -2.290  -1.749  10.959 -0.5578  0.5586 -1.1287
  759MOL0    Cl  100  -2.136  -1.830  10.994  0.3680 -0.3681  0.5590
  759MOL0     C  101  -1.758  -0.850  10.883 -1.0478 -0.5881 -0.0345
  759MOL0     C  102  -1.663  -0.742  10.883  0.6080  0.7667 -0.0953
  759MOL0     O  103  -1.542  -0.474  10.778 -0.2470  0.5750  0.1331
  759MOL0     C  104  -1.282  -0.357  10.742 -0.2652 -0.1666  0.0650
  759MOL0     C  105  -1.155  -0.290  10.752 -1.1281  0.2497  0.5117
  759MOL0     N  106  -0.579   0.143  10.520 -0.1974 -1.0982 -0.7014
  759MOL0     N  107  -0.641   0.258  10.503 -0.4733  0.0878  0.5461
  759MOL0     C  108   0.089   0.910  10.555 -0.6403  1.2858 -0.6165
  759MOL0     C  109   0.224   0.921  10.569  0.0472  0.2568 -0.0204
  759MOL0     C  110   0.652   1.039  10.602  0.1102  0.1032  0.2312
  759MOL0     C  111   0.768   0.971  10.571 -0.3189  0.0592 -0.1990
  759MOL0     C  112   0.894   1.027  10.570  0.2920 -0.0372  0.4936
  759MOL0     C  113   0.912   1.157  10.614  1.2735 -0.3963 -0.2383
  759MOL0     O  114   1.036   1.208  10.624  0.0830  0.4199 -0.3643
  759MOL0     C  115   1.059   1.334  10.676  0.1657 -0.9941 -0.9303
  759MOL0     C  116   1.205   1.357  10.708 -0.4636  0.3132  0.0695
  759MOL0     C  117   1.240   1.501  10.741  0.1499  0.0850  0.1246
  759MOL0     C  118   1.265   1.515  10.889 -0.4684 -0.4995 -0.5635
  759MOL0     C  119   1.395   1.437  10.919 -0.2463  0.0153 -0.7140
  759MOL0     C  120   1.500   1.377  10.928  0.3521  0.7622 -0.9856
  759MOL0     C  121   0.793   1.233  10.650 -0.5528  0.6022  1.4332
  759MOL0     C  122   0.665   1.178  10.637  0.1023  0.6655  0.2162
  759MOL0     H  123   0.240   1.240  10.619 -0.8373  0.5335  0.9475
  759MOL0     H  124  -0.005   1.237  10.579 -0.7833  0.1599  2.2290
  759MOL0     H  125  -0.134   0.867  10.404  2.1949  0.7051  2.2353
  759MOL0     H  126  -0.189   1.031  10.373 -1.6345 -1.0825 -0.4750
  759MOL0     H  127  -0.368   0.860  10.354 -2.1971 -0.3924  0.4996
  759MOL0     H  128  -0.405   1.006  10.443 -1.7444 -1.7410  1.7942
  759MOL0     H  129  -0.350   0.875  10.667  0.4306 -0.2171 -0.4858
  759MOL0     H  130  -0.312   0.735  10.567  1.7511  1.7314 -2.9024
  759MOL0     H  131  -0.573   0.879  10.595  1.0749  0.9037  0.3811
  759MOL0     H  132  -0.531   0.756  10.466 -0.5909  0.0682  0.1754
  759MOL0     H  133  -0.609   0.724  10.750 -0.7449  1.5510 -0.8954
  759MOL0     H  134  -0.461   0.628  10.690 -0.9578 -0.0036 -0.1292
  759MOL0     H  135  -0.578   0.518  10.538  1.4186  0.4054 -0.1505
  759MOL0     H  136  -0.706   0.643  10.543  0.1554  0.2662  1.7539
  759MOL0     H  137  -0.663   0.445  10.766 -1.0354  0.3707  1.4621
  759MOL0     H  138  -0.789   0.562  10.759 -0.4838 -1.4567 -0.6120
  759MOL0     H  139  -0.867   0.434  10.545  2.5185 -0.4052 -2.5312
  759MOL0     H  140  -0.881   0.369  10.717  1.9238 -0.0781  1.2187
  759MOL0     H  141  -0.789   0.147  10.771 -0.3585 -1.9049 -0.4600
  759MOL0     H  142  -0.564  -0.067  10.770 -2.0675  3.8030  0.5460
  759MOL0     H  143  -0.515  -0.095  10.607 -0.7978 -0.1037 -0.4502
  759MOL0     H  144  -0.723  -0.158  10.533 -2.5558  1.0327  0.5979
  759MOL0     H  145  -0.796  -0.088  10.686  0.0065 -1.6786  2.7326
  759MOL0     H  146  -0.666  -0.358  10.627 -2.1381  0.0386 -1.8175
  759MOL0     H  147  -0.660  -0.294  10.794  0.0247 -1.4503  0.0022
  759MOL0     H  148  -0.836  -0.447  10.755 -0.1926 -0.4271 -1.4930
  759MOL0     H  149  -0.906  -0.351  10.627 -1.8552 -1.3352  0.7117
  759MOL0     H  150  -0.984  -0.495  10.956  0.0489  0.7372  2.9357
  759MOL0     H  151  -1.225  -0.607  10.947  0.3896 -0.5101  0.6147
  759MOL0     H  152  -1.400  -0.896  10.754  0.8706  4.7582 -0.8410
  759MOL0     H  153  -1.563  -1.087  10.746  1.4116  0.6227  0.7457
  759MOL0     H  154  -1.829  -1.212  10.991  0.1880 -4.6383  0.4336
  759MOL0     H  155  -1.668  -1.209  10.904 -0.8590 -1.2302 -1.1916
  759MOL0     H  156  -1.746  -1.405  10.828 -2.7379  0.4494  3.2852
  759MOL0     H  157  -1.777  -1.287  10.695  1.9064  1.1402  0.9788
  759MOL0     H  158  -1.962  -1.440  10.738 -0.9943 -2.4165  1.6785
  759MOL0     H  159  -2.011  -1.270  10.775  2.6068  1.7420  0.1792
  759MOL0     H  160  -1.935  -1.494  10.966  0.1500  2.0742  2.8407
  759MOL0     H  161  -1.982  -1.349  11.034 -1.2647 -1.9768  2.5319
  759MOL0     H  162  -2.147  -1.531  10.856  1.6454  1.0969 -1.1846
  759MOL0     H  163  -2.226  -1.393  10.944 -0.1899 -0.4931  0.7715
  759MOL0     H  164  -2.191  -1.479  11.161  2.1784  1.3587 -1.1578
  759MOL0     H  165  -2.095  -1.613  11.093  1.0852  0.0442 -2.8055
  759MOL0     H  166  -2.318  -1.681  11.161  0.1607  1.7325 -0.0170
  759MOL0     H  167  -2.396  -1.571  11.050  0.2217  1.8182  4.7343
  759MOL0     H  168  -2.276  -1.704  10.860  0.3923 -5.9751 -4.4802
  759MOL0     H  169  -2.381  -1.810  10.955 -0.3989  0.2717 -0.5319
  759MOL0     H  170  -1.857  -0.823  10.918 -0.7870  2.1553 -1.1469
  759MOL0     H  171  -1.692  -0.639  10.900  4.3492  1.7549  1.2973
  759MOL0     H  172  -1.362  -0.325  10.676 -1.4896 -0.6811  1.2664
  759MOL0     H  173  -1.144  -0.200  10.692  1.1859 -0.9753 -1.0220
  759MOL0     H  174   0.053   0.810  10.532  3.7827 -1.8393  3.8610
  759MOL0     H  175   0.282   0.830  10.558  2.1986  1.4148  1.0944
  759MOL0     H  176   0.748   0.872  10.530  0.6924  0.9320 -3.0261
  759MOL0     H  177   0.982   0.970  10.543  0.8905  1.4582 -0.8422
  759MOL0     H  178   1.012   1.328  10.775  2.4834 -0.2843  0.2992
  759MOL0     H  179   1.023   1.413  10.610  1.8035 -1.1326 -2.0449
  759MOL0     H  180   1.229   1.287  10.788 -0.1927  0.0159 -0.2655
  759MOL0     H  181   1.270   1.326  10.625 -1.1883 -0.5216 -0.2087
  759MOL0     H  182   1.163   1.577  10.725  1.7188  2.2490  2.0844
  759MOL0     H  183   1.332   1.533  10.692 -1.2721  1.0295 -2.0723
  759MOL0     H  184   1.279   1.620  10.916 -0.0246 -0.8668  0.7048
  759MOL0     H  185   1.195   1.463  10.956  2.0668 -0.7642  2.0490
  759MOL0     H  186   1.587   1.314  10.932  0.7017  1.2964  0.6856
  759MOL0     H  187   0.796   1.330  10.697  2.0703  0.7700  1.0549
  759MOL0     H  188   0.582   1.246  10.655  0.0317  1.0667 -1.4756
  760MOL0     O  189   2.243   2.027   8.933  0.1433  0.4922  0.2119
  760MOL0     C  190   2.309   2.113   8.987 -0.2399  0.0602 -0.5924
  760MOL0     O  191   2.261   2.222   9.059  0.1935  0.4600 -0.1147
  760MOL0     C  192   2.128   2.255   9.042  0.5003 -1.0018 -0.3087
  760MOL0     C  193   2.031   2.177   9.107 -0.7592 -0.0937 -0.9779
  760MOL0     C  194   1.896   2.192   9.088  0.6738  0.2298 -0.1949
  760MOL0     C  195   1.855   2.281   8.991  0.3527 -0.6144 -0.7009
  760MOL0     O  196   1.714   2.301   8.981  0.0267  0.9489 -0.4283
  760MOL0     C  197   1.666   2.343   8.857  0.0452  0.0169 -1.0737
  760MOL0     C  198   1.514   2.310   8.843  0.1639 -0.0958 -0.4940
  760MOL0     C  199   1.496   2.161   8.819  0.2471  0.3476  0.6414
  760MOL0     C  200   1.351   2.124   8.788  0.5615  0.2427 -0.6463
  760MOL0     C  201   1.340   1.971   8.758  0.3233  0.8383 -0.1264
  760MOL0     C  202   1.214   1.923   8.687  0.2949 -0.4471  0.4241
  760MOL0     C  203   1.091   2.003   8.734 -0.3810 -0.2982 -0.2135
  760MOL0     C  204   0.968   1.910   8.713 -0.4324 -0.1285 -0.1869
  760MOL0     N  205   0.921   1.924   8.574  0.5768  0.6265  0.0655
  760MOL0     C  206   0.858   2.032   8.522  0.0444  0.2653  0.0311
  760MOL0     C  207   0.819   1.992   8.394  0.4487 -0.0372  0.1009
  760MOL0     C  208   0.750   2.073   8.291 -1.0965  1.0122  0.3859
  760MOL0     C  209   0.836   2.195   8.256 -0.6480  0.1166  0.1952
  760MOL0     C  210   0.785   2.264   8.128 -0.1524  0.8793 -0.4731
  760MOL0     C  211   0.656   2.347   8.142 -0.5300 -0.5519  0.5839
  760MOL0     O  212   0.527   2.280   8.162 -0.2910 -0.2370  0.7888
  760MOL0     C  213   0.406   2.334   8.124  0.2568 -0.2131  0.9428
  760MOL0     C  214   0.294   2.262   8.159 -0.4857  0.1660 -0.8990
  760MOL0     C  215   0.164   2.307   8.137  1.0955 -1.3384  0.4306
  760MOL0     C  216   0.147   2.436   8.087  0.1746  0.0379 -0.7382
  760MOL0     C  217   0.011   2.482   8.040  1.1584  0.4922 -0.4348
  760MOL0     O  218  -0.095   2.399   8.031 -0.2219  0.9134  0.7656
  760MOL0     C  219  -0.221   2.439   8.017  0.0404 -0.0567 -0.2428
  760MOL0     C  220  -0.268   2.545   7.938 -0.2250 -0.0239  0.0600
  760MOL0     C  221  -0.403   2.585   7.949 -0.7210 -0.0025 -0.0850
  760MOL0     C  222  -0.496   2.505   8.014 -0.1084  0.8163 -0.2123
  760MOL0     O  223  -0.631   2.535   8.009 -0.1666  0.6303 -0.0627
  760MOL0     C  224  -0.723   2.473   8.097 -0.6770  0.2740 -0.8088
  760MOL0     C  225  -0.848   2.568   8.116 -0.4912 -0.2930  0.2499
  760MOL0     C  226  -0.933   2.576   7.994 -0.6384 -0.6261 -0.2808
  760MOL0     C  227  -1.064   2.673   8.015 -0.1384 -0.5102 -0.5688
  760MOL0     C  228  -1.166   2.618   8.117 -0.0528 -0.0387  0.0495
  760MOL0     C  229  -1.300   2.680   8.113 -0.5675 -0.4920 -0.5346
  760MOL0     C  230  -1.305   2.826   8.149  0.5750 -0.0609  0.7479
  760MOL0     C  231  -1.322   2.914   8.020 -0.1278  0.3756  0.6286
  760MOL0    Cl  232  -1.182   2.963   7.944 -0.0845 -0.0013 -0.3243
  760MOL0     C  233  -0.450   2.384   8.072 -1.2595 -0.3852 -0.4047
  760MOL0     C  234  -0.311   2.354   8.077 -0.2740  0.6520  0.4949
  760MOL0     O  235   0.007   2.607   8.016  0.0050 -0.8450  0.0491
  760MOL0     C  236   0.253   2.514   8.059 -0.7021  0.1836  0.1122
  760MOL0     C  237   0.388   2.461   8.067 -0.4205  0.4293  0.8625
  760MOL0     N  238   0.875   1.872   8.380  0.3162  0.4915  1.7094
  760MOL0     N  239   0.943   1.837   8.475  0.2049 -0.6905 -0.7924
  760MOL0     C  240   1.953   2.360   8.931  0.0161 -0.6307  0.8783
  760MOL0     C  241   2.082   2.356   8.954 -0.7006  0.0525  0.6822
  760MOL0     C  242   2.459   2.109   8.985  1.5456 -0.5793 -0.5958
  760MOL0     C  243   2.522   2.011   8.910 -1.3017 -0.3330  0.5351
  760MOL0     C  244   2.656   2.008   8.890 -0.5865  0.3527  0.3998
  760MOL0     C  245   2.740   2.111   8.936  0.4436  0.3046  0.1026
  760MOL0     O  246   2.875   2.120   8.915  0.8884 -0.1681  0.3863
  760MOL0     C  247   2.942   2.011   8.853  0.1509 -0.4351 -0.1627
  760MOL0     C  248   3.088   2.052   8.868 -0.0654 -0.8006  0.2786
  760MOL0     C  249   3.144   2.095   9.008 -0.8326  0.0179  0.2189
  760MOL0     C  250   3.180   1.980   9.096  0.4970 -0.5152  0.2619
  760MOL0     C  251   3.261   1.876   9.043 -0.6251 -0.0434 -0.6389
  760MOL0     C  252   3.325   1.792   8.990  0.1365 -0.2826  0.7332
  760MOL0     C  253   2.678   2.204   9.018 -0.0130  0.1881  0.3078
  760MOL0     C  254   2.541   2.204   9.031 -0.7152 -0.6258 -0.2399
  760MOL0     H  255   2.067   2.111   9.186  2.2659  1.0645 -1.2226
  760MOL0     H  256   1.834   2.138   9.159  0.5336  2.1939  1.2497
  760MOL0     H  257   1.717   2.295   8.773 -1.3386 -0.6182 -1.5766
  760MOL0     H  258   1.679   2.452   8.857 -3.0729  0.4809 -0.7188
  760MOL0     H  259   1.472   2.373   8.764 -0.5535  1.0796  0.7955
  760MOL0     H  260   1.466   2.341   8.936 -0.0421 -2.2442  0.1655
  760MOL0     H  261   1.519   2.106   8.911 -1.1141  0.4661  1.0622
  760MOL0     H  262   1.563   2.144   8.734  0.1078  2.3347  0.0961
  760MOL0     H  263   1.279   2.167   8.858 -1.5227  0.4614 -2.7649
  760MOL0     H  264   1.315   2.163   8.692 -3.8002 -2.8404 -0.5951
  760MOL0     H  265   1.349   1.918   8.853 -1.6615 -0.6099 -0.6982
  760MOL0     H  266   1.423   1.938   8.694  1.0530 -0.1715  1.2813
  760MOL0     H  267   1.199   1.816   8.701  1.5074 -1.4702 -4.3497
  760MOL0     H  268   1.226   1.934   8.578 -0.4725  2.1861  0.5299
  760MOL0     H  269   1.106   2.018   8.841  3.2202 -4.0011  0.0470
  760MOL0     H  270   1.081   2.103   8.692  2.4663  1.0614  2.0391
  760MOL0     H  271   0.893   1.954   8.779  0.2827  3.3016 -1.4541
  760MOL0     H  272   0.990   1.806   8.738  2.2034  0.6277  0.9723
  760MOL0     H  273   0.843   2.130   8.566 -1.4237 -0.1514  0.4882
  760MOL0     H  274   0.648   2.085   8.329 -1.0571 -1.3585  1.3860
  760MOL0     H  275   0.739   2.004   8.207 -0.1051  0.7242  0.4830
  760MOL0     H  276   0.938   2.158   8.252 -0.1154  1.6383 -1.2924
  760MOL0     H  277   0.829   2.257   8.346  1.1171 -0.5689  0.8423
  760MOL0     H  278   0.857   2.343   8.107 -0.9257  2.1749  1.4814
  760MOL0     H  279   0.772   2.197   8.043 -0.0020  0.7284 -0.3775
  760MOL0     H  280   0.653   2.403   8.048  2.8477 -0.8950  0.1486
  760MOL0     H  281   0.671   2.420   8.222  1.3184  2.2585 -2.0847
  760MOL0     H  282   0.294   2.172   8.220 -0.7130  1.4565  1.0785
  760MOL0     H  283   0.079   2.240   8.151 -0.1174  0.2361  0.8559
  760MOL0     H  284  -0.196   2.609   7.887 -1.0982  1.8536  1.0635
  760MOL0     H  285  -0.451   2.673   7.909 -2.2450 -0.6680  0.2047
  760MOL0     H  286  -0.678   2.459   8.196 -3.3170 -0.5161  0.3577
  760MOL0     H  287  -0.752   2.376   8.056  0.6731 -0.9773  1.0029
  760MOL0     H  288  -0.810   2.667   8.146 -3.7950  0.9151  0.8235
  760MOL0     H  289  -0.904   2.532   8.203  0.4809  0.3732  1.1894
  760MOL0     H  290  -0.962   2.472   7.973 -0.6843 -0.5183 -0.7579
  760MOL0     H  291  -0.869   2.616   7.916  0.3744  0.5524  1.1051
  760MOL0     H  292  -1.034   2.772   8.051  1.0162  0.0351 -2.8863
  760MOL0     H  293  -1.108   2.692   7.917  1.5198 -0.6953 -1.3727
  760MOL0     H  294  -1.125   2.632   8.217 -1.4953  0.0223  0.6558
  760MOL0     H  295  -1.179   2.513   8.088 -2.8892  0.3345 -0.3098
  760MOL0     H  296  -1.368   2.630   8.183 -0.6633 -0.0463 -0.3056
  760MOL0     H  297  -1.346   2.675   8.014 -0.3465 -0.6772 -0.6271
  760MOL0     H  298  -1.401   2.845   8.200 -0.1130  0.1622 -0.5790
  760MOL0     H  299  -1.230   2.867   8.217 -1.3758 -0.9066  3.6022
  760MOL0     H  300  -1.382   3.002   8.043  2.8181  2.4037  1.0607
  760MOL0     H  301  -1.373   2.854   7.944  1.1227  3.0980 -2.5592
  760MOL0     H  302  -0.514   2.311   8.121 -1.3469 -1.2165 -1.7120
  760MOL0     H  303  -0.267   2.266   8.123 -0.3481  1.7445  2.8583
  760MOL0     H  304   0.242   2.618   8.029 -0.8686  0.6375  1.6473
  760MOL0     H  305   0.474   2.527   8.066 -0.2220  0.1848  1.2683
  760MOL0     H  306   1.917   2.431   8.857  2.9568  1.6224  1.4375
  760MOL0     H  307   2.145   2.424   8.897 -0.8483  0.8750  1.4837
  760MOL0     H  308   2.467   1.935   8.856 -1.4570  0.4698 -0.4789
  760MOL0     H  309   2.705   1.937   8.824  3.2199  1.2374  2.0291
  760MOL0     H  310   2.909   2.001   8.749 -2.7028  0.4429  0.5936
  760MOL0     H  311   2.942   1.916   8.907  0.4054 -1.9885 -2.7232
  760MOL0     H  312   3.153   1.975   8.825  1.4763  2.0499 -2.9549
  760MOL0     H  313   3.101   2.138   8.801  1.6838  0.1053  1.7098
  760MOL0     H  314   3.070   2.162   9.054  0.4484  1.3706  0.3597
  760MOL0     H  315   3.229   2.160   8.988  0.1204 -1.8363 -2.3730
  760MOL0     H  316   3.224   2.029   9.183 -1.9537 -0.8375  1.7641
  760MOL0     H  317   3.096   1.935   9.149  2.2196 -1.2902  2.4517
  760MOL0     H  318   3.363   1.708   8.936 -0.2184  0.1270 -0.1754
  760MOL0     H  319   2.753   2.271   9.058  1.9697 -1.5218 -0.3600
  760MOL0     H  320   2.498   2.288   9.084 -0.9717 -0.9948  0.1323
  761MOL0     O  321   6.314   0.182   1.561  0.0323  0.6657  0.2938
  761MOL0     C  322   6.335   0.217   1.449 -0.1585  0.0416 -0.2033
  761MOL0     O  323   6.244   0.260   1.354  0.8188 -0.3303  0.1371
  761MOL0     C  324   6.107   0.245   1.370 -0.0840  0.2489 -0.0917
  761MOL0     C  325   6.014   0.336   1.306 -0.1412 -0.1068 -0.5747
  761MOL0     C  326   5.883   0.325   1.325  0.5898  0.9448 -0.0937
  761MOL0     C  327   5.824   0.227   1.402 -0.7490  0.5289 -0.6683
  761MOL0     O  328   5.688   0.202   1.406  0.3412  0.4184 -0.0849
  761MOL0     C  329   5.639   0.071   1.383  0.8214  0.5658 -0.4897
  761MOL0     C  330   5.502   0.096   1.320 -0.5374 -0.0993 -0.0387
  761MOL0     C  331   5.402   0.153   1.420 -0.0412  0.5296 -0.2572
  761MOL0     C  332   5.276   0.219   1.357 -0.5801  0.8841 -0.2714
  761MOL0     C  333   5.217   0.142   1.239  0.4824  1.0643  0.3363
  761MOL0     C  334   5.128   0.031   1.290  1.1376 -0.2739  0.1536
  761MOL0     C  335   5.025  -0.017   1.186  0.4334 -0.7796  1.0568
  761MOL0     C  336   5.067  -0.064   1.043 -0.2395  0.3784 -0.1456
  761MOL0     N  337   4.988  -0.179   1.005 -0.8554 -0.3325  0.1849
  761MOL0     C  338   4.860  -0.179   0.959  0.0894  0.2439  0.5579
  761MOL0     C  339   4.817  -0.305   0.975 -0.3983  0.6078  0.8687
  761MOL0     C  340   4.696  -0.378   0.918 -0.0640  0.0459 -0.3738
  761MOL0     C  341   4.570  -0.318   0.976  0.1254 -0.4382 -0.0396
  761MOL0     C  342   4.549  -0.358   1.127  0.3264 -0.2117 -0.6217
  761MOL0     C  343   4.465  -0.258   1.199  0.8222 -0.3226  0.3124
  761MOL0     O  344   4.465  -0.267   1.350  0.1521  0.5192  0.7592
  761MOL0     C  345   4.345  -0.312   1.407  0.2075  0.0626 -0.6779
  761MOL0     C  346   4.341  -0.289   1.550 -1.0333  0.5934 -0.9985
  761MOL0     C  347   4.228  -0.330   1.627  0.3829  0.0625  0.4208
  761MOL0     C  348   4.117  -0.380   1.558  0.2133  0.3043 -0.5495
  761MOL0     C  349   4.008  -0.426   1.649 -0.7505  0.5155  0.4504
  761MOL0     O  350   3.897  -0.475   1.586  0.6274 -0.1781  0.6631
  761MOL0     C  351   3.795  -0.534   1.650 -0.1488 -0.2955 -0.2657
  761MOL0     C  352   3.689  -0.570   1.558 -0.5209 -0.0714 -0.0960
  761MOL0     C  353   3.573  -0.639   1.607 -0.9105  0.4424 -0.4257
  761MOL0     C  354   3.572  -0.667   1.747  0.7329 -0.1823 -0.5859
  761MOL0     O  355   3.465  -0.728   1.806  0.4882 -0.1446 -0.8245
  761MOL0     C  356   3.335  -0.743   1.744 -0.1724 -0.0627  0.2949
  761MOL0     C  357   3.233  -0.839   1.821 -0.4540  0.3825  0.6182
  761MOL0     C  358   3.092  -0.795   1.816 -0.4904 -0.2564 -0.5863
  761MOL0     C  359   3.001  -0.908   1.866 -0.5211 -0.7089  0.3330
  761MOL0     C  360   2.858  -0.860   1.858  0.2714 -0.1022  0.0027
  761MOL0     C  361   2.762  -0.958   1.936 -0.4496 -0.5433  0.8310
  761MOL0     C  362   2.625  -0.888   1.970  0.8045 -0.3566 -0.1541
  761MOL0     C  363   2.515  -0.993   1.975  0.6685  0.7830 -0.5884
  761MOL0    Cl  364   2.502  -1.104   1.844 -0.1987  0.2691 -0.2531
  761MOL0     C  365   3.666  -0.614   1.833  0.1021  0.1328 -0.3632
  761MOL0     C  366   3.774  -0.539   1.792  0.5812  0.0679 -0.2870
  761MOL0     O  367   4.031  -0.428   1.771  0.0748  0.0889  0.2419
  761MOL0     C  368   4.116  -0.397   1.420  0.0585  0.5190  0.0959
  761MOL0     C  369   4.231  -0.374   1.346  0.7702  0.2486 -0.8981
  761MOL0     N  370   4.912  -0.376   1.053  0.3907  0.0279  0.3575
  761MOL0     N  371   5.011  -0.296   1.069 -0.2794 -1.1132  0.9917
  761MOL0     C  372   5.908   0.141   1.471  0.1182 -0.8785 -0.3132
  761MOL0     C  373   6.050   0.153   1.449  0.1753 -0.3329 -0.5432
  761MOL0     C  374   6.477   0.242   1.418  0.4164 -0.2582 -0.0169
  761MOL0     C  375   6.511   0.332   1.315  0.5296 -0.0665  0.0649
  761MOL0     C  376   6.649   0.353   1.296 -0.0742 -0.3748  1.0578
  761MOL0     C  377   6.752   0.292   1.375 -0.0288 -0.5110  0.4581
  761MOL0     O  378   6.886   0.314   1.353  0.4269 -0.4398  0.3952
  761MOL0     C  379   6.981   0.279   1.452  0.1978  0.3144  0.1703
  761MOL0     C  380   7.107   0.357   1.424  0.5402  0.0599 -0.1146
  761MOL0     C  381   7.210   0.311   1.329 -0.4458 -0.3327  0.0098
  761MOL0     C  382   7.333   0.395   1.315 -0.2787 -0.3063 -0.6476
  761MOL0     C  383   7.388   0.381   1.177 -0.2281  0.2245 -0.5826
  761MOL0     C  384   7.435   0.354   1.069 -0.0438  0.4223 -0.2783
  761MOL0     C  385   6.714   0.210   1.478  0.2930 -0.1128 -0.6334
  761MOL0     C  386   6.581   0.186   1.494 -0.2793  0.6947 -0.7275
  761MOL0     H  387   6.064   0.406   1.241  0.2803  0.3795  0.2519
  761MOL0     H  388   5.808   0.377   1.266 -0.9504 -2.6281 -1.6082
  761MOL0     H  389   5.629   0.008   1.472 -1.6507  0.0439 -1.0421
  761MOL0     H  390   5.709   0.022   1.315  1.3224 -0.9049  0.9951
  761MOL0     H  391   5.461   0.005   1.274  1.1275  0.3706 -2.7066
  761MOL0     H  392   5.517   0.166   1.237 -1.4803 -1.6339 -1.5743
  761MOL0     H  393   5.450   0.229   1.483  1.4660  0.5381 -1.3543
  761MOL0     H  394   5.371   0.071   1.485  3.0761 -0.7339 -0.1851
  761MOL0     H  395   5.204   0.240   1.436 -1.7881 -2.7280 -0.2470
  761MOL0     H  396   5.310   0.317   1.324  1.4944 -0.1152 -1.3165
  761MOL0     H  397   5.292   0.103   1.170 -0.4522  0.9654 -0.6491
  761MOL0     H  398   5.155   0.212   1.182  1.8219  0.3519 -2.1524
  761MOL0     H  399   5.072   0.072   1.374 -0.0116 -0.2421 -0.6027
  761MOL0     H  400   5.184  -0.059   1.318 -0.4000 -0.2908  3.7558
  761MOL0     H  401   4.966  -0.100   1.223  0.1098 -0.4050  1.3897
  761MOL0     H  402   4.945   0.056   1.171 -0.8271 -2.0667  1.3390
  761MOL0     H  403   5.175  -0.079   1.040 -0.5191 -2.0415 -0.0606
  761MOL0     H  404   5.050   0.020   0.975 -0.3112  1.2942  0.9606
  761MOL0     H  405   4.805  -0.113   0.892  0.6218  1.2642  1.1039
  761MOL0     H  406   4.710  -0.485   0.936  1.7564  0.3950  0.5213
  761MOL0     H  407   4.683  -0.370   0.810 -0.8437  2.8020 -0.1483
  761MOL0     H  408   4.481  -0.334   0.914 -1.2260  0.9572  1.4355
  761MOL0     H  409   4.590  -0.211   0.977 -0.7332 -0.2295 -1.9791
  761MOL0     H  410   4.506  -0.457   1.147  1.0317 -0.0692  1.9885
  761MOL0     H  411   4.651  -0.358   1.166  0.6276  2.9907 -1.1241
  761MOL0     H  412   4.363  -0.249   1.161  1.0359 -1.8985 -0.6798
  761MOL0     H  413   4.518  -0.163   1.185  0.8983  0.3160  3.9159
  761MOL0     H  414   4.431  -0.252   1.598 -0.8102 -2.0411  0.8286
  761MOL0     H  415   4.230  -0.304   1.733  0.5336  5.0917 -0.5390
  761MOL0     H  416   3.704  -0.542   1.454  1.7451  0.6459  0.3560
  761MOL0     H  417   3.487  -0.643   1.541  0.2023  1.5980 -2.0247
  761MOL0     H  418   3.335  -0.775   1.639 -2.4111  1.5463 -0.2918
  761MOL0     H  419   3.283  -0.646   1.744 -0.7522 -0.3703  0.5918
  761MOL0     H  420   3.269  -0.870   1.920 -0.6287 -1.6731  0.0846
  761MOL0     H  421   3.251  -0.926   1.757 -1.2225 -0.6537  1.7724
  761MOL0     H  422   3.066  -0.768   1.713 -1.0739  1.7197  0.0456
  761MOL0     H  423   3.087  -0.705   1.877  0.0115 -0.6760  0.0829
  761MOL0     H  424   3.010  -0.994   1.800 -0.4119  0.9926 -1.9883
  761MOL0     H  425   3.030  -0.934   1.969  5.1307  1.8603 -0.2650
  761MOL0     H  426   2.827  -0.856   1.753  0.0887  2.4922  0.0933
  761MOL0     H  427   2.849  -0.761   1.903 -0.5512  1.0778 -2.5773
  761MOL0     H  428   2.804  -0.990   2.031  2.7829 -0.2132 -0.3723
  761MOL0     H  429   2.751  -1.049   1.876  1.3985 -0.2559  0.0104
  761MOL0     H  430   2.628  -0.828   2.062  0.6143  0.3489 -0.5970
  761MOL0     H  431   2.606  -0.813   1.893  0.7015  0.9748  1.1117
  761MOL0     H  432   2.426  -0.929   1.966  1.9427  2.7020 -0.2425
  761MOL0     H  433   2.510  -1.050   2.068 -0.3619 -0.9951 -1.6689
  761MOL0     H  434   3.646  -0.617   1.939 -0.2785 -0.1653 -0.4401
  761MOL0     H  435   3.825  -0.484   1.871 -2.5010  1.9655  0.5453
  761MOL0     H  436   4.039  -0.458   1.373 -2.8022  1.9846  2.5671
  761MOL0     H  437   4.230  -0.391   1.238 -0.1061  1.9896 -1.2056
  761MOL0     H  438   5.873   0.068   1.543  0.5698 -0.7602  0.0279
  761MOL0     H  439   6.100   0.081   1.512  1.8580 -0.0337 -1.4882
  761MOL0     H  440   6.445   0.378   1.243  1.9508  0.7255 -0.7517
  761MOL0     H  441   6.680   0.407   1.207  0.8615  1.0398  2.1979
  761MOL0     H  442   6.995   0.171   1.445 -3.0531 -0.2827  1.3455
  761MOL0     H  443   6.946   0.304   1.552 -0.9813  1.4702 -0.4951
  761MOL0     H  444   7.070   0.456   1.392 -0.8375 -0.4375 -0.1369
  761MOL0     H  445   7.170   0.373   1.512  0.7303  2.2021 -0.5728
  761MOL0     H  446   7.166   0.298   1.229 -0.7667 -0.2058  0.1345
  761MOL0     H  447   7.252   0.212   1.346  0.5642 -0.1430 -1.1703
  761MOL0     H  448   7.315   0.499   1.340 -0.5005 -0.4592 -0.1733
  761MOL0     H  449   7.411   0.359   1.383  0.3373  1.6416 -0.2617
  761MOL0     H  450   7.486   0.333   0.978  1.0685  1.0578  0.1808
  761MOL0     H  451   6.787   0.168   1.547 -1.6820  0.4342  1.9857
  761MOL0     H  452   6.545   0.116   1.569  2.2638  0.5163  0.4068
  762MOL0     O  453   0.487   8.147   2.821 -0.0493 -0.0954 -0.3568
  762MOL0     C  454   0.487   8.264   2.780  0.7540 -0.7884 -0.1528
  762MOL0     O  455   0.412   8.309   2.679  0.3447 -0.9683  0.0032
  762MOL0     C  456   0.323   8.233   2.605 -0.1701  0.2112  0.7313
  762MOL0     C  457   0.205   8.185   2.655 -0.2061 -0.4664  0.1581
  762MOL0     C  458   0.101   8.130   2.578  0.7854 -0.6246  0.8111
  762MOL0     C  459   0.112   8.125   2.437 -0.1849  0.2806  1.0176
  762MOL0     O  460   0.009   8.088   2.351 -0.3196 -0.2215 -0.3087
  762MOL0     C  461   0.032   7.965   2.285 -0.4935 -0.0901  1.3967
  762MOL0     C  462  -0.098   7.884   2.311 -0.3682 -0.6185 -0.0466
  762MOL0     C  463  -0.102   7.765   2.224 -1.0561  0.0262 -0.3738
  762MOL0     C  464  -0.218   7.672   2.256 -0.0226  0.9419  0.6919
  762MOL0     C  465  -0.270   7.591   2.138  0.1684 -0.0720  0.2705
  762MOL0     C  466  -0.168   7.499   2.086 -0.5458 -0.0863 -0.2494
  762MOL0     C  467  -0.200   7.470   1.943  0.8314  0.2003  0.6241
  762MOL0     C  468  -0.109   7.372   1.875 -0.7011  0.3569 -0.3732
  762MOL0     N  469  -0.131   7.238   1.932  0.2299  0.3404 -0.1925
  762MOL0     C  470  -0.255   7.179   1.959  0.2225  0.1483 -0.1204
  762MOL0     C  471  -0.222   7.091   2.056 -0.1685 -0.4853  0.8622
  762MOL0     C  472  -0.319   6.995   2.130 -0.3517 -0.0660 -0.3229
  762MOL0     C  473  -0.419   7.070   2.225 -0.4790 -0.0917 -0.0783
  762MOL0     C  474  -0.529   6.986   2.275  0.4455  0.5365  0.2540
  762MOL0     C  475  -0.649   7.064   2.344 -0.1339 -0.4527 -0.1661
  762MOL0     O  476  -0.687   6.988   2.453  0.3901 -0.1188  0.0298
  762MOL0     C  477  -0.825   6.983   2.476 -0.1565  1.0704  0.2459
  762MOL0     C  478  -0.876   6.870   2.535  0.2252  0.0455  0.6500
  762MOL0     C  479  -1.009   6.866   2.565 -0.0675 -0.2980 -0.9857
  762MOL0     C  480  -1.097   6.980   2.539  0.2030 -0.2431 -0.2717
  762MOL0     C  481  -1.243   6.962   2.570 -0.1846 -0.4696  0.4155
  762MOL0     O  482  -1.318   7.069   2.548  0.0722  0.1078  0.0541
  762MOL0     C  483  -1.452   7.055   2.564 -0.0133  0.1835  1.0834
  762MOL0     C  484  -1.521   7.118   2.675 -0.0788  0.1170 -0.2003
  762MOL0     C  485  -1.655   7.108   2.695  0.0242  0.6064  0.5913
  762MOL0     C  486  -1.733   7.028   2.609 -0.5839  0.8453  0.0092
  762MOL0     O  487  -1.872   7.015   2.634 -0.3556 -0.2519 -1.4543
  762MOL0     C  488  -1.950   6.973   2.521  0.0289 -0.2042  0.4257
  762MOL0     C  489  -2.098   7.017   2.527 -0.0066  0.0655 -0.0206
  762MOL0     C  490  -2.174   6.914   2.616  0.2552 -0.3940 -0.0162
  762MOL0     C  491  -2.325   6.948   2.610  0.1712 -0.1957 -1.5349
  762MOL0     C  492  -2.413   6.843   2.681  0.1226 -0.5760  0.3714
  762MOL0     C  493  -2.556   6.894   2.726  0.0954  0.3379  0.3869
  762MOL0     C  494  -2.639   6.963   2.617  0.0515 -0.2437 -0.5503
  762MOL0     C  495  -2.660   6.877   2.498 -1.0666 -0.2899  0.1099
  762MOL0    Cl  496  -2.795   6.945   2.391  0.5605 -0.1337 -0.0404
  762MOL0     C  497  -1.663   6.954   2.508  0.4869  0.1339 -0.0566
  762MOL0     C  498  -1.528   6.974   2.478  0.3583  0.4912  0.3711
  762MOL0     O  499  -1.287   6.849   2.592  0.1014  0.4815  0.4267
  762MOL0     C  500  -1.038   7.096   2.490 -0.4457 -0.0421 -0.2864
  762MOL0     C  501  -0.902   7.094   2.458  0.6060  0.4061  0.4864
  762MOL0     N  502  -0.085   7.084   2.072 -0.1696  0.6255  0.1164
  762MOL0     N  503  -0.037   7.186   2.009 -0.7761  0.2987 -0.0327
  762MOL0     C  504   0.233   8.169   2.382  0.3476  0.3241 -0.2331
  762MOL0     C  505   0.338   8.224   2.466  1.0195 -0.3609 -0.2355
  762MOL0     C  506   0.556   8.365   2.871  0.1690  0.4345  0.1942
  762MOL0     C  507   0.549   8.498   2.859 -0.2771 -0.6593  0.3510
  762MOL0     C  508   0.621   8.588   2.944 -0.0209  0.2934 -0.3825
  762MOL0     C  509   0.710   8.543   3.046 -0.3321  0.4829 -0.2728
  762MOL0     O  510   0.793   8.637   3.108 -0.3949  0.4132  0.2097
  762MOL0     C  511   0.881   8.593   3.216  0.1819 -1.0746  0.5916
  762MOL0     C  512   0.811   8.557   3.345 -0.6458 -0.1563 -0.6635
  762MOL0     C  513   0.751   8.680   3.410  0.5699  1.0368 -0.1526
  762MOL0     C  514   0.715   8.642   3.555  0.0061 -0.0846 -0.9254
  762MOL0     C  515   0.586   8.700   3.592 -0.2139  0.0246 -0.2825
  762MOL0     C  516   0.479   8.744   3.618  0.3448 -0.7742 -0.0790
  762MOL0     C  517   0.712   8.402   3.075 -0.1840  0.0756 -0.0345
  762MOL0     C  518   0.641   8.319   2.977  0.1870 -0.4604  0.5374
  762MOL0     H  519   0.185   8.199   2.761 -0.1680  1.2150 -0.0244
  762MOL0     H  520   0.008   8.093   2.621 -0.5801 -0.1557 -1.5988
  762MOL0     H  521   0.112   7.896   2.314  0.2818 -0.6023 -1.6230
  762MOL0     H  522   0.042   7.969   2.176  1.0868 -0.1738  1.5217
  762MOL0     H  523  -0.187   7.946   2.302 -1.4114 -2.1917 -0.9917
  762MOL0     H  524  -0.101   7.853   2.416 -1.8805 -0.4058 -0.0046
  762MOL0     H  525  -0.010   7.706   2.219 -0.1342  1.4007 -0.2317
  762MOL0     H  526  -0.113   7.810   2.125 -0.2507  0.2480 -0.3678
  762MOL0     H  527  -0.182   7.611   2.339  0.7002  0.7980  0.2807
  762MOL0     H  528  -0.301   7.736   2.288  1.1501  2.8079  0.2092
  762MOL0     H  529  -0.298   7.667   2.064 -1.5317 -2.3140 -1.5444
  762MOL0     H  530  -0.364   7.544   2.167  0.8724 -0.3010  2.3636
  762MOL0     H  531  -0.180   7.407   2.144 -4.9675  1.7240  2.2612
  762MOL0     H  532  -0.064   7.532   2.090 -0.1830 -0.5859 -3.3865
  762MOL0     H  533  -0.304   7.437   1.934  1.2677 -0.7283 -1.5837
  762MOL0     H  534  -0.185   7.565   1.892  2.7446 -1.2081 -1.7075
  762MOL0     H  535  -0.008   7.414   1.873 -0.3786 -0.4184 -0.8626
  762MOL0     H  536  -0.125   7.365   1.767 -0.9294 -3.4722 -0.2233
  762MOL0     H  537  -0.351   7.198   1.913  1.7325  3.1709 -2.3903
  762MOL0     H  538  -0.263   6.918   2.184  0.8479  0.8101 -0.2978
  762MOL0     H  539  -0.386   6.948   2.056 -1.4115 -0.0683  0.6015
  762MOL0     H  540  -0.467   7.153   2.172  0.6517  0.4735 -0.2449
  762MOL0     H  541  -0.371   7.109   2.315 -0.5525  0.9199 -0.4582
  762MOL0     H  542  -0.565   6.912   2.202 -1.8290 -1.1152  2.8540
  762MOL0     H  543  -0.476   6.930   2.352 -0.3193  1.5570  1.5597
  762MOL0     H  544  -0.737   7.087   2.283 -0.2382  0.1891  0.2162
  762MOL0     H  545  -0.622   7.167   2.371 -1.8109  0.1607 -0.6464
  762MOL0     H  546  -0.809   6.788   2.558 -0.1581  0.2783  2.8176
  762MOL0     H  547  -1.044   6.772   2.606  1.3866 -0.2213  0.5320
  762MOL0     H  548  -1.467   7.190   2.736  1.7636 -0.7852 -0.6967
  762MOL0     H  549  -1.696   7.147   2.787  0.6240 -1.0549  1.6080
  762MOL0     H  550  -1.945   6.866   2.499  2.9638 -0.1582  0.3779
  762MOL0     H  551  -1.911   7.012   2.426  0.4454 -0.4031  0.5111
  762MOL0     H  552  -2.146   7.016   2.429 -0.6793  0.9221  0.2899
  762MOL0     H  553  -2.105   7.122   2.559 -0.1227  0.8330 -2.3399
  762MOL0     H  554  -2.138   6.920   2.720 -0.3695  1.5387  0.1198
  762MOL0     H  555  -2.158   6.813   2.576  2.5403 -0.9264  2.0013
  762MOL0     H  556  -2.343   7.050   2.646 -1.7547 -0.7619 -0.7313
  762MOL0     H  557  -2.361   6.956   2.507 -1.3039  4.8014 -0.9365
  762MOL0     H  558  -2.372   6.818   2.780  0.2887 -1.5021  0.0798
  762MOL0     H  559  -2.440   6.753   2.624 -1.7513  0.3438 -0.2758
  762MOL0     H  560  -2.540   6.969   2.804 -1.3426 -0.1712  1.2118
  762MOL0     H  561  -2.612   6.808   2.765  0.5411 -0.5135 -0.7866
  762MOL0     H  562  -2.734   6.989   2.665 -0.1032 -1.1375 -0.3373
  762MOL0     H  563  -2.585   7.056   2.597 -1.9019  1.3287  1.0254
  762MOL0     H  564  -2.683   6.775   2.532  1.9629  0.4380  5.6036
  762MOL0     H  565  -2.568   6.882   2.440  1.0578 -0.0800  3.2589
  762MOL0     H  566  -1.721   6.891   2.441  1.1639 -0.3444 -0.2024
  762MOL0     H  567  -1.478   6.932   2.391 -2.7715  0.3181 -1.5037
  762MOL0     H  568  -1.091   7.189   2.470  2.2567  0.9169 -3.8937
  762MOL0     H  569  -0.866   7.192   2.430  0.1727  0.6343  0.7136
  762MOL0     H  570   0.253   8.174   2.275  1.4131  4.2647 -0.0080
  762MOL0     H  571   0.429   8.266   2.426 -0.6604  3.7812 -0.2349
  762MOL0     H  572   0.486   8.549   2.788  0.6878 -1.4790 -1.1586
  762MOL0     H  573   0.613   8.696   2.937  2.9699  0.7842  1.8923
  762MOL0     H  574   0.954   8.672   3.233 -0.7617 -0.0267 -0.1102
  762MOL0     H  575   0.942   8.508   3.183  0.9416  0.8963 -3.7736
  762MOL0     H  576   0.730   8.483   3.348 -0.3287 -0.4775  0.4133
  762MOL0     H  577   0.887   8.516   3.412 -2.9061 -2.0800  0.9152
  762MOL0     H  578   0.656   8.711   3.365  0.4644 -0.1295 -0.7887
  762MOL0     H  579   0.824   8.761   3.410 -1.2071  2.7148 -0.5850
  762MOL0     H  580   0.710   8.535   3.575 -2.7155  0.2814  0.9285
  762MOL0     H  581   0.795   8.683   3.617  0.4231  1.2810 -2.3196
  762MOL0     H  582   0.383   8.786   3.641  1.3101  0.4448  2.0234
  762MOL0     H  583   0.760   8.341   3.150 -2.2165 -0.9432  0.5045
  762MOL0     H  584   0.652   8.216   3.010  0.9380 -0.0663  1.5861
  763MOL0     O  585   2.190  10.517  10.828 -0.8325 -0.1627 -0.8164
  763MOL0     C  586   2.219  10.500  10.707  0.4121 -0.6418 -0.4514
  763MOL0     O  587   2.141  10.535  10.595 -0.5195 -0.5063  0.2434
  763MOL0     C  588   2.015  10.592  10.611 -0.4070  0.2458 -0.3308
  763MOL0     C  589   1.961  10.663  10.725 -1.0482  0.1112  0.5936
  763MOL0     C  590   1.833  10.715  10.724  0.6764  0.8095  0.5897
  763MOL0     C  591   1.757  10.703  10.606  0.1206  0.0676  0.3958
  763MOL0     O  592   1.630  10.753  10.585  0.0524 -0.3846 -0.4217
  763MOL0     C  593   1.571  10.847  10.678  0.6714 -0.0601 -0.5762
  763MOL0     C  594   1.454  10.773  10.755 -1.2470 -0.0963 -0.3009
  763MOL0     C  595   1.333  10.756  10.668 -0.1449  0.2075 -0.0893
  763MOL0     C  596   1.240  10.684  10.761  0.3108  0.3222 -0.1001
  763MOL0     C  597   1.105  10.675  10.704  0.3366  0.6654  0.4068
  763MOL0     C  598   1.088  10.578  10.586 -0.7157 -0.3566  0.8416
  763MOL0     C  599   0.950  10.579  10.535 -0.3844 -0.0220 -0.1057
  763MOL0     C  600   0.924  10.443  10.458  0.5015 -0.0702  0.6476
  763MOL0     N  601   0.794  10.443  10.382 -0.1749 -0.1793  0.2300
  763MOL0     C  602   0.669  10.443  10.438  0.2796  0.6584 -0.5719
  763MOL0     C  603   0.588  10.450  10.325 -1.3682  0.7299  0.2899
  763MOL0     C  604   0.446  10.436  10.321  0.3190  1.1908  0.2605
  763MOL0     C  605   0.363  10.434  10.452  0.7556  1.0065 -0.0050
  763MOL0     C  606   0.215  10.395  10.417 -0.0162  0.4450 -0.3096
  763MOL0     C  607   0.137  10.464  10.306  0.1623 -1.0010  0.4328
  763MOL0     O  608   0.103  10.596  10.341  0.5691 -0.3859  0.3504
  763MOL0     C  609  -0.027  10.635  10.323 -0.2058 -0.2236  0.2250
  763MOL0     C  610  -0.124  10.571  10.392 -0.5234  0.4852  0.3605
  763MOL0     C  611  -0.259  10.620  10.387  0.6653  0.1417  0.1772
  763MOL0     C  612  -0.292  10.737  10.308 -0.9611  0.0533 -0.1492
  763MOL0     C  613  -0.431  10.788  10.291  0.1328  0.3357  0.0486
  763MOL0     O  614  -0.518  10.693  10.345  0.2570 -0.2814  0.3090
  763MOL0     C  615  -0.660  10.708  10.358  0.2959 -1.6724 -0.4966
  763MOL0     C  616  -0.741  10.810  10.323  0.2198 -0.6689  0.2590
  763MOL0     C  617  -0.873  10.821  10.349 -0.2743  0.1022 -1.0396
  763MOL0     C  618  -0.943  10.722  10.416  0.0999 -0.2198  0.4102
  763MOL0     O  619  -1.073  10.745  10.438 -0.5526 -0.0205  0.2919
  763MOL0     C  620  -1.132  10.658  10.536  1.1248 -0.7385  0.2496
  763MOL0     C  621  -1.210  10.543  10.468 -0.0008 -0.5692  0.1458
  763MOL0     C  622  -1.325  10.591  10.384  0.1204 -0.5343  0.1349
  763MOL0     C  623  -1.450  10.558  10.458  0.5238 -0.0782  0.1263
  763MOL0     C  624  -1.568  10.617  10.384  0.1726  0.2361  0.2725
  763MOL0     C  625  -1.684  10.642  10.475 -0.2954 -0.5242 -0.6011
  763MOL0     C  626  -1.799  10.710  10.411 -0.9580 -0.0174 -0.5457
  763MOL0     C  627  -1.898  10.786  10.495 -0.8448  0.2669  0.4845
  763MOL0    Cl  628  -1.958  10.678  10.625 -0.0823  0.0025 -0.0982
  763MOL0     C  629  -0.881  10.602  10.429 -0.2535 -0.7163  0.7483
  763MOL0     C  630  -0.735  10.602  10.413  0.1458 -0.6228  0.2883
  763MOL0     O  631  -0.458  10.885  10.224  0.1105 -0.2202  0.0825
  763MOL0     C  632  -0.183  10.811  10.253  0.2204 -0.1444 -0.3969
  763MOL0     C  633  -0.058  10.752  10.253  0.2844  0.5748 -0.3641
  763MOL0     N  634   0.675  10.430  10.206 -0.2044 -0.7250 -0.2316
  763MOL0     N  635   0.796  10.416  10.250 -0.4770 -1.3227 -0.4327
  763MOL0     C  636   1.798  10.623  10.502 -0.0105 -0.2565 -0.4907
  763MOL0     C  637   1.931  10.570  10.510  0.2083  0.9719  0.2606
  763MOL0     C  638   2.357  10.450  10.682 -0.1380 -0.0101  0.4827
  763MOL0     C  639   2.450  10.455  10.787  0.4193 -0.5010 -1.2705
  763MOL0     C  640   2.578  10.410  10.771 -0.1846 -0.5873  1.1941
  763MOL0     C  641   2.621  10.365  10.651 -1.0147  0.7916  0.2869
  763MOL0     O  642   2.739  10.301  10.629  0.1717  0.1946  0.3999
  763MOL0     C  643   2.795  10.232  10.737  0.5419 -0.1300  0.1005
  763MOL0     C  644   2.912  10.155  10.669  0.3195  1.1590 -0.3220
  763MOL0     C  645   3.023  10.249  10.612  0.5270  0.2929  0.4982
  763MOL0     C  646   3.127  10.167  10.536  0.1058  0.4870  0.5123
  763MOL0     C  647   3.244  10.242  10.492 -0.5982 -0.2184  0.5630
  763MOL0     C  648   3.339  10.307  10.447  0.4028  0.5273  0.4179
  763MOL0     C  649   2.540  10.389  10.535 -0.4702  0.5208 -0.6817
  763MOL0     C  650   2.409  10.423  10.552  0.2224  0.3177  0.4410
  763MOL0     H  651   2.016  10.683  10.816  1.0632  1.0909 -0.8295
  763MOL0     H  652   1.806  10.750  10.823  0.0940  1.4610  0.2028
  763MOL0     H  653   1.533  10.943  10.641 -3.2692 -1.6164 -0.9955
  763MOL0     H  654   1.649  10.873  10.751  0.7019 -0.2913 -0.5266
  763MOL0     H  655   1.418  10.833  10.840 -1.0887 -0.8892  0.3405
  763MOL0     H  656   1.498  10.681  10.793  1.3331 -0.3891 -3.5949
  763MOL0     H  657   1.364  10.703  10.578  0.2453 -2.0940  1.3324
  763MOL0     H  658   1.289  10.850  10.634 -0.4271 -0.6080 -2.1087
  763MOL0     H  659   1.285  10.585  10.769 -1.8564 -0.9419 -2.0577
  763MOL0     H  660   1.224  10.732  10.858 -1.3923 -0.2021 -0.0794
  763MOL0     H  661   1.064  10.775  10.687 -2.2649 -0.3697  0.1907
  763MOL0     H  662   1.048  10.632  10.787 -0.1078 -1.1531 -0.7706
  763MOL0     H  663   1.135  10.482  10.610  2.7507  0.8479 -0.4265
  763MOL0     H  664   1.144  10.606  10.496 -0.9889  0.7619  1.0056
  763MOL0     H  665   0.889  10.584  10.626 -0.4123  1.7458 -0.1931
  763MOL0     H  666   0.929  10.671  10.479 -2.7300 -0.2516  0.2973
  763MOL0     H  667   0.921  10.359  10.528  0.9621  0.8561  1.8084
  763MOL0     H  668   1.003  10.436  10.383 -0.9612 -0.7573 -0.8935
  763MOL0     H  669   0.647  10.443  10.545  0.6764 -0.6618 -0.4736
  763MOL0     H  670   0.427  10.349  10.259 -1.3148  2.7784 -1.6282
  763MOL0     H  671   0.411  10.512  10.251 -2.3327 -0.5641 -0.4760
  763MOL0     H  672   0.361  10.518  10.522 -2.5210  0.6765  0.4663
  763MOL0     H  673   0.406  10.352  10.510 -0.3338  1.2607  1.2133
  763MOL0     H  674   0.213  10.294  10.375  0.5809  0.2159  0.1964
  763MOL0     H  675   0.155  10.393  10.509  1.9698  0.2724  1.0552
  763MOL0     H  676   0.046  10.405  10.287  0.5569 -0.9921 -1.6867
  763MOL0     H  677   0.196  10.470  10.215 -3.3037  3.3962 -1.9319
  763MOL0     H  678  -0.102  10.488  10.458  0.1933  0.8162  0.5430
  763MOL0     H  679  -0.333  10.561  10.439 -1.6376  0.5842 -2.3783
  763MOL0     H  680  -0.692  10.885  10.261  0.6790 -1.0209  0.1963
  763MOL0     H  681  -0.921  10.917  10.332 -2.5624  0.0737  3.4481
  763MOL0     H  682  -1.211  10.722  10.577  0.8871 -1.7688  1.4415
  763MOL0     H  683  -1.071  10.626  10.621  0.0987  0.5085  1.4979
  763MOL0     H  684  -1.239  10.469  10.543  0.0058 -3.4447 -2.4756
  763MOL0     H  685  -1.143  10.484  10.405 -2.9599 -0.5127 -3.3367
  763MOL0     H  686  -1.320  10.536  10.291 -1.9018 -4.2442  2.0173
  763MOL0     H  687  -1.317  10.696  10.353  0.9817  0.5022  3.4164
  763MOL0     H  688  -1.474  10.453  10.477  1.1978 -0.1812  0.4439
  763MOL0     H  689  -1.445  10.617  10.550 -1.8933 -2.0666  1.6352
  763MOL0     H  690  -1.592  10.553  10.299  1.2799 -0.3691  0.3949
  763MOL0     H  691  -1.529  10.709  10.341  3.4576 -1.7356 -1.3870
  763MOL0     H  692  -1.651  10.703  10.560 -3.2451  2.8696 -1.6125
  763MOL0     H  693  -1.720  10.546  10.513 -0.5931 -0.7570 -1.4497
  763MOL0     H  694  -1.768  10.770  10.324  2.2928 -0.3149  0.2712
  763MOL0     H  695  -1.846  10.621  10.369  3.2834 -1.2008 -3.4880
  763MOL0     H  696  -1.979  10.803  10.423  1.1112 -0.4040 -2.0398
  763MOL0     H  697  -1.852  10.880  10.527  1.0223 -0.3440 -0.2485
  763MOL0     H  698  -0.919  10.506  10.463  0.6516 -1.9867 -1.5974
  763MOL0     H  699  -0.678  10.510  10.427  0.0973 -0.7009 -0.0269
  763MOL0     H  700  -0.192  10.899  10.190  0.4434  0.7444  0.7704
  763MOL0     H  701   0.022  10.805  10.202  2.0250 -0.8119  0.8287
  763MOL0     H  702   1.736  10.597  10.418  0.5337  1.5087 -1.4962
  763MOL0     H  703   1.961  10.509  10.425 -0.7180  2.0833 -0.9249
  763MOL0     H  704   2.419  10.482  10.887  0.0816  1.0094 -1.7651
  763MOL0     H  705   2.650  10.401  10.852  1.9936  0.8130 -0.4725
  763MOL0     H  706   2.733  10.167  10.799  0.5572  1.4987  1.8993
  763MOL0     H  707   2.850  10.303  10.800 -0.7984  2.3931 -1.3889
  763MOL0     H  708   2.961  10.092  10.743  0.8000  1.3369 -0.4803
  763MOL0     H  709   2.862  10.093  10.594  1.6118  2.0898 -2.0434
  763MOL0     H  710   3.073  10.302  10.694  1.4321  1.0164 -0.4958
  763MOL0     H  711   2.975  10.327  10.552  0.8127  1.9860  2.3400
  763MOL0     H  712   3.159  10.084  10.599 -1.9531 -0.5468  0.2726
  763MOL0     H  713   3.083  10.117  10.449  2.0797  2.3485 -1.7130
  763MOL0     H  714   3.430  10.356  10.419 -0.4105  1.5880 -0.4671
  763MOL0     H  715   2.574  10.366  10.435  0.9084  0.8405 -0.3064
  763MOL0     H  716   2.338  10.423  10.470  2.0223  1.9148 -1.1880
  764MOL0     O  717   6.340  10.484   1.827 -0.1683  0.0132 -0.0743
  764MOL0     C  718   6.402  10.487   1.933 -0.3061  0.0844  0.4963
  764MOL0     O  719   6.351  10.468   2.054 -0.1052  0.3914 -0.0322
  764MOL0     C  720   6.220  10.501   2.082  0.1691 -0.4034 -0.8405
  764MOL0     C  721   6.137  10.600   2.018 -0.5114 -0.4676  0.0201
  764MOL0     C  722   6.010  10.618   2.051 -0.4221 -0.0907  0.1488
  764MOL0     C  723   5.951  10.548   2.162 -0.0135 -0.2676  0.4397
  764MOL0     O  724   5.816  10.574   2.181 -0.3078  0.2584 -0.7016
  764MOL0     C  725   5.735  10.500   2.280 -0.0959 -0.4344  0.3376
  764MOL0     C  726   5.595  10.545   2.280 -0.1300  0.3396 -0.1281
  764MOL0     C  727   5.560  10.693   2.290 -0.6935 -0.1860  0.6184
  764MOL0     C  728   5.632  10.753   2.415 -0.3038 -0.1347  0.0456
  764MOL0     C  729   5.576  10.890   2.439 -0.6560 -0.1467 -0.5419
  764MOL0     C  730   5.649  10.964   2.548 -0.1849  0.2268  0.0996
  764MOL0     C  731   5.573  11.090   2.585 -0.1359  0.2795  0.1605
  764MOL0     C  732   5.616  11.163   2.707 -0.6747  0.5426  0.0724
  764MOL0     N  733   5.588  11.090   2.829 -0.3364 -0.3367 -0.1851
  764MOL0     C  734   5.502  11.134   2.925  0.1959  0.0845  0.5136
  764MOL0     C  735   5.519  11.053   3.024 -0.3374  0.1646 -0.0543
  764MOL0     C  736   5.439  11.056   3.157  0.2430 -0.7441  1.1673
  764MOL0     C  737   5.313  10.956   3.159 -0.2033 -0.6410  0.4879
  764MOL0     C  738   5.190  11.016   3.078 -0.0530  0.0220 -0.0657
  764MOL0     C  739   5.060  10.955   3.104  1.1799  0.1620 -0.1697
  764MOL0     O  740   5.023  10.991   3.238 -0.5816  0.8680 -0.1967
  764MOL0     C  741   4.896  10.945   3.280 -0.1313  0.5830  0.0766
  764MOL0     C  742   4.869  10.807   3.290  0.6510 -0.7503  0.4826
  764MOL0     C  743   4.745  10.751   3.337 -0.8165 -0.3313  0.2373
  764MOL0     C  744   4.634  10.841   3.371  0.0832  0.0879  0.0091
  764MOL0     C  745   4.511  10.793   3.416 -0.7988  0.3743 -0.2163
  764MOL0     O  746   4.513  10.668   3.466  0.6349  0.3030 -0.2164
  764MOL0     C  747   4.398  10.625   3.525  0.6531 -0.0300 -0.5020
  764MOL0     C  748   4.386  10.629   3.670  0.0160 -0.8516  0.3993
  764MOL0     C  749   4.274  10.575   3.735  0.4388 -0.0880 -0.4896
  764MOL0     C  750   4.166  10.532   3.655 -0.5207 -0.3784 -0.3569
  764MOL0     O  751   4.050  10.498   3.720 -0.1842  0.5386  0.1691
  764MOL0     C  752   3.934  10.570   3.680  0.2885 -0.3428  0.1960
  764MOL0     C  753   3.809  10.494   3.715  0.5028 -0.1098 -0.0252
  764MOL0     C  754   3.698  10.590   3.729  0.4234  0.3377 -0.2421
  764MOL0     C  755   3.571  10.517   3.769  0.2186 -1.0551 -1.0590
  764MOL0     C  756   3.450  10.616   3.763 -0.6792  0.6333  0.0835
  764MOL0     C  757   3.344  10.548   3.857  0.1590  0.2534  0.9589
  764MOL0     C  758   3.257  10.437   3.789  0.4542 -0.0753 -0.3867
  764MOL0     C  759   3.134  10.409   3.875  0.7305  0.1361  0.3589
  764MOL0    Cl  760   3.029  10.316   3.770 -0.4066  0.0581  0.2383
  764MOL0     C  761   4.182  10.523   3.516  0.5320  0.2623 -0.5582
  764MOL0     C  762   4.295  10.570   3.451 -0.5289 -0.4804 -0.2708
  764MOL0     O  763   4.411  10.863   3.407  0.3117 -0.2583 -1.0402
  764MOL0     C  764   4.661  10.984   3.360 -0.3503  1.2960 -0.3367
  764MOL0     C  765   4.788  11.025   3.316 -0.1703  0.6515 -1.1232
  764MOL0     N  766   5.607  10.954   2.992 -0.2722  0.0760 -0.2936
  764MOL0     N  767   5.655  10.976   2.876 -0.3574  0.0868 -0.2468
  764MOL0     C  768   6.023  10.463   2.235 -0.7232 -0.2648 -0.7121
  764MOL0     C  769   6.159  10.439   2.198 -0.2938  0.6775  0.1001
  764MOL0     C  770   6.545  10.487   1.933 -0.5870 -0.2658 -0.3363
  764MOL0     C  771   6.619  10.427   2.040  0.0357  0.3873 -0.1392
  764MOL0     C  772   6.766  10.431   2.038 -0.1194  0.0383  0.1316
  764MOL0     C  773   6.833  10.476   1.923 -0.6489 -0.5555  0.0010
  764MOL0     O  774   6.973  10.466   1.928 -0.8202 -0.4017  0.9216
  764MOL0     C  775   7.050  10.535   1.826 -0.2999  1.0705 -0.0196
  764MOL0     C  776   7.193  10.486   1.851 -0.4427 -0.0251  0.6119
  764MOL0     C  777   7.296  10.538   1.744 -0.4661  0.6502 -0.7347
  764MOL0     C  778   7.439  10.513   1.810 -0.1340  0.3809  0.5987
  764MOL0     C  779   7.535  10.551   1.712 -0.6634  0.1231 -0.5730
  764MOL0     C  780   7.619  10.600   1.641  0.2325 -0.0158  0.4049
  764MOL0     C  781   6.754  10.540   1.824  0.6226  0.2433  0.8121
  764MOL0     C  782   6.612  10.551   1.830 -0.3962  0.2348 -0.0408
  764MOL0     H  783   6.185  10.657   1.939 -4.0222  3.9788  0.7248
  764MOL0     H  784   5.943  10.696   2.016  0.5502  1.1041  0.8912
  764MOL0     H  785   5.783  10.504   2.378  2.1264 -0.6715 -0.6771
  764MOL0     H  786   5.744  10.394   2.255  2.1164  0.2258 -2.0798
  764MOL0     H  787   5.537  10.488   2.353  1.8994 -2.4028 -0.5093
  764MOL0     H  788   5.558  10.512   2.183 -0.8009  2.5425 -0.6802
  764MOL0     H  789   5.452  10.710   2.300 -0.6541 -0.7109  2.2455
  764MOL0     H  790   5.595  10.746   2.201  2.1765  1.8100  2.7456
  764MOL0     H  791   5.622  10.684   2.499 -0.9138 -0.2657 -0.1327
  764MOL0     H  792   5.740  10.763   2.401 -0.3970 -1.3810 -1.8988
  764MOL0     H  793   5.469  10.882   2.461 -0.2516 -3.4838  0.7933
  764MOL0     H  794   5.576  10.953   2.349 -1.2781  0.9857  0.2254
  764MOL0     H  795   5.748  10.993   2.511 -1.2239  2.0144 -1.4244
  764MOL0     H  796   5.663  10.907   2.640  1.3495  1.8909  0.9724
  764MOL0     H  797   5.591  11.164   2.506  1.1630  0.0163  0.1813
  764MOL0     H  798   5.466  11.066   2.587  0.1630 -1.2582 -0.7885
  764MOL0     H  799   5.558  11.255   2.719  0.0393  0.7793  2.0176
  764MOL0     H  800   5.724  11.181   2.697 -0.1833 -1.3440  1.4370
  764MOL0     H  801   5.445  11.227   2.922 -2.9346 -1.6976 -0.1110
  764MOL0     H  802   5.408  11.159   3.176  1.1397 -0.5077  1.4074
  764MOL0     H  803   5.503  11.025   3.241  1.0751  1.6003  1.4764
  764MOL0     H  804   5.281  10.928   3.260 -0.8484  3.1919  1.4834
  764MOL0     H  805   5.341  10.855   3.126  0.9821 -0.0635 -0.3326
  764MOL0     H  806   5.181  11.122   3.104  0.9142  1.1398 -3.7360
  764MOL0     H  807   5.203  11.005   2.970 -0.4577  0.3558 -0.1461
  764MOL0     H  808   5.077  10.850   3.079  1.2330  0.5321 -1.7978
  764MOL0     H  809   4.980  10.993   3.041  0.0815  1.9281  2.1261
  764MOL0     H  810   4.945  10.741   3.248  1.4571  0.6527 -0.3327
  764MOL0     H  811   4.726  10.644   3.336 -0.5825 -0.4860  3.4471
  764MOL0     H  812   4.474  10.676   3.713  1.3193 -2.3263 -0.5513
  764MOL0     H  813   4.265  10.573   3.843 -2.2714  1.7029 -0.5760
  764MOL0     H  814   3.921  10.577   3.571 -1.4753  2.0371  0.4763
  764MOL0     H  815   3.934  10.670   3.724 -3.4521  0.5466 -1.4637
  764MOL0     H  816   3.825  10.435   3.806  0.7479 -0.5576 -0.3523
  764MOL0     H  817   3.789  10.413   3.644 -0.3599 -1.9778  2.2109
  764MOL0     H  818   3.678  10.639   3.633 -0.9556 -0.5319 -0.4187
  764MOL0     H  819   3.711  10.668   3.805 -2.3454  0.1015  0.5962
  764MOL0     H  820   3.551  10.433   3.702  1.3817 -0.6164 -1.9968
  764MOL0     H  821   3.578  10.471   3.867 -0.9792  0.1041 -0.3896
  764MOL0     H  822   3.426  10.619   3.657 -0.8988 -0.7663  0.0728
  764MOL0     H  823   3.495  10.709   3.799 -0.6971  0.9369 -0.6801
  764MOL0     H  824   3.274  10.630   3.873 -0.6808 -0.0836 -0.7725
  764MOL0     H  825   3.387  10.505   3.949 -1.1020 -0.6399  1.1557
  764MOL0     H  826   3.241  10.462   3.684 -2.5107  0.3473  0.0600
  764MOL0     H  827   3.308  10.340   3.783  0.8280  0.1831 -1.6417
  764MOL0     H  828   3.081  10.502   3.897  1.6213  0.8200 -0.2826
  764MOL0     H  829   3.145  10.359   3.972  0.0541 -2.3793 -0.7690
  764MOL0     H  830   4.110  10.498   3.438  3.2058 -2.0650 -2.4919
  764MOL0     H  831   4.326  10.564   3.347  3.2178  0.5784  0.6293
  764MOL0     H  832   4.585  11.056   3.390  0.1928  0.2586  4.1924
  764MOL0     H  833   4.808  11.132   3.324  3.3805 -0.0183  1.4055
  764MOL0     H  834   5.986  10.403   2.318 -2.0709  1.1172 -0.2714
  764MOL0     H  835   6.205  10.357   2.252 -2.4751 -0.1725  0.7849
  764MOL0     H  836   6.557  10.380   2.116 -1.0564  0.8168 -0.7326
  764MOL0     H  837   6.818  10.389   2.123  0.4080  0.7319  0.1586
  764MOL0     H  838   7.039  10.643   1.830 -0.2910  1.0595  0.3816
  764MOL0     H  839   7.019  10.523   1.722  3.0624  3.6976 -1.5152
  764MOL0     H  840   7.232  10.526   1.945  1.8333  0.9127 -0.6568
  764MOL0     H  841   7.186  10.377   1.848 -3.6644  0.0908 -0.8252
  764MOL0     H  842   7.282  10.645   1.730  0.5721  1.2790  2.3265
  764MOL0     H  843   7.288  10.490   1.645  1.8780  1.5391 -1.4056
  764MOL0     H  844   7.446  10.583   1.894  1.2776  1.4927 -0.3871
  764MOL0     H  845   7.454  10.410   1.844  1.7123  0.3518 -0.1937
  764MOL0     H  846   7.690  10.647   1.576 -1.9983  3.4062  0.1675
  764MOL0     H  847   6.793  10.579   1.730  1.7110 -0.2090  1.0557
  764MOL0     H  848   6.561  10.595   1.745 -0.5129 -4.3423 -2.6642
  765MOL0     O  849   1.551  11.157  10.435  0.1583 -0.7410  0.9222
  765MOL0     C  850   1.611  11.252  10.487 -0.8052  0.4608 -0.9900
  765MOL0     O  851   1.562  11.361  10.565 -0.1224 -0.1214  0.4560
  765MOL0     C  852   1.425  11.386  10.576 -0.5829  0.0430 -1.0368
  765MOL0     C  853   1.392  11.522  10.595 -1.1245 -0.5719 -0.1904
  765MOL0     C  854   1.256  11.558  10.621 -0.0942 -0.3716  0.8657
  765MOL0     C  855   1.151  11.468  10.621  0.8751 -0.6740 -0.3228
  765MOL0     O  856   1.024  11.522  10.623 -0.2818 -0.1545  0.2133
  765MOL0     C  857   0.914  11.450  10.579  0.2999 -0.6030  0.2126
  765MOL0     C  858   0.796  11.547  10.567 -0.5011  0.6827  0.1867
  765MOL0     C  859   0.809  11.623  10.432  0.5148  0.3870  0.2563
  765MOL0     C  860   0.687  11.712  10.413 -0.2280  0.2841  0.7990
  765MOL0     C  861   0.670  11.785  10.266 -1.0484  0.5365 -0.0655
  765MOL0     C  862   0.689  11.694  10.145  0.3966 -0.2521 -0.1700
  765MOL0     C  863   0.666  11.774  10.016 -0.9240  0.6784  0.4780
  765MOL0     C  864   0.527  11.834  10.011 -0.2125 -0.2549  0.5303
  765MOL0     N  865   0.487  11.878   9.879  0.1848 -0.1279 -1.0396
  765MOL0     C  866   0.476  11.794   9.770 -0.4637 -0.4192  0.2839
  765MOL0     C  867   0.389  11.857   9.682 -1.0375 -0.8706 -1.0040
  765MOL0     C  868   0.336  11.796   9.558 -0.9128 -0.5897  0.6905
  765MOL0     C  869   0.218  11.862   9.493 -0.2803  0.5578  0.1775
  765MOL0     C  870   0.271  11.969   9.393  0.6766  0.4078  0.1419
  765MOL0     C  871   0.151  12.038   9.322  0.9286  0.4221 -0.7946
  765MOL0     O  872   0.193  12.131   9.225  0.3308 -0.1902 -0.2605
  765MOL0     C  873   0.325  12.158   9.199  0.1239  0.3792 -0.2396
  765MOL0     C  874   0.378  12.273   9.265 -0.1828  0.8752  0.1377
  765MOL0     C  875   0.513  12.295   9.238 -0.3615  0.2226 -0.2065
  765MOL0     C  876   0.589  12.220   9.140  0.8803 -0.8542 -0.1475
  765MOL0     C  877   0.733  12.262   9.131  0.2598  0.7169 -0.0291
  765MOL0     O  878   0.781  12.352   9.215 -0.6582  0.3584 -1.0174
  765MOL0     C  879   0.905  12.415   9.204  0.0331 -1.2685 -0.8038
  765MOL0     C  880   0.937  12.512   9.302  0.2161 -0.0426 -0.7851
  765MOL0     C  881   1.058  12.578   9.313  0.3998 -0.3330 -0.1321
  765MOL0     C  882   1.167  12.556   9.221 -0.0014 -0.3842 -0.4035
  765MOL0     O  883   1.270  12.642   9.231 -0.7476 -0.1050  0.0130
  765MOL0     C  884   1.383  12.631   9.145 -1.2586  0.6674 -0.2186
  765MOL0     C  885   1.512  12.673   9.222 -0.6626 -0.6238 -0.4191
  765MOL0     C  886   1.565  12.563   9.325  0.4113  0.8124 -0.2569
  765MOL0     C  887   1.692  12.582   9.396 -0.4161 -0.4654  0.3056
  765MOL0     C  888   1.808  12.529   9.298  0.2431 -0.4082  0.6626
  765MOL0     C  889   1.941  12.528   9.371  0.2476 -1.1494  0.1352
  765MOL0     C  890   1.998  12.675   9.397  0.4676  0.2817  0.5407
  765MOL0     C  891   2.106  12.700   9.509  0.4897  0.3683  0.5593
  765MOL0    Cl  892   2.254  12.605   9.469  0.6101  0.2762  0.3806
  765MOL0     C  893   1.136  12.459   9.123  0.1044 -0.0600 -0.4755
  765MOL0     C  894   1.016  12.390   9.117  0.3729 -0.1469  0.1254
  765MOL0     O  895   0.798  12.209   9.045 -0.0605 -0.7381 -0.2927
  765MOL0     C  896   0.529  12.117   9.063  1.1060  0.8013 -0.1344
  765MOL0     C  897   0.391  12.081   9.100 -0.1228  0.1205  0.6436
  765MOL0     N  898   0.364  11.986   9.740 -0.3921  0.7044 -0.6845
  765MOL0     N  899   0.431  12.001   9.842 -0.8593 -0.0261 -0.6502
  765MOL0     C  900   1.187  11.337  10.612 -0.0573 -0.7047  1.2453
  765MOL0     C  901   1.321  11.293  10.588 -0.2450  0.4528 -0.4922
  765MOL0     C  902   1.759  11.228  10.495  0.9021 -0.3265  0.1897
  765MOL0     C  903   1.851  11.335  10.502  0.9674 -0.3022  0.1393
  765MOL0     C  904   1.991  11.311  10.516  0.7259 -0.2642  0.6923
  765MOL0     C  905   2.035  11.180  10.519 -0.4894 -1.0506  0.5396
  765MOL0     O  906   2.169  11.156  10.556 -0.1200  0.8965  0.1421
  765MOL0     C  907   2.270  11.264  10.523  0.8974 -0.2895 -0.0837
  765MOL0     C  908   2.409  11.208  10.559 -0.5445 -0.0363  0.2879
  765MOL0     C  909   2.523  11.313  10.518  0.4979 -0.1638 -0.2993
  765MOL0     C  910   2.664  11.262  10.515 -0.4982 -0.5021 -0.2103
  765MOL0     C  911   2.723  11.220  10.647  0.0953  0.5978 -0.4309
  765MOL0     C  912   2.788  11.186  10.743  0.1876 -0.0391 -0.1155
  765MOL0     C  913   1.944  11.081  10.507  0.0320 -0.0507  0.1440
  765MOL0     C  914   1.806  11.104  10.483  0.1214 -0.8443 -0.3219
  765MOL0     H  915   1.469  11.598  10.605 -0.0312 -1.8344  1.6343
  765MOL0     H  916   1.233  11.663  10.638  0.4935  0.0765 -0.8433
  765MOL0     H  917   0.889  11.364  10.642  1.9349 -1.8870 -0.8115
  765MOL0     H  918   0.939  11.407  10.482  0.4877  1.0802 -0.5168
  765MOL0     H  919   0.779  11.612  10.653 -2.3648 -0.5958  0.8545
  765MOL0     H  920   0.706  11.484  10.564  0.6144 -1.0828  1.7911
  765MOL0     H  921   0.821  11.559  10.344 -0.5150 -0.2653  0.5760
  765MOL0     H  922   0.895  11.688  10.447  1.8543 -1.4301  0.6949
  765MOL0     H  923   0.605  11.642  10.428 -2.0041  2.2329  0.6393
  765MOL0     H  924   0.683  11.785  10.494 -0.1736  0.8530  0.2956
  765MOL0     H  925   0.745  11.864  10.251  2.2223 -2.3883 -0.3938
  765MOL0     H  926   0.567  11.823  10.272 -0.9382  0.7240  0.7201
  765MOL0     H  927   0.626  11.605  10.150  0.7599 -0.4224  2.1601
  765MOL0     H  928   0.791  11.655  10.149  1.2697  1.7716 -1.1539
  765MOL0     H  929   0.744  11.850  10.025  1.4644 -1.4592 -1.1020
  765MOL0     H  930   0.688  11.713   9.928 -1.5204  3.7344 -2.0048
  765MOL0     H  931   0.511  11.912  10.086 -4.8868  0.1897 -0.6369
  765MOL0     H  932   0.450  11.765  10.046 -0.2207 -0.2827  0.4591
  765MOL0     H  933   0.509  11.692   9.756  2.2310  0.6703 -2.1236
  765MOL0     H  934   0.310  11.690   9.572  2.0287 -1.6367 -0.8934
  765MOL0     H  935   0.419  11.795   9.486 -2.0306 -0.9936 -0.6453
  765MOL0     H  936   0.153  11.900   9.572 -1.5598 -1.3836  0.1420
  765MOL0     H  937   0.148  11.795   9.442  2.4842 -1.6508 -1.0331
  765MOL0     H  938   0.337  12.038   9.447 -0.3401  3.8991 -2.7038
  765MOL0     H  939   0.336  11.925   9.317 -1.3804  0.0623 -1.5208
  765MOL0     H  940   0.087  12.081   9.400  3.6958  2.1608  0.6644
  765MOL0     H  941   0.088  11.970   9.264 -0.2362  0.5410  0.2958
  765MOL0     H  942   0.306  12.342   9.308  1.5882  2.7995  0.1750
  765MOL0     H  943   0.558  12.379   9.291  0.8634 -0.9637  0.6934
  765MOL0     H  944   0.850  12.539   9.361 -0.8592 -2.5718 -1.0579
  765MOL0     H  945   1.079  12.655   9.386  0.3432  0.5944 -1.0835
  765MOL0     H  946   1.371  12.701   9.063 -1.4101  0.5640 -0.2831
  765MOL0     H  947   1.395  12.529   9.106 -2.5614  1.0116 -1.5647
  765MOL0     H  948   1.500  12.760   9.287 -1.0750 -1.3289  0.4740
  765MOL0     H  949   1.592  12.698   9.152 -0.0687 -0.5099  0.2939
  765MOL0     H  950   1.558  12.468   9.272  0.4991  2.2027 -2.9740
  765MOL0     H  951   1.492  12.576   9.405  0.0515 -0.2703 -0.3961
  765MOL0     H  952   1.698  12.687   9.426  1.3351 -0.4507  0.0481
  765MOL0     H  953   1.685  12.517   9.483  4.7003 -0.2334  1.2429
  765MOL0     H  954   1.812  12.595   9.211 -1.0719 -1.1373  0.0282
  765MOL0     H  955   1.791  12.423   9.278 -1.2862 -0.4925  2.1841
  765MOL0     H  956   2.013  12.472   9.312 -0.2005 -1.0390 -0.5270
  765MOL0     H  957   1.925  12.484   9.470  1.4031  0.5996  1.1557
  765MOL0     H  958   2.037  12.696   9.297 -1.7974  0.4327 -0.3856
  765MOL0     H  959   1.919  12.750   9.407 -1.4465 -1.6576  0.7969
  765MOL0     H  960   2.074  12.675   9.610 -0.5981 -0.4575  0.0311
  765MOL0     H  961   2.141  12.804   9.500  2.1172 -0.1286  0.8247
  765MOL0     H  962   1.212  12.433   9.050  2.0685  1.2814  0.9650
  765MOL0     H  963   1.002  12.326   9.030  0.1856  0.9093 -0.6305
  765MOL0     H  964   0.575  12.057   8.986  2.5470  0.9607  0.5525
  765MOL0     H  965   0.352  11.986   9.065  0.1174  0.0021  0.6948
  765MOL0     H  966   1.102  11.269  10.603 -0.9974  0.4921  0.9111
  765MOL0     H  967   1.338  11.188  10.566 -0.2421  0.9536 -3.1222
  765MOL0     H  968   1.813  11.437  10.503 -1.5282 -1.1528 -0.0510
  765MOL0     H  969   2.057  11.397  10.528  1.3980 -0.5075 -1.0338
  765MOL0     H  970   2.249  11.351  10.586  2.1532 -2.0473  2.9325
  765MOL0     H  971   2.262  11.293  10.417  1.5151  2.6373  0.5662
  765MOL0     H  972   2.421  11.176  10.663  0.4805 -0.2081  0.1286
  765MOL0     H  973   2.422  11.123  10.492 -4.9937  0.7560 -1.9222
  765MOL0     H  974   2.511  11.397  10.588 -0.2093  0.9197 -1.6692
  765MOL0     H  975   2.490  11.356  10.423  0.9274  0.9012  0.0226
  765MOL0     H  976   2.684  11.182  10.443  3.8522  1.1810 -1.1268
  765MOL0     H  977   2.718  11.349  10.477 -2.2127  1.3541  1.3517
  765MOL0     H  978   2.851  11.160  10.826 -1.8472 -1.8101  0.9810
  765MOL0     H  979   1.983  10.980  10.514  0.8342  0.0882 -1.6417
  765MOL0     H  980   1.735  11.022  10.470 -3.3713  1.8123  0.4032
  766MOL0     O  981   3.880   9.708   0.293 -0.1275 -0.0068 -0.5273
  766MOL0     C  982   3.902   9.716   0.412 -0.2912 -0.4223 -0.4449
  766MOL0     O  983   3.811   9.749   0.505 -0.8014  0.2218  0.1861
  766MOL0     C  984   3.682   9.727   0.478  0.4673  0.1417 -0.4411
  766MOL0     C  985   3.605   9.829   0.535  0.0054  0.7809  0.4648
  766MOL0     C  986   3.465   9.829   0.514 -0.9456  0.1440  0.2990
  766MOL0     C  987   3.403   9.724   0.441 -0.2848  0.3112  0.5532
  766MOL0     O  988   3.268   9.741   0.432 -0.0413  0.3575 -0.0490
  766MOL0     C  989   3.197   9.643   0.358  0.5899  0.0046 -0.2923
  766MOL0     C  990   3.043   9.667   0.373 -0.3932 -0.0760 -0.1673
  766MOL0     C  991   2.966   9.567   0.279 -0.3533 -0.3104  0.0562
  766MOL0     C  992   2.810   9.577   0.296 -0.0676 -0.1918  0.2054
  766MOL0     C  993   2.740   9.494   0.196 -0.7259 -0.5437  0.8430
  766MOL0     C  994   2.586   9.498   0.204 -0.4299 -0.3756  0.2196
  766MOL0     C  995   2.514   9.408   0.096 -0.4218  0.0921  0.8580
  766MOL0     C  996   2.363   9.394   0.118 -0.4346 -0.0953 -0.8369
  766MOL0     N  997   2.311   9.526   0.125  0.7849 -0.4713  0.2416
  766MOL0     C  998   2.273   9.611   0.021 -0.5863 -0.6406 -0.0753
  766MOL0     C  999   2.234   9.731   0.081 -1.3165 -0.2513  0.8309
  766MOL0     C 1000   2.203   9.864   0.011  0.1375 -0.8466 -0.1505
  766MOL0     C 1001   2.057   9.869  -0.039 -0.1128  0.1046  0.0602
  766MOL0     C 1002   2.016   9.994  -0.118 -0.5421 -0.5883  1.1120
  766MOL0     C 1003   1.991  10.114  -0.019 -0.1520  0.1252  0.1779
  766MOL0     O 1004   1.901  10.067   0.086  0.0933  0.1329 -0.0359
  766MOL0     C 1005   1.769  10.093   0.066 -0.3173 -1.3084 -0.4674
  766MOL0     C 1006   1.726  10.210   0.126  0.2087 -0.0677 -0.1535
  766MOL0     C 1007   1.598  10.250   0.101 -0.0069  1.1158 -0.6209
  766MOL0     C 1008   1.502  10.167   0.035  0.9056 -0.2893  0.6944
  766MOL0     C 1009   1.367  10.215   0.021  0.4671 -0.0726 -0.0681
  766MOL0     O 1010   1.336  10.327   0.078  0.8694 -0.0530 -0.1679
  766MOL0     C 1011   1.211  10.351   0.134  1.2793 -0.2746  0.0108
  766MOL0     C 1012   1.181  10.333   0.265  0.0316  0.0289 -0.5310
  766MOL0     C 1013   1.055  10.353   0.325 -0.3714  0.7051  0.0004
  766MOL0     C 1014   0.943  10.385   0.252 -0.3415  0.7954 -0.3016
  766MOL0     O 1015   0.812  10.394   0.303  0.5212  0.3222  0.0930
  766MOL0     C 1016   0.781  10.365   0.441  0.8064 -1.3280 -0.3175
  766MOL0     C 1017   0.634  10.371   0.492 -0.4790 -0.5742  0.3550
  766MOL0     C 1018   0.541  10.260   0.439  0.1712  1.2012  0.5043
  766MOL0     C 1019   0.393  10.271   0.498  0.4484 -0.4072  0.4920
  766MOL0     C 1020   0.306  10.152   0.455  0.2783 -0.0555  0.3497
  766MOL0     C 1021   0.152  10.175   0.467  0.1970 -0.4359  0.3949
  766MOL0     C 1022   0.071  10.057   0.410 -0.5744 -0.4927 -0.3975
  766MOL0     C 1023   0.099   9.927   0.485 -0.3734 -0.2588 -0.2790
  766MOL0    Cl 1024  -0.026   9.809   0.418  0.6755  0.6179  0.0586
  766MOL0     C 1025   0.970  10.412   0.116  0.0379 -0.0551  1.0091
  766MOL0     C 1026   1.104  10.388   0.058  0.3740 -0.1073  0.0699
  766MOL0     O 1027   1.285  10.148  -0.045 -0.5313 -1.0145  0.3573
  766MOL0     C 1028   1.546  10.039  -0.006 -0.5320  0.2800  0.1373
  766MOL0     C 1029   1.681  10.001   0.010  0.5032 -0.1732  0.3782
  766MOL0     N 1030   2.219   9.703   0.218 -0.7908 -0.1485 -0.5281
  766MOL0     N 1031   2.256   9.581   0.237  0.1834  0.0274 -0.4549
  766MOL0     C 1032   3.483   9.625   0.376  0.2021  0.6014  0.0781
  766MOL0     C 1033   3.627   9.631   0.395  0.2026  0.3796 -0.3280
  766MOL0     C 1034   4.039   9.700   0.457 -0.2417  0.1249  0.3387
  766MOL0     C 1035   4.142   9.727   0.367  0.8999 -0.5935 -1.0213
  766MOL0     C 1036   4.274   9.716   0.409  0.4108 -0.0815 -0.4234
  766MOL0     C 1037   4.309   9.694   0.546  0.4474 -0.0358  0.7333
  766MOL0     O 1038   4.438   9.692   0.592 -0.1520  0.6361  0.5285
  766MOL0     C 1039   4.450   9.666   0.732 -0.4338  0.8041  0.8486
  766MOL0     C 1040   4.592   9.694   0.782 -0.0814  0.2028  0.3534
  766MOL0     C 1041   4.623   9.848   0.754 -2.2375  0.4974  1.0184
  766MOL0     C 1042   4.702   9.861   0.631  0.4377 -0.3270 -0.3682
  766MOL0     C 1043   4.832   9.796   0.627 -0.4060 -0.5580  0.0444
  766MOL0     C 1044   4.928   9.720   0.648 -0.2593 -0.0382  0.1520
  766MOL0     C 1045   4.200   9.670   0.630 -0.1337 -1.3794 -1.1048
  766MOL0     C 1046   4.066   9.663   0.584  0.4575 -0.3025 -0.4142
  766MOL0     H 1047   3.651   9.918   0.575  2.6830  0.5183 -1.7052
  766MOL0     H 1048   3.412   9.908   0.565 -0.5752  0.6521 -0.0969
  766MOL0     H 1049   3.213   9.544   0.401 -0.6657 -0.4122 -0.7508
  766MOL0     H 1050   3.228   9.637   0.253  1.9786  2.9779 -0.1594
  766MOL0     H 1051   3.018   9.770   0.348  0.7313 -0.1249 -1.6450
  766MOL0     H 1052   3.019   9.653   0.478 -1.3050  0.4331 -0.3052
  766MOL0     H 1053   2.999   9.463   0.284 -1.1699 -0.6458 -0.9600
  766MOL0     H 1054   2.994   9.598   0.178  1.3899  5.4181  1.9241
  766MOL0     H 1055   2.801   9.536   0.397  1.2587  0.7544  0.7307
  766MOL0     H 1056   2.787   9.683   0.287  0.6073 -0.1852 -2.1485
  766MOL0     H 1057   2.760   9.387   0.187 -1.6302 -0.7760  1.4889
  766MOL0     H 1058   2.769   9.531   0.097 -1.9968  0.6979  0.9028
  766MOL0     H 1059   2.544   9.599   0.203 -5.6342 -2.2078 -0.8567
  766MOL0     H 1060   2.548   9.457   0.298 -0.2070  1.7850  1.3067
  766MOL0     H 1061   2.530   9.449  -0.004 -2.5893 -3.3034 -1.0802
  766MOL0     H 1062   2.558   9.308   0.106 -2.6225 -0.8213  2.2787
  766MOL0     H 1063   2.337   9.341   0.211 -1.8929  1.2575 -0.4101
  766MOL0     H 1064   2.312   9.340   0.038 -1.3395 -1.5910  0.6749
  766MOL0     H 1065   2.289   9.597  -0.086  3.4808 -1.5421  0.4786
  766MOL0     H 1066   2.275   9.892  -0.067  0.3167 -0.2298  0.2287
  766MOL0     H 1067   2.220   9.938   0.090  0.1375  0.3721 -1.2544
  766MOL0     H 1068   1.984   9.831   0.033 -0.6881 -1.6057 -1.3400
  766MOL0     H 1069   2.050   9.793  -0.118  2.2806  1.6408 -1.8076
  766MOL0     H 1070   2.075  10.026  -0.204 -0.4163  4.0064  2.6631
  766MOL0     H 1071   1.922   9.968  -0.167 -1.1676  0.9079  1.4531
  766MOL0     H 1072   1.927  10.183  -0.074 -1.3318 -0.1865  1.1234
  766MOL0     H 1073   2.087  10.161   0.004  0.3856 -1.5610  1.6351
  766MOL0     H 1074   1.793  10.274   0.182  0.6425 -0.4942 -0.1831
  766MOL0     H 1075   1.567  10.351   0.125  4.0204  1.9186  2.4407
  766MOL0     H 1076   1.263  10.301   0.328 -0.1720  0.9644  0.2266
  766MOL0     H 1077   1.043  10.321   0.428  2.0000 -0.8256 -0.1077
  766MOL0     H 1078   0.841  10.436   0.498 -0.9595 -0.5629  0.6522
  766MOL0     H 1079   0.812  10.263   0.466 -0.5501 -1.6595  0.0476
  766MOL0     H 1080   0.589  10.471   0.493 -1.4490 -1.0022  0.2404
  766MOL0     H 1081   0.639  10.338   0.596 -1.2939  1.3702  1.0577
  766MOL0     H 1082   0.581  10.163   0.470  0.8672  0.9201 -1.1463
  766MOL0     H 1083   0.533  10.264   0.330  2.1417  1.4828  0.3376
  766MOL0     H 1084   0.407  10.275   0.607  0.0936 -1.5028  0.5857
  766MOL0     H 1085   0.343  10.361   0.460 -0.1058 -0.9250 -0.0002
  766MOL0     H 1086   0.338  10.068   0.518 -0.7556 -0.5714  0.2176
  766MOL0     H 1087   0.334  10.136   0.350  2.4557  1.8010  0.5870
  766MOL0     H 1088   0.127  10.267   0.413  2.1325 -0.2675 -0.2811
  766MOL0     H 1089   0.128  10.202   0.570  0.9183  0.6043  0.3011
  766MOL0     H 1090  -0.036  10.081   0.408 -0.7260 -1.1857 -1.4896
  766MOL0     H 1091   0.103  10.046   0.306  0.8592  2.2389 -0.3528
  766MOL0     H 1092   0.091   9.946   0.592  1.4806 -1.1719  0.0568
  766MOL0     H 1093   0.201   9.892   0.468 -0.9467 -1.2951 -1.9078
  766MOL0     H 1094   0.881  10.410   0.054 -0.9325 -4.5311  2.1703
  766MOL0     H 1095   1.124  10.399  -0.048 -0.0648  0.1311  0.0104
  766MOL0     H 1096   1.477   9.964  -0.043 -3.2491  1.1811  2.9546
  766MOL0     H 1097   1.712   9.902  -0.024 -0.5220  0.0689 -1.4641
  766MOL0     H 1098   3.443   9.554   0.304  0.9922  1.7919 -1.6265
  766MOL0     H 1099   3.679   9.552   0.343 -0.4480 -1.7077  1.9997
  766MOL0     H 1100   4.112   9.741   0.264  1.3597  0.8879 -0.9743
  766MOL0     H 1101   4.353   9.737   0.337 -1.6119  1.2481 -2.3857
  766MOL0     H 1102   4.428   9.559   0.738  0.5041  0.3864 -1.7529
  766MOL0     H 1103   4.378   9.720   0.793  0.9293  1.3284  2.0576
  766MOL0     H 1104   4.586   9.675   0.889  0.0137  0.8720  0.4833
  766MOL0     H 1105   4.668   9.627   0.740  2.9222  3.1021  0.7587
  766MOL0     H 1106   4.694   9.884   0.830 -1.4354 -1.3428  1.1882
  766MOL0     H 1107   4.530   9.906   0.747 -2.3380  0.0935 -2.5014
  766MOL0     H 1108   4.634   9.830   0.551 -0.3603 -0.0638  0.1964
  766MOL0     H 1109   4.710   9.968   0.607 -3.0862 -0.4774 -3.0974
  766MOL0     H 1110   5.018   9.663   0.653 -0.3589 -0.4603 -1.9220
  766MOL0     H 1111   4.212   9.646   0.735 -4.4698 -2.1827 -0.6256
  766MOL0     H 1112   3.994   9.638   0.661  1.8667  3.1625  2.2817
  767MOL0     O 1113   3.513   6.630  11.150 -0.4101  0.0580 -0.3170
  767MOL0     C 1114   3.585   6.712  11.094 -0.3173  0.4055  0.4725
  767MOL0     O 1115   3.536   6.823  11.028 -0.5023 -0.6748  0.2583
  767MOL0     C 1116   3.401   6.858  11.028 -0.3661 -0.3721 -0.0981
  767MOL0     C 1117   3.314   6.829  11.134 -0.4368 -0.2976 -0.0479
  767MOL0     C 1118   3.178   6.850  11.130  0.6878  0.5307  0.5141
  767MOL0     C 1119   3.120   6.919  11.023  0.2500  0.5223  0.1535
  767MOL0     O 1120   2.985   6.964  11.014 -0.0089  0.2042  0.3485
  767MOL0     C 1121   2.904   6.962  11.133  0.0622  0.0869  0.3981
  767MOL0     C 1122   2.762   7.015  11.094 -0.0753  0.4203 -0.0901
  767MOL0     C 1123   2.769   7.160  11.073 -0.5287 -0.0403 -0.3577
  767MOL0     C 1124   2.633   7.200  11.024 -0.2243 -0.4290 -0.2456
  767MOL0     C 1125   2.637   7.338  10.955  0.4165 -0.2120 -0.3121
  767MOL0     C 1126   2.651   7.453  11.053  0.1151  0.5142  0.2735
  767MOL0     C 1127   2.694   7.578  10.974 -0.3757 -0.8516  0.0961
  767MOL0     C 1128   2.687   7.710  11.057 -0.2629 -0.7311  0.2592
  767MOL0     N 1129   2.553   7.751  11.107  0.0540  0.2557  0.6676
  767MOL0     C 1130   2.461   7.816  11.028  0.3295 -0.4631  0.7642
  767MOL0     C 1131   2.366   7.854  11.113  0.1089  0.8859 -1.1145
  767MOL0     C 1132   2.231   7.910  11.078 -0.0019  0.0953  0.3139
  767MOL0     C 1133   2.229   8.058  11.122 -0.2828 -0.1105  0.2916
  767MOL0     C 1134   2.084   8.085  11.159 -0.5569 -0.6900  0.0573
  767MOL0     C 1135   2.074   8.233  11.210  0.1892  0.2793 -0.6379
  767MOL0     O 1136   2.093   8.332  11.104  0.5335 -0.5445  0.4063
  767MOL0     C 1137   1.991   8.367  11.019 -0.0970 -0.1436 -0.2704
  767MOL0     C 1138   1.859   8.310  11.030 -0.3352  0.2387 -0.6420
  767MOL0     C 1139   1.769   8.334  10.925 -0.5433 -0.7108 -0.2379
  767MOL0     C 1140   1.812   8.418  10.812  0.1410  0.0274 -0.7082
  767MOL0     C 1141   1.719   8.446  10.700  0.5643  0.3711 -0.5901
  767MOL0     O 1142   1.771   8.476  10.577  0.0562  0.8017  0.1374
  767MOL0     C 1143   1.697   8.420  10.474 -0.3169  0.2347  0.2524
  767MOL0     C 1144   1.715   8.288  10.425 -0.2767  0.3225 -0.3395
  767MOL0     C 1145   1.637   8.242  10.319 -0.2990 -0.4650  0.2101
  767MOL0     C 1146   1.540   8.319  10.254 -0.9354 -0.4463  0.6468
  767MOL0     O 1147   1.459   8.274  10.153  0.2067  0.6553 -0.1386
  767MOL0     C 1148   1.338   8.335  10.123  0.6316 -0.3002  0.3774
  767MOL0     C 1149   1.248   8.227  10.047  0.5796  0.2127  0.3476
  767MOL0     C 1150   1.125   8.267   9.973 -0.3664  0.2082 -0.1239
  767MOL0     C 1151   1.024   8.158   9.941 -0.7577  0.1002 -0.2377
  767MOL0     C 1152   0.946   8.121  10.066 -0.1339 -0.3318  0.5994
  767MOL0     C 1153   0.887   7.976  10.053 -0.7393 -0.1860  0.4482
  767MOL0     C 1154   0.991   7.857  10.055  0.1764  0.0290  0.4728
  767MOL0     C 1155   1.058   7.814  10.187  1.0882  0.0839 -0.3723
  767MOL0    Cl 1156   0.924   7.798  10.293  0.2175  0.2642 -0.1528
  767MOL0     C 1157   1.522   8.445  10.312  0.4119  1.2363  0.3944
  767MOL0     C 1158   1.598   8.490  10.421 -0.5089 -0.1295 -0.0770
  767MOL0     O 1159   1.601   8.427  10.719 -0.5816  0.1396 -0.4049
  767MOL0     C 1160   1.937   8.481  10.817  1.0366  0.0672 -0.4476
  767MOL0     C 1161   2.017   8.461  10.924  0.1247 -0.8780 -0.0524
  767MOL0     N 1162   2.397   7.803  11.237 -1.0693  0.1520  0.9575
  767MOL0     N 1163   2.498   7.730  11.232  0.0532  0.6410  1.0505
  767MOL0     C 1164   3.204   6.944  10.917 -0.3300  0.3728 -0.0607
  767MOL0     C 1165   3.348   6.909  10.914 -0.2679 -0.9233 -0.7490
  767MOL0     C 1166   3.730   6.700  11.083 -0.3937  0.4599 -0.4690
  767MOL0     C 1167   3.809   6.632  11.175 -0.3343  0.5048  0.2266
  767MOL0     C 1168   3.948   6.645  11.179 -1.3742 -1.2540  0.3567
  767MOL0     C 1169   4.016   6.695  11.071  0.3186  0.1030  0.7622
  767MOL0     O 1170   4.157   6.695  11.078 -0.3901 -0.5418 -0.6251
  767MOL0     C 1171   4.222   6.761  10.968  0.0955 -0.3245 -0.0272
  767MOL0     C 1172   4.368   6.762  10.979  0.7395  0.9428  0.6316
  767MOL0     C 1173   4.409   6.837  11.105  0.3304  0.3100  0.0357
  767MOL0     C 1174   4.559   6.870  11.104  1.1884 -1.3401  0.3468
  767MOL0     C 1175   4.657   6.760  11.134  0.9109 -0.5058  0.3630
  767MOL0     C 1176   4.742   6.671  11.151 -0.3384 -1.2514  0.0223
  767MOL0     C 1177   3.938   6.750  10.968 -0.0936 -0.2029  0.5700
  767MOL0     C 1178   3.800   6.762  10.981  0.7376 -0.7939  0.0748
  767MOL0     H 1179   3.350   6.784  11.226 -2.8451  1.0054  1.6620
  767MOL0     H 1180   3.102   6.819  11.201 -0.1155  0.9890 -0.1211
  767MOL0     H 1181   2.953   7.023  11.209  0.7244  0.2283 -0.1304
  767MOL0     H 1182   2.893   6.863  11.176  1.6653  0.1440  0.9979
  767MOL0     H 1183   2.686   6.988  11.168  0.1125  0.3174  0.0672
  767MOL0     H 1184   2.731   6.976  10.997  1.1423  2.5331 -1.4197
  767MOL0     H 1185   2.842   7.191  10.997  0.8934  0.3337  1.1018
  767MOL0     H 1186   2.798   7.212  11.165  1.7957 -3.5491  1.0796
  767MOL0     H 1187   2.600   7.128  10.949 -2.8075 -2.0504  2.2540
  767MOL0     H 1188   2.565   7.208  11.110  0.0445 -1.8314  0.1071
  767MOL0     H 1189   2.546   7.362  10.899  1.3691 -0.0338 -1.8318
  767MOL0     H 1190   2.718   7.334  10.882 -0.5567 -1.4012 -1.3792
  767MOL0     H 1191   2.733   7.432  11.122  1.7290  1.5129 -1.2733
  767MOL0     H 1192   2.557   7.465  11.108 -0.5787  0.0724 -0.7813
  767MOL0     H 1193   2.791   7.569  10.923 -0.5279 -4.1043  0.1738
  767MOL0     H 1194   2.616   7.591  10.899  0.0375  2.9872  0.1366
  767MOL0     H 1195   2.714   7.785  10.983 -2.4565  0.4587  0.5936
  767MOL0     H 1196   2.764   7.709  11.134 -0.1101  0.5152  0.1410
  767MOL0     H 1197   2.475   7.848  10.925  0.5494 -3.0998 -0.0948
  767MOL0     H 1198   2.159   7.853  11.136 -0.5094  1.8990  1.5472
  767MOL0     H 1199   2.214   7.906  10.970 -1.9269  2.0927  0.4831
  767MOL0     H 1200   2.273   8.122  11.045  2.4789 -2.2727 -0.1185
  767MOL0     H 1201   2.291   8.075  11.211 -0.8186  1.7710  0.3628
  767MOL0     H 1202   2.015   8.065  11.076 -0.3736  1.0313 -0.5521
  767MOL0     H 1203   2.074   8.013  11.241  3.1592 -0.6252  0.7480
  767MOL0     H 1204   2.146   8.249  11.291 -1.1627  0.6992  0.5272
  767MOL0     H 1205   1.982   8.243  11.269  0.6331  5.2499 -0.3971
  767MOL0     H 1206   1.817   8.245  11.106 -2.9220  1.2205 -1.1487
  767MOL0     H 1207   1.667   8.298  10.921 -1.8331  2.4546  1.1055
  767MOL0     H 1208   1.777   8.227  10.491  0.7852  2.6174  0.9076
  767MOL0     H 1209   1.642   8.137  10.289 -1.2308  0.2109 -2.6002
  767MOL0     H 1210   1.353   8.420  10.057 -1.8858  0.9708  1.3011
  767MOL0     H 1211   1.293   8.369  10.217  2.8339  1.6751  0.8035
  767MOL0     H 1212   1.223   8.151  10.122  1.7665  2.2824  2.9939
  767MOL0     H 1213   1.307   8.177   9.970  0.0726 -0.0107  0.0982
  767MOL0     H 1214   1.149   8.329   9.887  0.2682  0.0716 -0.0521
  767MOL0     H 1215   1.080   8.343  10.038 -1.5414 -0.0769 -0.5845
  767MOL0     H 1216   0.966   8.214   9.868 -1.8579  0.6733  1.0422
  767MOL0     H 1217   1.073   8.074   9.891  1.4030  2.6811 -2.7600
  767MOL0     H 1218   0.864   8.192  10.078  0.5092  0.0561  3.6067
  767MOL0     H 1219   1.016   8.122  10.151  0.1768 -0.0577  0.3447
  767MOL0     H 1220   0.838   7.967   9.956 -0.7438  1.8366  0.2272
  767MOL0     H 1221   0.803   7.963  10.121 -0.0622 -1.3372  1.1077
  767MOL0     H 1222   0.933   7.768  10.030  1.2118 -1.6935  3.6146
  767MOL0     H 1223   1.073   7.864   9.983  0.3173  1.8610  0.7545
  767MOL0     H 1224   1.121   7.896  10.222 -0.2393  2.0504 -2.2946
  767MOL0     H 1225   1.112   7.721  10.168  2.5850  0.5498  1.3573
  767MOL0     H 1226   1.451   8.520  10.278 -0.4621 -0.8016 -2.6995
  767MOL0     H 1227   1.577   8.594  10.444  3.2191  1.0693 -1.4171
  767MOL0     H 1228   1.970   8.550  10.741  0.8556 -0.3436 -0.9008
  767MOL0     H 1229   2.112   8.512  10.914 -0.5677  0.5712  0.3470
  767MOL0     H 1230   3.162   6.986  10.825 -1.4032 -0.0393  0.2308
  767MOL0     H 1231   3.414   6.925  10.829 -1.2924 -1.2448 -1.6343
  767MOL0     H 1232   3.766   6.571  11.254  1.6812  1.1856  1.9396
  767MOL0     H 1233   3.997   6.610  11.269 -3.3600 -2.6025  0.9813
  767MOL0     H 1234   4.193   6.867  10.970 -3.6961 -1.1342 -2.1934
  767MOL0     H 1235   4.200   6.720  10.869  0.0377  0.6937 -0.4525
  767MOL0     H 1236   4.418   6.665  10.987  0.7367  1.1036  4.0465
  767MOL0     H 1237   4.399   6.799  10.881 -0.1797 -0.1631 -0.1192
  767MOL0     H 1238   4.381   6.784  11.197  0.7035  1.6293  0.9323
  767MOL0     H 1239   4.365   6.937  11.105  0.8658  0.5480 -0.2476
  767MOL0     H 1240   4.566   6.913  11.004 -0.1117  1.7526  1.4691
  767MOL0     H 1241   4.587   6.952  11.171  0.3493 -0.5939 -0.1927
  767MOL0     H 1242   4.808   6.587  11.160  1.4627  0.1530  0.6378
  767MOL0     H 1243   3.983   6.783  10.875  0.3213 -3.9525 -0.7198
  767MOL0     H 1244   3.748   6.817  10.903 -0.9006  0.1974  1.8098
  768MOL0     O 1245   4.769   0.897   4.777 -0.8060  0.0984 -0.0782
  768MOL0     C 1246   4.812   0.977   4.866 -0.3444  0.7453 -0.0115
  768MOL0     O 1247   4.753   0.994   4.985  0.2188  0.0136 -0.2900
  768MOL0     C 1248   4.632   0.933   5.005 -0.5847 -0.0511 -0.1401
  768MOL0     C 1249   4.624   0.804   5.047 -0.1226  0.8127  0.0766
  768MOL0     C 1250   4.507   0.729   5.056  0.8219 -0.3599  0.4539
  768MOL0     C 1251   4.386   0.788   5.019  0.4035  0.3868 -0.5567
  768MOL0     O 1252   4.262   0.726   5.024  0.6198  0.3681 -0.1911
  768MOL0     C 1253   4.194   0.704   4.904  0.5078 -0.6729 -0.1643
  768MOL0     C 1254   4.090   0.806   4.869  0.1364  0.0540 -0.0076
  768MOL0     C 1255   3.996   0.840   4.987 -1.5515 -0.0170  0.4921
  768MOL0     C 1256   3.906   0.720   5.036 -0.3784  0.2129 -0.6112
  768MOL0     C 1257   3.782   0.774   5.115 -1.1321  0.6936 -0.7495
  768MOL0     C 1258   3.703   0.666   5.186 -0.7219 -0.4060 -0.0586
  768MOL0     C 1259   3.579   0.725   5.238 -0.0816  0.0941  0.4643
  768MOL0     C 1260   3.490   0.608   5.279  0.8925  0.4017 -0.2897
  768MOL0     N 1261   3.360   0.645   5.332  1.0625 -0.2900  0.2364
  768MOL0     C 1262   3.332   0.721   5.448  0.9062  0.2256 -0.0715
  768MOL0     C 1263   3.199   0.728   5.461 -0.5599 -0.2821  0.4681
  768MOL0     C 1264   3.112   0.802   5.560  0.8477 -0.6178 -0.7744
  768MOL0     C 1265   2.973   0.740   5.589 -0.5746 -0.5984  1.1593
  768MOL0     C 1266   2.911   0.836   5.689 -0.2911  0.0622  1.1725
  768MOL0     C 1267   2.767   0.788   5.715  0.8923  0.1502 -0.4386
  768MOL0     O 1268   2.790   0.654   5.774  0.7760  0.6902 -0.2800
  768MOL0     C 1269   2.682   0.587   5.831  0.1773  0.8441  0.4953
  768MOL0     C 1270   2.542   0.607   5.791 -0.4223 -0.4592  0.4070
  768MOL0     C 1271   2.440   0.539   5.857  0.3084  0.0180 -0.0713
  768MOL0     C 1272   2.465   0.433   5.947 -0.5092  0.2221 -0.0098
  768MOL0     C 1273   2.358   0.360   6.007  0.0842 -0.8155  0.1678
  768MOL0     O 1274   2.232   0.412   6.000  0.1728  0.4986 -0.5113
  768MOL0     C 1275   2.122   0.358   6.060  0.1111  0.0994  0.8569
  768MOL0     C 1276   1.995   0.378   6.000 -0.4368  0.3391 -0.8487
  768MOL0     C 1277   1.877   0.341   6.057 -1.2978 -0.0763  0.2170
  768MOL0     C 1278   1.877   0.267   6.184 -0.0449  0.1363  0.2171
  768MOL0     O 1279   1.770   0.210   6.247  0.3102 -0.6480 -0.7181
  768MOL0     C 1280   1.673   0.163   6.153 -0.1195 -0.0064  1.0903
  768MOL0     C 1281   1.556   0.107   6.227 -0.3642  0.2655 -0.3226
  768MOL0     C 1282   1.439   0.073   6.137 -0.0957  0.1327 -0.2499
  768MOL0     C 1283   1.316   0.058   6.232  0.8829 -0.0556  0.1445
  768MOL0     C 1284   1.189   0.027   6.150  0.1790 -0.3531 -0.0267
  768MOL0     C 1285   1.061   0.072   6.232  0.1379 -0.4289  0.5571
  768MOL0     C 1286   0.937   0.049   6.135  0.2524  0.8678 -0.0508
  768MOL0     C 1287   0.824   0.123   6.192  0.8734  0.2236  0.2859
  768MOL0    Cl 1288   0.675   0.102   6.088  0.0776  0.5564 -0.5430
  768MOL0     C 1289   2.004   0.249   6.248  0.7736 -1.0934 -0.2658
  768MOL0     C 1290   2.122   0.295   6.185  0.2752 -0.4498 -0.2300
  768MOL0     O 1291   2.388   0.262   6.072  0.2548 -0.1481 -0.2990
  768MOL0     C 1292   2.597   0.413   5.985 -0.8694 -0.6685 -0.5272
  768MOL0     C 1293   2.704   0.481   5.926  0.2317  0.1194 -0.0620
  768MOL0     N 1294   3.143   0.645   5.362  0.2406  0.2678 -0.5427
  768MOL0     N 1295   3.238   0.607   5.288 -0.2148 -0.5379  0.2319
  768MOL0     C 1296   4.400   0.928   4.984 -0.6746  0.1168 -0.6001
  768MOL0     C 1297   4.518   1.002   4.985 -0.1757  0.0620  0.0332
  768MOL0     C 1298   4.928   1.059   4.840 -0.2347 -0.2237  0.0223
  768MOL0     C 1299   4.952   1.193   4.904 -0.4703  0.8465  1.0374
  768MOL0     C 1300   5.088   1.246   4.892  0.1034  0.5389  0.0512
  768MOL0     C 1301   5.179   1.202   4.798  0.1335  0.2031 -0.7065
  768MOL0     O 1302   5.295   1.278   4.763 -0.6698 -1.0587 -0.8545
  768MOL0     C 1303   5.392   1.229   4.667  0.9487  0.1071 -0.1794
  768MOL0     C 1304   5.469   1.359   4.628  0.6121 -0.1824  0.9118
  768MOL0     C 1305   5.601   1.327   4.558 -0.5446  0.2517 -0.0647
  768MOL0     C 1306   5.665   1.440   4.471  0.3933  0.3584  0.1198
  768MOL0     C 1307   5.669   1.570   4.534 -0.0505 -0.1948 -0.2607
  768MOL0     C 1308   5.675   1.676   4.594  0.5790 -0.1857 -0.5739
  768MOL0     C 1309   5.147   1.086   4.726  1.3827  0.6637  0.1303
  768MOL0     C 1310   5.023   1.021   4.738 -0.2482  0.6833 -0.4762
  768MOL0     H 1311   4.716   0.750   5.066  0.4232  2.0069  0.9783
  768MOL0     H 1312   4.511   0.628   5.094 -2.7934 -1.2941 -1.2696
  768MOL0     H 1313   4.140   0.609   4.910  1.2505 -1.1316 -0.6095
  768MOL0     H 1314   4.265   0.692   4.822  1.2118  0.0891  0.3211
  768MOL0     H 1315   4.028   0.769   4.787  1.8334  1.5451 -2.0639
  768MOL0     H 1316   4.132   0.902   4.839 -1.8087  1.8738  2.5286
  768MOL0     H 1317   3.933   0.919   4.947  0.9863  2.1247  0.4553
  768MOL0     H 1318   4.057   0.870   5.073 -0.6852  0.2349 -0.1943
  768MOL0     H 1319   3.866   0.662   4.952 -1.6991 -1.6832  1.2353
  768MOL0     H 1320   3.969   0.650   5.090  0.9229  0.5032 -1.6924
  768MOL0     H 1321   3.708   0.825   5.053 -1.9326 -1.2988 -1.5314
  768MOL0     H 1322   3.815   0.855   5.181  0.6346  0.3075 -1.1127
  768MOL0     H 1323   3.777   0.627   5.256 -0.9820  2.0523  1.6903
  768MOL0     H 1324   3.674   0.579   5.126  0.9278 -2.4236  1.8764
  768MOL0     H 1325   3.596   0.790   5.324 -1.6528  0.2158  0.7139
  768MOL0     H 1326   3.524   0.783   5.164  2.6206 -0.5122 -2.1872
  768MOL0     H 1327   3.539   0.548   5.355 -3.4660 -3.1030  0.1120
  768MOL0     H 1328   3.468   0.534   5.201 -3.1557  0.3536  0.7161
  768MOL0     H 1329   3.405   0.776   5.507 -0.2763 -0.9903  2.7053
  768MOL0     H 1330   3.089   0.891   5.501 -1.4012 -0.6271 -0.0119
  768MOL0     H 1331   3.169   0.820   5.652  0.4666  0.6042 -0.7639
  768MOL0     H 1332   2.982   0.639   5.629 -1.2149 -1.1970 -0.1423
  768MOL0     H 1333   2.917   0.742   5.495 -2.3413 -0.6238  2.1559
  768MOL0     H 1334   2.964   0.840   5.784  0.7441  0.0629  0.6113
  768MOL0     H 1335   2.906   0.939   5.652 -3.2344 -0.1231  0.7986
  768MOL0     H 1336   2.703   0.785   5.627  3.1473 -0.2185 -2.1472
  768MOL0     H 1337   2.723   0.851   5.793  2.2231  0.9296 -0.2829
  768MOL0     H 1338   2.522   0.672   5.706  1.3392 -2.0858 -1.3734
  768MOL0     H 1339   2.340   0.568   5.826  0.2999  1.8221  1.4848
  768MOL0     H 1340   1.988   0.429   5.904  1.1546 -0.2196 -1.2889
  768MOL0     H 1341   1.784   0.361   6.005 -0.2363 -0.4602 -1.9587
  768MOL0     H 1342   1.714   0.080   6.094  0.5261 -1.2774  3.2337
  768MOL0     H 1343   1.641   0.246   6.089 -1.1085 -1.6509 -0.6596
  768MOL0     H 1344   1.525   0.171   6.310 -0.4214 -1.1314  0.7732
  768MOL0     H 1345   1.590   0.014   6.274 -0.5645 -1.7056 -3.7046
  768MOL0     H 1346   1.458  -0.019   6.081  3.8385  1.5052 -1.5598
  768MOL0     H 1347   1.404   0.157   6.076  0.1890  1.6196  1.5336
  768MOL0     H 1348   1.339  -0.014   6.311 -0.8904  0.8841  1.5794
  768MOL0     H 1349   1.306   0.155   6.281 -2.4160  0.5314 -1.4250
  768MOL0     H 1350   1.180  -0.081   6.137 -0.8043 -0.3974  0.8872
  768MOL0     H 1351   1.192   0.079   6.053 -0.1508  0.1279  0.2140
  768MOL0     H 1352   1.086   0.177   6.252 -4.2868  1.2786 -1.5531
  768MOL0     H 1353   1.047   0.024   6.330  0.7833  0.8686  1.3133
  768MOL0     H 1354   0.959   0.074   6.031 -0.3220 -2.0662 -0.9673
  768MOL0     H 1355   0.915  -0.058   6.130  1.8818  0.5237 -0.5902
  768MOL0     H 1356   0.854   0.228   6.193  1.0728  0.1890 -0.7061
  768MOL0     H 1357   0.797   0.086   6.291 -2.3768 -0.9482 -0.8781
  768MOL0     H 1358   2.001   0.204   6.347  4.1388 -1.2678 -0.1384
  768MOL0     H 1359   2.212   0.301   6.247  0.9696  0.8003 -1.3162
  768MOL0     H 1360   2.619   0.327   6.048 -0.1488 -1.1300 -1.3823
  768MOL0     H 1361   2.805   0.441   5.932 -0.5319 -2.9974 -4.1141
  768MOL0     H 1362   4.306   0.979   4.969  0.6507  2.0181 -3.2898
  768MOL0     H 1363   4.518   1.107   4.959  2.8505 -0.1040 -1.0921
  768MOL0     H 1364   4.887   1.248   4.970  0.2610  1.2900  1.4009
  768MOL0     H 1365   5.112   1.342   4.937 -1.6727  1.8809 -1.6801
  768MOL0     H 1366   5.350   1.197   4.571 -0.3041  1.3356 -0.0704
  768MOL0     H 1367   5.464   1.167   4.721  2.4062  1.3559 -0.5808
  768MOL0     H 1368   5.395   1.410   4.566 -0.3476 -2.2620  0.2651
  768MOL0     H 1369   5.496   1.418   4.716 -0.2495  0.0756  1.0166
  768MOL0     H 1370   5.574   1.245   4.491  0.6849 -0.6512  0.5155
  768MOL0     H 1371   5.671   1.294   4.635 -2.1230  0.7486  1.6490
  768MOL0     H 1372   5.766   1.401   4.453 -0.0709  0.0759 -2.1482
  768MOL0     H 1373   5.611   1.440   4.377  0.7975  1.1049 -0.1257
  768MOL0     H 1374   5.672   1.771   4.645 -0.1567 -0.6532  0.2890
  768MOL0     H 1375   5.227   1.046   4.665  1.5351  2.2237 -0.7230
  768MOL0     H 1376   5.008   0.935   4.673  0.7881 -1.8147  2.3009
  769MOL0     O 1377   4.445   9.359   8.767 -0.0354  0.2669  0.2948
  769MOL0     C 1378   4.475   9.251   8.716  1.0140 -0.7104 -0.1053
  769MOL0     O 1379   4.384   9.168   8.655  0.0885 -0.2229 -0.5537
  769MOL0     C 1380   4.248   9.195   8.640  0.4467 -0.7651  0.3068
  769MOL0     C 1381   4.170   9.291   8.712  0.4341 -0.7755  0.1470
  769MOL0     C 1382   4.033   9.278   8.716  0.3476 -0.2534  0.3396
  769MOL0     C 1383   3.963   9.191   8.640  0.6150  0.2699 -0.3393
  769MOL0     O 1384   3.827   9.185   8.654 -0.1246  0.4283  0.4299
  769MOL0     C 1385   3.757   9.064   8.619  0.7492  0.5702 -0.4234
  769MOL0     C 1386   3.602   9.084   8.664  0.1563 -0.6448  0.7091
  769MOL0     C 1387   3.507   8.968   8.639 -0.5311  0.3469  0.6397
  769MOL0     C 1388   3.362   9.009   8.647 -0.2575  0.5250 -0.5925
  769MOL0     C 1389   3.256   8.889   8.651  0.6395  0.1943 -1.3225
  769MOL0     C 1390   3.115   8.941   8.652 -0.6270 -0.2941 -0.1698
  769MOL0     C 1391   3.020   8.824   8.690 -0.3170 -0.1143  0.3280
  769MOL0     C 1392   2.868   8.856   8.689 -0.8684  0.3732 -0.1049
  769MOL0     N 1393   2.787   8.741   8.726  0.6315 -0.2229 -0.3592
  769MOL0     C 1394   2.716   8.729   8.847 -0.3979  0.5156 -0.0121
  769MOL0     C 1395   2.635   8.620   8.831 -0.0880 -0.4487 -0.0150
  769MOL0     C 1396   2.535   8.555   8.924  0.7867 -0.1062  0.8655
  769MOL0     C 1397   2.390   8.607   8.898  1.3513 -1.0206  0.0398
  769MOL0     C 1398   2.294   8.523   8.981 -0.1939  0.7127 -0.9952
  769MOL0     C 1399   2.148   8.565   8.976  0.0436  0.5177  0.3237
  769MOL0     O 1400   2.091   8.547   9.110  0.1862 -0.9106  0.2218
  769MOL0     C 1401   1.958   8.546   9.123  0.9865  1.0799 -0.4743
  769MOL0     C 1402   1.859   8.587   9.033 -0.2839  0.3351  0.0686
  769MOL0     C 1403   1.724   8.575   9.066  0.1455 -0.0027  0.2240
  769MOL0     C 1404   1.680   8.524   9.190 -1.0865 -0.6297  0.0282
  769MOL0     C 1405   1.528   8.507   9.219 -0.1772 -0.0725 -0.0973
  769MOL0     O 1406   1.497   8.445   9.335 -0.1094 -0.3466  0.4248
  769MOL0     C 1407   1.365   8.426   9.350  0.2570 -0.3387 -0.0283
  769MOL0     C 1408   1.300   8.496   9.454 -0.2789  0.3715 -0.3233
  769MOL0     C 1409   1.160   8.484   9.462 -0.1229 -0.2763  0.8944
  769MOL0     C 1410   1.086   8.400   9.371 -0.9198 -0.0901  0.3518
  769MOL0     O 1411   0.946   8.363   9.368 -0.0758  0.1351 -0.1854
  769MOL0     C 1412   0.868   8.416   9.475 -0.6459  1.0408 -0.7253
  769MOL0     C 1413   0.827   8.566   9.431 -0.5676 -0.2751 -0.5309
  769MOL0     C 1414   0.716   8.548   9.338  0.1248 -0.0450 -0.6292
  769MOL0     C 1415   0.668   8.675   9.270  0.5782  0.4718  0.0744
  769MOL0     C 1416   0.767   8.704   9.163 -0.3639  0.5700  0.5449
  769MOL0     C 1417   0.767   8.849   9.122  0.9764  0.7288  0.6493
  769MOL0     C 1418   0.842   8.954   9.208 -0.0262  1.9773  0.7582
  769MOL0     C 1419   0.826   9.095   9.141  0.0759  0.9473  0.5184
  769MOL0    Cl 1420   0.909   9.222   9.244  0.3412  0.2270 -0.2051
  769MOL0     C 1421   1.153   8.325   9.278  0.0736 -0.5017 -0.3308
  769MOL0     C 1422   1.292   8.338   9.270  0.1535  0.0691 -0.9618
  769MOL0     O 1423   1.452   8.557   9.137  0.1863  0.3042 -0.5654
  769MOL0     C 1424   1.782   8.482   9.276 -0.4830 -0.0456  0.2817
  769MOL0     C 1425   1.913   8.504   9.245 -0.0197  0.6500 -0.5060
  769MOL0     N 1426   2.654   8.578   8.698 -0.1194 -0.4663 -1.0711
  769MOL0     N 1427   2.744   8.654   8.641  0.1258 -0.3116  0.1801
  769MOL0     C 1428   4.041   9.105   8.557 -0.7052 -0.0818 -1.7600
  769MOL0     C 1429   4.179   9.108   8.561  1.6512  0.0338  0.1184
  769MOL0     C 1430   4.615   9.219   8.704  0.2889 -0.9002  0.0817
  769MOL0     C 1431   4.651   9.088   8.706  0.1650 -0.6482 -0.3007
  769MOL0     C 1432   4.784   9.041   8.703  0.4077 -0.5766 -0.2981
  769MOL0     C 1433   4.883   9.136   8.719 -0.0384  0.1233  0.2715
  769MOL0     O 1434   5.015   9.096   8.719 -0.3440  0.5095 -0.0836
  769MOL0     C 1435   5.077   9.081   8.846  0.4613 -0.3626 -0.0003
  769MOL0     C 1436   5.137   9.217   8.880 -0.1133  0.2188  0.3112
  769MOL0     C 1437   5.244   9.285   8.779  0.4053  0.6557 -0.1679
  769MOL0     C 1438   5.352   9.181   8.741 -0.7578 -0.7960  0.1454
  769MOL0     C 1439   5.458   9.234   8.648  0.8717  1.7947 -0.2112
  769MOL0     C 1440   5.541   9.268   8.562 -0.2523 -0.6355 -1.2478
  769MOL0     C 1441   4.857   9.273   8.709 -0.7182  0.3037 -0.5802
  769MOL0     C 1442   4.724   9.311   8.699  0.9118 -0.5397  0.1504
  769MOL0     H 1443   4.216   9.376   8.760 -1.6940  1.5550 -1.7103
  769MOL0     H 1444   3.969   9.350   8.767 -0.4207 -0.9102  0.3230
  769MOL0     H 1445   3.796   8.982   8.680 -0.2169  1.7121  1.8536
  769MOL0     H 1446   3.758   9.031   8.514 -2.2309 -3.2958  0.5476
  769MOL0     H 1447   3.571   9.168   8.601 -0.5913 -1.2084  0.2995
  769MOL0     H 1448   3.604   9.135   8.761  3.5652  1.4328 -0.3087
  769MOL0     H 1449   3.542   8.885   8.701  3.5676 -1.8617 -3.8435
  769MOL0     H 1450   3.533   8.942   8.536  1.7959  2.4786  0.5869
  769MOL0     H 1451   3.349   9.061   8.742 -1.2517 -1.6985  0.5371
  769MOL0     H 1452   3.343   9.078   8.563 -2.1106 -0.1379 -0.7802
  769MOL0     H 1453   3.283   8.832   8.740 -1.4060  0.5904 -0.3809
  769MOL0     H 1454   3.255   8.823   8.564 -3.8693  0.0906 -1.4472
  769MOL0     H 1455   3.092   8.968   8.548  1.8401  0.2463 -0.6294
  769MOL0     H 1456   3.107   9.025   8.722  3.8043 -1.6520  2.3657
  769MOL0     H 1457   3.052   8.737   8.632  0.2654  0.0911  0.3279
  769MOL0     H 1458   3.036   8.798   8.795 -0.1557  2.1903  0.9338
  769MOL0     H 1459   2.828   8.894   8.595 -0.7675 -1.1564 -0.7905
  769MOL0     H 1460   2.854   8.920   8.777 -2.2250 -1.5110  1.1020
  769MOL0     H 1461   2.737   8.798   8.928  0.7800  0.1119  0.0422
  769MOL0     H 1462   2.560   8.590   9.025 -0.7398  5.6332 -0.3786
  769MOL0     H 1463   2.541   8.447   8.906  0.9856 -0.1460  1.1574
  769MOL0     H 1464   2.370   8.605   8.790 -1.8610  2.5943  0.3516
  769MOL0     H 1465   2.382   8.712   8.925  1.0521 -1.0114 -0.0808
  769MOL0     H 1466   2.306   8.419   8.947 -2.8687 -0.7943  2.0851
  769MOL0     H 1467   2.323   8.519   9.086  4.1022  0.8144 -2.0174
  769MOL0     H 1468   2.097   8.490   8.915 -0.6708  0.4689  0.9634
  769MOL0     H 1469   2.136   8.659   8.922 -0.6166 -0.0063 -0.4587
  769MOL0     H 1470   1.884   8.622   8.933 -0.3423  1.0724  0.3116
  769MOL0     H 1471   1.650   8.603   8.992  0.2825  1.0002  0.4535
  769MOL0     H 1472   1.356   8.563   9.519 -2.4832 -0.8796  3.1378
  769MOL0     H 1473   1.107   8.539   9.539  0.0774  0.0186  0.8235
  769MOL0     H 1474   0.917   8.409   9.573  0.0772  1.6344 -1.0361
  769MOL0     H 1475   0.781   8.349   9.482  1.3169 -1.5866  0.4027
  769MOL0     H 1476   0.915   8.617   9.391 -0.7601  0.3575 -0.1519
  769MOL0     H 1477   0.793   8.616   9.522 -2.0169 -3.0238  0.5716
  769MOL0     H 1478   0.628   8.516   9.395 -2.2272  1.9043 -2.9271
  769MOL0     H 1479   0.753   8.478   9.263  1.9875  2.9934 -2.7707
  769MOL0     H 1480   0.568   8.655   9.231  0.1939  0.4636  1.0348
  769MOL0     H 1481   0.672   8.764   9.335  0.4939  0.7792 -0.3382
  769MOL0     H 1482   0.748   8.647   9.072  0.4966  2.8944 -1.1572
  769MOL0     H 1483   0.868   8.669   9.186  0.7199  3.0763 -0.0801
  769MOL0     H 1484   0.668   8.890   9.098 -0.8430 -2.7443  1.5375
  769MOL0     H 1485   0.816   8.835   9.026 -1.1829  1.7572 -0.6856
  769MOL0     H 1486   0.816   8.954   9.314  2.4823  0.9182  1.4381
  769MOL0     H 1487   0.949   8.932   9.204 -0.1197  1.6785 -1.0483
  769MOL0     H 1488   0.719   9.114   9.130 -0.6444 -3.3272 -2.2617
  769MOL0     H 1489   0.875   9.098   9.043  1.1558 -3.1978  0.7686
  769MOL0     H 1490   1.099   8.254   9.216 -1.8910  1.3549 -0.8671
  769MOL0     H 1491   1.349   8.267   9.211 -3.6344 -2.1578 -2.2436
  769MOL0     H 1492   1.752   8.444   9.373  1.6761 -3.2592 -0.1923
  769MOL0     H 1493   1.985   8.474   9.320 -1.1487 -2.4254 -0.4951
  769MOL0     H 1494   3.985   9.032   8.499 -2.4594 -0.1933 -0.0250
  769MOL0     H 1495   4.236   9.053   8.487 -0.6755 -2.3316 -0.0722
  769MOL0     H 1496   4.579   9.008   8.702 -2.5918  1.7517 -3.3728
  769MOL0     H 1497   4.808   8.935   8.702  2.1988 -0.1987 -1.0560
  769MOL0     H 1498   5.148   8.998   8.848 -2.5388 -3.1822 -1.6508
  769MOL0     H 1499   5.009   9.055   8.927  0.2453 -3.1291 -0.9691
  769MOL0     H 1500   5.052   9.285   8.886  0.1918  0.7292 -0.7763
  769MOL0     H 1501   5.187   9.206   8.977  0.9947 -0.6571 -0.3297
  769MOL0     H 1502   5.291   9.378   8.811 -1.5821  2.2661 -1.6509
  769MOL0     H 1503   5.193   9.304   8.684 -0.6308 -1.0575  0.0208
  769MOL0     H 1504   5.408   9.149   8.830  0.6907  0.5995 -0.2027
  769MOL0     H 1505   5.304   9.093   8.696 -0.3539 -0.4197 -1.0590
  769MOL0     H 1506   5.612   9.301   8.488  2.6595 -2.5870  0.5174
  769MOL0     H 1507   4.942   9.339   8.716  2.3374 -3.3330 -0.0203
  769MOL0     H 1508   4.719   9.419   8.700  1.5622 -0.4813  2.0184
  770MOL0     O 1509  11.095   9.267   4.968 -0.0592 -0.0373  0.0933
  770MOL0     C 1510  11.166   9.267   4.870 -0.3530  0.2339 -0.1709
  770MOL0     O 1511  11.127   9.305   4.746  0.0851 -0.4788  0.9880
  770MOL0     C 1512  10.992   9.330   4.723  0.5338 -0.2421 -1.0780
  770MOL0     C 1513  10.889   9.230   4.709  0.6806 -0.1538 -0.2239
  770MOL0     C 1514  10.759   9.264   4.667  0.9405  0.3423 -0.0094
  770MOL0     C 1515  10.725   9.395   4.639  0.5276 -0.7129 -0.7214
  770MOL0     O 1516  10.592   9.414   4.601  0.4152 -0.7490 -0.0201
  770MOL0     C 1517  10.572   9.525   4.503  0.0779 -0.0020 -0.9731
  770MOL0     C 1518  10.423   9.557   4.486  0.3656 -0.2085  0.0534
  770MOL0     C 1519  10.425   9.673   4.382 -0.5461 -0.0612 -0.0064
  770MOL0     C 1520  10.284   9.713   4.341  0.5643 -0.0931  0.0734
  770MOL0     C 1521  10.300   9.831   4.253  0.2813 -1.6293 -0.3221
  770MOL0     C 1522  10.169   9.922   4.250  0.6716 -0.5700 -0.2217
  770MOL0     C 1523  10.036   9.851   4.212  0.0567  0.0154 -0.3765
  770MOL0     C 1524   9.907   9.926   4.241  0.0103 -0.0129 -0.2005
  770MOL0     N 1525   9.793   9.918   4.150  0.2027  0.1466 -0.8262
  770MOL0     C 1526   9.733  10.011   4.074 -0.9301 -0.7133 -0.4770
  770MOL0     C 1527   9.662   9.939   3.987 -0.1152  0.3495  0.0235
  770MOL0     C 1528   9.568  10.000   3.892 -0.2319  0.4046  0.8671
  770MOL0     C 1529   9.443  10.036   3.961  0.3345  0.2965 -0.0487
  770MOL0     C 1530   9.349  10.083   3.847 -0.2421 -0.5266 -0.0281
  770MOL0     C 1531   9.225  10.139   3.899  0.0117 -0.1588 -0.5114
  770MOL0     O 1532   9.139  10.175   3.794  0.3929  0.2463 -0.1613
  770MOL0     C 1533   9.008  10.218   3.825  0.2479 -1.1477 -0.6281
  770MOL0     C 1534   8.921  10.236   3.719  0.5741 -0.0881  0.1014
  770MOL0     C 1535   8.789  10.277   3.733  0.1566  0.3834 -0.8473
  770MOL0     C 1536   8.743  10.303   3.859 -0.3316  0.1463 -0.2149
  770MOL0     C 1537   8.599  10.342   3.874  0.2490 -0.2845  0.3391
  770MOL0     O 1538   8.511  10.296   3.783  0.0877  0.6349 -0.6614
  770MOL0     C 1539   8.376  10.318   3.768 -0.6560  0.1633 -1.1534
  770MOL0     C 1540   8.298  10.239   3.686 -0.3806 -0.1682  0.3884
  770MOL0     C 1541   8.154  10.263   3.681 -0.1547  0.4962 -0.9658
  770MOL0     C 1542   8.091  10.370   3.746 -0.1194  0.5297  0.3374
  770MOL0     O 1543   7.956  10.401   3.721  0.5046  0.0769  0.3077
  770MOL0     C 1544   7.874  10.469   3.821 -0.2224  0.5648  0.4122
  770MOL0     C 1545   7.756  10.516   3.747 -0.4576  0.2472  0.2407
  770MOL0     C 1546   7.655  10.592   3.838  0.1119 -0.2450  0.5576
  770MOL0     C 1547   7.536  10.636   3.763 -0.1077 -0.5060 -0.1431
  770MOL0     C 1548   7.442  10.716   3.844  0.6950  0.0951 -0.4099
  770MOL0     C 1549   7.348  10.796   3.754 -1.2720  0.1586 -0.2415
  770MOL0     C 1550   7.236  10.875   3.822  0.4160 -0.3162 -0.3109
  770MOL0     C 1551   7.295  11.002   3.893 -0.2420  0.5118 -0.1923
  770MOL0    Cl 1552   7.307  10.965   4.074  0.0331  0.3101  0.2869
  770MOL0     C 1553   8.182  10.468   3.801 -0.1629 -0.1811  0.0655
  770MOL0     C 1554   8.314  10.433   3.827  0.0949  0.9026 -0.3237
  770MOL0     O 1555   8.563  10.408   3.971 -0.1566 -0.1169 -0.9726
  770MOL0     C 1556   8.834  10.304   3.972  0.2025  1.6547  0.1749
  770MOL0     C 1557   8.969  10.267   3.946 -0.0512 -0.4116 -0.9578
  770MOL0     N 1558   9.654   9.806   4.020 -0.5180  0.2628  1.0726
  770MOL0     N 1559   9.744   9.796   4.112  0.5431 -0.1767  0.3500
  770MOL0     C 1560  10.823   9.495   4.663 -0.2245  0.2348 -0.4262
  770MOL0     C 1561  10.953   9.460   4.704 -0.2841 -0.9318 -0.1600
  770MOL0     C 1562  11.300   9.208   4.904 -1.1828  0.0459  0.3795
  770MOL0     C 1563  11.404   9.192   4.806  0.2116 -0.4870  0.6910
  770MOL0     C 1564  11.526   9.127   4.834 -0.9328 -0.1381 -0.3090
  770MOL0     C 1565  11.557   9.078   4.963  0.0164 -0.9928 -0.1190
  770MOL0     O 1566  11.683   9.027   4.976 -0.0943  0.8894 -0.0264
  770MOL0     C 1567  11.768   9.056   5.090 -0.0862 -1.1081  1.1203
  770MOL0     C 1568  11.900   8.983   5.070 -0.6633 -1.2064  0.0837
  770MOL0     C 1569  11.895   8.833   5.044 -0.4208  0.7847 -0.1056
  770MOL0     C 1570  11.991   8.769   4.941  0.5181 -0.2119 -0.7896
  770MOL0     C 1571  12.107   8.711   5.006 -0.1967  0.9238 -0.5174
  770MOL0     C 1572  12.184   8.637   5.073  0.3828 -0.0918 -0.3784
  770MOL0     C 1573  11.461   9.100   5.060 -0.5570 -0.4968 -0.4892
  770MOL0     C 1574  11.338   9.156   5.030  0.0090  0.1163  0.1145
  770MOL0     H 1575  10.898   9.122   4.715 -3.2924 -0.6055  0.1321
  770MOL0     H 1576  10.681   9.189   4.656  0.9200  0.0432  1.7877
  770MOL0     H 1577  10.620   9.499   4.408  0.2140  0.1567 -0.9493
  770MOL0     H 1578  10.617   9.618   4.539 -0.3531  0.8646 -2.5686
  770MOL0     H 1579  10.376   9.590   4.579 -1.6533  0.7221 -1.2044
  770MOL0     H 1580  10.375   9.467   4.445  4.2972 -3.0308  0.9959
  770MOL0     H 1581  10.494   9.645   4.301  3.2469  1.4112  2.4096
  770MOL0     H 1582  10.471   9.757   4.435 -1.5370  0.2422  0.3997
  770MOL0     H 1583  10.228   9.631   4.295  0.0186 -0.1472  0.8203
  770MOL0     H 1584  10.227   9.739   4.431  0.8480 -3.5732  1.4273
  770MOL0     H 1585  10.337   9.815   4.152 -0.3031  0.5699 -0.9451
  770MOL0     H 1586  10.370   9.896   4.307  0.3757 -0.4052 -1.8384
  770MOL0     H 1587  10.193  10.002   4.180  2.4479 -0.2749  0.6475
  770MOL0     H 1588  10.164   9.969   4.349  0.7018 -2.9863  0.9925
  770MOL0     H 1589  10.049   9.836   4.105  1.7183  1.1468 -0.3635
  770MOL0     H 1590  10.034   9.756   4.265  5.1115 -0.5394 -0.7430
  770MOL0     H 1591   9.933  10.032   4.233 -3.8613  1.0715 -0.8437
  770MOL0     H 1592   9.870   9.904   4.342  3.1638  0.2477  1.1309
  770MOL0     H 1593   9.755  10.117   4.070 -0.4420 -0.8088 -0.4585
  770MOL0     H 1594   9.543   9.931   3.811  2.0627 -1.8319  1.9049
  770MOL0     H 1595   9.613  10.089   3.848  1.2570 -1.4468 -1.6524
  770MOL0     H 1596   9.459  10.118   4.032  1.6097  1.4629 -1.5943
  770MOL0     H 1597   9.391   9.955   4.013 -1.5235  0.8330 -0.9906
  770MOL0     H 1598   9.393  10.166   3.792  0.9831  0.2108  1.9272
  770MOL0     H 1599   9.323   9.998   3.785  0.9794 -1.7802  1.1114
  770MOL0     H 1600   9.239  10.228   3.962 -1.8612  2.0208 -2.9548
  770MOL0     H 1601   9.180  10.064   3.965  3.9111  0.2586  3.0650
  770MOL0     H 1602   8.960  10.214   3.620  2.2132 -0.4178  0.8035
  770MOL0     H 1603   8.746  10.276   3.633  1.2985  0.4274 -1.3556
  770MOL0     H 1604   8.349  10.159   3.633  2.6737  1.4744  0.6037
  770MOL0     H 1605   8.089  10.200   3.622 -2.4465  0.8258  1.0483
  770MOL0     H 1606   7.928  10.551   3.868 -1.3528  2.5002 -1.4766
  770MOL0     H 1607   7.846  10.402   3.904 -1.0236  1.2888  0.7397
  770MOL0     H 1608   7.717  10.420   3.711  4.6048 -1.9519 -0.1354
  770MOL0     H 1609   7.785  10.579   3.663 -2.0047  0.4151 -0.2077
  770MOL0     H 1610   7.699  10.679   3.888 -1.8903  0.1165  1.7994
  770MOL0     H 1611   7.623  10.520   3.914 -2.5846 -0.2861 -0.5142
  770MOL0     H 1612   7.561  10.696   3.676  0.5498 -4.3938 -2.8960
  770MOL0     H 1613   7.477  10.554   3.721 -0.0350 -0.1752 -0.8993
  770MOL0     H 1614   7.492  10.788   3.910 -0.1363 -1.1763  1.7120
  770MOL0     H 1615   7.388  10.652   3.914 -0.8872  2.8934  1.1342
  770MOL0     H 1616   7.301  10.721   3.690 -1.6235 -0.9494  1.2763
  770MOL0     H 1617   7.416  10.859   3.696  2.0544 -3.6640 -0.9133
  770MOL0     H 1618   7.165  10.892   3.740 -0.7720  2.5792  1.1890
  770MOL0     H 1619   7.195  10.809   3.899 -0.4920 -1.2424 -1.5378
  770MOL0     H 1620   7.221  11.083   3.893  0.9228  1.6178  0.9382
  770MOL0     H 1621   7.394  11.036   3.861  1.2766 -1.7235  1.7590
  770MOL0     H 1622   8.135  10.559   3.836  1.2897  0.5691  0.1457
  770MOL0     H 1623   8.376  10.502   3.883  0.7997 -0.5007  0.6946
  770MOL0     H 1624   8.810  10.324   4.076  1.0494 -0.6494  0.8715
  770MOL0     H 1625   9.033  10.276   4.033 -0.6150  4.1822 -0.7867
  770MOL0     H 1626  10.800   9.599   4.641  0.7695  0.0042 -2.8886
  770MOL0     H 1627  11.028   9.538   4.712 -1.0588 -0.0669 -0.9853
  770MOL0     H 1628  11.378   9.216   4.704 -1.1252 -3.0903  0.3326
  770MOL0     H 1629  11.593   9.118   4.749  1.3647  0.7490  1.2710
  770MOL0     H 1630  11.727   9.022   5.186 -1.7737 -0.1384  0.7995
  770MOL0     H 1631  11.790   9.163   5.086  1.5138 -1.4433 -2.0604
  770MOL0     H 1632  11.963   9.033   4.996 -1.9858  0.9065  0.2966
  770MOL0     H 1633  11.946   9.003   5.167  3.8476 -2.1960 -1.6162
  770MOL0     H 1634  11.798   8.809   5.000 -2.0795 -0.5711  3.9247
  770MOL0     H 1635  11.889   8.779   5.138 -3.8823 -0.8451 -1.1218
  770MOL0     H 1636  11.943   8.684   4.892  1.1394 -0.2578 -1.3287
  770MOL0     H 1637  12.011   8.837   4.858 -1.6570  1.3054 -0.1272
  770MOL0     H 1638  12.238   8.558   5.120  0.6991  0.7789  0.7561
  770MOL0     H 1639  11.468   9.079   5.166 -0.3745  1.6953 -0.0191
  770MOL0     H 1640  11.269   9.154   5.114 -1.2081 -1.0297 -0.8640
  771MOL0     O 1641   8.019   7.054   0.927  0.0057 -0.3062 -0.1459
  771MOL0     C 1642   8.043   6.936   0.927 -0.9518 -0.2605  1.7132
  771MOL0     O 1643   7.960   6.832   0.920  0.2464 -0.1745 -0.0461
  771MOL0     C 1644   7.825   6.852   0.896 -0.1482  0.3542  1.1527
  771MOL0     C 1645   7.784   6.937   0.791  0.1476  0.0013 -0.0157
  771MOL0     C 1646   7.648   6.935   0.743  0.8295 -0.2855 -0.4301
  771MOL0     C 1647   7.551   6.865   0.817  0.1324  0.1124 -0.0481
  771MOL0     O 1648   7.419   6.864   0.779  0.3571  0.0551 -0.5115
  771MOL0     C 1649   7.310   6.920   0.854  0.1583  0.7823 -0.1446
  771MOL0     C 1650   7.182   6.913   0.763 -0.2346 -1.2520 -0.0049
  771MOL0     C 1651   7.050   6.923   0.839  0.1507 -0.3362 -0.4926
  771MOL0     C 1652   6.945   6.867   0.741  0.5549 -0.5174 -0.5507
  771MOL0     C 1653   6.802   6.864   0.796  0.6390 -0.0242  1.1303
  771MOL0     C 1654   6.687   6.883   0.700  0.4765 -0.3156  0.6357
  771MOL0     C 1655   6.552   6.945   0.745  0.1118  0.2043 -0.1736
  771MOL0     C 1656   6.558   7.107   0.769 -0.6204  0.0699  0.8074
  771MOL0     N 1657   6.415   7.149   0.803 -0.3473  0.6522  0.8357
  771MOL0     C 1658   6.357   7.134   0.922  0.4910  0.4424 -0.1545
  771MOL0     C 1659   6.219   7.154   0.895 -0.0210 -0.8995 -0.2978
  771MOL0     C 1660   6.117   7.158   0.999 -0.0701  0.1449 -0.6328
  771MOL0     C 1661   6.035   7.023   0.996 -0.4979 -0.6431 -0.1141
  771MOL0     C 1662   5.917   7.020   1.102 -0.1958 -0.9903 -0.1044
  771MOL0     C 1663   5.832   6.888   1.092  0.2488  0.7027 -0.1836
  771MOL0     O 1664   5.719   6.895   1.176  0.6491 -0.5012  0.4152
  771MOL0     C 1665   5.602   6.950   1.128 -0.3389  0.1018  0.6854
  771MOL0     C 1666   5.589   7.019   1.001  0.2225 -0.4943  0.3387
  771MOL0     C 1667   5.462   7.076   0.976 -0.7136 -0.6221 -0.0644
  771MOL0     C 1668   5.358   7.070   1.073  0.2537  0.3448 -0.0342
  771MOL0     C 1669   5.224   7.125   1.040 -0.0514 -0.6129 -0.4782
  771MOL0     O 1670   5.206   7.197   0.924 -0.5325  0.4661  0.1741
  771MOL0     C 1671   5.082   7.239   0.877 -0.0598  0.8122 -0.4940
  771MOL0     C 1672   5.082   7.346   0.784 -0.2723  0.2875 -0.5468
  771MOL0     C 1673   4.968   7.386   0.710 -0.3276  0.8944 -0.1259
  771MOL0     C 1674   4.857   7.296   0.716  0.4602 -0.4683  0.2753
  771MOL0     O 1675   4.737   7.327   0.660  0.1492 -0.9369 -0.4436
  771MOL0     C 1676   4.747   7.386   0.525 -0.3327 -0.1843 -0.9238
  771MOL0     C 1677   4.607   7.430   0.486 -0.2327 -0.2514 -0.0677
  771MOL0     C 1678   4.513   7.309   0.478 -0.9594 -0.3322  0.3014
  771MOL0     C 1679   4.377   7.343   0.424  0.3636  0.2720  0.0021
  771MOL0     C 1680   4.279   7.221   0.435  0.2714  0.4530  0.7117
  771MOL0     C 1681   4.130   7.265   0.413 -0.7350 -0.4663  0.3888
  771MOL0     C 1682   4.039   7.137   0.388 -0.2380 -0.1848 -0.3194
  771MOL0     C 1683   3.895   7.184   0.387 -0.2726  0.5411  0.8165
  771MOL0    Cl 1684   3.786   7.043   0.395  0.3542  0.0665 -0.4938
  771MOL0     C 1685   4.866   7.186   0.811  0.4294  0.0332  1.1338
  771MOL0     C 1686   4.966   7.164   0.895 -0.0737  1.1359 -0.5783
  771MOL0     O 1687   5.137   7.108   1.126 -0.0872 -0.2213 -0.5245
  771MOL0     C 1688   5.375   6.998   1.192  0.0437 -0.4544  0.2281
  771MOL0     C 1689   5.494   6.942   1.217 -0.8036 -0.3665 -0.0331
  771MOL0     N 1690   6.202   7.187   0.766 -0.6374 -0.1103  0.3168
  771MOL0     N 1691   6.320   7.187   0.713 -0.1340 -0.0977  0.1341
  771MOL0     C 1692   7.589   6.790   0.926  0.6474  0.5754  0.3267
  771MOL0     C 1693   7.727   6.779   0.953 -0.0615  0.2841 -0.3765
  771MOL0     C 1694   8.190   6.909   0.932 -0.0928 -0.0882 -0.9239
  771MOL0     C 1695   8.226   6.778   0.956  0.1450  0.0566 -0.3899
  771MOL0     C 1696   8.368   6.763   0.973 -0.9669 -0.8812  0.3707
  771MOL0     C 1697   8.458   6.866   0.988  0.1697 -0.0491 -0.2114
  771MOL0     O 1698   8.591   6.849   1.022  0.0149  0.0764  1.0473
  771MOL0     C 1699   8.598   6.787   1.152  0.2904 -0.5269  0.0138
  771MOL0     C 1700   8.726   6.804   1.232 -0.4513  1.1393 -0.4155
  771MOL0     C 1701   8.727   6.952   1.284 -0.1698  0.1688  0.4163
  771MOL0     C 1702   8.876   6.985   1.309 -0.2288  0.4099  0.2403
  771MOL0     C 1703   8.949   6.890   1.394  0.2283 -0.3107 -0.1627
  771MOL0     C 1704   9.007   6.808   1.467 -0.1660  0.6881 -0.4583
  771MOL0     C 1705   8.418   6.993   0.956  0.6235  0.0007  1.0268
  771MOL0     C 1706   8.283   7.015   0.921  0.0941  0.0828 -0.0050
  771MOL0     H 1707   7.854   6.992   0.729 -1.1437 -3.8264 -5.6125
  771MOL0     H 1708   7.614   6.997   0.661  0.6038 -1.0035 -0.8872
  771MOL0     H 1709   7.337   7.022   0.885  0.1754 -0.0890  3.0880
  771MOL0     H 1710   7.299   6.866   0.949 -0.0340  3.3868  1.4081
  771MOL0     H 1711   7.203   6.828   0.697  0.0925 -0.9022 -0.3600
  771MOL0     H 1712   7.179   7.004   0.702  1.3442  0.4094  2.2248
  771MOL0     H 1713   7.026   7.026   0.865 -0.8053 -0.1834 -1.8455
  771MOL0     H 1714   7.053   6.852   0.922 -1.4432 -2.2861 -1.9846
  771MOL0     H 1715   6.957   6.925   0.649  1.8045  1.2048  0.6311
  771MOL0     H 1716   6.972   6.764   0.715  1.1508 -0.5432  0.1267
  771MOL0     H 1717   6.790   6.949   0.864  0.7003  1.3511 -0.5095
  771MOL0     H 1718   6.781   6.766   0.841 -1.1858 -1.8290 -3.0850
  771MOL0     H 1719   6.677   6.796   0.635 -0.1099  0.2989 -0.1170
  771MOL0     H 1720   6.718   6.965   0.634  1.8078 -2.0805 -1.0671
  771MOL0     H 1721   6.471   6.914   0.678 -1.1731 -0.5100  1.6058
  771MOL0     H 1722   6.532   6.894   0.840  1.0194  0.6526  0.2640
  771MOL0     H 1723   6.595   7.142   0.672 -2.3228 -1.3873 -0.4363
  771MOL0     H 1724   6.627   7.127   0.852  0.1137 -4.2438  1.5024
  771MOL0     H 1725   6.404   7.107   1.016 -0.1705  1.7740  0.5807
  771MOL0     H 1726   6.047   7.241   0.994 -1.6955 -1.2371 -1.9064
  771MOL0     H 1727   6.174   7.162   1.093  1.1742  1.3115 -1.4057
  771MOL0     H 1728   6.109   6.943   1.006  0.7511  0.5144  0.1920
  771MOL0     H 1729   5.985   7.024   0.898 -1.1389  4.6415 -0.0240
  771MOL0     H 1730   5.956   7.033   1.203 -2.2571  3.4153  0.3740
  771MOL0     H 1731   5.858   7.111   1.086  0.2176 -0.8979 -1.1532
  771MOL0     H 1732   5.897   6.804   1.119  0.2252 -0.0359 -2.2147
  771MOL0     H 1733   5.810   6.878   0.985 -0.9956 -3.8509  0.3272
  771MOL0     H 1734   5.672   7.039   0.934 -1.6616  1.0443 -1.6663
  771MOL0     H 1735   5.442   7.135   0.887 -2.2778 -0.8954  0.0800
  771MOL0     H 1736   5.161   7.420   0.786 -0.2474  0.2464  0.1189
  771MOL0     H 1737   4.963   7.483   0.662  0.3451 -1.0969 -4.6830
  771MOL0     H 1738   4.790   7.309   0.460  1.5401 -0.0673  0.0934
  771MOL0     H 1739   4.810   7.475   0.535 -1.0552  0.1275  1.5165
  771MOL0     H 1740   4.602   7.488   0.393 -3.7932  0.2209  0.2826
  771MOL0     H 1741   4.562   7.496   0.561 -0.7990 -0.8674  0.1407
  771MOL0     H 1742   4.500   7.275   0.581  3.3335 -0.2319  1.0859
  771MOL0     H 1743   4.556   7.222   0.428  1.7224 -0.2328  2.2135
  771MOL0     H 1744   4.330   7.420   0.484 -0.6178 -0.0835 -0.2905
  771MOL0     H 1745   4.398   7.382   0.324  1.8457  0.1789  0.2443
  771MOL0     H 1746   4.290   7.179   0.535  0.9070 -1.9323 -0.2889
  771MOL0     H 1747   4.308   7.145   0.362  3.1989  0.8774  1.2927
  771MOL0     H 1748   4.105   7.310   0.317 -2.9169 -3.5302 -0.6607
  771MOL0     H 1749   4.103   7.331   0.496  1.1135 -1.2585  1.6938
  771MOL0     H 1750   4.076   7.080   0.303  2.1064 -0.1753  0.6363
  771MOL0     H 1751   4.042   7.075   0.478 -3.0458 -1.3856 -0.9364
  771MOL0     H 1752   3.880   7.245   0.298  0.4167  2.2421  1.8035
  771MOL0     H 1753   3.873   7.251   0.472  1.9383  1.1750  0.9722
  771MOL0     H 1754   4.783   7.117   0.823  0.4624  0.4039  4.2587
  771MOL0     H 1755   4.963   7.089   0.973 -1.9395  2.1023  0.3447
  771MOL0     H 1756   5.302   6.978   1.270 -0.0286 -0.9864  0.0279
  771MOL0     H 1757   5.503   6.885   1.309 -1.1831 -1.6064 -0.7413
  771MOL0     H 1758   7.517   6.736   0.986 -0.3300  0.0589 -1.2253
  771MOL0     H 1759   7.760   6.718   1.037  0.3047  2.4912  1.1556
  771MOL0     H 1760   8.157   6.693   0.955 -0.2290  0.2019  2.6994
  771MOL0     H 1761   8.419   6.668   0.988  2.4911  0.9064  0.8035
  771MOL0     H 1762   8.588   6.679   1.132 -1.4780 -0.3234 -0.3561
  771MOL0     H 1763   8.522   6.833   1.216 -0.3293  2.5102 -2.6849
  771MOL0     H 1764   8.724   6.729   1.312  1.9142  0.7023 -0.7101
  771MOL0     H 1765   8.815   6.783   1.172  0.3403  1.7880  0.4933
  771MOL0     H 1766   8.665   6.963   1.373 -0.1431  0.5871  0.3867
  771MOL0     H 1767   8.685   7.028   1.217 -1.7058  0.0961  1.2553
  771MOL0     H 1768   8.912   6.984   1.205 -2.0927  0.3766 -0.4422
  771MOL0     H 1769   8.884   7.085   1.351 -1.4190  1.4209 -1.7825
  771MOL0     H 1770   9.057   6.725   1.513 -1.3474  1.0537  1.6181
  771MOL0     H 1771   8.492   7.072   0.964 -0.8575  2.0904 -2.9141
  771MOL0     H 1772   8.254   7.117   0.895 -0.7348 -0.0901  0.2103
  772MOL0     O 1773   8.259  10.516   4.726  0.5508 -0.1515  0.0451
  772MOL0     C 1774   8.306  10.626   4.758  0.3136 -0.4414  0.2583
  772MOL0     O 1775   8.233  10.744   4.758 -0.0450 -0.8426 -0.3138
  772MOL0     C 1776   8.094  10.740   4.746  0.9928 -0.0834  0.1442
  772MOL0     C 1777   8.001  10.643   4.783 -0.9305  0.8014  0.1170
  772MOL0     C 1778   7.868  10.658   4.761  0.7185  0.5241  1.1104
  772MOL0     C 1779   7.814  10.776   4.701 -0.9596  0.2114  0.4753
  772MOL0     O 1780   7.680  10.817   4.676 -0.3638  0.3893  0.4840
  772MOL0     C 1781   7.576  10.718   4.692 -0.8294  0.0978  0.1636
  772MOL0     C 1782   7.445  10.788   4.654  0.3116  0.0286  1.0503
  772MOL0     C 1783   7.336  10.680   4.623  0.0537  0.7111  0.3286
  772MOL0     C 1784   7.212  10.754   4.572 -0.2671 -0.5283  0.7462
  772MOL0     C 1785   7.084  10.719   4.643  0.8151 -1.2274  0.6900
  772MOL0     C 1786   6.965  10.794   4.567  0.4140 -0.3660  0.2044
  772MOL0     C 1787   6.841  10.793   4.647 -0.7503  0.0658  0.8322
  772MOL0     C 1788   6.737  10.900   4.603 -0.1286 -1.0230 -0.4018
  772MOL0     N 1789   6.687  10.885   4.463  0.2705  0.3372  1.0018
  772MOL0     C 1790   6.635  10.768   4.412  0.2376  0.0741 -0.4813
  772MOL0     C 1791   6.580  10.803   4.298 -1.1189 -0.1935 -0.3798
  772MOL0     C 1792   6.509  10.705   4.215  0.3247  0.1606  0.7649
  772MOL0     C 1793   6.370  10.671   4.272  0.9648  0.0148 -0.1564
  772MOL0     C 1794   6.276  10.791   4.241 -0.7838  0.4054 -0.1301
  772MOL0     C 1795   6.141  10.775   4.299  0.3631 -0.4066  0.9973
  772MOL0     O 1796   6.053  10.865   4.243  0.2274 -0.8897  0.5312
  772MOL0     C 1797   5.918  10.829   4.253 -0.5952 -0.2017  0.2583
  772MOL0     C 1798   5.863  10.750   4.352 -0.7844  0.4839 -0.0672
  772MOL0     C 1799   5.724  10.715   4.339 -0.8218 -0.6321 -0.6953
  772MOL0     C 1800   5.641  10.744   4.234  0.1447 -0.7331  0.1564
  772MOL0     C 1801   5.493  10.721   4.225  0.8107  1.0077 -0.5358
  772MOL0     O 1802   5.432  10.748   4.100  0.7787  0.5018  1.0604
  772MOL0     C 1803   5.292  10.711   4.088 -0.0942  1.1861  0.5911
  772MOL0     C 1804   5.199  10.773   4.168  0.3875  0.0201 -0.0423
  772MOL0     C 1805   5.064  10.759   4.140 -1.0895  0.2285 -0.9197
  772MOL0     C 1806   5.023  10.688   4.023 -1.2692  0.3723  1.1219
  772MOL0     O 1807   4.896  10.680   3.975  0.4833 -0.2489 -0.1954
  772MOL0     C 1808   4.797  10.744   4.056  0.2366 -0.0618 -0.2214
  772MOL0     C 1809   4.658  10.709   3.998  0.0604 -0.8286  0.5350
  772MOL0     C 1810   4.539  10.760   4.066  0.3350 -0.0360  0.6931
  772MOL0     C 1811   4.518  10.708   4.208 -0.3775  0.6236  0.3469
  772MOL0     C 1812   4.400  10.778   4.283 -0.8987  0.5967 -0.2138
  772MOL0     C 1813   4.372  10.699   4.403 -0.3015 -0.0607 -0.6167
  772MOL0     C 1814   4.285  10.772   4.511 -0.0511 -0.0007  0.5630
  772MOL0     C 1815   4.295  10.703   4.646  0.2328  0.9878 -0.5180
  772MOL0    Cl 1816   4.239  10.533   4.626 -0.4055 -0.0435 -0.3802
  772MOL0     C 1817   5.124  10.628   3.946 -0.5556 -0.7606 -0.0069
  772MOL0     C 1818   5.257  10.633   3.974  0.3731 -0.1950 -1.5247
  772MOL0     O 1819   5.431  10.683   4.333 -0.6605 -0.1271  0.6723
  772MOL0     C 1820   5.707  10.812   4.130  0.0098  0.4478  0.2779
  772MOL0     C 1821   5.835  10.855   4.141  0.2707 -1.1925 -0.9948
  772MOL0     N 1822   6.606  10.930   4.265 -0.8727 -0.1994  0.1310
  772MOL0     N 1823   6.672  10.982   4.370  0.6370 -0.3414  0.7837
  772MOL0     C 1824   7.905  10.874   4.668  0.4722 -0.0713 -0.0547
  772MOL0     C 1825   8.045  10.849   4.682  1.2761 -0.1359 -0.4080
  772MOL0     C 1826   8.451  10.632   4.789 -0.4459  0.3654  1.4297
  772MOL0     C 1827   8.526  10.516   4.809 -0.4742 -0.3450  0.6934
  772MOL0     C 1828   8.660  10.525   4.839  0.2417 -0.8616 -0.2865
  772MOL0     C 1829   8.731  10.647   4.855 -0.1728  0.6333  0.1972
  772MOL0     O 1830   8.866  10.653   4.889 -0.3902  0.2182 -0.0022
  772MOL0     C 1831   8.939  10.530   4.867  0.0025  0.5855  0.1994
  772MOL0     C 1832   9.084  10.575   4.892  0.6408 -0.2616 -0.3300
  772MOL0     C 1833   9.159  10.688   4.809  0.1069  1.4894  0.1122
  772MOL0     C 1834   9.308  10.669   4.795 -1.1910 -0.0187  0.1547
  772MOL0     C 1835   9.319  10.570   4.685 -0.6580 -0.1751 -0.4311
  772MOL0     C 1836   9.309  10.489   4.600 -0.1107  0.5316 -1.0851
  772MOL0     C 1837   8.660  10.760   4.821  0.1718  0.3493  0.2585
  772MOL0     C 1838   8.524  10.758   4.791  0.1186  0.3146  1.1244
  772MOL0     H 1839   8.038  10.548   4.818  0.3372  1.0424 -0.4920
  772MOL0     H 1840   7.802  10.589   4.813 -0.0655 -0.5930 -1.2176
  772MOL0     H 1841   7.575  10.686   4.797 -0.4234  1.1009  0.4912
  772MOL0     H 1842   7.584  10.622   4.640 -4.2072 -0.1747 -0.1039
  772MOL0     H 1843   7.463  10.844   4.562  2.9727 -2.3475 -0.0084
  772MOL0     H 1844   7.413  10.850   4.739  1.5360  1.9152  0.1888
  772MOL0     H 1845   7.305  10.631   4.716  0.7929  0.0774  0.2442
  772MOL0     H 1846   7.371  10.602   4.556  1.0750  1.5603 -0.1645
  772MOL0     H 1847   7.222  10.863   4.577 -1.2161 -0.4293  0.6846
  772MOL0     H 1848   7.193  10.726   4.468 -0.0364  2.1901 -0.1093
  772MOL0     H 1849   7.094  10.742   4.750  0.5248 -0.3986  0.5482
  772MOL0     H 1850   7.059  10.615   4.625  2.3155 -1.3496 -1.0843
  772MOL0     H 1851   6.957  10.754   4.466 -1.5766 -1.5994  0.7932
  772MOL0     H 1852   7.008  10.894   4.559 -0.9813  0.4035  1.6925
  772MOL0     H 1853   6.798  10.693   4.633 -1.4206  0.6108 -1.3013
  772MOL0     H 1854   6.857  10.800   4.755  1.8132 -0.5407  0.5439
  772MOL0     H 1855   6.783  10.999   4.593  0.2680 -1.3166 -1.6466
  772MOL0     H 1856   6.652  10.903   4.672 -2.3954  1.9619 -3.0005
  772MOL0     H 1857   6.638  10.671   4.462 -0.1882 -0.7223 -1.9462
  772MOL0     H 1858   6.563  10.610   4.200  0.8210  0.9389 -4.5348
  772MOL0     H 1859   6.499  10.737   4.110  1.6606 -0.6294  0.3703
  772MOL0     H 1860   6.384  10.649   4.378  2.5663 -1.5632 -0.6354
  772MOL0     H 1861   6.334  10.581   4.222 -0.3621 -0.3631  1.4178
  772MOL0     H 1862   6.324  10.883   4.274  0.9183 -0.3127 -0.4822
  772MOL0     H 1863   6.252  10.807   4.135  0.2950 -0.7768 -0.5836
  772MOL0     H 1864   6.160  10.786   4.406  2.1349  1.6600  0.5609
  772MOL0     H 1865   6.114  10.673   4.271 -0.0136 -0.8901  2.9933
  772MOL0     H 1866   5.914  10.712   4.440  0.0837 -2.2214 -1.6309
  772MOL0     H 1867   5.679  10.666   4.424  0.7086 -0.4737  0.2465
  772MOL0     H 1868   5.243  10.834   4.247 -1.8004 -3.0167  3.8896
  772MOL0     H 1869   4.996  10.824   4.194 -0.8905  0.3831 -0.8518
  772MOL0     H 1870   4.815  10.849   4.079  3.2062 -0.6865  0.7873
  772MOL0     H 1871   4.813  10.696   4.153  0.2277  0.3690 -0.0048
  772MOL0     H 1872   4.653  10.600   4.011 -1.4282 -0.7562  0.7571
  772MOL0     H 1873   4.652  10.742   3.895  0.1120 -0.0492  0.7801
  772MOL0     H 1874   4.454  10.716   4.012  0.5717  0.1909  0.1234
  772MOL0     H 1875   4.537  10.870   4.071  0.2407 -0.0743  1.7555
  772MOL0     H 1876   4.491  10.602   4.202 -1.7190  0.9877 -0.2354
  772MOL0     H 1877   4.608  10.719   4.269  0.1825 -2.0382  0.1713
  772MOL0     H 1878   4.317  10.772   4.213 -2.1038 -2.0948  1.3154
  772MOL0     H 1879   4.432  10.879   4.313  0.6258  0.6708 -1.9044
  772MOL0     H 1880   4.468  10.685   4.453  0.3581  0.3751 -1.7108
  772MOL0     H 1881   4.325  10.606   4.370 -1.3949  0.3355 -0.2080
  772MOL0     H 1882   4.318  10.871   4.544  2.4451 -0.6515  0.1853
  772MOL0     H 1883   4.184  10.768   4.469  0.2591 -1.3179 -0.1116
  772MOL0     H 1884   4.242  10.747   4.731 -1.3934  0.2900 -1.1357
  772MOL0     H 1885   4.402  10.700   4.665 -0.0591 -0.6958  1.1319
  772MOL0     H 1886   5.101  10.567   3.859  2.3189  0.8987 -2.1372
  772MOL0     H 1887   5.331  10.576   3.920  1.7606 -1.1800  1.2430
  772MOL0     H 1888   5.639  10.838   4.050 -1.4199 -3.2881  0.0737
  772MOL0     H 1889   5.869  10.924   4.064 -0.4580  1.1602  0.6601
  772MOL0     H 1890   7.865  10.957   4.610  2.7032 -0.1603 -1.8658
  772MOL0     H 1891   8.108  10.928   4.643 -0.4656  1.4997 -0.0711
  772MOL0     H 1892   8.480  10.418   4.822 -0.6344 -0.3157  0.3707
  772MOL0     H 1893   8.714  10.432   4.853  0.6736 -0.3525  1.7256
  772MOL0     H 1894   8.912  10.489   4.769 -2.0428  2.4430 -0.0892
  772MOL0     H 1895   8.911  10.461   4.947  1.3975  2.0343  2.0023
  772MOL0     H 1896   9.100  10.582   5.000 -1.0027 -0.5857 -0.0462
  772MOL0     H 1897   9.139  10.481   4.889 -1.0814 -1.4417  1.6993
  772MOL0     H 1898   9.132  10.778   4.865 -3.5549 -0.6794  2.1998
  772MOL0     H 1899   9.103  10.711   4.718  0.7364  0.5223 -0.5437
  772MOL0     H 1900   9.370  10.758   4.779 -1.8691  0.6249  0.9965
  772MOL0     H 1901   9.357  10.639   4.889  1.4624  1.0730 -0.7652
  772MOL0     H 1902   9.298  10.423   4.517  0.1518 -0.8201 -0.0815
  772MOL0     H 1903   8.709  10.856   4.816 -5.0049  3.3201 -2.0062
  772MOL0     H 1904   8.477  10.852   4.763 -0.8783 -0.4751  0.0689
  773MOL0     O 1905   0.024   5.315   1.266  0.8101 -0.0395  0.5251
  773MOL0     C 1906   0.090   5.410   1.309 -0.2642 -0.7284  0.0991
  773MOL0     O 1907   0.044   5.539   1.342  0.0408  0.3698  0.0921
  773MOL0     C 1908  -0.096   5.545   1.348 -0.5474 -0.2175  0.3419
  773MOL0     C 1909  -0.168   5.553   1.469 -0.0035 -0.0610  0.4747
  773MOL0     C 1910  -0.309   5.569   1.470 -0.9631 -0.9141 -0.6766
  773MOL0     C 1911  -0.385   5.589   1.358  0.3314 -0.5319  0.0945
  773MOL0     O 1912  -0.518   5.624   1.362  0.6370 -0.1614  0.4382
  773MOL0     C 1913  -0.609   5.532   1.305  0.3293 -0.1315 -0.2136
  773MOL0     C 1914  -0.743   5.546   1.376 -0.0431 -0.0450 -0.5045
  773MOL0     C 1915  -0.845   5.423   1.359 -0.1086 -0.3007 -0.2317
  773MOL0     C 1916  -0.996   5.469   1.347 -0.1098  0.8489  0.5626
  773MOL0     C 1917  -1.018   5.549   1.227  0.4764 -0.4944  0.0668
  773MOL0     C 1918  -1.136   5.502   1.144 -0.3428  0.5949  0.3633
  773MOL0     C 1919  -1.273   5.564   1.169 -0.3076 -1.1216 -0.2413
  773MOL0     C 1920  -1.385   5.477   1.094 -0.3023  0.4552  0.2450
  773MOL0     N 1921  -1.516   5.513   1.142 -0.0073 -0.3264 -0.4393
  773MOL0     C 1922  -1.579   5.453   1.247  0.3930 -0.0238  0.0371
  773MOL0     C 1923  -1.705   5.507   1.245  0.7521  0.0879  0.1635
  773MOL0     C 1924  -1.831   5.456   1.322  0.4656  0.9725  0.2476
  773MOL0     C 1925  -1.825   5.497   1.466  0.3031  0.3560 -1.0349
  773MOL0     C 1926  -1.931   5.433   1.543  0.2401  0.0678 -0.2540
  773MOL0     C 1927  -2.075   5.505   1.536  0.4943 -0.2795  0.1106
  773MOL0     O 1928  -2.182   5.433   1.601  0.3940  0.1634  0.5231
  773MOL0     C 1929  -2.243   5.320   1.555  0.6751 -0.4574 -0.0466
  773MOL0     C 1930  -2.224   5.265   1.431  0.0665  0.1737  0.4531
  773MOL0     C 1931  -2.295   5.154   1.389 -0.1894 -0.1332  0.3808
  773MOL0     C 1932  -2.393   5.103   1.466 -0.2553  0.0833 -0.5172
  773MOL0     C 1933  -2.491   4.996   1.410  0.2717 -0.1485 -0.4461
  773MOL0     O 1934  -2.592   4.959   1.500 -0.0977 -0.3668  0.4113
  773MOL0     C 1935  -2.708   4.889   1.473 -0.3383  0.3145  0.1152
  773MOL0     C 1936  -2.753   4.858   1.341  0.6988 -0.0623  0.2323
  773MOL0     C 1937  -2.885   4.809   1.326  0.4254  0.2556 -0.1112
  773MOL0     C 1938  -2.970   4.789   1.433  0.7571 -0.0491  0.2615
  773MOL0     O 1939  -3.103   4.749   1.414 -0.0874  0.1938  0.5787
  773MOL0     C 1940  -3.145   4.663   1.310  0.8946 -0.3359  0.7480
  773MOL0     C 1941  -3.294   4.625   1.337  0.1953 -0.2765 -0.6016
  773MOL0     C 1942  -3.330   4.510   1.254  0.9743  0.7979  1.0648
  773MOL0     C 1943  -3.481   4.469   1.276 -0.0660  0.1904 -0.1591
  773MOL0     C 1944  -3.507   4.323   1.232 -0.6515  0.1466  0.0578
  773MOL0     C 1945  -3.646   4.305   1.170  0.1751  0.6460  0.2345
  773MOL0     C 1946  -3.763   4.375   1.238 -0.2225 -0.0584  0.0658
  773MOL0     C 1947  -3.902   4.302   1.222  0.4319  0.4400  0.3792
  773MOL0    Cl 1948  -3.962   4.329   1.058 -0.0803  0.4436  0.0061
  773MOL0     C 1949  -2.922   4.816   1.565 -0.0504  0.1708  0.1661
  773MOL0     C 1950  -2.788   4.850   1.585 -0.4769 -0.5799 -0.0498
  773MOL0     O 1951  -2.474   4.963   1.294  0.3233 -0.3005 -0.2927
  773MOL0     C 1952  -2.419   5.153   1.592 -0.5130 -0.0503 -0.1779
  773MOL0     C 1953  -2.334   5.257   1.639  0.2631  0.2468  0.5654
  773MOL0     N 1954  -1.708   5.609   1.148 -0.3850 -1.1613  0.2942
  773MOL0     N 1955  -1.597   5.605   1.082 -0.1557  0.1256 -0.4924
  773MOL0     C 1956  -0.313   5.586   1.233 -0.7250  0.4065 -0.1432
  773MOL0     C 1957  -0.173   5.557   1.233  0.1140  0.6761  0.2676
  773MOL0     C 1958   0.229   5.394   1.344 -0.3538 -0.1703 -1.0077
  773MOL0     C 1959   0.296   5.496   1.412  0.0528 -0.2234  0.0960
  773MOL0     C 1960   0.434   5.486   1.447 -0.2757  1.4138 -0.8846
  773MOL0     C 1961   0.512   5.377   1.410  0.0924  0.0827 -0.8007
  773MOL0     O 1962   0.648   5.385   1.452 -0.3084 -0.5131 -0.1825
  773MOL0     C 1963   0.715   5.262   1.452 -0.9174  0.8021 -0.8006
  773MOL0     C 1964   0.850   5.262   1.520 -0.0527  0.0095 -0.3013
  773MOL0     C 1965   0.913   5.126   1.545  0.0636  0.3279  0.5276
  773MOL0     C 1966   0.988   5.076   1.416 -0.4612  0.0425  0.6450
  773MOL0     C 1967   0.896   5.023   1.311 -0.4281 -0.3917 -1.2211
  773MOL0     C 1968   0.806   4.985   1.233 -0.1839  0.5345 -0.4843
  773MOL0     C 1969   0.450   5.272   1.338 -0.9700  1.2811 -0.2229
  773MOL0     C 1970   0.308   5.272   1.318 -0.2503 -0.2465 -0.8736
  773MOL0     H 1971  -0.108   5.538   1.558  3.5174  0.0669 -1.6569
  773MOL0     H 1972  -0.374   5.555   1.556 -0.1454 -1.7131 -0.1823
  773MOL0     H 1973  -0.579   5.428   1.320 -0.5133  0.0272  3.4943
  773MOL0     H 1974  -0.623   5.544   1.197 -2.7772 -0.8361  0.0095
  773MOL0     H 1975  -0.777   5.641   1.332  1.9674  1.2375  0.5464
  773MOL0     H 1976  -0.745   5.558   1.485 -0.3537  0.3527 -0.5501
  773MOL0     H 1977  -0.857   5.356   1.445 -1.0407 -1.7553 -1.4668
  773MOL0     H 1978  -0.825   5.366   1.268 -1.5994 -1.2608  0.0192
  773MOL0     H 1979  -1.047   5.373   1.344  0.2589  0.6633  0.0134
  773MOL0     H 1980  -1.035   5.524   1.433 -2.2229  1.1557 -0.5391
  773MOL0     H 1981  -0.935   5.548   1.157  0.7403 -0.2376  0.3668
  773MOL0     H 1982  -1.014   5.657   1.247  2.3855  0.1162 -3.0500
  773MOL0     H 1983  -1.140   5.393   1.148 -2.7961  0.3771 -3.1696
  773MOL0     H 1984  -1.111   5.525   1.040  2.7129 -0.7725  0.6847
  773MOL0     H 1985  -1.300   5.557   1.274 -1.8119 -1.0343 -0.6017
  773MOL0     H 1986  -1.265   5.669   1.137 -0.0505 -1.2568 -0.6333
  773MOL0     H 1987  -1.379   5.368   1.102 -3.2461  0.3403  2.9102
  773MOL0     H 1988  -1.401   5.491   0.987 -1.2058 -2.6109 -0.0980
  773MOL0     H 1989  -1.539   5.370   1.304  0.9730  1.4129  1.8267
  773MOL0     H 1990  -1.812   5.352   1.296 -1.5399  1.1433 -2.3173
  773MOL0     H 1991  -1.920   5.485   1.266  3.1136  0.5905 -4.6600
  773MOL0     H 1992  -1.832   5.606   1.476 -1.9045  0.4288 -2.7074
  773MOL0     H 1993  -1.730   5.470   1.513 -0.2215 -0.7652 -0.5962
  773MOL0     H 1994  -1.931   5.327   1.517  1.8435  0.0134 -0.1797
  773MOL0     H 1995  -1.911   5.437   1.651 -1.8007  2.2261  0.1162
  773MOL0     H 1996  -2.105   5.537   1.436 -3.6984  0.1659  1.3236
  773MOL0     H 1997  -2.060   5.607   1.575  3.0304  1.0120 -3.7005
  773MOL0     H 1998  -2.174   5.316   1.349  1.8595 -0.6268  1.0124
  773MOL0     H 1999  -2.275   5.115   1.290  0.7850 -1.1281  0.9485
  773MOL0     H 2000  -2.713   4.890   1.246  0.3163  2.4864  0.8498
  773MOL0     H 2001  -2.924   4.794   1.226  0.0357 -2.4807  0.3891
  773MOL0     H 2002  -3.075   4.580   1.302  0.4422 -0.8579  1.9674
  773MOL0     H 2003  -3.145   4.716   1.215 -2.1489  1.4782  1.6023
  773MOL0     H 2004  -3.371   4.700   1.318 -3.2266 -2.7987  1.9892
  773MOL0     H 2005  -3.292   4.594   1.442  2.3366 -1.3198 -0.8980
  773MOL0     H 2006  -3.258   4.429   1.265  1.8448  0.5108 -4.1891
  773MOL0     H 2007  -3.315   4.540   1.150  1.2261 -1.4247  0.4128
  773MOL0     H 2008  -3.515   4.491   1.378  0.8137  3.4188 -0.4277
  773MOL0     H 2009  -3.534   4.543   1.215  0.7616  0.1416 -0.9518
  773MOL0     H 2010  -3.491   4.254   1.315 -0.7773 -0.2760 -0.2658
  773MOL0     H 2011  -3.437   4.286   1.157 -0.9400 -1.4139  0.5320
  773MOL0     H 2012  -3.669   4.198   1.170 -0.3639  0.7537  0.9880
  773MOL0     H 2013  -3.639   4.333   1.064 -1.6656 -1.1905 -0.4391
  773MOL0     H 2014  -3.741   4.385   1.344  0.8856  0.9812 -0.2565
  773MOL0     H 2015  -3.769   4.477   1.200  2.8391 -0.1651 -0.9734
  773MOL0     H 2016  -3.968   4.333   1.304  0.3207 -1.4081  1.0352
  773MOL0     H 2017  -3.881   4.196   1.240 -0.8103  0.1804  0.4269
  773MOL0     H 2018  -2.974   4.797   1.658  1.6262 -0.6079  0.9910
  773MOL0     H 2019  -2.744   4.868   1.683  0.6808  1.1151 -0.8418
  773MOL0     H 2020  -2.498   5.102   1.646  1.0376 -1.8422  0.5245
  773MOL0     H 2021  -2.348   5.310   1.733  0.5283  1.1349  0.1030
  773MOL0     H 2022  -0.356   5.589   1.134 -0.1424 -0.0009 -0.4159
  773MOL0     H 2023  -0.123   5.549   1.138  1.2597  0.8369  0.8455
  773MOL0     H 2024   0.260   5.592   1.447  3.2334  1.6195 -1.2160
  773MOL0     H 2025   0.480   5.568   1.502 -0.7074 -0.0985  1.8915
  773MOL0     H 2026   0.732   5.240   1.347  1.2548  3.8059 -1.2089
  773MOL0     H 2027   0.665   5.180   1.505  3.2207  0.1457  2.5970
  773MOL0     H 2028   0.920   5.322   1.462 -0.1679  0.9434  0.5029
  773MOL0     H 2029   0.844   5.307   1.620  1.0620 -1.1846  0.3402
  773MOL0     H 2030   0.833   5.053   1.559  0.3081  0.1532  1.0302
  773MOL0     H 2031   0.962   5.130   1.642  1.4095 -2.6956  0.0596
  773MOL0     H 2032   1.050   5.154   1.369  0.8146  0.3609  2.7126
  773MOL0     H 2033   1.060   4.998   1.442 -1.6996 -0.7614  1.7337
  773MOL0     H 2034   0.717   4.949   1.185 -0.8047  1.3468  0.0210
  773MOL0     H 2035   0.511   5.189   1.303  1.4654  2.6054  0.6164
  773MOL0     H 2036   0.251   5.189   1.279 -0.5448 -0.9158  0.8918
  774MOL0     O 2037   9.946  10.273   3.956  0.1463  0.2574 -0.4682
  774MOL0     C 2038   9.949  10.187   3.870  0.9657  0.7422 -0.2956
  774MOL0     O 2039   9.873  10.176   3.758 -0.6070  0.1147 -0.5456
  774MOL0     C 2040   9.765  10.249   3.715  1.0891 -0.1043 -0.1926
  774MOL0     C 2041   9.706  10.354   3.797  1.7119 -0.1671  0.3268
  774MOL0     C 2042   9.599  10.428   3.753  0.3621 -0.7934  0.7800
  774MOL0     C 2043   9.537  10.400   3.637  0.4779 -0.6466  0.5201
  774MOL0     O 2044   9.435  10.486   3.595  0.6784  0.4137 -0.0973
  774MOL0     C 2045   9.303  10.492   3.669  0.6414  0.5996  0.5604
  774MOL0     C 2046   9.270  10.636   3.695  0.5727  0.6532  0.4551
  774MOL0     C 2047   9.350  10.687   3.819  0.0680 -1.0701 -0.5378
  774MOL0     C 2048   9.283  10.820   3.876  0.4634  0.2732  0.8269
  774MOL0     C 2049   9.340  10.880   4.010 -0.5700 -0.1670 -0.7222
  774MOL0     C 2050   9.296  10.787   4.120 -0.2599  0.2646  0.8223
  774MOL0     C 2051   9.319  10.863   4.253  0.0033  0.6247  0.0309
  774MOL0     C 2052   9.300  10.767   4.381 -0.3975 -0.6290 -0.6862
  774MOL0     N 2053   9.163  10.728   4.402  0.5730 -0.0825 -0.2576
  774MOL0     C 2054   9.062  10.796   4.461  0.1715 -0.4883 -0.2846
  774MOL0     C 2055   8.953  10.722   4.446  0.0727  0.2001 -0.5264
  774MOL0     C 2056   8.821  10.736   4.521  0.7189 -0.4721  0.1377
  774MOL0     C 2057   8.707  10.804   4.433 -0.6736 -0.8396  0.1806
  774MOL0     C 2058   8.658  10.722   4.312  0.5225  0.7078 -0.5000
  774MOL0     C 2059   8.579  10.596   4.347  0.0930 -0.3072 -0.6102
  774MOL0     O 2060   8.448  10.638   4.401 -0.3157  0.5682 -0.1831
  774MOL0     C 2061   8.353  10.697   4.322  0.2994  0.2071  0.9793
  774MOL0     C 2062   8.346  10.696   4.178 -0.1712  0.3445  0.6133
  774MOL0     C 2063   8.235  10.744   4.116 -0.7930  0.1575  0.4757
  774MOL0     C 2064   8.121  10.795   4.179  0.4122 -0.4496  0.1821
  774MOL0     C 2065   7.998  10.839   4.112 -1.0517  0.0062  0.2774
  774MOL0     O 2066   7.927  10.932   4.183 -0.3030  0.0841 -0.6759
  774MOL0     C 2067   7.838  11.022   4.125  0.3030  0.2027  0.8859
  774MOL0     C 2068   7.787  11.121   4.216 -0.3346  0.2976 -0.8865
  774MOL0     C 2069   7.687  11.213   4.172 -0.6822  0.3071 -0.1509
  774MOL0     C 2070   7.645  11.216   4.035 -0.1392  0.5132 -0.4030
  774MOL0     O 2071   7.553  11.298   3.981 -0.6471 -0.4625 -0.0773
  774MOL0     C 2072   7.472  11.376   4.066  0.8529 -0.2197 -0.4637
  774MOL0     C 2073   7.361  11.461   4.002 -0.2978  0.1475  1.2760
  774MOL0     C 2074   7.259  11.373   3.929 -0.0483 -0.5766  0.3646
  774MOL0     C 2075   7.167  11.450   3.843 -0.1731  0.1129  1.1259
  774MOL0     C 2076   7.112  11.366   3.726 -0.5904  0.0061  0.1174
  774MOL0     C 2077   6.987  11.403   3.643  0.8252  0.0420  0.1366
  774MOL0     C 2078   6.868  11.406   3.735 -0.2584 -0.5832 -0.3177
  774MOL0     C 2079   6.743  11.444   3.665  0.7571  0.2299 -0.2597
  774MOL0    Cl 2080   6.625  11.507   3.782  0.0544 -0.1024 -0.0796
  774MOL0     C 2081   7.698  11.125   3.950  0.0986  0.4079  0.6274
  774MOL0     C 2082   7.790  11.029   3.997 -0.4253 -0.3366  0.2682
  774MOL0     O 2083   7.971  10.790   4.000 -1.2479  0.1582  0.3818
  774MOL0     C 2084   8.124  10.792   4.318  0.6056  0.1266 -0.5488
  774MOL0     C 2085   8.241  10.757   4.389  0.0849  1.3135 -0.5512
  774MOL0     N 2086   8.982  10.623   4.364  0.3984  0.1929  0.2468
  774MOL0     N 2087   9.105  10.632   4.327  0.7324  0.3322  0.7456
  774MOL0     C 2088   9.580  10.293   3.557  0.4392 -1.3467  0.1634
  774MOL0     C 2089   9.692  10.221   3.596 -0.1725  0.7751  0.2042
  774MOL0     C 2090  10.069  10.105   3.879 -0.1300 -0.6513 -0.4586
  774MOL0     C 2091  10.180  10.162   3.941 -0.4244  0.2007  0.3543
  774MOL0     C 2092  10.307  10.089   3.940  0.1850 -0.1849  0.4754
  774MOL0     C 2093  10.324   9.965   3.880  0.0922  0.1234  0.0518
  774MOL0     O 2094  10.443   9.909   3.891 -0.1864  0.5358  0.1152
  774MOL0     C 2095  10.471   9.781   3.838  0.9980 -0.3309 -0.0484
  774MOL0     C 2096  10.614   9.726   3.859  1.4500  0.4074  0.3041
  774MOL0     C 2097  10.651   9.731   4.008  0.0039  0.1713 -0.7745
  774MOL0     C 2098  10.801   9.696   4.006 -0.1890 -0.4518  0.0614
  774MOL0     C 2099  10.843   9.706   4.146  0.6886  0.5305 -0.1219
  774MOL0     C 2100  10.857   9.739   4.261 -0.0537  0.2077  0.0656
  774MOL0     C 2101  10.204   9.917   3.818 -0.0447  0.1018 -0.7047
  774MOL0     C 2102  10.088   9.985   3.822  0.6716 -0.0966  0.1299
  774MOL0     H 2103   9.738  10.391   3.894 -1.7730  0.2385  1.4737
  774MOL0     H 2104   9.572  10.517   3.809 -3.6390 -0.1405 -1.7767
  774MOL0     H 2105   9.315  10.444   3.766  0.5056 -0.5260  0.0399
  774MOL0     H 2106   9.221  10.442   3.617  0.4463  1.8006 -0.3447
  774MOL0     H 2107   9.161  10.646   3.703  0.4064  1.7443 -2.2087
  774MOL0     H 2108   9.292  10.699   3.609  0.4796  0.7863  0.5284
  774MOL0     H 2109   9.452  10.699   3.783 -0.2059 -0.1038 -1.0256
  774MOL0     H 2110   9.359  10.613   3.899  3.2473 -0.6464 -0.3764
  774MOL0     H 2111   9.297  10.900   3.803  1.7133  1.1355  1.9673
  774MOL0     H 2112   9.174  10.809   3.881  0.3176  1.1850 -0.1563
  774MOL0     H 2113   9.294  10.978   4.019 -0.9628 -0.4372  0.3462
  774MOL0     H 2114   9.449  10.893   4.003 -0.6517 -0.1201 -2.2681
  774MOL0     H 2115   9.349  10.691   4.119 -0.7468 -0.0022  0.0979
  774MOL0     H 2116   9.190  10.768   4.102 -0.0104  0.7783 -1.5706
  774MOL0     H 2117   9.423  10.899   4.252  0.0651  0.5051 -2.1505
  774MOL0     H 2118   9.247  10.945   4.266  1.4683  2.5023 -2.6452
  774MOL0     H 2119   9.331  10.814   4.475  0.7966 -2.2028 -0.2410
  774MOL0     H 2120   9.359  10.675   4.370  0.3742 -0.2135 -0.1353
  774MOL0     H 2121   9.073  10.885   4.522  0.0690 -2.5814  3.0359
  774MOL0     H 2122   8.845  10.792   4.612  0.4351 -0.0841 -0.0240
  774MOL0     H 2123   8.783  10.637   4.549 -1.0678 -0.4407 -2.0052
  774MOL0     H 2124   8.751  10.897   4.397 -0.6621 -0.3334  1.4440
  774MOL0     H 2125   8.627  10.821   4.505  0.9370  0.3498  1.7897
  774MOL0     H 2126   8.582  10.789   4.271  0.0160  1.4684  1.5468
  774MOL0     H 2127   8.741  10.698   4.245  1.4253  0.5835  0.6303
  774MOL0     H 2128   8.630  10.554   4.434  1.9618  2.7446 -0.0907
  774MOL0     H 2129   8.575  10.524   4.264 -0.0259  2.4314 -3.1365
  774MOL0     H 2130   8.427  10.650   4.123 -0.0970 -0.6250  1.4978
  774MOL0     H 2131   8.212  10.734   4.010  1.1735 -0.0579  0.0269
  774MOL0     H 2132   7.820  11.101   4.317 -0.6521  2.0663 -0.4076
  774MOL0     H 2133   7.642  11.289   4.235  2.7341  1.7948  0.7300
  774MOL0     H 2134   7.530  11.448   4.124  1.1084 -1.4113  0.8086
  774MOL0     H 2135   7.417  11.309   4.132 -0.7692 -0.4086 -1.9399
  774MOL0     H 2136   7.410  11.521   3.924 -1.4149 -0.6219 -0.0566
  774MOL0     H 2137   7.317  11.527   4.078 -0.8347  2.4247 -0.8720
  774MOL0     H 2138   7.206  11.307   3.997  1.5465 -0.6210  1.5935
  774MOL0     H 2139   7.312  11.301   3.867  0.0979 -0.1472 -0.0199
  774MOL0     H 2140   7.086  11.496   3.899 -2.2015  2.8888 -3.4932
  774MOL0     H 2141   7.218  11.532   3.792 -1.9155  1.6175  1.7134
  774MOL0     H 2142   7.081  11.267   3.761  1.0714 -1.2792 -1.7895
  774MOL0     H 2143   7.192  11.339   3.657 -0.9643  0.7323 -0.6142
  774MOL0     H 2144   6.974  11.326   3.567  0.3813 -1.2445  1.4775
  774MOL0     H 2145   6.998  11.504   3.601  3.1523  1.7314  4.1566
  774MOL0     H 2146   6.844  11.321   3.799  2.8032 -1.1258  0.2315
  774MOL0     H 2147   6.892  11.473   3.818 -0.6981 -0.8386  0.0209
  774MOL0     H 2148   6.702  11.350   3.627  0.6091  1.2765 -2.8621
  774MOL0     H 2149   6.761  11.518   3.587  0.6080  0.2484 -0.2766
  774MOL0     H 2150   7.665  11.118   3.847  1.9960  1.9775 -0.1402
  774MOL0     H 2151   7.821  10.961   3.919 -0.3698 -0.5216  0.4511
  774MOL0     H 2152   8.032  10.803   4.375 -0.2007 -1.6840 -1.4194
  774MOL0     H 2153   8.240  10.743   4.496  0.2129  2.6554 -0.3567
  774MOL0     H 2154   9.528  10.260   3.467 -0.3896 -0.0709  0.1446
  774MOL0     H 2155   9.736  10.138   3.541 -1.2150  0.4533 -0.1787
  774MOL0     H 2156  10.171  10.260   3.988  0.2360  0.1932  0.5148
  774MOL0     H 2157  10.394  10.140   3.979  1.2975  1.0771 -3.1935
  774MOL0     H 2158  10.455   9.787   3.730 -1.5896  3.5064  0.3672
  774MOL0     H 2159  10.402   9.708   3.882  0.2769  0.9457  0.9906
  774MOL0     H 2160  10.622   9.626   3.816 -0.4836  0.6639 -0.7549
  774MOL0     H 2161  10.682   9.780   3.792 -2.7189 -0.1452 -4.9756
  774MOL0     H 2162  10.589   9.670   4.075 -2.6051  4.6552  1.3555
  774MOL0     H 2163  10.633   9.833   4.043  0.7703  0.1682 -0.3552
  774MOL0     H 2164  10.818   9.591   3.981 -0.1436 -0.9428  1.9986
  774MOL0     H 2165  10.858   9.758   3.936 -1.0103 -1.3460 -1.4530
  774MOL0     H 2166  10.879   9.766   4.362  1.3532 -0.2175 -0.0967
  774MOL0     H 2167  10.212   9.819   3.772  1.2866  0.7929 -2.0407
  774MOL0     H 2168  10.000   9.949   3.769 -0.1889  2.1333 -0.0733
  775MOL0     O 2169   2.210   2.276   7.003  0.1468 -0.7426 -0.1519
  775MOL0     C 2170   2.269   2.374   7.048 -0.7691 -0.3515 -0.2004
  775MOL0     O 2171   2.220   2.435   7.157 -0.1080 -0.1520  0.2761
  775MOL0     C 2172   2.098   2.400   7.207 -0.3079  1.4981 -0.5517
  775MOL0     C 2173   2.089   2.304   7.307  0.2206 -0.6624 -0.3717
  775MOL0     C 2174   1.967   2.270   7.367 -0.3958 -0.5405  1.1293
  775MOL0     C 2175   1.850   2.329   7.309  0.2428  0.4243  0.1403
  775MOL0     O 2176   1.729   2.305   7.367 -0.9071  0.2055 -0.2423
  775MOL0     C 2177   1.604   2.354   7.311 -0.4965  0.0077 -0.1752
  775MOL0     C 2178   1.492   2.292   7.401  1.4129 -0.0979  0.5030
  775MOL0     C 2179   1.451   2.376   7.524  0.0089  0.2246  0.1272
  775MOL0     C 2180   1.325   2.323   7.602 -0.2955 -1.0801 -1.0164
  775MOL0     C 2181   1.224   2.261   7.521  0.8971  0.2801  0.5916
  775MOL0     C 2182   1.095   2.221   7.589 -1.2152 -0.2334  0.0674
  775MOL0     C 2183   0.991   2.153   7.488 -0.5651 -0.4414 -0.7240
  775MOL0     C 2184   0.924   2.241   7.388 -0.3569 -0.0458  0.0993
  775MOL0     N 2185   0.861   2.351   7.464  0.0903  0.1595 -0.0836
  775MOL0     C 2186   0.773   2.336   7.564 -0.1734 -0.0519  0.6070
  775MOL0     C 2187   0.743   2.461   7.607  0.9239  0.2170 -0.7762
  775MOL0     C 2188   0.657   2.492   7.735  0.2888  0.2291  0.6541
  775MOL0     C 2189   0.540   2.592   7.719  0.6374 -0.4800 -0.3027
  775MOL0     C 2190   0.427   2.533   7.630 -0.5966  1.2917 -0.0888
  775MOL0     C 2191   0.311   2.636   7.591 -0.6846  0.3991  0.4646
  775MOL0     O 2192   0.222   2.656   7.699 -0.4263  0.0004  0.6971
  775MOL0     C 2193   0.091   2.673   7.668 -0.2368  0.4224  0.3505
  775MOL0     C 2194   0.003   2.559   7.667 -0.5630 -0.0041 -0.5310
  775MOL0     C 2195  -0.132   2.580   7.634 -0.2562 -0.6023  0.4421
  775MOL0     C 2196  -0.182   2.706   7.593  0.3084  0.1242 -0.3579
  775MOL0     C 2197  -0.329   2.721   7.565 -0.0480 -1.5354  0.0746
  775MOL0     O 2198  -0.400   2.607   7.551 -0.6746 -0.3258 -0.3777
  775MOL0     C 2199  -0.536   2.610   7.532 -0.2230 -0.2813  0.1603
  775MOL0     C 2200  -0.605   2.688   7.434  0.9440  0.1325 -0.3613
  775MOL0     C 2201  -0.743   2.697   7.437  0.0042  0.3377 -0.3326
  775MOL0     C 2202  -0.817   2.626   7.529  0.5222  0.1133  0.0220
  775MOL0     O 2203  -0.956   2.645   7.550 -0.2072  0.0707  0.3896
  775MOL0     C 2204  -1.005   2.774   7.496 -0.8856 -0.4782  1.5032
  775MOL0     C 2205  -1.132   2.822   7.558  0.5203  0.2465 -0.0420
  775MOL0     C 2206  -1.254   2.733   7.532 -0.8750 -0.4728  0.0227
  775MOL0     C 2207  -1.374   2.782   7.621  0.2599 -0.8152 -0.4279
  775MOL0     C 2208  -1.436   2.907   7.564 -0.3546 -0.5711  0.6661
  775MOL0     C 2209  -1.548   2.949   7.663 -0.4202 -0.1938  0.3967
  775MOL0     C 2210  -1.611   3.084   7.620 -0.3265 -0.3296 -0.6495
  775MOL0     C 2211  -1.670   3.152   7.741  0.1069 -0.2418 -0.0937
  775MOL0    Cl 2212  -1.538   3.238   7.843 -0.0680  0.2372  0.6013
  775MOL0     C 2213  -0.752   2.538   7.610 -0.9261 -0.7483 -0.1742
  775MOL0     C 2214  -0.613   2.531   7.613  0.0547  0.2427 -0.4937
  775MOL0     O 2215  -0.373   2.838   7.554  0.9469  0.0270  0.6660
  775MOL0     C 2216  -0.092   2.813   7.607  0.4254  0.9123  0.7480
  775MOL0     C 2217   0.041   2.801   7.642  0.1460  0.4919 -0.4695
  775MOL0     N 2218   0.806   2.558   7.532 -0.5663  0.3524  0.0938
  775MOL0     N 2219   0.873   2.492   7.449  1.1283 -0.1343  0.0881
  775MOL0     C 2220   1.856   2.439   7.222 -0.3631  1.2806  0.4883
  775MOL0     C 2221   1.981   2.461   7.162 -0.9494 -0.0694 -0.2073
  775MOL0     C 2222   2.402   2.418   6.991  1.3041  0.0262  0.0974
  775MOL0     C 2223   2.436   2.362   6.869  0.0317 -0.6304  0.2683
  775MOL0     C 2224   2.570   2.400   6.811  0.5163 -0.9430 -0.8252
  775MOL0     C 2225   2.649   2.493   6.881 -0.0983 -0.9480  1.6036
  775MOL0     O 2226   2.774   2.540   6.824  0.3366 -0.1108 -0.0484
  775MOL0     C 2227   2.889   2.454   6.838 -0.1002  0.0811  0.3014
  775MOL0     C 2228   2.913   2.347   6.734  0.1339 -0.5586 -0.2458
  775MOL0     C 2229   2.890   2.383   6.593  0.0080 -0.0417 -1.1950
  775MOL0     C 2230   2.921   2.276   6.486 -0.2850 -0.9054  0.5743
  775MOL0     C 2231   3.067   2.233   6.492  0.0824  0.5002  0.7976
  775MOL0     C 2232   3.183   2.197   6.477  0.0984 -0.6849 -0.2402
  775MOL0     C 2233   2.598   2.548   6.998 -0.4154  0.1293  0.4429
  775MOL0     C 2234   2.480   2.511   7.049  0.0747 -0.2588 -0.1158
  775MOL0     H 2235   2.181   2.256   7.340  1.5156  2.5335  1.0114
  775MOL0     H 2236   1.966   2.190   7.440  1.4351  1.5799  3.6469
  775MOL0     H 2237   1.598   2.345   7.202  2.6810 -1.3052 -0.3677
  775MOL0     H 2238   1.604   2.462   7.328  1.8653  0.1584 -0.7087
  775MOL0     H 2239   1.520   2.190   7.432  1.5185 -0.6047 -1.1601
  775MOL0     H 2240   1.403   2.286   7.339  1.2230 -0.0366  0.7684
  775MOL0     H 2241   1.424   2.475   7.484  1.3220  1.2652  1.7235
  775MOL0     H 2242   1.541   2.381   7.585  0.3540  2.0831 -0.4703
  775MOL0     H 2243   1.352   2.253   7.682 -0.7867  1.2325  1.3133
  775MOL0     H 2244   1.296   2.415   7.654  2.4694 -1.0882  0.7285
  775MOL0     H 2245   1.275   2.173   7.481 -0.0439 -0.1228  0.2528
  775MOL0     H 2246   1.187   2.313   7.432 -0.4904 -3.3118 -1.1296
  775MOL0     H 2247   1.060   2.305   7.649  0.1513 -0.0559  0.6731
  775MOL0     H 2248   1.116   2.139   7.658 -1.6593 -1.5636 -1.3197
  775MOL0     H 2249   1.059   2.088   7.432 -0.9582 -1.9594  0.4902
  775MOL0     H 2250   0.912   2.097   7.538  0.0873 -2.1927 -1.5525
  775MOL0     H 2251   0.858   2.182   7.324  1.1141 -0.6842 -0.8832
  775MOL0     H 2252   1.004   2.281   7.325 -0.3645 -0.0077  0.1144
  775MOL0     H 2253   0.727   2.247   7.607 -2.1495 -0.1951 -1.5541
  775MOL0     H 2254   0.725   2.529   7.812  2.2134 -2.1200  0.2299
  775MOL0     H 2255   0.606   2.407   7.781 -0.6117  0.7410  0.6143
  775MOL0     H 2256   0.569   2.683   7.666 -1.1642 -0.5912 -1.5913
  775MOL0     H 2257   0.495   2.617   7.816  0.0734 -2.8510  0.0986
  775MOL0     H 2258   0.469   2.492   7.537 -0.3282  1.9170 -0.2470
  775MOL0     H 2259   0.373   2.456   7.686  0.3825  1.5821  1.2949
  775MOL0     H 2260   0.262   2.602   7.499  0.7068 -0.6822  0.0848
  775MOL0     H 2261   0.341   2.734   7.552 -2.9059  1.4723  1.2498
  775MOL0     H 2262   0.040   2.458   7.683 -1.0936 -0.0841  0.2387
  775MOL0     H 2263  -0.197   2.494   7.625 -0.1421 -0.5906 -0.7193
  775MOL0     H 2264  -0.543   2.742   7.363 -1.3203  0.5842 -2.0878
  775MOL0     H 2265  -0.788   2.768   7.368 -0.4576 -0.0468 -0.4343
  775MOL0     H 2266  -1.019   2.775   7.388  4.9446  0.2602  0.3940
  775MOL0     H 2267  -0.924   2.848   7.503 -0.1993 -1.1804  1.0985
  775MOL0     H 2268  -1.149   2.920   7.513  1.3306  0.9756  1.1526
  775MOL0     H 2269  -1.102   2.814   7.663  1.8880  0.3112 -0.4100
  775MOL0     H 2270  -1.215   2.635   7.561  2.1021  1.3812  2.9789
  775MOL0     H 2271  -1.280   2.739   7.426 -0.9557 -0.6095  0.0348
  775MOL0     H 2272  -1.445   2.701   7.639  0.9257 -0.7519  3.4216
  775MOL0     H 2273  -1.334   2.816   7.717 -0.9155  2.9632 -1.1254
  775MOL0     H 2274  -1.490   2.890   7.470  0.6566  0.8808 -0.2219
  775MOL0     H 2275  -1.370   2.990   7.538 -1.8092 -0.2021 -2.1981
  775MOL0     H 2276  -1.498   2.956   7.761 -2.0008 -1.0938  1.3099
  775MOL0     H 2277  -1.624   2.871   7.672 -1.8467  1.1078 -0.1161
  775MOL0     H 2278  -1.535   3.149   7.576  0.1826 -0.7608 -0.4205
  775MOL0     H 2279  -1.694   3.073   7.549 -1.0214 -0.3718  0.1522
  775MOL0     H 2280  -1.732   3.088   7.804 -1.5957  2.7842  1.5847
  775MOL0     H 2281  -1.740   3.233   7.717 -0.3189 -0.0811  1.5249
  775MOL0     H 2282  -0.796   2.471   7.684  0.2959 -0.7074  0.6273
  775MOL0     H 2283  -0.556   2.470   7.682  1.6767  2.4316  0.1925
  775MOL0     H 2284  -0.126   2.917   7.606 -1.6322  0.2995  1.2394
  775MOL0     H 2285   0.113   2.883   7.651 -0.2776  0.9456 -1.1571
  775MOL0     H 2286   1.771   2.500   7.195 -0.1425  2.2599  1.9217
  775MOL0     H 2287   1.988   2.532   7.079 -2.0627  0.8789  0.4795
  775MOL0     H 2288   2.373   2.287   6.822 -0.8477 -0.5263  1.2467
  775MOL0     H 2289   2.602   2.370   6.712  2.1131  2.9200 -1.6494
  775MOL0     H 2290   2.883   2.397   6.931  0.2415  0.4797  0.5753
  775MOL0     H 2291   2.976   2.520   6.835  0.8370 -1.1097 -3.0869
  775MOL0     H 2292   3.016   2.310   6.733  0.1096 -0.6270 -0.1706
  775MOL0     H 2293   2.852   2.263   6.767  2.8051 -2.0625  1.2540
  775MOL0     H 2294   2.942   2.475   6.564 -0.8076  0.5261 -0.9001
  775MOL0     H 2295   2.783   2.408   6.588 -0.3763 -0.3628  2.8330
  775MOL0     H 2296   2.849   2.194   6.487  0.4972 -1.9446 -3.9239
  775MOL0     H 2297   2.899   2.334   6.396  0.8552  0.5380  1.1730
  775MOL0     H 2298   3.282   2.176   6.443  0.9844  2.8503 -0.2328
  775MOL0     H 2299   2.647   2.626   7.055  0.3912 -1.3774  1.9206
  775MOL0     H 2300   2.451   2.556   7.144 -0.4756 -0.0284 -0.3921
  776MOL0     O 2301   9.639   2.836   1.310 -0.1079 -0.2249  0.1547
  776MOL0     C 2302   9.666   2.717   1.332  0.0666 -0.5971 -0.4704
  776MOL0     O 2303   9.569   2.621   1.355 -0.5558 -0.0311 -0.4388
  776MOL0     C 2304   9.438   2.654   1.378 -0.4197  0.2869 -0.4597
  776MOL0     C 2305   9.384   2.619   1.507  0.0791 -0.6647 -0.4306
  776MOL0     C 2306   9.252   2.659   1.539  0.0682 -0.2846 -0.7819
  776MOL0     C 2307   9.169   2.711   1.447 -0.2533  0.0885  0.1424
  776MOL0     O 2308   9.037   2.717   1.481  1.2169  0.2134 -0.5495
  776MOL0     C 2309   8.934   2.713   1.377 -0.2738  0.7332 -0.7204
  776MOL0     C 2310   8.797   2.733   1.428  0.1770  0.8411  0.3640
  776MOL0     C 2311   8.688   2.742   1.319 -0.5161 -0.1711  0.5770
  776MOL0     C 2312   8.555   2.678   1.356 -0.3588  0.3433 -0.4019
  776MOL0     C 2313   8.448   2.705   1.249 -0.1057  0.1420 -0.2275
  776MOL0     C 2314   8.303   2.646   1.275  0.0195  0.2974 -0.6896
  776MOL0     C 2315   8.231   2.619   1.142  0.5846 -0.6482 -0.6983
  776MOL0     C 2316   8.091   2.567   1.152  0.1369  0.7436 -0.0815
  776MOL0     N 2317   8.032   2.565   1.014  0.2563  0.0489  0.1726
  776MOL0     C 2318   7.963   2.654   0.950 -0.3517 -0.3279  0.2315
  776MOL0     C 2319   7.883   2.595   0.856  1.4449 -0.0505  0.2676
  776MOL0     C 2320   7.785   2.670   0.770  0.2298 -0.1791  0.4287
  776MOL0     C 2321   7.663   2.704   0.867  0.3000  0.1867  0.3636
  776MOL0     C 2322   7.559   2.800   0.805 -0.5116 -1.1088  0.2200
  776MOL0     C 2323   7.431   2.788   0.864  1.2472  0.5337 -0.2796
  776MOL0     O 2324   7.328   2.858   0.787  0.4623 -0.3984 -0.7394
  776MOL0     C 2325   7.200   2.833   0.817  0.2384  0.2476 -0.0205
  776MOL0     C 2326   7.149   2.757   0.919  0.7622  0.4854  0.5335
  776MOL0     C 2327   7.014   2.753   0.947  0.8202 -0.0388 -0.8579
  776MOL0     C 2328   6.922   2.826   0.880 -0.2130  0.8150  1.1779
  776MOL0     C 2329   6.783   2.815   0.909 -0.2962 -0.1513 -0.0923
  776MOL0     O 2330   6.701   2.884   0.827 -0.4411 -0.0721  0.0839
  776MOL0     C 2331   6.567   2.868   0.842  0.1132  0.3724  1.0173
  776MOL0     C 2332   6.488   2.971   0.893  0.6810  0.4366  0.6084
  776MOL0     C 2333   6.346   2.944   0.908 -0.2864 -0.6461  0.3725
  776MOL0     C 2334   6.290   2.824   0.868 -0.7852  0.4441 -0.4387
  776MOL0     O 2335   6.156   2.816   0.881  0.2955 -1.3425 -0.2723
  776MOL0     C 2336   6.109   2.691   0.888  0.4486  0.1029  0.0242
  776MOL0     C 2337   5.962   2.678   0.915  0.6022 -0.1944 -0.2077
  776MOL0     C 2338   5.931   2.751   1.048 -0.2279 -0.4250  0.1000
  776MOL0     C 2339   5.775   2.769   1.071  0.7021 -0.8689 -1.0770
  776MOL0     C 2340   5.745   2.823   1.210  0.5332 -0.4214 -0.1656
  776MOL0     C 2341   5.768   2.725   1.328 -0.3733  1.1759  1.0235
  776MOL0     C 2342   5.712   2.767   1.468 -0.0075  0.4121  0.2887
  776MOL0     C 2343   5.711   2.640   1.556 -0.4811 -0.0939  0.8148
  776MOL0    Cl 2344   5.868   2.593   1.629 -0.4664  0.0998  0.4328
  776MOL0     C 2345   6.374   2.710   0.832  0.2048 -0.5905  0.2883
  776MOL0     C 2346   6.509   2.748   0.815  0.0374 -0.2358  0.4590
  776MOL0     O 2347   6.751   2.750   1.008 -0.7656 -0.3432  0.4655
  776MOL0     C 2348   6.971   2.903   0.767 -1.0504  0.7376 -0.2923
  776MOL0     C 2349   7.106   2.899   0.741 -0.0909  0.2512  0.6436
  776MOL0     N 2350   7.910   2.458   0.850  0.5419 -0.6894 -0.0675
  776MOL0     N 2351   7.990   2.444   0.956  0.0573 -0.2978  0.0900
  776MOL0     C 2352   9.219   2.749   1.318  0.1220  0.0333 -0.0833
  776MOL0     C 2353   9.350   2.722   1.284  0.2789 -0.2391 -0.2156
  776MOL0     C 2354   9.805   2.674   1.338  0.3934 -0.3462  0.1549
  776MOL0     C 2355   9.841   2.578   1.432 -0.3277  0.1505  0.1485
  776MOL0     C 2356   9.974   2.526   1.443  0.1079  0.0378 -1.2799
  776MOL0     C 2357  10.068   2.580   1.363 -0.3295 -0.1672  0.0649
  776MOL0     O 2358  10.199   2.543   1.362 -0.0851 -0.5197  0.3426
  776MOL0     C 2359  10.258   2.442   1.438 -0.3210 -0.0876 -0.4538
  776MOL0     C 2360  10.391   2.481   1.503  0.1620 -0.0523  0.1404
  776MOL0     C 2361  10.392   2.490   1.653 -0.1270  0.6743  0.2983
  776MOL0     C 2362  10.517   2.439   1.707  0.7633 -0.0581 -0.1258
  776MOL0     C 2363  10.551   2.478   1.844 -0.2310  0.6474 -0.0157
  776MOL0     C 2364  10.601   2.528   1.941  0.1070 -0.4858 -0.2812
  776MOL0     C 2365  10.040   2.685   1.281  0.2074  0.1364 -0.9591
  776MOL0     C 2366   9.910   2.739   1.258 -0.2413 -0.0384 -0.7826
  776MOL0     H 2367   9.439   2.578   1.591  2.3689 -0.2550 -1.6463
  776MOL0     H 2368   9.213   2.640   1.639  2.4117  2.3156  0.7965
  776MOL0     H 2369   8.942   2.622   1.317  2.9505 -1.4533  2.5753
  776MOL0     H 2370   8.932   2.803   1.315 -2.0299  0.7974 -0.6064
  776MOL0     H 2371   8.791   2.825   1.487 -0.1086  2.7663 -2.4629
  776MOL0     H 2372   8.772   2.660   1.504 -3.0822  1.7759  0.3216
  776MOL0     H 2373   8.723   2.682   1.234 -2.6106 -1.0933  0.3115
  776MOL0     H 2374   8.684   2.846   1.284 -0.9769  0.0737  1.3456
  776MOL0     H 2375   8.585   2.572   1.357  2.2431  0.9995 -1.0440
  776MOL0     H 2376   8.518   2.705   1.456 -0.8392 -1.3277 -0.0826
  776MOL0     H 2377   8.488   2.660   1.157  0.6725  2.2233 -0.9769
  776MOL0     H 2378   8.446   2.810   1.218  1.6698  0.5607  0.9142
  776MOL0     H 2379   8.248   2.708   1.346  1.6979 -1.6338  2.5693
  776MOL0     H 2380   8.326   2.550   1.325  0.1791 -0.0331 -1.3901
  776MOL0     H 2381   8.219   2.715   1.091  3.0434  0.0619 -0.0885
  776MOL0     H 2382   8.288   2.547   1.083  1.4795 -3.1782  2.9177
  776MOL0     H 2383   8.032   2.628   1.221  1.3381  2.6443 -0.6599
  776MOL0     H 2384   8.101   2.462   1.182  2.9637  0.8477 -0.3824
  776MOL0     H 2385   7.968   2.763   0.959  1.6075 -0.2804 -0.7877
  776MOL0     H 2386   7.757   2.605   0.686  0.4337 -1.4024  1.2758
  776MOL0     H 2387   7.836   2.751   0.717  2.5801 -1.6047  0.3884
  776MOL0     H 2388   7.705   2.743   0.960  2.7594  0.9705 -0.9883
  776MOL0     H 2389   7.615   2.610   0.896 -1.0085  0.1476 -1.7172
  776MOL0     H 2390   7.604   2.900   0.800  1.3635 -1.8313  1.5029
  776MOL0     H 2391   7.551   2.772   0.699  0.2704  0.9840 -0.4619
  776MOL0     H 2392   7.439   2.828   0.966  0.4278 -0.8483  0.3566
  776MOL0     H 2393   7.414   2.680   0.864  0.5861  0.5481 -3.4819
  776MOL0     H 2394   7.213   2.700   0.986  1.3330  0.7637  0.2287
  776MOL0     H 2395   6.975   2.690   1.026 -1.2473 -0.9566 -2.4841
  776MOL0     H 2396   6.520   3.071   0.920 -2.5146  1.5451  0.7276
  776MOL0     H 2397   6.276   3.023   0.934  0.3051 -0.1842  0.5791
  776MOL0     H 2398   6.162   2.633   0.964 -3.5796  0.3419  3.3920
  776MOL0     H 2399   6.133   2.638   0.796  0.3869 -0.1517  0.1522
  776MOL0     H 2400   5.931   2.574   0.925  5.2458 -1.7450  0.5645
  776MOL0     H 2401   5.912   2.725   0.830  1.0033 -1.4138 -1.1416
  776MOL0     H 2402   5.981   2.849   1.050 -0.4215 -0.3452  1.8088
  776MOL0     H 2403   5.984   2.697   1.127  0.6438 -1.5015 -1.1769
  776MOL0     H 2404   5.743   2.849   1.003  3.3587  1.0539 -0.2107
  776MOL0     H 2405   5.720   2.675   1.060  0.9178 -1.4873  2.0784
  776MOL0     H 2406   5.641   2.857   1.203  2.1058  5.3961 -0.5512
  776MOL0     H 2407   5.806   2.914   1.220  0.1320  0.1050 -2.0879
  776MOL0     H 2408   5.873   2.695   1.331  0.3563  2.6999 -2.7732
  776MOL0     H 2409   5.713   2.634   1.302  2.4240 -0.2853 -0.2058
  776MOL0     H 2410   5.769   2.846   1.516  2.2775 -0.7602 -0.3322
  776MOL0     H 2411   5.615   2.814   1.447 -0.8839 -1.6859 -0.7160
  776MOL0     H 2412   5.659   2.566   1.495 -3.4078  2.4791 -0.0492
  776MOL0     H 2413   5.644   2.660   1.640 -1.1289  0.3969  0.1952
  776MOL0     H 2414   6.338   2.611   0.810 -2.5052 -0.2249  2.5020
  776MOL0     H 2415   6.574   2.664   0.789 -0.5788 -0.7686  0.6286
  776MOL0     H 2416   6.896   2.950   0.705 -3.7317 -0.1701  2.0356
  776MOL0     H 2417   7.150   2.962   0.664  0.9945 -0.6034  0.5391
  776MOL0     H 2418   9.157   2.795   1.240 -0.5991  0.6783  0.8445
  776MOL0     H 2419   9.387   2.748   1.186  0.2407  1.2292  0.1334
  776MOL0     H 2420   9.767   2.534   1.497 -1.9134  0.4719 -1.3765
  776MOL0     H 2421   9.987   2.452   1.522 -1.2680 -0.8562 -1.8517
  776MOL0     H 2422  10.289   2.363   1.369 -0.7431 -1.0202  0.3986
  776MOL0     H 2423  10.191   2.391   1.508  0.9038 -2.8414 -1.1295
  776MOL0     H 2424  10.463   2.402   1.480  1.6222  0.9804  1.0013
  776MOL0     H 2425  10.419   2.572   1.449 -2.3571  0.1094 -1.0056
  776MOL0     H 2426  10.314   2.426   1.695  0.0692 -0.3784 -0.8887
  776MOL0     H 2427  10.381   2.596   1.680 -0.8866  1.4885 -2.8211
  776MOL0     H 2428  10.513   2.331   1.690  1.4604  0.5079 -5.9665
  776MOL0     H 2429  10.594   2.484   1.642  0.0341  1.0821 -0.2233
  776MOL0     H 2430  10.641   2.561   2.034 -1.0666  1.5418 -0.4589
  776MOL0     H 2431  10.118   2.729   1.220  1.2130  0.1951  0.3384
  776MOL0     H 2432   9.891   2.818   1.187 -1.2515 -0.3267 -0.8450
  777MOL0     O 2433   1.037   5.054   9.555  0.5085  0.2820  0.6159
  777MOL0     C 2434   1.112   4.982   9.484  1.0238  0.3570  1.1914
  777MOL0     O 2435   1.074   4.885   9.385  0.0458 -0.0002 -0.1488
  777MOL0     C 2436   0.943   4.839   9.379 -0.9509  0.0865  0.0447
  777MOL0     C 2437   0.823   4.908   9.420  0.5240 -0.0581 -0.3520
  777MOL0     C 2438   0.693   4.845   9.404  0.0741 -0.2404  0.3809
  777MOL0     C 2439   0.678   4.730   9.329  0.6065  0.4062  0.4134
  777MOL0     O 2440   0.556   4.666   9.289  0.2351 -0.1471  0.3379
  777MOL0     C 2441   0.468   4.600   9.378 -0.7952 -0.4810 -0.7768
  777MOL0     C 2442   0.329   4.647   9.357 -0.4359 -0.8876  0.3842
  777MOL0     C 2443   0.219   4.588   9.448 -0.1251  0.1000 -0.0791
  777MOL0     C 2444   0.078   4.640   9.420  0.1798  0.0301 -0.9527
  777MOL0     C 2445  -0.024   4.556   9.504 -0.2050 -0.8679  0.0780
  777MOL0     C 2446  -0.135   4.505   9.427 -0.4519  0.2515  0.0019
  777MOL0     C 2447  -0.223   4.614   9.355  0.7471  0.1373  0.1914
  777MOL0     C 2448  -0.288   4.722   9.447  0.9290 -0.3972  0.2798
  777MOL0     N 2449  -0.373   4.816   9.369 -0.7693  0.9167 -0.1065
  777MOL0     C 2450  -0.406   4.939   9.409  0.0447  0.1570 -0.2306
  777MOL0     C 2451  -0.484   4.994   9.315  0.2151  0.5849 -0.4543
  777MOL0     C 2452  -0.551   5.131   9.317 -0.5912  0.8701 -0.2077
  777MOL0     C 2453  -0.658   5.121   9.426  0.1729  0.7773  0.3744
  777MOL0     C 2454  -0.727   5.257   9.433  0.6443 -0.7944 -0.2228
  777MOL0     C 2455  -0.850   5.247   9.527 -0.2213  0.2227  0.3116
  777MOL0     O 2456  -0.865   5.365   9.609  0.1567  0.2607 -0.1056
  777MOL0     C 2457  -0.982   5.395   9.669  0.6031 -0.3894 -0.3717
  777MOL0     C 2458  -1.098   5.320   9.669  0.1830  0.2138 -1.0298
  777MOL0     C 2459  -1.213   5.364   9.732  0.3597 -0.0795  0.6129
  777MOL0     C 2460  -1.210   5.490   9.794  0.2051  0.6749  0.4437
  777MOL0     C 2461  -1.326   5.547   9.851  0.9658  1.0223 -0.5408
  777MOL0     O 2462  -1.302   5.628   9.951  0.4282  0.1952  0.1394
  777MOL0     C 2463  -1.407   5.657  10.034  0.9547 -0.4051 -0.6052
  777MOL0     C 2464  -1.432   5.586  10.147  0.5307  0.2357 -0.7051
  777MOL0     C 2465  -1.539   5.611  10.228  0.6795 -0.1145 -0.7936
  777MOL0     C 2466  -1.608   5.728  10.206  0.4581  0.3631  0.0861
  777MOL0     O 2467  -1.696   5.763  10.304 -0.1576 -0.2898 -1.0041
  777MOL0     C 2468  -1.832   5.751  10.259  0.4790 -0.5437  0.0916
  777MOL0     C 2469  -1.929   5.828  10.344  0.1772  0.0612  0.7995
  777MOL0     C 2470  -2.075   5.828  10.295 -0.8087 -0.0614  0.0488
  777MOL0     C 2471  -2.097   5.912  10.172 -0.4968  0.4287  0.4617
  777MOL0     C 2472  -2.243   5.939  10.135  0.5479 -0.1478 -0.7611
  777MOL0     C 2473  -2.325   5.811  10.110 -0.0450 -0.8312  0.1919
  777MOL0     C 2474  -2.472   5.861  10.117 -0.3918  0.4539  0.3547
  777MOL0     C 2475  -2.565   5.743  10.080  0.0115 -0.0764  0.3824
  777MOL0    Cl 2476  -2.574   5.726   9.903  0.2461 -0.2436 -0.0593
  777MOL0     C 2477  -1.566   5.822  10.109 -0.2132 -0.1178 -0.0757
  777MOL0     C 2478  -1.470   5.782  10.018 -0.4159  0.0707  0.2877
  777MOL0     O 2479  -1.441   5.503   9.821 -0.6857  0.1012 -0.1780
  777MOL0     C 2480  -1.090   5.558   9.800 -0.5071  0.3564  0.4713
  777MOL0     C 2481  -0.978   5.518   9.738 -0.9841 -0.0847 -0.1359
  777MOL0     N 2482  -0.488   4.904   9.209 -0.2612  0.4410  0.0224
  777MOL0     N 2483  -0.416   4.803   9.239  0.8304 -0.1306 -0.0158
  777MOL0     C 2484   0.796   4.667   9.294  0.1278  0.8413 -0.4759
  777MOL0     C 2485   0.925   4.714   9.315  0.0837 -0.3172  0.8484
  777MOL0     C 2486   1.253   5.012   9.501  0.7925  0.6065  0.1909
  777MOL0     C 2487   1.284   5.067   9.626 -0.0242  0.1435  0.0025
  777MOL0     C 2488   1.419   5.107   9.647 -0.8626 -0.2014 -0.0271
  777MOL0     C 2489   1.517   5.091   9.541  0.1953 -0.6299 -0.5363
  777MOL0     O 2490   1.650   5.124   9.557  0.4345  0.6099  0.0341
  777MOL0     C 2491   1.692   5.162   9.692 -1.0013  0.0824  0.3299
  777MOL0     C 2492   1.840   5.194   9.690 -1.1444 -0.0472  0.8280
  777MOL0     C 2493   1.880   5.277   9.814  0.6360 -0.2138 -0.2145
  777MOL0     C 2494   2.028   5.322   9.814 -0.7546 -0.0140 -0.2603
  777MOL0     C 2495   2.073   5.408   9.929  0.5271 -0.3810 -0.1148
  777MOL0     C 2496   2.080   5.481  10.030 -1.1440  0.2353  0.0857
  777MOL0     C 2497   1.475   5.048   9.418 -0.3148 -0.1248 -0.4795
  777MOL0     C 2498   1.344   4.999   9.394 -0.8180  0.0401  0.3975
  777MOL0     H 2499   0.820   5.010   9.457 -0.9889  0.1928 -1.1084
  777MOL0     H 2500   0.603   4.895   9.439 -0.1577 -0.6147  0.3268
  777MOL0     H 2501   0.501   4.624   9.480 -0.3144  1.0000 -1.2527
  777MOL0     H 2502   0.467   4.492   9.361 -4.4076 -0.1855 -4.0710
  777MOL0     H 2503   0.306   4.639   9.250  2.3072 -2.6534 -0.1654
  777MOL0     H 2504   0.330   4.755   9.376  1.1031 -0.7342 -0.3789
  777MOL0     H 2505   0.243   4.624   9.548  0.9608 -1.0408  0.0896
  777MOL0     H 2506   0.222   4.479   9.441 -1.7131  0.0640 -0.8241
  777MOL0     H 2507   0.069   4.746   9.447  0.1116 -0.0158 -0.7907
  777MOL0     H 2508   0.049   4.620   9.316  0.2602  0.5156 -1.0687
  777MOL0     H 2509  -0.054   4.611   9.595 -1.5795 -1.2024 -0.1422
  777MOL0     H 2510   0.027   4.469   9.545  0.2048  1.0295  4.0376
  777MOL0     H 2511  -0.199   4.452   9.498  1.5770 -0.9666  1.0224
  777MOL0     H 2512  -0.097   4.437   9.350  0.3065 -1.5961  1.8971
  777MOL0     H 2513  -0.173   4.662   9.270 -0.6666 -1.8199 -1.8980
  777MOL0     H 2514  -0.305   4.554   9.313  2.0421 -2.1762  0.7933
  777MOL0     H 2515  -0.209   4.777   9.499  2.8888 -1.4205 -1.4431
  777MOL0     H 2516  -0.349   4.680   9.527 -0.1966 -0.9885 -0.8570
  777MOL0     H 2517  -0.375   4.987   9.501 -1.0870 -0.2170  0.3542
  777MOL0     H 2518  -0.588   5.155   9.216 -2.2262  1.0464  0.4052
  777MOL0     H 2519  -0.486   5.210   9.354 -0.2740  0.3082  0.4557
  777MOL0     H 2520  -0.623   5.071   9.517 -1.3947 -3.5146 -1.1457
  777MOL0     H 2521  -0.723   5.041   9.389 -0.0968  0.1684  2.0384
  777MOL0     H 2522  -0.653   5.330   9.466 -2.3444  2.5872 -0.3171
  777MOL0     H 2523  -0.769   5.279   9.334  0.4137  0.9884  0.2325
  777MOL0     H 2524  -0.845   5.152   9.582 -3.2143  0.3085  0.9119
  777MOL0     H 2525  -0.936   5.233   9.461  0.7045  0.6028 -1.0036
  777MOL0     H 2526  -1.093   5.225   9.616  0.9575  1.0138 -2.4329
  777MOL0     H 2527  -1.300   5.299   9.733 -1.0335  1.7025  0.4450
  777MOL0     H 2528  -1.389   5.490  10.174  0.6443  0.9233  1.8215
  777MOL0     H 2529  -1.580   5.538  10.296  1.4610 -1.0781 -1.3451
  777MOL0     H 2530  -1.864   5.646  10.260  3.5311 -1.5933 -0.8302
  777MOL0     H 2531  -1.846   5.783  10.156 -1.4982 -0.8974  0.2198
  777MOL0     H 2532  -1.886   5.928  10.351  1.0274 -0.3640  2.0293
  777MOL0     H 2533  -1.922   5.782  10.443 -0.2089 -1.0397  0.3361
  777MOL0     H 2534  -2.138   5.863  10.377 -0.8864  1.8813 -0.7965
  777MOL0     H 2535  -2.108   5.725  10.276 -1.0144  0.1636 -0.8865
  777MOL0     H 2536  -2.048   6.008  10.187 -0.4769  0.2956  1.2453
  777MOL0     H 2537  -2.039   5.867  10.091  0.2319  1.1445  0.5664
  777MOL0     H 2538  -2.256   6.006  10.050 -0.3921  2.6716  1.4203
  777MOL0     H 2539  -2.285   5.992  10.221  1.6281  1.1074 -0.9702
  777MOL0     H 2540  -2.318   5.736  10.189 -2.2672 -1.5196 -0.2054
  777MOL0     H 2541  -2.303   5.773  10.009 -1.6099  4.0522 -2.3309
  777MOL0     H 2542  -2.514   5.898  10.210 -0.9768 -0.7167  0.5837
  777MOL0     H 2543  -2.491   5.941  10.046 -1.6748  0.3635  0.5802
  777MOL0     H 2544  -2.661   5.750  10.132 -0.4688 -0.8676 -0.3611
  777MOL0     H 2545  -2.516   5.658  10.127  0.0907 -0.5763 -0.5761
  777MOL0     H 2546  -1.618   5.917  10.114  1.4577  0.8979 -0.8510
  777MOL0     H 2547  -1.448   5.844   9.932  0.2475 -0.7956 -0.1916
  777MOL0     H 2548  -1.082   5.649   9.859 -1.5484 -0.8414  2.5673
  777MOL0     H 2549  -0.881   5.567   9.748  1.6977 -4.6015 -1.2128
  777MOL0     H 2550   0.779   4.573   9.242 -0.1645  0.8745 -0.4454
  777MOL0     H 2551   1.014   4.667   9.273 -0.5547  0.8627 -2.0854
  777MOL0     H 2552   1.214   5.080   9.708  0.3595  0.3827  0.2956
  777MOL0     H 2553   1.454   5.139   9.745  2.4336 -1.1654 -0.7587
  777MOL0     H 2554   1.669   5.077   9.758 -1.9485 -0.9007 -1.2123
  777MOL0     H 2555   1.628   5.247   9.717 -1.9227 -0.8730  1.3379
  777MOL0     H 2556   1.907   5.108   9.694  0.5124  1.1729  5.6095
  777MOL0     H 2557   1.859   5.255   9.601 -2.7803  0.5085  0.8306
  777MOL0     H 2558   1.862   5.213   9.901 -0.1678 -1.6622 -1.4015
  777MOL0     H 2559   1.810   5.361   9.817  0.4938 -0.2748 -1.5142
  777MOL0     H 2560   2.096   5.236   9.806 -1.9685 -1.0712  0.3229
  777MOL0     H 2561   2.039   5.382   9.724 -0.4096  2.8653  1.5882
  777MOL0     H 2562   2.075   5.538  10.120  1.4107 -0.1054  0.5350
  777MOL0     H 2563   1.552   5.050   9.341  0.1687 -1.2922 -0.0554
  777MOL0     H 2564   1.306   4.980   9.294 -0.2814  2.1996 -0.2545
  778MOL0     O 2565   7.184   1.599   0.068  0.0748  0.7609  0.0062
  778MOL0     C 2566   7.201   1.670   0.169  0.0856 -0.0029  0.1122
  778MOL0     O 2567   7.103   1.699   0.258 -0.5708  0.1135 -0.0234
  778MOL0     C 2568   6.966   1.691   0.230 -0.4046 -0.2701 -0.4636
  778MOL0     C 2569   6.877   1.682   0.340 -0.9665 -0.4646 -0.4859
  778MOL0     C 2570   6.748   1.670   0.324  0.2820 -0.0716  0.8840
  778MOL0     C 2571   6.683   1.662   0.194  0.1663 -1.2496 -0.8658
  778MOL0     O 2572   6.551   1.635   0.167  0.6169  0.2533  0.1526
  778MOL0     C 2573   6.456   1.680   0.259  0.2964  0.5720 -0.6242
  778MOL0     C 2574   6.318   1.673   0.197  0.1476 -0.5293  0.2013
  778MOL0     C 2575   6.253   1.531   0.190  0.8760 -0.0382 -0.0531
  778MOL0     C 2576   6.121   1.540   0.105  1.0181 -0.4082 -0.2058
  778MOL0     C 2577   6.042   1.412   0.100 -0.3557  0.5514  0.8258
  778MOL0     C 2578   5.895   1.403   0.052  0.5933 -0.9987  1.4903
  778MOL0     C 2579   5.803   1.517   0.096 -0.4930  0.1450  0.9127
  778MOL0     C 2580   5.811   1.630  -0.011  0.1602  0.0967 -0.2181
  778MOL0     N 2581   5.694   1.633  -0.102 -0.7232 -0.1196 -0.2906
  778MOL0     C 2582   5.561   1.616  -0.062  0.4738 -0.3419  0.2152
  778MOL0     C 2583   5.499   1.617  -0.188 -0.1310 -0.4220 -2.0860
  778MOL0     C 2584   5.357   1.628  -0.225 -0.7516 -0.7743  0.5029
  778MOL0     C 2585   5.308   1.760  -0.166 -0.2756 -0.9289  0.5134
  778MOL0     C 2586   5.155   1.778  -0.198  0.3033 -0.7283 -0.0374
  778MOL0     C 2587   5.063   1.699  -0.107 -0.1651 -0.4494 -0.1223
  778MOL0     O 2588   4.924   1.744  -0.115  0.4534  0.6476 -0.6989
  778MOL0     C 2589   4.822   1.674  -0.050 -1.3502  0.4460 -0.5585
  778MOL0     C 2590   4.842   1.572   0.035  0.2110  0.2359 -0.1481
  778MOL0     C 2591   4.737   1.504   0.100 -0.3410  0.3922  0.4803
  778MOL0     C 2592   4.608   1.553   0.077 -0.0864  0.6653 -0.1961
  778MOL0     C 2593   4.485   1.493   0.140  0.5119  0.2527  0.7391
  778MOL0     O 2594   4.508   1.402   0.232  0.4176  0.5912  0.2642
  778MOL0     C 2595   4.399   1.357   0.310  0.4500 -0.5818 -0.4287
  778MOL0     C 2596   4.379   1.221   0.334 -0.2451 -0.1848 -0.2888
  778MOL0     C 2597   4.271   1.173   0.407  0.1947 -0.1765  0.2000
  778MOL0     C 2598   4.181   1.261   0.462  0.3974  0.7399  0.1390
  778MOL0     O 2599   4.083   1.206   0.545  0.2190 -0.1919 -0.3691
  778MOL0     C 2600   3.948   1.231   0.492 -0.9398  1.0227  0.1656
  778MOL0     C 2601   3.853   1.209   0.606 -0.6550  0.1213  0.5341
  778MOL0     C 2602   3.709   1.198   0.561  0.2970  0.6320 -0.4003
  778MOL0     C 2603   3.606   1.165   0.677 -0.1515  0.9395 -0.0175
  778MOL0     C 2604   3.465   1.193   0.634  0.5598  0.2404  0.6869
  778MOL0     C 2605   3.350   1.138   0.727 -0.4935  0.6570  0.0588
  778MOL0     C 2606   3.389   1.002   0.795  0.0994 -1.6528  0.1524
  778MOL0     C 2607   3.283   0.946   0.873 -0.0420 -0.8436 -0.4862
  778MOL0    Cl 2608   3.195   1.075   0.962 -0.1921 -0.1160  0.2333
  778MOL0     C 2609   4.205   1.397   0.442 -0.2902 -0.6687 -0.5326
  778MOL0     C 2610   4.317   1.451   0.376 -0.3673  0.9201  0.2044
  778MOL0     O 2611   4.383   1.551   0.116  0.1383 -0.8965 -0.3529
  778MOL0     C 2612   4.589   1.652  -0.020 -0.5858 -0.2768  0.0853
  778MOL0     C 2613   4.694   1.718  -0.073 -0.2822  0.7568  1.0684
  778MOL0     N 2614   5.595   1.628  -0.284  0.0513  1.2542  0.3956
  778MOL0     N 2615   5.715   1.636  -0.237  0.1033 -0.2683 -1.1620
  778MOL0     C 2616   6.767   1.684   0.084  0.0947  0.3166  0.4706
  778MOL0     C 2617   6.908   1.692   0.100  0.9358  0.5761 -0.1331
  778MOL0     C 2618   7.339   1.712   0.203 -0.5343 -1.0090 -0.5345
  778MOL0     C 2619   7.357   1.737   0.339 -0.8215  0.6920  0.5645
  778MOL0     C 2620   7.477   1.780   0.385  0.3179 -0.3083  1.0377
  778MOL0     C 2621   7.581   1.805   0.298 -0.4540  0.1798 -1.2352
  778MOL0     O 2622   7.670   1.881   0.359  0.5271 -0.4519  0.2115
  778MOL0     C 2623   7.812   1.877   0.315 -0.0681 -0.1066  1.0328
  778MOL0     C 2624   7.901   1.942   0.431 -0.7461 -0.2804 -0.2268
  778MOL0     C 2625   8.059   1.937   0.388 -0.1708 -0.0824 -0.8881
  778MOL0     C 2626   8.149   2.008   0.491 -0.2348  0.3520 -0.4871
  778MOL0     C 2627   8.285   2.018   0.435 -0.4291 -0.8059  0.8866
  778MOL0     C 2628   8.397   2.020   0.392  0.3352 -0.2102 -0.5643
  778MOL0     C 2629   7.572   1.788   0.168 -0.0268  0.8033 -0.0044
  778MOL0     C 2630   7.450   1.736   0.110  0.0945 -0.4310 -0.6847
  778MOL0     H 2631   6.899   1.703   0.445 -3.6055  2.4846 -0.3824
  778MOL0     H 2632   6.690   1.663   0.415  1.8344  3.0295  2.2581
  778MOL0     H 2633   6.489   1.778   0.294  1.8239 -0.3957  0.7839
  778MOL0     H 2634   6.449   1.607   0.340  0.7109  2.2778  1.0245
  778MOL0     H 2635   6.324   1.716   0.096  2.1501 -0.8006  0.1506
  778MOL0     H 2636   6.249   1.735   0.255 -0.6003 -1.9551  0.8834
  778MOL0     H 2637   6.224   1.498   0.291 -0.8717  1.7092  0.0548
  778MOL0     H 2638   6.322   1.457   0.147  1.5678 -0.9297  2.3672
  778MOL0     H 2639   6.057   1.619   0.145 -0.2821  0.1804 -3.2496
  778MOL0     H 2640   6.139   1.577   0.004 -4.0448  1.3581 -0.7458
  778MOL0     H 2641   6.031   1.370   0.201 -1.5087 -0.1858  0.4158
  778MOL0     H 2642   6.100   1.345   0.037 -2.9890 -1.8916  0.8070
  778MOL0     H 2643   5.857   1.303   0.072 -0.3319 -0.9849  0.0054
  778MOL0     H 2644   5.907   1.394  -0.057 -0.2807 -3.3554  1.5393
  778MOL0     H 2645   5.708   1.466   0.110  0.3780 -1.5310  1.0135
  778MOL0     H 2646   5.849   1.554   0.188  0.5028  1.0013  0.0926
  778MOL0     H 2647   5.901   1.629  -0.074 -0.4030 -2.1635 -1.0944
  778MOL0     H 2648   5.808   1.719   0.053  0.5965 -0.2678  0.3152
  778MOL0     H 2649   5.504   1.621   0.031 -0.8782 -0.7085 -0.5634
  778MOL0     H 2650   5.294   1.541  -0.205 -0.1981 -1.2436  0.2188
  778MOL0     H 2651   5.355   1.652  -0.332 -3.5295  4.9840  1.4556
  778MOL0     H 2652   5.368   1.836  -0.216 -0.2234 -0.2852  1.5461
  778MOL0     H 2653   5.328   1.770  -0.059 -1.7296  3.0181  0.5711
  778MOL0     H 2654   5.128   1.883  -0.181 -2.3816 -1.5439  1.2984
  778MOL0     H 2655   5.145   1.741  -0.300 -1.0744 -0.4001 -0.0422
  778MOL0     H 2656   5.097   1.725  -0.007  1.6160 -2.7574 -0.0672
  778MOL0     H 2657   5.077   1.592  -0.124  1.0352 -0.1395 -1.1737
  778MOL0     H 2658   4.941   1.544   0.068 -1.3541 -2.2994  2.9590
  778MOL0     H 2659   4.756   1.421   0.167 -2.9173  0.4128  1.3087
  778MOL0     H 2660   4.443   1.153   0.279 -1.5464 -2.8442  1.2836
  778MOL0     H 2661   4.251   1.067   0.419  2.5111 -0.6044  0.7434
  778MOL0     H 2662   3.926   1.155   0.416  0.0507 -0.2274  1.0753
  778MOL0     H 2663   3.936   1.330   0.448 -0.2945  0.3799 -1.5353
  778MOL0     H 2664   3.856   1.297   0.671 -3.9240  2.3937 -2.0587
  778MOL0     H 2665   3.876   1.112   0.651  0.2399 -0.3287 -0.8241
  778MOL0     H 2666   3.706   1.108   0.498 -0.1388  1.2363 -1.2616
  778MOL0     H 2667   3.676   1.283   0.501 -0.7124  0.2641 -0.3806
  778MOL0     H 2668   3.622   1.062   0.713  1.1587 -0.0302 -3.0856
  778MOL0     H 2669   3.632   1.229   0.761  0.5527  0.7112 -0.0596
  778MOL0     H 2670   3.454   1.129   0.546  0.0816 -0.3092  1.1421
  778MOL0     H 2671   3.444   1.296   0.605 -1.3141  1.4162  5.2840
  778MOL0     H 2672   3.250   1.127   0.683 -0.2245  1.2442 -0.7136
  778MOL0     H 2673   3.342   1.217   0.803  2.4883  0.5447  0.5898
  778MOL0     H 2674   3.412   0.927   0.719  1.3300  1.9912 -3.4833
  778MOL0     H 2675   3.475   1.017   0.862 -0.1158  3.4866 -0.2974
  778MOL0     H 2676   3.322   0.882   0.953 -0.3565  2.2189  2.3824
  778MOL0     H 2677   3.213   0.888   0.813 -2.3707  1.3944 -0.1376
  778MOL0     H 2678   4.131   1.466   0.481  0.1916  0.5093 -1.6121
  778MOL0     H 2679   4.319   1.555   0.346  0.9265  1.3296  1.6184
  778MOL0     H 2680   4.494   1.690  -0.055 -1.0400 -0.4476  1.1092
  778MOL0     H 2681   4.677   1.789  -0.153  1.4713  0.8312  0.7158
  778MOL0     H 2682   6.734   1.668  -0.018  2.6044  1.1909 -0.5792
  778MOL0     H 2683   6.964   1.688   0.007  1.5890  1.1525  0.2274
  778MOL0     H 2684   7.277   1.732   0.412  1.6337 -3.9772  3.3800
  778MOL0     H 2685   7.494   1.808   0.489  0.3321  0.5152  0.8231
  778MOL0     H 2686   7.816   1.937   0.224  0.3269  2.0111  2.3720
  778MOL0     H 2687   7.846   1.775   0.297 -1.6620 -0.6066  0.7181
  778MOL0     H 2688   7.863   2.043   0.449 -2.6837 -1.0410  0.1980
  778MOL0     H 2689   7.880   1.886   0.522 -1.5261  1.7500  0.9143
  778MOL0     H 2690   8.060   1.981   0.288 -1.4405 -0.1137 -0.9341
  778MOL0     H 2691   8.085   1.832   0.372  1.2122  0.2133 -0.6957
  778MOL0     H 2692   8.106   2.107   0.509 -2.5356 -0.3589 -1.6142
  778MOL0     H 2693   8.148   1.949   0.583 -1.5379 -2.1291 -1.9721
  778MOL0     H 2694   8.496   2.038   0.355  0.2869 -0.0691 -0.6284
  778MOL0     H 2695   7.647   1.816   0.095  1.1091 -0.6799  0.5372
  778MOL0     H 2696   7.439   1.718   0.004 -1.6293  1.8917 -0.9730
  779MOL0     O 2697   2.871   2.584   4.411  0.1662 -0.0359 -0.0187
  779MOL0     C 2698   2.804   2.556   4.311  0.5836 -0.2103 -0.2170
  779MOL0     O 2699   2.670   2.523   4.308 -0.3243 -0.3887  0.5006
  779MOL0     C 2700   2.611   2.549   4.428 -0.2016  0.1462  0.8045
  779MOL0     C 2701   2.556   2.676   4.446 -1.7737  0.9529  0.5887
  779MOL0     C 2702   2.497   2.710   4.565 -0.3126  0.3754  0.2128
  779MOL0     C 2703   2.503   2.623   4.668  0.7883 -0.5013 -1.0357
  779MOL0     O 2704   2.451   2.643   4.801  0.3171 -0.3902  0.2112
  779MOL0     C 2705   2.327   2.719   4.814 -0.9764  1.2153  0.5223
  779MOL0     C 2706   2.230   2.655   4.915 -0.0026  0.3950  0.2124
  779MOL0     C 2707   2.094   2.723   4.887  0.1267  0.5615 -0.0211
  779MOL0     C 2708   1.986   2.642   4.953  1.1278  0.7116  1.1057
  779MOL0     C 2709   1.855   2.708   4.924 -0.6785 -0.4484 -0.6810
  779MOL0     C 2710   1.743   2.645   5.007 -0.6123  0.7796 -0.5418
  779MOL0     C 2711   1.614   2.722   5.006  0.4516  0.6476 -0.3314
  779MOL0     C 2712   1.621   2.835   5.101  0.1335  0.5326  0.2345
  779MOL0     N 2713   1.490   2.901   5.095  0.8368 -0.8989  0.3936
  779MOL0     C 2714   1.471   3.037   5.093  0.1170  0.2203  0.7379
  779MOL0     C 2715   1.343   3.057   5.108  0.4173 -0.1147  0.2587
  779MOL0     C 2716   1.262   3.187   5.111 -0.5382  0.1954 -0.9460
  779MOL0     C 2717   1.125   3.191   5.187 -0.2714  0.2140 -0.0756
  779MOL0     C 2718   1.042   3.320   5.153  0.0749 -0.3072 -0.0556
  779MOL0     C 2719   0.911   3.313   5.252  0.4401 -0.0553 -0.2359
  779MOL0     O 2720   0.862   3.448   5.263 -0.4385 -0.1954  1.2058
  779MOL0     C 2721   0.728   3.456   5.297  0.0226 -0.7501 -0.9442
  779MOL0     C 2722   0.629   3.349   5.302  0.2064  0.3030 -0.5948
  779MOL0     C 2723   0.488   3.369   5.331 -0.4404 -0.6448  0.6984
  779MOL0     C 2724   0.443   3.499   5.357 -0.5843 -0.2580 -0.0250
  779MOL0     C 2725   0.296   3.529   5.392 -0.8535 -0.6095 -0.7794
  779MOL0     O 2726   0.209   3.430   5.403  1.0124  0.4182  1.2201
  779MOL0     C 2727   0.072   3.449   5.393  0.0488  0.4449  1.2169
  779MOL0     C 2728  -0.005   3.517   5.483  0.1571  0.6042 -0.7358
  779MOL0     C 2729  -0.142   3.529   5.474  0.9613 -0.7070  0.0381
  779MOL0     C 2730  -0.214   3.475   5.373  0.1880 -0.5410  1.2396
  779MOL0     O 2731  -0.349   3.489   5.373  0.4648 -0.3175 -0.5044
  779MOL0     C 2732  -0.440   3.382   5.334 -0.6884  0.3082 -1.7965
  779MOL0     C 2733  -0.583   3.440   5.320  0.1762 -0.2688 -0.0906
  779MOL0     C 2734  -0.679   3.348   5.249  0.2424  0.0233 -0.5970
  779MOL0     C 2735  -0.822   3.398   5.255 -0.2239 -0.2105  0.0574
  779MOL0     C 2736  -0.901   3.357   5.388 -0.4766  0.7538  0.4254
  779MOL0     C 2737  -1.041   3.427   5.390 -0.7314 -0.3523  0.1717
  779MOL0     C 2738  -1.130   3.400   5.511  0.6931  0.0659  0.5636
  779MOL0     C 2739  -1.086   3.477   5.637  0.6324  0.4618 -0.1274
  779MOL0    Cl 2740  -1.202   3.462   5.755 -0.1696 -0.2791 -0.2022
  779MOL0     C 2741  -0.144   3.401   5.275 -0.8742  0.6969 -0.3422
  779MOL0     C 2742  -0.001   3.386   5.289 -0.1774  0.0346 -0.8771
  779MOL0     O 2743   0.266   3.649   5.415  0.3758  0.3525  0.1455
  779MOL0     C 2744   0.538   3.605   5.359  0.9596  1.1781  0.1127
  779MOL0     C 2745   0.669   3.581   5.330 -0.1017  0.3012  0.2796
  779MOL0     N 2746   1.287   2.934   5.113 -0.2841 -0.1181  0.1281
  779MOL0     N 2747   1.374   2.841   5.108  0.4623 -0.8738 -1.0772
  779MOL0     C 2748   2.564   2.497   4.651 -0.5394  0.3729  0.1855
  779MOL0     C 2749   2.612   2.462   4.530 -0.1586 -0.2188  0.5926
  779MOL0     C 2750   2.865   2.575   4.171  1.2842 -0.9423 -1.0233
  779MOL0     C 2751   2.790   2.583   4.056 -0.9624 -0.3334 -0.4201
  779MOL0     C 2752   2.844   2.591   3.926  0.6506 -0.3106 -0.3846
  779MOL0     C 2753   2.975   2.622   3.903 -0.1019  0.5258  0.0569
  779MOL0     O 2754   3.036   2.661   3.783  0.1595  0.0500  0.3662
  779MOL0     C 2755   2.968   2.645   3.656  0.1494  0.7904  0.2044
  779MOL0     C 2756   3.078   2.682   3.552 -0.2967  0.1309 -0.5621
  779MOL0     C 2757   3.190   2.569   3.551 -0.6796 -0.3201 -0.1015
  779MOL0     C 2758   3.323   2.601   3.475  0.8701 -0.2557 -0.1736
  779MOL0     C 2759   3.386   2.720   3.531 -0.1200 -0.2078 -0.2053
  779MOL0     C 2760   3.445   2.824   3.561  1.0169  0.3565  0.4062
  779MOL0     C 2761   3.053   2.625   4.022 -0.5486 -0.4682 -1.0510
  779MOL0     C 2762   2.997   2.603   4.153 -1.1812  0.0016  0.3586
  779MOL0     H 2763   2.561   2.746   4.363 -0.6099  3.5246  2.6628
  779MOL0     H 2764   2.442   2.800   4.591 -1.1777 -0.6537  2.1404
  779MOL0     H 2765   2.278   2.708   4.717  1.0913  1.6669 -0.6243
  779MOL0     H 2766   2.354   2.823   4.836 -0.1660  1.3912 -1.1268
  779MOL0     H 2767   2.274   2.686   5.010  3.2298  2.3117 -1.7070
  779MOL0     H 2768   2.233   2.547   4.898  1.3531  0.6208 -1.2885
  779MOL0     H 2769   2.076   2.737   4.780  0.1124  3.0325  0.2342
  779MOL0     H 2770   2.085   2.821   4.935 -0.2675  0.0985  0.8677
  779MOL0     H 2771   1.996   2.540   4.917 -3.3840  0.0925  1.0807
  779MOL0     H 2772   2.001   2.641   5.062  0.6282  3.6662  1.2805
  779MOL0     H 2773   1.839   2.696   4.817  0.1684  2.6861 -1.2708
  779MOL0     H 2774   1.860   2.811   4.962 -1.5323 -0.7064  0.1652
  779MOL0     H 2775   1.782   2.640   5.110  2.2745 -1.4131 -1.6057
  779MOL0     H 2776   1.733   2.542   4.972  0.9263  1.2726 -2.6200
  779MOL0     H 2777   1.587   2.750   4.903 -1.3457  2.2478  0.5188
  779MOL0     H 2778   1.538   2.651   5.042  1.6673 -0.9090 -0.7496
  779MOL0     H 2779   1.709   2.894   5.074  1.4954 -1.7463 -0.6350
  779MOL0     H 2780   1.623   2.791   5.201  0.8106  2.9352  1.3375
  779MOL0     H 2781   1.545   3.116   5.090  1.0608 -0.6063  1.7592
  779MOL0     H 2782   1.246   3.215   5.006 -1.0312  0.3929 -0.8184
  779MOL0     H 2783   1.323   3.261   5.164 -0.4093 -1.2231  0.9937
  779MOL0     H 2784   1.143   3.185   5.295 -2.0745  4.3845  0.6561
  779MOL0     H 2785   1.078   3.098   5.156  1.5557 -0.6014 -0.5084
  779MOL0     H 2786   1.095   3.416   5.163 -2.8896  1.6702 -1.6750
  779MOL0     H 2787   1.009   3.317   5.049 -3.0636  0.1921  0.8171
  779MOL0     H 2788   0.927   3.266   5.350  0.0202 -6.9662 -2.8745
  779MOL0     H 2789   0.834   3.248   5.209 -2.3014  1.6644  1.7719
  779MOL0     H 2790   0.656   3.247   5.277  1.3892  1.0273 -2.4651
  779MOL0     H 2791   0.409   3.295   5.321 -3.1712  1.9263  1.8126
  779MOL0     H 2792   0.045   3.558   5.570 -2.0052  2.5585 -0.3261
  779MOL0     H 2793  -0.200   3.574   5.554  1.2121  0.3881 -0.3813
  779MOL0     H 2794  -0.448   3.308   5.414  2.8602  0.1691 -1.4174
  779MOL0     H 2795  -0.403   3.330   5.245  3.3346 -0.7185  0.2485
  779MOL0     H 2796  -0.576   3.527   5.254 -0.8431 -0.0137  0.1302
  779MOL0     H 2797  -0.621   3.468   5.419  2.5807 -1.5650  1.3026
  779MOL0     H 2798  -0.677   3.248   5.294  1.7548  0.6236  0.7894
  779MOL0     H 2799  -0.646   3.338   5.145 -1.2643  5.1836 -1.8603
  779MOL0     H 2800  -0.832   3.507   5.243 -4.6721 -0.3192  1.2473
  779MOL0     H 2801  -0.871   3.347   5.172  3.1649 -1.7715 -1.2003
  779MOL0     H 2802  -0.846   3.379   5.480 -0.4321 -2.8806  1.4110
  779MOL0     H 2803  -0.916   3.249   5.375  0.2562  0.6102  0.7272
  779MOL0     H 2804  -1.094   3.398   5.298 -1.8077  0.3357  0.5593
  779MOL0     H 2805  -1.010   3.532   5.386  1.1721 -0.8646  0.3598
  779MOL0     H 2806  -1.234   3.423   5.487  0.8074 -2.3475 -3.1879
  779MOL0     H 2807  -1.128   3.294   5.539  0.2938 -1.0121 -2.8836
  779MOL0     H 2808  -1.073   3.579   5.597 -0.4583  0.2783 -0.9985
  779MOL0     H 2809  -0.990   3.444   5.677 -0.4766 -1.5985  0.9767
  779MOL0     H 2810  -0.191   3.363   5.185  3.3328  2.1684 -3.4624
  779MOL0     H 2811   0.065   3.336   5.219 -0.1592  0.9109 -1.5038
  779MOL0     H 2812   0.511   3.705   5.390  0.0051  1.7233 -2.2566
  779MOL0     H 2813   0.730   3.668   5.313 -1.5940  2.1774  3.5566
  779MOL0     H 2814   2.574   2.429   4.735  0.2491 -0.5866 -0.6657
  779MOL0     H 2815   2.662   2.366   4.522  1.3098  0.4128  1.6770
  779MOL0     H 2816   2.683   2.570   4.071 -0.6025 -0.8060  2.0994
  779MOL0     H 2817   2.771   2.582   3.845 -0.1188 -0.1415  0.2757
  779MOL0     H 2818   2.881   2.711   3.642  0.4916  1.3412  0.6547
  779MOL0     H 2819   2.929   2.542   3.649  0.3646  0.7907 -1.5461
  779MOL0     H 2820   3.034   2.693   3.452 -1.8384 -2.1157 -0.2025
  779MOL0     H 2821   3.125   2.780   3.566 -0.4253  0.1291 -0.1137
  779MOL0     H 2822   3.151   2.488   3.489  2.5025 -0.4580 -2.1233
  779MOL0     H 2823   3.213   2.543   3.655 -0.0365  1.3147  0.2002
  779MOL0     H 2824   3.389   2.514   3.476 -0.5741 -1.4361  2.1399
  779MOL0     H 2825   3.284   2.615   3.374 -2.9949  0.0034  1.2012
  779MOL0     H 2826   3.511   2.905   3.585  0.8738  0.1240  1.6737
  779MOL0     H 2827   3.159   2.646   4.013 -0.6865  0.3496 -0.8443
  779MOL0     H 2828   3.069   2.593   4.234 -2.0810 -0.0700  1.1661
  780MOL0     O 2829  10.048   4.377   5.335  0.8681 -0.0869  0.1721
  780MOL0     C 2830  10.037   4.311   5.228  0.1871 -0.5025 -0.3200
  780MOL0     O 2831   9.931   4.233   5.195 -0.1602  0.3756 -0.2126
  780MOL0     C 2832   9.847   4.217   5.304  0.3261  0.2973  0.2563
  780MOL0     C 2833   9.842   4.094   5.366 -0.0774 -0.4493 -0.4065
  780MOL0     C 2834   9.755   4.066   5.470 -0.4651  0.5004  0.7460
  780MOL0     C 2835   9.657   4.155   5.506  0.1377 -0.5499  0.7066
  780MOL0     O 2836   9.565   4.120   5.603 -0.3143 -0.4985  0.2602
  780MOL0     C 2837   9.456   4.210   5.627  0.5438  0.8474 -0.1869
  780MOL0     C 2838   9.364   4.151   5.744  0.7325 -1.0927 -0.0229
  780MOL0     C 2839   9.245   4.249   5.770  0.1617  1.1437 -0.0479
  780MOL0     C 2840   9.116   4.208   5.690  0.0192 -0.6644  0.5644
  780MOL0     C 2841   9.010   4.295   5.749  0.4139  0.2844  0.6087
  780MOL0     C 2842   8.861   4.273   5.723  0.1919 -0.3714  0.5800
  780MOL0     C 2843   8.852   4.290   5.568  0.0065 -0.1859  0.0426
  780MOL0     C 2844   8.708   4.275   5.527 -1.5356 -0.4430 -0.2119
  780MOL0     N 2845   8.630   4.389   5.588 -0.5615 -0.0625 -1.2674
  780MOL0     C 2846   8.520   4.372   5.666  1.2352 -0.1561 -0.0617
  780MOL0     C 2847   8.458   4.493   5.656 -0.1161 -0.6043  0.2088
  780MOL0     C 2848   8.316   4.523   5.702 -0.3402  0.1557 -0.0753
  780MOL0     C 2849   8.220   4.547   5.593  0.6335  0.3540  1.2545
  780MOL0     C 2850   8.094   4.609   5.648 -0.3589 -0.8249 -0.1285
  780MOL0     C 2851   7.984   4.596   5.542  0.8929 -0.1484  0.0156
  780MOL0     O 2852   7.886   4.695   5.589 -1.0073  0.3557  0.2339
  780MOL0     C 2853   7.749   4.679   5.563  0.1255 -0.1531 -0.6437
  780MOL0     C 2854   7.663   4.780   5.607 -1.1584 -0.1598 -0.9372
  780MOL0     C 2855   7.526   4.768   5.613 -0.5680 -0.7278 -0.5132
  780MOL0     C 2856   7.466   4.648   5.569  0.4855  0.0825  0.7331
  780MOL0     C 2857   7.314   4.635   5.556  0.3266 -0.1403  0.0102
  780MOL0     O 2858   7.263   4.508   5.524  0.8515 -0.7157  0.6920
  780MOL0     C 2859   7.123   4.496   5.507 -0.1885  0.2014  0.1141
  780MOL0     C 2860   7.024   4.568   5.583 -0.1852  0.3469  0.1350
  780MOL0     C 2861   6.892   4.564   5.558  0.3429 -0.3133 -0.1902
  780MOL0     C 2862   6.847   4.488   5.446  0.7800 -0.3992  0.7722
  780MOL0     O 2863   6.709   4.509   5.420 -0.0494  0.2143  0.5439
  780MOL0     C 2864   6.642   4.458   5.303 -0.7796 -0.6717  0.3302
  780MOL0     C 2865   6.538   4.554   5.271  0.0424  0.3057 -0.1712
  780MOL0     C 2866   6.435   4.580   5.388 -0.1373  0.3982  0.0081
  780MOL0     C 2867   6.312   4.652   5.336  0.5080 -0.6722 -0.3176
  780MOL0     C 2868   6.207   4.703   5.439 -0.1950 -0.0420 -0.8405
  780MOL0     C 2869   6.153   4.591   5.516  0.0113 -0.7179  0.7295
  780MOL0     C 2870   6.052   4.649   5.622  0.4015  0.1508 -0.0317
  780MOL0     C 2871   6.003   4.544   5.718  0.2631 -0.1069 -0.7631
  780MOL0    Cl 2872   5.915   4.591   5.875  0.4386 -0.2325 -0.0864
  780MOL0     C 2873   6.936   4.409   5.373  0.1601 -0.4561  0.2536
  780MOL0     C 2874   7.076   4.414   5.404  0.4166 -0.4866  0.0487
  780MOL0     O 2875   7.256   4.743   5.568 -0.4876  0.1393 -0.1435
  780MOL0     C 2876   7.551   4.542   5.520 -0.0092  0.3937  0.5550
  780MOL0     C 2877   7.691   4.555   5.514 -0.0451 -0.9052  0.6118
  780MOL0     N 2878   8.538   4.588   5.592 -0.5233  0.5872 -0.2161
  780MOL0     N 2879   8.644   4.519   5.548  0.5675  0.5643 -0.1528
  780MOL0     C 2880   9.662   4.284   5.440 -0.0485 -0.3564  0.2838
  780MOL0     C 2881   9.758   4.322   5.344  0.6741  0.5043  0.1811
  780MOL0     C 2882  10.145   4.320   5.121  0.8239 -0.2780  0.2989
  780MOL0     C 2883  10.119   4.268   4.989  0.0659 -0.8900 -0.0681
  780MOL0     C 2884  10.222   4.286   4.893 -0.3393 -0.4639  0.3452
  780MOL0     C 2885  10.331   4.371   4.915  0.1679 -0.1131 -0.4590
  780MOL0     O 2886  10.417   4.393   4.811 -0.1001 -0.4364 -0.1703
  780MOL0     C 2887  10.513   4.504   4.817  1.1598  0.6466  0.1152
  780MOL0     C 2888  10.559   4.546   4.671  0.7635 -0.0057 -0.2623
  780MOL0     C 2889  10.663   4.656   4.676 -0.2441  0.2769  0.0364
  780MOL0     C 2890  10.683   4.717   4.536  0.0576 -0.1529 -0.0372
  780MOL0     C 2891  10.797   4.801   4.539 -0.1574 -0.2119  0.8845
  780MOL0     C 2892  10.882   4.894   4.539  0.7776 -0.0127  1.7265
  780MOL0     C 2893  10.345   4.421   5.047  0.6535  0.0938  0.0004
  780MOL0     C 2894  10.250   4.394   5.146  0.2699 -0.4396  0.0533
  780MOL0     H 2895   9.922   4.024   5.344  0.3333 -0.0538 -0.1896
  780MOL0     H 2896   9.768   3.968   5.514  2.9649 -0.0568 -1.1155
  780MOL0     H 2897   9.393   4.216   5.538  2.2867 -0.6986 -1.5941
  780MOL0     H 2898   9.490   4.312   5.646  0.2380  1.1224 -1.0488
  780MOL0     H 2899   9.420   4.156   5.838  0.8497 -2.7929  0.0346
  780MOL0     H 2900   9.344   4.044   5.733  2.9574 -1.6785  1.0069
  780MOL0     H 2901   9.278   4.350   5.745 -2.0196  1.6212 -1.2909
  780MOL0     H 2902   9.224   4.243   5.877 -3.4095  1.0422 -0.6085
  780MOL0     H 2903   9.128   4.219   5.582 -0.2530  1.1405  0.6915
  780MOL0     H 2904   9.092   4.101   5.693  0.3465 -0.7319  0.8932
  780MOL0     H 2905   9.044   4.395   5.722  1.2107 -0.1041  0.1044
  780MOL0     H 2906   9.023   4.293   5.858  3.3906  0.4366  0.3435
  780MOL0     H 2907   8.804   4.334   5.794 -1.0797 -2.0440  1.0421
  780MOL0     H 2908   8.843   4.168   5.745 -3.1964 -0.2670 -1.1709
  780MOL0     H 2909   8.895   4.386   5.540 -0.0998  0.3672  1.6599
  780MOL0     H 2910   8.912   4.211   5.522 -0.8483 -1.2926  0.7761
  780MOL0     H 2911   8.677   4.179   5.570 -0.3127 -0.2439  1.1987
  780MOL0     H 2912   8.696   4.276   5.418 -0.6437 -2.3148 -0.3621
  780MOL0     H 2913   8.497   4.285   5.726 -1.4402  0.1145 -0.5456
  780MOL0     H 2914   8.324   4.621   5.749  0.0331 -0.8035  1.9470
  780MOL0     H 2915   8.289   4.447   5.776  2.0748 -0.0009  0.7245
  780MOL0     H 2916   8.176   4.460   5.545  1.2265  0.4244  0.5603
  780MOL0     H 2917   8.277   4.613   5.526  1.1354 -0.1223  1.2056
  780MOL0     H 2918   8.053   4.550   5.731 -1.1433  0.5288  0.4672
  780MOL0     H 2919   8.120   4.711   5.675 -0.8947 -1.0960  1.5284
  780MOL0     H 2920   7.950   4.492   5.534 -0.6098  0.1777  1.4664
  780MOL0     H 2921   8.007   4.621   5.439 -0.9915  0.6219 -0.2526
  780MOL0     H 2922   7.704   4.875   5.641 -2.9552  0.3087  0.0634
  780MOL0     H 2923   7.473   4.854   5.653 -2.0416 -2.0274  0.4315
  780MOL0     H 2924   7.058   4.637   5.660  0.3775  1.4572 -1.0519
  780MOL0     H 2925   6.828   4.627   5.619 -0.1884  1.7760 -2.7323
  780MOL0     H 2926   6.605   4.356   5.313  1.8471 -1.9520 -1.6989
  780MOL0     H 2927   6.698   4.460   5.209 -1.1241  0.3051  0.1423
  780MOL0     H 2928   6.482   4.516   5.186  0.1935 -0.7894  0.2045
  780MOL0     H 2929   6.571   4.653   5.238 -3.6072  1.5336 -0.5556
  780MOL0     H 2930   6.486   4.640   5.464 -1.7910  1.4922  0.2932
  780MOL0     H 2931   6.408   4.482   5.429 -0.2941  0.1849 -0.5989
  780MOL0     H 2932   6.354   4.739   5.284  2.1183 -1.3569 -0.2246
  780MOL0     H 2933   6.264   4.587   5.262 -0.2496 -1.7884  1.1044
  780MOL0     H 2934   6.124   4.751   5.386 -1.6792  0.3773  1.6837
  780MOL0     H 2935   6.266   4.776   5.495 -1.3607  0.3530 -0.0858
  780MOL0     H 2936   6.235   4.540   5.567 -2.1227 -1.9691  3.1513
  780MOL0     H 2937   6.109   4.526   5.440 -0.4257  2.0211 -1.5305
  780MOL0     H 2938   6.109   4.714   5.690  0.4381 -0.4462  0.5226
  780MOL0     H 2939   5.959   4.691   5.582  0.1628 -0.2165  0.1254
  780MOL0     H 2940   6.080   4.467   5.729 -0.3043 -1.2591 -3.8172
  780MOL0     H 2941   5.925   4.493   5.661  1.5030 -1.2907 -1.4725
  780MOL0     H 2942   6.894   4.362   5.285  1.3812  1.3734 -1.4091
  780MOL0     H 2943   7.142   4.360   5.336 -1.5906  0.6028 -2.9780
  780MOL0     H 2944   7.516   4.453   5.470  2.3187  0.0145 -0.5574
  780MOL0     H 2945   7.754   4.471   5.485  0.5563 -0.8928  1.7981
  780MOL0     H 2946   9.601   4.369   5.465  1.6160  0.9158  0.1941
  780MOL0     H 2947   9.751   4.424   5.309 -0.0523  0.6501  0.7245
  780MOL0     H 2948  10.038   4.198   4.975  0.7086 -1.8445  0.7985
  780MOL0     H 2949  10.207   4.235   4.799 -2.1341 -0.4547  0.5927
  780MOL0     H 2950  10.600   4.474   4.876 -0.1070  2.5218  3.1807
  780MOL0     H 2951  10.471   4.593   4.864 -1.2441  1.3355 -3.0131
  780MOL0     H 2952  10.603   4.461   4.619  4.4321  0.3149  1.9371
  780MOL0     H 2953  10.467   4.576   4.619 -2.2713 -3.9648  2.2286
  780MOL0     H 2954  10.757   4.619   4.720 -0.2078 -0.9164 -0.9843
  780MOL0     H 2955  10.624   4.746   4.725 -2.4589 -0.5294 -0.1357
  780MOL0     H 2956  10.698   4.647   4.453 -3.3432 -0.1827 -0.7781
  780MOL0     H 2957  10.597   4.778   4.506  0.5871  0.7550  0.2813
  780MOL0     H 2958  10.954   4.972   4.525  0.5328 -0.0542 -0.0356
  780MOL0     H 2959  10.434   4.469   5.085  0.0440  0.8756  0.4582
  780MOL0     H 2960  10.265   4.447   5.240 -0.0798  3.0585 -1.6992
  781MOL0     O 2961  11.139   3.463   8.887  0.1180  0.6861 -0.1969
  781MOL0     C 2962  11.155   3.511   8.776  0.7828 -0.7913 -0.2365
  781MOL0     O 2963  11.062   3.529   8.681  0.1722 -0.1115  0.1283
  781MOL0     C 2964  10.927   3.525   8.713 -0.0965 -0.2421 -0.0294
  781MOL0     C 2965  10.872   3.578   8.831 -0.5021  0.5301  0.3383
  781MOL0     C 2966  10.733   3.569   8.854 -0.1805 -0.9696 -0.5383
  781MOL0     C 2967  10.646   3.516   8.756 -0.5878 -0.2769  0.1513
  781MOL0     O 2968  10.517   3.497   8.798 -0.1029  0.0276 -0.1700
  781MOL0     C 2969  10.429   3.418   8.711  0.3300  0.3007 -0.1921
  781MOL0     C 2970  10.292   3.412   8.786  0.3768  0.0036  0.3113
  781MOL0     C 2971  10.226   3.550   8.786  0.2316  0.3260  0.9926
  781MOL0     C 2972  10.076   3.543   8.812  0.1249  0.2761  0.0113
  781MOL0     C 2973  10.027   3.691   8.855  0.2071 -0.4093  0.3430
  781MOL0     C 2974   9.903   3.692   8.950 -0.3419  0.5205  0.1746
  781MOL0     C 2975   9.840   3.828   8.966  0.2280  0.6693 -0.6736
  781MOL0     C 2976   9.940   3.921   9.039  0.8603 -0.6709  0.1957
  781MOL0     N 2977   9.872   4.044   9.073  0.0822 -0.3749 -0.7280
  781MOL0     C 2978   9.834   4.074   9.201 -0.1430 -0.7000 -0.9281
  781MOL0     C 2979   9.777   4.196   9.201 -0.6478 -0.2425 -1.0104
  781MOL0     C 2980   9.735   4.268   9.323 -0.7131  0.1708 -0.0139
  781MOL0     C 2981   9.600   4.354   9.320 -0.8249  0.4990  0.2224
  781MOL0     C 2982   9.618   4.484   9.239 -0.2844 -0.0294 -0.4277
  781MOL0     C 2983   9.701   4.589   9.323  0.7216 -0.2237  0.1430
  781MOL0     O 2984   9.708   4.721   9.264 -0.0653 -0.3063 -0.0460
  781MOL0     C 2985   9.604   4.799   9.243 -0.4510  0.3796  0.4339
  781MOL0     C 2986   9.618   4.916   9.172  0.0128  0.0558 -0.3518
  781MOL0     C 2987   9.511   4.997   9.135 -0.3953  0.0771 -0.1946
  781MOL0     C 2988   9.381   4.965   9.171  1.0898  0.0270  0.0820
  781MOL0     C 2989   9.265   5.055   9.146 -0.3983 -0.2010 -0.6177
  781MOL0     O 2990   9.146   5.012   9.191 -0.4094  0.6908 -1.2404
  781MOL0     C 2991   9.044   5.090   9.182  0.4002  0.6232 -0.5211
  781MOL0     C 2992   8.925   5.040   9.122  0.0735  0.6131 -0.6372
  781MOL0     C 2993   8.801   5.117   9.135 -0.1672  0.0643 -0.2600
  781MOL0     C 2994   8.807   5.238   9.205 -1.0130  0.7459  0.3986
  781MOL0     O 2995   8.694   5.318   9.207 -0.1805  0.6535 -0.2180
  781MOL0     C 2996   8.724   5.452   9.187 -0.2004  0.1486 -0.4619
  781MOL0     C 2997   8.605   5.523   9.141  0.4780 -0.2011 -0.3575
  781MOL0     C 2998   8.499   5.547   9.250  0.1388 -0.2517  0.9931
  781MOL0     C 2999   8.380   5.602   9.170  0.0105 -1.5730 -0.1446
  781MOL0     C 3000   8.301   5.476   9.114  0.1759 -1.3308  1.0102
  781MOL0     C 3001   8.220   5.396   9.219 -0.2209  1.0592 -0.7270
  781MOL0     C 3002   8.188   5.257   9.160  0.1677 -0.1472 -0.0520
  781MOL0     C 3003   8.095   5.254   9.037  0.1991  0.9834  0.9263
  781MOL0    Cl 3004   7.917   5.268   9.087  0.0186 -0.0213  0.8124
  781MOL0     C 3005   8.926   5.281   9.274 -0.0748  0.2785  0.9855
  781MOL0     C 3006   9.041   5.202   9.272 -0.2180 -0.1688 -0.1259
  781MOL0     O 3007   9.286   5.166   9.098  0.0040 -0.1372 -0.3610
  781MOL0     C 3008   9.362   4.833   9.227  0.1784 -0.4925  0.2243
  781MOL0     C 3009   9.476   4.757   9.266  0.3475 -0.2110 -0.0030
  781MOL0     N 3010   9.770   4.229   9.069  0.2327  0.2038  1.2792
  781MOL0     N 3011   9.823   4.143   8.992 -0.0624  0.2108 -0.7156
  781MOL0     C 3012  10.704   3.479   8.632  0.1574  1.3069  0.3379
  781MOL0     C 3013  10.845   3.476   8.616  0.7774 -0.8519 -0.0568
  781MOL0     C 3014  11.285   3.569   8.730 -0.1819  0.4618  0.0218
  781MOL0     C 3015  11.309   3.609   8.597 -0.2398  0.0163 -0.6169
  781MOL0     C 3016  11.440   3.647   8.562 -0.0790  0.5835 -0.0263
  781MOL0     C 3017  11.546   3.652   8.656 -0.3962  0.3819 -0.3276
  781MOL0     O 3018  11.663   3.704   8.614 -0.8135  0.6167  0.3632
  781MOL0     C 3019  11.774   3.615   8.642 -0.4706 -0.1447  0.4376
  781MOL0     C 3020  11.894   3.648   8.562 -1.1546 -0.2377  0.0857
  781MOL0     C 3021  11.879   3.584   8.426 -0.3901 -0.1280  0.2815
  781MOL0     C 3022  11.979   3.641   8.315  0.8174 -0.0678 -0.1511
  781MOL0     C 3023  12.123   3.601   8.353 -0.1004  0.3754 -0.0619
  781MOL0     C 3024  12.222   3.556   8.402  0.2812  0.6307 -0.4925
  781MOL0     C 3025  11.516   3.629   8.792  0.1294  0.7666  0.1132
  781MOL0     C 3026  11.390   3.586   8.824 -0.3471 -0.0692 -0.5543
  781MOL0     H 3027  10.930   3.597   8.921 -1.6917 -2.9421  2.0171
  781MOL0     H 3028  10.696   3.600   8.951  2.6235 -0.4026  0.4277
  781MOL0     H 3029  10.466   3.316   8.700 -2.2522 -0.9794  1.9468
  781MOL0     H 3030  10.418   3.460   8.611 -0.2492 -1.8265 -1.0667
  781MOL0     H 3031  10.295   3.360   8.882 -0.5005 -2.6644 -0.9816
  781MOL0     H 3032  10.233   3.337   8.731 -1.9052  0.2672  2.2309
  781MOL0     H 3033  10.255   3.605   8.695 -1.9506  0.5887  0.3969
  781MOL0     H 3034  10.285   3.602   8.861  0.6313  2.0086 -0.4123
  781MOL0     H 3035  10.025   3.521   8.717  0.7929 -1.4834  0.0281
  781MOL0     H 3036  10.056   3.473   8.893  3.4114  1.1689  1.7792
  781MOL0     H 3037  10.010   3.737   8.757 -1.8944 -1.2211  0.2625
  781MOL0     H 3038  10.112   3.736   8.907 -0.0335 -0.3664  0.6995
  781MOL0     H 3039   9.938   3.652   9.046  0.2627  3.6778  1.3809
  781MOL0     H 3040   9.831   3.618   8.914  0.6457 -0.3517 -0.0820
  781MOL0     H 3041   9.806   3.854   8.866 -0.7008 -1.6466 -1.0223
  781MOL0     H 3042   9.748   3.822   9.025 -0.5466 -0.0507 -1.9110
  781MOL0     H 3043  10.027   3.946   8.978  1.6870  1.3976  2.0853
  781MOL0     H 3044   9.959   3.879   9.138 -1.1480  2.5248  2.1308
  781MOL0     H 3045   9.876   4.020   9.285  1.5397  2.2661  0.2808
  781MOL0     H 3046   9.827   4.322   9.349 -0.3806 -0.1020 -0.5934
  781MOL0     H 3047   9.713   4.183   9.389 -1.0544 -0.9200 -1.4660
  781MOL0     H 3048   9.568   4.386   9.419  2.2598 -1.4055  1.9665
  781MOL0     H 3049   9.517   4.292   9.284 -0.7845 -0.4244  1.6739
  781MOL0     H 3050   9.681   4.474   9.150  1.4496  1.6222  0.5368
  781MOL0     H 3051   9.521   4.521   9.204 -1.3303  0.5251  2.6750
  781MOL0     H 3052   9.802   4.548   9.332 -0.3074 -2.7411  1.0479
  781MOL0     H 3053   9.659   4.592   9.424 -0.8996  2.4007 -0.4818
  781MOL0     H 3054   9.710   4.950   9.125  1.1171  0.0276  1.6713
  781MOL0     H 3055   9.538   5.095   9.097 -0.9487  0.2743 -0.0949
  781MOL0     H 3056   8.940   4.946   9.070  0.9620 -1.9276  3.7384
  781MOL0     H 3057   8.716   5.078   9.080  1.9981 -2.3185 -2.1788
  781MOL0     H 3058   8.804   5.467   9.113  2.9080  1.3032  2.8214
  781MOL0     H 3059   8.757   5.493   9.283 -5.3913  0.9223  1.3143
  781MOL0     H 3060   8.556   5.465   9.061 -1.7544  1.4602 -0.2966
  781MOL0     H 3061   8.629   5.626   9.114 -2.6800  0.4781 -0.9691
  781MOL0     H 3062   8.539   5.626   9.314 -1.4657  0.1423  1.5669
  781MOL0     H 3063   8.486   5.456   9.310 -0.4349 -0.7122  0.1798
  781MOL0     H 3064   8.307   5.658   9.229  0.1085 -3.2544  1.6723
  781MOL0     H 3065   8.414   5.674   9.094 -0.6815  0.1292  1.0769
  781MOL0     H 3066   8.372   5.413   9.060  2.5918  0.0634  2.3802
  781MOL0     H 3067   8.238   5.521   9.036  0.6200  1.0719  1.9373
  781MOL0     H 3068   8.121   5.440   9.234 -0.9873  0.3155 -3.1069
  781MOL0     H 3069   8.280   5.376   9.308 -1.8673 -1.4255 -0.0703
  781MOL0     H 3070   8.285   5.213   9.136  0.3362  0.0760  0.2125
  781MOL0     H 3071   8.136   5.199   9.238  1.1485 -0.2733  0.5267
  781MOL0     H 3072   8.098   5.163   8.976 -0.7656  0.9752  0.8864
  781MOL0     H 3073   8.123   5.337   8.971  0.8818  1.4740  1.8085
  781MOL0     H 3074   8.932   5.366   9.342 -0.5060  0.5087  0.7336
  781MOL0     H 3075   9.117   5.236   9.341 -2.4623  2.9739  1.0356
  781MOL0     H 3076   9.259   4.813   9.258  0.0162  1.4700  1.0698
  781MOL0     H 3077   9.459   4.673   9.332  4.2138  0.8193  2.6442
  781MOL0     H 3078  10.648   3.427   8.554  2.4193 -0.7992 -0.0054
  781MOL0     H 3079  10.883   3.434   8.523 -1.7256 -1.3191 -0.9579
  781MOL0     H 3080  11.233   3.593   8.521 -2.2296  1.7400  0.8840
  781MOL0     H 3081  11.450   3.662   8.455 -1.4948 -1.2723 -0.4662
  781MOL0     H 3082  11.742   3.518   8.603  0.1220  0.3007 -1.2607
  781MOL0     H 3083  11.798   3.604   8.748 -0.5015  0.8890  0.5589
  781MOL0     H 3084  11.883   3.757   8.561 -0.2815 -0.1373 -0.6757
  781MOL0     H 3085  11.989   3.620   8.610 -0.3484 -0.5942 -1.6367
  781MOL0     H 3086  11.781   3.607   8.383 -0.1540 -1.0648 -0.7974
  781MOL0     H 3087  11.888   3.476   8.432  1.3046  0.0509  2.6404
  781MOL0     H 3088  11.951   3.607   8.215 -1.2438  2.0941 -0.3952
  781MOL0     H 3089  11.962   3.749   8.305  1.4437  0.1043  0.5579
  781MOL0     H 3090  12.309   3.517   8.452 -0.4671 -0.9512 -0.3509
  781MOL0     H 3091  11.583   3.649   8.874 -0.9231  3.5495  0.3874
  781MOL0     H 3092  11.372   3.567   8.929 -0.6695  1.0461 -0.3978
  782MOL0     O 3093   0.788   7.618  10.803  0.6308 -1.0861 -0.0420
  782MOL0     C 3094   0.766   7.587  10.687  0.6364 -0.3900 -0.5954
  782MOL0     O 3095   0.855   7.541  10.596 -0.0066 -0.3441 -0.2291
  782MOL0     C 3096   0.986   7.528  10.638  0.7929  0.7788  0.7935
  782MOL0     C 3097   1.029   7.419  10.697 -0.2187 -0.4491 -0.5583
  782MOL0     C 3098   1.163   7.397  10.750 -1.5380  0.6440  0.6667
  782MOL0     C 3099   1.259   7.495  10.727  0.3620 -0.3578  0.4519
  782MOL0     O 3100   1.388   7.478  10.758  0.1007  0.0268 -0.5269
  782MOL0     C 3101   1.481   7.481  10.654 -0.3175 -0.1719  0.6145
  782MOL0     C 3102   1.568   7.352  10.662  0.7434  1.4061  0.4023
  782MOL0     C 3103   1.478   7.228  10.661  0.2820  0.9631 -0.4403
  782MOL0     C 3104   1.400   7.209  10.525 -0.0126 -0.0748  0.4271
  782MOL0     C 3105   1.355   7.063  10.495 -0.0837 -0.4276 -0.2497
  782MOL0     C 3106   1.256   7.007  10.592 -0.1028 -0.1487  0.2338
  782MOL0     C 3107   1.119   7.072  10.599  0.1132  0.2844 -0.1338
  782MOL0     C 3108   1.030   7.067  10.472 -0.4515  0.0284  0.1873
  782MOL0     N 3109   0.989   6.932  10.438 -0.0998  0.8644 -0.1928
  782MOL0     C 3110   0.986   6.808  10.509 -0.3115 -0.1479  0.2942
  782MOL0     C 3111   0.917   6.717  10.437  0.4010 -0.2771  0.1427
  782MOL0     C 3112   0.891   6.584  10.488 -0.7535  1.1954 -0.6958
  782MOL0     C 3113   0.748   6.541  10.513 -0.9539  0.1247 -0.3393
  782MOL0     C 3114   0.698   6.591  10.653 -0.2082  0.0654 -0.2032
  782MOL0     C 3115   0.544   6.554  10.680  0.3678 -0.3336 -0.3564
  782MOL0     O 3116   0.535   6.417  10.662 -0.2876 -0.2798 -0.9382
  782MOL0     C 3117   0.428   6.347  10.712 -0.0819 -0.4805 -0.5760
  782MOL0     C 3118   0.425   6.241  10.805 -0.2753 -0.0848 -0.4654
  782MOL0     C 3119   0.308   6.180  10.848  0.1546 -1.0508 -0.0038
  782MOL0     C 3120   0.185   6.222  10.802 -0.6996  0.6282 -0.5287
  782MOL0     C 3121   0.067   6.151  10.851  0.9115 -0.4308  0.2023
  782MOL0     O 3122  -0.036   6.166  10.763  0.4532  0.4822 -0.9880
  782MOL0     C 3123  -0.152   6.081  10.762  0.5552  0.0839  0.5338
  782MOL0     C 3124  -0.176   5.949  10.815 -0.9795 -0.0523  0.1846
  782MOL0     C 3125  -0.303   5.893  10.823  0.1547 -0.6118  0.5157
  782MOL0     C 3126  -0.409   5.956  10.759 -1.0149 -0.1243  0.2434
  782MOL0     O 3127  -0.532   5.912  10.757  0.6191 -0.6624  0.1177
  782MOL0     C 3128  -0.552   5.776  10.715  0.0786 -0.3557 -0.5231
  782MOL0     C 3129  -0.688   5.750  10.657  0.1022 -0.1917  0.4628
  782MOL0     C 3130  -0.799   5.783  10.765  0.8805 -0.6456 -0.0825
  782MOL0     C 3131  -0.943   5.762  10.718  0.3811 -0.3578  0.2425
  782MOL0     C 3132  -1.037   5.819  10.829  0.5042  0.0988  0.7642
  782MOL0     C 3133  -1.196   5.828  10.793  0.0412 -0.1138  0.2122
  782MOL0     C 3134  -1.253   5.939  10.890 -0.2240  0.4401 -0.0445
  782MOL0     C 3135  -1.392   5.990  10.843  0.2750 -0.2297  0.1220
  782MOL0    Cl 3136  -1.438   6.131  10.953 -0.1747  0.0889 -0.2633
  782MOL0     C 3137  -0.388   6.084  10.696  0.5161  0.4743 -0.1282
  782MOL0     C 3138  -0.265   6.139  10.704  0.0055  0.4433  0.5115
  782MOL0     O 3139   0.077   6.069  10.943  0.6107  0.5324 -0.0930
  782MOL0     C 3140   0.183   6.322  10.702  0.1042 -0.4216  1.0870
  782MOL0     C 3141   0.301   6.388  10.665 -0.5518  0.3489  0.7363
  782MOL0     N 3142   0.893   6.780  10.313 -0.3748 -1.2199  0.4161
  782MOL0     N 3143   0.924   6.908  10.322 -0.1315  0.6218 -0.4341
  782MOL0     C 3144   1.221   7.616  10.663 -0.1496  0.5410 -0.4180
  782MOL0     C 3145   1.087   7.628  10.625  0.0822 -0.4738 -0.0469
  782MOL0     C 3146   0.627   7.596  10.648 -0.2036  0.9505 -0.2190
  782MOL0     C 3147   0.582   7.522  10.540 -0.1280  0.2273 -0.3108
  782MOL0     C 3148   0.452   7.522  10.501  0.6308 -0.6660 -0.4948
  782MOL0     C 3149   0.358   7.596  10.575 -0.5593 -0.2225 -0.8109
  782MOL0     O 3150   0.225   7.600  10.532  0.2857  0.7073 -0.2536
  782MOL0     C 3151   0.142   7.711  10.574  0.0492  0.4623  0.3555
  782MOL0     C 3152  -0.009   7.705  10.524 -0.5710  0.8970  0.8188
  782MOL0     C 3153  -0.020   7.675  10.382  0.2843 -0.0015 -0.7309
  782MOL0     C 3154  -0.161   7.713  10.337  0.4105  0.2320 -0.1383
  782MOL0     C 3155  -0.185   7.671  10.196  0.1939 -0.1532 -0.6552
  782MOL0     C 3156  -0.186   7.623  10.086 -0.7651 -0.5680  0.1692
  782MOL0     C 3157   0.407   7.664  10.686  0.3567 -0.4265  0.5202
  782MOL0     C 3158   0.533   7.673  10.722 -0.1437 -0.0011  0.5790
  782MOL0     H 3159   0.956   7.354  10.745  1.4151 -0.6270  1.8382
  782MOL0     H 3160   1.189   7.308  10.806 -3.0846  0.5023  1.1863
  782MOL0     H 3161   1.552   7.564  10.654 -1.0610  0.4752  0.0930
  782MOL0     H 3162   1.429   7.489  10.558  3.0029  1.8464 -1.1952
  782MOL0     H 3163   1.630   7.356  10.751  3.4807 -1.6148 -1.1856
  782MOL0     H 3164   1.633   7.349  10.574  0.2932 -3.1984 -0.0291
  782MOL0     H 3165   1.402   7.236  10.740 -1.0971  0.1340 -1.6363
  782MOL0     H 3166   1.540   7.141  10.685  2.4983  2.7322  0.7129
  782MOL0     H 3167   1.304   7.262  10.527 -0.4569 -0.7860  3.4361
  782MOL0     H 3168   1.456   7.251  10.441 -1.2786  0.6710 -0.0685
  782MOL0     H 3169   1.446   7.003  10.488  1.3817  1.7719 -1.0393
  782MOL0     H 3170   1.325   7.058  10.390  3.7812  1.8904 -1.6913
  782MOL0     H 3171   1.308   7.003  10.688  1.9775 -3.3107 -0.8219
  782MOL0     H 3172   1.249   6.901  10.563 -2.1199  0.7514 -3.1042
  782MOL0     H 3173   1.059   7.034  10.682 -1.3970  2.0625 -0.3566
  782MOL0     H 3174   1.133   7.177  10.628 -2.4474  0.6088  0.1144
  782MOL0     H 3175   1.072   7.117  10.384  1.0398  1.4309  1.6326
  782MOL0     H 3176   0.935   7.117  10.490 -1.1234 -1.6605  1.6119
  782MOL0     H 3177   1.029   6.791  10.607 -0.9718  1.6913  0.9551
  782MOL0     H 3178   0.949   6.562  10.578 -1.0712 -2.5355 -1.2329
  782MOL0     H 3179   0.925   6.520  10.405  0.7259 -0.3949  1.0407
  782MOL0     H 3180   0.731   6.433  10.518 -1.0053  0.1661  0.6156
  782MOL0     H 3181   0.680   6.575  10.435  1.1236  0.6430 -1.9982
  782MOL0     H 3182   0.752   6.544  10.735 -0.5918  0.6386  0.3810
  782MOL0     H 3183   0.716   6.698  10.664 -0.1604 -0.0992  1.5135
  782MOL0     H 3184   0.478   6.600  10.606 -0.9616 -2.9745 -0.9610
  782MOL0     H 3185   0.519   6.591  10.779 -0.7273  0.2497 -0.8396
  782MOL0     H 3186   0.520   6.203  10.842 -0.4715  1.3083  1.6390
  782MOL0     H 3187   0.313   6.106  10.926  1.5271 -0.0037  0.9516
  782MOL0     H 3188  -0.090   5.896  10.855 -1.3476 -0.8799 -0.1150
  782MOL0     H 3189  -0.325   5.796  10.867 -0.0952 -0.5450  0.5353
  782MOL0     H 3190  -0.532   5.714  10.803  1.6881 -0.6415 -1.0599
  782MOL0     H 3191  -0.471   5.749  10.647  2.6879  1.1636  1.7954
  782MOL0     H 3192  -0.690   5.648  10.619  1.2654 -0.0454 -0.0565
  782MOL0     H 3193  -0.704   5.813  10.569 -2.4739 -3.8633 -1.9594
  782MOL0     H 3194  -0.785   5.890  10.781  4.1657 -1.0459  0.4876
  782MOL0     H 3195  -0.787   5.723  10.856 -0.0902  1.0309  1.2059
  782MOL0     H 3196  -0.952   5.809  10.620 -2.5368  1.9153  1.4573
  782MOL0     H 3197  -0.971   5.658  10.698 -0.7321 -0.7234  3.1931
  782MOL0     H 3198  -1.001   5.911  10.875  0.1841  0.1151  0.9887
  782MOL0     H 3199  -1.031   5.739  10.904 -1.8394 -2.0040 -1.1456
  782MOL0     H 3200  -1.247   5.732  10.800  1.7366 -1.0553  0.1157
  782MOL0     H 3201  -1.210   5.870  10.693 -2.3482  0.5066  0.7436
  782MOL0     H 3202  -1.261   5.894  10.989  4.0823  3.6256  2.1366
  782MOL0     H 3203  -1.186   6.025  10.901  0.3433  0.3782 -2.4393
  782MOL0     H 3204  -1.468   5.911  10.840 -0.7815  0.6799  1.5072
  782MOL0     H 3205  -1.374   6.016  10.738  1.6404 -1.8215 -0.0804
  782MOL0     H 3206  -0.469   6.136  10.646  1.5621  1.2166 -1.0870
  782MOL0     H 3207  -0.254   6.241  10.669  0.1853  1.3239  2.9572
  782MOL0     H 3208   0.088   6.357  10.663  0.7478 -2.1231 -2.3611
  782MOL0     H 3209   0.309   6.470  10.595 -0.1835  1.6256  2.2302
  782MOL0     H 3210   1.291   7.693  10.632 -2.6266  3.2021  0.1089
  782MOL0     H 3211   1.054   7.724  10.584  0.3055  0.2204  1.3392
  782MOL0     H 3212   0.652   7.466  10.479  0.1979 -1.3477  1.4142
  782MOL0     H 3213   0.425   7.472  10.408 -0.1771 -2.0127  0.4411
  782MOL0     H 3214   0.195   7.802  10.543  2.8002 -1.7891 -2.1543
  782MOL0     H 3215   0.146   7.716  10.683  1.5202  1.6793  0.2895
  782MOL0     H 3216  -0.064   7.623  10.572 -0.9216 -1.3602 -3.0551
  782MOL0     H 3217  -0.048   7.797  10.568 -0.8072  1.0500  0.3002
  782MOL0     H 3218   0.007   7.570  10.372  0.6143 -0.0886  0.8395
  782MOL0     H 3219   0.047   7.742  10.328 -1.1437  3.1870  1.1933
  782MOL0     H 3220  -0.246   7.693  10.404 -1.7830 -1.4571 -3.2018
  782MOL0     H 3221  -0.158   7.823  10.339  0.4335  0.2342 -0.2879
  782MOL0     H 3222  -0.167   7.587   9.987  2.2786  1.8857 -0.3006
  782MOL0     H 3223   0.340   7.708  10.760 -1.2688 -4.1420  1.5046
  782MOL0     H 3224   0.556   7.727  10.813  1.4016 -0.8113  0.7025
  783MOL0     O 3225   6.784   6.270   3.035  0.5448  0.1610  0.2007
  783MOL0     C 3226   6.813   6.163   2.977 -0.2811  0.0598 -0.1925
  783MOL0     O 3227   6.732   6.049   2.967  0.0544 -0.1410  0.2040
  783MOL0     C 3228   6.609   6.061   3.028 -0.1231 -0.2735  0.6010
  783MOL0     C 3229   6.608   6.077   3.162  0.3890 -0.2896 -0.3001
  783MOL0     C 3230   6.492   6.095   3.234 -0.0639 -0.5222 -0.4708
  783MOL0     C 3231   6.364   6.111   3.163 -0.0650  0.2682 -0.6545
  783MOL0     O 3232   6.244   6.145   3.237  0.0803 -0.2630  0.7958
  783MOL0     C 3233   6.122   6.127   3.168 -0.5095 -0.0122  0.9690
  783MOL0     C 3234   6.006   6.173   3.259 -0.1471  0.7255 -0.4967
  783MOL0     C 3235   5.866   6.126   3.227 -0.4144 -1.7308 -0.3026
  783MOL0     C 3236   5.786   6.159   3.358 -0.6610  0.7898  0.0243
  783MOL0     C 3237   5.636   6.129   3.362  0.5690 -0.4311  0.5340
  783MOL0     C 3238   5.583   6.175   3.497  0.0880  0.0720 -0.5193
  783MOL0     C 3239   5.435   6.149   3.526 -0.0660 -0.3482 -0.3924
  783MOL0     C 3240   5.338   6.224   3.437  1.0310  0.2529 -1.3452
  783MOL0     N 3241   5.198   6.226   3.490 -0.5111 -0.3096 -0.7808
  783MOL0     C 3242   5.098   6.151   3.446  0.5690 -1.0852 -0.3829
  783MOL0     C 3243   4.998   6.170   3.533 -0.3162 -0.0403 -0.2667
  783MOL0     C 3244   4.870   6.097   3.531  0.6310 -0.3582 -0.0790
  783MOL0     C 3245   4.760   6.141   3.432  0.2106 -0.4328 -0.6330
  783MOL0     C 3246   4.717   6.289   3.450  0.5052  0.2487 -0.4581
  783MOL0     C 3247   4.588   6.323   3.375 -0.2863  0.6644 -0.4230
  783MOL0     O 3248   4.470   6.267   3.438  0.0452  0.1669  0.8704
  783MOL0     C 3249   4.355   6.326   3.414  0.0370 -0.3640  0.7970
  783MOL0     C 3250   4.334   6.390   3.288  0.6208 -0.3766  0.1002
  783MOL0     C 3251   4.198   6.447   3.268 -0.6406  1.0039 -0.3324
  783MOL0     C 3252   4.091   6.443   3.367 -0.7916  0.7889  0.6947
  783MOL0     C 3253   3.956   6.490   3.353  0.3559  0.0882 -0.7388
  783MOL0     O 3254   3.867   6.454   3.447  0.0725  0.1335 -0.2888
  783MOL0     C 3255   3.756   6.538   3.458 -0.3645 -0.3882  0.2744
  783MOL0     C 3256   3.635   6.481   3.448 -0.3743 -0.0848 -0.0671
  783MOL0     C 3257   3.516   6.557   3.448  0.1184 -0.1528 -0.1400
  783MOL0     C 3258   3.526   6.691   3.470  1.1076 -0.5744  0.5003
  783MOL0     O 3259   3.417   6.782   3.473 -0.7833 -0.7994  1.0538
  783MOL0     C 3260   3.290   6.716   3.482  0.1804  0.1322 -0.0228
  783MOL0     C 3261   3.175   6.803   3.533  0.3449 -0.1561  0.8270
  783MOL0     C 3262   3.029   6.736   3.529 -0.2274 -0.4040  0.2351
  783MOL0     C 3263   2.916   6.822   3.597 -0.7475 -1.3551 -0.0239
  783MOL0     C 3264   2.783   6.742   3.592 -0.0056 -0.8442  0.2614
  783MOL0     C 3265   2.672   6.799   3.687 -0.2587  0.1403  0.2739
  783MOL0     C 3266   2.542   6.728   3.664 -0.1070 -0.2917 -0.6410
  783MOL0     C 3267   2.427   6.788   3.753 -1.3636  0.4025 -0.2417
  783MOL0    Cl 3268   2.280   6.693   3.734  0.3614 -0.1036 -0.3090
  783MOL0     C 3269   3.660   6.753   3.481  0.1504  0.0172 -0.4791
  783MOL0     C 3270   3.774   6.677   3.468  0.6304 -0.5042  0.2063
  783MOL0     O 3271   3.929   6.547   3.240  0.0630 -0.0518 -0.2894
  783MOL0     C 3272   4.131   6.373   3.483  0.1497  0.3006 -1.0572
  783MOL0     C 3273   4.257   6.315   3.497  0.0124  1.0635 -0.6457
  783MOL0     N 3274   5.044   6.254   3.629  0.7968 -0.9256 -0.3772
  783MOL0     N 3275   5.155   6.305   3.594 -0.3329 -0.2222  0.3153
  783MOL0     C 3276   6.368   6.103   3.019  0.5248 -0.6361 -0.2223
  783MOL0     C 3277   6.488   6.069   2.950  0.4584 -0.0500 -0.0541
  783MOL0     C 3278   6.951   6.157   2.920 -0.6111 -0.8698  0.0492
  783MOL0     C 3279   7.004   6.034   2.877  1.6094 -0.7626  0.0058
  783MOL0     C 3280   7.128   6.010   2.818 -0.9123 -0.2104 -0.0152
  783MOL0     C 3281   7.216   6.118   2.800  0.3991 -0.7337 -0.2165
  783MOL0     O 3282   7.330   6.085   2.731 -0.2308 -0.3009  0.2110
  783MOL0     C 3283   7.455   6.147   2.761 -0.3561  0.4126  1.1405
  783MOL0     C 3284   7.503   6.157   2.903 -1.1132  0.2194 -0.3605
  783MOL0     C 3285   7.638   6.224   2.920 -0.9986 -0.9809  0.2135
  783MOL0     C 3286   7.685   6.230   3.065  0.0230  0.5565  0.2046
  783MOL0     C 3287   7.602   6.303   3.160 -0.1509  0.9070 -0.9801
  783MOL0     C 3288   7.533   6.371   3.238  0.3187 -0.4299  0.2597
  783MOL0     C 3289   7.169   6.248   2.839 -0.4058  0.1047 -1.0136
  783MOL0     C 3290   7.043   6.262   2.897 -0.0231  0.3504 -0.0345
  783MOL0     H 3291   6.695   6.077   3.228  1.5010 -3.3058 -1.5769
  783MOL0     H 3292   6.484   6.093   3.342  0.1164 -1.5621 -0.4658
  783MOL0     H 3293   6.108   6.027   3.124 -0.5138  0.8103 -1.0010
  783MOL0     H 3294   6.129   6.194   3.082  2.0252  0.8035  1.7341
  783MOL0     H 3295   6.012   6.282   3.274 -1.1393  0.8644 -1.0138
  783MOL0     H 3296   6.024   6.130   3.358 -0.5317  1.1043 -0.2559
  783MOL0     H 3297   5.875   6.018   3.215 -1.0197 -1.6110 -2.1635
  783MOL0     H 3298   5.828   6.180   3.140  1.2445  1.9583  1.0322
  783MOL0     H 3299   5.820   6.085   3.432 -1.9824 -2.2812 -2.2277
  783MOL0     H 3300   5.802   6.260   3.396  4.4355  1.1208 -2.1924
  783MOL0     H 3301   5.610   6.028   3.329  1.9808 -1.0961  1.3660
  783MOL0     H 3302   5.598   6.193   3.282  0.7115  0.3968  1.1162
  783MOL0     H 3303   5.597   6.281   3.520  2.1973 -0.7413  2.6125
  783MOL0     H 3304   5.635   6.114   3.572 -2.2978 -0.0032  1.1872
  783MOL0     H 3305   5.426   6.043   3.499  2.2600  0.1280 -3.6364
  783MOL0     H 3306   5.417   6.158   3.634 -2.4423 -0.8546 -0.7031
  783MOL0     H 3307   5.343   6.187   3.334  0.4045 -1.1824 -0.8933
  783MOL0     H 3308   5.366   6.328   3.457 -1.0829  0.3277  2.1125
  783MOL0     H 3309   5.103   6.098   3.351  2.0894  0.8572 -1.4588
  783MOL0     H 3310   4.818   6.096   3.627 -3.8645 -0.3665 -2.2537
  783MOL0     H 3311   4.885   5.992   3.504 -3.1496 -1.1431  0.3091
  783MOL0     H 3312   4.677   6.071   3.428 -1.0730  0.9766  0.1001
  783MOL0     H 3313   4.808   6.137   3.334  0.8645 -0.1300 -0.3397
  783MOL0     H 3314   4.703   6.304   3.558 -1.2701 -1.2539 -0.4341
  783MOL0     H 3315   4.794   6.356   3.412  1.3050 -0.6284 -0.4143
  783MOL0     H 3316   4.595   6.279   3.275  2.3115  0.5314 -0.2476
  783MOL0     H 3317   4.580   6.431   3.360 -0.4884  0.8154  0.7170
  783MOL0     H 3318   4.412   6.403   3.213  0.3549 -0.2228 -0.1493
  783MOL0     H 3319   4.188   6.505   3.176 -0.4563 -0.4878 -1.3230
  783MOL0     H 3320   3.630   6.374   3.431 -2.3481  0.0465 -0.5239
  783MOL0     H 3321   3.422   6.514   3.416 -0.6421  2.7698 -2.2650
  783MOL0     H 3322   3.307   6.630   3.548  4.5941  0.8114  0.0421
  783MOL0     H 3323   3.259   6.672   3.387  2.0532 -2.0611  0.3002
  783MOL0     H 3324   3.172   6.895   3.474  0.6116  1.1148  2.6977
  783MOL0     H 3325   3.192   6.836   3.636 -2.4677 -0.2568  1.4025
  783MOL0     H 3326   3.031   6.645   3.590 -1.0247 -2.1871 -2.2662
  783MOL0     H 3327   3.008   6.714   3.424  1.5704  1.1104 -0.5030
  783MOL0     H 3328   2.929   6.835   3.705 -5.6299 -1.8259  0.8373
  783MOL0     H 3329   2.908   6.919   3.548  0.9928 -1.4829 -0.6223
  783MOL0     H 3330   2.796   6.636   3.612 -0.7461 -0.8087  0.9988
  783MOL0     H 3331   2.756   6.755   3.487  4.3537 -1.0804 -1.0724
  783MOL0     H 3332   2.664   6.907   3.670  0.4652  0.3971  1.4242
  783MOL0     H 3333   2.700   6.768   3.788 -1.5012  0.8292  0.8517
  783MOL0     H 3334   2.513   6.739   3.559  1.9451 -0.4457 -1.2674
  783MOL0     H 3335   2.545   6.623   3.692  0.0448  0.0557  0.7118
  783MOL0     H 3336   2.407   6.888   3.715  0.0995  1.0749  0.6869
  783MOL0     H 3337   2.457   6.799   3.857  1.6292  1.5466 -1.1187
  783MOL0     H 3338   3.664   6.861   3.491 -0.9346  0.1366 -1.1608
  783MOL0     H 3339   3.874   6.715   3.485  1.5853 -3.9971  4.6665
  783MOL0     H 3340   4.068   6.372   3.572  0.7331 -1.2413 -0.6178
  783MOL0     H 3341   4.279   6.256   3.586 -0.2132  2.0021  0.0503
  783MOL0     H 3342   6.285   6.121   2.951  1.3915 -0.2496 -1.2110
  783MOL0     H 3343   6.495   6.067   2.842 -0.3210  2.4811 -0.2298
  783MOL0     H 3344   6.945   5.944   2.885 -1.9189  1.3561 -0.1921
  783MOL0     H 3345   7.154   5.909   2.786 -1.0056  0.6569 -3.0962
  783MOL0     H 3346   7.460   6.251   2.728 -2.2454 -0.2753 -1.6960
  783MOL0     H 3347   7.528   6.094   2.697 -1.1176  1.3473 -0.5721
  783MOL0     H 3348   7.429   6.223   2.951  0.1600  1.7863 -0.4811
  783MOL0     H 3349   7.508   6.057   2.946  2.6453  0.3748 -0.1356
  783MOL0     H 3350   7.618   6.326   2.887  1.1210 -1.1147 -1.7114
  783MOL0     H 3351   7.716   6.176   2.861 -0.8861  0.7479 -1.1069
  783MOL0     H 3352   7.704   6.129   3.102 -1.7474  0.3295  0.5488
  783MOL0     H 3353   7.787   6.270   3.059 -0.4194  1.6016 -0.5455
  783MOL0     H 3354   7.470   6.424   3.306  0.2194  0.2968 -0.3822
  783MOL0     H 3355   7.221   6.341   2.818 -1.4527  0.8825 -0.2478
  783MOL0     H 3356   7.009   6.362   2.920 -0.2494  0.5035 -0.9789
  784MOL0     O 3357   9.808   8.438   5.862 -0.4270  0.5715  0.5011
  784MOL0     C 3358   9.798   8.312   5.873 -0.6776 -0.3218  0.0600
  784MOL0     O 3359   9.695   8.248   5.935  0.0816  0.0370 -0.2159
  784MOL0     C 3360   9.588   8.308   6.000  0.7299 -0.6951 -0.2182
  784MOL0     C 3361   9.525   8.226   6.097  0.5814  0.7287  1.2667
  784MOL0     C 3362   9.425   8.276   6.185  0.7008 -0.3083 -0.3353
  784MOL0     C 3363   9.385   8.412   6.172  0.7540  0.4389 -0.3672
  784MOL0     O 3364   9.286   8.473   6.256  0.2190 -0.1667 -0.1564
  784MOL0     C 3365   9.224   8.389   6.358 -0.0271 -0.1969  0.0206
  784MOL0     C 3366   9.108   8.465   6.429 -0.0754  0.1501  0.2826
  784MOL0     C 3367   9.001   8.496   6.321  0.1849 -0.3503  0.0320
  784MOL0     C 3368   8.893   8.398   6.325  0.1419 -0.1098 -0.2815
  784MOL0     C 3369   8.767   8.450   6.253 -0.7069 -0.1274 -0.5737
  784MOL0     C 3370   8.667   8.333   6.232 -0.3818  0.3062  0.5348
  784MOL0     C 3371   8.537   8.397   6.181  0.4298  0.0191  0.2920
  784MOL0     C 3372   8.467   8.296   6.090 -0.4591 -0.2276  0.3124
  784MOL0     N 3373   8.415   8.178   6.164 -0.4424 -0.5344 -0.5952
  784MOL0     C 3374   8.316   8.164   6.259 -0.2829  0.8313  0.4163
  784MOL0     C 3375   8.314   8.036   6.297  0.2079  0.7440 -0.6617
  784MOL0     C 3376   8.217   7.992   6.390  0.6474 -0.1960 -0.2377
  784MOL0     C 3377   8.173   7.848   6.376 -0.0880  0.1231  0.0233
  784MOL0     C 3378   8.067   7.821   6.259  0.3114  0.3074 -0.0990
  784MOL0     C 3379   8.013   7.683   6.276 -0.1245 -0.0984 -0.9275
  784MOL0     O 3380   7.930   7.659   6.389 -0.1795 -0.1679 -0.3615
  784MOL0     C 3381   7.799   7.698   6.377 -0.5025  1.0270  0.0510
  784MOL0     C 3382   7.742   7.772   6.267 -0.0504 -0.0995 -0.9370
  784MOL0     C 3383   7.602   7.793   6.277 -0.7191 -1.0849  0.0044
  784MOL0     C 3384   7.522   7.742   6.383 -0.1907 -0.4361  0.0940
  784MOL0     C 3385   7.384   7.784   6.390  0.0384 -0.6837  0.0872
  784MOL0     O 3386   7.360   7.906   6.336  0.3967  0.7236 -0.4943
  784MOL0     C 3387   7.237   7.965   6.352  0.2201 -0.8216  0.8271
  784MOL0     C 3388   7.155   7.988   6.243 -0.4077  0.4723  0.3235
  784MOL0     C 3389   7.025   8.041   6.248  0.0854 -1.1556  0.2002
  784MOL0     C 3390   6.976   8.091   6.363 -0.2253 -0.1141  0.4348
  784MOL0     O 3391   6.842   8.134   6.356 -0.6424 -0.1781  0.5257
  784MOL0     C 3392   6.784   8.178   6.481  0.2042 -0.0111  0.2371
  784MOL0     C 3393   6.828   8.323   6.502  0.2328 -0.3771  1.0577
  784MOL0     C 3394   6.733   8.397   6.591 -0.3858 -0.9111  0.4387
  784MOL0     C 3395   6.798   8.527   6.631 -0.2184 -0.3128 -0.0080
  784MOL0     C 3396   6.786   8.633   6.521  0.4245  0.6770  0.2037
  784MOL0     C 3397   6.910   8.727   6.520 -0.2651  0.1717 -0.2531
  784MOL0     C 3398   7.046   8.656   6.497 -0.5146 -1.0290  1.3426
  784MOL0     C 3399   7.150   8.756   6.446  0.0612 -0.1330 -0.1290
  784MOL0    Cl 3400   7.191   8.861   6.580  0.5186  0.1648  0.2449
  784MOL0     C 3401   7.067   8.081   6.471 -0.5417 -0.3356 -0.2052
  784MOL0     C 3402   7.188   8.007   6.471 -0.2192  0.4696 -0.6007
  784MOL0     O 3403   7.308   7.726   6.468  0.1001 -0.2962 -0.4626
  784MOL0     C 3404   7.579   7.669   6.483 -0.0587  0.1142  0.5775
  784MOL0     C 3405   7.721   7.644   6.482 -0.4523 -0.3989 -0.4237
  784MOL0     N 3406   8.413   7.969   6.218  1.0486 -0.6020 -0.2948
  784MOL0     N 3407   8.470   8.053   6.136 -0.4148 -0.4695 -1.1817
  784MOL0     C 3408   9.433   8.492   6.067 -0.2708  0.4208 -0.6019
  784MOL0     C 3409   9.539   8.447   5.980  0.0537 -0.1470  0.3043
  784MOL0     C 3410   9.909   8.227   5.821  0.2202  0.2172 -0.4411
  784MOL0     C 3411   9.901   8.092   5.825  0.2823  0.3091 -0.9679
  784MOL0     C 3412  10.005   8.010   5.774  0.0395  0.1241  0.0420
  784MOL0     C 3413  10.128   8.070   5.728  0.7643 -0.8864  0.4003
  784MOL0     O 3414  10.212   7.984   5.661 -0.6602  0.7004 -0.4656
  784MOL0     C 3415  10.342   8.029   5.630 -0.1343 -0.8518  0.4801
  784MOL0     C 3416  10.423   7.915   5.558  0.2432  0.1907  0.0272
  784MOL0     C 3417  10.431   7.782   5.634  0.0947  0.1485  0.0986
  784MOL0     C 3418  10.505   7.789   5.767 -0.4458  0.5324 -0.1070
  784MOL0     C 3419  10.546   7.652   5.813  0.3142  0.0600 -0.8202
  784MOL0     C 3420  10.580   7.539   5.846 -0.4338  0.1436 -0.2946
  784MOL0     C 3421  10.138   8.211   5.738  0.1057 -0.0945 -0.3806
  784MOL0     C 3422  10.028   8.291   5.790 -0.7324  0.7286  0.3733
  784MOL0     H 3423   9.558   8.123   6.105 -1.0429  0.0982  0.4008
  784MOL0     H 3424   9.377   8.214   6.260  1.3057  1.0792  1.2791
  784MOL0     H 3425   9.306   8.352   6.421 -0.7908 -0.6683  0.7562
  784MOL0     H 3426   9.175   8.311   6.300  0.2903  0.0567 -0.5903
  784MOL0     H 3427   9.150   8.560   6.464  2.1051 -0.8391  0.4896
  784MOL0     H 3428   9.069   8.412   6.517  1.2179  1.2180  1.5522
  784MOL0     H 3429   9.055   8.497   6.226  2.5272 -2.2066  1.2345
  784MOL0     H 3430   8.964   8.598   6.337  1.9618  0.3144  0.1205
  784MOL0     H 3431   8.928   8.310   6.271 -1.3732 -1.5995  1.0809
  784MOL0     H 3432   8.873   8.361   6.426  1.6917 -0.7105 -0.1749
  784MOL0     H 3433   8.789   8.507   6.163  1.1196 -1.1533 -0.8330
  784MOL0     H 3434   8.717   8.510   6.330 -0.9200 -4.3097  2.9128
  784MOL0     H 3435   8.645   8.277   6.323  0.5536 -4.7110 -2.0067
  784MOL0     H 3436   8.718   8.258   6.171  1.3181  0.1199  2.1171
  784MOL0     H 3437   8.481   8.438   6.266  0.6795 -1.4062  1.1727
  784MOL0     H 3438   8.553   8.482   6.114 -1.8160  1.5755  1.5805
  784MOL0     H 3439   8.544   8.266   6.018  0.1838 -2.6903  1.9222
  784MOL0     H 3440   8.383   8.337   6.033 -0.0645 -1.9793 -1.6506
  784MOL0     H 3441   8.255   8.240   6.305 -0.5915  1.5417 -1.0947
  784MOL0     H 3442   8.126   8.053   6.387  0.1851 -0.7977  0.7114
  784MOL0     H 3443   8.259   8.008   6.490 -1.6095  1.7207  0.4906
  784MOL0     H 3444   8.120   7.845   6.472  1.7281  3.1988  1.2436
  784MOL0     H 3445   8.253   7.774   6.369 -1.6607 -1.5402 -1.8619
  784MOL0     H 3446   7.990   7.894   6.287 -2.3420 -2.8846  1.6488
  784MOL0     H 3447   8.111   7.851   6.163 -0.7886 -1.2872 -1.1488
  784MOL0     H 3448   8.105   7.624   6.287 -1.6520 -2.4048  0.5326
  784MOL0     H 3449   7.969   7.645   6.184  0.8523 -1.3946 -0.8987
  784MOL0     H 3450   7.801   7.825   6.192  1.2790  0.0912  0.1873
  784MOL0     H 3451   7.561   7.862   6.204  2.1793  1.5166  0.6518
  784MOL0     H 3452   7.193   7.951   6.148 -2.1412 -0.0328 -0.2128
  784MOL0     H 3453   6.977   8.042   6.150  2.3122 -1.3401 -0.9549
  784MOL0     H 3454   6.815   8.103   6.554  1.7925 -0.9650 -1.3139
  784MOL0     H 3455   6.675   8.186   6.481  0.1398 -0.2990 -1.9264
  784MOL0     H 3456   6.843   8.368   6.403  2.3325 -2.2470  0.4328
  784MOL0     H 3457   6.927   8.327   6.548  1.1254  2.5268 -0.8438
  784MOL0     H 3458   6.710   8.341   6.681  2.4846 -1.4113  0.9534
  784MOL0     H 3459   6.639   8.422   6.539  1.1344 -1.1352 -2.6675
  784MOL0     H 3460   6.740   8.570   6.713  1.3985  1.0336  0.4905
  784MOL0     H 3461   6.901   8.517   6.667 -0.0899  3.2040  0.9644
  784MOL0     H 3462   6.691   8.686   6.535 -1.3634 -1.7994 -1.8595
  784MOL0     H 3463   6.779   8.581   6.426  0.1049 -1.6051  1.4055
  784MOL0     H 3464   6.909   8.774   6.619 -2.8353  0.2256 -0.2376
  784MOL0     H 3465   6.893   8.810   6.451 -0.4598 -0.8424 -1.4497
  784MOL0     H 3466   7.080   8.617   6.593 -0.0200 -2.2954  0.6782
  784MOL0     H 3467   7.043   8.573   6.425  0.0680  0.2170 -0.1795
  784MOL0     H 3468   7.102   8.819   6.371 -0.7979  1.0270  1.3287
  784MOL0     H 3469   7.241   8.710   6.408  0.2514  1.5318 -1.8251
  784MOL0     H 3470   7.035   8.111   6.570 -0.9994  0.4682 -0.5849
  784MOL0     H 3471   7.254   7.997   6.556 -2.4225  1.0132  1.2884
  784MOL0     H 3472   7.514   7.629   6.560 -0.9450 -0.9085 -0.6598
  784MOL0     H 3473   7.771   7.599   6.567  1.3082  3.9266  1.0748
  784MOL0     H 3474   9.400   8.595   6.060  1.8934  1.1673 -0.5260
  784MOL0     H 3475   9.585   8.515   5.909  2.7037  0.4494  2.4488
  784MOL0     H 3476   9.815   8.043   5.870 -0.2714  0.3514 -1.9576
  784MOL0     H 3477   9.993   7.902   5.772 -2.3468  0.3192  0.9084
  784MOL0     H 3478  10.398   8.068   5.716  1.6240 -0.1840 -0.9007
  784MOL0     H 3479  10.348   8.112   5.558  3.0093  0.0349  1.5857
  784MOL0     H 3480  10.379   7.897   5.460  1.6782  0.7584 -0.7538
  784MOL0     H 3481  10.527   7.937   5.535  1.7082 -4.9984  0.5189
  784MOL0     H 3482  10.478   7.706   5.571 -1.1899 -0.0713 -0.6111
  784MOL0     H 3483  10.328   7.749   5.650 -0.9274  2.8597 -0.3134
  784MOL0     H 3484  10.597   7.848   5.758 -0.6649  1.2846  2.0595
  784MOL0     H 3485  10.440   7.838   5.839 -2.2609  2.4978 -2.8805
  784MOL0     H 3486  10.606   7.440   5.879  0.1204  1.2161  2.8101
  784MOL0     H 3487  10.227   8.267   5.709 -1.0109  0.4852 -2.9819
  784MOL0     H 3488  10.036   8.399   5.802  0.7462  0.7390 -0.4529
  785MOL0     O 3489   0.441   6.373   9.648 -0.1002  0.4077 -0.8366
  785MOL0     C 3490   0.521   6.368   9.557 -0.8447  0.2384 -0.3221
  785MOL0     O 3491   0.488   6.377   9.429 -0.5757  0.1974  0.3365
  785MOL0     C 3492   0.351   6.365   9.398 -0.3135  0.5225  0.3939
  785MOL0     C 3493   0.309   6.228   9.390  0.5464 -0.0704  0.1350
  785MOL0     C 3494   0.174   6.213   9.402 -1.5045 -0.5468  0.2524
  785MOL0     C 3495   0.078   6.309   9.424 -1.1298 -0.1014 -0.3523
  785MOL0     O 3496  -0.046   6.268   9.395  0.9346 -0.6874 -0.2057
  785MOL0     C 3497  -0.152   6.366   9.379 -0.4115 -0.2510 -0.1685
  785MOL0     C 3498  -0.263   6.367   9.495  0.6847 -0.5918 -0.1452
  785MOL0     C 3499  -0.268   6.230   9.554 -0.0777 -0.3825  0.1333
  785MOL0     C 3500  -0.400   6.204   9.625  1.0596 -0.8069 -0.5803
  785MOL0     C 3501  -0.414   6.061   9.694 -0.1523 -0.7529 -0.7273
  785MOL0     C 3502  -0.510   6.076   9.816 -0.3031 -0.5637 -0.8849
  785MOL0     C 3503  -0.550   5.952   9.891  0.2685  0.9024  0.5118
  785MOL0     C 3504  -0.646   5.871   9.807 -0.3236 -0.1499  0.5751
  785MOL0     N 3505  -0.707   5.757   9.880 -0.6690 -0.2055  0.8469
  785MOL0     C 3506  -0.806   5.772   9.968 -0.0737  0.9310 -0.0649
  785MOL0     C 3507  -0.816   5.653  10.039 -0.1606 -0.1019  0.5840
  785MOL0     C 3508  -0.891   5.638  10.171 -0.6653  0.5515  0.5282
  785MOL0     C 3509  -0.972   5.501  10.174 -0.0287  0.5717 -0.8503
  785MOL0     C 3510  -1.008   5.460  10.315 -0.8297 -0.4377  0.2226
  785MOL0     C 3511  -1.119   5.557  10.367  0.4829  0.5482 -0.6280
  785MOL0     O 3512  -1.170   5.502  10.488  0.3850  0.4457  0.4577
  785MOL0     C 3513  -1.285   5.550  10.548 -0.3257  0.3118  0.1838
  785MOL0     C 3514  -1.370   5.656  10.496  0.7954  0.3401 -0.3583
  785MOL0     C 3515  -1.496   5.690  10.559 -0.2345  0.2683 -0.5493
  785MOL0     C 3516  -1.542   5.622  10.679  0.7137  0.1494  0.1658
  785MOL0     C 3517  -1.668   5.665  10.744 -0.1473  0.9966 -0.9455
  785MOL0     O 3518  -1.743   5.749  10.680  0.1140  0.1120 -0.2395
  785MOL0     C 3519  -1.861   5.813  10.723 -0.0298 -0.4429 -0.2805
  785MOL0     C 3520  -1.904   5.933  10.657 -1.0748  0.2587  0.2700
  785MOL0     C 3521  -2.023   5.993  10.679  0.1501  0.0776 -0.2128
  785MOL0     C 3522  -2.109   5.941  10.775 -0.1536 -0.1024  0.4146
  785MOL0     O 3523  -2.222   6.015  10.816 -0.1606 -0.3112  0.1615
  785MOL0     C 3524  -2.299   6.082  10.710 -0.0847 -0.1212 -0.1192
  785MOL0     C 3525  -2.434   6.105  10.784 -0.3636  0.3976  0.4786
  785MOL0     C 3526  -2.546   6.151  10.689 -0.7396 -0.4863 -0.1059
  785MOL0     C 3527  -2.670   6.181  10.776  1.0629 -0.2717 -0.4099
  785MOL0     C 3528  -2.781   6.250  10.692  0.0787  0.9806  0.1811
  785MOL0     C 3529  -2.853   6.134  10.606  0.4914 -0.7153 -0.1979
  785MOL0     C 3530  -2.980   6.188  10.525 -0.1135  0.7995 -0.4664
  785MOL0     C 3531  -3.032   6.085  10.422  0.2668 -1.0566 -0.0260
  785MOL0    Cl 3532  -2.905   6.035  10.312  0.1255 -0.1209  0.2181
  785MOL0     C 3533  -2.067   5.837  10.859  0.2097  0.0854  0.6648
  785MOL0     C 3534  -1.945   5.772  10.835 -0.8600  0.1105  0.4804
  785MOL0     O 3535  -1.703   5.605  10.847  0.1263  0.0255 -0.0457
  785MOL0     C 3536  -1.458   5.524  10.723  0.4470 -0.0773  0.1269
  785MOL0     C 3537  -1.333   5.489  10.661  0.2577  0.5669  0.1587
  785MOL0     N 3538  -0.729   5.572   9.989 -0.3923  0.2329  0.7705
  785MOL0     N 3539  -0.670   5.627   9.885  0.0800 -0.5824 -0.6980
  785MOL0     C 3540   0.123   6.440   9.444 -1.0558  0.2688  0.1482
  785MOL0     C 3541   0.262   6.464   9.429 -0.3058 -0.0143  0.9636
  785MOL0     C 3542   0.661   6.327   9.595 -0.2551 -0.0773  0.5789
  785MOL0     C 3543   0.763   6.338   9.497  1.1089 -0.0052  0.1602
  785MOL0     C 3544   0.895   6.316   9.531 -0.2511 -0.5728  1.0886
  785MOL0     C 3545   0.931   6.275   9.657  0.2140  0.0108  0.2733
  785MOL0     O 3546   1.062   6.250   9.693 -0.4631 -0.0648 -0.3193
  785MOL0     C 3547   1.171   6.338   9.661  0.8308  0.4796 -0.6159
  785MOL0     C 3548   1.161   6.468   9.736 -0.2818  0.1176 -0.2755
  785MOL0     C 3549   1.250   6.559   9.664 -0.5816  0.7683 -0.3134
  785MOL0     C 3550   1.241   6.698   9.710 -0.0422 -0.6539 -0.2529
  785MOL0     C 3551   1.262   6.722   9.856  0.1274 -0.4000 -0.1404
  785MOL0     C 3552   1.264   6.758   9.971 -0.6710  0.0906  0.4031
  785MOL0     C 3553   0.834   6.263   9.752 -0.2155  0.3263 -0.1754
  785MOL0     C 3554   0.703   6.288   9.724  0.4329  0.7355 -0.1621
  785MOL0     H 3555   0.377   6.145   9.374 -0.7081 -1.5216  1.8378
  785MOL0     H 3556   0.140   6.111   9.387 -1.2447 -0.5651 -0.2627
  785MOL0     H 3557  -0.202   6.336   9.287  0.1927  1.3089 -1.0327
  785MOL0     H 3558  -0.115   6.464   9.349  1.9459 -0.5936  1.3239
  785MOL0     H 3559  -0.359   6.378   9.442  1.2990  1.5470 -0.9150
  785MOL0     H 3560  -0.255   6.450   9.565  1.0400  1.0703 -2.0579
  785MOL0     H 3561  -0.184   6.220   9.624 -0.2031  1.2728  0.5516
  785MOL0     H 3562  -0.256   6.155   9.474 -1.2743 -0.9252  0.4408
  785MOL0     H 3563  -0.416   6.281   9.701  2.3419  0.1803 -1.2756
  785MOL0     H 3564  -0.485   6.201   9.557 -2.5216  1.0262  3.3377
  785MOL0     H 3565  -0.318   6.035   9.740  0.7971  3.3761  0.0019
  785MOL0     H 3566  -0.449   5.990   9.618  1.2660 -1.9406 -0.3290
  785MOL0     H 3567  -0.602   6.127   9.787 -0.1169  1.0073  1.1370
  785MOL0     H 3568  -0.464   6.149   9.883 -0.2798 -0.9941 -0.4233
  785MOL0     H 3569  -0.463   5.888   9.910 -0.8809 -1.0112 -0.3980
  785MOL0     H 3570  -0.601   5.964   9.987  0.2779 -0.2396  0.6750
  785MOL0     H 3571  -0.595   5.837   9.717  1.8522 -1.2319  2.1038
  785MOL0     H 3572  -0.733   5.930   9.778  0.3293  1.4049  1.6377
  785MOL0     H 3573  -0.852   5.869   9.981  1.3969  1.7256 -0.5908
  785MOL0     H 3574  -0.958   5.724  10.181  1.2356  1.9670  1.8766
  785MOL0     H 3575  -0.821   5.633  10.255  0.1011  0.8535 -0.0740
  785MOL0     H 3576  -0.905   5.425  10.132 -0.5866 -0.2988 -0.2088
  785MOL0     H 3577  -1.061   5.503  10.110 -1.0491 -1.1038  0.4281
  785MOL0     H 3578  -1.047   5.358  10.325 -3.8465  0.7485  1.7973
  785MOL0     H 3579  -0.916   5.467  10.374  0.6192 -2.2227 -1.6711
  785MOL0     H 3580  -1.203   5.553  10.297 -0.3500  0.5049  0.3519
  785MOL0     H 3581  -1.090   5.663  10.365  2.0143  0.4799  4.3572
  785MOL0     H 3582  -1.343   5.711  10.407 -3.5536  3.8673  0.1332
  785MOL0     H 3583  -1.559   5.769  10.519  0.5901  1.7876  1.0444
  785MOL0     H 3584  -1.846   5.980  10.578 -0.7511  0.3416  0.5565
  785MOL0     H 3585  -2.062   6.072  10.615  2.2135  1.6996  0.4188
  785MOL0     H 3586  -2.319   6.030  10.616  1.3426  0.5757 -0.8388
  785MOL0     H 3587  -2.265   6.180  10.674  1.7992 -0.9155 -0.5947
  785MOL0     H 3588  -2.416   6.173  10.867  0.2962  2.4149 -1.2226
  785MOL0     H 3589  -2.461   6.010  10.831  2.0348 -0.2333  0.6749
  785MOL0     H 3590  -2.564   6.077  10.611  0.7983  0.8914 -1.8578
  785MOL0     H 3591  -2.528   6.245  10.636 -5.2098  0.7392  0.1286
  785MOL0     H 3592  -2.707   6.091  10.826  0.9139  0.6054  1.1115
  785MOL0     H 3593  -2.646   6.248  10.859  0.9028  0.7745 -1.1955
  785MOL0     H 3594  -2.738   6.324  10.624  0.5263 -0.1867 -0.8302
  785MOL0     H 3595  -2.852   6.296  10.761  2.2820  1.4638  2.2944
  785MOL0     H 3596  -2.880   6.050  10.670  1.5253 -0.8000  0.1507
  785MOL0     H 3597  -2.782   6.081  10.540  2.0658 -0.3112  1.1130
  785MOL0     H 3598  -3.058   6.231  10.589  0.8981  1.6827  0.2140
  785MOL0     H 3599  -2.959   6.274  10.460 -1.5423  0.2389 -1.7378
  785MOL0     H 3600  -3.114   6.138  10.371  1.5341  1.7512  0.6511
  785MOL0     H 3601  -3.074   5.996  10.469  0.6444 -2.6366 -2.4993
  785MOL0     H 3602  -2.124   5.799  10.944  2.3174 -1.2101  1.5853
  785MOL0     H 3603  -1.921   5.696  10.909 -0.6112  2.0325  2.4897
  785MOL0     H 3604  -1.473   5.465  10.813 -0.4447  1.3669  0.9667
  785MOL0     H 3605  -1.277   5.405  10.699  2.6725  2.1666  0.4061
  785MOL0     H 3606   0.061   6.522   9.480 -2.0831 -0.3602 -0.1507
  785MOL0     H 3607   0.301   6.564   9.445 -2.0707  0.5638  1.9573
  785MOL0     H 3608   0.733   6.385   9.403 -1.4554 -1.5247  0.1243
  785MOL0     H 3609   0.963   6.335   9.448 -0.7398  2.0931  1.2176
  785MOL0     H 3610   1.193   6.346   9.555  2.0471  0.7236 -0.3583
  785MOL0     H 3611   1.262   6.291   9.698  1.8926  0.6493 -2.8848
  785MOL0     H 3612   1.063   6.518   9.731  1.0293  2.8177 -0.8316
  785MOL0     H 3613   1.187   6.450   9.840 -1.5290  2.5891  0.5419
  785MOL0     H 3614   1.228   6.551   9.557  0.6661 -0.6163 -0.5166
  785MOL0     H 3615   1.350   6.518   9.682 -0.6659  0.5411 -0.3620
  785MOL0     H 3616   1.315   6.757   9.655 -0.1697  1.0055  1.2658
  785MOL0     H 3617   1.142   6.728   9.674 -0.0611 -2.9735 -2.3585
  785MOL0     H 3618   1.246   6.801  10.068 -1.0946  0.4223  0.1818
  785MOL0     H 3619   0.858   6.227   9.851 -0.3921  2.6736  0.7735
  785MOL0     H 3620   0.630   6.306   9.803 -0.8469  0.8777 -1.3453
  786MOL0     O 3621   0.075   6.611  10.385 -0.8277 -0.0770  0.0491
  786MOL0     C 3622   0.179   6.664  10.413  0.6348 -0.5506 -0.0029
  786MOL0     O 3623   0.203   6.737  10.526  0.1529  0.5139 -1.0510
  786MOL0     C 3624   0.095   6.774  10.600  0.3213  0.1730  0.2226
  786MOL0     C 3625   0.004   6.861  10.543  0.7208 -1.2999 -0.1976
  786MOL0     C 3626  -0.104   6.903  10.616  0.4649 -0.2159  0.1762
  786MOL0     C 3627  -0.120   6.854  10.749 -0.5126 -0.1728  0.1031
  786MOL0     O 3628  -0.235   6.887  10.828 -0.4701  0.6396 -0.1925
  786MOL0     C 3629  -0.249   7.026  10.854 -0.1266 -0.4607 -0.0882
  786MOL0     C 3630  -0.395   7.070  10.820 -0.7949 -0.5689  0.0390
  786MOL0     C 3631  -0.438   7.209  10.878 -0.6385 -0.1088 -0.7123
  786MOL0     C 3632  -0.455   7.211  11.031 -0.0598  1.2535  0.3966
  786MOL0     C 3633  -0.498   7.338  11.103 -0.2294  0.4131  0.1950
  786MOL0     C 3634  -0.615   7.410  11.042 -0.3097  0.8930  0.6797
  786MOL0     C 3635  -0.701   7.503  11.132  0.0396 -0.2974 -0.7180
  786MOL0     C 3636  -0.735   7.440  11.266  0.2260 -0.4605  0.4465
  786MOL0     N 3637  -0.818   7.313  11.239 -0.7458  0.4140 -0.1203
  786MOL0     C 3638  -0.955   7.297  11.255  0.3339 -0.8183 -0.2837
  786MOL0     C 3639  -0.977   7.166  11.246  0.1777 -0.3959 -0.0423
  786MOL0     C 3640  -1.114   7.090  11.229  0.1581  0.8275 -0.4092
  786MOL0     C 3641  -1.097   6.941  11.202  0.5540 -1.0463  0.0271
  786MOL0     C 3642  -1.227   6.871  11.153 -0.1046 -0.4985 -0.0630
  786MOL0     C 3643  -1.355   6.899  11.232 -0.8323 -0.1150  2.1134
  786MOL0     O 3644  -1.420   7.025  11.189  0.8867  0.1978 -1.0190
  786MOL0     C 3645  -1.548   7.052  11.236  1.0314  0.0383 -0.9108
  786MOL0     C 3646  -1.612   6.997  11.344 -0.8177  0.3950  0.1927
  786MOL0     C 3647  -1.743   7.030  11.378  0.0363  0.2164 -0.1950
  786MOL0     C 3648  -1.815   7.130  11.314  0.8172 -0.2285 -0.2642
  786MOL0     C 3649  -1.965   7.152  11.349  0.2222  0.0057  0.0058
  786MOL0     O 3650  -2.011   7.097  11.465 -0.1505  0.0754  0.0340
  786MOL0     C 3651  -2.148   7.087  11.484  0.1731 -0.0288  0.4207
  786MOL0     C 3652  -2.220   7.179  11.553 -0.2164 -0.2451  0.1042
  786MOL0     C 3653  -2.363   7.169  11.576  0.1310 -0.7092  0.5859
  786MOL0     C 3654  -2.433   7.064  11.527 -0.6313 -0.0526  0.4750
  786MOL0     O 3655  -2.565   7.047  11.567 -0.4708  1.1142 -0.3335
  786MOL0     C 3656  -2.634   6.919  11.548 -0.2082 -0.4933  0.0084
  786MOL0     C 3657  -2.695   6.920  11.414  0.4505  0.3755 -0.4762
  786MOL0     C 3658  -2.793   6.800  11.392  0.6254 -0.1773  0.3342
  786MOL0     C 3659  -2.878   6.796  11.263  0.7425 -0.5617 -0.5369
  786MOL0     C 3660  -2.955   6.661  11.240 -0.1064  0.0997 -0.3364
  786MOL0     C 3661  -2.989   6.627  11.095 -0.2184  0.1289  0.0951
  786MOL0     C 3662  -3.081   6.741  11.041 -0.6915  0.3840 -0.4894
  786MOL0     C 3663  -3.188   6.700  10.938  0.3211  0.5669 -1.1357
  786MOL0    Cl 3664  -3.103   6.656  10.777  0.1302  0.0435 -0.0395
  786MOL0     C 3665  -2.357   6.976  11.447 -0.3119 -0.3430  0.2690
  786MOL0     C 3666  -2.219   6.989  11.426  0.1042  0.5506  0.8691
  786MOL0     O 3667  -2.031   7.225  11.275  0.3660 -0.3042  0.9443
  786MOL0     C 3668  -1.747   7.196  11.211 -0.0096 -0.2715  0.2757
  786MOL0     C 3669  -1.614   7.157  11.168  0.3162 -0.6768  0.3301
  786MOL0     N 3670  -0.858   7.099  11.256  0.1630 -0.0612 -0.1358
  786MOL0     N 3671  -0.765   7.190  11.244  0.4978 -0.0092 -0.6130
  786MOL0     C 3672  -0.015   6.777  10.814 -0.4829 -0.5241  0.0695
  786MOL0     C 3673   0.095   6.734  10.730  0.6582  0.1242  0.7954
  786MOL0     C 3674   0.294   6.648  10.312  0.0802 -0.0666 -0.3928
  786MOL0     C 3675   0.279   6.557  10.207 -0.1126  0.4280  0.1299
  786MOL0     C 3676   0.383   6.554  10.107 -0.5741  0.5298 -0.1571
  786MOL0     C 3677   0.511   6.616  10.131 -0.3402  0.6283  0.2944
  786MOL0     O 3678   0.606   6.589  10.038 -0.2345 -0.5229  0.5454
  786MOL0     C 3679   0.727   6.669  10.046  0.0456  0.4648  0.3519
  786MOL0     C 3680   0.820   6.625   9.922 -0.5106  0.5335  0.1763
  786MOL0     C 3681   0.766   6.672   9.789 -0.0404  0.1745 -1.0188
  786MOL0     C 3682   0.749   6.820   9.786 -0.5388 -0.2405  0.4751
  786MOL0     C 3683   0.884   6.891   9.804 -0.2220 -0.3297  0.1613
  786MOL0     C 3684   0.982   6.955   9.831  0.2077 -0.6997 -0.1580
  786MOL0     C 3685   0.525   6.692  10.247 -0.5023  1.1819  0.7437
  786MOL0     C 3686   0.415   6.709  10.324 -0.4492  0.6832 -0.0281
  786MOL0     H 3687   0.007   6.889  10.439 -2.5733 -0.6215 -0.2264
  786MOL0     H 3688  -0.176   6.968  10.568  1.0032 -2.0257 -3.3778
  786MOL0     H 3689  -0.185   7.090  10.793 -0.5956 -0.0141 -0.1248
  786MOL0     H 3690  -0.210   7.048  10.953 -0.2913 -2.4030  0.4488
  786MOL0     H 3691  -0.466   6.997  10.860 -0.0693  0.0976  2.7047
  786MOL0     H 3692  -0.393   7.079  10.711  1.5045 -1.3319 -0.0362
  786MOL0     H 3693  -0.526   7.252  10.829 -2.3920  0.7777  2.8786
  786MOL0     H 3694  -0.351   7.273  10.861  0.2825 -0.2614  2.5963
  786MOL0     H 3695  -0.533   7.138  11.052 -1.5135  1.8697 -2.3888
  786MOL0     H 3696  -0.365   7.178  11.082 -0.8232  1.4434  1.9035
  786MOL0     H 3697  -0.420   7.412  11.086 -2.0187  2.6542  1.1864
  786MOL0     H 3698  -0.518   7.313  11.208 -1.4014  1.3361  0.2113
  786MOL0     H 3699  -0.677   7.331  10.999  0.2468  0.3794  0.8137
  786MOL0     H 3700  -0.583   7.468  10.955 -0.2117 -0.7526 -0.4285
  786MOL0     H 3701  -0.644   7.595  11.147  1.9673 -1.5119 -0.1940
  786MOL0     H 3702  -0.789   7.530  11.072 -0.7380 -0.1033  0.4897
  786MOL0     H 3703  -0.787   7.506  11.335 -0.8111 -1.0066  0.2078
  786MOL0     H 3704  -0.642   7.415  11.319  2.2185 -0.7102 -2.8415
  786MOL0     H 3705  -1.034   7.370  11.273  1.5705  0.0325  2.1462
  786MOL0     H 3706  -1.174   7.131  11.148 -2.7423 -2.6508 -0.2600
  786MOL0     H 3707  -1.181   7.105  11.314  0.7134 -1.5820  0.5539
  786MOL0     H 3708  -1.068   6.902  11.300 -1.7631  0.2709  1.2961
  786MOL0     H 3709  -1.018   6.920  11.128  0.5838 -0.7934 -0.0131
  786MOL0     H 3710  -1.241   6.899  11.048 -0.4918  2.3468  0.6495
  786MOL0     H 3711  -1.218   6.763  11.165 -0.4576 -0.4506  0.7070
  786MOL0     H 3712  -1.322   6.900  11.336  2.1739  0.5692  1.2515
  786MOL0     H 3713  -1.423   6.815  11.213  2.3217 -2.7890  1.7596
  786MOL0     H 3714  -1.559   6.927  11.408 -0.3790 -1.6543 -2.2605
  786MOL0     H 3715  -1.795   6.979  11.458 -1.4988 -0.4597 -1.5563
  786MOL0     H 3716  -2.171   7.266  11.595  2.3491 -1.3288 -0.4952
  786MOL0     H 3717  -2.410   7.244  11.639  0.7658  0.7245 -0.6066
  786MOL0     H 3718  -2.716   6.921  11.620 -2.2239  0.3505 -2.1793
  786MOL0     H 3719  -2.567   6.832  11.558  1.1372  0.4403 -0.5908
  786MOL0     H 3720  -2.623   6.922  11.331 -1.9036 -1.9160 -2.7768
  786MOL0     H 3721  -2.756   7.010  11.402 -0.9678 -0.5020 -0.0429
  786MOL0     H 3722  -2.877   6.817  11.461 -0.6138  5.5147 -1.9373
  786MOL0     H 3723  -2.727   6.714  11.401 -1.9624 -2.4042 -0.6402
  786MOL0     H 3724  -2.950   6.878  11.262  1.2256 -0.0242 -4.1195
  786MOL0     H 3725  -2.810   6.821  11.181 -1.6876 -0.2059 -2.5736
  786MOL0     H 3726  -3.045   6.667  11.302 -1.1762 -1.7042 -1.6132
  786MOL0     H 3727  -2.895   6.578  11.279  0.2662  0.1302 -0.8298
  786MOL0     H 3728  -3.034   6.529  11.077  2.2498 -0.8505 -1.2562
  786MOL0     H 3729  -2.895   6.633  11.040 -0.7926  1.5437 -0.7926
  786MOL0     H 3730  -3.141   6.776  11.126  3.3439 -0.5350  3.1086
  786MOL0     H 3731  -3.020   6.828  11.015 -1.2046  1.0895  0.6320
  786MOL0     H 3732  -3.259   6.776  10.904 -1.4552 -0.4960  0.0233
  786MOL0     H 3733  -3.247   6.622  10.987  0.2693  1.1373 -0.2567
  786MOL0     H 3734  -2.406   6.879  11.436 -1.2085  0.1275  0.0380
  786MOL0     H 3735  -2.169   6.903  11.382  0.7207  1.5327 -0.4091
  786MOL0     H 3736  -1.809   7.270  11.162 -1.2191 -1.5391 -0.1802
  786MOL0     H 3737  -1.577   7.206  11.078  0.2367 -2.7510 -0.9107
  786MOL0     H 3738  -0.023   6.736  10.915  2.1980 -0.5320  0.3519
  786MOL0     H 3739   0.168   6.667  10.775 -0.1929 -1.2564  0.1989
  786MOL0     H 3740   0.191   6.494  10.198  0.8851 -1.1189  0.7516
  786MOL0     H 3741   0.385   6.495  10.016  2.3786  2.1136 -1.2408
  786MOL0     H 3742   0.793   6.630  10.124  1.7472  0.1721 -1.1766
  786MOL0     H 3743   0.706   6.776  10.058  0.6829  0.4874  1.5222
  786MOL0     H 3744   0.926   6.648   9.936  0.3655 -2.6272 -0.3065
  786MOL0     H 3745   0.834   6.516   9.916  1.5411  0.6356  1.8822
  786MOL0     H 3746   0.672   6.617   9.775 -1.0436  0.4836  3.2873
  786MOL0     H 3747   0.841   6.636   9.719 -0.1313 -2.6547  0.2103
  786MOL0     H 3748   0.708   6.834   9.686  0.6221  0.3015  0.0518
  786MOL0     H 3749   0.671   6.846   9.858 -1.1483 -1.1447  0.1612
  786MOL0     H 3750   1.066   7.018   9.854 -0.8413  1.3601 -1.6404
  786MOL0     H 3751   0.618   6.741  10.272  1.0995 -1.7497  0.9883
  786MOL0     H 3752   0.424   6.769  10.413  1.1469 -1.5452  1.4143
  787MOL0     O 3753   9.278   1.827   9.889  0.2139  0.1042  0.2665
  787MOL0     C 3754   9.290   1.760   9.790 -0.5365  0.4172  0.3069
  787MOL0     O 3755   9.182   1.692   9.732  0.2830  0.3255  0.6622
  787MOL0     C 3756   9.070   1.686   9.804 -0.3274 -0.3236  0.1297
  787MOL0     C 3757   8.949   1.691   9.735  0.0328 -0.6573  0.1614
  787MOL0     C 3758   8.824   1.680   9.798 -0.0859 -0.4268  0.9056
  787MOL0     C 3759   8.809   1.646   9.928 -0.3289  0.1933 -0.3725
  787MOL0     O 3760   8.694   1.633  10.004  0.0456  0.2347  0.0909
  787MOL0     C 3761   8.573   1.611   9.927  0.6560  0.0401  0.8448
  787MOL0     C 3762   8.451   1.608  10.017  0.5200 -0.6814 -0.6857
  787MOL0     C 3763   8.325   1.568   9.951 -0.1351 -0.4870 -0.3417
  787MOL0     C 3764   8.202   1.599  10.044 -0.4938 -0.1836  0.6796
  787MOL0     C 3765   8.077   1.540   9.975  0.1771 -0.0073  0.8777
  787MOL0     C 3766   7.976   1.576  10.083  1.0171  0.9624  0.7993
  787MOL0     C 3767   7.832   1.529  10.033 -0.4370 -0.3911  0.1658
  787MOL0     C 3768   7.737   1.551  10.153 -0.2073  0.6845 -0.2102
  787MOL0     N 3769   7.600   1.511  10.140  0.4867  0.0547 -0.3638
  787MOL0     C 3770   7.501   1.590  10.075 -0.6647  0.2796  0.7732
  787MOL0     C 3771   7.384   1.549  10.122 -0.1978 -0.3143  0.4290
  787MOL0     C 3772   7.242   1.615  10.113  0.5582  0.7281  0.1170
  787MOL0     C 3773   7.134   1.507  10.141  0.3392 -0.8526 -0.1784
  787MOL0     C 3774   7.003   1.580  10.153 -0.1669  0.6723 -0.3497
  787MOL0     C 3775   6.899   1.465  10.142  0.4509  0.4493  0.5905
  787MOL0     O 3776   6.766   1.509  10.137 -0.0496  0.5074  0.4202
  787MOL0     C 3777   6.661   1.418  10.128 -0.3964  0.6895 -0.3530
  787MOL0     C 3778   6.538   1.482  10.135  0.5492 -0.2698  0.8256
  787MOL0     C 3779   6.423   1.406  10.118  0.2962 -0.1171  0.0903
  787MOL0     C 3780   6.423   1.268  10.121  0.0645  0.0083 -0.5747
  787MOL0     C 3781   6.298   1.191  10.102  0.0049  0.6266  0.0833
  787MOL0     O 3782   6.182   1.266  10.104 -0.7179  0.6063  0.6767
  787MOL0     C 3783   6.070   1.209  10.047  0.9851  0.0307 -0.5837
  787MOL0     C 3784   5.974   1.163  10.134 -0.0805 -0.0500 -1.0953
  787MOL0     C 3785   5.860   1.099  10.083 -0.5449  0.3995 -0.1147
  787MOL0     C 3786   5.851   1.092   9.943 -0.0094  0.5206 -0.2459
  787MOL0     O 3787   5.733   1.048   9.880 -0.5026 -1.6001 -0.4860
  787MOL0     C 3788   5.682   0.925   9.914 -0.4948 -0.5876 -0.0846
  787MOL0     C 3789   5.583   0.880   9.812  0.0583  0.4373  0.1177
  787MOL0     C 3790   5.560   0.726   9.826  0.0360  0.2296  0.6203
  787MOL0     C 3791   5.517   0.687   9.967 -0.3893  0.4029 -1.0766
  787MOL0     C 3792   5.467   0.538   9.967  0.1396 -0.9867  0.4355
  787MOL0     C 3793   5.582   0.430   9.956  0.4441 -0.8452  0.0311
  787MOL0     C 3794   5.535   0.323   9.864  0.1828 -0.1965  0.2638
  787MOL0     C 3795   5.636   0.208   9.853  0.2558 -0.3752 -0.7174
  787MOL0    Cl 3796   5.572   0.083   9.746 -0.4718 -0.1027 -0.2994
  787MOL0     C 3797   5.949   1.133   9.862  0.1338 -0.0671  0.2772
  787MOL0     C 3798   6.059   1.190   9.914  0.8959  0.0659 -0.0639
  787MOL0     O 3799   6.307   1.068  10.079 -0.0855  0.2303 -0.6544
  787MOL0     C 3800   6.544   1.201  10.134  0.7020 -0.7671 -0.3409
  787MOL0     C 3801   6.664   1.278  10.132 -0.6583 -0.0075 -0.9232
  787MOL0     N 3802   7.412   1.455  10.218 -0.3007 -0.0664  0.3254
  787MOL0     N 3803   7.532   1.427  10.228 -0.6200 -0.7770 -0.0772
  787MOL0     C 3804   8.930   1.634  10.002  0.1240  0.9112 -0.9685
  787MOL0     C 3805   9.059   1.660   9.946  0.1633 -0.1179  0.1486
  787MOL0     C 3806   9.421   1.761   9.729 -0.2366 -0.7037  0.1248
  787MOL0     C 3807   9.439   1.750   9.592 -0.2692 -0.1224  0.7224
  787MOL0     C 3808   9.565   1.753   9.530  0.1127  0.1178  0.0171
  787MOL0     C 3809   9.684   1.749   9.603  0.6028 -0.0971 -0.2784
  787MOL0     O 3810   9.799   1.746   9.530 -0.6318 -0.5540 -0.1121
  787MOL0     C 3811   9.926   1.713   9.596 -0.3311  0.1103  0.0244
  787MOL0     C 3812   9.928   1.562   9.598  0.5678  0.2134 -0.7405
  787MOL0     C 3813  10.052   1.502   9.670  0.2893 -0.4179  0.3096
  787MOL0     C 3814  10.188   1.508   9.600  0.3666 -0.6354 -0.0669
  787MOL0     C 3815  10.179   1.462   9.456 -0.6242 -0.4829  0.3614
  787MOL0     C 3816  10.172   1.435   9.337  0.3931 -0.3294 -0.0817
  787MOL0     C 3817   9.668   1.755   9.743 -0.7883 -0.2835  0.3735
  787MOL0     C 3818   9.537   1.754   9.799 -0.8768 -0.4983 -0.5369
  787MOL0     H 3819   8.955   1.691   9.627  1.1865  2.8180  0.1067
  787MOL0     H 3820   8.743   1.713   9.734  0.1633  1.9738  1.7170
  787MOL0     H 3821   8.581   1.517   9.872  1.3548 -0.3384  1.5730
  787MOL0     H 3822   8.557   1.683   9.846 -2.2293 -1.9457 -0.5694
  787MOL0     H 3823   8.428   1.710  10.050 -0.5366 -1.6656  1.8106
  787MOL0     H 3824   8.478   1.552  10.107 -2.5487  3.3949  3.2275
  787MOL0     H 3825   8.339   1.461   9.937 -0.0824 -0.6246  0.7040
  787MOL0     H 3826   8.309   1.608   9.850 -2.2762 -1.1293 -0.2969
  787MOL0     H 3827   8.220   1.553  10.141 -1.4375  0.2239  1.0519
  787MOL0     H 3828   8.191   1.707  10.052 -1.3472 -0.2974  1.0942
  787MOL0     H 3829   8.088   1.435   9.947  1.0478  0.2060  0.3738
  787MOL0     H 3830   8.074   1.605   9.887  0.7553 -1.8254 -0.5475
  787MOL0     H 3831   7.981   1.685  10.095 -2.6576  1.2539  0.8910
  787MOL0     H 3832   8.007   1.522  10.173  1.1746 -0.4343 -0.0705
  787MOL0     H 3833   7.809   1.585   9.942  0.3581 -1.6448 -0.8401
  787MOL0     H 3834   7.839   1.423  10.005  0.0053  0.5077 -3.7083
  787MOL0     H 3835   7.723   1.653  10.190 -1.9096 -0.1414  1.6267
  787MOL0     H 3836   7.779   1.489  10.233  1.4153 -1.1415 -2.3543
  787MOL0     H 3837   7.507   1.680  10.015 -1.6459  0.1629  0.4783
  787MOL0     H 3838   7.231   1.644  10.008 -0.4899  0.1511  0.0612
  787MOL0     H 3839   7.245   1.696  10.187  2.1114  2.2663 -1.5277
  787MOL0     H 3840   7.151   1.447  10.231 -0.9423 -1.5780 -0.3883
  787MOL0     H 3841   7.132   1.431  10.062 -0.1407 -2.0388  0.9460
  787MOL0     H 3842   7.005   1.622  10.254  0.9883 -2.3767  1.0207
  787MOL0     H 3843   6.990   1.650  10.070  0.0513  1.1085 -0.0176
  787MOL0     H 3844   6.924   1.405  10.230  1.1447  0.7035  0.5739
  787MOL0     H 3845   6.914   1.404  10.053 -2.0677  0.5871 -0.0089
  787MOL0     H 3846   6.529   1.587  10.161  2.5839  0.4414 -1.0218
  787MOL0     H 3847   6.331   1.463  10.115  1.0603  1.0959 -1.4706
  787MOL0     H 3848   5.983   1.177  10.241  1.6479 -1.3149 -1.0393
  787MOL0     H 3849   5.783   1.060  10.149 -3.5955  3.3453 -1.6672
  787MOL0     H 3850   5.633   0.923  10.012 -0.4259 -4.3132  0.0137
  787MOL0     H 3851   5.767   0.860   9.935 -0.6531 -0.4503  1.0411
  787MOL0     H 3852   5.612   0.888   9.707 -3.6250 -0.3418 -1.0928
  787MOL0     H 3853   5.494   0.943   9.815 -0.4283 -0.1317 -1.4593
  787MOL0     H 3854   5.651   0.667   9.809  0.8944  1.2338  1.5108
  787MOL0     H 3855   5.476   0.707   9.759  1.8420  0.5087 -1.8752
  787MOL0     H 3856   5.602   0.690  10.036 -1.8604 -1.9709  1.0721
  787MOL0     H 3857   5.435   0.752  10.001  0.4012  1.0297 -0.3215
  787MOL0     H 3858   5.399   0.541   9.882 -0.5723 -1.2371  0.9829
  787MOL0     H 3859   5.400   0.520  10.051 -0.4068  0.4301  0.3156
  787MOL0     H 3860   5.609   0.386  10.052  2.8296  1.5186  0.5887
  787MOL0     H 3861   5.667   0.481   9.908 -2.4941  2.1070 -2.5172
  787MOL0     H 3862   5.437   0.289   9.899 -0.6221  0.2778 -1.4211
  787MOL0     H 3863   5.520   0.374   9.768 -1.9838  2.1564  1.7194
  787MOL0     H 3864   5.651   0.158   9.949 -1.3357  2.0907  0.9335
  787MOL0     H 3865   5.732   0.254   9.826 -0.7375  2.1177 -0.2382
  787MOL0     H 3866   5.946   1.119   9.755 -1.7137 -2.2876  0.5435
  787MOL0     H 3867   6.142   1.224   9.852  1.1381 -2.3443 -1.1870
  787MOL0     H 3868   6.559   1.094  10.138 -0.3993 -0.8803  1.6032
  787MOL0     H 3869   6.759   1.226  10.134  1.1563  3.0283  0.5857
  787MOL0     H 3870   8.933   1.594  10.103  3.3664 -1.3106 -1.7550
  787MOL0     H 3871   9.151   1.655  10.003 -0.3621  1.7168  1.2274
  787MOL0     H 3872   9.360   1.747   9.518  1.3595  1.4449 -1.2009
  787MOL0     H 3873   9.560   1.754   9.421 -2.2078 -2.4051 -0.0214
  787MOL0     H 3874   9.936   1.746   9.699  4.0932  2.1900 -0.8144
  787MOL0     H 3875  10.011   1.751   9.537  1.0896 -0.4248  1.6436
  787MOL0     H 3876   9.834   1.530   9.644 -0.5530  0.8904 -2.4455
  787MOL0     H 3877   9.936   1.520   9.497  1.4561 -0.9577 -0.2105
  787MOL0     H 3878  10.031   1.396   9.689 -0.7766 -0.2865 -0.0548
  787MOL0     H 3879  10.069   1.548   9.767 -0.5615  0.4626  0.0559
  787MOL0     H 3880  10.239   1.605   9.599 -1.9344  0.6412 -0.6526
  787MOL0     H 3881  10.253   1.436   9.650  0.2101 -1.3373 -0.8652
  787MOL0     H 3882  10.152   1.403   9.237 -1.0335 -1.0703  0.4198
  787MOL0     H 3883   9.755   1.750   9.808 -0.0125 -1.0982 -0.6894
  787MOL0     H 3884   9.528   1.745   9.907 -0.7701 -1.2888 -0.5925
  788MOL0     O 3885   9.380   3.731   5.756 -0.3374  0.2035  0.9435
  788MOL0     C 3886   9.488   3.701   5.785  0.8199  0.3836 -0.2284
  788MOL0     O 3887   9.528   3.689   5.909  0.2594  0.1667 -0.1509
  788MOL0     C 3888   9.455   3.695   6.022 -0.2130 -0.1375 -0.0676
  788MOL0     C 3889   9.501   3.774   6.132 -0.0098  0.0769 -0.5183
  788MOL0     C 3890   9.424   3.787   6.249 -0.3002  0.3827 -0.5278
  788MOL0     C 3891   9.309   3.717   6.258 -0.4940 -0.3662 -0.1354
  788MOL0     O 3892   9.238   3.716   6.377  0.4381  0.3415  0.3841
  788MOL0     C 3893   9.184   3.847   6.395 -0.0446 -0.0562  0.3174
  788MOL0     C 3894   9.066   3.843   6.487  0.1488  0.1209 -0.5035
  788MOL0     C 3895   9.106   3.823   6.634  0.3289 -0.3936 -0.2339
  788MOL0     C 3896   8.992   3.836   6.733 -0.5953  0.0544  0.2593
  788MOL0     C 3897   9.049   3.849   6.876 -0.2138 -0.3705  0.2959
  788MOL0     C 3898   9.090   3.705   6.942 -0.5449 -0.9461  0.2898
  788MOL0     C 3899   9.162   3.734   7.069  0.7068  0.2321  0.2365
  788MOL0     C 3900   9.174   3.613   7.166  0.2931  0.9637 -0.1306
  788MOL0     N 3901   9.051   3.552   7.205  0.6463  0.4578 -0.5012
  788MOL0     C 3902   9.000   3.563   7.338  0.3717 -0.1756  0.6928
  788MOL0     C 3903   8.885   3.495   7.332 -0.2170 -0.4026 -0.4268
  788MOL0     C 3904   8.780   3.479   7.435 -1.1044 -0.2156 -0.8618
  788MOL0     C 3905   8.808   3.542   7.579 -0.1921  1.2784  0.3906
  788MOL0     C 3906   8.688   3.497   7.675 -0.1342 -0.3974  0.3698
  788MOL0     C 3907   8.695   3.559   7.806 -0.5965  0.7130  0.1215
  788MOL0     O 3908   8.666   3.701   7.786  0.9783 -0.4466 -0.1248
  788MOL0     C 3909   8.543   3.738   7.820 -0.6778 -0.8803  0.4561
  788MOL0     C 3910   8.530   3.876   7.850 -0.7302 -0.7132 -0.0137
  788MOL0     C 3911   8.403   3.932   7.878 -0.3793  0.1323 -0.5109
  788MOL0     C 3912   8.288   3.849   7.882 -0.8263 -0.7859 -0.2343
  788MOL0     C 3913   8.157   3.914   7.909 -0.6842  0.0011  0.0546
  788MOL0     O 3914   8.059   3.826   7.919  0.7544  0.1223 -0.0914
  788MOL0     C 3915   7.941   3.875   7.977  0.5593  0.3140 -0.1736
  788MOL0     C 3916   7.824   3.871   7.911  0.7367  0.2195  0.2983
  788MOL0     C 3917   7.697   3.925   7.962 -0.3847 -0.0909  1.2529
  788MOL0     C 3918   7.688   3.951   8.098  0.2153 -0.3754 -0.1137
  788MOL0     O 3919   7.577   3.988   8.165  0.6135  0.1585 -0.6643
  788MOL0     C 3920   7.451   4.027   8.103  0.1136  0.0644  0.2384
  788MOL0     C 3921   7.368   3.901   8.055 -0.0044 -0.2959 -0.3714
  788MOL0     C 3922   7.223   3.893   8.094 -0.1639 -0.7762  0.2533
  788MOL0     C 3923   7.147   4.022   8.048 -0.3954 -0.5218 -0.9110
  788MOL0     C 3924   7.011   3.994   7.978  0.6474  1.2037  0.5816
  788MOL0     C 3925   6.901   3.939   8.068  0.1181 -0.3442 -0.2378
  788MOL0     C 3926   6.780   3.924   7.976  0.4528 -0.3074 -0.3671
  788MOL0     C 3927   6.667   3.958   8.062  0.3464 -0.1653  0.1354
  788MOL0    Cl 3928   6.530   3.961   7.938  0.6246  0.6421 -0.0794
  788MOL0     C 3929   7.809   3.954   8.172  0.5589 -0.1296  0.3559
  788MOL0     C 3930   7.935   3.923   8.106  0.1772  0.2736 -0.4307
  788MOL0     O 3931   8.147   4.035   7.922 -0.1223 -0.3626 -0.6524
  788MOL0     C 3932   8.314   3.713   7.859  0.0930 -0.2691  0.2295
  788MOL0     C 3933   8.435   3.661   7.824 -0.1329  0.5633  0.1176
  788MOL0     N 3934   8.874   3.431   7.213 -0.7071 -0.2231 -0.2934
  788MOL0     N 3935   8.967   3.473   7.133 -0.7403  0.0107 -0.5792
  788MOL0     C 3936   9.270   3.630   6.158 -0.7338  0.0325  0.5922
  788MOL0     C 3937   9.339   3.619   6.040 -1.1748  0.3795 -0.3443
  788MOL0     C 3938   9.591   3.680   5.681 -1.0918  0.6337  0.0293
  788MOL0     C 3939   9.561   3.701   5.549 -0.6512  0.2226  0.3284
  788MOL0     C 3940   9.653   3.700   5.452  0.6113 -0.0553  0.4283
  788MOL0     C 3941   9.781   3.663   5.473  0.4062  0.0484  0.7611
  788MOL0     O 3942   9.874   3.643   5.373  0.6114 -1.0149  0.4812
  788MOL0     C 3943   9.862   3.693   5.239 -0.1761  0.5764 -0.7864
  788MOL0     C 3944   9.997   3.662   5.180 -0.3031  0.3171 -0.3671
  788MOL0     C 3945  10.102   3.774   5.218 -0.5562  0.4791  0.2914
  788MOL0     C 3946  10.241   3.753   5.160  0.3615 -1.0234  0.1759
  788MOL0     C 3947  10.298   3.886   5.131 -0.1825 -0.1363 -1.2070
  788MOL0     C 3948  10.343   3.998   5.123 -1.4617  0.5420  0.5059
  788MOL0     C 3949   9.821   3.638   5.605 -0.6705 -0.3341 -0.3917
  788MOL0     C 3950   9.729   3.632   5.707 -0.3860 -0.5869 -0.9528
  788MOL0     H 3951   9.592   3.832   6.127 -0.0955  0.1510 -3.4086
  788MOL0     H 3952   9.462   3.842   6.335  1.3410 -1.9730  0.3821
  788MOL0     H 3953   9.137   3.883   6.304 -1.1997  0.9853  1.2972
  788MOL0     H 3954   9.263   3.910   6.437  0.4601 -1.5595  1.7499
  788MOL0     H 3955   8.999   3.758   6.470 -0.9834  0.5992  1.2718
  788MOL0     H 3956   9.005   3.931   6.467  0.2284 -0.3681 -3.3761
  788MOL0     H 3957   9.179   3.901   6.659 -0.1610 -1.0996  4.1673
  788MOL0     H 3958   9.157   3.730   6.660  2.1574 -0.0339 -2.2184
  788MOL0     H 3959   8.933   3.923   6.704 -1.0132  0.1593  1.4072
  788MOL0     H 3960   8.936   3.742   6.732  1.4863 -1.3221 -2.5901
  788MOL0     H 3961   8.972   3.889   6.942  0.9198 -1.7690  2.5676
  788MOL0     H 3962   9.136   3.915   6.877 -0.5156  0.0883  3.0010
  788MOL0     H 3963   9.148   3.635   6.882  0.5824  0.2371 -0.0417
  788MOL0     H 3964   8.991   3.663   6.963 -0.7348 -2.1746 -2.5403
  788MOL0     H 3965   9.259   3.780   7.047  0.7028  0.6180  0.9791
  788MOL0     H 3966   9.107   3.817   7.114  0.4189  3.0386 -4.6546
  788MOL0     H 3967   9.228   3.644   7.256 -2.7286 -0.8153  2.4837
  788MOL0     H 3968   9.223   3.527   7.119 -3.3896 -0.0976 -2.5021
  788MOL0     H 3969   9.061   3.604   7.418  2.7154 -1.0069 -0.5728
  788MOL0     H 3970   8.767   3.373   7.459  1.2028 -0.1566  1.0758
  788MOL0     H 3971   8.679   3.508   7.406 -1.9606 -1.5101  0.6167
  788MOL0     H 3972   8.803   3.650   7.562  0.7334  1.2634 -0.0930
  788MOL0     H 3973   8.901   3.512   7.629 -0.1270  0.0137 -0.4366
  788MOL0     H 3974   8.590   3.516   7.630  0.3343 -2.5541 -1.8207
  788MOL0     H 3975   8.682   3.388   7.685  3.2109 -0.7324 -0.0184
  788MOL0     H 3976   8.798   3.558   7.844 -0.9834  0.4300  1.2218
  788MOL0     H 3977   8.646   3.498   7.883  2.0820 -0.9287  0.6695
  788MOL0     H 3978   8.614   3.945   7.847 -1.3913  0.1117 -2.4493
  788MOL0     H 3979   8.407   4.037   7.905 -0.3607 -0.6684  3.1029
  788MOL0     H 3980   7.815   3.834   7.809 -2.2438 -2.0884  1.2383
  788MOL0     H 3981   7.623   3.957   7.889 -1.9781 -1.6619  2.0992
  788MOL0     H 3982   7.470   4.098   8.022 -0.4489  0.8205  0.7504
  788MOL0     H 3983   7.391   4.068   8.185  0.0716 -0.0957  0.2896
  788MOL0     H 3984   7.416   3.812   8.097 -1.4834 -2.0782 -2.2329
  788MOL0     H 3985   7.378   3.889   7.947 -0.5599  1.8006 -0.7129
  788MOL0     H 3986   7.225   3.892   8.203  0.5149  0.7437  0.2813
  788MOL0     H 3987   7.178   3.806   8.045 -2.6476 -1.6023  3.6897
  788MOL0     H 3988   7.122   4.084   8.135  3.6130 -0.1772  0.2269
  788MOL0     H 3989   7.213   4.090   7.994 -0.9269 -0.5142 -1.5577
  788MOL0     H 3990   7.018   3.920   7.897  1.5483  1.7231  0.1752
  788MOL0     H 3991   6.973   4.081   7.922  1.2461 -0.4834 -2.6694
  788MOL0     H 3992   6.880   4.008   8.150 -3.4303 -3.1268  1.4591
  788MOL0     H 3993   6.924   3.838   8.102  0.3523 -0.1247  0.2708
  788MOL0     H 3994   6.773   3.995   7.893 -2.1664 -0.6307 -0.5112
  788MOL0     H 3995   6.772   3.823   7.935  0.2530 -1.1261  1.5715
  788MOL0     H 3996   6.681   4.057   8.106 -1.5312 -0.8380  2.4619
  788MOL0     H 3997   6.642   3.881   8.136 -1.0757  1.2097  1.1464
  788MOL0     H 3998   7.824   3.994   8.273  1.7193 -2.2292  1.0781
  788MOL0     H 3999   8.032   3.927   8.153 -0.3572  3.0002  0.6326
  788MOL0     H 4000   8.231   3.643   7.864 -0.2477  0.0626 -0.5647
  788MOL0     H 4001   8.455   3.555   7.808  2.7530  1.4699 -3.3829
  788MOL0     H 4002   9.179   3.571   6.161 -0.5949 -0.4882 -2.5014
  788MOL0     H 4003   9.305   3.553   5.961 -0.9323  0.4410 -0.5036
  788MOL0     H 4004   9.458   3.731   5.531 -0.0392  2.2642  0.0021
  788MOL0     H 4005   9.604   3.721   5.357 -0.0836  2.1573  1.2201
  788MOL0     H 4006   9.839   3.800   5.251  0.2739  0.4770  1.5862
  788MOL0     H 4007   9.788   3.635   5.184 -1.2575  2.7154 -1.7336
  788MOL0     H 4008  10.040   3.566   5.212 -1.2962  0.1606  0.5253
  788MOL0     H 4009   9.980   3.661   5.072 -0.4660 -3.4581 -0.4333
  788MOL0     H 4010  10.116   3.778   5.327 -0.7559 -1.4713  0.4269
  788MOL0     H 4011  10.061   3.868   5.181  0.5369 -0.2972 -3.2672
  788MOL0     H 4012  10.299   3.692   5.230 -0.8621 -3.2980 -0.6776
  788MOL0     H 4013  10.242   3.692   5.069 -2.8050 -3.9396  1.8279
  788MOL0     H 4014  10.394   4.089   5.098  0.4564 -1.2719 -3.1769
  788MOL0     H 4015   9.922   3.608   5.632 -1.0678 -0.5909  0.8678
  788MOL0     H 4016   9.760   3.610   5.809 -2.1987  3.6027  0.7493
  789MOL0     O 4017   5.900  11.089   8.302 -0.3046 -0.3325 -0.1094
  789MOL0     C 4018   5.941  10.980   8.339 -0.4360 -0.4316 -0.3384
  789MOL0     O 4019   5.880  10.889   8.414 -0.3247 -0.3265 -0.3422
  789MOL0     C 4020   5.747  10.910   8.445  0.1685  0.5536 -0.2861
  789MOL0     C 4021   5.684  11.033   8.463 -0.7267 -0.0399 -0.1930
  789MOL0     C 4022   5.551  11.037   8.510  0.0488  0.6202 -0.5590
  789MOL0     C 4023   5.477  10.916   8.521 -0.0823  0.1340 -0.3125
  789MOL0     O 4024   5.350  10.899   8.556 -0.1998  0.8677  0.0693
  789MOL0     C 4025   5.268  11.015   8.562 -0.3988 -0.1574  0.6406
  789MOL0     C 4026   5.132  10.966   8.627  0.4437  0.0921  0.7030
  789MOL0     C 4027   5.043  10.877   8.535  0.9053 -0.3135 -0.6913
  789MOL0     C 4028   4.906  10.844   8.597 -0.1248 -0.0628 -0.9136
  789MOL0     C 4029   4.834  10.762   8.488 -0.0182 -0.3523  0.1514
  789MOL0     C 4030   4.694  10.710   8.523  0.6534 -0.9168 -0.5827
  789MOL0     C 4031   4.635  10.651   8.394  0.9638 -0.2607 -0.8619
  789MOL0     C 4032   4.510  10.559   8.400 -0.6974 -0.6422 -0.1588
  789MOL0     N 4033   4.546  10.431   8.463  0.0976 -0.2116  0.1125
  789MOL0     C 4034   4.626  10.343   8.401  0.1655  0.1043  0.5527
  789MOL0     C 4035   4.668  10.253   8.499  1.0141 -0.9964 -0.2228
  789MOL0     C 4036   4.759  10.134   8.483 -0.4858 -0.3572  0.5979
  789MOL0     C 4037   4.780  10.056   8.610 -1.2636  0.2981  0.0906
  789MOL0     C 4038   4.840   9.914   8.596  0.0193 -0.1832  0.1941
  789MOL0     C 4039   4.960   9.900   8.506 -0.9529 -0.7310 -0.9471
  789MOL0     O 4040   5.009   9.767   8.530 -0.2865  0.4357  0.1562
  789MOL0     C 4041   5.123   9.726   8.460 -0.1979 -0.4862 -0.6617
  789MOL0     C 4042   5.175   9.796   8.348  0.1540  0.1954  0.3977
  789MOL0     C 4043   5.288   9.752   8.284 -0.2506 -0.6325  0.6286
  789MOL0     C 4044   5.357   9.641   8.323  0.1928  1.4389  0.7504
  789MOL0     C 4045   5.480   9.613   8.251  0.4718 -0.1989  0.1782
  789MOL0     O 4046   5.573   9.534   8.322 -0.2307  0.4730 -0.4583
  789MOL0     C 4047   5.697   9.516   8.252  0.5247  0.0055  0.5078
  789MOL0     C 4048   5.741   9.387   8.223  0.2175  0.6851 -0.5855
  789MOL0     C 4049   5.872   9.369   8.170  0.0306  0.2740  0.3675
  789MOL0     C 4050   5.955   9.478   8.156 -0.2697  0.7134 -0.5786
  789MOL0     O 4051   6.083   9.462   8.119 -0.4438  0.3574  0.2993
  789MOL0     C 4052   6.120   9.357   8.027  0.5814  0.2430 -0.0001
  789MOL0     C 4053   6.259   9.385   7.965 -0.5965  0.5090 -0.3525
  789MOL0     C 4054   6.366   9.337   8.069 -0.0215  0.2249  0.5073
  789MOL0     C 4055   6.508   9.321   8.012  0.2033  0.5214 -0.5550
  789MOL0     C 4056   6.614   9.288   8.123 -0.0115  0.4544 -0.4209
  789MOL0     C 4057   6.744   9.377   8.127  0.4759  0.1383  0.0382
  789MOL0     C 4058   6.840   9.310   8.222  0.2254  0.4157 -0.0125
  789MOL0     C 4059   6.879   9.167   8.198  0.3562 -0.5321 -0.1845
  789MOL0    Cl 4060   7.007   9.113   8.305 -0.0545 -0.1111  0.4008
  789MOL0     C 4061   5.914   9.605   8.190  0.6791 -0.3935 -0.3531
  789MOL0     C 4062   5.784   9.620   8.238 -1.5817 -0.8290  0.0008
  789MOL0     O 4063   5.496   9.664   8.140  0.4059  0.6513 -0.5408
  789MOL0     C 4064   5.309   9.566   8.430 -0.9706 -0.5365  0.3726
  789MOL0     C 4065   5.186   9.604   8.492 -0.0963  0.1781  0.2607
  789MOL0     N 4066   4.601  10.289   8.615 -0.0947  1.3471 -0.1205
  789MOL0     N 4067   4.536  10.399   8.590  1.2568 -0.4961 -1.0214
  789MOL0     C 4068   5.542  10.799   8.493 -0.9446  0.1041 -0.0556
  789MOL0     C 4069   5.681  10.793   8.464 -0.4084  0.2011  0.1177
  789MOL0     C 4070   6.081  10.977   8.335 -0.2063  0.4013  0.9691
  789MOL0     C 4071   6.154  10.861   8.339  0.1845  0.7939 -0.0087
  789MOL0     C 4072   6.297  10.860   8.334  0.5604  0.2366 -0.2054
  789MOL0     C 4073   6.369  10.979   8.340 -0.1395 -0.9163  0.9894
  789MOL0     O 4074   6.502  10.976   8.348 -0.5248 -0.6628  0.6462
  789MOL0     C 4075   6.577  10.999   8.230  0.7407 -0.9744 -0.0756
  789MOL0     C 4076   6.707  10.923   8.241  0.2784  0.3840  0.3081
  789MOL0     C 4077   6.819  11.004   8.285 -0.3563 -0.0823 -0.1238
  789MOL0     C 4078   6.947  10.913   8.299 -0.3291  0.1049 -0.2626
  789MOL0     C 4079   7.052  11.001   8.354  0.4752  0.1168 -0.0847
  789MOL0     C 4080   7.146  11.074   8.388 -0.3147  0.8895 -0.7989
  789MOL0     C 4081   6.295  11.090   8.328 -0.2364 -0.0639 -0.4857
  789MOL0     C 4082   6.151  11.089   8.318 -0.8353 -0.4993  0.6225
  789MOL0     H 4083   5.716  11.137   8.455 -4.3657  1.2141 -0.0531
  789MOL0     H 4084   5.505  11.133   8.530 -1.6968  0.0560 -1.6347
  789MOL0     H 4085   5.251  11.050   8.460 -3.4456 -1.8355  0.4713
  789MOL0     H 4086   5.304  11.099   8.623 -1.0313  2.4173 -2.2870
  789MOL0     H 4087   5.075  11.054   8.660 -0.9542 -0.4884 -0.1007
  789MOL0     H 4088   5.155  10.902   8.713 -0.9880 -2.2861 -0.6188
  789MOL0     H 4089   5.097  10.783   8.517 -0.7344 -0.8859 -3.0152
  789MOL0     H 4090   5.037  10.930   8.439  0.0054  0.5448 -0.1835
  789MOL0     H 4091   4.909  10.782   8.688 -2.0040 -0.4124 -1.0438
  789MOL0     H 4092   4.846  10.934   8.614  2.4958  1.5484  0.5226
  789MOL0     H 4093   4.888  10.667   8.478 -0.6410 -0.8236  1.1350
  789MOL0     H 4094   4.838  10.810   8.390 -0.1817 -0.5385  0.0541
  789MOL0     H 4095   4.634  10.796   8.554 -0.6370 -1.5034 -1.3820
  789MOL0     H 4096   4.706  10.644   8.609  1.8696  0.5960  0.4490
  789MOL0     H 4097   4.604  10.730   8.325  1.5567 -0.7683 -1.7360
  789MOL0     H 4098   4.719  10.604   8.342  1.2745  0.0679 -0.6610
  789MOL0     H 4099   4.475  10.538   8.298  0.3377 -3.8904  0.0444
  789MOL0     H 4100   4.437  10.600   8.470 -1.4465 -3.9522  1.1830
  789MOL0     H 4101   4.661  10.342   8.298 -0.4426 -0.3038  0.3387
  789MOL0     H 4102   4.856  10.177   8.457 -0.3140 -1.5066 -0.8287
  789MOL0     H 4103   4.713  10.075   8.403  1.6939 -1.2806 -0.0404
  789MOL0     H 4104   4.690  10.041   8.670 -1.1931 -3.5776 -0.5276
  789MOL0     H 4105   4.854  10.105   8.674  1.1358 -1.3324 -1.2524
  789MOL0     H 4106   4.863   9.883   8.698  1.0035 -2.5130 -0.6517
  789MOL0     H 4107   4.769   9.838   8.563 -1.1332  0.8146  0.3221
  789MOL0     H 4108   5.025   9.986   8.527 -1.7230 -0.5399  0.8362
  789MOL0     H 4109   4.922   9.912   8.405 -0.9119 -0.3905 -0.9247
  789MOL0     H 4110   5.134   9.888   8.309 -1.0846 -0.1582  0.7981
  789MOL0     H 4111   5.323   9.820   8.207 -3.6290 -0.8974 -1.3187
  789MOL0     H 4112   5.677   9.300   8.233 -1.9926  2.1880 -0.9398
  789MOL0     H 4113   5.910   9.272   8.138 -0.7409  0.4345 -1.0912
  789MOL0     H 4114   6.048   9.355   7.945 -0.9843 -2.1297  1.3137
  789MOL0     H 4115   6.111   9.262   8.079 -1.4001  0.9594  1.0756
  789MOL0     H 4116   6.274   9.490   7.937 -0.9849  0.3782 -1.0825
  789MOL0     H 4117   6.275   9.311   7.885  1.7426 -0.2762  0.7625
  789MOL0     H 4118   6.338   9.237   8.103  1.1126  0.1050  1.1484
  789MOL0     H 4119   6.365   9.411   8.150  1.9283 -0.7205  1.4567
  789MOL0     H 4120   6.502   9.239   7.940 -2.2388 -0.1255  0.2893
  789MOL0     H 4121   6.540   9.418   7.971 -0.5767  1.3638  0.7418
  789MOL0     H 4122   6.633   9.182   8.104 -1.7650  0.1701 -0.7807
  789MOL0     H 4123   6.573   9.288   8.225  2.7343 -3.9472  1.0183
  789MOL0     H 4124   6.721   9.480   8.155  1.0092  0.1189  0.5623
  789MOL0     H 4125   6.783   9.378   8.025  0.5717  0.4928  0.0748
  789MOL0     H 4126   6.931   9.371   8.225  0.7610 -0.4064  0.8257
  789MOL0     H 4127   6.786   9.308   8.317  1.7361  0.9782  0.8879
  789MOL0     H 4128   6.925   9.158   8.099  0.0505  0.3483 -0.4149
  789MOL0     H 4129   6.797   9.097   8.210  0.5558 -0.4449  1.9923
  789MOL0     H 4130   5.980   9.691   8.180  0.0614  0.3857  1.6416
  789MOL0     H 4131   5.750   9.719   8.265 -1.5907 -0.9766  0.5450
  789MOL0     H 4132   5.367   9.486   8.474  0.5827  1.5474  2.2809
  789MOL0     H 4133   5.140   9.551   8.575 -3.5933 -0.5807 -1.9468
  789MOL0     H 4134   5.493  10.704   8.509 -0.3514 -0.2381 -0.2097
  789MOL0     H 4135   5.728  10.696   8.450  1.1342  1.0158 -0.5527
  789MOL0     H 4136   6.109  10.767   8.366 -1.5422  2.1252  2.0494
  789MOL0     H 4137   6.336  10.759   8.331  0.1036  0.0786 -1.0963
  789MOL0     H 4138   6.607  11.104   8.226 -0.0219 -0.7505 -0.1524
  789MOL0     H 4139   6.513  10.974   8.145 -0.8293  2.1426  0.0277
  789MOL0     H 4140   6.696  10.837   8.308  1.2871  0.8389  1.0815
  789MOL0     H 4141   6.737  10.877   8.146 -1.5900  1.4245 -0.8409
  789MOL0     H 4142   6.790  11.051   8.380 -2.4178 -1.0416 -0.2142
  789MOL0     H 4143   6.831  11.091   8.219 -0.2215  1.9025  2.3580
  789MOL0     H 4144   6.921  10.832   8.369 -0.8427 -1.2863 -1.9871
  789MOL0     H 4145   6.982  10.868   8.206  1.6342  0.8877  0.0562
  789MOL0     H 4146   7.237  11.125   8.413  0.0467  0.1906 -0.6642
  789MOL0     H 4147   6.336  11.190   8.328 -3.2198  1.2669  0.1356
  789MOL0     H 4148   6.105  11.187   8.316  1.1768  0.5218 -2.1827
  790MOL0     O 4149   9.889   1.093   7.998 -0.7691 -0.1329  0.2680
  790MOL0     C 4150   9.901   1.151   8.108 -0.7280  0.5122  1.6592
  790MOL0     O 4151   9.797   1.216   8.169 -0.2918 -0.6035 -0.1552
  790MOL0     C 4152   9.680   1.212   8.105  0.1828  0.1521  0.1325
  790MOL0     C 4153   9.631   1.337   8.047  0.4889  0.3975 -0.3529
  790MOL0     C 4154   9.495   1.327   7.998  0.4216 -0.3160 -0.3257
  790MOL0     C 4155   9.420   1.211   7.989  0.5024 -0.6299  0.2166
  790MOL0     O 4156   9.299   1.183   7.924  0.0647  0.6075  0.1834
  790MOL0     C 4157   9.219   1.296   7.889  0.1578 -0.0011  0.9456
  790MOL0     C 4158   9.085   1.246   7.835 -0.8079  0.1023  0.7486
  790MOL0     C 4159   8.992   1.363   7.828  0.7762 -0.8410  0.0854
  790MOL0     C 4160   8.861   1.321   7.761  0.1029 -0.9706 -0.1718
  790MOL0     C 4161   8.761   1.443   7.743 -0.3700  0.1573  1.1222
  790MOL0     C 4162   8.621   1.394   7.693 -0.5322  0.4558  0.4759
  790MOL0     C 4163   8.522   1.511   7.689 -0.0318  0.5948 -0.8225
  790MOL0     C 4164   8.388   1.473   7.637 -0.1629  0.6391 -0.0565
  790MOL0     N 4165   8.313   1.599   7.603  0.0550  0.8654  0.5169
  790MOL0     C 4166   8.227   1.647   7.693  0.4074  0.4631  0.2686
  790MOL0     C 4167   8.178   1.748   7.620 -0.4925 -0.3189  0.5388
  790MOL0     C 4168   8.090   1.852   7.665  1.0680 -0.0816  0.2881
  790MOL0     C 4169   7.946   1.817   7.637 -0.3965  0.0908 -0.2369
  790MOL0     C 4170   7.897   1.794   7.496 -0.3579  0.0159  0.2612
  790MOL0     C 4171   7.748   1.786   7.487  0.0034 -0.6983 -0.7256
  790MOL0     O 4172   7.690   1.707   7.593 -0.4680  0.2880  0.3076
  790MOL0     C 4173   7.559   1.662   7.585  0.1228 -0.3819 -0.1835
  790MOL0     C 4174   7.483   1.713   7.486 -0.3975 -0.1875 -0.3914
  790MOL0     C 4175   7.355   1.655   7.478 -0.3984  0.1231  0.7488
  790MOL0     C 4176   7.308   1.549   7.555 -0.0145 -0.5174 -0.3174
  790MOL0     C 4177   7.169   1.488   7.541 -0.2637  0.9489 -0.0574
  790MOL0     O 4178   7.122   1.400   7.647  0.3002  1.3271 -0.7045
  790MOL0     C 4179   6.995   1.360   7.650  0.4364 -0.3304 -0.8826
  790MOL0     C 4180   6.931   1.307   7.538 -0.0422  0.1969  0.0977
  790MOL0     C 4181   6.800   1.253   7.538 -0.7121  0.5280  1.3445
  790MOL0     C 4182   6.731   1.257   7.658 -0.3532 -0.1085 -0.9318
  790MOL0     O 4183   6.599   1.220   7.658 -0.3225  0.3339  0.0157
  790MOL0     C 4184   6.560   1.115   7.745  0.8546  0.9632  0.2618
  790MOL0     C 4185   6.419   1.093   7.696 -0.3274 -0.0579  0.2256
  790MOL0     C 4186   6.412   1.031   7.550  0.2057 -1.1420  0.0255
  790MOL0     C 4187   6.460   0.878   7.552  0.5691 -0.9848 -0.0048
  790MOL0     C 4188   6.505   0.834   7.407  1.0424  0.9223 -0.1946
  790MOL0     C 4189   6.645   0.885   7.362  0.3140  0.1466  0.0074
  790MOL0     C 4190   6.762   0.820   7.446 -0.1413 -1.4101  0.9797
  790MOL0     C 4191   6.759   0.675   7.444 -0.1577  0.1237 -0.5103
  790MOL0    Cl 4192   6.803   0.630   7.270 -0.0894 -0.0692  0.1204
  790MOL0     C 4193   6.784   1.318   7.771  0.8551  0.1848  0.6382
  790MOL0     C 4194   6.915   1.365   7.768 -0.5385 -0.4539  0.4312
  790MOL0     O 4195   7.107   1.505   7.437 -0.4473 -0.3287 -0.2625
  790MOL0     C 4196   7.394   1.500   7.650  0.4026  0.9455 -0.5383
  790MOL0     C 4197   7.523   1.552   7.668 -0.5746 -0.0213 -0.2279
  790MOL0     N 4198   8.241   1.757   7.494  0.4630 -0.1438  0.0762
  790MOL0     N 4199   8.328   1.663   7.485  0.2868 -0.6488 -0.3652
  790MOL0     C 4200   9.470   1.106   8.062 -0.8158  0.2876  0.3467
  790MOL0     C 4201   9.602   1.098   8.107  0.0765 -0.9980  0.0770
  790MOL0     C 4202  10.039   1.170   8.164  0.2934 -0.0839 -0.0242
  790MOL0     C 4203  10.058   1.247   8.277 -0.8242 -0.6657  0.4892
  790MOL0     C 4204  10.189   1.260   8.319 -0.0882 -0.5662 -0.2374
  790MOL0     C 4205  10.303   1.197   8.264 -0.4145  0.4890  0.0774
  790MOL0     O 4206  10.432   1.228   8.306  0.8775 -0.7614  0.0011
  790MOL0     C 4207  10.537   1.139   8.271 -0.1354 -0.0438 -0.1242
  790MOL0     C 4208  10.636   1.142   8.393 -1.0442  0.1620 -0.0057
  790MOL0     C 4209  10.579   1.074   8.516 -0.0337  0.6709  0.7550
  790MOL0     C 4210  10.676   1.080   8.633 -0.2618  0.2497  0.0673
  790MOL0     C 4211  10.812   1.023   8.592 -0.6015 -0.4392 -0.0452
  790MOL0     C 4212  10.917   0.976   8.551 -0.8697 -1.2133 -0.1090
  790MOL0     C 4213  10.277   1.119   8.154  0.6868  0.2634  0.4856
  790MOL0     C 4214  10.147   1.104   8.107  0.3073 -0.0272 -0.0251
  790MOL0     H 4215   9.684   1.431   8.062  3.4514 -1.1215 -0.5746
  790MOL0     H 4216   9.451   1.406   7.938  3.1627  0.0240 -2.0468
  790MOL0     H 4217   9.260   1.363   7.813 -0.6212  1.2948  1.6465
  790MOL0     H 4218   9.200   1.353   7.980  1.0502  2.5530 -0.3666
  790MOL0     H 4219   9.032   1.180   7.905  0.9647 -0.3390  1.7398
  790MOL0     H 4220   9.095   1.203   7.735 -1.6499 -1.6424  1.3776
  790MOL0     H 4221   9.046   1.436   7.768  0.3460 -0.0131  0.6837
  790MOL0     H 4222   8.972   1.407   7.926  0.5460 -1.1432  0.1759
  790MOL0     H 4223   8.893   1.273   7.668  0.4961 -0.9541 -0.0475
  790MOL0     H 4224   8.814   1.250   7.829 -2.2241 -1.0515 -1.7696
  790MOL0     H 4225   8.795   1.510   7.663  0.9170 -0.9322  0.7163
  790MOL0     H 4226   8.760   1.495   7.839 -0.5828  0.3544  1.0157
  790MOL0     H 4227   8.584   1.314   7.759  3.2883 -1.7741  0.1778
  790MOL0     H 4228   8.622   1.364   7.588 -1.0003 -0.5923  0.7543
  790MOL0     H 4229   8.507   1.566   7.782  1.6766 -1.7027  0.9312
  790MOL0     H 4230   8.571   1.583   7.622  1.9922  2.1585  2.1232
  790MOL0     H 4231   8.333   1.419   7.714 -1.8938  1.2682 -0.8107
  790MOL0     H 4232   8.399   1.418   7.543  1.0439  2.0078 -0.7604
  790MOL0     H 4233   8.208   1.614   7.794  1.5904 -1.9527 -0.2193
  790MOL0     H 4234   8.120   1.943   7.613  0.6106  0.9725  1.7948
  790MOL0     H 4235   8.105   1.863   7.773  0.7034  0.5171  0.2814
  790MOL0     H 4236   7.892   1.904   7.673  0.7610  0.9322 -0.4539
  790MOL0     H 4237   7.939   1.726   7.697  2.3058 -1.9667 -2.7113
  790MOL0     H 4238   7.925   1.878   7.432 -0.1546 -2.6448 -3.4689
  790MOL0     H 4239   7.949   1.703   7.464  1.9797  0.5498  2.1774
  790MOL0     H 4240   7.716   1.747   7.389  0.5447 -2.8846 -0.1006
  790MOL0     H 4241   7.706   1.886   7.500 -1.4687 -1.3398 -0.2947
  790MOL0     H 4242   7.498   1.805   7.430 -2.2369 -0.0087 -0.6692
  790MOL0     H 4243   7.296   1.699   7.398 -0.6541  0.1691  0.9610
  790MOL0     H 4244   6.989   1.290   7.447  1.8761 -1.8188  1.5847
  790MOL0     H 4245   6.762   1.200   7.451 -3.2665 -1.2031  3.3748
  790MOL0     H 4246   6.549   1.152   7.847 -1.0584  0.1136  0.4013
  790MOL0     H 4247   6.621   1.024   7.750  0.2702  0.6372  3.4141
  790MOL0     H 4248   6.358   1.183   7.693 -1.9254 -1.0600 -3.1931
  790MOL0     H 4249   6.360   1.020   7.753 -0.3212 -1.2543 -1.2377
  790MOL0     H 4250   6.480   1.090   7.488  1.0947 -1.8843  0.2815
  790MOL0     H 4251   6.307   1.044   7.522  0.8626  2.5271 -1.2784
  790MOL0     H 4252   6.544   0.867   7.621 -0.4054  0.7282  1.5690
  790MOL0     H 4253   6.387   0.806   7.591  0.0917  0.3330  1.6898
  790MOL0     H 4254   6.420   0.852   7.341  0.2076 -0.6400  0.3866
  790MOL0     H 4255   6.498   0.724   7.405 -1.4401  1.0162 -0.1858
  790MOL0     H 4256   6.661   0.991   7.383 -0.5406 -0.1113  2.2624
  790MOL0     H 4257   6.651   0.860   7.256 -0.2145  1.0002 -0.2372
  790MOL0     H 4258   6.857   0.855   7.403 -1.5916  0.4700 -0.8669
  790MOL0     H 4259   6.769   0.858   7.548  2.4886 -1.4789  0.9082
  790MOL0     H 4260   6.664   0.630   7.473  1.4462 -4.1630 -1.1999
  790MOL0     H 4261   6.822   0.635   7.524 -2.1519  1.2864  1.7690
  790MOL0     H 4262   6.731   1.317   7.865 -0.4201 -1.6704 -0.0432
  790MOL0     H 4263   6.963   1.396   7.861  1.6292  1.5487 -1.2355
  790MOL0     H 4264   7.366   1.421   7.720  2.9560  1.5536  1.3255
  790MOL0     H 4265   7.576   1.536   7.761  0.3117  2.1303 -0.3109
  790MOL0     H 4266   9.409   1.017   8.046 -1.0596  0.5471 -0.1917
  790MOL0     H 4267   9.630   0.995   8.128  0.7137 -0.4599  2.1015
  790MOL0     H 4268   9.978   1.301   8.327  0.0940  2.0189 -0.7481
  790MOL0     H 4269  10.218   1.333   8.394 -0.4247 -0.2634 -0.3985
  790MOL0     H 4270  10.578   1.168   8.173 -0.7157 -0.8390 -0.6057
  790MOL0     H 4271  10.504   1.036   8.259  1.5254 -0.5217 -0.9173
  790MOL0     H 4272  10.725   1.085   8.365  0.3086  2.7371 -1.2259
  790MOL0     H 4273  10.666   1.246   8.406 -1.2422  0.1134  0.9136
  790MOL0     H 4274  10.555   0.970   8.490  3.7338 -0.1286 -0.2141
  790MOL0     H 4275  10.493   1.129   8.555  2.0306  2.9881  2.3118
  790MOL0     H 4276  10.700   1.180   8.668  3.1638  0.2780 -1.8434
  790MOL0     H 4277  10.652   1.006   8.709  2.7929 -2.4645 -1.3319
  790MOL0     H 4278  11.004   0.919   8.526  0.3422  0.6842 -0.3719
  790MOL0     H 4279  10.361   1.075   8.100  1.2818  0.6581  1.0766
  790MOL0     H 4280  10.123   1.045   8.019  0.2716  0.9836 -0.7038
  791MOL0     O 4281   3.322  10.118   2.971 -0.0271 -0.0703 -0.6374
  791MOL0     C 4282   3.386  10.037   2.907 -0.6340  1.0964  0.2642
  791MOL0     O 4283   3.337   9.932   2.832  0.1029  1.0808 -0.1774
  791MOL0     C 4284   3.211   9.949   2.791 -1.0673  0.1828 -0.0820
  791MOL0     C 4285   3.175  10.054   2.708 -0.4137 -0.0448 -0.9823
  791MOL0     C 4286   3.042  10.082   2.668 -0.4887  0.7989  0.0804
  791MOL0     C 4287   2.945   9.986   2.700  0.2818 -0.1824 -0.1917
  791MOL0     O 4288   2.812  10.004   2.667 -0.5321 -0.1130 -0.0038
  791MOL0     C 4289   2.745   9.881   2.613 -0.5274 -0.2449 -0.2582
  791MOL0     C 4290   2.610   9.842   2.673 -0.5831 -1.4397  0.7792
  791MOL0     C 4291   2.540   9.748   2.578 -0.3789  1.3417 -0.0194
  791MOL0     C 4292   2.404   9.711   2.641 -0.1423 -0.7749  0.4456
  791MOL0     C 4293   2.302   9.616   2.563 -0.0059  0.2448 -0.0090
  791MOL0     C 4294   2.327   9.471   2.610 -0.3125  0.3364 -0.0014
  791MOL0     C 4295   2.468   9.427   2.603  0.0332 -0.1072 -0.3025
  791MOL0     C 4296   2.469   9.273   2.617 -0.1707 -0.1403  0.1456
  791MOL0     N 4297   2.601   9.210   2.609 -0.4537  0.3551 -0.1621
  791MOL0     C 4298   2.700   9.186   2.707  0.8973  0.5281 -0.9131
  791MOL0     C 4299   2.803   9.123   2.652  0.4173  0.4599  0.3123
  791MOL0     C 4300   2.934   9.070   2.705  0.1179 -0.5986 -0.1695
  791MOL0     C 4301   3.050   9.165   2.664  0.4084  0.5941 -0.3201
  791MOL0     C 4302   3.190   9.105   2.707 -0.0048 -0.3293 -0.2117
  791MOL0     C 4303   3.304   9.193   2.659  0.6319 -0.0348  0.0159
  791MOL0     O 4304   3.408   9.184   2.744 -0.5902  0.0058 -0.0626
  791MOL0     C 4305   3.523   9.257   2.722  0.2242 -0.1865 -0.4955
  791MOL0     C 4306   3.601   9.278   2.835 -0.9746  0.1175 -0.6716
  791MOL0     C 4307   3.722   9.347   2.825  0.6954 -0.0264  0.4954
  791MOL0     C 4308   3.754   9.410   2.711 -0.6342 -0.5985  0.5010
  791MOL0     C 4309   3.878   9.496   2.701 -0.6957  0.1700 -1.1965
  791MOL0     O 4310   3.905   9.545   2.577 -0.3026 -1.2686 -0.4245
  791MOL0     C 4311   4.028   9.590   2.543  0.1641  0.3033 -0.0293
  791MOL0     C 4312   4.072   9.572   2.410  1.1709 -0.8397 -0.5681
  791MOL0     C 4313   4.203   9.605   2.373 -0.2245  0.9909 -0.5783
  791MOL0     C 4314   4.295   9.665   2.459 -0.2413 -0.0125 -0.4991
  791MOL0     O 4315   4.420   9.707   2.432 -0.2697 -0.3042  0.0049
  791MOL0     C 4316   4.457   9.726   2.291 -0.2632  0.2483 -0.5108
  791MOL0     C 4317   4.581   9.799   2.310  0.4164 -0.0051 -0.5892
  791MOL0     C 4318   4.656   9.822   2.179  0.3437 -0.2867  0.5266
  791MOL0     C 4319   4.785   9.892   2.216 -0.3062 -0.2798  0.0408
  791MOL0     C 4320   4.877   9.892   2.090 -0.0449 -0.6009  1.4877
  791MOL0     C 4321   4.838   9.990   1.972  1.0900  0.8815 -0.0664
  791MOL0     C 4322   4.929   9.982   1.849  0.1876 -0.0412  0.7377
  791MOL0     C 4323   5.079   9.990   1.878  0.3069 -0.4780 -0.1742
  791MOL0    Cl 4324   5.120  10.137   1.964  0.2510 -0.0168  0.2564
  791MOL0     C 4325   4.246   9.700   2.586 -0.7365  0.0849  0.0590
  791MOL0     C 4326   4.116   9.672   2.623  0.5686  0.2243  0.7799
  791MOL0     O 4327   3.953   9.508   2.800  0.4206 -0.0535  0.2324
  791MOL0     C 4328   3.677   9.388   2.592 -0.5226  0.7678 -1.0100
  791MOL0     C 4329   3.560   9.322   2.601  0.6484 -0.1146 -0.0468
  791MOL0     N 4330   2.773   9.123   2.515  0.2049 -0.2639  0.4184
  791MOL0     N 4331   2.648   9.159   2.494 -0.1455  0.1941 -0.3126
  791MOL0     C 4332   2.983   9.876   2.786  0.5938 -0.6911  0.1077
  791MOL0     C 4333   3.113   9.862   2.827  0.0995  0.1438  0.0484
  791MOL0     C 4334   3.537  10.048   2.917 -0.2008 -0.6901  0.6143
  791MOL0     C 4335   3.601  10.155   2.988  0.1031  0.2659  0.1241
  791MOL0     C 4336   3.745  10.156   2.991  0.2833 -0.7712  0.2702
  791MOL0     C 4337   3.823  10.052   2.940  0.2018 -0.6047 -0.9312
  791MOL0     O 4338   3.955  10.062   2.977 -0.2253  0.5662  0.3435
  791MOL0     C 4339   4.028   9.934   2.961  0.5918 -0.4490 -0.3962
  791MOL0     C 4340   4.168   9.962   3.002  0.8712  0.7432  0.6042
  791MOL0     C 4341   4.236  10.066   2.910  0.3388  0.4266 -0.1698
  791MOL0     C 4342   4.391  10.050   2.937 -0.1650 -0.6544  0.0960
  791MOL0     C 4343   4.443   9.931   2.868 -0.2287  0.6019 -1.1456
  791MOL0     C 4344   4.493   9.824   2.847  0.4783 -0.4015  0.5565
  791MOL0     C 4345   3.764   9.951   2.871  0.5968  0.0700 -0.2562
  791MOL0     C 4346   3.623   9.949   2.853 -0.6479 -0.3575 -0.7079
  791MOL0     H 4347   3.245  10.136   2.695 -2.1590  1.4178 -1.4753
  791MOL0     H 4348   3.009  10.169   2.612 -0.7869  0.0379 -0.9636
  791MOL0     H 4349   2.816   9.799   2.628 -0.8287 -0.0671  2.7916
  791MOL0     H 4350   2.735   9.899   2.506 -1.6708 -2.8842 -0.6808
  791MOL0     H 4351   2.552   9.933   2.691  2.6317  0.6183  1.5667
  791MOL0     H 4352   2.638   9.793   2.767  1.6247 -1.5625  0.1167
  791MOL0     H 4353   2.601   9.658   2.566  0.1313  1.4463  1.5947
  791MOL0     H 4354   2.540   9.786   2.475  1.0347 -0.6659 -0.8389
  791MOL0     H 4355   2.433   9.678   2.741 -1.2066  0.1095  1.0703
  791MOL0     H 4356   2.350   9.806   2.653  0.3599  0.1379 -3.3877
  791MOL0     H 4357   2.312   9.624   2.454  0.0102  1.4086  0.0589
  791MOL0     H 4358   2.202   9.652   2.589  0.1683  2.5158 -2.1115
  791MOL0     H 4359   2.268   9.401   2.550  2.1720 -2.8255  1.0003
  791MOL0     H 4360   2.288   9.443   2.708 -1.0865 -1.7734 -0.8402
  791MOL0     H 4361   2.532   9.452   2.518 -1.6788 -1.6082 -2.1367
  791MOL0     H 4362   2.518   9.463   2.693 -0.9022  0.2369  0.0923
  791MOL0     H 4363   2.411   9.227   2.537 -2.8259  1.2106  1.1517
  791MOL0     H 4364   2.419   9.237   2.707 -1.0094 -1.1919 -0.7206
  791MOL0     H 4365   2.698   9.206   2.814  0.3004 -1.3636 -0.5402
  791MOL0     H 4366   2.951   8.970   2.664 -0.8694 -1.1803  0.7825
  791MOL0     H 4367   2.935   9.063   2.814 -2.1328  0.8579  0.0076
  791MOL0     H 4368   3.040   9.261   2.715  1.3093  0.5927 -0.1325
  791MOL0     H 4369   3.037   9.190   2.558  0.3009  0.0115 -0.4481
  791MOL0     H 4370   3.190   9.102   2.816  0.0521  2.7834 -0.0392
  791MOL0     H 4371   3.212   9.003   2.673 -0.4221 -0.3546 -0.4087
  791MOL0     H 4372   3.285   9.301   2.655  0.4432 -0.1018 -1.5232
  791MOL0     H 4373   3.342   9.153   2.565  0.3993 -1.2107  0.4063
  791MOL0     H 4374   3.563   9.228   2.923 -0.4126 -3.6920 -2.3925
  791MOL0     H 4375   3.786   9.357   2.912 -0.1859 -0.8480  1.2582
  791MOL0     H 4376   4.015   9.507   2.344  2.0844 -0.7334 -1.4864
  791MOL0     H 4377   4.232   9.583   2.271 -1.6097  0.5954 -0.9010
  791MOL0     H 4378   4.385   9.790   2.240 -0.9795  1.6437  2.0895
  791MOL0     H 4379   4.464   9.630   2.238 -2.6708  0.0212 -0.5027
  791MOL0     H 4380   4.639   9.740   2.381 -0.5924  1.9475  2.0332
  791MOL0     H 4381   4.554   9.893   2.360 -1.1026 -0.9203  0.3757
  791MOL0     H 4382   4.596   9.883   2.111  1.9716  2.5465  1.4725
  791MOL0     H 4383   4.662   9.731   2.119 -0.7623  0.7607 -1.2433
  791MOL0     H 4384   4.767   9.990   2.262  2.9469  0.6752 -0.4595
  791MOL0     H 4385   4.836   9.831   2.291  1.4470  1.1291  0.0615
  791MOL0     H 4386   4.890   9.789   2.053  0.0353 -0.1642  0.2542
  791MOL0     H 4387   4.976   9.926   2.122  0.0569  1.3118 -0.6695
  791MOL0     H 4388   4.834  10.094   2.004  4.0664  0.8064  0.8564
  791MOL0     H 4389   4.741   9.972   1.925  0.3789  0.1256  1.6184
  791MOL0     H 4390   4.903   9.895   1.788 -0.3781 -0.3573  1.4126
  791MOL0     H 4391   4.908  10.060   1.775  1.3527 -0.6935 -0.3226
  791MOL0     H 4392   5.135   9.989   1.784 -2.5680  3.7274 -2.2540
  791MOL0     H 4393   5.103   9.905   1.943  2.3833  0.6116  0.6022
  791MOL0     H 4394   4.303   9.763   2.654 -1.2686  0.6397  0.0095
  791MOL0     H 4395   4.088   9.708   2.722 -1.6231 -0.8444  0.6268
  791MOL0     H 4396   3.699   9.435   2.497 -1.7314  1.3091 -1.0408
  791MOL0     H 4397   3.515   9.314   2.503 -1.3502 -0.4670  0.8548
  791MOL0     H 4398   2.900   9.817   2.824  0.4716 -0.4063  0.2923
  791MOL0     H 4399   3.137   9.794   2.908  0.0333  1.6848  1.4078
  791MOL0     H 4400   3.541  10.227   3.041 -1.2368  1.2840 -2.6010
  791MOL0     H 4401   3.785  10.229   3.060 -1.1782  0.3148  0.0083
  791MOL0     H 4402   4.029   9.891   2.860 -3.1989 -1.5727 -0.0857
  791MOL0     H 4403   3.987   9.860   3.029 -0.5971  1.4780  1.0819
  791MOL0     H 4404   4.165  10.004   3.103 -0.1713 -1.0685  1.3889
  791MOL0     H 4405   4.217   9.864   3.003 -1.2204 -0.4318 -1.4515
  791MOL0     H 4406   4.201  10.163   2.947  0.7561  1.7114 -2.8316
  791MOL0     H 4407   4.206  10.053   2.806 -0.6956 -0.4497  0.2283
  791MOL0     H 4408   4.444  10.139   2.902  1.6258 -0.2852  3.3493
  791MOL0     H 4409   4.410  10.042   3.044  1.9363 -0.0533 -0.1785
  791MOL0     H 4410   4.538   9.730   2.823  0.7119  0.1695 -1.4060
  791MOL0     H 4411   3.826   9.877   2.821  0.6909 -0.2069  0.2593
  791MOL0     H 4412   3.585   9.875   2.784  0.6911 -1.7613  0.0124
  792MOL0     O 4413   5.720   6.411   3.710 -0.2137 -0.3081  0.0336
  792MOL0     C 4414   5.757   6.347   3.800 -0.6651 -0.1166  0.5299
  792MOL0     O 4415   5.681   6.308   3.902  0.5022 -0.1727  0.0558
  792MOL0     C 4416   5.550   6.344   3.917 -0.2494  0.0066 -0.1940
  792MOL0     C 4417   5.454   6.384   3.820  0.2607  0.0126 -0.5186
  792MOL0     C 4418   5.325   6.424   3.865 -0.5177  0.9370  0.0551
  792MOL0     C 4419   5.294   6.415   3.997  0.5526 -0.3442  0.0357
  792MOL0     O 4420   5.182   6.453   4.066  0.2074  1.1157 -0.4891
  792MOL0     C 4421   5.104   6.560   4.015 -1.0840  0.9248 -0.3016
  792MOL0     C 4422   4.982   6.479   3.965 -0.1933 -0.4876  0.9468
  792MOL0     C 4423   4.865   6.564   3.926  0.1990 -0.4087 -0.9748
  792MOL0     C 4424   4.747   6.475   3.887  0.1295  0.1610 -0.0267
  792MOL0     C 4425   4.611   6.552   3.847 -1.0045  0.5907  0.4778
  792MOL0     C 4426   4.505   6.444   3.825 -0.8381 -0.0988 -0.3313
  792MOL0     C 4427   4.373   6.493   3.769  0.7514 -0.2953 -0.0970
  792MOL0     C 4428   4.297   6.574   3.870 -0.9400  0.1728 -0.6782
  792MOL0     N 4429   4.204   6.661   3.794 -0.7900 -0.1980  0.2262
  792MOL0     C 4430   4.228   6.787   3.740 -0.5068 -0.1848  0.2987
  792MOL0     C 4431   4.109   6.830   3.684  0.2052 -0.1116 -0.4517
  792MOL0     C 4432   4.088   6.969   3.627  0.0171 -0.5204 -0.3014
  792MOL0     C 4433   4.089   7.075   3.745 -0.3724  0.0821 -0.4475
  792MOL0     C 4434   3.961   7.072   3.835  0.0527 -0.7637 -0.4578
  792MOL0     C 4435   3.820   7.089   3.772  0.1577  0.1932 -0.9509
  792MOL0     O 4436   3.728   7.138   3.876 -0.2736  0.1929  0.3316
  792MOL0     C 4437   3.592   7.160   3.861  0.6062 -0.3170 -0.2570
  792MOL0     C 4438   3.536   7.253   3.950 -0.5725 -0.1448  0.0799
  792MOL0     C 4439   3.406   7.287   3.931  0.3865  0.2743 -0.6064
  792MOL0     C 4440   3.330   7.237   3.828 -0.5829 -0.7101 -0.2895
  792MOL0     C 4441   3.187   7.275   3.808  0.1561 -0.3876  0.0776
  792MOL0     O 4442   3.129   7.360   3.901 -0.3030 -0.4328  0.7394
  792MOL0     C 4443   3.005   7.421   3.896 -0.4137  0.2250  1.2179
  792MOL0     C 4444   2.897   7.402   3.802 -0.0125  0.2960 -0.5648
  792MOL0     C 4445   2.770   7.459   3.821 -0.2200 -0.0885  0.3317
  792MOL0     C 4446   2.748   7.551   3.932  0.1963 -0.0245 -0.6322
  792MOL0     O 4447   2.626   7.614   3.958  0.6037  0.5521 -0.6243
  792MOL0     C 4448   2.545   7.644   3.844 -0.8056 -0.2621 -0.2118
  792MOL0     C 4449   2.460   7.779   3.867 -0.0803 -0.1671 -0.3182
  792MOL0     C 4450   2.366   7.771   3.993 -0.3097 -0.3411  0.3498
  792MOL0     C 4451   2.247   7.673   3.969  0.1469  0.0195  0.3787
  792MOL0     C 4452   2.161   7.672   4.094 -0.5536 -1.1744  0.3282
  792MOL0     C 4453   2.016   7.647   4.061  0.6603  0.5728 -0.0456
  792MOL0     C 4454   1.978   7.513   3.989 -0.8753  0.0902 -0.8134
  792MOL0     C 4455   1.986   7.391   4.087  0.2257 -0.3617  0.5038
  792MOL0    Cl 4456   1.869   7.402   4.215 -0.1682 -0.0901 -0.1098
  792MOL0     C 4457   2.855   7.565   4.021  0.1735  0.1797  0.5696
  792MOL0     C 4458   2.981   7.510   4.001 -0.1692  0.5697 -0.6828
  792MOL0     O 4459   3.140   7.240   3.700  0.3385 -0.6955 -0.1914
  792MOL0     C 4460   3.391   7.153   3.733  0.1240 -0.1880  0.0806
  792MOL0     C 4461   3.526   7.114   3.750 -0.0246 -0.3814  0.6511
  792MOL0     N 4462   4.022   6.723   3.683  0.4948  0.2005 -0.4660
  792MOL0     N 4463   4.078   6.637   3.757 -0.5538  0.7444 -0.8744
  792MOL0     C 4464   5.384   6.367   4.088  0.5225 -0.4985 -0.7384
  792MOL0     C 4465   5.511   6.329   4.049  0.2244 -0.0517  0.1813
  792MOL0     C 4466   5.897   6.318   3.808 -0.1236  1.6024  0.9964
  792MOL0     C 4467   5.958   6.273   3.926  0.7238  0.7200  0.8541
  792MOL0     C 4468   6.086   6.230   3.915  0.4966  0.6858 -0.0079
  792MOL0     C 4469   6.161   6.226   3.800  0.1358 -0.6375  0.3816
  792MOL0     O 4470   6.298   6.199   3.785 -0.2566  0.4656 -0.1216
  792MOL0     C 4471   6.380   6.288   3.856  0.6112 -0.0654 -0.4723
  792MOL0     C 4472   6.529   6.289   3.819 -0.3298 -0.0614  0.3941
  792MOL0     C 4473   6.571   6.376   3.698 -0.0668  0.8376 -0.3813
  792MOL0     C 4474   6.493   6.336   3.568 -0.8003  1.1666 -0.4360
  792MOL0     C 4475   6.592   6.355   3.459  0.4714 -0.3453 -0.5926
  792MOL0     C 4476   6.664   6.358   3.363 -0.0155  0.9781  0.2266
  792MOL0     C 4477   6.093   6.265   3.683 -0.1002  0.4922  0.3665
  792MOL0     C 4478   5.966   6.308   3.693 -0.6289 -0.1642 -0.3479
  792MOL0     H 4479   5.478   6.398   3.716 -0.1980  2.4869 -0.3542
  792MOL0     H 4480   5.260   6.480   3.798 -1.8744  0.9832  1.3510
  792MOL0     H 4481   5.157   6.606   3.931  1.0914 -4.1053 -2.0775
  792MOL0     H 4482   5.084   6.631   4.096 -0.7674  2.2099 -1.3100
  792MOL0     H 4483   4.948   6.405   4.038 -0.8732 -0.9988  0.1464
  792MOL0     H 4484   5.012   6.427   3.873 -0.9329  2.4407 -1.0802
  792MOL0     H 4485   4.894   6.630   3.843 -0.1633  1.5409  0.3877
  792MOL0     H 4486   4.843   6.634   4.007  1.1743 -1.5363  0.3132
  792MOL0     H 4487   4.791   6.428   3.799  0.1828 -0.2726  0.2306
  792MOL0     H 4488   4.728   6.393   3.957 -1.6919 -0.0470 -0.7092
  792MOL0     H 4489   4.638   6.617   3.764 -1.4826  3.3580  2.3592
  792MOL0     H 4490   4.575   6.617   3.927  1.6271  0.1710  2.1281
  792MOL0     H 4491   4.502   6.390   3.920  3.2408 -1.1553 -0.6416
  792MOL0     H 4492   4.539   6.374   3.748  1.6236 -1.6249  1.9763
  792MOL0     H 4493   4.392   6.548   3.677  1.6842 -2.9634 -1.6327
  792MOL0     H 4494   4.316   6.401   3.749  0.1011  0.3868 -1.5422
  792MOL0     H 4495   4.365   6.634   3.932 -0.2172 -0.0034 -1.2844
  792MOL0     H 4496   4.237   6.503   3.927 -0.3848  0.9684  0.9762
  792MOL0     H 4497   4.322   6.837   3.759 -1.1384  1.4327 -0.6230
  792MOL0     H 4498   3.992   6.982   3.578  0.2219 -0.2706 -0.6436
  792MOL0     H 4499   4.171   6.979   3.556  2.3668  0.0176  2.3271
  792MOL0     H 4500   4.103   7.175   3.702 -2.8905  1.0672  0.8430
  792MOL0     H 4501   4.181   7.053   3.799 -1.0194  2.6050  1.8870
  792MOL0     H 4502   3.962   6.984   3.901 -1.9680  1.4642  2.7955
  792MOL0     H 4503   3.975   7.163   3.894 -1.6196  0.5061 -1.9341
  792MOL0     H 4504   3.798   6.989   3.733 -2.1505 -0.2846  1.2814
  792MOL0     H 4505   3.835   7.169   3.700  2.3602 -0.1376 -0.9091
  792MOL0     H 4506   3.591   7.296   4.033 -0.4070 -0.4912  0.1526
  792MOL0     H 4507   3.353   7.356   3.997  0.9271 -2.7466  3.3642
  792MOL0     H 4508   2.911   7.329   3.723  3.4059 -1.6985  1.5947
  792MOL0     H 4509   2.696   7.441   3.743 -0.1736  2.4512 -0.3784
  792MOL0     H 4510   2.488   7.553   3.824  1.0296 -1.5020 -0.0935
  792MOL0     H 4511   2.610   7.660   3.758 -0.2189 -0.0856  0.2552
  792MOL0     H 4512   2.409   7.794   3.771 -1.0251 -1.3192 -0.0121
  792MOL0     H 4513   2.538   7.853   3.888  0.9583 -1.2959 -0.0660
  792MOL0     H 4514   2.321   7.870   4.006 -1.4177 -0.5563 -1.4294
  792MOL0     H 4515   2.422   7.754   4.085  1.0542  0.2024 -0.3619
  792MOL0     H 4516   2.183   7.713   3.890 -2.7645  2.7620  3.7373
  792MOL0     H 4517   2.288   7.573   3.956  0.5587  0.0193  1.5366
  792MOL0     H 4518   2.158   7.767   4.147  2.3692  0.7960 -2.5981
  792MOL0     H 4519   2.199   7.588   4.153  0.9324 -1.6036 -1.1299
  792MOL0     H 4520   1.980   7.729   3.998 -1.8482 -0.4291 -0.0273
  792MOL0     H 4521   1.955   7.648   4.152 -3.2848 -1.1734 -2.4243
  792MOL0     H 4522   1.873   7.515   3.958 -1.1457 -0.7195 -0.0116
  792MOL0     H 4523   2.035   7.505   3.897 -1.3197  0.5792 -1.1368
  792MOL0     H 4524   2.091   7.374   4.116  0.1555  0.4250  1.2627
  792MOL0     H 4525   1.960   7.309   4.019 -0.6464  0.9970 -0.8623
  792MOL0     H 4526   2.841   7.636   4.102  2.4846  0.9291  0.3711
  792MOL0     H 4527   3.064   7.527   4.069 -0.1881 -0.1189 -0.4836
  792MOL0     H 4528   3.341   7.122   3.642  1.3749 -1.3575 -0.2426
  792MOL0     H 4529   3.564   7.047   3.674 -1.2654  1.4270 -1.7004
  792MOL0     H 4530   5.364   6.357   4.194 -0.1150  1.7148 -0.6104
  792MOL0     H 4531   5.588   6.304   4.121  2.6290  0.1191 -2.2271
  792MOL0     H 4532   5.903   6.265   4.019 -0.7043  1.3644  0.0997
  792MOL0     H 4533   6.139   6.185   3.998  2.7691 -1.5305 -2.4731
  792MOL0     H 4534   6.376   6.261   3.962  0.3121 -2.2248 -0.9903
  792MOL0     H 4535   6.343   6.389   3.841  2.5882  1.0617  1.6000
  792MOL0     H 4536   6.582   6.329   3.906 -1.2722  0.2807  0.8197
  792MOL0     H 4537   6.560   6.185   3.804 -1.1636 -0.8385  3.4075
  792MOL0     H 4538   6.680   6.370   3.689 -0.0687 -2.0198  0.5925
  792MOL0     H 4539   6.550   6.479   3.730  3.4563  1.9540 -1.1982
  792MOL0     H 4540   6.454   6.234   3.575 -0.6094  0.9241 -2.3550
  792MOL0     H 4541   6.404   6.400   3.557 -3.4455 -1.9450  1.0358
  792MOL0     H 4542   6.721   6.360   3.272 -1.8260  1.6836 -0.9449
  792MOL0     H 4543   6.144   6.252   3.588  2.9243  0.6964  1.8462
  792MOL0     H 4544   5.932   6.342   3.595  3.7383  0.1123 -1.9879
  793MOL0     O 4545   2.831   1.594   9.462 -0.6195  0.0378 -0.0452
  793MOL0     C 4546   2.867   1.697   9.525  0.2625  0.5640  0.0485
  793MOL0     O 4547   2.783   1.759   9.610  0.9060  0.6467  0.3721
  793MOL0     C 4548   2.650   1.733   9.623  0.7610  0.7145 -0.1314
  793MOL0     C 4549   2.569   1.696   9.519  0.8283 -1.2420  0.4095
  793MOL0     C 4550   2.437   1.657   9.544 -0.9212  0.7608  0.4428
  793MOL0     C 4551   2.383   1.670   9.675 -0.5798 -0.8267  0.1117
  793MOL0     O 4552   2.250   1.647   9.693  0.2885  0.3038 -0.1085
  793MOL0     C 4553   2.194   1.594   9.815 -1.0451  0.1473 -0.2326
  793MOL0     C 4554   2.065   1.668   9.846 -1.1530  0.1130  0.4164
  793MOL0     C 4555   1.958   1.639   9.735  0.3628 -0.0609  1.5574
  793MOL0     C 4556   1.851   1.750   9.737  0.1779  0.2412  0.7394
  793MOL0     C 4557   1.727   1.724   9.641 -0.3441  0.3056 -1.0400
  793MOL0     C 4558   1.639   1.613   9.702  0.6831 -0.4894  0.3693
  793MOL0     C 4559   1.488   1.638   9.695  0.4028 -0.5378 -0.0840
  793MOL0     C 4560   1.425   1.548   9.583 -0.9028  0.2693  0.2375
  793MOL0     N 4561   1.281   1.532   9.614  0.8324  0.0258  0.0616
  793MOL0     C 4562   1.226   1.422   9.677 -0.0207  0.3962 -0.1870
  793MOL0     C 4563   1.088   1.435   9.673  0.5439  0.4464 -0.2753
  793MOL0     C 4564   0.976   1.341   9.732 -0.2248 -0.3369  0.1142
  793MOL0     C 4565   0.901   1.258   9.628 -0.4844  0.9581 -0.3481
  793MOL0     C 4566   0.807   1.169   9.706 -0.5699 -0.8866 -0.7861
  793MOL0     C 4567   0.715   1.096   9.610 -0.2843  0.8909 -0.1657
  793MOL0     O 4568   0.604   1.176   9.573  0.6287  0.0944  0.0763
  793MOL0     C 4569   0.481   1.166   9.633 -0.1894  0.4239 -0.0238
  793MOL0     C 4570   0.438   1.272   9.700  0.7806 -0.5398 -0.5488
  793MOL0     C 4571   0.314   1.269   9.763 -0.3507  0.1029  0.7172
  793MOL0     C 4572   0.236   1.149   9.770  0.3409 -1.1674 -0.2075
  793MOL0     C 4573   0.098   1.141   9.835  0.0078 -0.5736 -0.2711
  793MOL0     O 4574   0.012   1.049   9.785 -0.1677  0.0729 -0.0277
  793MOL0     C 4575  -0.104   1.014   9.841 -0.3566 -0.2545 -0.0335
  793MOL0     C 4576  -0.164   0.892   9.798 -0.5471 -0.3600 -0.1007
  793MOL0     C 4577  -0.292   0.857   9.840  0.0114  0.1173  0.8978
  793MOL0     C 4578  -0.367   0.941   9.930 -0.2801  0.1275 -0.1499
  793MOL0     O 4579  -0.498   0.895   9.959  0.2078 -0.1161 -0.0093
  793MOL0     C 4580  -0.574   0.970  10.054  0.1418  0.0259 -0.4407
  793MOL0     C 4581  -0.660   0.874  10.135 -0.8062  0.1836 -0.0801
  793MOL0     C 4582  -0.772   0.796  10.053  0.2671 -0.5257  0.2357
  793MOL0     C 4583  -0.844   0.695  10.140  0.5292 -0.2806 -0.1473
  793MOL0     C 4584  -0.983   0.654  10.083 -0.3149 -0.0183 -0.6691
  793MOL0     C 4585  -1.077   0.763  10.042 -0.0025 -0.0018  0.4057
  793MOL0     C 4586  -1.214   0.707   9.999 -0.1409 -0.5072 -0.7018
  793MOL0     C 4587  -1.293   0.828   9.935 -0.2981 -0.0376 -0.4921
  793MOL0    Cl 4588  -1.470   0.798   9.899 -0.0794 -0.0785 -0.2944
  793MOL0     C 4589  -0.305   1.060   9.970  0.9631  0.7726 -0.5331
  793MOL0     C 4590  -0.176   1.095   9.934 -0.1098  0.6156 -0.1607
  793MOL0     O 4591   0.065   1.235   9.898 -0.6788  0.4253 -0.5051
  793MOL0     C 4592   0.292   1.027   9.710 -0.0119 -0.9931 -0.1671
  793MOL0     C 4593   0.416   1.041   9.647  0.2130 -0.3007  0.1444
  793MOL0     N 4594   1.064   1.550   9.603 -0.1985  1.1224 -0.5228
  793MOL0     N 4595   1.174   1.602   9.570  0.2321  0.1497  0.3780
  793MOL0     C 4596   2.474   1.706   9.779 -0.0599  0.2887 -0.0093
  793MOL0     C 4597   2.603   1.737   9.755  0.4863 -0.3606  0.2165
  793MOL0     C 4598   3.006   1.759   9.502  0.5437  0.4182 -0.0113
  793MOL0     C 4599   3.094   1.719   9.395  0.9312 -0.4112 -0.0371
  793MOL0     C 4600   3.227   1.751   9.383  0.0660 -0.4881  0.8591
  793MOL0     C 4601   3.280   1.837   9.483  0.8074 -0.0791  0.6728
  793MOL0     O 4602   3.411   1.885   9.479 -0.8081  0.0913 -0.1711
  793MOL0     C 4603   3.514   1.794   9.428 -0.5618 -0.4967  0.5634
  793MOL0     C 4604   3.579   1.860   9.298 -1.0402  0.6888  0.1802
  793MOL0     C 4605   3.623   1.742   9.196  0.3552 -0.8018  0.7669
  793MOL0     C 4606   3.710   1.627   9.253  0.2504  0.2785  0.1138
  793MOL0     C 4607   3.836   1.690   9.300  0.3866 -0.0946  0.6872
  793MOL0     C 4608   3.923   1.766   9.328 -0.3856 -0.7980  0.3117
  793MOL0     C 4609   3.197   1.886   9.582  0.4373 -0.3287  0.0548
  793MOL0     C 4610   3.060   1.846   9.601  0.0415 -0.4952 -0.4607
  793MOL0     H 4611   2.611   1.676   9.421 -0.9774 -2.0888 -0.2216
  793MOL0     H 4612   2.382   1.618   9.459  0.9004 -0.2368 -0.3340
  793MOL0     H 4613   2.252   1.615   9.906 -3.1974  2.4970  0.7262
  793MOL0     H 4614   2.184   1.486   9.805  0.6866 -0.0064 -0.5073
  793MOL0     H 4615   2.081   1.776   9.842 -0.0208 -0.0028  1.3930
  793MOL0     H 4616   2.035   1.636   9.946  1.2953 -3.0522  0.2938
  793MOL0     H 4617   1.910   1.541   9.741  0.7421 -0.6137 -1.9933
  793MOL0     H 4618   2.012   1.654   9.641 -1.3746  1.4115  0.7250
  793MOL0     H 4619   1.819   1.745   9.842 -0.4341 -0.0612  0.5454
  793MOL0     H 4620   1.903   1.842   9.710 -1.0301  0.4767 -0.9203
  793MOL0     H 4621   1.762   1.695   9.542  0.4548  0.9588 -0.9545
  793MOL0     H 4622   1.670   1.816   9.627 -2.4953 -0.6824  0.4576
  793MOL0     H 4623   1.665   1.598   9.807 -1.9766 -0.9968  1.0253
  793MOL0     H 4624   1.662   1.517   9.653  2.3202  2.0794 -4.5840
  793MOL0     H 4625   1.461   1.607   9.796  0.2726  0.3000  0.1518
  793MOL0     H 4626   1.458   1.743   9.682 -1.5337 -0.9384  0.8356
  793MOL0     H 4627   1.469   1.448   9.578 -1.0354  0.2666 -1.6264
  793MOL0     H 4628   1.436   1.602   9.488 -2.1439  2.5542  1.3172
  793MOL0     H 4629   1.274   1.334   9.719 -1.1126 -0.2262 -0.2250
  793MOL0     H 4630   0.897   1.396   9.783 -2.0292 -1.6260 -1.1650
  793MOL0     H 4631   1.028   1.280   9.806 -0.7863 -2.1953 -0.9677
  793MOL0     H 4632   0.964   1.195   9.564 -1.4215 -0.1789 -0.1843
  793MOL0     H 4633   0.839   1.316   9.558 -0.5199  1.5832  0.1971
  793MOL0     H 4634   0.863   1.097   9.766  0.2365 -0.3907 -0.9407
  793MOL0     H 4635   0.739   1.226   9.771 -0.0474 -1.7836  0.5904
  793MOL0     H 4636   0.686   1.001   9.655 -2.0415  0.9125 -1.1642
  793MOL0     H 4637   0.780   1.074   9.525  0.6023  2.2472  0.1303
  793MOL0     H 4638   0.502   1.360   9.698  0.4242 -0.2840 -2.0171
  793MOL0     H 4639   0.269   1.362   9.798  1.4835  0.1029  3.3361
  793MOL0     H 4640  -0.114   0.827   9.727 -0.7496  0.2554 -0.8242
  793MOL0     H 4641  -0.334   0.761   9.810 -1.1112  1.1841 -1.0827
  793MOL0     H 4642  -0.641   1.044  10.011  0.3181  1.9482  2.3170
  793MOL0     H 4643  -0.511   1.019  10.128  0.7768 -0.4850 -0.6279
  793MOL0     H 4644  -0.700   0.936  10.215  1.9589  1.2450  0.5882
  793MOL0     H 4645  -0.585   0.804  10.173 -0.3225  0.4293 -0.5614
  793MOL0     H 4646  -0.715   0.745   9.974 -0.6718 -3.6491  1.4132
  793MOL0     H 4647  -0.848   0.860  10.008  0.9564  0.1904  0.0678
  793MOL0     H 4648  -0.775   0.612  10.154 -2.3815 -2.7362  0.6923
  793MOL0     H 4649  -0.849   0.743  10.238 -1.5389  1.8571 -1.1987
  793MOL0     H 4650  -1.028   0.591  10.160  0.8626  0.1372  0.1713
  793MOL0     H 4651  -0.987   0.587   9.996 -3.9418 -1.6095  0.5518
  793MOL0     H 4652  -1.036   0.828   9.964  1.3737 -3.1644 -1.7016
  793MOL0     H 4653  -1.096   0.822  10.132 -1.1794  0.2055  0.0523
  793MOL0     H 4654  -1.217   0.615   9.941 -0.8791  0.4137 -2.1994
  793MOL0     H 4655  -1.264   0.671  10.089  1.4543 -2.9548 -0.7131
  793MOL0     H 4656  -1.236   0.868   9.851  1.1168 -1.2195 -0.1372
  793MOL0     H 4657  -1.280   0.907  10.009  0.8540 -1.5946  1.0431
  793MOL0     H 4658  -0.367   1.138  10.014  0.8952  1.2854 -1.4996
  793MOL0     H 4659  -0.155   1.200   9.954  1.0649  0.2445  0.6300
  793MOL0     H 4660   0.243   0.930   9.706  0.4067 -1.1653 -2.3457
  793MOL0     H 4661   0.460   0.950   9.606  1.2501  0.5270 -0.6186
  793MOL0     H 4662   2.433   1.709   9.879 -2.5099  1.9673 -0.9656
  793MOL0     H 4663   2.667   1.763   9.839  2.4974  0.7222 -1.5376
  793MOL0     H 4664   3.062   1.640   9.327 -0.3398  0.0757 -0.0277
  793MOL0     H 4665   3.286   1.719   9.299  0.3260  3.3959 -0.6399
  793MOL0     H 4666   3.471   1.694   9.412 -0.3559 -0.3500 -1.0544
  793MOL0     H 4667   3.602   1.785   9.493  1.1885 -1.7435 -1.8048
  793MOL0     H 4668   3.500   1.920   9.253 -1.5636  2.2538  2.9474
  793MOL0     H 4669   3.667   1.915   9.331 -1.6220  1.0956  1.1017
  793MOL0     H 4670   3.679   1.785   9.113 -1.7750  0.7414  0.0162
  793MOL0     H 4671   3.536   1.696   9.148  2.1586  0.4472 -4.2515
  793MOL0     H 4672   3.663   1.577   9.338  2.1110 -2.3400 -0.2678
  793MOL0     H 4673   3.736   1.556   9.173  0.4129  0.7404 -0.2482
  793MOL0     H 4674   4.000   1.839   9.343  0.6016 -1.5967 -0.6853
  793MOL0     H 4675   3.237   1.944   9.665 -1.3459  1.0392  0.0136
  793MOL0     H 4676   2.996   1.862   9.687 -0.2957 -4.1919  0.1313
  794MOL0     O 4677   8.368   8.677   3.080 -0.1029  0.3613 -0.8195
  794MOL0     C 4678   8.425   8.779   3.048  0.0655  0.5803  0.9591
  794MOL0     O 4679   8.360   8.881   2.973 -0.4468  0.1123 -0.4366
  794MOL0     C 4680   8.229   8.862   2.950 -0.1805  0.6265  0.9459
  794MOL0     C 4681   8.199   8.906   2.821  0.8661 -0.0812  0.5933
  794MOL0     C 4682   8.068   8.914   2.779 -0.0684 -0.2811 -0.9584
  794MOL0     C 4683   7.958   8.884   2.860 -0.2762  0.4089 -1.0004
  794MOL0     O 4684   7.830   8.904   2.812 -0.5078 -0.0048  0.4918
  794MOL0     C 4685   7.717   8.883   2.900 -0.0872 -0.4769 -0.3742
  794MOL0     C 4686   7.680   8.735   2.911 -0.3705 -0.8320 -0.4411
  794MOL0     C 4687   7.570   8.721   3.018  0.0840 -0.7381 -0.6985
  794MOL0     C 4688   7.525   8.570   3.034  0.4307  0.4388 -0.5957
  794MOL0     C 4689   7.414   8.550   3.135 -0.4858  0.1798 -0.4754
  794MOL0     C 4690   7.349   8.416   3.114  0.1329  0.2685 -0.2563
  794MOL0     C 4691   7.280   8.362   3.246  0.7184  0.4861  0.4194
  794MOL0     C 4692   7.205   8.228   3.238 -0.1360 -0.8244  0.0701
  794MOL0     N 4693   7.293   8.132   3.173 -0.7819  1.0466  0.5009
  794MOL0     C 4694   7.383   8.044   3.232 -0.1352 -0.2284  1.1064
  794MOL0     C 4695   7.455   7.991   3.133 -0.2881 -0.6456  0.7249
  794MOL0     C 4696   7.572   7.896   3.137 -0.8667 -0.2100 -0.8019
  794MOL0     C 4697   7.698   7.978   3.099 -0.6588  0.4894 -0.8811
  794MOL0     C 4698   7.828   7.893   3.136 -0.1640  0.3995  1.1803
  794MOL0     C 4699   7.962   7.964   3.131  0.7331  0.0992 -0.1027
  794MOL0     O 4700   8.067   7.866   3.149  0.3492 -0.2741 -0.0173
  794MOL0     C 4701   8.193   7.890   3.104 -0.1330  0.3951 -0.5893
  794MOL0     C 4702   8.284   7.788   3.096 -0.7257  0.3579  0.0185
  794MOL0     C 4703   8.416   7.802   3.045 -0.2324  0.5405 -0.6460
  794MOL0     C 4704   8.469   7.927   3.029  0.0715 -0.3093  0.2004
  794MOL0     C 4705   8.611   7.946   2.997  0.4235  0.5795  0.0290
  794MOL0     O 4706   8.688   7.837   2.958 -0.4092 -0.8364 -0.5656
  794MOL0     C 4707   8.825   7.852   2.966 -0.2144  0.7212  0.4578
  794MOL0     C 4708   8.897   7.851   2.844 -0.3363  1.7804  0.4939
  794MOL0     C 4709   9.036   7.845   2.855  0.2887  0.4617  0.5584
  794MOL0     C 4710   9.101   7.824   2.973  0.3582  0.5121  0.2466
  794MOL0     O 4711   9.237   7.810   2.961 -0.4244  0.2009  0.5508
  794MOL0     C 4712   9.315   7.756   3.063 -0.6451  0.2276  0.2182
  794MOL0     C 4713   9.366   7.870   3.161  0.4124 -0.2110  0.0192
  794MOL0     C 4714   9.426   7.828   3.295 -0.8365  0.3699 -0.0516
  794MOL0     C 4715   9.471   7.938   3.381  0.7541 -0.0907  0.0194
  794MOL0     C 4716   9.623   7.977   3.368  0.6529 -0.3787 -0.1734
  794MOL0     C 4717   9.658   8.078   3.473 -0.4533  0.2246 -0.3415
  794MOL0     C 4718   9.807   8.127   3.468 -0.5046  0.0012 -0.5717
  794MOL0     C 4719   9.842   8.191   3.599  0.3125 -0.0023  0.2525
  794MOL0    Cl 4720   9.759   8.347   3.609 -0.4754 -0.4942 -0.1760
  794MOL0     C 4721   9.031   7.845   3.093 -0.3052 -0.6658 -0.0908
  794MOL0     C 4722   8.890   7.846   3.090  0.1235  0.3103  0.9559
  794MOL0     O 4723   8.652   8.057   3.009  0.1264 -0.1293  0.3122
  794MOL0     C 4724   8.381   8.041   3.050 -0.3116 -0.1194  0.7708
  794MOL0     C 4725   8.244   8.017   3.080  0.1091 -0.0583 -0.3278
  794MOL0     N 4726   7.400   8.025   3.006  0.1977  0.5257 -0.7801
  794MOL0     N 4727   7.303   8.110   3.039  0.6676 -1.1786 -0.0418
  794MOL0     C 4728   7.994   8.839   2.998 -0.8580 -0.2718  0.0676
  794MOL0     C 4729   8.125   8.821   3.033 -0.1781 -0.1345 -0.4673
  794MOL0     C 4730   8.560   8.784   3.076  0.0658  0.1091 -0.2982
  794MOL0     C 4731   8.645   8.864   2.998 -0.5028 -0.1765  0.4335
  794MOL0     C 4732   8.781   8.892   3.040 -0.1474 -0.4257  0.5280
  794MOL0     C 4733   8.826   8.850   3.163  0.3412  0.4940  1.3252
  794MOL0     O 4734   8.951   8.895   3.203 -0.0196  0.0005 -0.0823
  794MOL0     C 4735   9.024   8.794   3.275 -0.9133 -0.6886  0.3983
  794MOL0     C 4736   9.178   8.809   3.242 -0.0526  0.1163 -0.0843
  794MOL0     C 4737   9.254   8.687   3.303  0.0840  0.4747  0.2031
  794MOL0     C 4738   9.408   8.695   3.275 -0.3465 -1.0054  0.3007
  794MOL0     C 4739   9.452   8.690   3.136  0.4018 -0.3090  0.9100
  794MOL0     C 4740   9.499   8.672   3.030 -0.0581  0.3705 -0.9841
  794MOL0     C 4741   8.741   8.772   3.242  0.2713  0.0103  0.4044
  794MOL0     C 4742   8.607   8.741   3.201 -0.5950 -1.1193 -0.0460
  794MOL0     H 4743   8.283   8.936   2.759  0.7030 -0.0508  0.3875
  794MOL0     H 4744   8.048   8.964   2.685  0.8742 -0.1746 -1.1101
  794MOL0     H 4745   7.631   8.945   2.873  0.8652  1.1474  0.1551
  794MOL0     H 4746   7.743   8.910   3.003 -0.2249 -1.6245 -0.0208
  794MOL0     H 4747   7.759   8.662   2.926 -0.7698 -1.6705 -2.1583
  794MOL0     H 4748   7.626   8.703   2.821 -0.2164 -1.1547 -0.4220
  794MOL0     H 4749   7.487   8.792   3.009 -0.0262 -0.8271 -0.4078
  794MOL0     H 4750   7.608   8.748   3.117 -1.7977 -0.7635  0.0858
  794MOL0     H 4751   7.501   8.539   2.932  0.3340 -2.0842  0.1326
  794MOL0     H 4752   7.613   8.510   3.058  0.2606 -1.1472 -3.5409
  794MOL0     H 4753   7.325   8.613   3.129 -1.7964 -1.1202  2.8259
  794MOL0     H 4754   7.458   8.563   3.235 -2.2920  0.3186  0.3375
  794MOL0     H 4755   7.411   8.337   3.071 -1.6975 -2.3801  1.6295
  794MOL0     H 4756   7.273   8.428   3.035  1.9923 -0.5768 -2.2778
  794MOL0     H 4757   7.357   8.356   3.323  1.4143  0.8792 -0.2243
  794MOL0     H 4758   7.212   8.444   3.271  2.2104  1.9518 -0.1281
  794MOL0     H 4759   7.119   8.228   3.170 -1.2136 -0.9024  1.3858
  794MOL0     H 4760   7.173   8.204   3.339 -0.2554 -0.8942  0.0155
  794MOL0     H 4761   7.380   8.017   3.337 -3.5431 -1.4386  0.8025
  794MOL0     H 4762   7.561   7.806   3.075  0.6424 -1.3946  0.5437
  794MOL0     H 4763   7.599   7.860   3.237 -0.0449  0.7280 -0.6766
  794MOL0     H 4764   7.702   8.070   3.157 -2.2812 -0.8044  1.4390
  794MOL0     H 4765   7.698   8.007   2.993  2.5663 -0.4355 -1.2331
  794MOL0     H 4766   7.817   7.853   3.238  0.8928 -1.6548  0.5528
  794MOL0     H 4767   7.837   7.801   3.077  0.7742 -0.2470  2.2890
  794MOL0     H 4768   7.960   8.040   3.209 -0.5200  0.2959 -0.3115
  794MOL0     H 4769   7.971   7.992   3.025 -0.8521 -1.5925 -0.7464
  794MOL0     H 4770   8.259   7.684   3.118 -1.6265  0.9014  1.6941
  794MOL0     H 4771   8.482   7.716   3.048 -3.7474 -2.5354  4.1240
  794MOL0     H 4772   8.846   7.848   2.749  0.3169 -1.5147  0.1268
  794MOL0     H 4773   9.104   7.837   2.771  3.5745  1.4867  2.9614
  794MOL0     H 4774   9.391   7.700   3.009 -1.2042 -0.3838  0.0556
  794MOL0     H 4775   9.259   7.687   3.127  0.0509  2.2015  3.1514
  794MOL0     H 4776   9.279   7.929   3.192 -1.2838 -1.4929 -2.0162
  794MOL0     H 4777   9.438   7.936   3.111 -1.4048  2.1072  0.2845
  794MOL0     H 4778   9.516   7.767   3.278 -0.3099  0.8804  0.8365
  794MOL0     H 4779   9.362   7.769   3.361  0.1150  0.7619  1.2773
  794MOL0     H 4780   9.416   8.031   3.363  1.5283  0.0878 -1.5487
  794MOL0     H 4781   9.457   7.896   3.481 -0.4145  1.7848  0.7045
  794MOL0     H 4782   9.638   8.015   3.266 -2.7844  0.4086 -0.4995
  794MOL0     H 4783   9.686   7.888   3.382  0.2310 -0.6089  0.2669
  794MOL0     H 4784   9.630   8.043   3.572 -3.1810  1.0071 -0.7673
  794MOL0     H 4785   9.596   8.165   3.453 -1.8204 -0.1010  2.1477
  794MOL0     H 4786   9.876   8.044   3.449 -0.0174  0.0108  0.9436
  794MOL0     H 4787   9.829   8.203   3.392  3.1562 -0.2338  0.0515
  794MOL0     H 4788   9.948   8.216   3.603  0.2329  0.5152 -0.7463
  794MOL0     H 4789   9.829   8.125   3.686  1.6057  1.8606  1.9510
  794MOL0     H 4790   9.074   7.844   3.192 -1.7998 -0.4736  0.5892
  794MOL0     H 4791   8.833   7.842   3.182  0.1064  1.6178  1.0146
  794MOL0     H 4792   8.410   8.144   3.031  3.2693 -0.6926  2.1945
  794MOL0     H 4793   8.186   8.109   3.080 -1.1307 -0.8154 -0.4848
  794MOL0     H 4794   7.912   8.818   3.065 -0.7597  1.0667  0.6417
  794MOL0     H 4795   8.131   8.790   3.137 -1.2134  1.3664  0.0728
  794MOL0     H 4796   8.605   8.908   2.907 -0.1310  2.1903  1.3545
  794MOL0     H 4797   8.843   8.956   2.978  0.3892 -1.2273  0.2221
  794MOL0     H 4798   9.002   8.690   3.250  0.6057 -1.5696  2.4224
  794MOL0     H 4799   9.009   8.802   3.383 -1.9747 -3.6505  0.5425
  794MOL0     H 4800   9.179   8.804   3.133 -2.9960 -0.0275 -0.1877
  794MOL0     H 4801   9.203   8.907   3.283 -3.4747  1.4806 -0.9623
  794MOL0     H 4802   9.207   8.596   3.265 -5.2248  1.8470  2.5079
  794MOL0     H 4803   9.240   8.688   3.412  0.2958 -0.5505  0.2456
  794MOL0     H 4804   9.443   8.794   3.308  3.3489 -2.0238 -0.1269
  794MOL0     H 4805   9.460   8.625   3.341  1.0779  1.4272  1.9819
  794MOL0     H 4806   9.546   8.664   2.934  1.8287  1.7731 -0.2518
  794MOL0     H 4807   8.786   8.733   3.332 -0.2212  1.7036  1.4252
  794MOL0     H 4808   8.532   8.687   3.258 -2.5072 -2.8504 -3.8266
  795MOL0     O 4809   6.689   7.994   7.788 -0.1525  0.7855  0.2200
  795MOL0     C 4810   6.768   8.072   7.839 -0.0067 -0.2417  0.2272
  795MOL0     O 4811   6.744   8.185   7.900 -0.2698  0.7595  0.1412
  795MOL0     C 4812   6.624   8.242   7.888  0.2312 -0.5191 -1.0578
  795MOL0     C 4813   6.522   8.197   7.968 -0.1584 -0.0046 -0.4153
  795MOL0     C 4814   6.396   8.256   7.940 -0.2940  0.8909 -0.8160
  795MOL0     C 4815   6.372   8.359   7.847  0.2936 -0.0637 -0.4023
  795MOL0     O 4816   6.247   8.401   7.806  0.0991  0.2525 -0.2199
  795MOL0     C 4817   6.150   8.293   7.784 -0.0389 -0.8078  0.4053
  795MOL0     C 4818   6.020   8.352   7.720 -0.6673  0.1076 -0.8879
  795MOL0     C 4819   6.026   8.365   7.569  0.7708 -0.2188 -0.5845
  795MOL0     C 4820   6.041   8.238   7.484  0.2795 -0.9362  0.9346
  795MOL0     C 4821   5.999   8.258   7.338  0.0664 -0.3653 -0.8302
  795MOL0     C 4822   5.854   8.293   7.321  0.1908 -0.6618 -0.1529
  795MOL0     C 4823   5.818   8.288   7.168 -0.6734  0.1930  0.9602
  795MOL0     C 4824   5.668   8.289   7.154  0.1263 -0.4477  0.0744
  795MOL0     N 4825   5.613   8.294   7.019 -0.2111 -0.6003  0.7261
  795MOL0     C 4826   5.511   8.221   6.976  1.3826  0.2112  0.5296
  795MOL0     C 4827   5.513   8.237   6.842  0.2474  1.1800 -0.5173
  795MOL0     C 4828   5.440   8.168   6.734 -0.3811 -0.0454 -0.1967
  795MOL0     C 4829   5.284   8.175   6.758 -0.5335  0.4865 -0.0978
  795MOL0     C 4830   5.239   8.313   6.729 -0.5130  0.2860 -0.5415
  795MOL0     C 4831   5.086   8.307   6.691  0.6283 -0.2591 -0.0575
  795MOL0     O 4832   4.994   8.279   6.793 -0.9905  0.0549  0.3166
  795MOL0     C 4833   4.865   8.294   6.774 -0.4339  0.8231  0.8211
  795MOL0     C 4834   4.796   8.293   6.649 -0.2346 -0.2565  0.1748
  795MOL0     C 4835   4.654   8.309   6.649 -0.6361 -0.7084 -0.2452
  795MOL0     C 4836   4.581   8.323   6.768 -0.3241  0.4738 -1.0031
  795MOL0     C 4837   4.425   8.341   6.775 -0.5295 -0.1557 -0.3936
  795MOL0     O 4838   4.368   8.326   6.900 -0.2951 -0.6167 -0.0980
  795MOL0     C 4839   4.239   8.327   6.918  0.3561  0.3246  0.5851
  795MOL0     C 4840   4.198   8.363   7.048 -0.2399  0.0123 -0.0545
  795MOL0     C 4841   4.064   8.344   7.090  0.0678 -0.9784  0.1185
  795MOL0     C 4842   3.971   8.284   7.016 -0.0543  0.6478  0.8573
  795MOL0     O 4843   3.844   8.264   7.071 -0.7170 -0.4622 -0.2476
  795MOL0     C 4844   3.738   8.248   6.966  0.3722  0.6557 -0.0278
  795MOL0     C 4845   3.598   8.271   7.033 -0.2582 -0.6610  0.2837
  795MOL0     C 4846   3.466   8.280   6.940 -0.4444 -0.2548  0.7816
  795MOL0     C 4847   3.340   8.215   7.005 -0.2047 -0.4594  0.2138
  795MOL0     C 4848   3.231   8.218   6.895  0.0549  0.1603  0.6702
  795MOL0     C 4849   3.097   8.148   6.934 -1.1686 -0.4848 -0.3206
  795MOL0     C 4850   2.994   8.187   6.822 -0.2387  0.2456 -1.0306
  795MOL0     C 4851   2.905   8.278   6.892  0.5015 -0.7748 -0.6941
  795MOL0    Cl 4852   2.784   8.351   6.782  0.1185  0.3992 -0.1102
  795MOL0     C 4853   4.013   8.254   6.880  0.2145 -0.4369 -0.2851
  795MOL0     C 4854   4.146   8.271   6.826  0.7586  0.9195 -0.7298
  795MOL0     O 4855   4.367   8.361   6.666  0.3402  0.3521  0.8788
  795MOL0     C 4856   4.649   8.311   6.891 -0.0766  0.0649  0.5164
  795MOL0     C 4857   4.792   8.301   6.890  0.3938  0.4316 -0.0991
  795MOL0     N 4858   5.611   8.325   6.809  0.0926 -0.0117 -0.2160
  795MOL0     N 4859   5.662   8.369   6.911  0.3598  0.6878  0.6942
  795MOL0     C 4860   6.488   8.417   7.784 -0.1011  0.7810  0.3051
  795MOL0     C 4861   6.610   8.355   7.803 -0.4485 -0.9455  0.2159
  795MOL0     C 4862   6.903   8.016   7.845 -0.4001 -0.4666  0.3742
  795MOL0     C 4863   7.000   8.084   7.919 -0.2558 -0.5220 -0.4078
  795MOL0     C 4864   7.124   8.031   7.941  0.2796  0.0675  0.5732
  795MOL0     C 4865   7.167   7.917   7.875 -0.5477 -0.1250  1.0094
  795MOL0     O 4866   7.307   7.891   7.869 -0.5509 -0.3163  0.5765
  795MOL0     C 4867   7.358   7.825   7.750  0.8914 -0.1353  0.4507
  795MOL0     C 4868   7.506   7.841   7.737 -0.4965 -0.2994  0.5623
  795MOL0     C 4869   7.555   7.959   7.653 -0.0823  0.2484  0.2584
  795MOL0     C 4870   7.493   8.092   7.713 -0.3194  0.2100 -0.4400
  795MOL0     C 4871   7.575   8.195   7.646 -0.1946  0.0636 -0.5979
  795MOL0     C 4872   7.641   8.287   7.596  0.7356  0.2279 -0.1005
  795MOL0     C 4873   7.072   7.837   7.812 -0.3364 -0.6163 -0.0948
  795MOL0     C 4874   6.941   7.888   7.799 -0.3326  0.7814 -0.0300
  795MOL0     H 4875   6.538   8.110   8.030  2.3544  1.1822  0.7703
  795MOL0     H 4876   6.316   8.237   8.011  0.0048  3.0518  0.1770
  795MOL0     H 4877   6.125   8.258   7.884  1.8901 -0.4871  1.0442
  795MOL0     H 4878   6.197   8.212   7.728  2.3195 -0.3634  1.5930
  795MOL0     H 4879   5.992   8.449   7.762  0.7312  0.8204 -1.4865
  795MOL0     H 4880   5.944   8.287   7.764 -0.2408  0.9318  1.1847
  795MOL0     H 4881   6.113   8.429   7.547  0.9855  0.0062  0.8468
  795MOL0     H 4882   5.941   8.429   7.543  0.7798 -0.1954 -0.5571
  795MOL0     H 4883   6.145   8.206   7.483  0.3655 -0.7137 -1.1337
  795MOL0     H 4884   5.983   8.152   7.518  0.2671 -1.1426  0.3991
  795MOL0     H 4885   6.026   8.166   7.284  1.2084 -0.7293  0.3241
  795MOL0     H 4886   6.069   8.334   7.300 -0.4616  0.1697 -0.7505
  795MOL0     H 4887   5.831   8.394   7.356  0.6961  0.6458 -3.2569
  795MOL0     H 4888   5.787   8.224   7.372 -1.5155  0.5320 -0.6894
  795MOL0     H 4889   5.865   8.376   7.124 -2.3910  1.6858  1.9856
  795MOL0     H 4890   5.846   8.195   7.117 -0.9542 -0.5988  2.1886
  795MOL0     H 4891   5.620   8.361   7.221 -1.4004  0.5527 -2.0107
  795MOL0     H 4892   5.630   8.195   7.195  0.5304 -0.3466  0.7044
  795MOL0     H 4893   5.449   8.154   7.034 -2.1501  0.5556 -2.5015
  795MOL0     H 4894   5.455   8.060   6.730 -2.6923 -0.4487  0.3716
  795MOL0     H 4895   5.480   8.203   6.638  2.0294 -3.0648 -0.4553
  795MOL0     H 4896   5.270   8.139   6.860  2.6425  1.5720  0.8330
  795MOL0     H 4897   5.236   8.105   6.689 -2.4105 -1.9337  3.3500
  795MOL0     H 4898   5.249   8.369   6.823  0.6255 -1.6443  0.5653
  795MOL0     H 4899   5.293   8.364   6.648  0.7664  3.1758  1.9187
  795MOL0     H 4900   5.072   8.223   6.622  1.0166 -1.2917  1.0952
  795MOL0     H 4901   5.059   8.402   6.643 -0.1033 -0.2059  0.4553
  795MOL0     H 4902   4.848   8.306   6.554 -0.5493  4.3664  0.3873
  795MOL0     H 4903   4.601   8.307   6.554  0.9278 -1.4239 -1.1473
  795MOL0     H 4904   4.267   8.411   7.116 -1.0618  3.9195 -1.7194
  795MOL0     H 4905   4.045   8.372   7.193 -1.7213  4.2440 -1.3333
  795MOL0     H 4906   3.743   8.152   6.915  1.7055  2.3820 -3.5048
  795MOL0     H 4907   3.737   8.328   6.891  1.5396  2.8575  2.1726
  795MOL0     H 4908   3.615   8.359   7.095  0.5405 -0.5022 -0.1571
  795MOL0     H 4909   3.579   8.187   7.101 -1.7538 -1.4026 -0.9715
  795MOL0     H 4910   3.483   8.253   6.836 -1.2915  0.2868  0.4904
  795MOL0     H 4911   3.444   8.387   6.928  1.3930  0.5449  3.5351
  795MOL0     H 4912   3.360   8.112   7.037 -1.9845 -1.1879 -0.8322
  795MOL0     H 4913   3.304   8.274   7.090 -0.5673  0.2930 -0.4485
  795MOL0     H 4914   3.258   8.157   6.809  0.6905  0.5953  0.5541
  795MOL0     H 4915   3.208   8.323   6.875 -0.4449  0.2655  1.7354
  795MOL0     H 4916   3.066   8.180   7.034  1.8725  2.1064 -0.0623
  795MOL0     H 4917   3.108   8.039   6.925 -2.0902 -0.9099  2.6479
  795MOL0     H 4918   3.050   8.244   6.746  0.3631 -0.3494 -1.0431
  795MOL0     H 4919   2.939   8.101   6.783 -0.0335 -0.1331 -0.4895
  795MOL0     H 4920   2.964   8.361   6.932 -1.1869  0.4596 -0.6383
  795MOL0     H 4921   2.865   8.213   6.970 -0.3425 -2.4936 -2.4665
  795MOL0     H 4922   3.943   8.200   6.816 -0.2324  1.1397 -1.1913
  795MOL0     H 4923   4.170   8.240   6.725 -1.6885 -0.4298 -0.9925
  795MOL0     H 4924   4.605   8.314   6.990  4.7514 -3.1675  3.1638
  795MOL0     H 4925   4.849   8.291   6.981  1.2311 -1.1428 -0.7489
  795MOL0     H 4926   6.474   8.511   7.731 -0.4765  1.8818  2.2683
  795MOL0     H 4927   6.689   8.402   7.746 -1.6080 -1.6139 -2.0635
  795MOL0     H 4928   6.981   8.172   7.981  3.1036 -0.2513  0.4459
  795MOL0     H 4929   7.193   8.079   8.009 -0.3417 -0.8867  1.9439
  795MOL0     H 4930   7.313   7.874   7.663 -0.7971  1.4779  2.1588
  795MOL0     H 4931   7.336   7.718   7.750  3.5151 -0.9052 -3.6352
  795MOL0     H 4932   7.547   7.853   7.838 -0.0590  0.0854  0.3419
  795MOL0     H 4933   7.562   7.759   7.692 -0.8566  0.0187 -0.4858
  795MOL0     H 4934   7.524   7.955   7.548  0.1949  3.0426 -0.0052
  795MOL0     H 4935   7.663   7.963   7.665  0.0366 -0.5988 -0.4102
  795MOL0     H 4936   7.387   8.102   7.687  0.2144 -0.9918 -3.4493
  795MOL0     H 4937   7.494   8.102   7.822 -2.2385  3.0211 -0.5532
  795MOL0     H 4938   7.702   8.358   7.544  2.1526  2.1911  3.8327
  795MOL0     H 4939   7.103   7.746   7.761 -0.6816 -0.2146 -1.0408
  795MOL0     H 4940   6.862   7.838   7.745 -1.8269  2.6207  0.3411
  796MOL0     O 4941   2.607   7.484   0.498  0.3648 -0.2661 -0.3547
  796MOL0     C 4942   2.652   7.598   0.463 -0.3336  0.7349 -0.1634
  796MOL0     O 4943   2.572   7.709   0.434 -0.7451 -0.3673  0.5207
  796MOL0     C 4944   2.440   7.687   0.419  1.4379 -0.4993 -0.7846
  796MOL0     C 4945   2.348   7.713   0.525  0.1028 -0.6500 -0.5592
  796MOL0     C 4946   2.209   7.693   0.517 -0.9246  0.0018  0.0741
  796MOL0     C 4947   2.155   7.635   0.403 -0.3542 -0.3033  0.8644
  796MOL0     O 4948   2.025   7.605   0.392  0.9287 -0.1805  0.1427
  796MOL0     C 4949   1.996   7.488   0.460  0.3672  0.7077 -0.5393
  796MOL0     C 4950   1.843   7.460   0.451 -0.6668 -0.2777  0.1654
  796MOL0     C 4951   1.810   7.320   0.389  0.6481 -0.9159  0.7159
  796MOL0     C 4952   1.866   7.207   0.468  0.2250  0.1215  0.0681
  796MOL0     C 4953   1.827   7.068   0.423  0.0347 -0.5498 -0.1591
  796MOL0     C 4954   1.821   7.018   0.271 -0.0655  0.1975  0.1254
  796MOL0     C 4955   1.957   6.996   0.205 -0.4666  0.2992 -0.2369
  796MOL0     C 4956   1.938   6.957   0.058 -0.2904  0.9142  0.0606
  796MOL0     N 4957   1.873   6.827   0.038 -0.7674 -0.2706 -0.1173
  796MOL0     C 4958   1.939   6.705   0.043  0.0467 -0.9062 -0.2740
  796MOL0     C 4959   1.843   6.612   0.064 -0.0722 -0.5745 -0.2241
  796MOL0     C 4960   1.877   6.472   0.063  0.2196  1.1166 -0.6069
  796MOL0     C 4961   1.805   6.387   0.174  0.2490 -0.5101 -0.7578
  796MOL0     C 4962   1.870   6.424   0.313  0.6450 -0.9298  1.1687
  796MOL0     C 4963   1.800   6.349   0.432  0.1146 -0.0830 -0.3406
  796MOL0     O 4964   1.660   6.382   0.436  0.1761  0.2763 -0.2618
  796MOL0     C 4965   1.611   6.502   0.491  0.2450  0.6203 -0.0058
  796MOL0     C 4966   1.692   6.599   0.546  0.3199 -1.3795 -0.4726
  796MOL0     C 4967   1.629   6.715   0.602 -0.2955  0.8722 -0.0512
  796MOL0     C 4968   1.496   6.740   0.577 -0.2719 -0.7262  0.1278
  796MOL0     C 4969   1.438   6.875   0.624 -0.7123 -0.2421 -0.0318
  796MOL0     O 4970   1.529   6.960   0.686  0.3065 -0.3659  0.2437
  796MOL0     C 4971   1.489   7.074   0.750  0.0260  0.0526 -0.2674
  796MOL0     C 4972   1.530   7.202   0.709  0.4451 -0.0154 -1.0803
  796MOL0     C 4973   1.505   7.313   0.795 -0.2711  0.6263  0.9372
  796MOL0     C 4974   1.436   7.297   0.916  0.0817  0.8429 -0.0375
  796MOL0     O 4975   1.419   7.390   1.006  0.2384 -0.4307 -0.8693
  796MOL0     C 4976   1.507   7.503   1.005 -0.5707 -0.1894 -0.2687
  796MOL0     C 4977   1.501   7.565   1.148 -0.4535  0.3184  0.4360
  796MOL0     C 4978   1.605   7.678   1.171 -0.3904  0.3332  0.6140
  796MOL0     C 4979   1.568   7.794   1.076  0.6902 -0.0371  1.0143
  796MOL0     C 4980   1.677   7.911   1.095 -0.6757  0.8824 -0.1929
  796MOL0     C 4981   1.673   7.984   1.229 -0.3372 -0.3767  0.0183
  796MOL0     C 4982   1.548   8.069   1.239  0.6609  0.3216 -0.3968
  796MOL0     C 4983   1.538   8.152   1.366 -0.0218 -0.4863 -0.1435
  796MOL0    Cl 4984   1.659   8.282   1.359  0.0001  0.1298 -0.5374
  796MOL0     C 4985   1.385   7.170   0.953  0.8120 -0.8342  0.0757
  796MOL0     C 4986   1.421   7.059   0.874  0.3196  0.1355  0.1843
  796MOL0     O 4987   1.321   6.895   0.612 -0.1187 -0.2599 -0.4396
  796MOL0     C 4988   1.417   6.634   0.524  0.4889  0.6356 -0.5879
  796MOL0     C 4989   1.476   6.510   0.488  1.5958 -1.0285 -0.0225
  796MOL0     N 4990   1.726   6.684   0.058  0.0946  0.5857  0.0014
  796MOL0     N 4991   1.742   6.806   0.022 -0.7421  0.7274 -0.6520
  796MOL0     C 4992   2.241   7.613   0.288  0.0942  0.0947 -0.2583
  796MOL0     C 4993   2.382   7.637   0.305  0.1284 -0.1846  0.5966
  796MOL0     C 4994   2.803   7.618   0.472  0.1409  0.2687  0.2913
  796MOL0     C 4995   2.851   7.749   0.480  0.0588 -0.9302 -0.7918
  796MOL0     C 4996   2.987   7.764   0.522 -0.4183 -0.5101 -0.1554
  796MOL0     C 4997   3.065   7.656   0.568 -0.3742  0.0015  0.4961
  796MOL0     O 4998   3.203   7.656   0.589  0.2572 -0.5596  0.2380
  796MOL0     C 4999   3.268   7.784   0.571  0.0637 -0.3916  0.2357
  796MOL0     C 5000   3.414   7.761   0.573 -0.3797  0.5373  0.2168
  796MOL0     C 5001   3.496   7.893   0.576  0.0923 -0.2708  0.4259
  796MOL0     C 5002   3.549   7.933   0.712 -1.1589 -0.2073  0.8006
  796MOL0     C 5003   3.452   7.959   0.809 -0.4317  0.2458 -0.4360
  796MOL0     C 5004   3.349   7.972   0.875  0.2289 -0.1747  0.6843
  796MOL0     C 5005   3.009   7.530   0.573 -0.0382 -0.0588 -0.0426
  796MOL0     C 5006   2.888   7.507   0.513  0.7321 -0.5540 -0.3114
  796MOL0     H 5007   2.390   7.753   0.617 -1.2749 -3.1527  1.2852
  796MOL0     H 5008   2.140   7.714   0.598 -0.7674 -0.1175  0.2377
  796MOL0     H 5009   2.019   7.497   0.567 -0.9580 -0.5364 -0.1190
  796MOL0     H 5010   2.046   7.406   0.409  0.3166 -1.3552  2.4988
  796MOL0     H 5011   1.787   7.533   0.391  0.3200  0.2974 -0.0802
  796MOL0     H 5012   1.799   7.457   0.551 -0.7124 -1.8677  0.1148
  796MOL0     H 5013   1.851   7.313   0.288  0.5215  0.0361  0.5844
  796MOL0     H 5014   1.701   7.305   0.382  0.1263  1.9415  1.4801
  796MOL0     H 5015   1.974   7.199   0.450  1.1515 -0.0852  4.6015
  796MOL0     H 5016   1.858   7.212   0.577  0.2170  1.0048  0.0341
  796MOL0     H 5017   1.726   7.060   0.465  0.0267  0.4634  0.0292
  796MOL0     H 5018   1.880   6.990   0.478  2.0659  1.0364  0.2352
  796MOL0     H 5019   1.770   7.097   0.215  0.4042  0.6184  0.2851
  796MOL0     H 5020   1.753   6.933   0.261  3.2461 -2.3991 -4.3160
  796MOL0     H 5021   2.009   7.092   0.203  4.1757 -1.8862  1.4805
  796MOL0     H 5022   2.021   6.929   0.264 -0.8826 -2.8257 -2.9908
  796MOL0     H 5023   2.030   6.963  -0.002 -0.6545 -1.1275 -0.7659
  796MOL0     H 5024   1.870   7.033   0.017  0.3981  1.5662  0.1058
  796MOL0     H 5025   2.047   6.689   0.039  0.3629  0.6509  1.0847
  796MOL0     H 5026   1.984   6.454   0.070 -0.1628 -1.5727 -0.5397
  796MOL0     H 5027   1.854   6.418  -0.029  2.9085  0.5168 -0.9952
  796MOL0     H 5028   1.815   6.278   0.171  3.8456 -0.4042  1.3846
  796MOL0     H 5029   1.701   6.421   0.169  1.2374  2.6638 -2.9251
  796MOL0     H 5030   1.973   6.386   0.312  1.4053  1.0501  0.6103
  796MOL0     H 5031   1.877   6.531   0.335 -0.0740 -0.8729  1.1445
  796MOL0     H 5032   1.843   6.368   0.531 -0.6387 -2.7658  0.5848
  796MOL0     H 5033   1.812   6.241   0.418 -0.9471 -0.1401 -0.8963
  796MOL0     H 5034   1.800   6.592   0.534  1.0007  0.2991  3.2549
  796MOL0     H 5035   1.679   6.795   0.656 -1.8210  0.2755  2.4399
  796MOL0     H 5036   1.579   7.223   0.615 -1.3910  0.8793 -1.8850
  796MOL0     H 5037   1.560   7.403   0.771  0.7722  0.1261  1.3896
  796MOL0     H 5038   1.476   7.572   0.926 -1.1766 -0.4062 -0.2253
  796MOL0     H 5039   1.612   7.478   0.985 -0.9274 -0.9137 -1.3580
  796MOL0     H 5040   1.526   7.491   1.224 -1.5733 -2.5118 -1.7512
  796MOL0     H 5041   1.400   7.603   1.162 -0.6472  0.7147 -1.6170
  796MOL0     H 5042   1.706   7.636   1.164 -0.8313 -0.6518 -0.2154
  796MOL0     H 5043   1.595   7.708   1.276  3.7980 -2.4526  2.0805
  796MOL0     H 5044   1.578   7.761   0.972  1.6901 -1.6217  1.5759
  796MOL0     H 5045   1.470   7.833   1.102  1.3330  1.9653  0.6006
  796MOL0     H 5046   1.654   7.984   1.017 -1.1440  1.3844  0.4102
  796MOL0     H 5047   1.769   7.855   1.073 -2.0695 -1.7810  0.3655
  796MOL0     H 5048   1.765   8.043   1.233 -0.1790 -0.6460  0.4815
  796MOL0     H 5049   1.678   7.912   1.312  2.4181  1.7697  1.9057
  796MOL0     H 5050   1.530   8.129   1.149 -0.5068  0.3929 -0.1289
  796MOL0     H 5051   1.461   8.003   1.238 -0.5539  1.8496 -1.5493
  796MOL0     H 5052   1.550   8.083   1.450 -0.1175  1.2857  1.3991
  796MOL0     H 5053   1.436   8.189   1.377 -0.7059 -2.6813  1.5328
  796MOL0     H 5054   1.333   7.158   1.047  1.7502 -0.8937  0.6068
  796MOL0     H 5055   1.394   6.958   0.902 -1.8663  0.0847 -1.7717
  796MOL0     H 5056   1.311   6.650   0.510  0.6396  0.7617 -1.7205
  796MOL0     H 5057   1.406   6.440   0.442 -0.0874 -0.0892  1.0071
  796MOL0     H 5058   2.209   7.572   0.192  2.0242 -2.0398 -0.1008
  796MOL0     H 5059   2.445   7.620   0.218  0.5143  0.1697  0.7983
  796MOL0     H 5060   2.797   7.837   0.447  0.5195 -0.8603 -1.3749
  796MOL0     H 5061   3.025   7.865   0.509  1.1168 -1.0142  0.1291
  796MOL0     H 5062   3.222   7.847   0.648  0.1866  0.3815 -0.3076
  796MOL0     H 5063   3.226   7.825   0.479 -0.2337 -1.3577 -0.0614
  796MOL0     H 5064   3.450   7.694   0.651  1.5651  1.8601  0.5436
  796MOL0     H 5065   3.436   7.704   0.482 -1.5681 -0.0586  0.2870
  796MOL0     H 5066   3.431   7.970   0.532 -2.3388 -0.5335  3.2459
  796MOL0     H 5067   3.573   7.872   0.501  0.6121  0.3033  0.7910
  796MOL0     H 5068   3.613   7.849   0.738 -1.5535 -0.3819  1.2314
  796MOL0     H 5069   3.623   8.013   0.701  1.8575 -2.9962 -0.7544
  796MOL0     H 5070   3.255   7.982   0.927  1.7171 -1.2863  3.8795
  796MOL0     H 5071   3.079   7.452   0.601  2.4554  1.8085 -0.7520
  796MOL0     H 5072   2.845   7.408   0.521 -1.6903  0.0607 -3.4852
  797MOL0     O 5073   5.598   8.582   6.510  0.1904 -0.0153  0.4631
  797MOL0     C 5074   5.683   8.625   6.433 -0.4239  0.0209 -0.0395
  797MOL0     O 5075   5.686   8.747   6.365  0.0554  0.4366 -0.0073
  797MOL0     C 5076   5.594   8.845   6.376  0.4601  1.0988 -0.0821
  797MOL0     C 5077   5.637   8.974   6.362  0.9506 -0.1527 -0.9980
  797MOL0     C 5078   5.537   9.076   6.345 -0.8371  0.2370  0.0095
  797MOL0     C 5079   5.405   9.056   6.351  0.0381 -1.3025 -0.2490
  797MOL0     O 5080   5.320   9.165   6.345  0.3569  0.5139  0.2182
  797MOL0     C 5081   5.187   9.144   6.300  0.0595  1.0512 -0.5545
  797MOL0     C 5082   5.113   9.271   6.343 -1.2718 -0.3062  0.4421
  797MOL0     C 5083   4.957   9.256   6.319 -0.6353 -0.1000 -0.0037
  797MOL0     C 5084   4.920   9.280   6.173  0.7232 -0.5257 -0.5812
  797MOL0     C 5085   4.778   9.239   6.137  0.6549 -0.4237 -0.6070
  797MOL0     C 5086   4.669   9.339   6.198  0.1357  0.3531  0.7672
  797MOL0     C 5087   4.532   9.293   6.148 -0.1779 -0.1569 -0.3193
  797MOL0     C 5088   4.418   9.392   6.191  0.7073  0.0542 -0.4535
  797MOL0     N 5089   4.286   9.349   6.144 -0.1396 -0.6049  0.4995
  797MOL0     C 5090   4.178   9.439   6.135  0.3871  0.4726 -0.3877
  797MOL0     C 5091   4.073   9.367   6.111  0.4208  0.3688  0.3610
  797MOL0     C 5092   3.944   9.432   6.072  0.6370  0.5441 -0.0761
  797MOL0     C 5093   3.826   9.353   6.111 -0.3958 -0.1570 -0.4376
  797MOL0     C 5094   3.693   9.422   6.064 -0.6373 -0.0370  0.0346
  797MOL0     C 5095   3.574   9.331   6.098 -0.6352  0.0330  0.2988
  797MOL0     O 5096   3.453   9.404   6.071 -0.6490 -0.3626 -1.0887
  797MOL0     C 5097   3.334   9.340   6.090 -0.6443 -0.0069 -0.5751
  797MOL0     C 5098   3.223   9.391   6.024  1.0793  0.4904 -0.0594
  797MOL0     C 5099   3.100   9.319   6.037 -0.0090  0.3676  0.4149
  797MOL0     C 5100   3.082   9.225   6.137  0.1819  0.5772 -0.1194
  797MOL0     C 5101   2.946   9.162   6.163 -0.2373 -0.5867 -0.2770
  797MOL0     O 5102   2.839   9.239   6.183  0.0056  0.1090 -0.9446
  797MOL0     C 5103   2.713   9.188   6.189 -1.0607 -0.0212  0.7686
  797MOL0     C 5104   2.626   9.246   6.285 -0.3427 -0.3552  0.5587
  797MOL0     C 5105   2.487   9.212   6.266  0.1997 -0.2082 -0.2472
  797MOL0     C 5106   2.436   9.117   6.173 -0.2244  0.4355 -0.1634
  797MOL0     O 5107   2.298   9.100   6.180 -0.4731 -0.4872  0.7082
  797MOL0     C 5108   2.237   9.022   6.069 -0.4771 -0.1475  0.1053
  797MOL0     C 5109   2.234   8.871   6.096  0.2031  0.9020  0.6786
  797MOL0     C 5110   2.111   8.804   6.025 -0.5149  0.6140 -0.4960
  797MOL0     C 5111   1.975   8.850   6.082 -0.4989  1.1828  0.1335
  797MOL0     C 5112   1.844   8.787   6.040  0.9531  0.6997 -0.0941
  797MOL0     C 5113   1.839   8.631   6.035  0.8653  0.3401  0.1719
  797MOL0     C 5114   1.870   8.568   6.173 -0.2811  0.1584 -0.7431
  797MOL0     C 5115   1.813   8.432   6.187  0.6172  0.3090  0.2601
  797MOL0    Cl 5116   1.633   8.446   6.175 -0.2282 -0.7314  0.2764
  797MOL0     C 5117   2.533   9.064   6.086  0.1694 -0.1880 -1.0665
  797MOL0     C 5118   2.667   9.089   6.092  0.3128 -0.2377 -1.1967
  797MOL0     O 5119   2.956   9.042   6.158  0.2976  0.1204 -0.7694
  797MOL0     C 5120   3.195   9.187   6.209  0.0877  0.7867 -0.2416
  797MOL0     C 5121   3.322   9.241   6.187  0.3281 -0.6436  0.1971
  797MOL0     N 5122   4.103   9.233   6.116 -0.7740  0.0413 -0.1020
  797MOL0     N 5123   4.233   9.219   6.134 -0.7796  1.3567 -0.7419
  797MOL0     C 5124   5.366   8.923   6.374 -0.0429 -0.1062 -0.0703
  797MOL0     C 5125   5.459   8.815   6.389 -0.5967  0.0267 -0.0292
  797MOL0     C 5126   5.809   8.561   6.441  0.8705  0.4925 -0.2497
  797MOL0     C 5127   5.830   8.451   6.528  1.0252 -0.5126  0.3169
  797MOL0     C 5128   5.964   8.398   6.542  0.8508 -0.3943 -0.4319
  797MOL0     C 5129   6.067   8.451   6.468 -0.5406  0.1734 -0.9247
  797MOL0     O 5130   6.192   8.391   6.468 -0.7847 -0.2208 -0.4720
  797MOL0     C 5131   6.253   8.348   6.598 -0.6268  0.4011  0.6234
  797MOL0     C 5132   6.283   8.459   6.703  0.1066  0.0051  0.8586
  797MOL0     C 5133   6.390   8.558   6.647 -0.0575  0.6752 -0.7290
  797MOL0     C 5134   6.365   8.703   6.691  1.3884 -0.1261  1.5828
  797MOL0     C 5135   6.433   8.796   6.598 -0.7686 -0.7068 -0.0007
  797MOL0     C 5136   6.467   8.884   6.521  0.2186 -0.1906  0.6767
  797MOL0     C 5137   6.045   8.555   6.383  0.7532  0.4179 -0.9537
  797MOL0     C 5138   5.917   8.608   6.366  0.0866  0.7379  0.5381
  797MOL0     H 5139   5.744   8.992   6.357  1.1801 -1.5069 -1.1917
  797MOL0     H 5140   5.573   9.176   6.324  1.4088 -0.6480 -0.5996
  797MOL0     H 5141   5.132   9.071   6.360  1.5524  0.4643  0.1602
  797MOL0     H 5142   5.183   9.128   6.192 -2.6223  0.3245 -0.4220
  797MOL0     H 5143   5.154   9.357   6.288 -1.6657  1.4658  2.7397
  797MOL0     H 5144   5.124   9.285   6.451 -0.2650 -2.2669  0.6325
  797MOL0     H 5145   4.907   9.332   6.380 -1.5271 -2.2812  2.1804
  797MOL0     H 5146   4.926   9.152   6.336 -0.6085 -0.2395 -0.7504
  797MOL0     H 5147   4.937   9.386   6.150  0.2751  0.1086  1.7346
  797MOL0     H 5148   4.990   9.228   6.106 -3.1668 -1.1306 -4.5879
  797MOL0     H 5149   4.752   9.138   6.171  0.5804 -0.2702 -0.1954
  797MOL0     H 5150   4.775   9.234   6.028 -0.3331 -1.0186 -0.5657
  797MOL0     H 5151   4.688   9.440   6.161 -0.1627 -0.3211 -1.3582
  797MOL0     H 5152   4.669   9.339   6.307  2.6508 -1.1078  0.8506
  797MOL0     H 5153   4.526   9.302   6.039 -1.1711  1.5280 -0.1659
  797MOL0     H 5154   4.512   9.189   6.178 -0.8096 -0.3562 -1.3735
  797MOL0     H 5155   4.450   9.493   6.165 -0.5089  1.1023  1.8556
  797MOL0     H 5156   4.422   9.387   6.300  0.4318  0.2856 -0.4323
  797MOL0     H 5157   4.191   9.547   6.131  4.5595  0.1074 -0.7198
  797MOL0     H 5158   3.934   9.452   5.964  2.2358 -1.2653 -0.6142
  797MOL0     H 5159   3.939   9.528   6.124 -4.8479  0.0614  0.8931
  797MOL0     H 5160   3.839   9.327   6.217  2.8864 -2.0589 -1.1550
  797MOL0     H 5161   3.834   9.253   6.066 -2.6755 -0.8279  0.4883
  797MOL0     H 5162   3.685   9.517   6.118 -1.6766 -0.9595  1.5748
  797MOL0     H 5163   3.700   9.453   5.959 -2.8734 -1.3303 -0.5645
  797MOL0     H 5164   3.579   9.310   6.205 -0.0743  1.6005  0.6182
  797MOL0     H 5165   3.583   9.242   6.035  2.7706 -0.6406  1.4904
  797MOL0     H 5166   3.218   9.475   5.954  0.7783  0.9813  0.5427
  797MOL0     H 5167   3.018   9.341   5.969 -0.3894 -3.5918 -0.6743
  797MOL0     H 5168   2.649   9.321   6.360  0.8962  0.9879 -1.1055
  797MOL0     H 5169   2.419   9.281   6.314  1.3934  0.7376  0.1516
  797MOL0     H 5170   2.270   9.046   5.968 -1.6261 -2.3374 -0.8564
  797MOL0     H 5171   2.132   9.051   6.063 -0.4149 -0.1892 -1.4152
  797MOL0     H 5172   2.215   8.850   6.201  1.9934 -4.3683  0.2231
  797MOL0     H 5173   2.333   8.837   6.064 -1.0278 -1.4538 -0.9047
  797MOL0     H 5174   2.126   8.696   6.036  1.8901  0.9114 -0.3579
  797MOL0     H 5175   2.117   8.821   5.917 -1.3243 -2.3090 -1.1113
  797MOL0     H 5176   1.982   8.837   6.190  3.7628  2.1481  0.1162
  797MOL0     H 5177   1.973   8.958   6.066  1.0098  1.5430  2.0823
  797MOL0     H 5178   1.829   8.828   5.939 -3.2612  1.5362  0.6863
  797MOL0     H 5179   1.766   8.835   6.101  0.5373 -0.8474  0.6303
  797MOL0     H 5180   1.915   8.603   5.962  1.2539  1.5115  0.0952
  797MOL0     H 5181   1.736   8.603   6.012  0.7205 -0.4045  1.6171
  797MOL0     H 5182   1.978   8.547   6.178 -0.6838 -2.1401 -0.6139
  797MOL0     H 5183   1.836   8.634   6.253 -3.7020  0.6330 -2.4486
  797MOL0     H 5184   1.831   8.384   6.283 -1.5345 -1.2348 -0.0331
  797MOL0     H 5185   1.858   8.372   6.108  2.4054 -0.0448  1.4810
  797MOL0     H 5186   2.501   9.001   6.003 -1.7012 -1.6016  0.6047
  797MOL0     H 5187   2.724   9.053   6.007 -4.0665  1.3974 -5.2900
  797MOL0     H 5188   3.184   9.113   6.288 -1.2028  0.1635 -0.9763
  797MOL0     H 5189   3.403   9.206   6.252  1.2966 -0.8771 -1.0907
  797MOL0     H 5190   5.259   8.906   6.379 -0.1941  0.6934 -0.4601
  797MOL0     H 5191   5.434   8.714   6.419 -1.2326  0.1564 -0.0938
  797MOL0     H 5192   5.749   8.419   6.593  1.1501 -2.6675 -0.5167
  797MOL0     H 5193   5.968   8.314   6.610 -1.0420 -0.3115 -0.1609
  797MOL0     H 5194   6.347   8.296   6.577 -1.4696 -0.9298  0.0263
  797MOL0     H 5195   6.187   8.275   6.646 -1.1469 -0.6137 -1.5126
  797MOL0     H 5196   6.190   8.514   6.717 -1.1592 -1.9519  0.5925
  797MOL0     H 5197   6.307   8.427   6.804 -0.9048  2.1286  1.8300
  797MOL0     H 5198   6.393   8.544   6.538  0.3576 -1.9584 -0.4436
  797MOL0     H 5199   6.487   8.528   6.686 -2.1916 -0.8783  4.1741
  797MOL0     H 5200   6.259   8.726   6.677  0.6670 -2.0363  3.3496
  797MOL0     H 5201   6.396   8.731   6.792  0.9264  2.9537  0.9780
  797MOL0     H 5202   6.485   8.956   6.444 -0.4484 -1.1184 -0.3614
  797MOL0     H 5203   6.135   8.593   6.336  1.0755  2.1242  0.9121
  797MOL0     H 5204   5.911   8.689   6.294  2.1186 -0.4032 -1.0437
  798MOL0     O 5205   9.754  10.272   8.479 -0.2219 -0.4185 -0.0703
  798MOL0     C 5206   9.785  10.392   8.451 -0.3426  0.4146  0.2476
  798MOL0     O 5207   9.695  10.484   8.413 -0.3529 -0.4684  0.4569
  798MOL0     C 5208   9.565  10.456   8.370  0.9762 -0.3669  0.2245
  798MOL0     C 5209   9.488  10.578   8.337  0.2305  0.7017  0.3597
  798MOL0     C 5210   9.346  10.571   8.291  0.2931  0.4616 -0.0615
  798MOL0     C 5211   9.295  10.446   8.264  0.0583  0.0449 -0.4667
  798MOL0     O 5212   9.177  10.432   8.197  0.4231  0.0227 -0.1948
  798MOL0     C 5213   9.062  10.462   8.276 -0.1639 -0.4631 -0.0836
  798MOL0     C 5214   9.018  10.354   8.376  0.6025 -0.4115  0.7114
  798MOL0     C 5215   9.011  10.208   8.327  0.1808  0.5742 -0.3102
  798MOL0     C 5216   8.908  10.200   8.219  0.2956  0.4424  0.1674
  798MOL0     C 5217   8.867  10.063   8.173  0.6137  0.1186 -0.1710
  798MOL0     C 5218   8.728  10.062   8.107 -0.3816 -0.4591 -0.2845
  798MOL0     C 5219   8.713   9.924   8.038  0.0002  0.2113 -0.0169
  798MOL0     C 5220   8.589   9.943   7.945  0.7070  0.4811 -0.1559
  798MOL0     N 5221   8.465   9.977   8.020  0.6196 -0.6423 -0.2488
  798MOL0     C 5222   8.367  10.055   7.970  0.1318  0.9679 -0.5834
  798MOL0     C 5223   8.262  10.039   8.050 -0.4630 -0.2917  0.4591
  798MOL0     C 5224   8.124  10.100   8.052  0.0230 -0.4400  0.0936
  798MOL0     C 5225   8.038  10.044   7.936  0.6415 -0.1987 -0.9148
  798MOL0     C 5226   7.901  10.118   7.924 -0.0995 -0.3693  0.2234
  798MOL0     C 5227   7.820  10.063   7.807 -0.1278 -0.0260  0.0381
  798MOL0     O 5228   7.685  10.110   7.812  0.9002 -0.3293  1.1618
  798MOL0     C 5229   7.641  10.225   7.751 -0.0003  1.0077 -0.2760
  798MOL0     C 5230   7.502  10.232   7.741 -1.0525 -0.2335  0.3417
  798MOL0     C 5231   7.453  10.350   7.683  0.7864  0.0577 -0.2308
  798MOL0     C 5232   7.536  10.456   7.625  0.3012 -0.5632  1.1190
  798MOL0     C 5233   7.458  10.569   7.563 -0.0220  0.2324  0.1161
  798MOL0     O 5234   7.322  10.575   7.555  0.5399  0.1089  0.2780
  798MOL0     C 5235   7.272  10.690   7.485  0.4470  0.8831  0.5076
  798MOL0     C 5236   7.332  10.806   7.419  0.6231 -0.3885 -0.0995
  798MOL0     C 5237   7.254  10.909   7.386  0.3065 -0.5465  1.0507
  798MOL0     C 5238   7.116  10.905   7.393 -0.8403  1.0665  0.1173
  798MOL0     O 5239   7.037  11.000   7.346  0.0125  0.1136  0.1921
  798MOL0     C 5240   6.902  11.022   7.397 -0.7255 -0.0384  0.5105
  798MOL0     C 5241   6.802  10.953   7.309 -0.0413 -0.2314 -0.2919
  798MOL0     C 5242   6.665  10.907   7.362 -0.1377  0.2038  0.9959
  798MOL0     C 5243   6.555  10.895   7.250 -0.1657  0.2989 -0.2067
  798MOL0     C 5244   6.467  10.774   7.273  0.4688  0.4811  0.2827
  798MOL0     C 5245   6.340  10.772   7.192 -0.3275  0.1670  1.0959
  798MOL0     C 5246   6.240  10.672   7.259  0.5720 -0.7929  0.2189
  798MOL0     C 5247   6.142  10.629   7.140 -0.0604  0.0264  0.7462
  798MOL0    Cl 5248   6.000  10.548   7.197 -0.1143  0.0510  0.4244
  798MOL0     C 5249   7.056  10.797   7.442  0.5252 -0.0828 -0.0249
  798MOL0     C 5250   7.134  10.690   7.491  0.0765  0.3391  0.1648
  798MOL0     O 5251   7.536  10.663   7.536 -0.3561 -0.0164  0.3886
  798MOL0     C 5252   7.674  10.443   7.633  0.2602  0.6152  0.0706
  798MOL0     C 5253   7.725  10.333   7.703  0.3402 -0.3437  0.3152
  798MOL0     N 5254   8.293   9.948   8.150  0.0350 -1.6770 -0.3000
  798MOL0     N 5255   8.405   9.904   8.119 -0.5902 -0.4640  0.5415
  798MOL0     C 5256   9.370  10.335   8.291 -0.2701  0.2051  0.3682
  798MOL0     C 5257   9.500  10.333   8.348  1.4603 -0.1795  0.8673
  798MOL0     C 5258   9.923  10.441   8.455  0.9516 -0.1175  0.2274
  798MOL0     C 5259   9.955  10.569   8.415 -0.1611 -0.2605 -1.1259
  798MOL0     C 5260  10.087  10.608   8.417 -0.8448  0.7074  0.0897
  798MOL0     C 5261  10.191  10.518   8.463 -1.0388 -0.7756  0.3628
  798MOL0     O 5262  10.317  10.574   8.463  0.0083 -0.6311  0.1597
  798MOL0     C 5263  10.431  10.499   8.510  0.0097  0.1421  0.0842
  798MOL0     C 5264  10.444  10.509   8.664 -0.1875 -0.3581 -0.0809
  798MOL0     C 5265  10.550  10.426   8.726  0.4043  0.5403 -0.3241
  798MOL0     C 5266  10.693  10.477   8.685 -0.3350 -0.3630 -0.4579
  798MOL0     C 5267  10.784  10.395   8.767 -0.0626  1.0710  0.5231
  798MOL0     C 5268  10.869  10.346   8.837 -0.1923 -0.1843 -0.0018
  798MOL0     C 5269  10.158  10.392   8.502  0.6677  0.5394 -0.0105
  798MOL0     C 5270  10.022  10.359   8.508 -0.5154  0.5151  0.5115
  798MOL0     H 5271   9.530  10.678   8.338  0.4440  0.6203 -0.1991
  798MOL0     H 5272   9.291  10.664   8.287  2.1712  1.8346  2.8640
  798MOL0     H 5273   8.977  10.479   8.210  0.8412  1.0678 -1.0639
  798MOL0     H 5274   9.077  10.561   8.319  0.8684  0.0950 -1.6307
  798MOL0     H 5275   8.926  10.382   8.428  1.1149 -1.6678  2.3810
  798MOL0     H 5276   9.103  10.367   8.444  0.8803  4.0088 -0.1277
  798MOL0     H 5277   8.983  10.142   8.409  2.1196  0.3761  0.2234
  798MOL0     H 5278   9.107  10.178   8.284  0.2884  2.2140 -1.3343
  798MOL0     H 5279   8.817  10.248   8.258  2.7981  3.0189  3.3504
  798MOL0     H 5280   8.926  10.269   8.136 -1.6728  2.0740  0.9909
  798MOL0     H 5281   8.865   9.988   8.253 -0.0214  0.6764  0.3420
  798MOL0     H 5282   8.948  10.027   8.109  0.2829  1.8165 -1.6030
  798MOL0     H 5283   8.731  10.142   8.032 -0.0265  0.4507  0.6832
  798MOL0     H 5284   8.655  10.083   8.186  1.2245  1.9171  0.7011
  798MOL0     H 5285   8.797   9.901   7.973 -0.3059  2.2093 -1.1994
  798MOL0     H 5286   8.698   9.847   8.115 -2.5367  1.4573  0.8236
  798MOL0     H 5287   8.573   9.841   7.908  1.0477 -0.0135  0.9989
  798MOL0     H 5288   8.604  10.016   7.866  1.2476  1.8524  1.1681
  798MOL0     H 5289   8.376  10.125   7.887  1.9852  0.4870 -0.8438
  798MOL0     H 5290   8.147  10.206   8.041 -0.2229 -0.3759  0.1957
  798MOL0     H 5291   8.074  10.085   8.148 -3.0070  0.9783 -1.1485
  798MOL0     H 5292   8.017   9.938   7.955 -0.4176  0.2924  0.9260
  798MOL0     H 5293   8.098  10.066   7.847  2.0424  3.2008  0.6669
  798MOL0     H 5294   7.834  10.115   8.010 -1.0965 -0.3788 -0.5453
  798MOL0     H 5295   7.922  10.226   7.919 -1.5187 -0.1240 -0.8905
  798MOL0     H 5296   7.812   9.957   7.836 -0.4044 -0.0012  0.0619
  798MOL0     H 5297   7.857  10.082   7.706  1.2908  0.9492  0.7123
  798MOL0     H 5298   7.432  10.155   7.771 -0.5161 -1.5659 -1.6495
  798MOL0     H 5299   7.344  10.354   7.680  0.6964 -0.2479  1.4545
  798MOL0     H 5300   7.438  10.822   7.399  0.3274  0.4381 -1.0711
  798MOL0     H 5301   7.299  11.003   7.357 -3.2268  1.0358  0.0862
  798MOL0     H 5302   6.873  11.127   7.403  0.7967  0.7102 -3.0242
  798MOL0     H 5303   6.897  10.982   7.499  0.6461 -1.4607  0.0705
  798MOL0     H 5304   6.861  10.876   7.257  0.4779  1.6779 -2.7310
  798MOL0     H 5305   6.782  11.021   7.225  1.3530 -0.0603 -0.5134
  798MOL0     H 5306   6.627  10.977   7.438 -1.2199 -1.1092  1.7114
  798MOL0     H 5307   6.677  10.811   7.414 -0.5270  0.8155  2.2587
  798MOL0     H 5308   6.495  10.987   7.253 -0.7907 -0.0613 -1.2075
  798MOL0     H 5309   6.598  10.880   7.151 -0.0856 -0.3190 -0.0798
  798MOL0     H 5310   6.455  10.779   7.381  1.3417  0.7202  0.3840
  798MOL0     H 5311   6.524  10.684   7.248  0.9199  0.9208 -0.3145
  798MOL0     H 5312   6.360  10.737   7.090 -2.7309  0.5784  0.4054
  798MOL0     H 5313   6.302  10.874   7.177 -2.3342 -0.9403 -2.6411
  798MOL0     H 5314   6.280  10.574   7.287 -0.5782 -2.2496 -2.7907
  798MOL0     H 5315   6.187  10.722   7.341  0.1700  1.5885 -1.4155
  798MOL0     H 5316   6.194  10.576   7.060  0.7170  0.5734  0.8739
  798MOL0     H 5317   6.100  10.719   7.095 -1.9831 -2.0294 -1.8963
  798MOL0     H 5318   6.949  10.778   7.438  0.4164  0.6305 -2.3075
  798MOL0     H 5319   7.079  10.613   7.545  0.1419 -0.5310 -0.9809
  798MOL0     H 5320   7.752  10.516   7.612  1.4195  0.4262  3.1723
  798MOL0     H 5321   7.832  10.329   7.715  0.6853 -0.4952 -2.2257
  798MOL0     H 5322   9.328  10.237   8.271 -0.7733  0.7888 -1.6725
  798MOL0     H 5323   9.550  10.237   8.350  2.6082  0.3968  0.8641
  798MOL0     H 5324   9.876  10.641   8.393 -0.4539  0.2694  1.3772
  798MOL0     H 5325  10.110  10.712   8.400  0.3608  0.5135  0.4473
  798MOL0     H 5326  10.516  10.537   8.453  1.4345 -2.9796 -0.1129
  798MOL0     H 5327  10.425  10.396   8.472  0.1330  0.4226 -0.7085
  798MOL0     H 5328  10.460  10.613   8.691 -3.3771  0.4389 -0.8442
  798MOL0     H 5329  10.345  10.480   8.702  0.0859 -0.6165  0.4554
  798MOL0     H 5330  10.536  10.321   8.696  2.1815 -0.0292  0.6789
  798MOL0     H 5331  10.542  10.418   8.835  3.1040 -0.0384 -0.0882
  798MOL0     H 5332  10.713  10.468   8.578  1.8289 -1.6495  0.0069
  798MOL0     H 5333  10.699  10.582   8.717  2.2273 -0.6771  0.3095
  798MOL0     H 5334  10.937  10.285   8.894  0.6259 -0.6268 -1.4107
  798MOL0     H 5335  10.234  10.329   8.546  0.2993  0.7565  0.9702
  798MOL0     H 5336   9.991  10.262   8.544  1.8716 -1.5539 -2.4154
  799MOL0     O 5337   5.421   3.763   4.694 -0.0014  0.2451  0.2667
  799MOL0     C 5338   5.508   3.693   4.638 -1.0412  0.4679  0.1840
  799MOL0     O 5339   5.533   3.554   4.657  0.0200 -0.0010  0.2243
  799MOL0     C 5340   5.426   3.486   4.712 -0.0605 -0.1625  0.2231
  799MOL0     C 5341   5.302   3.489   4.648 -0.3900 -0.1487  0.2205
  799MOL0     C 5342   5.193   3.414   4.701  0.4191  0.9883  1.1599
  799MOL0     C 5343   5.212   3.329   4.806  0.6197  0.0707  0.1727
  799MOL0     O 5344   5.111   3.248   4.863  0.1754  0.2918  0.3265
  799MOL0     C 5345   5.007   3.311   4.944 -1.6004  0.4374 -0.0778
  799MOL0     C 5346   4.890   3.224   4.999  0.0720  0.0349  0.6803
  799MOL0     C 5347   4.945   3.149   5.123 -0.4019 -0.1404 -0.2169
  799MOL0     C 5348   4.833   3.066   5.183  0.5279  0.2642 -0.5239
  799MOL0     C 5349   4.799   3.120   5.322 -0.1428  0.1995 -0.5244
  799MOL0     C 5350   4.659   3.071   5.382  0.5170 -0.2601  0.5559
  799MOL0     C 5351   4.658   3.105   5.529 -0.4051  0.6385  1.1667
  799MOL0     C 5352   4.659   3.250   5.568  0.7858 -0.1580  0.0452
  799MOL0     N 5353   4.532   3.321   5.551 -0.7227  0.0453 -0.5263
  799MOL0     C 5354   4.534   3.458   5.551 -0.0786  0.9183 -0.4827
  799MOL0     C 5355   4.403   3.494   5.531 -0.4185 -0.2496 -0.4000
  799MOL0     C 5356   4.338   3.629   5.539 -0.8150  1.3443 -0.0983
  799MOL0     C 5357   4.222   3.627   5.634  0.3692  0.7609  0.0117
  799MOL0     C 5358   4.150   3.758   5.619 -0.8527  0.5342  0.5072
  799MOL0     C 5359   4.003   3.741   5.656  0.6132 -0.2550  0.8288
  799MOL0     O 5360   4.001   3.669   5.781  0.1208 -0.1302  0.5145
  799MOL0     C 5361   3.878   3.666   5.853 -0.1466  0.1316  0.1856
  799MOL0     C 5362   3.877   3.582   5.961 -1.2571  0.6646  0.9263
  799MOL0     C 5363   3.769   3.565   6.044  0.5999  0.0689 -0.2491
  799MOL0     C 5364   3.658   3.652   6.026  0.5505 -0.5307 -0.3353
  799MOL0     C 5365   3.537   3.644   6.113  0.1073 -0.3848  0.1805
  799MOL0     O 5366   3.416   3.673   6.049 -0.2468 -0.4880 -0.9899
  799MOL0     C 5367   3.298   3.707   6.113  0.3332  0.4419  0.2883
  799MOL0     C 5368   3.289   3.727   6.249 -0.5766 -0.0661 -0.4317
  799MOL0     C 5369   3.161   3.754   6.297 -0.3202  0.3165 -0.3791
  799MOL0     C 5370   3.038   3.739   6.230  0.2016  0.4167  0.0371
  799MOL0     O 5371   2.908   3.753   6.281  0.2315  0.2473 -0.3432
  799MOL0     C 5372   2.882   3.766   6.423  0.0617  0.2702 -1.2709
  799MOL0     C 5373   2.798   3.889   6.447  0.3614  0.9358  0.4881
  799MOL0     C 5374   2.682   3.908   6.341 -0.0514  0.7097  0.1762
  799MOL0     C 5375   2.586   3.785   6.321  0.3308  0.7388  0.1641
  799MOL0     C 5376   2.497   3.746   6.438  0.5372 -0.4197 -0.5213
  799MOL0     C 5377   2.414   3.855   6.511 -0.1098 -0.8563 -0.5709
  799MOL0     C 5378   2.332   3.793   6.626  0.2061 -0.3416  0.3648
  799MOL0     C 5379   2.251   3.898   6.695 -0.2706 -0.7384 -0.0556
  799MOL0    Cl 5380   2.117   3.957   6.595  0.3393  0.5053  0.2521
  799MOL0     C 5381   3.052   3.714   6.097  0.3696  0.3899 -0.1216
  799MOL0     C 5382   3.181   3.707   6.038  0.0092  0.2835 -0.0819
  799MOL0     O 5383   3.551   3.598   6.226  0.8060 -0.1221 -0.4074
  799MOL0     C 5384   3.661   3.748   5.923 -0.5829 -0.5736  0.5287
  799MOL0     C 5385   3.765   3.752   5.829 -0.4754 -0.2120 -0.8877
  799MOL0     N 5386   4.334   3.374   5.524  0.1974 -0.1907  0.3057
  799MOL0     N 5387   4.409   3.270   5.534 -0.8189 -1.7334  0.3440
  799MOL0     C 5388   5.338   3.314   4.861  0.2460  0.2175  0.2290
  799MOL0     C 5389   5.447   3.387   4.803 -0.1230  0.6137  0.4649
  799MOL0     C 5390   5.601   3.759   4.552 -0.1473 -0.3851  0.4540
  799MOL0     C 5391   5.732   3.714   4.539 -0.2933  0.9182  0.7781
  799MOL0     C 5392   5.815   3.782   4.446 -0.7823  0.5402 -0.7909
  799MOL0     C 5393   5.778   3.904   4.382 -0.0006  0.0875 -0.1941
  799MOL0     O 5394   5.857   3.973   4.290  0.1604  0.4424 -0.2584
  799MOL0     C 5395   5.989   3.918   4.252 -0.2405  0.2823 -0.0150
  799MOL0     C 5396   6.089   4.023   4.234  0.5233 -0.4814  0.6446
  799MOL0     C 5397   6.179   4.046   4.359  0.1227 -0.7691 -0.0024
  799MOL0     C 5398   6.114   4.079   4.492  0.6966  0.9591  0.0457
  799MOL0     C 5399   6.212   4.155   4.572  0.7828  0.1009  0.5813
  799MOL0     C 5400   6.279   4.229   4.644  0.0526 -1.2068 -0.3241
  799MOL0     C 5401   5.645   3.956   4.400 -1.3833 -0.3309 -0.0473
  799MOL0     C 5402   5.568   3.886   4.496  0.3213  0.7012 -0.6157
  799MOL0     H 5403   5.287   3.548   4.558 -0.2670  0.3913  0.5424
  799MOL0     H 5404   5.099   3.409   4.647  1.1129 -0.0179  0.0005
  799MOL0     H 5405   4.972   3.399   4.888 -0.9342  2.6979  2.8363
  799MOL0     H 5406   5.052   3.359   5.031  1.2537 -1.2867 -0.4886
  799MOL0     H 5407   4.850   3.153   4.926 -0.6380  0.9180  0.1943
  799MOL0     H 5408   4.815   3.297   5.028  3.3164  2.9745  2.5241
  799MOL0     H 5409   4.983   3.221   5.196 -1.2124 -0.0605  0.1311
  799MOL0     H 5410   5.025   3.077   5.102 -1.0146 -0.8034 -0.3135
  799MOL0     H 5411   4.739   3.070   5.126 -1.2753  2.0226  2.3083
  799MOL0     H 5412   4.868   2.963   5.194 -1.2246 -0.6026 -2.2741
  799MOL0     H 5413   4.788   3.228   5.309  0.8470  0.2720 -0.7813
  799MOL0     H 5414   4.879   3.092   5.391 -0.9220 -3.5127 -0.8847
  799MOL0     H 5415   4.648   2.963   5.368 -1.0873 -0.1028  0.3582
  799MOL0     H 5416   4.581   3.118   5.321 -0.5464 -2.8870 -0.2444
  799MOL0     H 5417   4.560   3.070   5.564 -0.8409  0.9600  0.2833
  799MOL0     H 5418   4.737   3.055   5.585  0.7124 -0.7914 -1.5107
  799MOL0     H 5419   4.745   3.302   5.524 -0.9825  3.3475  0.3690
  799MOL0     H 5420   4.676   3.257   5.675 -1.5109  0.6263  0.4196
  799MOL0     H 5421   4.620   3.521   5.571  2.4881 -2.3518 -0.2711
  799MOL0     H 5422   4.305   3.662   5.440 -1.2237  1.6454  0.1345
  799MOL0     H 5423   4.413   3.701   5.574  0.1175 -0.0307  0.8349
  799MOL0     H 5424   4.237   3.603   5.740  1.0948  1.2840  0.0328
  799MOL0     H 5425   4.156   3.546   5.599  0.0952  0.5173  1.0538
  799MOL0     H 5426   4.193   3.835   5.684  0.0235 -0.9104  1.7046
  799MOL0     H 5427   4.152   3.807   5.521 -0.2011  5.0708  2.5216
  799MOL0     H 5428   3.943   3.694   5.577  0.0943 -0.7053  1.4850
  799MOL0     H 5429   3.965   3.843   5.665 -0.7336 -0.8591  2.3944
  799MOL0     H 5430   3.958   3.516   5.989 -2.7566 -0.1970  3.6088
  799MOL0     H 5431   3.768   3.490   6.122  1.8660 -1.6128 -1.7505
  799MOL0     H 5432   3.383   3.733   6.303  0.2610 -2.2402 -1.4895
  799MOL0     H 5433   3.155   3.786   6.401  0.2177  1.6328 -0.7324
  799MOL0     H 5434   2.971   3.776   6.487 -0.3155  0.6605 -0.8042
  799MOL0     H 5435   2.833   3.673   6.453 -1.2957  0.7747 -1.8748
  799MOL0     H 5436   2.859   3.979   6.446  0.6735  0.7471 -2.0309
  799MOL0     H 5437   2.754   3.879   6.547 -1.5851  0.9187 -0.3208
  799MOL0     H 5438   2.726   3.921   6.241 -2.4218 -0.0965 -1.0543
  799MOL0     H 5439   2.622   3.999   6.352  2.7687  3.4656 -3.8781
  799MOL0     H 5440   2.519   3.824   6.244  0.3612  2.1406  0.8315
  799MOL0     H 5441   2.646   3.702   6.280 -0.3623  0.3931 -0.1681
  799MOL0     H 5442   2.554   3.694   6.516 -0.8321 -0.7099  0.3165
  799MOL0     H 5443   2.429   3.675   6.392 -0.8255  0.2082  0.4580
  799MOL0     H 5444   2.343   3.903   6.443  0.7942  0.9406 -0.2995
  799MOL0     H 5445   2.479   3.933   6.551  0.2066 -1.9846  1.2110
  799MOL0     H 5446   2.270   3.711   6.587  0.0902 -1.4864  2.8046
  799MOL0     H 5447   2.399   3.751   6.700  4.2735  2.8630 -1.1265
  799MOL0     H 5448   2.312   3.981   6.733  0.1215 -0.6601 -0.8458
  799MOL0     H 5449   2.219   3.848   6.787  2.1780 -0.6657  0.9247
  799MOL0     H 5450   2.964   3.699   6.035 -0.3790  0.9586  0.7696
  799MOL0     H 5451   3.182   3.687   5.932 -3.0898  1.6996 -0.4809
  799MOL0     H 5452   3.574   3.813   5.919 -1.4535 -1.7688 -1.1128
  799MOL0     H 5453   3.766   3.824   5.748 -2.0511 -1.0679 -1.7128
  799MOL0     H 5454   5.350   3.237   4.937  0.1353 -1.1455 -1.0870
  799MOL0     H 5455   5.552   3.361   4.810 -0.8363 -2.7830  0.4701
  799MOL0     H 5456   5.768   3.626   4.591 -1.0101 -0.5458 -1.1193
  799MOL0     H 5457   5.914   3.739   4.443 -0.6512  0.7996 -0.1592
  799MOL0     H 5458   5.973   3.877   4.151  2.8219  2.4947 -1.5835
  799MOL0     H 5459   6.029   3.839   4.316 -0.8967 -2.1325 -2.4041
  799MOL0     H 5460   6.151   3.997   4.148 -1.5514  0.1782 -1.1270
  799MOL0     H 5461   6.040   4.114   4.199 -0.1071  0.0112  2.6504
  799MOL0     H 5462   6.245   4.126   4.326 -2.2945  1.1319 -0.5528
  799MOL0     H 5463   6.246   3.961   4.376  1.2219 -1.0111 -4.4112
  799MOL0     H 5464   6.025   4.140   4.473  0.6273  0.4538 -1.3585
  799MOL0     H 5465   6.088   3.983   4.538 -1.2066  2.0117  1.2761
  799MOL0     H 5466   6.330   4.290   4.715 -2.0870 -0.6779  0.8483
  799MOL0     H 5467   5.613   4.047   4.350 -0.5713 -0.6499 -1.1824
  799MOL0     H 5468   5.466   3.917   4.515 -0.1871  0.0083 -2.0436
  800MOL0     O 5469   9.993   0.505   1.525  0.5848  0.0088 -0.4304
  800MOL0     C 5470  10.020   0.451   1.416 -1.2398 -0.0773 -0.9176
  800MOL0     O 5471   9.936   0.426   1.319  0.0644  0.2493 -0.1002
  800MOL0     C 5472   9.801   0.444   1.345 -1.0779 -0.4663  0.7030
  800MOL0     C 5473   9.720   0.352   1.412  0.6902  0.8996 -0.3964
  800MOL0     C 5474   9.587   0.368   1.421  0.4171 -0.5145 -0.5315
  800MOL0     C 5475   9.522   0.486   1.359 -0.1897  0.2127 -0.2307
  800MOL0     O 5476   9.389   0.508   1.356 -0.0699 -0.4925 -1.2580
  800MOL0     C 5477   9.302   0.406   1.406  0.1553 -0.6334  0.0536
  800MOL0     C 5478   9.156   0.442   1.400  0.4965  0.0283  0.1597
  800MOL0     C 5479   9.062   0.322   1.404  0.0114  0.8174 -0.1518
  800MOL0     C 5480   8.923   0.357   1.377 -0.0835 -0.0911 -0.3948
  800MOL0     C 5481   8.840   0.232   1.330 -1.1643 -0.6392 -0.1638
  800MOL0     C 5482   8.814   0.132   1.444 -0.2015 -0.9204 -0.0086
  800MOL0     C 5483   8.752   0.015   1.372  0.3669 -0.4556 -0.0857
  800MOL0     C 5484   8.714  -0.101   1.473  0.1885  0.7112 -0.1911
  800MOL0     N 5485   8.628  -0.053   1.588 -0.3730 -0.8835 -0.3395
  800MOL0     C 5486   8.506   0.019   1.585  0.1299 -0.2335  0.3043
  800MOL0     C 5487   8.493   0.065   1.711  0.7038 -0.0820 -0.1052
  800MOL0     C 5488   8.374   0.151   1.756 -0.8392  0.1647 -0.3191
  800MOL0     C 5489   8.246   0.066   1.749  0.5174  0.2691  0.2368
  800MOL0     C 5490   8.149   0.119   1.867 -0.1882 -0.2770 -0.4356
  800MOL0     C 5491   8.020   0.049   1.856 -0.8334  0.0658  0.3122
  800MOL0     O 5492   7.952   0.087   1.738  0.3401 -0.4118  0.3047
  800MOL0     C 5493   7.814   0.076   1.747 -0.3283  0.2597  0.4264
  800MOL0     C 5494   7.728   0.043   1.863 -0.0424  0.2365  0.1860
  800MOL0     C 5495   7.590   0.035   1.852 -0.2636 -0.0872  0.0821
  800MOL0     C 5496   7.538   0.087   1.738  0.9102  0.7903 -0.7469
  800MOL0     C 5497   7.391   0.084   1.726 -0.0588  0.4250  0.0879
  800MOL0     O 5498   7.317   0.040   1.837  0.1065 -0.1753 -0.1234
  800MOL0     C 5499   7.186   0.054   1.839 -0.2490  0.6026 -0.2523
  800MOL0     C 5500   7.127   0.184   1.841 -0.2711  0.7544  0.2643
  800MOL0     C 5501   6.994   0.210   1.807  0.6731  0.1166 -0.8767
  800MOL0     C 5502   6.904   0.106   1.788  0.0195 -0.5120 -0.0971
  800MOL0     O 5503   6.778   0.143   1.781 -0.1197 -1.0185 -0.2286
  800MOL0     C 5504   6.679   0.074   1.852  1.0282  0.6769  0.0235
  800MOL0     C 5505   6.662   0.142   1.985  0.0603 -0.3711 -0.0673
  800MOL0     C 5506   6.541   0.109   2.073  0.0677  0.6800 -0.4533
  800MOL0     C 5507   6.409   0.112   2.004  0.3656 -0.2079  0.0287
  800MOL0     C 5508   6.273   0.125   2.077  0.2324  0.2998 -0.3905
  800MOL0     C 5509   6.266   0.065   2.220  0.4990  0.8256 -0.9683
  800MOL0     C 5510   6.131   0.099   2.286 -0.1735  0.2788 -0.0084
  800MOL0     C 5511   6.022  -0.008   2.286 -0.7819  0.5963  0.1751
  800MOL0    Cl 5512   5.867   0.056   2.345 -0.3714 -0.1535  0.1548
  800MOL0     C 5513   6.959  -0.019   1.787 -0.1036  0.7049  0.1013
  800MOL0     C 5514   7.103  -0.050   1.795  0.0933 -0.5982 -0.6220
  800MOL0     O 5515   7.340   0.121   1.625  0.5874 -0.5958  1.0171
  800MOL0     C 5516   7.610   0.135   1.633 -0.2731  0.0207 -1.1764
  800MOL0     C 5517   7.751   0.114   1.624 -0.0379 -0.9461  0.0102
  800MOL0     N 5518   8.595   0.015   1.790  0.5494 -0.4283  0.4214
  800MOL0     N 5519   8.668  -0.053   1.717 -0.7598  0.3140  0.3668
  800MOL0     C 5520   9.609   0.582   1.298 -0.0071  0.2250 -0.6086
  800MOL0     C 5521   9.746   0.559   1.289  0.0262 -0.3505 -0.2489
  800MOL0     C 5522  10.165   0.425   1.390 -0.1277 -0.7191 -0.2237
  800MOL0     C 5523  10.263   0.416   1.497  1.0091  0.9545  0.1483
  800MOL0     C 5524  10.395   0.379   1.466 -0.4421 -0.9836  0.2060
  800MOL0     C 5525  10.443   0.369   1.339 -0.6525  0.0345  0.1492
  800MOL0     O 5526  10.583   0.358   1.323  0.0248  0.1159 -0.4555
  800MOL0     C 5527  10.646   0.305   1.208  0.4747 -0.7560  0.5839
  800MOL0     C 5528  10.798   0.269   1.249  0.3946 -0.3030  0.1467
  800MOL0     C 5529  10.877   0.185   1.143 -0.6458  0.7238  0.7614
  800MOL0     C 5530  11.002   0.133   1.224  0.4898 -0.3177  1.2301
  800MOL0     C 5531  11.081   0.063   1.128 -1.0844 -0.1581  1.4213
  800MOL0     C 5532  11.140  -0.012   1.052  0.3625 -0.4207  1.0014
  800MOL0     C 5533  10.352   0.392   1.228  0.4715  0.1262 -0.3767
  800MOL0     C 5534  10.214   0.418   1.260 -0.6889 -0.8826 -0.9675
  800MOL0     H 5535   9.767   0.268   1.461 -1.1038  1.8012  3.1683
  800MOL0     H 5536   9.540   0.289   1.478  1.3801  1.0455  2.6357
  800MOL0     H 5537   9.334   0.402   1.510  0.9509  1.6465 -0.0663
  800MOL0     H 5538   9.315   0.307   1.361 -5.6418 -0.7406 -2.3259
  800MOL0     H 5539   9.137   0.501   1.310  0.9453 -0.3699 -0.2005
  800MOL0     H 5540   9.131   0.507   1.485 -2.4681 -0.8609  0.0582
  800MOL0     H 5541   9.077   0.276   1.503  1.4000 -0.6588 -0.9915
  800MOL0     H 5542   9.095   0.247   1.331 -1.2301  0.1989 -0.1059
  800MOL0     H 5543   8.877   0.382   1.473  1.3604 -2.7880  1.1037
  800MOL0     H 5544   8.913   0.440   1.305  2.8841 -0.6483 -1.5850
  800MOL0     H 5545   8.884   0.179   1.245 -0.0177  3.0278 -2.0556
  800MOL0     H 5546   8.747   0.270   1.288 -0.5493  0.6486 -0.4317
  800MOL0     H 5547   8.749   0.170   1.523 -1.9480 -2.1498 -0.8068
  800MOL0     H 5548   8.915   0.102   1.474  1.3968  1.9013 -2.0087
  800MOL0     H 5549   8.661   0.051   1.324 -0.0838  1.2697  1.8810
  800MOL0     H 5550   8.816  -0.035   1.299 -1.2774 -4.3980  0.9111
  800MOL0     H 5551   8.800  -0.158   1.510 -0.3119 -1.8470 -2.6092
  800MOL0     H 5552   8.651  -0.170   1.416 -0.6709 -0.5031  2.1322
  800MOL0     H 5553   8.434   0.034   1.505  0.5837  1.2034  0.1378
  800MOL0     H 5554   8.370   0.247   1.704 -1.5395  1.2213  1.5918
  800MOL0     H 5555   8.396   0.181   1.859  2.5413 -0.4402 -0.7277
  800MOL0     H 5556   8.265  -0.040   1.765  0.3598  0.0618 -0.8448
  800MOL0     H 5557   8.198   0.083   1.652  1.2598 -0.8544 -0.3520
  800MOL0     H 5558   8.199   0.097   1.962  0.4036 -0.0263 -0.6818
  800MOL0     H 5559   8.140   0.227   1.882  1.5551 -0.3666  1.9023
  800MOL0     H 5560   7.974   0.079   1.950  1.3556 -0.6008  1.6708
  800MOL0     H 5561   8.040  -0.059   1.849 -2.2542 -0.1279 -1.4527
  800MOL0     H 5562   7.771   0.022   1.961 -0.6834 -1.3144  0.1610
  800MOL0     H 5563   7.533   0.013   1.941 -1.5760 -0.1696 -0.7463
  800MOL0     H 5564   7.174   0.282   1.837  2.4209 -0.4202 -4.1131
  800MOL0     H 5565   6.970   0.316   1.801  1.5652  0.3588 -0.3880
  800MOL0     H 5566   6.699  -0.033   1.864 -4.5093 -0.3688  3.2030
  800MOL0     H 5567   6.586   0.074   1.795 -0.3860  2.1706  2.2362
  800MOL0     H 5568   6.658   0.251   1.972  1.9187 -0.1108  1.2201
  800MOL0     H 5569   6.745   0.109   2.049 -0.4246  1.5194  1.6767
  800MOL0     H 5570   6.537   0.180   2.157  0.2336 -1.5066  1.4825
  800MOL0     H 5571   6.554   0.010   2.117  0.6751  0.8346 -0.2796
  800MOL0     H 5572   6.417   0.184   1.923  0.5860 -1.9888 -1.5978
  800MOL0     H 5573   6.397   0.013   1.960 -0.3453  0.2121 -0.7277
  800MOL0     H 5574   6.203   0.076   2.009  0.8105 -1.2956  0.1275
  800MOL0     H 5575   6.252   0.232   2.092  0.8187  0.2866  0.6735
  800MOL0     H 5576   6.348   0.116   2.271  0.6863  0.4853 -0.9244
  800MOL0     H 5577   6.284  -0.043   2.221  1.1960  0.9269 -1.9356
  800MOL0     H 5578   6.143   0.146   2.384  0.1902  2.2717 -0.9617
  800MOL0     H 5579   6.094   0.179   2.222  2.9439  0.1064 -2.2605
  800MOL0     H 5580   6.060  -0.096   2.340 -0.9143  0.1292 -0.4770
  800MOL0     H 5581   6.003  -0.046   2.185  1.7054 -1.1749  0.2696
  800MOL0     H 5582   6.891  -0.099   1.762  1.0953 -0.4310  0.3767
  800MOL0     H 5583   7.136  -0.152   1.782  1.9933 -0.3448  1.6093
  800MOL0     H 5584   7.562   0.170   1.542  1.2320 -1.9312 -2.8303
  800MOL0     H 5585   7.798   0.144   1.530 -0.4446 -1.2058 -0.2800
  800MOL0     H 5586   9.565   0.669   1.252  0.0017 -0.6302 -2.3193
  800MOL0     H 5587   9.808   0.635   1.242  0.2089  0.1948  0.8508
  800MOL0     H 5588  10.238   0.438   1.600  0.2376  1.8452 -0.2264
  800MOL0     H 5589  10.465   0.373   1.549 -0.9239  1.2529  0.8303
  800MOL0     H 5590  10.639   0.377   1.126 -1.2224 -0.6691  0.7594
  800MOL0     H 5591  10.594   0.215   1.174 -1.5980  1.2326 -1.9388
  800MOL0     H 5592  10.848   0.366   1.259 -0.3222  0.1893 -0.8706
  800MOL0     H 5593  10.792   0.223   1.349 -1.2362 -2.1198 -0.7104
  800MOL0     H 5594  10.921   0.242   1.061  1.1908 -2.6020 -0.7655
  800MOL0     H 5595  10.817   0.108   1.094  1.4640  1.0958 -2.6985
  800MOL0     H 5596  11.050   0.225   1.257 -0.0024  0.4558 -0.1101
  800MOL0     H 5597  10.966   0.070   1.306  1.5485 -0.2773  1.7388
  800MOL0     H 5598  11.195  -0.081   0.990  0.0065 -0.9193  1.2279
  800MOL0     H 5599  10.383   0.393   1.124 -0.7456 -3.0911 -0.8778
  800MOL0     H 5600  10.148   0.449   1.180 -3.0479  1.2110  1.5859
  801MOL0     O 5601   0.084  10.424   6.928  0.5621  0.4287 -0.4343
  801MOL0     C 5602   0.089  10.298   6.939  0.2987 -0.5664  0.2175
  801MOL0     O 5603  -0.002  10.213   6.884  0.0199 -0.2941  0.1062
  801MOL0     C 5604  -0.122  10.267   6.849 -0.4311  0.4546  0.1984
  801MOL0     C 5605  -0.237  10.264   6.929 -0.2679  0.3154 -0.2730
  801MOL0     C 5606  -0.358  10.319   6.892 -0.3230 -0.4452 -0.5011
  801MOL0     C 5607  -0.372  10.375   6.764  1.1738 -0.4403  0.3017
  801MOL0     O 5608  -0.509  10.406   6.729 -0.7249 -0.2609  0.1809
  801MOL0     C 5609  -0.536  10.445   6.594  0.0387  0.3265  1.0772
  801MOL0     C 5610  -0.684  10.477   6.574 -0.3988  0.0376 -0.9162
  801MOL0     C 5611  -0.769  10.351   6.545  0.9208  0.1213 -0.1982
  801MOL0     C 5612  -0.923  10.370   6.529 -0.3907  0.0384  0.2519
  801MOL0     C 5613  -0.989  10.233   6.522  0.1296  0.3667  0.1004
  801MOL0     C 5614  -1.140  10.237   6.558 -1.0626 -0.4919  0.1030
  801MOL0     C 5615  -1.223  10.339   6.491 -0.4583 -0.7904  0.1621
  801MOL0     C 5616  -1.365  10.347   6.547 -0.8011  0.3647 -0.6285
  801MOL0     N 5617  -1.459  10.425   6.469 -0.5839  0.2000  0.1070
  801MOL0     C 5618  -1.558  10.379   6.395  0.6612  0.1117  0.9938
  801MOL0     C 5619  -1.637  10.481   6.359 -0.8637  0.8325  0.1279
  801MOL0     C 5620  -1.761  10.468   6.283 -0.5114 -0.3355  0.5115
  801MOL0     C 5621  -1.870  10.377   6.341 -0.1601 -0.1868  0.6437
  801MOL0     C 5622  -1.986  10.381   6.244 -0.7396 -0.9751 -0.6063
  801MOL0     C 5623  -2.095  10.287   6.285 -0.2427  0.4802  0.1128
  801MOL0     O 5624  -2.160  10.323   6.407 -0.3227  0.2543 -0.3889
  801MOL0     C 5625  -2.276  10.262   6.440  0.1971  0.4519 -0.5575
  801MOL0     C 5626  -2.350  10.173   6.358  0.0801  0.5751  0.3656
  801MOL0     C 5627  -2.465  10.112   6.413 -0.6944 -0.0358 -0.7479
  801MOL0     C 5628  -2.527  10.155   6.536  0.1690  0.1678  0.3105
  801MOL0     C 5629  -2.657  10.097   6.582  0.2900 -0.2804  0.2039
  801MOL0     O 5630  -2.727  10.017   6.491  0.7072  0.7832 -0.0709
  801MOL0     C 5631  -2.824   9.931   6.554  0.3833  0.2424  0.7360
  801MOL0     C 5632  -2.959   9.966   6.522 -0.1455 -0.5795  0.3893
  801MOL0     C 5633  -3.055   9.875   6.571 -1.2073  0.2969 -1.0065
  801MOL0     C 5634  -3.031   9.765   6.653  0.0627  0.3896  0.5917
  801MOL0     O 5635  -3.134   9.691   6.696 -0.1221 -0.2021 -0.2238
  801MOL0     C 5636  -3.109   9.555   6.722 -0.5969  0.2135  0.8128
  801MOL0     C 5637  -3.237   9.495   6.770 -0.2074  0.7747 -0.1661
  801MOL0     C 5638  -3.347   9.486   6.669  0.3760 -0.5490  0.7098
  801MOL0     C 5639  -3.476   9.427   6.726  0.8249  0.5919  0.6946
  801MOL0     C 5640  -3.585   9.421   6.621 -0.2139  0.4164 -0.4738
  801MOL0     C 5641  -3.719   9.375   6.675 -0.4436  1.0149  0.0966
  801MOL0     C 5642  -3.770   9.474   6.780  0.9537  0.0999 -0.2973
  801MOL0     C 5643  -3.914   9.435   6.817  0.2314 -0.3748 -1.4579
  801MOL0    Cl 5644  -4.020   9.414   6.669  0.0868  0.4023 -0.2210
  801MOL0     C 5645  -2.893   9.731   6.671  0.1815 -0.2902 -0.2523
  801MOL0     C 5646  -2.789   9.816   6.623  0.6620  0.5333  0.0530
  801MOL0     O 5647  -2.697  10.144   6.689  0.8893 -0.4054 -0.3364
  801MOL0     C 5648  -2.456  10.245   6.608  0.2775 -0.1686  0.4931
  801MOL0     C 5649  -2.340  10.296   6.559  0.1175 -0.3508 -0.3833
  801MOL0     N 5650  -1.574  10.593   6.412 -0.6896 -0.4786 -0.5737
  801MOL0     N 5651  -1.469  10.563   6.480 -0.8093  0.6379  0.1097
  801MOL0     C 5652  -0.258  10.384   6.681 -0.1073  0.2592 -0.2449
  801MOL0     C 5653  -0.135  10.325   6.720 -0.3180 -0.2762  0.2539
  801MOL0     C 5654   0.211  10.234   6.994 -0.4303 -0.1144 -0.2812
  801MOL0     C 5655   0.302  10.301   7.067  0.1634 -0.1702  0.6138
  801MOL0     C 5656   0.419  10.238   7.110 -0.7275  0.3777  0.3358
  801MOL0     C 5657   0.436  10.102   7.089 -0.1251 -0.5120 -0.1445
  801MOL0     O 5658   0.558  10.051   7.147  0.0735  0.0897 -0.6942
  801MOL0     C 5659   0.587   9.910   7.134  0.6166  0.3425 -0.4765
  801MOL0     C 5660   0.667   9.873   7.002 -0.1268  0.2240  0.4781
  801MOL0     C 5661   0.654   9.728   6.944 -0.6336 -0.0157 -0.1780
  801MOL0     C 5662   0.744   9.709   6.823  0.2652  1.1952  0.5943
  801MOL0     C 5663   0.752   9.563   6.785  0.3278 -0.6798  0.1843
  801MOL0     C 5664   0.751   9.453   6.745  0.0905  0.6142 -0.5435
  801MOL0     C 5665   0.345  10.031   7.021  0.0663  0.3603 -0.7973
  801MOL0     C 5666   0.233  10.094   6.966 -0.5988  0.2419 -0.0455
  801MOL0     H 5667  -0.220  10.219   7.027  0.4657 -0.5431 -0.7839
  801MOL0     H 5668  -0.440  10.316   6.963 -0.5416  0.5827 -0.6898
  801MOL0     H 5669  -0.503  10.364   6.528 -0.4498 -0.6081  1.9408
  801MOL0     H 5670  -0.470  10.525   6.558  1.0286 -1.4212 -1.2798
  801MOL0     H 5671  -0.703  10.558   6.503 -3.4923  1.2678  1.0880
  801MOL0     H 5672  -0.727  10.509   6.669 -1.4038  3.7583 -2.4346
  801MOL0     H 5673  -0.752  10.273   6.620 -0.9502 -0.4204 -0.2983
  801MOL0     H 5674  -0.737  10.318   6.446  0.6284  0.0756 -0.2772
  801MOL0     H 5675  -0.977  10.429   6.603 -0.0554 -2.1024  2.3300
  801MOL0     H 5676  -0.935  10.419   6.432 -2.8205 -2.7215 -0.9920
  801MOL0     H 5677  -0.933  10.164   6.585 -0.8626  0.9277  1.6546
  801MOL0     H 5678  -0.982  10.191   6.421  0.4814 -0.3347  0.4063
  801MOL0     H 5679  -1.139  10.267   6.663 -1.6418 -0.8319  0.2111
  801MOL0     H 5680  -1.178  10.135   6.549  2.7904 -2.4640  2.9322
  801MOL0     H 5681  -1.183  10.441   6.498 -3.0702  0.8927 -4.6397
  801MOL0     H 5682  -1.227  10.312   6.385 -1.3325 -0.8472  0.2041
  801MOL0     H 5683  -1.358  10.393   6.646  4.0826  0.6050 -0.8030
  801MOL0     H 5684  -1.393  10.242   6.557  3.2534 -0.9904 -1.3119
  801MOL0     H 5685  -1.582  10.275   6.372  0.3848  0.6200 -1.2095
  801MOL0     H 5686  -1.755  10.433   6.179 -5.4336 -1.7659  0.4176
  801MOL0     H 5687  -1.801  10.569   6.274  0.6109  0.0985  0.2745
  801MOL0     H 5688  -1.889  10.410   6.443 -3.4885 -1.7579  0.6675
  801MOL0     H 5689  -1.827  10.276   6.348  1.8438  0.6360  0.7893
  801MOL0     H 5690  -2.033  10.479   6.226  0.4102 -0.2193  0.3309
  801MOL0     H 5691  -1.958  10.337   6.148 -4.2485 -3.0959 -0.8188
  801MOL0     H 5692  -2.060  10.185   6.302 -0.6241  0.3753  0.2881
  801MOL0     H 5693  -2.163  10.286   6.199 -0.4903  2.1123  0.2637
  801MOL0     H 5694  -2.323  10.158   6.253  2.1846 -0.8657  1.0442
  801MOL0     H 5695  -2.518  10.045   6.347  0.6497 -0.2667 -1.6482
  801MOL0     H 5696  -2.975  10.056   6.464 -1.2596 -0.8034  0.3280
  801MOL0     H 5697  -3.158   9.906   6.557 -0.9451  0.8299 -1.8551
  801MOL0     H 5698  -3.034   9.535   6.800 -0.2336 -2.6723 -0.1482
  801MOL0     H 5699  -3.073   9.510   6.629  1.0130  2.7943  0.0809
  801MOL0     H 5700  -3.274   9.545   6.859 -2.4332 -0.6382 -0.2268
  801MOL0     H 5701  -3.201   9.396   6.800  0.5038  0.5516 -1.6432
  801MOL0     H 5702  -3.307   9.424   6.589 -0.0078  2.5255 -2.0836
  801MOL0     H 5703  -3.366   9.584   6.624 -0.0970 -1.1458 -0.4231
  801MOL0     H 5704  -3.461   9.321   6.746 -0.1166  0.8106  2.8491
  801MOL0     H 5705  -3.513   9.469   6.820  1.4746  0.3872  1.0454
  801MOL0     H 5706  -3.545   9.351   6.547 -0.1983  1.7761 -1.7834
  801MOL0     H 5707  -3.607   9.521   6.584  1.6695  1.5122  1.1728
  801MOL0     H 5708  -3.705   9.276   6.720 -0.2600  1.3977  0.8827
  801MOL0     H 5709  -3.783   9.365   6.586  0.5049  1.7979 -0.6911
  801MOL0     H 5710  -3.722   9.468   6.878 -3.0135 -1.5081  1.8024
  801MOL0     H 5711  -3.786   9.573   6.735  0.0095  0.2636  0.3676
  801MOL0     H 5712  -3.953   9.522   6.871 -0.2506 -0.8671 -1.0056
  801MOL0     H 5713  -3.914   9.339   6.870 -1.2747 -0.6444 -1.9091
  801MOL0     H 5714  -2.863   9.643   6.727 -0.3549  0.7059  1.7149
  801MOL0     H 5715  -2.686   9.781   6.622  1.0993  1.6116 -3.1757
  801MOL0     H 5716  -2.482  10.289   6.704  3.1388  2.5498  0.1685
  801MOL0     H 5717  -2.289  10.374   6.616  0.8831 -1.3154  0.2985
  801MOL0     H 5718  -0.263  10.426   6.581 -1.1201  1.3719  0.2453
  801MOL0     H 5719  -0.049  10.324   6.653 -0.6881 -1.3649 -0.2235
  801MOL0     H 5720   0.286  10.405   7.096 -2.1868 -0.6767  1.3031
  801MOL0     H 5721   0.491  10.282   7.177 -1.6315  1.3696  0.6848
  801MOL0     H 5722   0.487   9.867   7.146 -0.9484  3.5379 -1.0753
  801MOL0     H 5723   0.645   9.885   7.224 -1.8606  0.8363  1.3664
  801MOL0     H 5724   0.636   9.945   6.926 -1.5542 -1.2348 -0.3678
  801MOL0     H 5725   0.774   9.894   7.010  0.4509 -1.8578 -0.9928
  801MOL0     H 5726   0.550   9.706   6.920  0.3517 -2.2934 -2.9222
  801MOL0     H 5727   0.671   9.672   7.037 -3.5122  0.6831  0.8632
  801MOL0     H 5728   0.698   9.758   6.737  0.8936 -2.7679 -2.2865
  801MOL0     H 5729   0.849   9.742   6.825  1.2764 -1.4589 -1.7960
  801MOL0     H 5730   0.743   9.353   6.706  1.3014 -0.0121  0.7500
  801MOL0     H 5731   0.339   9.923   7.007  0.0086  0.1590  0.6739
  801MOL0     H 5732   0.161  10.032   6.915  0.5413 -1.2780  0.1182
  802MOL0     O 5733  10.217   5.908   3.166 -0.4379 -0.6345 -0.1677
  802MOL0     C 5734  10.265   6.006   3.107  0.3498 -0.4718 -0.3800
  802MOL0     O 5735  10.191   6.107   3.054 -0.0134  0.5713 -0.4138
  802MOL0     C 5736  10.053   6.117   3.063 -0.3556  0.7561  0.3808
  802MOL0     C 5737   9.964   6.014   3.061  0.4709 -0.2969  1.1031
  802MOL0     C 5738   9.824   6.039   3.079  0.1789  0.1228  1.0223
  802MOL0     C 5739   9.775   6.176   3.097  0.0212  0.7567  0.2260
  802MOL0     O 5740   9.641   6.205   3.098 -0.0148  0.1136  0.8071
  802MOL0     C 5741   9.600   6.317   3.023  0.4212  0.3657 -0.0942
  802MOL0     C 5742   9.454   6.346   3.076  0.8596  0.3584 -0.2925
  802MOL0     C 5743   9.354   6.245   3.037 -0.0229 -0.0250 -0.1512
  802MOL0     C 5744   9.214   6.285   3.098 -0.0497  0.0730 -0.1880
  802MOL0     C 5745   9.124   6.161   3.071  0.0694 -0.2283  0.0475
  802MOL0     C 5746   8.988   6.174   3.134  0.4446  0.3385 -0.2156
  802MOL0     C 5747   8.897   6.059   3.099 -0.5191  0.1106  0.0648
  802MOL0     C 5748   8.931   5.919   3.151  1.0584  0.1907 -0.9522
  802MOL0     N 5749   8.857   5.815   3.078  0.1753  0.3379 -0.5468
  802MOL0     C 5750   8.900   5.768   2.953  0.5007 -0.7300 -0.5990
  802MOL0     C 5751   8.829   5.660   2.935 -0.8846  0.2217 -0.1252
  802MOL0     C 5752   8.831   5.567   2.812  0.9216 -0.1873  0.2410
  802MOL0     C 5753   8.959   5.481   2.784 -0.1927  0.1424 -1.0432
  802MOL0     C 5754   9.093   5.555   2.786 -0.4458  0.1716  0.6753
  802MOL0     C 5755   9.215   5.485   2.728 -0.1853  0.1414  0.0263
  802MOL0     O 5756   9.197   5.459   2.588 -0.1238  0.0969  0.2074
  802MOL0     C 5757   9.305   5.402   2.534  0.4570 -0.6560  0.1024
  802MOL0     C 5758   9.289   5.359   2.401  0.3138 -0.2578 -0.0278
  802MOL0     C 5759   9.387   5.287   2.339  0.1381  0.6570 -0.1034
  802MOL0     C 5760   9.509   5.259   2.407  0.1534  0.3435 -0.9311
  802MOL0     C 5761   9.604   5.163   2.354 -0.5542 -1.5134 -0.4753
  802MOL0     O 5762   9.589   5.100   2.233  0.4304 -0.1672 -0.2561
  802MOL0     C 5763   9.699   5.035   2.184 -0.5313  0.2688 -0.6472
  802MOL0     C 5764   9.699   4.900   2.162  0.0276  0.3173 -0.5363
  802MOL0     C 5765   9.813   4.830   2.111  0.0573 -0.0662  0.0729
  802MOL0     C 5766   9.931   4.903   2.063  0.9043 -0.7372 -0.8420
  802MOL0     O 5767  10.042   4.834   2.024 -0.4380 -1.0104  1.1720
  802MOL0     C 5768  10.032   4.690   2.009  0.5650 -0.0851  0.1140
  802MOL0     C 5769  10.150   4.625   1.942  0.2817  0.1188  0.3461
  802MOL0     C 5770  10.285   4.645   2.016  0.3103  0.3528  0.7823
  802MOL0     C 5771  10.400   4.589   1.936  0.4981 -0.3489 -0.0097
  802MOL0     C 5772  10.538   4.610   1.995 -0.0388  0.2564  0.5311
  802MOL0     C 5773  10.571   4.758   2.018  0.2020  0.5962  0.4184
  802MOL0     C 5774  10.529   4.857   1.906  0.9219  1.0398 -0.6076
  802MOL0     C 5775  10.580   5.002   1.926  0.2263 -0.6907 -0.5217
  802MOL0    Cl 5776  10.460   5.103   2.019 -0.2015 -0.0561  0.0782
  802MOL0     C 5777   9.927   5.048   2.086  0.0086  0.1076 -0.6214
  802MOL0     C 5778   9.815   5.107   2.147 -0.2379 -0.1143  0.6233
  802MOL0     O 5779   9.712   5.169   2.418 -0.2270  0.1541 -0.6410
  802MOL0     C 5780   9.527   5.309   2.542  0.2326 -0.2614 -0.1571
  802MOL0     C 5781   9.426   5.381   2.605 -0.2736  0.4748  0.4150
  802MOL0     N 5782   8.746   5.637   3.042 -0.6768  0.3420  0.9359
  802MOL0     N 5783   8.761   5.732   3.128  0.2858 -1.0051  0.6812
  802MOL0     C 5784   9.876   6.275   3.087 -0.2647 -0.1633 -0.3876
  802MOL0     C 5785  10.010   6.243   3.087  0.6077  0.0137 -0.3674
  802MOL0     C 5786  10.412   6.004   3.093 -0.7030  0.5524  0.6039
  802MOL0     C 5787  10.478   6.125   3.070 -0.0259  0.4804  0.5727
  802MOL0     C 5788  10.614   6.138   3.068  0.0065  0.4706  0.1679
  802MOL0     C 5789  10.695   6.023   3.085 -0.2438  0.1618 -0.4115
  802MOL0     O 5790  10.831   6.046   3.079  0.2870  1.4901 -0.5258
  802MOL0     C 5791  10.909   5.930   3.090  0.1357 -0.1109 -0.1382
  802MOL0     C 5792  11.046   5.984   3.047  0.4558  0.2823 -0.1910
  802MOL0     C 5793  11.143   5.875   3.007  0.6664  0.3836  0.2406
  802MOL0     C 5794  11.272   5.927   2.955 -0.3266  0.2154 -0.8522
  802MOL0     C 5795  11.366   5.819   2.927  1.0073  0.3241 -1.0975
  802MOL0     C 5796  11.469   5.758   2.920  0.0795 -0.2285 -0.5980
  802MOL0     C 5797  10.632   5.896   3.109  0.0324 -0.3111  0.6069
  802MOL0     C 5798  10.495   5.888   3.117  0.1099 -0.4734  0.1545
  802MOL0     H 5799  10.008   5.915   3.051  1.1507  0.0561  0.5370
  802MOL0     H 5800   9.745   5.966   3.062 -0.8381  2.0680 -4.7883
  802MOL0     H 5801   9.601   6.307   2.914  2.4872 -0.4675 -0.0339
  802MOL0     H 5802   9.657   6.406   3.053 -0.4534  1.1445 -0.6826
  802MOL0     H 5803   9.421   6.448   3.054  2.1752  0.7420 -0.5663
  802MOL0     H 5804   9.470   6.331   3.183 -0.3313 -1.4850 -0.3264
  802MOL0     H 5805   9.383   6.147   3.075 -2.1997  0.2519  2.5206
  802MOL0     H 5806   9.350   6.223   2.930  1.5264 -1.4645  0.0513
  802MOL0     H 5807   9.220   6.289   3.207 -3.6383  0.3483  0.1181
  802MOL0     H 5808   9.172   6.381   3.067  0.0200 -0.0597 -0.6912
  802MOL0     H 5809   9.173   6.080   3.125  0.4290  0.1817  0.3294
  802MOL0     H 5810   9.119   6.137   2.964  0.7627  2.1456 -0.5821
  802MOL0     H 5811   8.933   6.263   3.104  1.5001  0.3799 -2.2110
  802MOL0     H 5812   9.000   6.186   3.242  2.0337 -0.5913 -0.2574
  802MOL0     H 5813   8.799   6.083   3.140  0.1103  1.5013  0.8280
  802MOL0     H 5814   8.886   6.057   2.990  1.0833  1.1345 -0.1521
  802MOL0     H 5815   8.918   5.919   3.260  2.6196  1.2535 -0.7323
  802MOL0     H 5816   9.037   5.898   3.132  1.1871  0.5305 -0.6293
  802MOL0     H 5817   8.965   5.819   2.883 -1.3363  0.5916 -1.4242
  802MOL0     H 5818   8.810   5.622   2.720 -0.2003  0.7577  1.0254
  802MOL0     H 5819   8.743   5.502   2.819  1.1486 -0.3259  2.5794
  802MOL0     H 5820   8.956   5.434   2.686  0.9816 -0.6532 -0.7268
  802MOL0     H 5821   8.975   5.401   2.857  4.1140  1.7532  0.0822
  802MOL0     H 5822   9.080   5.635   2.713  1.6983 -0.3866 -0.4149
  802MOL0     H 5823   9.113   5.599   2.884 -3.0113 -0.0008  1.3337
  802MOL0     H 5824   9.243   5.395   2.782  3.6722  0.3680 -1.2712
  802MOL0     H 5825   9.303   5.549   2.737  1.0099 -1.2463 -1.2618
  802MOL0     H 5826   9.192   5.391   2.364  0.5334  0.6113  0.1141
  802MOL0     H 5827   9.382   5.237   2.243  0.9367 -0.0197  0.1877
  802MOL0     H 5828   9.604   4.849   2.173  0.6760 -0.7565  0.2987
  802MOL0     H 5829   9.805   4.722   2.109  0.8057 -0.2244  2.3875
  802MOL0     H 5830   9.941   4.661   1.955 -0.7009  1.1299  1.4743
  802MOL0     H 5831  10.019   4.640   2.106  0.7996 -0.0869  0.1450
  802MOL0     H 5832  10.161   4.665   1.841  0.2622 -2.1188 -0.6011
  802MOL0     H 5833  10.139   4.517   1.932  2.5282 -0.1171 -0.1023
  802MOL0     H 5834  10.276   4.585   2.106  0.0257 -1.5924 -0.4909
  802MOL0     H 5835  10.296   4.753   2.032 -1.1943  0.6634 -0.1563
  802MOL0     H 5836  10.388   4.480   1.940 -1.7836 -0.1867 -1.1067
  802MOL0     H 5837  10.391   4.628   1.834 -0.2244  0.9005  0.5142
  802MOL0     H 5838  10.609   4.566   1.926  0.7645  2.0876  0.1302
  802MOL0     H 5839  10.550   4.558   2.090  1.2167 -1.1462 -0.3618
  802MOL0     H 5840  10.678   4.765   2.038  0.2064  4.1178 -0.1999
  802MOL0     H 5841  10.515   4.780   2.110 -2.0137 -3.1415  0.2168
  802MOL0     H 5842  10.569   4.820   1.811 -0.6921 -3.2578  0.1773
  802MOL0     H 5843  10.421   4.864   1.890  0.4614  0.0924  1.7112
  802MOL0     H 5844  10.610   5.048   1.831 -3.9121  3.2406 -0.2603
  802MOL0     H 5845  10.674   5.012   1.982 -0.3495  2.3914  0.1037
  802MOL0     H 5846  10.006   5.114   2.052 -0.4121  1.5509  1.0686
  802MOL0     H 5847   9.811   5.216   2.145 -1.8563 -0.1476  0.6624
  802MOL0     H 5848   9.627   5.290   2.582  1.0198  0.9757 -1.4519
  802MOL0     H 5849   9.442   5.405   2.710 -0.5433  0.3808  0.4788
  802MOL0     H 5850   9.851   6.381   3.086 -0.0529 -0.1151 -0.6082
  802MOL0     H 5851  10.087   6.319   3.099 -1.0253  1.6997 -0.1020
  802MOL0     H 5852  10.424   6.213   3.038  3.7184  1.9048 -2.7128
  802MOL0     H 5853  10.660   6.234   3.049 -0.3800  1.3979  3.3010
  802MOL0     H 5854  10.877   5.850   3.023  0.5231  0.4933 -1.0632
  802MOL0     H 5855  10.914   5.891   3.192 -1.7432  0.8394  0.3745
  802MOL0     H 5856  11.037   6.044   2.956 -4.3329 -1.1625 -0.9622
  802MOL0     H 5857  11.078   6.035   3.138  1.7062 -0.6745 -0.0653
  802MOL0     H 5858  11.096   5.820   2.925 -1.1064 -1.6231  2.4278
  802MOL0     H 5859  11.147   5.805   3.091 -2.4658  0.5593  0.6660
  802MOL0     H 5860  11.253   5.988   2.866  0.0670 -0.2261 -1.2382
  802MOL0     H 5861  11.316   5.990   3.033 -0.9719 -0.4241  0.0468
  802MOL0     H 5862  11.569   5.719   2.919  0.4087  0.4297  1.9528
  802MOL0     H 5863  10.685   5.803   3.127 -2.7829 -2.0227  0.5549
  802MOL0     H 5864  10.450   5.789   3.126  2.1139 -1.4183  0.2341
  803MOL0     O 5865   8.276   3.151   8.695  0.4763  1.0629 -0.6147
  803MOL0     C 5866   8.313   3.242   8.623 -0.2293 -0.3406 -0.4688
  803MOL0     O 5867   8.226   3.330   8.556 -0.4306  0.1218 -0.3710
  803MOL0     C 5868   8.092   3.287   8.546  0.7966  0.2085 -0.6341
  803MOL0     C 5869   8.005   3.324   8.645 -1.3276  0.3716 -0.0658
  803MOL0     C 5870   7.868   3.312   8.634 -0.3032  1.4052  0.0655
  803MOL0     C 5871   7.828   3.216   8.540  1.0544  0.5241 -0.5697
  803MOL0     O 5872   7.701   3.154   8.528  0.2546  0.0677  0.0167
  803MOL0     C 5873   7.604   3.196   8.627 -0.1477 -0.6554 -0.0428
  803MOL0     C 5874   7.466   3.136   8.599  0.0285  0.5515 -0.8630
  803MOL0     C 5875   7.408   3.214   8.487  0.5258  0.4852  0.4379
  803MOL0     C 5876   7.298   3.128   8.414  0.2222  0.6442 -0.3972
  803MOL0     C 5877   7.189   3.072   8.512 -0.1190  0.6883 -0.4372
  803MOL0     C 5878   7.089   3.001   8.431  0.5185 -0.2518  0.2536
  803MOL0     C 5879   6.997   2.925   8.521  0.1403  0.1868 -0.1775
  803MOL0     C 5880   6.876   2.885   8.441  0.5738 -0.7331  1.2480
  803MOL0     N 5881   6.804   2.798   8.526  0.0360  0.2978 -0.7447
  803MOL0     C 5882   6.833   2.665   8.546  0.9601 -0.4650  0.4823
  803MOL0     C 5883   6.725   2.621   8.624 -0.1244 -0.1777  0.8470
  803MOL0     C 5884   6.694   2.482   8.646 -0.8993  0.9167  0.0067
  803MOL0     C 5885   6.713   2.384   8.525 -0.1587 -0.3001 -1.2131
  803MOL0     C 5886   6.616   2.412   8.409 -0.3236  0.2562 -0.4809
  803MOL0     C 5887   6.602   2.297   8.311  0.5113 -0.0368  0.4299
  803MOL0     O 5888   6.549   2.175   8.362  0.4476  0.3263  0.1433
  803MOL0     C 5889   6.409   2.157   8.382 -0.5539 -0.6914  1.1624
  803MOL0     C 5890   6.316   2.262   8.379 -0.1354 -0.0836  0.0601
  803MOL0     C 5891   6.185   2.236   8.397  0.0802 -0.2214  0.8687
  803MOL0     C 5892   6.134   2.106   8.421 -0.2236 -0.7589  0.1535
  803MOL0     C 5893   5.984   2.090   8.427  0.2939  0.1854  0.1961
  803MOL0     O 5894   5.943   1.958   8.438  0.0575 -0.1734  0.3955
  803MOL0     C 5895   5.808   1.928   8.423 -0.7193  0.2996  0.3246
  803MOL0     C 5896   5.744   1.852   8.518  0.1715 -0.0324 -0.3516
  803MOL0     C 5897   5.613   1.811   8.506 -0.1617 -0.7660  0.2848
  803MOL0     C 5898   5.541   1.843   8.392  0.6075  0.4729  0.5852
  803MOL0     O 5899   5.407   1.810   8.358 -0.4922  0.0510 -0.1631
  803MOL0     C 5900   5.394   1.664   8.352 -0.0415  0.4543 -0.4281
  803MOL0     C 5901   5.246   1.626   8.346  0.9343 -0.0211 -1.2192
  803MOL0     C 5902   5.190   1.680   8.214 -0.0208 -0.6674  0.3237
  803MOL0     C 5903   5.040   1.650   8.198  0.1056  0.8438  0.0978
  803MOL0     C 5904   5.000   1.504   8.218 -0.2241 -0.1553 -0.2666
  803MOL0     C 5905   4.970   1.471   8.362  0.1328  0.6906 -0.5940
  803MOL0     C 5906   4.936   1.317   8.387  0.1119  0.1259 -0.5831
  803MOL0     C 5907   4.827   1.284   8.485 -0.0186  0.3285 -0.7494
  803MOL0    Cl 5908   4.885   1.300   8.653  0.4810 -0.0411  0.1180
  803MOL0     C 5909   5.612   1.915   8.291  0.3488 -0.0539  0.0120
  803MOL0     C 5910   5.739   1.962   8.307  0.3741  0.3561 -0.2491
  803MOL0     O 5911   5.906   2.187   8.412  0.0235  0.4766  0.4107
  803MOL0     C 5912   6.219   2.002   8.435  0.1263 -0.6501 -0.2121
  803MOL0     C 5913   6.359   2.031   8.418  0.0032 -0.3716  0.6739
  803MOL0     N 5914   6.649   2.735   8.657  0.0009  0.3719  0.9561
  803MOL0     N 5915   6.693   2.834   8.597 -0.5645 -0.0273  0.9969
  803MOL0     C 5916   7.919   3.139   8.463  0.2797 -1.1188  0.8567
  803MOL0     C 5917   8.050   3.186   8.464 -0.1681 -0.0351  1.0389
  803MOL0     C 5918   8.461   3.281   8.623 -0.2033 -0.8563 -0.4514
  803MOL0     C 5919   8.506   3.392   8.550 -0.6990  0.5501 -0.4278
  803MOL0     C 5920   8.638   3.433   8.575  0.0596  1.4505  0.3418
  803MOL0     C 5921   8.720   3.376   8.664 -0.1910 -0.4011 -0.1889
  803MOL0     O 5922   8.851   3.404   8.681 -0.2902  0.1147  0.2778
  803MOL0     C 5923   8.939   3.464   8.579 -0.4493  0.2495  0.2201
  803MOL0     C 5924   8.993   3.362   8.485  0.4715 -0.9663 -0.0625
  803MOL0     C 5925   9.083   3.267   8.568 -0.3129  1.0308 -0.0272
  803MOL0     C 5926   9.171   3.194   8.460  0.4513 -0.7519 -0.1042
  803MOL0     C 5927   9.253   3.095   8.531 -0.0546  0.5759  0.1937
  803MOL0     C 5928   9.332   3.024   8.580  0.1232 -0.3034 -0.6931
  803MOL0     C 5929   8.671   3.285   8.752 -0.4605  0.1258  0.0259
  803MOL0     C 5930   8.552   3.222   8.724  0.3407 -1.6199 -0.3996
  803MOL0     H 5931   8.046   3.383   8.726 -1.2561  1.3522 -0.7885
  803MOL0     H 5932   7.798   3.362   8.700  0.2457  2.7683 -0.3563
  803MOL0     H 5933   7.594   3.305   8.619  0.2037 -0.3909  2.3029
  803MOL0     H 5934   7.648   3.175   8.725  0.2487  0.6771  0.0875
  803MOL0     H 5935   7.409   3.148   8.692  0.2752 -0.8253 -0.5163
  803MOL0     H 5936   7.468   3.028   8.584 -2.1346  0.1617  1.1231
  803MOL0     H 5937   7.486   3.229   8.412 -2.0243  3.8452 -1.8215
  803MOL0     H 5938   7.371   3.314   8.508 -1.4160 -0.2098  0.4891
  803MOL0     H 5939   7.232   3.191   8.353  0.4437  1.8767  0.5869
  803MOL0     H 5940   7.356   3.053   8.361  0.1005 -1.6452  2.4552
  803MOL0     H 5941   7.153   3.156   8.571  1.3222 -0.6090  2.4971
  803MOL0     H 5942   7.225   3.002   8.588 -1.2878 -1.9456 -2.1604
  803MOL0     H 5943   7.134   2.927   8.365 -4.0388 -1.6083 -1.6540
  803MOL0     H 5944   7.028   3.067   8.369 -2.2932  0.4750  3.4626
  803MOL0     H 5945   7.049   2.837   8.560 -0.1355 -0.7340 -1.8078
  803MOL0     H 5946   6.956   2.973   8.610 -1.7558 -1.6412  0.0053
  803MOL0     H 5947   6.907   2.831   8.352  1.5636 -0.8122  1.6297
  803MOL0     H 5948   6.828   2.976   8.406  0.4472 -2.0408 -2.3674
  803MOL0     H 5949   6.913   2.603   8.506  0.3612 -0.5396 -0.6289
  803MOL0     H 5950   6.592   2.488   8.685 -0.0438 -2.4773  3.3543
  803MOL0     H 5951   6.754   2.445   8.729 -3.3021 -0.7487  1.1241
  803MOL0     H 5952   6.692   2.286   8.568  0.8664  1.4158  3.8080
  803MOL0     H 5953   6.820   2.382   8.499  0.2842  2.8787 -0.0692
  803MOL0     H 5954   6.516   2.429   8.448 -1.3504 -1.2901 -2.2726
  803MOL0     H 5955   6.666   2.494   8.357  2.0303 -0.7861  0.0079
  803MOL0     H 5956   6.703   2.274   8.277  1.7500 -0.3565  3.9289
  803MOL0     H 5957   6.544   2.335   8.226  0.4092 -1.5229 -0.1989
  803MOL0     H 5958   6.349   2.365   8.369  1.7828 -0.5743  0.8262
  803MOL0     H 5959   6.118   2.321   8.396  0.8449  0.4141 -0.9535
  803MOL0     H 5960   5.807   1.824   8.602 -0.8845 -1.9565 -0.1382
  803MOL0     H 5961   5.572   1.748   8.584 -3.0141  1.5353  0.8338
  803MOL0     H 5962   5.436   1.615   8.440 -4.9460 -2.3971  0.7498
  803MOL0     H 5963   5.442   1.629   8.261 -1.6216  1.9779 -1.9494
  803MOL0     H 5964   5.198   1.677   8.430 -0.0495  1.9185 -2.8667
  803MOL0     H 5965   5.250   1.517   8.350 -0.8824 -0.0795  0.0228
  803MOL0     H 5966   5.246   1.649   8.125  0.1658  1.8848 -0.5223
  803MOL0     H 5967   5.191   1.789   8.219 -0.0490 -0.7192  1.7956
  803MOL0     H 5968   4.982   1.714   8.265 -0.2095  0.2185  0.4274
  803MOL0     H 5969   5.016   1.670   8.093  3.4402 -0.4280 -1.0397
  803MOL0     H 5970   5.081   1.442   8.177  0.6334  2.1604 -2.2864
  803MOL0     H 5971   4.901   1.494   8.174 -1.0105  2.4212  0.7268
  803MOL0     H 5972   4.885   1.526   8.402 -0.6507  0.3322 -1.7187
  803MOL0     H 5973   5.052   1.497   8.430  1.0122  0.9481 -1.7165
  803MOL0     H 5974   4.906   1.282   8.288  0.6739 -0.7346 -0.4560
  803MOL0     H 5975   5.025   1.260   8.415  1.5659  1.7178 -1.7522
  803MOL0     H 5976   4.799   1.181   8.460  2.1353 -0.2698 -0.8293
  803MOL0     H 5977   4.745   1.355   8.471  0.1275  1.3615  2.8368
  803MOL0     H 5978   5.560   1.933   8.197 -0.5586 -1.0242  0.3216
  803MOL0     H 5979   5.778   2.008   8.217  0.2745 -0.1156 -0.5362
  803MOL0     H 5980   6.175   1.906   8.460  1.0619 -1.5713 -1.9419
  803MOL0     H 5981   6.424   1.944   8.425  0.8692  0.1668 -0.4059
  803MOL0     H 5982   7.876   3.061   8.400 -0.1152 -0.1378 -0.1195
  803MOL0     H 5983   8.121   3.131   8.402 -0.2882 -1.4936  2.1432
  803MOL0     H 5984   8.444   3.470   8.506  1.1012  2.5533  0.3609
  803MOL0     H 5985   8.661   3.520   8.514  1.1478 -0.9595 -2.9172
  803MOL0     H 5986   9.021   3.511   8.634  0.9486 -1.0913 -0.6351
  803MOL0     H 5987   8.888   3.541   8.520 -0.8774  0.6718  1.1188
  803MOL0     H 5988   8.908   3.307   8.443  1.0261 -0.6430 -1.6720
  803MOL0     H 5989   9.037   3.409   8.397  0.1357 -0.8138 -0.1490
  803MOL0     H 5990   9.019   3.202   8.628  2.1465 -1.5345  0.0476
  803MOL0     H 5991   9.155   3.312   8.637  0.0089 -1.8868  1.7048
  803MOL0     H 5992   9.104   3.151   8.385  2.5739 -5.2545  0.2855
  803MOL0     H 5993   9.237   3.259   8.402  1.5859 -0.7960  1.1067
  803MOL0     H 5994   9.408   2.969   8.631  0.6793  1.8698  0.9552
  803MOL0     H 5995   8.725   3.254   8.840  2.0464  1.3653 -0.9796
  803MOL0     H 5996   8.516   3.143   8.790  0.0840  0.9309  2.7789
  804MOL0     O 5997   9.872   5.043   1.207 -0.0058 -0.6828  0.0153
  804MOL0     C 5998   9.934   5.080   1.107  0.1601  0.4694 -0.4784
  804MOL0     O 5999   9.881   5.097   0.982  0.9021  0.3993 -0.4319
  804MOL0     C 6000   9.746   5.076   0.961 -0.0920  0.8829  0.0591
  804MOL0     C 6001   9.700   4.978   0.873  0.3490  0.3944 -0.0892
  804MOL0     C 6002   9.561   4.969   0.843  0.4768  0.2249  0.7940
  804MOL0     C 6003   9.469   5.054   0.916  0.0644  0.0178  0.5939
  804MOL0     O 6004   9.339   5.055   0.888  0.2032 -0.3247 -0.2290
  804MOL0     C 6005   9.261   4.939   0.912  0.4311  0.6099  0.4499
  804MOL0     C 6006   9.119   4.974   0.854 -0.0556  0.3075 -0.4404
  804MOL0     C 6007   9.044   5.076   0.947  0.1419 -0.3585  0.3774
  804MOL0     C 6008   8.902   5.112   0.901 -0.3605 -0.4445  0.2343
  804MOL0     C 6009   8.845   5.201   1.020  0.2267  0.5801  0.3570
  804MOL0     C 6010   8.721   5.284   0.975 -0.1087 -0.6460 -1.4752
  804MOL0     C 6011   8.593   5.203   0.931 -0.2738  0.1934  0.0437
  804MOL0     C 6012   8.492   5.282   0.867  0.1597 -0.1465  0.2461
  804MOL0     N 6013   8.410   5.193   0.801 -0.5388 -0.3773 -0.0132
  804MOL0     C 6014   8.306   5.112   0.843 -0.1902  0.9242 -0.1490
  804MOL0     C 6015   8.281   5.026   0.741  0.1459  0.4419 -0.9450
  804MOL0     C 6016   8.178   4.907   0.742  0.3864  0.5380 -0.4198
  804MOL0     C 6017   8.033   4.947   0.735  0.9283  0.9149 -0.3318
  804MOL0     C 6018   7.954   4.814   0.713  0.8752 -0.6535 -0.9516
  804MOL0     C 6019   7.920   4.753   0.853  0.2888  0.0258  0.2731
  804MOL0     O 6020   7.859   4.625   0.842  0.3602 -0.4030 -0.1867
  804MOL0     C 6021   7.724   4.614   0.846  0.1067  0.3708  0.4805
  804MOL0     C 6022   7.641   4.685   0.928 -0.4054  0.7580 -0.2409
  804MOL0     C 6023   7.505   4.668   0.910 -0.3629 -0.5588 -1.2670
  804MOL0     C 6024   7.449   4.580   0.827 -0.0107 -0.0644  0.4044
  804MOL0     C 6025   7.305   4.583   0.803 -0.2567 -0.4028  0.6037
  804MOL0     O 6026   7.253   4.498   0.708 -0.6116 -0.3076  0.4089
  804MOL0     C 6027   7.133   4.429   0.735 -0.4487  0.2615 -0.1326
  804MOL0     C 6028   7.014   4.492   0.770  0.6021 -0.8349 -0.7935
  804MOL0     C 6029   6.900   4.420   0.803 -0.0062 -0.0374 -0.0710
  804MOL0     C 6030   6.906   4.276   0.797  0.2970 -0.2688  1.2154
  804MOL0     O 6031   6.793   4.191   0.811 -0.3802 -0.0540  0.1338
  804MOL0     C 6032   6.681   4.244   0.881 -0.2984  0.2414 -0.9487
  804MOL0     C 6033   6.702   4.238   1.039  0.1435 -1.0250  0.6663
  804MOL0     C 6034   6.590   4.321   1.109  0.2921  1.2177 -0.0909
  804MOL0     C 6035   6.448   4.284   1.061 -0.4791 -0.1303  0.5106
  804MOL0     C 6036   6.328   4.355   1.125  1.0151 -0.4032 -0.0125
  804MOL0     C 6037   6.197   4.280   1.083 -0.3458 -0.3611 -0.1701
  804MOL0     C 6038   6.151   4.152   1.151 -0.4178  0.1455 -0.3712
  804MOL0     C 6039   6.025   4.097   1.094 -0.0257 -0.1346 -0.0854
  804MOL0    Cl 6040   5.940   3.967   1.195  0.3933  0.0300 -0.1020
  804MOL0     C 6041   7.027   4.215   0.748 -0.1763 -0.4858  0.1218
  804MOL0     C 6042   7.136   4.289   0.721  0.8352 -0.4264 -0.2799
  804MOL0     O 6043   7.236   4.655   0.881 -0.2123  0.6578  0.1159
  804MOL0     C 6044   7.540   4.502   0.746 -0.3550  0.7214  0.4322
  804MOL0     C 6045   7.678   4.517   0.763  0.5022  0.3221  0.7194
  804MOL0     N 6046   8.360   5.059   0.632 -0.6431  0.1156 -0.4123
  804MOL0     N 6047   8.438   5.158   0.672 -0.1554  0.0490 -0.2267
  804MOL0     C 6048   9.515   5.146   1.018  0.8040 -0.2025 -0.1924
  804MOL0     C 6049   9.653   5.154   1.032  0.0820  0.8368 -1.1195
  804MOL0     C 6050  10.078   5.112   1.129  0.0367  0.5521  0.5363
  804MOL0     C 6051  10.157   5.110   1.008  0.0188  0.2522 -0.8176
  804MOL0     C 6052  10.299   5.115   1.014  0.9934  0.4343 -0.1335
  804MOL0     C 6053  10.364   5.130   1.142 -0.5240  0.5613 -0.2470
  804MOL0     O 6054  10.501   5.122   1.167 -0.8225  0.3708  0.5895
  804MOL0     C 6055  10.589   5.142   1.058  0.2485  0.2541 -0.8322
  804MOL0     C 6056  10.738   5.110   1.088  1.0433 -0.2501 -0.4561
  804MOL0     C 6057  10.828   5.187   0.979  0.3350 -0.3468 -1.0218
  804MOL0     C 6058  10.968   5.179   1.032 -1.0912  0.4471  0.0706
  804MOL0     C 6059  11.052   5.272   0.961  0.1756  0.5213  0.3930
  804MOL0     C 6060  11.125   5.346   0.891  0.7317  0.9014  0.8560
  804MOL0     C 6061  10.289   5.131   1.257  0.7294 -0.2429 -0.1141
  804MOL0     C 6062  10.149   5.127   1.246 -0.0740 -0.1569 -0.2180
  804MOL0     H 6063   9.779   4.929   0.817  2.7844  3.4269  0.3789
  804MOL0     H 6064   9.525   4.895   0.772 -0.3523  1.7374 -0.4115
  804MOL0     H 6065   9.258   4.921   1.020  2.0881  1.5402  0.6914
  804MOL0     H 6066   9.302   4.850   0.863 -1.4684 -1.6118  2.6045
  804MOL0     H 6067   9.060   4.883   0.841  0.2096 -0.3484  2.3703
  804MOL0     H 6068   9.136   5.012   0.753 -0.7240  0.7789 -0.3840
  804MOL0     H 6069   9.101   5.169   0.952  0.6520 -0.6567  0.1498
  804MOL0     H 6070   9.039   5.035   1.049 -0.9766 -0.5925  0.2412
  804MOL0     H 6071   8.886   5.177   0.815 -1.3630 -1.0120 -0.0268
  804MOL0     H 6072   8.856   5.014   0.881  1.9674 -1.2187 -2.0664
  804MOL0     H 6073   8.912   5.280   1.054  0.0165  2.2435 -2.7535
  804MOL0     H 6074   8.815   5.130   1.098  0.8074  2.2909  2.2204
  804MOL0     H 6075   8.747   5.349   0.890  0.9235 -1.6955 -1.9886
  804MOL0     H 6076   8.697   5.353   1.056 -1.3953  0.2786 -2.5896
  804MOL0     H 6077   8.633   5.136   0.855  0.8231  1.6737 -0.7330
  804MOL0     H 6078   8.543   5.145   1.009 -0.6065 -0.1634 -0.4316
  804MOL0     H 6079   8.525   5.348   0.787  1.3188 -0.6969  0.2496
  804MOL0     H 6080   8.428   5.340   0.935 -2.2261 -1.5706 -0.6636
  804MOL0     H 6081   8.276   5.117   0.947  1.6097  3.4537  0.3547
  804MOL0     H 6082   8.195   4.859   0.839 -1.6746  1.7627  0.6181
  804MOL0     H 6083   8.204   4.824   0.676 -1.0642 -0.8269  0.6240
  804MOL0     H 6084   8.018   5.016   0.651 -1.1182 -1.9264 -2.5426
  804MOL0     H 6085   8.010   4.994   0.831  2.4733 -2.0941  1.6806
  804MOL0     H 6086   7.864   4.847   0.661  0.1616 -0.3750  0.4061
  804MOL0     H 6087   8.011   4.742   0.653  2.4469 -0.9405  0.7864
  804MOL0     H 6088   7.844   4.815   0.902 -0.8183 -0.8603 -0.2750
  804MOL0     H 6089   8.013   4.751   0.910  1.7003  0.6262 -1.9039
  804MOL0     H 6090   7.681   4.745   1.009 -1.3473  1.0922 -0.0037
  804MOL0     H 6091   7.445   4.725   0.980  0.7802 -0.2123 -0.5429
  804MOL0     H 6092   7.004   4.600   0.779 -0.7847 -0.9090 -1.0956
  804MOL0     H 6093   6.807   4.467   0.835 -1.6914  0.2114 -4.5757
  804MOL0     H 6094   6.600   4.176   0.854 -0.9065 -0.6606  2.7030
  804MOL0     H 6095   6.655   4.346   0.851  0.8438  0.5457 -0.9504
  804MOL0     H 6096   6.795   4.289   1.063  1.2527 -1.9562 -1.3366
  804MOL0     H 6097   6.710   4.134   1.073 -0.9046 -1.1334  0.6009
  804MOL0     H 6098   6.610   4.427   1.091  0.7474  1.6537  2.6106
  804MOL0     H 6099   6.607   4.313   1.217  1.2592 -1.7986 -0.3728
  804MOL0     H 6100   6.445   4.302   0.953  1.0070 -1.0268  0.2869
  804MOL0     H 6101   6.436   4.178   1.086  1.5811 -0.6690 -0.5694
  804MOL0     H 6102   6.313   4.456   1.086 -3.8302 -0.5616  0.7131
  804MOL0     H 6103   6.350   4.368   1.232 -1.4106 -0.8764  0.6208
  804MOL0     H 6104   6.205   4.264   0.975 -1.5098 -1.5658 -0.0935
  804MOL0     H 6105   6.118   4.354   1.098 -0.6113  0.2816 -3.7085
  804MOL0     H 6106   6.233   4.080   1.142 -0.8335 -0.6544  1.7075
  804MOL0     H 6107   6.130   4.174   1.256  2.7098 -2.2251  0.8995
  804MOL0     H 6108   6.042   4.064   0.991 -1.7844 -1.6723  0.0642
  804MOL0     H 6109   5.957   4.183   1.094  0.6345  0.4297  1.5879
  804MOL0     H 6110   7.032   4.108   0.736  0.7102 -0.1553 -4.0540
  804MOL0     H 6111   7.230   4.244   0.689  1.1417 -1.1819  1.5682
  804MOL0     H 6112   7.505   4.423   0.679  1.6631  0.8274 -0.8713
  804MOL0     H 6113   7.746   4.461   0.700 -1.0829  0.7631 -1.4792
  804MOL0     H 6114   9.432   5.199   1.064 -1.5741 -1.3987 -2.7512
  804MOL0     H 6115   9.694   5.209   1.115 -0.9578  0.0992 -0.0879
  804MOL0     H 6116  10.108   5.093   0.912  2.8853  0.9391 -2.5240
  804MOL0     H 6117  10.359   5.102   0.925  0.0596 -0.4352 -0.6520
  804MOL0     H 6118  10.582   5.245   1.024 -4.7691 -0.5947 -3.3797
  804MOL0     H 6119  10.570   5.072   0.976  0.5300  1.5752 -2.0645
  804MOL0     H 6120  10.766   5.141   1.189 -2.5851  0.5933  0.4387
  804MOL0     H 6121  10.760   5.003   1.090  2.3218 -0.0268  2.4186
  804MOL0     H 6122  10.798   5.290   0.957  3.2954  0.5023 -1.5361
  804MOL0     H 6123  10.825   5.129   0.886  1.6413  0.1010 -1.3650
  804MOL0     H 6124  10.964   5.183   1.141 -0.3777  0.9238  0.0869
  804MOL0     H 6125  11.013   5.081   1.011 -1.7366  0.4633 -1.6011
  804MOL0     H 6126  11.195   5.402   0.833  2.0932 -1.5670 -0.0550
  804MOL0     H 6127  10.354   5.133   1.344  2.8550  3.9312 -1.5313
  804MOL0     H 6128  10.085   5.137   1.333 -1.2633 -5.4848 -0.0926
  805MOL0     O 6129   7.717   6.994   5.731  0.0246  0.4051 -0.4285
  805MOL0     C 6130   7.710   7.018   5.607 -0.0834  0.1516  0.0475
  805MOL0     O 6131   7.591   7.037   5.540 -0.3162 -0.4474 -0.1024
  805MOL0     C 6132   7.470   7.065   5.596  0.4558 -0.4991  0.5050
  805MOL0     C 6133   7.352   7.051   5.514  0.1037  0.3915 -0.9188
  805MOL0     C 6134   7.229   7.082   5.559 -0.6088 -1.1865 -0.8837
  805MOL0     C 6135   7.212   7.139   5.686  0.2889 -0.2440  0.3164
  805MOL0     O 6136   7.095   7.191   5.741  0.1378  0.3599 -0.0751
  805MOL0     C 6137   7.009   7.273   5.660 -0.7570  0.0090 -0.3908
  805MOL0     C 6138   6.928   7.383   5.741 -0.0494 -0.0751  0.2709
  805MOL0     C 6139   6.843   7.463   5.640  0.5125 -0.2659 -0.6005
  805MOL0     C 6140   6.756   7.566   5.699 -0.2456 -0.9822 -0.0661
  805MOL0     C 6141   6.620   7.525   5.761  0.2535  0.6686 -0.0185
  805MOL0     C 6142   6.520   7.510   5.647  0.4694 -1.4508 -0.3833
  805MOL0     C 6143   6.415   7.624   5.643  0.3639  0.6641 -0.1209
  805MOL0     C 6144   6.474   7.753   5.590  0.3581 -0.0532 -0.4657
  805MOL0     N 6145   6.368   7.853   5.595 -0.1170  0.0695  0.6546
  805MOL0     C 6146   6.340   7.941   5.700 -0.1679 -0.2956 -0.3831
  805MOL0     C 6147   6.240   8.024   5.657 -0.1275  0.6393  0.0032
  805MOL0     C 6148   6.167   8.128   5.739 -0.1465 -0.6044  0.2223
  805MOL0     C 6149   6.046   8.057   5.806 -0.8401  0.6248  0.3412
  805MOL0     C 6150   5.963   8.136   5.904 -0.2959  0.4250 -0.0004
  805MOL0     C 6151   6.033   8.148   6.026  0.2090  1.1357  0.2768
  805MOL0     O 6152   6.039   8.025   6.105  0.3858  0.0694  1.0062
  805MOL0     C 6153   6.148   8.016   6.186  0.4165  0.7725  0.2288
  805MOL0     C 6154   6.155   8.073   6.310  0.8510  0.8708 -0.3148
  805MOL0     C 6155   6.247   8.031   6.410 -0.3542 -0.2252  0.1732
  805MOL0     C 6156   6.358   7.949   6.372  0.3364  0.2781  0.3327
  805MOL0     C 6157   6.469   7.915   6.460 -0.1416 -0.3766  0.7006
  805MOL0     O 6158   6.559   7.815   6.412  0.9916  0.2182 -0.4434
  805MOL0     C 6159   6.660   7.778   6.492  0.0643  0.5732 -0.3763
  805MOL0     C 6160   6.632   7.696   6.590 -0.0845  0.5462 -0.2515
  805MOL0     C 6161   6.727   7.659   6.687  0.2034  0.3181 -1.1755
  805MOL0     C 6162   6.855   7.710   6.675  0.3758 -0.4052  0.1105
  805MOL0     O 6163   6.942   7.661   6.764  0.5525 -0.8296 -0.1792
  805MOL0     C 6164   7.081   7.703   6.757 -0.4245  0.1736 -0.5661
  805MOL0     C 6165   7.142   7.636   6.888 -0.5200 -0.6812  0.6896
  805MOL0     C 6166   7.293   7.603   6.885 -0.1873  0.5797 -0.0227
  805MOL0     C 6167   7.365   7.735   6.905 -0.4799 -0.6310 -0.8088
  805MOL0     C 6168   7.505   7.704   6.901  0.2305  0.5195 -0.2267
  805MOL0     C 6169   7.591   7.827   6.954  0.8495 -0.1826  0.1554
  805MOL0     C 6170   7.737   7.799   6.935 -0.3893 -0.0667 -0.2377
  805MOL0     C 6171   7.815   7.902   7.008 -0.2485 -0.0028 -0.1153
  805MOL0    Cl 6172   7.977   7.847   6.998 -0.0625  0.5339  0.4383
  805MOL0     C 6173   6.883   7.795   6.570 -0.2374 -0.2034 -0.3845
  805MOL0     C 6174   6.782   7.821   6.473  1.0997  0.6349  0.3954
  805MOL0     O 6175   6.484   7.974   6.565 -0.3409 -0.3554 -0.3254
  805MOL0     C 6176   6.350   7.894   6.243  0.7189  0.5390 -0.5730
  805MOL0     C 6177   6.242   7.925   6.150 -1.6147 -0.1570 -0.1273
  805MOL0     N 6178   6.196   7.971   5.539 -0.0234  0.0112 -0.4588
  805MOL0     N 6179   6.269   7.871   5.505 -0.0763 -0.5609  0.4058
  805MOL0     C 6180   7.321   7.147   5.766 -0.0695 -0.4875  0.0901
  805MOL0     C 6181   7.448   7.104   5.727  0.1251 -0.1146 -0.4818
  805MOL0     C 6182   7.828   6.989   5.531 -0.9874 -0.5010 -0.2398
  805MOL0     C 6183   7.835   7.047   5.407 -0.3056 -0.7857  0.6858
  805MOL0     C 6184   7.946   7.037   5.321 -0.0495  1.0028  0.0433
  805MOL0     C 6185   8.049   6.950   5.355 -0.6460 -0.1209  0.3829
  805MOL0     O 6186   8.148   6.956   5.258 -0.0664  0.7717  0.0864
  805MOL0     C 6187   8.252   6.854   5.268 -0.4173 -0.2073 -0.4370
  805MOL0     C 6188   8.295   6.798   5.139 -1.1436  0.5226 -0.2258
  805MOL0     C 6189   8.194   6.833   5.025 -0.4345 -0.7967  0.3225
  805MOL0     C 6190   8.225   6.784   4.883 -0.5730 -0.0598  0.3142
  805MOL0     C 6191   8.105   6.777   4.791 -0.5194  1.6039  0.6657
  805MOL0     C 6192   8.031   6.782   4.698  0.1502  0.4514  0.4914
  805MOL0     C 6193   8.047   6.893   5.486 -0.3316 -0.6947  0.5077
  805MOL0     C 6194   7.939   6.917   5.577  0.5154 -0.6284 -0.4851
  805MOL0     H 6195   7.350   7.009   5.414  3.2202 -1.6303 -0.2835
  805MOL0     H 6196   7.141   7.081   5.496  0.0274  2.3347 -2.0622
  805MOL0     H 6197   6.938   7.217   5.598 -1.9921 -0.1705  1.1125
  805MOL0     H 6198   7.068   7.327   5.586 -1.0889  0.9002 -0.0098
  805MOL0     H 6199   7.009   7.445   5.780  1.6074  0.4595 -3.5900
  805MOL0     H 6200   6.857   7.340   5.813 -0.4911 -0.0953 -0.1677
  805MOL0     H 6201   6.786   7.400   5.570  1.5825  0.4478 -2.1391
  805MOL0     H 6202   6.914   7.513   5.575 -1.2827  0.4767 -2.0777
  805MOL0     H 6203   6.810   7.625   5.774 -1.9915  3.2224 -1.8006
  805MOL0     H 6204   6.728   7.641   5.624  2.6890  1.2240  0.8529
  805MOL0     H 6205   6.603   7.589   5.847  0.4810  0.2296  0.3594
  805MOL0     H 6206   6.625   7.426   5.807  0.7277  0.1370 -1.1563
  805MOL0     H 6207   6.463   7.421   5.678 -1.7736  0.5320  1.5785
  805MOL0     H 6208   6.560   7.495   5.546 -0.0306  2.0961 -1.2095
  805MOL0     H 6209   6.333   7.599   5.576  1.4380  0.4753 -1.4013
  805MOL0     H 6210   6.368   7.633   5.742  2.9088  0.3999  1.2097
  805MOL0     H 6211   6.519   7.742   5.491  0.4593  0.4346 -0.4743
  805MOL0     H 6212   6.543   7.784   5.669  0.6123 -2.1337  0.2117
  805MOL0     H 6213   6.393   7.938   5.795 -1.5425 -2.7154  0.4128
  805MOL0     H 6214   6.124   8.202   5.671  3.2322  0.2717 -1.1227
  805MOL0     H 6215   6.223   8.185   5.813 -2.8576 -0.2604  2.1811
  805MOL0     H 6216   6.087   7.965   5.849  0.5358  0.2603 -1.5996
  805MOL0     H 6217   5.986   8.019   5.722  0.1779 -2.0157  0.6933
  805MOL0     H 6218   5.939   8.237   5.871  0.3025  0.8184  0.7604
  805MOL0     H 6219   5.870   8.081   5.921  0.6671 -1.1032  0.5930
  805MOL0     H 6220   5.982   8.221   6.089 -0.9603 -1.0040  1.9783
  805MOL0     H 6221   6.137   8.177   6.006  0.5313 -0.4797 -0.5696
  805MOL0     H 6222   6.076   8.146   6.324  0.1583  0.2469 -0.8953
  805MOL0     H 6223   6.256   8.086   6.503  1.2489  0.6941 -0.4748
  805MOL0     H 6224   6.529   7.661   6.586 -0.0423  0.2167 -5.1579
  805MOL0     H 6225   6.697   7.581   6.757 -0.9524  2.4260  0.8279
  805MOL0     H 6226   7.096   7.812   6.754 -0.6673  0.2196 -0.2122
  805MOL0     H 6227   7.135   7.657   6.674  0.6612 -2.1330  1.3214
  805MOL0     H 6228   7.078   7.548   6.906 -2.1126  0.6191  1.6970
  805MOL0     H 6229   7.116   7.689   6.980  1.1807  0.6653  0.4225
  805MOL0     H 6230   7.325   7.545   6.798 -0.9297 -2.0217  1.3295
  805MOL0     H 6231   7.308   7.537   6.971 -2.2687 -0.4556 -0.3814
  805MOL0     H 6232   7.333   7.801   6.825 -1.9590 -1.7961 -1.2130
  805MOL0     H 6233   7.340   7.777   7.003 -0.2476 -2.6619  0.1781
  805MOL0     H 6234   7.544   7.679   6.802 -0.3693 -2.5913  0.2078
  805MOL0     H 6235   7.520   7.614   6.961 -1.8268  0.0485 -0.3303
  805MOL0     H 6236   7.569   7.833   7.061  1.5925 -3.5720  0.6136
  805MOL0     H 6237   7.554   7.917   6.904 -2.3716  0.8461  3.9203
  805MOL0     H 6238   7.763   7.703   6.980 -1.3430  0.1356  0.7844
  805MOL0     H 6239   7.774   7.786   6.833  0.6404  0.7971 -0.0013
  805MOL0     H 6240   7.786   7.906   7.113  0.2592 -1.5668  0.1151
  805MOL0     H 6241   7.812   8.004   6.969  2.6150 -0.3020 -1.3269
  805MOL0     H 6242   6.984   7.828   6.546 -1.5430  1.5480 -4.2256
  805MOL0     H 6243   6.811   7.873   6.382 -0.3921  1.3478  0.3066
  805MOL0     H 6244   6.429   7.828   6.210 -2.3175 -4.2143  0.6708
  805MOL0     H 6245   6.242   7.875   6.054 -0.6445  0.7098 -0.5997
  805MOL0     H 6246   7.313   7.208   5.855 -0.0234 -0.6257  0.1900
  805MOL0     H 6247   7.531   7.112   5.795  0.4437 -1.5268 -0.6681
  805MOL0     H 6248   7.751   7.107   5.374  0.2821 -0.5436 -0.4240
  805MOL0     H 6249   7.952   7.084   5.223  2.3102  1.5322  0.3805
  805MOL0     H 6250   8.232   6.773   5.338  0.4657  1.7517  2.2469
  805MOL0     H 6251   8.329   6.918   5.312  1.6850 -1.9402 -1.4073
  805MOL0     H 6252   8.398   6.823   5.112 -0.7270  0.0667  0.8693
  805MOL0     H 6253   8.296   6.689   5.146 -1.7257  0.3492 -2.3036
  805MOL0     H 6254   8.194   6.943   5.019 -3.7354 -0.7288 -0.3727
  805MOL0     H 6255   8.089   6.813   5.049 -1.5443  2.7781 -0.7390
  805MOL0     H 6256   8.305   6.849   4.847 -0.1279  0.6561  2.4452
  805MOL0     H 6257   8.265   6.682   4.877 -2.1087 -0.6333 -1.0028
  805MOL0     H 6258   7.949   6.797   4.630  0.9051  1.1217 -0.2993
  805MOL0     H 6259   8.127   6.828   5.520 -1.2419 -2.0846  0.0855
  805MOL0     H 6260   7.937   6.880   5.679 -2.5405  0.4746 -0.0380
  806MOL0     O 6261   9.686   6.146   2.684  0.2152 -0.0143 -0.6202
  806MOL0     C 6262   9.753   6.126   2.579 -0.5854 -0.9363  0.1076
  806MOL0     O 6263   9.705   6.116   2.454  0.0550 -0.2476 -0.2207
  806MOL0     C 6264   9.573   6.146   2.439  0.7775 -0.5353 -0.1828
  806MOL0     C 6265   9.519   6.278   2.418  0.0862  0.1250 -0.6311
  806MOL0     C 6266   9.381   6.288   2.396 -0.3311  0.1157 -1.2056
  806MOL0     C 6267   9.293   6.180   2.389  0.0385  0.4924 -0.9744
  806MOL0     O 6268   9.158   6.195   2.357 -0.3692  0.6002 -0.3801
  806MOL0     C 6269   9.102   6.129   2.241  0.0990  0.4084 -0.6484
  806MOL0     C 6270   8.971   6.202   2.203 -0.2500  0.1001 -0.0910
  806MOL0     C 6271   8.896   6.150   2.080  0.2586  0.0325 -0.4516
  806MOL0     C 6272   8.823   6.021   2.107  0.7105  0.3888  0.1221
  806MOL0     C 6273   8.734   5.969   1.993  0.0062 -0.2711 -0.0597
  806MOL0     C 6274   8.638   5.858   2.035 -0.4480  0.0472 -0.0076
  806MOL0     C 6275   8.540   5.878   2.160  0.0834  0.1153 -0.4079
  806MOL0     C 6276   8.443   5.989   2.141  0.1666 -0.0220 -0.2282
  806MOL0     N 6277   8.357   6.012   2.262 -0.2047  0.4058  0.5840
  806MOL0     C 6278   8.224   6.057   2.251  1.1129 -0.0238  0.4026
  806MOL0     C 6279   8.186   6.095   2.378 -0.4340  0.7657  0.0727
  806MOL0     C 6280   8.046   6.128   2.423 -0.1163  0.2311 -0.2145
  806MOL0     C 6281   7.971   6.001   2.457  0.5191  0.1119  1.5204
  806MOL0     C 6282   7.820   6.048   2.487 -0.3378  0.3703  0.0617
  806MOL0     C 6283   7.733   5.946   2.560 -0.3449 -0.0580 -0.2101
  806MOL0     O 6284   7.804   5.902   2.675 -0.1593 -0.2284  0.5026
  806MOL0     C 6285   7.736   5.833   2.764  0.2119 -0.1244  0.2245
  806MOL0     C 6286   7.668   5.715   2.725 -1.0261  0.5867 -0.4291
  806MOL0     C 6287   7.608   5.628   2.812 -1.0076  0.9087 -0.3195
  806MOL0     C 6288   7.626   5.653   2.954 -0.2100 -0.1160 -0.8656
  806MOL0     C 6289   7.571   5.566   3.064  0.6670  0.6970 -0.1327
  806MOL0     O 6290   7.591   5.605   3.197  0.2459 -0.1412 -0.8693
  806MOL0     C 6291   7.567   5.515   3.304 -0.9590  0.6997 -0.0330
  806MOL0     C 6292   7.671   5.447   3.364 -0.0059 -0.0575  0.1562
  806MOL0     C 6293   7.650   5.385   3.490 -0.0510  0.4702 -0.2202
  806MOL0     C 6294   7.527   5.389   3.560  0.0338  0.0964 -0.7765
  806MOL0     O 6295   7.518   5.347   3.692 -0.0431 -0.2146  0.1432
  806MOL0     C 6296   7.588   5.230   3.740  0.0522  0.0726  0.5074
  806MOL0     C 6297   7.526   5.186   3.871  0.0511 -0.0755 -0.4950
  806MOL0     C 6298   7.378   5.168   3.877 -0.7234 -0.1591 -0.6137
  806MOL0     C 6299   7.344   5.123   4.023 -0.4528  0.4595 -0.7348
  806MOL0     C 6300   7.188   5.140   4.050  0.7009 -0.0159  0.3897
  806MOL0     C 6301   7.158   5.094   4.185  0.1676  0.4939  0.3331
  806MOL0     C 6302   7.019   5.119   4.239 -0.1023  0.6758  0.3169
  806MOL0     C 6303   6.910   5.056   4.155  0.2831  0.6294 -0.2786
  806MOL0    Cl 6304   6.757   5.128   4.187 -0.0897 -0.0089 -0.0168
  806MOL0     C 6305   7.426   5.458   3.507 -0.2769  0.5918 -0.0653
  806MOL0     C 6306   7.450   5.523   3.383  0.1514 -0.9072  0.4606
  806MOL0     O 6307   7.526   5.456   3.033 -0.0610  0.3169  0.5958
  806MOL0     C 6308   7.701   5.769   2.996  0.2044 -0.4795  0.9603
  806MOL0     C 6309   7.756   5.849   2.899 -0.9637  0.7841 -0.0535
  806MOL0     N 6310   8.297   6.075   2.467 -0.4009  0.1130 -0.4433
  806MOL0     N 6311   8.403   6.044   2.393 -0.1605  0.3822  0.5271
  806MOL0     C 6312   9.349   6.048   2.408 -0.0786 -0.2537 -0.5271
  806MOL0     C 6313   9.485   6.039   2.440  0.8019 -0.1459  0.5105
  806MOL0     C 6314   9.907   6.124   2.596  0.8755 -0.5349 -0.3610
  806MOL0     C 6315   9.966   6.155   2.721  0.1844 -0.4987  0.6961
  806MOL0     C 6316  10.106   6.157   2.736 -0.1672 -0.4648  1.3095
  806MOL0     C 6317  10.187   6.121   2.623 -1.3873 -0.7007  0.5297
  806MOL0     O 6318  10.322   6.113   2.620  0.3716  0.1051 -0.2079
  806MOL0     C 6319  10.404   6.116   2.738  0.4932 -0.5528  1.1445
  806MOL0     C 6320  10.544   6.067   2.701  0.3493 -0.5825 -0.9807
  806MOL0     C 6321  10.607   6.126   2.577  0.9351 -0.0934 -0.7642
  806MOL0     C 6322  10.745   6.080   2.555 -0.2346  0.2802 -0.2629
  806MOL0     C 6323  10.840   6.139   2.653  1.5837 -0.1239  0.0297
  806MOL0     C 6324  10.927   6.187   2.723 -1.4959 -0.2519 -0.4455
  806MOL0     C 6325  10.129   6.103   2.499  0.0679 -0.4778 -0.0923
  806MOL0     C 6326   9.988   6.104   2.478  0.4991  0.6320  0.2170
  806MOL0     H 6327   9.581   6.365   2.438 -1.6581  1.5305 -1.0155
  806MOL0     H 6328   9.331   6.383   2.384 -1.0793 -0.2557 -1.1333
  806MOL0     H 6329   9.084   6.029   2.282  2.3282  0.9162  1.8404
  806MOL0     H 6330   9.171   6.121   2.156  0.9313 -0.9941  0.1324
  806MOL0     H 6331   8.985   6.308   2.182 -1.0526  0.1055 -0.6369
  806MOL0     H 6332   8.900   6.193   2.286 -2.3366  1.3676 -1.6279
  806MOL0     H 6333   8.964   6.144   1.994 -2.5989 -0.2526 -2.8455
  806MOL0     H 6334   8.809   6.215   2.075 -1.5892 -2.3409 -1.8181
  806MOL0     H 6335   8.891   5.941   2.137  2.6275  2.5752  1.9224
  806MOL0     H 6336   8.755   6.052   2.187  0.5785  2.3295 -0.7058
  806MOL0     H 6337   8.799   5.942   1.908 -0.7905  0.9556 -1.0903
  806MOL0     H 6338   8.677   6.052   1.951  1.3454  2.3654  2.9631
  806MOL0     H 6339   8.701   5.774   2.063  1.1105  1.7844  2.0035
  806MOL0     H 6340   8.577   5.822   1.951  2.0321 -1.8777 -1.0998
  806MOL0     H 6341   8.487   5.785   2.185 -1.4757  1.3865  1.2385
  806MOL0     H 6342   8.593   5.902   2.252  0.2663 -2.7851  0.3515
  806MOL0     H 6343   8.376   5.973   2.056  2.0490 -3.4694 -1.2543
  806MOL0     H 6344   8.495   6.081   2.115  1.2815 -0.1541  1.3814
  806MOL0     H 6345   8.164   6.054   2.161 -1.3611  3.1197  1.7548
  806MOL0     H 6346   7.998   6.206   2.363  0.7223 -0.1866 -1.4451
  806MOL0     H 6347   8.037   6.180   2.520  0.1681  1.8691 -1.0273
  806MOL0     H 6348   8.033   5.944   2.527  0.9327  0.8440  1.7624
  806MOL0     H 6349   7.958   5.945   2.365  2.0899  1.8278  0.1824
  806MOL0     H 6350   7.802   6.144   2.535 -0.2249 -0.0461  0.9656
  806MOL0     H 6351   7.773   6.053   2.388 -1.2897 -1.1950  0.4127
  806MOL0     H 6352   7.714   5.861   2.494 -0.8159 -1.2613  1.4023
  806MOL0     H 6353   7.634   5.982   2.590  0.6610  0.2531  3.1341
  806MOL0     H 6354   7.673   5.680   2.623 -1.3169 -5.8913  1.3268
  806MOL0     H 6355   7.553   5.539   2.784  0.2976 -0.2743  0.7221
  806MOL0     H 6356   7.774   5.455   3.331 -0.9326 -1.2611 -3.4352
  806MOL0     H 6357   7.750   5.360   3.525  1.2590  1.8921 -2.6325
  806MOL0     H 6358   7.690   5.265   3.759  0.2527  0.0722 -0.5191
  806MOL0     H 6359   7.591   5.146   3.671  2.5370 -0.5074  1.2221
  806MOL0     H 6360   7.547   5.269   3.939 -0.1118  0.1722 -0.7448
  806MOL0     H 6361   7.579   5.097   3.906  0.2406 -0.4207 -1.6244
  806MOL0     H 6362   7.343   5.093   3.806 -2.7960  2.5028 -2.5991
  806MOL0     H 6363   7.330   5.262   3.848 -2.4388 -0.8142 -0.0649
  806MOL0     H 6364   7.369   5.018   4.033  0.0227  0.4319 -2.0092
  806MOL0     H 6365   7.400   5.177   4.100  1.4393 -1.8155 -0.4117
  806MOL0     H 6366   7.138   5.075   3.978 -2.7994  2.0308  0.7671
  806MOL0     H 6367   7.158   5.244   4.037  2.0665  0.5926  1.7408
  806MOL0     H 6368   7.240   5.129   4.249  1.3122 -1.9164  0.2967
  806MOL0     H 6369   7.184   4.988   4.184  0.8327  0.6331  1.5227
  806MOL0     H 6370   7.013   5.092   4.345 -2.7723 -1.0310 -0.1712
  806MOL0     H 6371   7.000   5.227   4.242 -0.7063  0.6438 -1.2302
  806MOL0     H 6372   6.920   4.948   4.173  0.7445  0.5979 -0.7048
  806MOL0     H 6373   6.923   5.059   4.047 -2.0528 -2.9429 -0.8373
  806MOL0     H 6374   7.336   5.471   3.568 -0.5948 -0.2189 -0.3466
  806MOL0     H 6375   7.379   5.589   3.334  0.8074 -2.3972 -2.7510
  806MOL0     H 6376   7.732   5.788   3.098 -1.6442  0.5515  1.3659
  806MOL0     H 6377   7.792   5.945   2.933 -2.6100 -0.0584  4.9610
  806MOL0     H 6378   9.277   5.968   2.397 -3.0969  2.3128 -0.8675
  806MOL0     H 6379   9.521   5.940   2.464  4.5205  0.9619  0.0755
  806MOL0     H 6380   9.912   6.169   2.814  1.3790 -2.6443  1.7960
  806MOL0     H 6381  10.161   6.165   2.829  2.6598  2.1598 -0.3997
  806MOL0     H 6382  10.360   6.049   2.813  0.3860  0.4909  2.0238
  806MOL0     H 6383  10.409   6.215   2.783  0.0276 -0.7437  1.6257
  806MOL0     H 6384  10.599   6.086   2.793  0.0022  0.0589 -0.8993
  806MOL0     H 6385  10.552   5.958   2.697  4.2257 -0.4613  0.2371
  806MOL0     H 6386  10.603   6.235   2.586  0.0300 -0.0683 -1.3199
  806MOL0     H 6387  10.545   6.098   2.491 -2.4469 -2.6130  2.1779
  806MOL0     H 6388  10.751   5.972   2.572  2.8651  0.2989 -0.5257
  806MOL0     H 6389  10.780   6.104   2.454 -0.6141  3.3983  0.2504
  806MOL0     H 6390  10.999   6.236   2.786 -2.0857  0.7777 -0.5421
  806MOL0     H 6391  10.208   6.072   2.431  1.2366 -2.7851  2.1570
  806MOL0     H 6392   9.954   6.078   2.379  0.3222 -2.7894  1.0476
  807MOL0     O 6393   0.410   4.343   9.980  0.0171  0.1214  0.4936
  807MOL0     C 6394   0.408   4.449  10.039  0.0870 -0.0332  0.3070
  807MOL0     O 6395   0.291   4.526  10.062  0.2804  0.2658 -0.6484
  807MOL0     C 6396   0.172   4.494  10.004  0.6048 -0.3643 -0.1033
  807MOL0     C 6397   0.051   4.504  10.075 -0.2984  0.1989 -0.5221
  807MOL0     C 6398  -0.074   4.460  10.024 -0.1419 -0.2829 -0.3951
  807MOL0     C 6399  -0.085   4.412   9.893  0.5116 -1.1464  0.1252
  807MOL0     O 6400  -0.196   4.385   9.821  0.2564 -0.0220 -0.0986
  807MOL0     C 6401  -0.305   4.335   9.898 -0.3685 -0.9078 -0.3373
  807MOL0     C 6402  -0.418   4.278   9.806 -0.5206  0.2045 -0.7359
  807MOL0     C 6403  -0.485   4.379   9.716  0.8463  0.0055  0.1182
  807MOL0     C 6404  -0.621   4.329   9.662  0.3272  0.2615  0.2997
  807MOL0     C 6405  -0.672   4.405   9.543 -0.0820  0.1209  0.3390
  807MOL0     C 6406  -0.712   4.546   9.578 -1.1798 -0.1502  0.0620
  807MOL0     C 6407  -0.742   4.607   9.436 -0.5676 -0.5107 -0.3086
  807MOL0     C 6408  -0.778   4.753   9.446  0.4205  0.2210 -0.2711
  807MOL0     N 6409  -0.920   4.798   9.477 -0.1314  0.0686  0.1620
  807MOL0     C 6410  -1.025   4.752   9.411  0.2612 -0.6288 -0.3978
  807MOL0     C 6411  -1.126   4.821   9.472  0.0051  0.4426 -0.4061
  807MOL0     C 6412  -1.274   4.808   9.450 -0.9113 -0.0791  0.6823
  807MOL0     C 6413  -1.349   4.938   9.444 -1.3840  0.0258  0.5569
  807MOL0     C 6414  -1.383   5.001   9.576 -0.3003 -0.2855 -0.3247
  807MOL0     C 6415  -1.475   5.127   9.570  0.3299  0.5990  0.5602
  807MOL0     O 6416  -1.606   5.094   9.523  0.1586 -0.1172  0.5982
  807MOL0     C 6417  -1.696   5.201   9.544 -0.1577 -0.1649  0.6397
  807MOL0     C 6418  -1.750   5.210   9.665 -0.8557  0.4665  0.1234
  807MOL0     C 6419  -1.857   5.296   9.686  0.2963  0.1241  0.1958
  807MOL0     C 6420  -1.905   5.382   9.589 -0.6399  0.6891  0.3184
  807MOL0     C 6421  -2.035   5.460   9.606 -0.2553  0.4646 -0.1779
  807MOL0     O 6422  -2.082   5.507   9.485  0.5858  0.1441 -0.0528
  807MOL0     C 6423  -2.206   5.573   9.484  0.0279 -0.1382  0.2509
  807MOL0     C 6424  -2.185   5.707   9.459  0.1148 -0.0518  0.0341
  807MOL0     C 6425  -2.303   5.787   9.437 -0.2773 -0.4454 -0.5961
  807MOL0     C 6426  -2.430   5.732   9.465 -0.1796  0.2233  0.0049
  807MOL0     O 6427  -2.540   5.814   9.453 -0.7268 -0.3297  0.0784
  807MOL0     C 6428  -2.598   5.856   9.580 -0.0707  0.8793 -0.3107
  807MOL0     C 6429  -2.673   5.984   9.564  0.0384 -0.2290 -0.4171
  807MOL0     C 6430  -2.814   5.951   9.500 -0.3066 -0.4051 -0.3694
  807MOL0     C 6431  -2.897   6.076   9.501  0.9882  0.3297  0.4026
  807MOL0     C 6432  -3.029   6.059   9.425  0.1985  0.0688  0.0686
  807MOL0     C 6433  -3.135   5.988   9.503  0.3670  0.2789  0.0028
  807MOL0     C 6434  -3.257   5.956   9.413 -0.6244 -0.0242  0.2621
  807MOL0     C 6435  -3.221   5.833   9.327 -0.4829  0.2879 -0.6650
  807MOL0    Cl 6436  -3.224   5.679   9.436  0.0490  0.1123  0.1139
  807MOL0     C 6437  -2.447   5.606   9.524 -0.8089  0.5421  0.6123
  807MOL0     C 6438  -2.330   5.525   9.529  0.3088 -0.0092 -0.3204
  807MOL0     O 6439  -2.087   5.488   9.714 -0.1083  0.0476  0.4801
  807MOL0     C 6440  -1.834   5.387   9.465 -0.6930  0.3899  0.7799
  807MOL0     C 6441  -1.735   5.292   9.443 -0.0538  0.1479 -0.1467
  807MOL0     N 6442  -1.078   4.912   9.569 -0.6978  0.6384 -0.1969
  807MOL0     N 6443  -0.954   4.891   9.570  0.3561  0.7463  0.9592
  807MOL0     C 6444   0.043   4.410   9.819 -0.1941  1.0154 -0.0453
  807MOL0     C 6445   0.165   4.440   9.875 -0.2299  0.2597 -0.5680
  807MOL0     C 6446   0.535   4.497  10.092  0.7006 -1.0789 -0.4898
  807MOL0     C 6447   0.535   4.581  10.207  1.1972  0.4281 -0.7513
  807MOL0     C 6448   0.660   4.627  10.253  0.2461  0.3280 -0.2768
  807MOL0     C 6449   0.775   4.609  10.181 -0.9617 -1.0661 -0.6510
  807MOL0     O 6450   0.891   4.662  10.241  0.3194  0.3950 -0.6957
  807MOL0     C 6451   1.002   4.677  10.148  0.1965  0.2182 -0.1735
  807MOL0     C 6452   1.134   4.700  10.225 -0.5736 -0.1558  0.3189
  807MOL0     C 6453   1.121   4.828  10.316  0.5222  0.0540 -0.6345
  807MOL0     C 6454   1.253   4.903  10.347  0.2274  0.8236  0.3140
  807MOL0     C 6455   1.298   4.948  10.214 -0.2886  0.1204 -0.7362
  807MOL0     C 6456   1.350   4.965  10.108 -0.4616 -0.4634  0.4779
  807MOL0     C 6457   0.774   4.539  10.057  0.0202 -0.1245 -0.2686
  807MOL0     C 6458   0.651   4.480  10.019 -0.0530 -1.7254 -0.7187
  807MOL0     H 6459   0.053   4.545  10.176 -2.3170  2.5403 -1.3419
  807MOL0     H 6460  -0.163   4.478  10.084  0.9116 -1.2816  1.5784
  807MOL0     H 6461  -0.357   4.410   9.959 -0.3747 -0.6286 -0.6854
  807MOL0     H 6462  -0.268   4.263   9.972 -1.2404  0.3497  1.3963
  807MOL0     H 6463  -0.486   4.248   9.886 -0.1336  2.0357  0.3460
  807MOL0     H 6464  -0.392   4.198   9.737 -3.9286 -0.4892 -1.3881
  807MOL0     H 6465  -0.422   4.420   9.636  1.3321 -0.4835  0.2482
  807MOL0     H 6466  -0.511   4.464   9.780  0.8295 -1.2055  1.7841
  807MOL0     H 6467  -0.618   4.222   9.638 -0.1570  0.5582 -1.1850
  807MOL0     H 6468  -0.691   4.337   9.745  0.8805  2.3113  0.6035
  807MOL0     H 6469  -0.759   4.347   9.512 -0.6098  1.1996 -0.2746
  807MOL0     H 6470  -0.595   4.414   9.466 -2.2814  3.6573 -1.7514
  807MOL0     H 6471  -0.620   4.596   9.610  1.1129 -1.7323 -3.4460
  807MOL0     H 6472  -0.787   4.568   9.655 -0.8391  2.0402 -0.1656
  807MOL0     H 6473  -0.651   4.598   9.375 -1.1741  1.9886 -1.7146
  807MOL0     H 6474  -0.817   4.553   9.378 -1.2316  2.0539 -2.0196
  807MOL0     H 6475  -0.744   4.811   9.359 -0.8761  1.3313 -0.0845
  807MOL0     H 6476  -0.714   4.794   9.524  2.4886 -1.7858 -0.8198
  807MOL0     H 6477  -1.015   4.665   9.346  0.4075 -0.9079 -0.0036
  807MOL0     H 6478  -1.318   4.742   9.526 -0.1755  0.8501  1.9604
  807MOL0     H 6479  -1.298   4.755   9.358 -1.8357  1.9853 -0.3362
  807MOL0     H 6480  -1.441   4.928   9.385 -0.4825  0.5757 -0.9766
  807MOL0     H 6481  -1.284   5.010   9.395 -2.1164  0.2485 -0.0999
  807MOL0     H 6482  -1.428   4.925   9.639  2.4327 -0.8729  1.0800
  807MOL0     H 6483  -1.295   5.035   9.632 -0.2485  2.1186 -1.6947
  807MOL0     H 6484  -1.436   5.206   9.505 -0.8236  1.6130  1.0602
  807MOL0     H 6485  -1.481   5.155   9.676  1.2627 -1.9819  1.3728
  807MOL0     H 6486  -1.723   5.138   9.742 -2.2607  0.3987  0.5780
  807MOL0     H 6487  -1.919   5.283   9.774  0.5056  0.2746  0.3683
  807MOL0     H 6488  -2.088   5.752   9.445 -0.9851  3.1996  1.9450
  807MOL0     H 6489  -2.298   5.892   9.409 -0.2543 -1.2840 -4.2617
  807MOL0     H 6490  -2.520   5.873   9.655 -1.4991 -0.1363  1.5094
  807MOL0     H 6491  -2.661   5.777   9.623 -1.1430  1.1940 -1.2483
  807MOL0     H 6492  -2.623   6.064   9.508 -1.0109  0.6400 -0.1487
  807MOL0     H 6493  -2.682   6.019   9.667  2.6681  0.3799 -0.3223
  807MOL0     H 6494  -2.859   5.874   9.564  1.1340 -0.4965  0.5849
  807MOL0     H 6495  -2.807   5.909   9.399  0.5756 -1.7963  0.2426
  807MOL0     H 6496  -2.920   6.093   9.607  5.4925 -0.0715  1.6833
  807MOL0     H 6497  -2.833   6.153   9.457 -1.4529  2.5669  0.5692
  807MOL0     H 6498  -3.015   6.018   9.324  1.6493 -5.0539  2.0727
  807MOL0     H 6499  -3.063   6.164   9.424 -1.4713 -0.3331  2.9726
  807MOL0     H 6500  -3.169   6.061   9.577  1.9961  0.5519  0.5080
  807MOL0     H 6501  -3.093   5.896   9.543  1.3515 -0.0221 -1.6311
  807MOL0     H 6502  -3.343   5.938   9.478 -0.7157 -0.6330 -0.0236
  807MOL0     H 6503  -3.274   6.042   9.347  0.6304 -0.8481 -1.2220
  807MOL0     H 6504  -3.123   5.850   9.281  0.2931 -0.3970  0.6738
  807MOL0     H 6505  -3.295   5.817   9.248  2.0262 -1.6891 -2.8043
  807MOL0     H 6506  -2.542   5.556   9.536 -1.1659  1.2069  0.6134
  807MOL0     H 6507  -2.328   5.434   9.588  0.6026  1.5439  2.1951
  807MOL0     H 6508  -1.866   5.450   9.382  3.9003 -0.1773 -1.8116
  807MOL0     H 6509  -1.684   5.280   9.348 -0.4364  0.8816 -0.4620
  807MOL0     H 6510   0.035   4.376   9.716  2.0626 -1.9868  0.6110
  807MOL0     H 6511   0.252   4.433   9.810  4.2221 -4.0733  4.7652
  807MOL0     H 6512   0.439   4.606  10.251  1.7880  0.3188  0.6521
  807MOL0     H 6513   0.657   4.690  10.342 -1.4239 -1.1881  0.8287
  807MOL0     H 6514   0.980   4.758  10.078 -1.1936 -0.7709 -0.9077
  807MOL0     H 6515   1.017   4.589  10.085  1.0434  0.2836 -0.0742
  807MOL0     H 6516   1.163   4.614  10.286  1.4679  0.3101  0.0640
  807MOL0     H 6517   1.222   4.708  10.161 -0.5014 -1.7467  0.1883
  807MOL0     H 6518   1.081   4.794  10.412 -0.5685  2.4042 -0.1740
  807MOL0     H 6519   1.051   4.899  10.271  1.1250 -0.1363 -1.9135
  807MOL0     H 6520   1.249   4.988  10.415 -0.4388  1.1451 -0.1220
  807MOL0     H 6521   1.325   4.829  10.384 -0.2406  2.2893  4.6586
  807MOL0     H 6522   1.418   5.000  10.033  2.2600 -0.2702  2.8784
  807MOL0     H 6523   0.855   4.507   9.993 -1.4319 -2.2049 -1.1894
  807MOL0     H 6524   0.640   4.437   9.920  0.6108 -2.0302 -0.6615
  808MOL0     O 6525   2.709   3.833   7.124  0.7797  0.2288  0.6838
  808MOL0     C 6526   2.797   3.757   7.150 -0.8284 -0.5600  0.3415
  808MOL0     O 6527   2.788   3.619   7.162 -0.1776  0.1453 -0.0928
  808MOL0     C 6528   2.653   3.578   7.185 -0.3845  0.3151 -0.4273
  808MOL0     C 6529   2.634   3.488   7.288  0.8056 -0.5295 -0.4753
  808MOL0     C 6530   2.506   3.460   7.334 -0.8178 -0.4216 -0.3206
  808MOL0     C 6531   2.393   3.492   7.256  0.4865 -0.1072 -0.4051
  808MOL0     O 6532   2.267   3.465   7.292 -0.2484  0.3422  0.4513
  808MOL0     C 6533   2.244   3.406   7.422  0.8300 -0.8146 -0.1907
  808MOL0     C 6534   2.094   3.373   7.427 -0.3664  0.0777  0.8122
  808MOL0     C 6535   2.004   3.504   7.453  0.1137  0.4773  0.5686
  808MOL0     C 6536   1.855   3.483   7.405 -0.4497  0.4704  0.4499
  808MOL0     C 6537   1.797   3.366   7.476  0.5625 -0.6905  0.2792
  808MOL0     C 6538   1.655   3.337   7.432 -0.4401 -1.0475 -0.3656
  808MOL0     C 6539   1.580   3.239   7.527 -0.6081 -0.1406 -0.1554
  808MOL0     C 6540   1.434   3.235   7.478 -0.8061  0.1777 -0.4332
  808MOL0     N 6541   1.361   3.362   7.462 -0.7023  0.0496  0.1098
  808MOL0     C 6542   1.353   3.440   7.352  0.2685 -0.4750 -0.9946
  808MOL0     C 6543   1.255   3.524   7.376 -0.5171 -0.5305 -0.0807
  808MOL0     C 6544   1.228   3.644   7.290 -0.7992 -0.8163  0.0805
  808MOL0     C 6545   1.088   3.694   7.293 -0.4520  0.0939 -0.4779
  808MOL0     C 6546   0.990   3.616   7.212  0.1167 -0.3201 -0.6740
  808MOL0     C 6547   0.856   3.652   7.248 -0.3419  0.0338 -0.2547
  808MOL0     O 6548   0.833   3.596   7.379  0.1523 -0.2189  0.0956
  808MOL0     C 6549   0.714   3.625   7.435 -0.2335 -0.3819  0.4001
  808MOL0     C 6550   0.646   3.746   7.433  0.1485 -1.4871 -0.7206
  808MOL0     C 6551   0.513   3.760   7.485 -0.0692 -0.3575 -0.8853
  808MOL0     C 6552   0.444   3.650   7.535  0.0858  0.7504  0.3323
  808MOL0     C 6553   0.304   3.657   7.589 -0.5374  0.9476  0.3376
  808MOL0     O 6554   0.245   3.541   7.638 -0.2442  0.2010 -0.6197
  808MOL0     C 6555   0.123   3.567   7.699  0.1938 -1.1066  1.0848
  808MOL0     C 6556   0.096   3.512   7.824 -0.7573  0.7675 -0.0021
  808MOL0     C 6557  -0.039   3.518   7.870  0.4197  0.7584  0.2945
  808MOL0     C 6558  -0.135   3.585   7.811  0.3207 -0.3232  0.7629
  808MOL0     O 6559  -0.266   3.590   7.854 -0.0485 -0.3286 -0.4848
  808MOL0     C 6560  -0.356   3.486   7.810  0.6381  1.0321 -0.7426
  808MOL0     C 6561  -0.495   3.536   7.798 -0.4026  0.1415 -0.8719
  808MOL0     C 6562  -0.591   3.427   7.780 -0.0377  0.0073  0.2753
  808MOL0     C 6563  -0.727   3.476   7.808  0.4107  0.1215 -0.6667
  808MOL0     C 6564  -0.773   3.434   7.953 -0.9219  0.4646  0.7499
  808MOL0     C 6565  -0.924   3.434   7.969  0.2684  0.2363  0.8280
  808MOL0     C 6566  -0.998   3.320   7.892  0.6241 -0.5603 -0.0888
  808MOL0     C 6567  -1.148   3.333   7.877  0.3768 -0.6891  0.1168
  808MOL0    Cl 6568  -1.215   3.295   8.037 -0.0575  0.0623  0.2110
  808MOL0     C 6569  -0.117   3.651   7.691 -0.1821  0.1714  0.0595
  808MOL0     C 6570   0.011   3.645   7.636  0.4840  1.2487  0.3218
  808MOL0     O 6571   0.250   3.769   7.593  0.0914 -0.3921 -0.9892
  808MOL0     C 6572   0.517   3.530   7.538  1.1151 -0.1573 -0.4854
  808MOL0     C 6573   0.652   3.518   7.492  1.4584  0.2300 -0.0361
  808MOL0     N 6574   1.213   3.502   7.504 -0.4626 -0.9622 -0.7999
  808MOL0     N 6575   1.269   3.396   7.552 -1.4298 -0.2139 -0.4785
  808MOL0     C 6576   2.410   3.567   7.142  0.0932 -0.0167  0.7568
  808MOL0     C 6577   2.538   3.611   7.109 -0.6048 -0.6018 -0.0612
  808MOL0     C 6578   2.939   3.804   7.141 -0.1019  0.2429 -0.1132
  808MOL0     C 6579   2.963   3.940   7.160 -0.3123  0.0268  0.2658
  808MOL0     C 6580   3.088   3.999   7.158  1.0062  0.1910  0.2023
  808MOL0     C 6581   3.193   3.913   7.144 -0.3233  0.0694  0.4449
  808MOL0     O 6582   3.320   3.939   7.168 -0.0940 -0.0647  0.0221
  808MOL0     C 6583   3.348   4.029   7.281 -0.3822 -0.4374  0.3681
  808MOL0     C 6584   3.496   4.034   7.297  1.0140  0.1704 -0.6080
  808MOL0     C 6585   3.534   4.092   7.438  0.2893  0.1013 -0.7220
  808MOL0     C 6586   3.502   4.235   7.453 -1.0426 -0.1541  1.3522
  808MOL0     C 6587   3.540   4.296   7.578 -0.1334 -0.3448 -0.8956
  808MOL0     C 6588   3.582   4.332   7.690 -0.1401  0.6438 -0.1177
  808MOL0     C 6589   3.167   3.787   7.095 -0.3928 -0.0189  1.4920
  808MOL0     C 6590   3.042   3.722   7.101 -0.2274  0.2689  0.0294
  808MOL0     H 6591   2.724   3.458   7.340 -1.8418 -0.7046  4.6212
  808MOL0     H 6592   2.506   3.403   7.427 -1.8372  0.8935  0.5081
  808MOL0     H 6593   2.273   3.483   7.494  0.1093  0.1802 -0.9339
  808MOL0     H 6594   2.310   3.321   7.442  0.2056 -1.7870 -2.0538
  808MOL0     H 6595   2.063   3.304   7.506 -4.9584  1.3936  0.4590
  808MOL0     H 6596   2.059   3.325   7.335  3.0292 -3.2739  1.0036
  808MOL0     H 6597   2.041   3.590   7.396 -1.0679  0.2705 -0.5628
  808MOL0     H 6598   2.002   3.547   7.554 -2.4057  2.7482 -0.3003
  808MOL0     H 6599   1.800   3.573   7.433 -2.0549  0.7827 -3.1174
  808MOL0     H 6600   1.856   3.487   7.295 -0.4369  1.3609  0.4745
  808MOL0     H 6601   1.812   3.380   7.583  0.6550  0.1310  0.1681
  808MOL0     H 6602   1.852   3.277   7.446  1.1203  0.1398 -1.2694
  808MOL0     H 6603   1.653   3.297   7.330 -1.5517  0.0264 -0.7949
  808MOL0     H 6604   1.601   3.433   7.434  1.0955 -0.0012 -3.0918
  808MOL0     H 6605   1.629   3.141   7.517 -0.3034  0.1230 -1.4046
  808MOL0     H 6606   1.584   3.276   7.629 -1.0557  1.8514 -0.8183
  808MOL0     H 6607   1.368   3.176   7.542 -0.4928 -2.5351 -2.4400
  808MOL0     H 6608   1.426   3.187   7.380 -1.5994 -0.1966 -0.1900
  808MOL0     H 6609   1.420   3.443   7.266 -1.1552  0.5271 -2.1158
  808MOL0     H 6610   1.248   3.624   7.184  1.6385  1.6967 -0.0820
  808MOL0     H 6611   1.296   3.729   7.307  0.0096  0.1182 -5.6614
  808MOL0     H 6612   1.093   3.798   7.257  1.2980  0.3442  0.3394
  808MOL0     H 6613   1.060   3.699   7.399  3.4145 -0.0845  0.7399
  808MOL0     H 6614   1.020   3.642   7.110  0.0680  0.2408 -0.5447
  808MOL0     H 6615   0.993   3.508   7.228 -2.0882 -0.0499  2.4211
  808MOL0     H 6616   0.792   3.604   7.173  0.3056  1.2793 -1.6573
  808MOL0     H 6617   0.837   3.760   7.244 -3.4855 -0.3710  0.9442
  808MOL0     H 6618   0.674   3.842   7.392 -0.9904  0.2862  2.2900
  808MOL0     H 6619   0.469   3.858   7.476 -0.1334 -0.3199 -0.2048
  808MOL0     H 6620   0.182   3.462   7.867 -2.4668 -0.0541  2.6550
  808MOL0     H 6621  -0.046   3.460   7.961  4.4084  0.5526  0.6566
  808MOL0     H 6622  -0.345   3.394   7.868 -1.6040  0.4810 -1.0904
  808MOL0     H 6623  -0.318   3.449   7.714  3.5656 -2.2729  1.4004
  808MOL0     H 6624  -0.494   3.607   7.715 -1.4944 -0.7973 -1.7226
  808MOL0     H 6625  -0.520   3.598   7.885 -2.8998  1.6714 -2.5231
  808MOL0     H 6626  -0.557   3.335   7.829  1.4638  0.4280  0.0688
  808MOL0     H 6627  -0.602   3.413   7.673 -0.7437  2.2782  0.0052
  808MOL0     H 6628  -0.728   3.585   7.804  1.7510  0.1710  0.0679
  808MOL0     H 6629  -0.796   3.429   7.736 -0.1533 -3.2642  1.8380
  808MOL0     H 6630  -0.720   3.500   8.022  0.7617 -1.7882  1.7197
  808MOL0     H 6631  -0.743   3.331   7.974 -1.6243  0.3222  1.0948
  808MOL0     H 6632  -0.957   3.538   7.958  1.3189  0.8189  2.6415
  808MOL0     H 6633  -0.944   3.415   8.075 -2.0786 -1.0324  0.2071
  808MOL0     H 6634  -0.972   3.307   7.787  0.5284 -2.2879  0.0713
  808MOL0     H 6635  -0.970   3.228   7.944 -0.1900  0.2301  1.8806
  808MOL0     H 6636  -1.183   3.254   7.809  0.9670 -1.5011  0.7411
  808MOL0     H 6637  -1.172   3.431   7.834  0.7390 -0.3039  0.7770
  808MOL0     H 6638  -0.195   3.712   7.647  1.2661  3.8687  2.1239
  808MOL0     H 6639   0.022   3.684   7.536  0.8699  0.0979 -0.1085
  808MOL0     H 6640   0.475   3.435   7.569 -0.6070  1.0516  1.0944
  808MOL0     H 6641   0.708   3.425   7.493 -2.4629 -2.4020 -1.1427
  808MOL0     H 6642   2.324   3.605   7.087 -0.1809  0.9079  1.7859
  808MOL0     H 6643   2.547   3.681   7.026 -2.3463 -2.6472 -2.1195
  808MOL0     H 6644   2.889   4.019   7.169  1.6041  1.6361  4.3364
  808MOL0     H 6645   3.113   4.102   7.181  1.6997  0.4693 -1.6159
  808MOL0     H 6646   3.296   3.982   7.365 -0.2308 -1.9819 -0.3617
  808MOL0     H 6647   3.303   4.128   7.274  0.2634 -0.2702 -2.1603
  808MOL0     H 6648   3.538   3.933   7.294 -2.0219 -1.2477  0.9161
  808MOL0     H 6649   3.540   4.089   7.214  0.9331 -3.3440 -3.1727
  808MOL0     H 6650   3.643   4.096   7.453 -0.0540  0.5326  2.2096
  808MOL0     H 6651   3.483   4.041   7.520 -0.8831  0.5071 -1.1812
  808MOL0     H 6652   3.556   4.285   7.372 -0.9862 -0.6941  1.0479
  808MOL0     H 6653   3.394   4.252   7.455 -0.9798  0.2152  2.9706
  808MOL0     H 6654   3.626   4.364   7.782  0.4411 -3.2977  1.1293
  808MOL0     H 6655   3.253   3.723   7.075 -0.2626  0.4874  0.3589
  808MOL0     H 6656   3.023   3.620   7.072  0.6254  0.0851  0.0706
  809MOL0     O 6657   0.807   4.543   8.362 -0.3757 -0.0606  0.2298
  809MOL0     C 6658   0.889   4.456   8.312  0.1570  0.1225 -1.2724
  809MOL0     O 6659   0.849   4.361   8.221 -0.0689 -0.3241 -0.1359
  809MOL0     C 6660   0.716   4.353   8.190  0.3215 -0.3181 -0.0318
  809MOL0     C 6661   0.653   4.227   8.195 -0.0448  0.3267 -0.4197
  809MOL0     C 6662   0.518   4.212   8.150  0.1567 -0.3849  0.6158
  809MOL0     C 6663   0.445   4.321   8.097  0.8143 -0.6620  0.5893
  809MOL0     O 6664   0.320   4.304   8.047 -0.0604  1.1798 -0.5331
  809MOL0     C 6665   0.216   4.316   8.149  0.8750 -0.2052  0.3443
  809MOL0     C 6666   0.095   4.376   8.075  0.3236  0.6160  0.4804
  809MOL0     C 6667  -0.033   4.394   8.167 -0.8618 -1.0749  0.1362
  809MOL0     C 6668  -0.149   4.448   8.096  0.6594 -1.1874 -0.0931
  809MOL0     C 6669  -0.286   4.431   8.176 -0.4375  0.2878  0.6036
  809MOL0     C 6670  -0.407   4.456   8.089  0.5520  0.8514  0.2942
  809MOL0     C 6671  -0.547   4.427   8.151 -0.3466  0.1185 -0.0127
  809MOL0     C 6672  -0.663   4.412   8.049 -1.0699 -0.2101  0.0929
  809MOL0     N 6673  -0.786   4.361   8.112  0.1196 -0.7429  0.2259
  809MOL0     C 6674  -0.847   4.238   8.089 -0.1491  0.5249  0.1162
  809MOL0     C 6675  -0.980   4.248   8.113  0.1616  1.3658 -1.2599
  809MOL0     C 6676  -1.078   4.134   8.107  0.5250 -0.7219 -0.9895
  809MOL0     C 6677  -1.221   4.191   8.103  0.9810  0.5293 -0.2397
  809MOL0     C 6678  -1.315   4.069   8.096 -0.0671 -0.4069  0.4976
  809MOL0     C 6679  -1.463   4.112   8.074  0.1574  0.1290  0.1179
  809MOL0     O 6680  -1.491   4.206   8.176  0.4077  0.0009 -0.5606
  809MOL0     C 6681  -1.631   4.225   8.208 -0.4712  0.4067  0.2334
  809MOL0     C 6682  -1.742   4.202   8.117 -0.8617 -0.8909 -0.3888
  809MOL0     C 6683  -1.871   4.225   8.156  0.2151  0.3799 -0.0718
  809MOL0     C 6684  -1.900   4.269   8.287 -0.2193 -0.3512  0.4268
  809MOL0     C 6685  -2.039   4.287   8.324 -0.4548 -0.0661  0.1034
  809MOL0     O 6686  -2.130   4.262   8.224 -0.7854  0.4044  0.9758
  809MOL0     C 6687  -2.264   4.261   8.233  0.8570 -0.8160 -1.4905
  809MOL0     C 6688  -2.339   4.334   8.329 -0.4833 -0.4396  0.5613
  809MOL0     C 6689  -2.476   4.337   8.315  0.5129 -0.3265 -0.3935
  809MOL0     C 6690  -2.538   4.254   8.226 -0.1875 -0.4968  0.1805
  809MOL0     O 6691  -2.676   4.242   8.210  0.8715 -0.1724  0.0307
  809MOL0     C 6692  -2.744   4.128   8.262 -0.2996 -0.5662  0.0131
  809MOL0     C 6693  -2.886   4.140   8.207 -0.7742 -0.1003 -0.2365
  809MOL0     C 6694  -2.975   4.237   8.288  0.5374 -0.1618 -0.0250
  809MOL0     C 6695  -3.122   4.218   8.238  1.4129 -0.3954 -0.1266
  809MOL0     C 6696  -3.224   4.306   8.314 -0.5911 -0.5670  0.3170
  809MOL0     C 6697  -3.235   4.246   8.454  1.0380  1.0516 -0.2254
  809MOL0     C 6698  -3.358   4.308   8.525  0.7874 -0.0643  0.2691
  809MOL0     C 6699  -3.508   4.284   8.471 -0.5664  0.0819  0.1487
  809MOL0    Cl 6700  -3.648   4.352   8.559  0.2657  0.0342  0.3744
  809MOL0     C 6701  -2.462   4.176   8.143  0.5894  0.0291  0.1805
  809MOL0     C 6702  -2.323   4.184   8.136  0.1959  0.1214  0.8135
  809MOL0     O 6703  -2.071   4.308   8.438  0.1646 -0.4058  0.5546
  809MOL0     C 6704  -1.799   4.288   8.372  0.4949 -1.1583 -0.5655
  809MOL0     C 6705  -1.667   4.282   8.331 -0.1002 -0.2296 -0.5117
  809MOL0     N 6706  -0.994   4.380   8.147 -0.5141  0.5848  0.0075
  809MOL0     N 6707  -0.885   4.452   8.140  0.0500  0.0355 -0.1387
  809MOL0     C 6708   0.509   4.446   8.093 -0.4288  0.4354  0.2639
  809MOL0     C 6709   0.642   4.460   8.135 -0.4183  1.0670 -0.5109
  809MOL0     C 6710   1.028   4.458   8.353  0.0574  0.2589  0.4784
  809MOL0     C 6711   1.112   4.360   8.300 -0.3629 -0.7041 -0.4593
  809MOL0     C 6712   1.241   4.345   8.349  0.1982  0.1438 -0.1114
  809MOL0     C 6713   1.284   4.419   8.455 -0.0551  0.4100 -0.2461
  809MOL0     O 6714   1.412   4.392   8.499  0.0662 -0.0168  0.5745
  809MOL0     C 6715   1.514   4.441   8.413  0.3341 -0.2353 -0.5401
  809MOL0     C 6716   1.510   4.591   8.372  0.6518 -0.2255 -0.0803
  809MOL0     C 6717   1.556   4.677   8.496  0.5106 -0.6600 -0.7147
  809MOL0     C 6718   1.566   4.833   8.466 -0.5677 -0.1993  1.2259
  809MOL0     C 6719   1.438   4.895   8.488 -0.1938 -0.1978 -0.0043
  809MOL0     C 6720   1.330   4.953   8.496 -0.9454 -1.0164  0.1028
  809MOL0     C 6721   1.215   4.525   8.508  0.2205 -0.5672 -0.1375
  809MOL0     C 6722   1.080   4.542   8.457  0.1750  0.1484  0.5353
  809MOL0     H 6723   0.696   4.138   8.239  0.0198 -0.0700 -1.2649
  809MOL0     H 6724   0.468   4.115   8.156  1.8555 -1.6614 -2.9348
  809MOL0     H 6725   0.238   4.376   8.238 -3.4825 -0.7627  2.0431
  809MOL0     H 6726   0.190   4.217   8.188  2.5219 -0.2291  1.4645
  809MOL0     H 6727   0.072   4.315   7.987 -0.4493 -0.4491  1.4025
  809MOL0     H 6728   0.107   4.478   8.036 -2.2767  1.3966  1.5435
  809MOL0     H 6729  -0.010   4.462   8.250  2.4485  0.5326 -1.8930
  809MOL0     H 6730  -0.063   4.291   8.192 -2.0285 -1.1734 -1.4874
  809MOL0     H 6731  -0.128   4.554   8.081 -2.4845 -0.4343  0.0922
  809MOL0     H 6732  -0.149   4.401   7.998  1.0964 -1.2160 -0.0823
  809MOL0     H 6733  -0.279   4.507   8.255 -0.7140  0.0951  0.8152
  809MOL0     H 6734  -0.286   4.326   8.206  1.2338 -0.1040 -0.6398
  809MOL0     H 6735  -0.392   4.386   8.007  2.8419  0.4062  1.0256
  809MOL0     H 6736  -0.406   4.554   8.039  1.5722  0.8973  0.3893
  809MOL0     H 6737  -0.548   4.339   8.215 -0.8244  0.9046  1.1013
  809MOL0     H 6738  -0.579   4.509   8.217  0.4742 -1.0424  1.9119
  809MOL0     H 6739  -0.627   4.340   7.975  1.7413  1.0904  0.0942
  809MOL0     H 6740  -0.681   4.510   8.004  0.9940 -0.2207 -0.8448
  809MOL0     H 6741  -0.798   4.146   8.057 -0.3367  1.0094 -1.6558
  809MOL0     H 6742  -1.070   4.075   8.198  1.4273  1.3441  0.3427
  809MOL0     H 6743  -1.042   4.078   8.020 -0.5231 -3.7343  0.3927
  809MOL0     H 6744  -1.224   4.260   8.018  3.9005 -0.1476 -1.0191
  809MOL0     H 6745  -1.239   4.246   8.196 -4.0839 -0.8044 -0.1380
  809MOL0     H 6746  -1.282   4.002   8.016  0.6807  2.5925 -1.8937
  809MOL0     H 6747  -1.304   4.026   8.196  2.7157  3.0389  1.8813
  809MOL0     H 6748  -1.528   4.026   8.096  0.3726 -0.1284 -0.2503
  809MOL0     H 6749  -1.481   4.151   7.973 -1.2251 -0.6682  0.0307
  809MOL0     H 6750  -1.721   4.158   8.020 -0.5217 -2.5337  0.4054
  809MOL0     H 6751  -1.947   4.230   8.079 -0.4274 -4.1795  0.0088
  809MOL0     H 6752  -2.297   4.410   8.395 -1.1618  1.6593 -1.2739
  809MOL0     H 6753  -2.540   4.399   8.377  2.3010  1.5557 -0.3316
  809MOL0     H 6754  -2.755   4.131   8.371 -0.3401 -3.6358  0.1907
  809MOL0     H 6755  -2.694   4.034   8.238  0.0330 -0.2082 -0.7333
  809MOL0     H 6756  -2.927   4.039   8.202 -3.3527  0.7802  1.0829
  809MOL0     H 6757  -2.888   4.178   8.105 -1.2334 -1.3412 -0.6966
  809MOL0     H 6758  -2.948   4.342   8.279  2.2356 -0.7391 -2.9348
  809MOL0     H 6759  -2.966   4.212   8.394 -0.0564  0.1892  0.1132
  809MOL0     H 6760  -3.114   4.248   8.133  0.1599 -1.1766 -0.4655
  809MOL0     H 6761  -3.147   4.112   8.250  0.4764 -0.2232 -0.4214
  809MOL0     H 6762  -3.313   4.317   8.252  0.7455  0.5966 -1.5151
  809MOL0     H 6763  -3.184   4.407   8.328 -1.6075 -0.0505 -0.4345
  809MOL0     H 6764  -3.142   4.261   8.511  0.2457 -0.1058  1.4819
  809MOL0     H 6765  -3.253   4.139   8.439 -1.1646  1.2655  0.4882
  809MOL0     H 6766  -3.356   4.279   8.631 -0.2314  2.1204  0.9368
  809MOL0     H 6767  -3.340   4.416   8.528  0.1561  0.0528 -0.0219
  809MOL0     H 6768  -3.521   4.176   8.478 -1.3277  0.2179  0.9998
  809MOL0     H 6769  -3.524   4.294   8.364 -0.7946 -4.8691 -0.5253
  809MOL0     H 6770  -2.514   4.100   8.085 -0.1053  1.0031 -0.4849
  809MOL0     H 6771  -2.278   4.131   8.053 -3.5141  2.5679 -3.2346
  809MOL0     H 6772  -1.801   4.328   8.473  2.1539  1.5726 -1.4860
  809MOL0     H 6773  -1.584   4.305   8.398 -1.7298  1.3745  1.0517
  809MOL0     H 6774   0.465   4.541   8.066 -1.2256  0.2121  0.7385
  809MOL0     H 6775   0.694   4.555   8.138  0.4085  0.6384 -0.8661
  809MOL0     H 6776   1.059   4.298   8.228 -2.4998  0.1401  0.2876
  809MOL0     H 6777   1.293   4.263   8.301 -1.6423 -0.5497 -1.0176
  809MOL0     H 6778   1.498   4.391   8.317 -2.1676  2.2208 -1.5326
  809MOL0     H 6779   1.613   4.414   8.452 -0.2291 -0.5869  0.7035
  809MOL0     H 6780   1.588   4.598   8.295  1.7628 -1.8938  0.8316
  809MOL0     H 6781   1.413   4.618   8.330 -0.8233 -2.2703  1.7612
  809MOL0     H 6782   1.657   4.639   8.518  0.3160  0.7706  3.5521
  809MOL0     H 6783   1.493   4.659   8.584  1.5934 -0.5836  0.1053
  809MOL0     H 6784   1.644   4.886   8.521  0.0872  3.1206 -2.4914
  809MOL0     H 6785   1.594   4.839   8.361 -1.9654 -1.5020  0.7425
  809MOL0     H 6786   1.249   5.022   8.495  0.1575  0.3370 -2.0067
  809MOL0     H 6787   1.252   4.590   8.588 -0.0283 -2.1825  1.3569
  809MOL0     H 6788   1.021   4.623   8.496  1.1482  1.7983 -1.2200
  810MOL0     O 6789   4.485   8.512   7.230  0.2105 -0.3719 -0.7343
  810MOL0     C 6790   4.490   8.550   7.346 -0.2960 -0.5106 -0.0908
  810MOL0     O 6791   4.412   8.515   7.446 -0.4181 -0.4539 -0.1648
  810MOL0     C 6792   4.307   8.439   7.430 -0.1601 -0.6624  0.1276
  810MOL0     C 6793   4.186   8.504   7.459  0.8117 -1.1944  0.9640
  810MOL0     C 6794   4.070   8.433   7.482 -1.0000 -0.5241  0.4494
  810MOL0     C 6795   4.064   8.292   7.462 -0.5118  0.3375 -0.2762
  810MOL0     O 6796   3.954   8.211   7.460 -0.3958  0.3180 -0.0545
  810MOL0     C 6797   3.827   8.274   7.429 -0.2781 -0.5907  0.3559
  810MOL0     C 6798   3.712   8.192   7.474  0.5148  0.3884  0.5602
  810MOL0     C 6799   3.575   8.262   7.445 -1.1998 -0.0065 -0.1203
  810MOL0     C 6800   3.462   8.164   7.486 -0.1216 -0.3879 -1.0709
  810MOL0     C 6801   3.327   8.186   7.417 -0.1063  0.2377  0.4227
  810MOL0     C 6802   3.215   8.086   7.430 -0.5238  0.1098  0.1410
  810MOL0     C 6803   3.241   7.960   7.352 -0.4505 -0.3572  0.0025
  810MOL0     C 6804   3.190   7.835   7.420  0.0406  0.6611 -0.4964
  810MOL0     N 6805   3.042   7.828   7.432 -0.5706  0.0558 -0.1186
  810MOL0     C 6806   2.975   7.728   7.376  0.2815  0.4738 -0.2431
  810MOL0     C 6807   2.841   7.756   7.378 -1.0828  0.6662  0.1941
  810MOL0     C 6808   2.730   7.685   7.309 -0.0067  0.4678  0.5713
  810MOL0     C 6809   2.578   7.717   7.325  0.2524  0.0526 -0.1943
  810MOL0     C 6810   2.488   7.648   7.215  0.0644 -0.4059 -0.1910
  810MOL0     C 6811   2.353   7.719   7.201 -0.0853  0.5526 -0.0751
  810MOL0     O 6812   2.256   7.621   7.150 -0.5323 -0.1211  0.2417
  810MOL0     C 6813   2.125   7.646   7.148 -0.3165  0.1411  0.6098
  810MOL0     C 6814   2.084   7.778   7.149  0.1197 -0.4690 -0.6871
  810MOL0     C 6815   1.949   7.816   7.125  0.7262  0.9873  0.0140
  810MOL0     C 6816   1.863   7.711   7.105  0.5514 -0.6689  0.4098
  810MOL0     C 6817   1.713   7.749   7.074  0.4589  0.1677  0.5032
  810MOL0     O 6818   1.682   7.876   7.046 -0.1361 -0.3732 -0.8161
  810MOL0     C 6819   1.551   7.916   7.031 -0.0830 -0.5042 -0.4017
  810MOL0     C 6820   1.538   8.039   6.967  0.5106  0.1961  0.1954
  810MOL0     C 6821   1.414   8.104   6.957 -0.3450  0.0153 -0.3141
  810MOL0     C 6822   1.302   8.049   7.016  0.4782  0.2285 -1.5345
  810MOL0     O 6823   1.173   8.099   7.003  0.8532  0.2265 -0.1387
  810MOL0     C 6824   1.145   8.207   6.921  0.8112  0.2870  0.7910
  810MOL0     C 6825   1.002   8.265   6.947  0.1281  0.2231 -0.5464
  810MOL0     C 6826   0.990   8.413   6.893  0.0182  0.1891  0.3620
  810MOL0     C 6827   0.850   8.472   6.902  0.5824  0.1064  0.2142
  810MOL0     C 6828   0.841   8.616   6.841 -0.2018  0.3738 -0.4857
  810MOL0     C 6829   0.697   8.669   6.850  0.1255  0.8039 -0.1005
  810MOL0     C 6830   0.618   8.633   6.729  0.3933  0.6563 -0.3682
  810MOL0     C 6831   0.464   8.675   6.742  1.0740 -1.0909  0.0341
  810MOL0    Cl 6832   0.459   8.851   6.789  0.0476 -0.1280  0.1077
  810MOL0     C 6833   1.320   7.925   7.081  0.5471 -1.3438 -0.7382
  810MOL0     C 6834   1.444   7.868   7.096 -0.0241  0.5397 -1.5044
  810MOL0     O 6835   1.638   7.656   7.060  0.8036 -0.1184 -0.2256
  810MOL0     C 6836   1.894   7.578   7.114 -0.6099 -0.5954  0.3420
  810MOL0     C 6837   2.025   7.544   7.136  0.2275 -0.4099 -0.1053
  810MOL0     N 6838   2.837   7.872   7.455 -1.1026  0.0341  0.7004
  810MOL0     N 6839   2.955   7.920   7.477 -0.5764 -0.3798  0.4731
  810MOL0     C 6840   4.190   8.224   7.441 -0.2552 -0.2830 -0.0998
  810MOL0     C 6841   4.307   8.298   7.420 -0.0760 -0.1134 -0.6945
  810MOL0     C 6842   4.599   8.636   7.390 -0.3747  0.1323  0.1001
  810MOL0     C 6843   4.730   8.599   7.358  0.0412 -0.5548 -0.0279
  810MOL0     C 6844   4.842   8.669   7.401  0.4368 -0.6668  0.4844
  810MOL0     C 6845   4.818   8.775   7.487 -0.2415  0.0675 -1.4146
  810MOL0     O 6846   4.934   8.835   7.541  0.2930  0.0106  0.5976
  810MOL0     C 6847   4.915   8.941   7.631 -0.5067  0.1580 -0.2022
  810MOL0     C 6848   5.043   9.013   7.683  0.3439  0.0894 -0.2990
  810MOL0     C 6849   5.146   8.926   7.759  0.5637  0.5152  0.7085
  810MOL0     C 6850   5.262   9.016   7.793 -0.1544 -0.0895  0.4820
  810MOL0     C 6851   5.359   8.925   7.868 -0.6271 -0.2266  0.0506
  810MOL0     C 6852   5.454   8.858   7.906  0.0700 -0.8236 -0.4313
  810MOL0     C 6853   4.687   8.816   7.519 -0.6158  0.2095 -0.2354
  810MOL0     C 6854   4.576   8.747   7.471 -0.1894  1.0587  0.4081
  810MOL0     H 6855   4.174   8.612   7.452 -0.6759 -1.3387  1.0646
  810MOL0     H 6856   3.980   8.490   7.503 -1.0826 -0.7271  0.6502
  810MOL0     H 6857   3.829   8.303   7.323  0.7872  1.1019  0.8041
  810MOL0     H 6858   3.807   8.368   7.481  1.9449  1.6813 -2.5455
  810MOL0     H 6859   3.720   8.177   7.582  1.3705 -2.0325  0.2264
  810MOL0     H 6860   3.724   8.098   7.419  1.3529 -1.5341  3.7681
  810MOL0     H 6861   3.568   8.282   7.338 -0.6786  0.7239 -0.0245
  810MOL0     H 6862   3.562   8.359   7.493  0.9669  1.8828 -3.0100
  810MOL0     H 6863   3.497   8.061   7.484 -2.7448 -1.4991  1.7486
  810MOL0     H 6864   3.453   8.170   7.595  1.5593  2.2947 -0.9659
  810MOL0     H 6865   3.345   8.200   7.310 -1.8142 -2.1559 -0.2481
  810MOL0     H 6866   3.280   8.275   7.460 -3.5824  0.5993 -3.4461
  810MOL0     H 6867   3.118   8.117   7.391 -0.9668  0.1455  1.2330
  810MOL0     H 6868   3.196   8.061   7.535 -3.1323  0.5332 -0.1647
  810MOL0     H 6869   3.185   7.959   7.257 -2.4719 -3.8402  1.0307
  810MOL0     H 6870   3.350   7.959   7.343 -0.2272 -1.9722  2.1529
  810MOL0     H 6871   3.231   7.821   7.521  0.2751  1.6702 -0.4423
  810MOL0     H 6872   3.232   7.753   7.361  1.2879  1.1652 -0.3441
  810MOL0     H 6873   3.029   7.641   7.340  1.5189  0.2648  1.9513
  810MOL0     H 6874   2.741   7.581   7.340  2.1601  0.1718 -1.0202
  810MOL0     H 6875   2.753   7.685   7.203 -2.9806 -2.7779 -0.2669
  810MOL0     H 6876   2.573   7.826   7.316 -0.1539  0.0526  0.0205
  810MOL0     H 6877   2.550   7.683   7.425 -2.5966  0.6398 -0.7066
  810MOL0     H 6878   2.546   7.670   7.125 -1.5758  1.7946 -0.7945
  810MOL0     H 6879   2.480   7.539   7.221 -0.3233 -0.5888 -2.8386
  810MOL0     H 6880   2.358   7.793   7.121  1.5530 -2.9838 -3.5983
  810MOL0     H 6881   2.320   7.766   7.294 -0.5527 -0.0984  0.0914
  810MOL0     H 6882   2.157   7.858   7.148 -0.5399  0.2301 -3.8571
  810MOL0     H 6883   1.924   7.921   7.111  0.5551  1.2503  2.1048
  810MOL0     H 6884   1.633   8.066   6.921  1.9796 -2.5262  1.4401
  810MOL0     H 6885   1.399   8.196   6.902 -3.2088 -0.2132 -0.0913
  810MOL0     H 6886   1.152   8.172   6.817 -1.4658 -0.8659  0.9548
  810MOL0     H 6887   1.217   8.288   6.937 -1.1456  2.9715 -2.5424
  810MOL0     H 6888   0.973   8.268   7.053  4.5638 -0.1758  0.8900
  810MOL0     H 6889   0.929   8.205   6.893 -0.7220  1.1012 -0.4043
  810MOL0     H 6890   1.030   8.408   6.791  2.4264 -1.9867  1.2965
  810MOL0     H 6891   1.055   8.477   6.953 -1.7950  2.1291  0.3966
  810MOL0     H 6892   0.775   8.412   6.850 -0.6329  1.0243  0.8463
  810MOL0     H 6893   0.801   8.474   7.000 -0.7035  1.6794 -0.4206
  810MOL0     H 6894   0.882   8.629   6.740 -0.1033  1.2125 -0.3393
  810MOL0     H 6895   0.908   8.686   6.891  0.6874  0.7090 -2.0738
  810MOL0     H 6896   0.703   8.778   6.857  0.2653  0.9021 -1.4542
  810MOL0     H 6897   0.648   8.639   6.943 -2.4701  1.4050 -1.1752
  810MOL0     H 6898   0.668   8.697   6.656  1.0011  0.3174 -0.2560
  810MOL0     H 6899   0.616   8.524   6.721 -0.6452  0.2718  3.2581
  810MOL0     H 6900   0.422   8.610   6.819  0.7133 -2.0283 -0.9205
  810MOL0     H 6901   0.412   8.662   6.647 -0.5716  1.8241  0.4124
  810MOL0     H 6902   1.238   7.885   7.140  0.3775 -1.3486 -0.9764
  810MOL0     H 6903   1.458   7.777   7.154 -2.5365  2.0119  1.7451
  810MOL0     H 6904   1.816   7.506   7.092 -0.8042 -0.4621  0.5905
  810MOL0     H 6905   2.048   7.438   7.128 -0.9158 -0.6051 -1.0165
  810MOL0     H 6906   4.184   8.116   7.427  1.5327 -0.3862 -0.3262
  810MOL0     H 6907   4.407   8.256   7.417  0.8717  1.9740  0.0309
  810MOL0     H 6908   4.741   8.521   7.284  2.4573  0.8508 -1.2772
  810MOL0     H 6909   4.937   8.639   7.359  0.6414 -1.3898  1.4307
  810MOL0     H 6910   4.872   8.899   7.722  1.4479 -1.7577 -0.0950
  810MOL0     H 6911   4.847   9.010   7.580 -0.2074  0.5178 -0.1177
  810MOL0     H 6912   5.087   9.056   7.593 -0.1088  0.3024 -0.4195
  810MOL0     H 6913   5.010   9.100   7.741 -1.4854 -1.3880  0.9944
  810MOL0     H 6914   5.186   8.848   7.694 -2.7463  0.2930 -1.3158
  810MOL0     H 6915   5.106   8.873   7.845  0.0295  0.2764  0.3194
  810MOL0     H 6916   5.307   9.073   7.711  0.4836  1.7146  2.0137
  810MOL0     H 6917   5.230   9.099   7.857  0.2303  0.9192 -0.6011
  810MOL0     H 6918   5.532   8.803   7.954 -0.2045 -0.4606  0.4556
  810MOL0     H 6919   4.677   8.903   7.583 -0.7149  0.6027 -0.7766
  810MOL0     H 6920   4.474   8.780   7.487  0.0546  1.2512  1.6559
  811MOL0     O 6921   5.572   3.004   1.654  0.7873  0.4205  0.1349
  811MOL0     C 6922   5.538   3.052   1.759 -0.0129 -0.0625 -0.8861
  811MOL0     O 6923   5.555   2.984   1.877  0.4937  0.0539 -0.0700
  811MOL0     C 6924   5.560   2.845   1.869 -0.5238 -0.5988  0.9685
  811MOL0     C 6925   5.451   2.769   1.820 -0.4781 -0.2462  0.0558
  811MOL0     C 6926   5.453   2.628   1.818 -0.4344  0.7386 -0.4654
  811MOL0     C 6927   5.552   2.553   1.883  0.1445  0.3034 -0.5554
  811MOL0     O 6928   5.542   2.416   1.884  0.1417 -0.8824  0.0945
  811MOL0     C 6929   5.605   2.350   1.997  0.0948 -0.0620 -0.3787
  811MOL0     C 6930   5.506   2.274   2.085  0.4098 -0.3517 -0.2491
  811MOL0     C 6931   5.445   2.148   2.005  0.0159  0.2150  0.0844
  811MOL0     C 6932   5.536   2.033   1.965 -0.7200 -0.3423  0.2483
  811MOL0     C 6933   5.448   1.932   1.882 -0.6943  0.1368  0.8560
  811MOL0     C 6934   5.359   1.840   1.958 -0.3672 -0.7834 -0.6115
  811MOL0     C 6935   5.282   1.741   1.869 -0.5803 -0.2578  0.3015
  811MOL0     C 6936   5.218   1.627   1.949  0.7997  0.3862 -0.7022
  811MOL0     N 6937   5.177   1.525   1.857 -0.4923  0.7911  0.2775
  811MOL0     C 6938   5.058   1.534   1.796  0.0869  0.5292 -0.3806
  811MOL0     C 6939   5.053   1.423   1.715 -0.0225  0.3646  0.1811
  811MOL0     C 6940   4.912   1.369   1.647 -0.7205 -0.7271 -0.4760
  811MOL0     C 6941   4.827   1.275   1.728 -0.3863 -0.3863  0.1067
  811MOL0     C 6942   4.728   1.189   1.649  0.3389  0.3786 -0.2763
  811MOL0     C 6943   4.676   1.082   1.740  0.7068 -0.1044  0.2124
  811MOL0     O 6944   4.567   1.138   1.816  1.1175 -0.5943 -0.9404
  811MOL0     C 6945   4.541   1.091   1.940  0.2271  0.3784  0.2249
  811MOL0     C 6946   4.464   1.167   2.032  0.6282 -0.3213  0.2031
  811MOL0     C 6947   4.414   1.114   2.150 -0.0790 -0.7059 -0.2510
  811MOL0     C 6948   4.438   0.982   2.183  0.2457  0.3620  0.6196
  811MOL0     C 6949   4.383   0.924   2.309  0.3510  0.0137 -0.1202
  811MOL0     O 6950   4.310   1.014   2.391 -0.5303 -0.6834 -0.6883
  811MOL0     C 6951   4.244   0.962   2.493 -0.8260  0.4193  0.6088
  811MOL0     C 6952   4.147   0.872   2.462 -0.2420 -0.0763  0.4109
  811MOL0     C 6953   4.080   0.800   2.560 -1.1675  0.1026 -1.1059
  811MOL0     C 6954   4.098   0.844   2.695  0.5987 -0.1483 -0.0991
  811MOL0     O 6955   4.053   0.760   2.797 -0.4010 -0.0707  0.4408
  811MOL0     C 6956   3.916   0.759   2.830  0.3130  0.7494  0.0514
  811MOL0     C 6957   3.891   0.629   2.909  0.1994 -0.4333  0.0100
  811MOL0     C 6958   3.756   0.621   2.979  0.2947 -0.6223 -0.9767
  811MOL0     C 6959   3.627   0.654   2.901 -1.0388  0.6506 -0.0599
  811MOL0     C 6960   3.520   0.651   3.003 -0.2282 -0.3125  0.0772
  811MOL0     C 6961   3.386   0.695   2.944 -0.6048  0.2752 -0.2432
  811MOL0     C 6962   3.346   0.634   2.809 -0.2659 -0.3182 -0.8169
  811MOL0     C 6963   3.332   0.485   2.810 -0.7131 -0.5411 -0.6003
  811MOL0    Cl 6964   3.218   0.427   2.938  0.2815  0.1217  0.3367
  811MOL0     C 6965   4.186   0.948   2.732  1.6928  0.4377  0.5485
  811MOL0     C 6966   4.262   1.005   2.628  0.1981  0.4661 -0.2829
  811MOL0     O 6967   4.391   0.804   2.320  0.6855  0.0670  0.1089
  811MOL0     C 6968   4.517   0.911   2.096  0.3104  0.5518  0.8276
  811MOL0     C 6969   4.575   0.960   1.982 -0.5619 -0.2549  0.6172
  811MOL0     N 6970   5.168   1.358   1.719  0.0623  0.9605 -0.1303
  811MOL0     N 6971   5.243   1.419   1.807  0.1706 -0.3236  0.4391
  811MOL0     C 6972   5.665   2.637   1.914  0.4828  0.1540 -0.8802
  811MOL0     C 6973   5.669   2.773   1.920 -0.5580  0.2514  0.6455
  811MOL0     C 6974   5.472   3.188   1.768 -0.9958  0.1390  0.7702
  811MOL0     C 6975   5.389   3.221   1.875  0.2450  1.2156  0.5091
  811MOL0     C 6976   5.323   3.341   1.868  0.1838  0.3164 -0.6387
  811MOL0     C 6977   5.350   3.435   1.768  0.9403  0.5839  0.3437
  811MOL0     O 6978   5.269   3.554   1.779 -0.4971  0.0828  0.8122
  811MOL0     C 6979   5.275   3.660   1.682  0.5151 -0.2732 -0.4507
  811MOL0     C 6980   5.372   3.769   1.728 -0.2654 -0.4167  0.1331
  811MOL0     C 6981   5.514   3.755   1.676  0.3097 -0.9967  0.5823
  811MOL0     C 6982   5.610   3.883   1.694 -0.1352  0.8454 -0.4681
  811MOL0     C 6983   5.738   3.860   1.627 -0.2014  0.1408 -0.1382
  811MOL0     C 6984   5.851   3.822   1.588 -0.0397  0.2104 -0.0241
  811MOL0     C 6985   5.436   3.401   1.662  1.1694 -0.9717 -0.2137
  811MOL0     C 6986   5.482   3.269   1.652 -0.3170  0.3098 -0.6674
  811MOL0     H 6987   5.369   2.828   1.779 -1.0203  0.0350  1.4746
  811MOL0     H 6988   5.362   2.586   1.777 -2.0811  1.7903  1.8464
  811MOL0     H 6989   5.653   2.433   2.050  3.0858 -1.6364 -0.4177
  811MOL0     H 6990   5.687   2.285   1.964  0.4772  0.1262  0.1787
  811MOL0     H 6991   5.429   2.338   2.127  1.8711  0.8251  0.7613
  811MOL0     H 6992   5.564   2.232   2.168  1.4144  0.1050 -0.7012
  811MOL0     H 6993   5.405   2.195   1.914 -1.4523 -1.1246 -0.0015
  811MOL0     H 6994   5.358   2.111   2.060 -2.2708  2.9910 -1.3643
  811MOL0     H 6995   5.605   2.069   1.888 -0.4109 -0.8119  0.2982
  811MOL0     H 6996   5.584   1.989   2.053 -0.5258 -0.4353  0.0971
  811MOL0     H 6997   5.521   1.876   1.822  0.4292  3.4010 -1.1252
  811MOL0     H 6998   5.384   1.990   1.816 -1.0346 -0.9364  0.2201
  811MOL0     H 6999   5.279   1.901   2.001 -3.1338 -1.0301 -4.8681
  811MOL0     H 7000   5.420   1.784   2.030 -1.0290 -2.5975 -1.4122
  811MOL0     H 7001   5.210   1.803   1.815  0.0319  1.5506  1.4389
  811MOL0     H 7002   5.357   1.694   1.805  1.3615 -1.2034  3.0532
  811MOL0     H 7003   5.142   1.672   2.013  2.3315  0.0887  1.4403
  811MOL0     H 7004   5.301   1.591   2.011  0.7494 -0.4374 -1.0972
  811MOL0     H 7005   4.975   1.600   1.818 -3.8925 -4.2846  0.9787
  811MOL0     H 7006   4.939   1.323   1.552  0.3946 -0.4036 -0.3236
  811MOL0     H 7007   4.840   1.448   1.622 -1.8070 -1.4527  0.2335
  811MOL0     H 7008   4.766   1.333   1.797 -0.5291 -0.2077 -0.1690
  811MOL0     H 7009   4.889   1.205   1.787 -2.2144 -1.4892  0.7920
  811MOL0     H 7010   4.658   1.261   1.604  1.9046  1.2354 -1.4175
  811MOL0     H 7011   4.794   1.146   1.574  0.2374 -0.6169  0.1831
  811MOL0     H 7012   4.758   1.048   1.804  0.3880 -0.6734  0.3311
  811MOL0     H 7013   4.639   1.002   1.675 -1.9806  2.0328 -1.1059
  811MOL0     H 7014   4.434   1.267   2.003  0.3697 -0.2000  0.8797
  811MOL0     H 7015   4.353   1.170   2.220  2.0197  0.9238  0.4017
  811MOL0     H 7016   4.130   0.844   2.359 -0.0312  2.0886 -0.2598
  811MOL0     H 7017   4.019   0.714   2.533  0.7742 -1.1816 -1.5799
  811MOL0     H 7018   3.874   0.768   2.729  0.0060  0.6344  0.1678
  811MOL0     H 7019   3.894   0.847   2.890  1.9641 -0.1634  2.1387
  811MOL0     H 7020   3.970   0.640   2.984 -0.3175  0.4798  0.4354
  811MOL0     H 7021   3.896   0.533   2.855 -0.4240 -1.0434  0.9969
  811MOL0     H 7022   3.759   0.679   3.072  0.3165 -0.6984 -0.9304
  811MOL0     H 7023   3.741   0.519   3.017  2.3021 -0.4566  0.4216
  811MOL0     H 7024   3.650   0.752   2.859  2.3482 -0.6984 -1.7237
  811MOL0     H 7025   3.613   0.579   2.822  2.4663  1.9322 -2.1189
  811MOL0     H 7026   3.526   0.728   3.081 -3.7481 -0.2684  0.4670
  811MOL0     H 7027   3.525   0.550   3.045  1.6002 -0.4829 -0.4507
  811MOL0     H 7028   3.388   0.803   2.932  0.4210  0.2127 -0.7172
  811MOL0     H 7029   3.310   0.665   3.017 -2.1196 -0.0662 -1.8881
  811MOL0     H 7030   3.257   0.684   2.770  0.1159  0.4107 -0.7689
  811MOL0     H 7031   3.428   0.652   2.738  0.1853 -3.4778 -1.2475
  811MOL0     H 7032   3.432   0.441   2.814 -0.7808 -0.6783 -0.3973
  811MOL0     H 7033   3.304   0.451   2.710 -0.0286 -4.2138  0.3060
  811MOL0     H 7034   4.188   0.974   2.837  1.2109  2.6972  0.0493
  811MOL0     H 7035   4.333   1.081   2.659 -2.6574  2.4519  1.9143
  811MOL0     H 7036   4.551   0.808   2.102 -1.0479 -0.0891 -1.2193
  811MOL0     H 7037   4.618   0.886   1.916 -0.3190 -0.1209  0.6255
  811MOL0     H 7038   5.749   2.580   1.952 -0.2571  0.7354  1.9241
  811MOL0     H 7039   5.762   2.815   1.957 -1.2509  1.7648  0.7265
  811MOL0     H 7040   5.387   3.151   1.957 -1.9669  0.7482  0.1203
  811MOL0     H 7041   5.261   3.374   1.950  1.4135 -0.0528  0.4805
  811MOL0     H 7042   5.175   3.703   1.685  0.6430  0.0941 -1.1613
  811MOL0     H 7043   5.287   3.623   1.579  1.5790 -1.0407 -0.0710
  811MOL0     H 7044   5.337   3.864   1.685 -1.6140 -0.0823  1.8502
  811MOL0     H 7045   5.361   3.786   1.836  1.3606  1.3846  0.0652
  811MOL0     H 7046   5.502   3.740   1.568  3.2896  5.1602 -1.1019
  811MOL0     H 7047   5.556   3.673   1.735  0.3884 -1.3082  0.0975
  811MOL0     H 7048   5.561   3.970   1.648 -0.5950  1.3792  0.9691
  811MOL0     H 7049   5.625   3.896   1.801 -2.1332  1.3118 -0.2002
  811MOL0     H 7050   5.951   3.802   1.555  0.2372  0.1330  0.8275
  811MOL0     H 7051   5.439   3.466   1.575 -2.3244 -3.1313 -2.1609
  811MOL0     H 7052   5.540   3.233   1.567  1.8959 -0.2786  0.9992
  812MOL0     O 7053   1.499   9.267   1.155  0.4899 -0.6227  0.1138
  812MOL0     C 7054   1.552   9.159   1.137  0.3766  0.2381 -0.5259
  812MOL0     O 7055   1.517   9.065   1.046  0.4164 -0.3385 -0.6857
  812MOL0     C 7056   1.426   9.095   0.948 -0.7043 -0.0830 -1.1348
  812MOL0     C 7057   1.475   9.082   0.820 -0.3444  0.1895 -0.0639
  812MOL0     C 7058   1.393   9.109   0.715  0.9101 -0.6020  0.0424
  812MOL0     C 7059   1.252   9.145   0.731  0.1345 -0.2557  0.3899
  812MOL0     O 7060   1.170   9.178   0.631 -0.5106 -0.3467  0.4556
  812MOL0     C 7061   1.201   9.101   0.508 -1.3188 -0.1937  0.6607
  812MOL0     C 7062   1.092   9.117   0.413 -0.1623  0.4230 -0.1672
  812MOL0     C 7063   1.097   9.045   0.277 -0.0274 -0.1480 -0.4481
  812MOL0     C 7064   0.961   9.051   0.193 -0.7946  0.1981  1.1510
  812MOL0     C 7065   0.977   8.974   0.058 -1.1146 -0.4987 -0.1171
  812MOL0     C 7066   0.838   8.950  -0.018  0.6230 -0.2834  1.0631
  812MOL0     C 7067   0.762   9.084  -0.045 -0.5817  0.4041 -0.3652
  812MOL0     C 7068   0.826   9.185  -0.133 -0.4695  1.0931 -0.5420
  812MOL0     N 7069   0.734   9.300  -0.160  0.1106  0.2681  0.3429
  812MOL0     C 7070   0.696   9.399  -0.072  0.1292  1.1276  0.6507
  812MOL0     C 7071   0.606   9.468  -0.144  0.3245 -0.0763  0.0345
  812MOL0     C 7072   0.519   9.591  -0.110  0.0645 -0.4746  0.1987
  812MOL0     C 7073   0.424   9.581   0.003 -0.7649 -0.4459 -0.2149
  812MOL0     C 7074   0.378   9.726   0.040  0.2258  0.0792 -0.7179
  812MOL0     C 7075   0.271   9.708   0.155 -0.9294  0.2550  0.2876
  812MOL0     O 7076   0.158   9.647   0.100 -0.4840 -0.2169  0.1327
  812MOL0     C 7077   0.106   9.541   0.174  1.0399 -0.2724  0.2374
  812MOL0     C 7078  -0.033   9.542   0.207  0.2649  0.7211 -0.1079
  812MOL0     C 7079  -0.100   9.431   0.266 -0.3520 -0.3743  1.2308
  812MOL0     C 7080  -0.031   9.310   0.295 -0.5472 -0.1095  0.2369
  812MOL0     C 7081  -0.090   9.187   0.355  0.1446  0.1318 -0.4498
  812MOL0     O 7082  -0.222   9.196   0.394 -0.5506 -0.1614  1.0440
  812MOL0     C 7083  -0.295   9.083   0.418 -0.1653 -0.0279  0.2308
  812MOL0     C 7084  -0.366   9.066   0.537  0.8855 -0.1735 -0.8206
  812MOL0     C 7085  -0.438   8.946   0.560  0.7818 -0.4657  0.3667
  812MOL0     C 7086  -0.455   8.845   0.459  0.2216  0.2943  0.5860
  812MOL0     O 7087  -0.526   8.730   0.471  0.6110 -0.6041 -0.4310
  812MOL0     C 7088  -0.566   8.671   0.593 -1.0010 -0.3116 -0.1352
  812MOL0     C 7089  -0.636   8.543   0.547 -1.8354  0.1210 -0.1350
  812MOL0     C 7090  -0.708   8.477   0.661 -0.5732  0.3997 -0.4098
  812MOL0     C 7091  -0.785   8.350   0.624 -0.5987  0.3545  0.7036
  812MOL0     C 7092  -0.856   8.289   0.742  0.3272 -0.4027 -0.5893
  812MOL0     C 7093  -0.961   8.190   0.695 -0.5432 -0.0604  1.5936
  812MOL0     C 7094  -1.040   8.140   0.816  0.1569  0.1834 -0.5477
  812MOL0     C 7095  -1.154   8.041   0.775 -0.5223 -0.5554  0.0036
  812MOL0    Cl 7096  -1.087   7.889   0.701  0.2637  0.0723  0.3523
  812MOL0     C 7097  -0.388   8.870   0.343 -0.6719 -0.4128  0.5522
  812MOL0     C 7098  -0.305   8.983   0.328  0.4017  0.5456  0.7764
  812MOL0     O 7099  -0.026   9.084   0.344 -0.3871  0.1033 -0.5123
  812MOL0     C 7100   0.104   9.308   0.250  0.4038 -0.3164  0.0952
  812MOL0     C 7101   0.170   9.414   0.182  0.5690 -0.5304  0.4470
  812MOL0     N 7102   0.567   9.394  -0.264 -0.7052  0.1298 -0.6286
  812MOL0     N 7103   0.647   9.293  -0.264  0.0847 -0.1941 -0.4187
  812MOL0     C 7104   1.216   9.167   0.864  0.0133  0.1760 -0.4491
  812MOL0     C 7105   1.298   9.140   0.979 -0.2696  0.7025  0.6593
  812MOL0     C 7106   1.680   9.122   1.209  0.7401  0.4850  0.0968
  812MOL0     C 7107   1.735   8.989   1.182 -0.5506 -0.5115 -0.4658
  812MOL0     C 7108   1.833   8.943   1.263 -0.2882 -0.2871  0.7222
  812MOL0     C 7109   1.895   9.032   1.361 -0.5654  0.2467 -0.0756
  812MOL0     O 7110   1.985   8.967   1.444 -0.1235  0.4785  0.6936
  812MOL0     C 7111   2.060   9.032   1.545 -0.0457  0.1569  0.2448
  812MOL0     C 7112   2.205   9.020   1.507 -0.2163 -0.7340  0.1031
  812MOL0     C 7113   2.282   9.025   1.640 -0.4822  0.4077  0.2086
  812MOL0     C 7114   2.423   9.055   1.597  0.5788 -0.5506  0.7188
  812MOL0     C 7115   2.461   9.197   1.578  0.6200 -0.4320  0.0496
  812MOL0     C 7116   2.492   9.316   1.583  0.0278 -0.2628  0.3762
  812MOL0     C 7117   1.843   9.162   1.385  0.3830  0.5236 -0.3918
  812MOL0     C 7118   1.734   9.202   1.311 -0.3140  0.0804 -0.2081
  812MOL0     H 7119   1.575   9.043   0.806  0.0135 -0.0900  2.7240
  812MOL0     H 7120   1.435   9.100   0.615  1.4451 -1.5736  0.3392
  812MOL0     H 7121   1.215   8.994   0.527 -0.0072  0.2845  2.7194
  812MOL0     H 7122   1.298   9.136   0.471 -1.4556 -0.1423  0.3456
  812MOL0     H 7123   1.081   9.224   0.390  2.9912  0.8345 -0.1367
  812MOL0     H 7124   0.994   9.100   0.458  1.0089  1.1506  2.9020
  812MOL0     H 7125   1.114   8.937   0.284 -1.3126 -0.3373  0.0871
  812MOL0     H 7126   1.180   9.076   0.213 -2.2672 -2.1200 -4.6807
  812MOL0     H 7127   0.873   9.016   0.248 -2.6791 -0.4743 -2.0817
  812MOL0     H 7128   0.936   9.155   0.167 -2.5255 -0.6230 -0.7221
  812MOL0     H 7129   1.012   8.872   0.079 -0.0881 -0.0522  0.3889
  812MOL0     H 7130   1.047   9.028  -0.006  0.9732 -0.3712  2.1731
  812MOL0     H 7131   0.772   8.886   0.042 -1.9296 -1.2608 -2.4581
  812MOL0     H 7132   0.859   8.884  -0.103 -0.0866 -1.5496  1.8430
  812MOL0     H 7133   0.663   9.053  -0.079  0.0723 -2.1471 -0.1192
  812MOL0     H 7134   0.737   9.126   0.054 -0.9938 -0.5424 -0.0570
  812MOL0     H 7135   0.851   9.128  -0.223 -0.6412 -0.7020  0.4977
  812MOL0     H 7136   0.920   9.216  -0.085 -0.3227  1.0114 -0.7705
  812MOL0     H 7137   0.730   9.437   0.024 -0.6036 -0.0401  1.3922
  812MOL0     H 7138   0.480   9.632  -0.204  1.9282 -0.7001 -0.7145
  812MOL0     H 7139   0.592   9.667  -0.080 -0.8262 -0.0076  1.2600
  812MOL0     H 7140   0.480   9.538   0.086  0.9324  1.8676 -0.0510
  812MOL0     H 7141   0.339   9.519  -0.026 -0.6147 -0.3150 -0.9663
  812MOL0     H 7142   0.464   9.787   0.067  1.5981 -1.6415 -0.9961
  812MOL0     H 7143   0.321   9.767  -0.044  0.4981 -0.2122 -1.0452
  812MOL0     H 7144   0.230   9.801   0.197 -2.0303 -1.6602  3.8419
  812MOL0     H 7145   0.304   9.639   0.233 -3.3940  0.6154  1.7859
  812MOL0     H 7146  -0.069   9.643   0.189 -0.6655  0.2625 -0.9042
  812MOL0     H 7147  -0.206   9.454   0.279  0.2537  3.9033  0.1426
  812MOL0     H 7148  -0.355   9.134   0.622  1.6245 -1.3854  0.0787
  812MOL0     H 7149  -0.479   8.939   0.660  0.6975 -0.1482  0.3555
  812MOL0     H 7150  -0.635   8.740   0.643 -0.9402  0.7583 -1.4722
  812MOL0     H 7151  -0.481   8.649   0.659 -2.5307 -0.4804  1.8794
  812MOL0     H 7152  -0.555   8.479   0.510 -0.3373  0.9754  1.5223
  812MOL0     H 7153  -0.693   8.555   0.455  0.5019 -0.7794 -1.7982
  812MOL0     H 7154  -0.779   8.551   0.697 -2.4271 -0.0745 -2.8294
  812MOL0     H 7155  -0.640   8.442   0.739 -0.3666  2.4505  0.3816
  812MOL0     H 7156  -0.856   8.374   0.544  1.2253  1.4111 -0.6732
  812MOL0     H 7157  -0.714   8.280   0.579 -0.0781  0.7074  0.9625
  812MOL0     H 7158  -0.915   8.370   0.787 -4.1618 -1.7780 -3.3738
  812MOL0     H 7159  -0.786   8.235   0.806  0.6875 -0.5197 -1.0751
  812MOL0     H 7160  -0.906   8.116   0.635 -0.1407  2.9836 -2.1691
  812MOL0     H 7161  -1.028   8.247   0.630 -1.0390 -0.0826  2.0821
  812MOL0     H 7162  -0.986   8.085   0.893 -2.0377  1.2234  1.8737
  812MOL0     H 7163  -1.075   8.229   0.869  0.5244 -0.1635  0.2911
  812MOL0     H 7164  -1.239   8.089   0.724 -0.1308 -1.4573 -1.5857
  812MOL0     H 7165  -1.195   7.999   0.867  1.5496 -1.6424  0.4964
  812MOL0     H 7166  -0.393   8.798   0.263 -1.3674 -0.2539  0.4420
  812MOL0     H 7167  -0.260   8.989   0.229 -1.8271  0.9136 -0.3071
  812MOL0     H 7168   0.156   9.216   0.274  0.6207 -0.5126 -1.0444
  812MOL0     H 7169   0.271   9.398   0.148 -0.4773 -1.9411 -2.3713
  812MOL0     H 7170   1.119   9.203   0.897 -0.7920 -0.8699 -1.6167
  812MOL0     H 7171   1.270   9.157   1.083 -3.0659  0.3224  0.0471
  812MOL0     H 7172   1.693   8.926   1.104 -0.6234 -3.1736  1.6053
  812MOL0     H 7173   1.861   8.838   1.257  0.8372 -0.1161  2.3248
  812MOL0     H 7174   2.043   8.982   1.641  0.2395 -0.0244  0.2028
  812MOL0     H 7175   2.039   9.138   1.558 -0.8443  0.1077 -0.5679
  812MOL0     H 7176   2.224   8.923   1.461  1.7288  0.1772 -1.1588
  812MOL0     H 7177   2.224   9.099   1.434 -1.7575  0.7669  1.2552
  812MOL0     H 7178   2.292   8.929   1.690 -1.2044 -0.8439 -1.9259
  812MOL0     H 7179   2.228   9.099   1.699 -1.6658  0.3009 -0.6942
  812MOL0     H 7180   2.493   9.017   1.673 -0.1389  0.2777  1.8365
  812MOL0     H 7181   2.444   8.994   1.509  1.2026  2.3892 -1.3398
  812MOL0     H 7182   2.508   9.422   1.579 -1.6542 -0.0165 -1.0809
  812MOL0     H 7183   1.876   9.229   1.464 -0.7615  1.6680 -0.8383
  812MOL0     H 7184   1.684   9.293   1.342  1.1918  0.3536  1.5993
  813MOL0     O 7185   3.455   5.846   0.265  0.3925 -0.4766  0.4572
  813MOL0     C 7186   3.495   5.745   0.313  0.6307  0.4208 -0.4794
  813MOL0     O 7187   3.416   5.638   0.359  0.5915  0.1808  0.4910
  813MOL0     C 7188   3.284   5.656   0.351  0.6496 -0.0419 -0.1869
  813MOL0     C 7189   3.213   5.750   0.423 -0.5530  1.5344  0.2819
  813MOL0     C 7190   3.081   5.771   0.388 -0.0107 -0.2618  0.8502
  813MOL0     C 7191   3.020   5.705   0.277 -0.7053  0.5399 -1.0289
  813MOL0     O 7192   2.893   5.737   0.257 -0.0408 -0.8619 -0.2417
  813MOL0     C 7193   2.812   5.642   0.195  0.4332 -0.1358  0.3766
  813MOL0     C 7194   2.667   5.697   0.179 -0.6122  0.5862 -0.3279
  813MOL0     C 7195   2.599   5.717   0.314  0.0873  0.5642 -0.3002
  813MOL0     C 7196   2.466   5.805   0.318  0.4374  0.3434  0.3296
  813MOL0     C 7197   2.379   5.759   0.434  0.5779  0.5023  0.0912
  813MOL0     C 7198   2.244   5.817   0.425 -0.7189  0.0773  0.3964
  813MOL0     C 7199   2.246   5.966   0.450  0.7088  0.3756 -0.6529
  813MOL0     C 7200   2.101   6.016   0.428  0.4022  0.5768  0.5478
  813MOL0     N 7201   2.075   6.124   0.533 -0.0543  0.4154  0.1469
  813MOL0     C 7202   2.004   6.093   0.652 -0.7502 -0.2629  0.6847
  813MOL0     C 7203   2.005   6.213   0.711 -0.2273 -0.2699 -0.9863
  813MOL0     C 7204   1.926   6.252   0.842  0.6484  0.6889  0.3569
  813MOL0     C 7205   1.778   6.207   0.823 -0.2137 -0.2892 -1.0319
  813MOL0     C 7206   1.695   6.243   0.952  0.5785  0.7380  0.2534
  813MOL0     C 7207   1.553   6.187   0.957 -0.4247  0.3656  1.4482
  813MOL0     O 7208   1.566   6.039   0.940  0.3863 -0.3709 -0.1673
  813MOL0     C 7209   1.445   5.979   0.898 -0.3891 -0.5615 -0.1820
  813MOL0     C 7210   1.455   5.837   0.855 -0.4635  0.5836  0.7061
  813MOL0     C 7211   1.345   5.770   0.789  0.0083  0.6538 -0.8699
  813MOL0     C 7212   1.218   5.833   0.776 -0.2995 -0.1787  0.2420
  813MOL0     C 7213   1.099   5.767   0.725 -0.9247  0.1592 -0.5987
  813MOL0     O 7214   1.107   5.639   0.663  1.0002  0.3648  0.1087
  813MOL0     C 7215   0.986   5.588   0.615 -0.9388 -0.2154  0.2149
  813MOL0     C 7216   0.878   5.561   0.707  0.3071  0.4585 -0.7298
  813MOL0     C 7217   0.755   5.514   0.657 -0.3929  0.1160  0.6619
  813MOL0     C 7218   0.743   5.463   0.523 -0.1722  0.1598 -0.5730
  813MOL0     O 7219   0.630   5.409   0.472  0.2046  0.2328 -0.7959
  813MOL0     C 7220   0.506   5.406   0.549  0.5044 -0.3820 -0.5285
  813MOL0     C 7221   0.405   5.335   0.461 -1.1942  0.2643  0.2483
  813MOL0     C 7222   0.272   5.350   0.527 -0.8977  1.8296  0.3530
  813MOL0     C 7223   0.160   5.330   0.417 -0.3647  0.3146 -0.2440
  813MOL0     C 7224   0.024   5.323   0.483 -0.5591 -0.1763  0.8996
  813MOL0     C 7225  -0.077   5.295   0.367 -0.3839 -0.2409 -0.6214
  813MOL0     C 7226  -0.090   5.420   0.268 -0.0532 -0.5062 -0.4108
  813MOL0     C 7227  -0.201   5.406   0.175  0.4436  0.6707  0.5991
  813MOL0    Cl 7228  -0.355   5.449   0.269  0.3280  0.2254  0.3756
  813MOL0     C 7229   0.854   5.480   0.440 -0.4645 -0.3981  0.0856
  813MOL0     C 7230   0.972   5.544   0.487 -0.7364  0.0497 -0.3135
  813MOL0     O 7231   0.997   5.832   0.742  0.1138  0.0098  0.3584
  813MOL0     C 7232   1.216   5.965   0.826 -0.6476  0.4018  0.0916
  813MOL0     C 7233   1.319   6.040   0.876  0.3676 -0.1512  0.5297
  813MOL0     N 7234   2.081   6.305   0.641  0.1456  0.1222  0.8090
  813MOL0     N 7235   2.119   6.251   0.524 -0.5780 -0.2532 -0.1204
  813MOL0     C 7236   3.092   5.600   0.218 -0.5347  0.1765  0.2176
  813MOL0     C 7237   3.221   5.577   0.263 -0.0504  0.6741  0.2613
  813MOL0     C 7238   3.648   5.729   0.306  0.0718  0.1248 -0.4846
  813MOL0     C 7239   3.703   5.604   0.335  0.0979 -0.3083 -0.0979
  813MOL0     C 7240   3.842   5.597   0.337  1.1078  0.5887  0.2214
  813MOL0     C 7241   3.927   5.705   0.322 -0.7693  0.7543 -0.1736
  813MOL0     O 7242   4.061   5.675   0.346  1.1835  0.3833  0.7225
  813MOL0     C 7243   4.125   5.634   0.226 -0.2547  0.1412  0.2327
  813MOL0     C 7244   4.242   5.728   0.189  0.0362  1.1482  0.7616
  813MOL0     C 7245   4.215   5.875   0.196  0.7154  0.7810  0.1742
  813MOL0     C 7246   4.326   5.956   0.142 -0.6064 -0.2588 -0.2908
  813MOL0     C 7247   4.454   5.937   0.213 -0.9975  0.8809  0.8370
  813MOL0     C 7248   4.556   5.910   0.272 -0.2697 -0.4920  0.3695
  813MOL0     C 7249   3.876   5.826   0.280 -0.4650  0.9191  0.8437
  813MOL0     C 7250   3.734   5.840   0.268  0.1155 -0.2770  0.4448
  813MOL0     H 7251   3.265   5.793   0.508  0.2069  1.0077  0.0973
  813MOL0     H 7252   3.034   5.853   0.442  3.0363  1.9671  0.4064
  813MOL0     H 7253   2.816   5.545   0.246 -0.6416 -1.2703 -1.5753
  813MOL0     H 7254   2.852   5.633   0.094  0.6187  1.5571  0.2635
  813MOL0     H 7255   2.611   5.623   0.121  0.3531 -1.0123  0.7182
  813MOL0     H 7256   2.669   5.792   0.125 -2.4634  1.1222  0.4367
  813MOL0     H 7257   2.673   5.770   0.375  0.8807 -1.5812  0.7091
  813MOL0     H 7258   2.576   5.619   0.358  0.2770  2.0534  3.4420
  813MOL0     H 7259   2.507   5.906   0.335  0.0031  0.4871  0.5360
  813MOL0     H 7260   2.421   5.803   0.219 -2.0048  1.0521  1.3600
  813MOL0     H 7261   2.434   5.775   0.527  1.9279 -1.6175 -0.2629
  813MOL0     H 7262   2.365   5.650   0.432 -1.2447  0.5898 -4.3467
  813MOL0     H 7263   2.192   5.798   0.520  2.5102  1.2862  2.5893
  813MOL0     H 7264   2.195   5.779   0.335  2.8256 -1.2730 -1.1371
  813MOL0     H 7265   2.282   5.995   0.550 -0.8246 -1.8821  0.6378
  813MOL0     H 7266   2.308   6.014   0.374 -0.7314 -0.7639 -2.6455
  813MOL0     H 7267   2.017   5.946   0.436  0.8972  0.1966  3.9293
  813MOL0     H 7268   2.104   6.062   0.329 -1.1367 -0.6292 -0.1076
  813MOL0     H 7269   1.947   6.002   0.666 -0.7498 -0.3181  0.3473
  813MOL0     H 7270   1.933   6.357   0.871  0.4576  0.4087  1.4696
  813MOL0     H 7271   1.968   6.182   0.915 -2.8107 -2.5821 -0.4922
  813MOL0     H 7272   1.781   6.098   0.814 -0.7292 -0.7370  2.5958
  813MOL0     H 7273   1.742   6.253   0.731  1.1606  2.2271 -0.3971
  813MOL0     H 7274   1.746   6.203   1.040  2.2505  4.3815  1.1331
  813MOL0     H 7275   1.700   6.350   0.972 -0.0498  0.1513  4.7367
  813MOL0     H 7276   1.493   6.243   0.884  3.4610  0.9840 -1.5710
  813MOL0     H 7277   1.530   6.204   1.063  2.5166  0.0225  2.2302
  813MOL0     H 7278   1.551   5.788   0.866 -1.7153 -2.0434  0.6046
  813MOL0     H 7279   1.367   5.671   0.751  0.1202  0.7366 -1.0251
  813MOL0     H 7280   0.881   5.594   0.811  1.3627 -1.5860 -0.0496
  813MOL0     H 7281   0.680   5.534   0.733  1.0534  1.1305  1.8939
  813MOL0     H 7282   0.472   5.509   0.556 -1.1957 -0.8168 -1.8248
  813MOL0     H 7283   0.519   5.346   0.640 -0.4865 -1.0733 -0.8248
  813MOL0     H 7284   0.433   5.229   0.460  2.2619  1.0384 -0.8649
  813MOL0     H 7285   0.414   5.372   0.358 -1.2781 -1.4306 -0.4032
  813MOL0     H 7286   0.266   5.448   0.575  1.9120  1.7852  0.9993
  813MOL0     H 7287   0.268   5.273   0.604  0.8442 -0.4775 -1.6931
  813MOL0     H 7288   0.180   5.416   0.353  5.0358 -1.1332 -0.9507
  813MOL0     H 7289   0.174   5.243   0.353 -2.2563 -0.0822 -0.1902
  813MOL0     H 7290   0.000   5.415   0.536 -0.1240  1.9313 -2.3193
  813MOL0     H 7291   0.025   5.244   0.559  0.8855  0.8223  1.9480
  813MOL0     H 7292  -0.176   5.281   0.412 -0.1686 -0.2015 -0.1307
  813MOL0     H 7293  -0.042   5.206   0.314  2.9435  0.0676  0.8291
  813MOL0     H 7294  -0.116   5.509   0.327 -0.3654  0.2707 -1.6951
  813MOL0     H 7295  -0.002   5.448   0.210  1.7955 -2.0755  1.4549
  813MOL0     H 7296  -0.212   5.307   0.129 -1.6131  0.8739  0.5529
  813MOL0     H 7297  -0.180   5.483   0.101  1.4785  0.5998  0.8116
  813MOL0     H 7298   0.842   5.441   0.340  2.1850 -0.2259 -0.3776
  813MOL0     H 7299   1.057   5.570   0.425  0.0883  2.3954  1.6295
  813MOL0     H 7300   1.120   6.016   0.826 -0.9382 -0.1248  0.7264
  813MOL0     H 7301   1.299   6.145   0.895  1.7209 -0.3695  3.8014
  813MOL0     H 7302   3.052   5.533   0.142 -1.7050 -0.3265  1.2461
  813MOL0     H 7303   3.287   5.504   0.217  2.0843  2.2248  0.6889
  813MOL0     H 7304   3.634   5.524   0.359  0.5435  0.1114  2.8926
  813MOL0     H 7305   3.879   5.495   0.352 -1.4890 -0.0469  3.5766
  813MOL0     H 7306   4.061   5.624   0.138  0.9454 -0.9541 -0.5576
  813MOL0     H 7307   4.158   5.532   0.246  0.7782  0.9380  2.9769
  813MOL0     H 7308   4.324   5.709   0.259 -0.0190 -2.2767  0.0745
  813MOL0     H 7309   4.281   5.704   0.090  1.0985  3.4624  0.5392
  813MOL0     H 7310   4.193   5.886   0.302 -0.5266  0.2648 -0.0133
  813MOL0     H 7311   4.130   5.893   0.130  0.6210 -0.4462 -0.0592
  813MOL0     H 7312   4.341   5.939   0.035  1.5759 -0.3942  0.0070
  813MOL0     H 7313   4.288   6.057   0.157 -4.2213 -1.0394 -2.7059
  813MOL0     H 7314   4.632   5.895   0.346 -0.6911  4.2067  2.0988
  813MOL0     H 7315   3.938   5.914   0.267 -1.4100  1.5437  0.4745
  813MOL0     H 7316   3.696   5.937   0.238  1.0550 -0.4644 -1.4766
  814MOL0     O 7317   3.754   5.976   2.810  0.3976 -0.6888  0.2926
  814MOL0     C 7318   3.780   6.095   2.841  0.3333 -0.0664 -0.1608
  814MOL0     O 7319   3.692   6.187   2.877 -0.0845  0.1546  0.5686
  814MOL0     C 7320   3.563   6.146   2.888  0.1158  0.5998  1.8779
  814MOL0     C 7321   3.531   6.051   2.992 -0.0973  0.1532  1.3559
  814MOL0     C 7322   3.393   6.018   2.991  0.2634  0.3611 -0.1895
  814MOL0     C 7323   3.287   6.073   2.915  0.8534 -0.3143 -0.0633
  814MOL0     O 7324   3.152   6.047   2.949  0.0623 -0.1631 -0.1205
  814MOL0     C 7325   3.067   6.158   2.957  0.7236 -0.3706 -0.0227
  814MOL0     C 7326   2.951   6.134   2.861 -0.4000 -0.0615  0.1168
  814MOL0     C 7327   2.864   6.012   2.896 -0.3860  0.3416  0.9097
  814MOL0     C 7328   2.742   5.990   2.806 -0.0415  0.4866  0.3759
  814MOL0     C 7329   2.654   5.870   2.855 -0.9387  0.6209 -0.0092
  814MOL0     C 7330   2.573   5.812   2.736 -0.1177  0.2983 -0.3475
  814MOL0     C 7331   2.464   5.913   2.689 -0.4341  0.4391 -0.0116
  814MOL0     C 7332   2.344   5.860   2.609  0.6452 -0.0823  0.3615
  814MOL0     N 7333   2.289   5.750   2.680  0.1967 -0.0601  0.2366
  814MOL0     C 7334   2.202   5.752   2.789 -0.0117 -0.3235 -0.0443
  814MOL0     C 7335   2.172   5.623   2.815  0.1388  0.2288 -0.2629
  814MOL0     C 7336   2.085   5.569   2.924 -0.0839 -1.1993  0.8154
  814MOL0     C 7337   1.965   5.510   2.857  0.7653  0.2888 -0.4583
  814MOL0     C 7338   1.873   5.451   2.961 -0.1691 -0.6027  0.3189
  814MOL0     C 7339   1.724   5.477   2.924  0.2667  0.0714 -0.1801
  814MOL0     O 7340   1.674   5.365   2.852 -0.2480 -0.0524  0.3027
  814MOL0     C 7341   1.569   5.389   2.765  0.2348  0.0181  0.3387
  814MOL0     C 7342   1.443   5.350   2.806 -0.3036 -0.1889  0.0479
  814MOL0     C 7343   1.333   5.360   2.726  0.0687  0.7959  0.3845
  814MOL0     C 7344   1.350   5.407   2.590  0.2090 -0.6787 -0.3356
  814MOL0     C 7345   1.228   5.440   2.501  0.0210 -0.0812  0.7600
  814MOL0     O 7346   1.253   5.532   2.400 -0.4576  0.4043 -0.6040
  814MOL0     C 7347   1.148   5.564   2.324 -0.1031 -0.7744  0.2301
  814MOL0     C 7348   1.079   5.683   2.349 -0.1599  0.3232 -0.1773
  814MOL0     C 7349   0.976   5.731   2.268  0.2889  0.3710 -0.3252
  814MOL0     C 7350   0.954   5.664   2.149  0.3518  0.0969 -1.4044
  814MOL0     O 7351   0.861   5.702   2.054 -0.5204  0.3524  0.0412
  814MOL0     C 7352   0.771   5.807   2.084  0.2257  0.0751  0.1725
  814MOL0     C 7353   0.663   5.806   1.977  0.9413  0.5946 -0.1187
  814MOL0     C 7354   0.551   5.707   1.997  0.7267  0.8725 -0.4053
  814MOL0     C 7355   0.595   5.566   1.954 -0.7549 -0.7450 -0.8636
  814MOL0     C 7356   0.482   5.462   1.992 -0.4415 -0.4829 -0.3022
  814MOL0     C 7357   0.471   5.320   1.939 -0.6303  0.9085  1.0213
  814MOL0     C 7358   0.620   5.268   1.926 -0.4191  0.2343  0.1461
  814MOL0     C 7359   0.615   5.116   1.935 -0.1986  0.3385  0.5753
  814MOL0    Cl 7360   0.567   5.059   1.771 -0.1061  0.0879 -0.6428
  814MOL0     C 7361   1.013   5.540   2.128  1.1543 -0.2649 -0.7933
  814MOL0     C 7362   1.112   5.482   2.213  0.9741 -0.7220  0.2420
  814MOL0     O 7363   1.118   5.397   2.530 -0.2528 -0.3377  0.6590
  814MOL0     C 7364   1.472   5.469   2.558  0.0075  1.0388 -0.5125
  814MOL0     C 7365   1.578   5.460   2.646  0.1288  1.3362  0.8219
  814MOL0     N 7366   2.233   5.542   2.718  0.5042 -0.1100 -0.7463
  814MOL0     N 7367   2.292   5.617   2.639  0.2501 -0.0437 -0.0901
  814MOL0     C 7368   3.324   6.162   2.812  0.8826 -0.4938  0.2078
  814MOL0     C 7369   3.466   6.197   2.797  0.2931  0.2528 -0.2544
  814MOL0     C 7370   3.922   6.142   2.842 -0.0399  0.1033  0.4807
  814MOL0     C 7371   3.966   6.264   2.898 -0.2956 -0.0088  0.5661
  814MOL0     C 7372   4.097   6.308   2.886 -0.0363  0.3570  0.4961
  814MOL0     C 7373   4.190   6.219   2.829 -1.0497  0.2210  0.3843
  814MOL0     O 7374   4.319   6.251   2.798  0.0024 -0.0854 -0.2972
  814MOL0     C 7375   4.373   6.380   2.836 -0.4305  0.0109  0.4620
  814MOL0     C 7376   4.525   6.356   2.870 -0.1288 -0.0880 -0.0553
  814MOL0     C 7377   4.582   6.481   2.955 -0.2857 -0.2258  0.0648
  814MOL0     C 7378   4.725   6.449   2.997 -0.8230 -0.1043 -0.4473
  814MOL0     C 7379   4.779   6.551   3.089 -0.1323 -0.0315 -1.2746
  814MOL0     C 7380   4.820   6.626   3.173 -0.8230  0.4140  0.3165
  814MOL0     C 7381   4.151   6.081   2.801  0.6521  0.1821  0.8997
  814MOL0     C 7382   4.018   6.049   2.795 -0.8063  0.2298 -0.0551
  814MOL0     H 7383   3.600   6.010   3.065 -0.3665  1.0640  2.1388
  814MOL0     H 7384   3.363   5.934   3.053  1.1064  1.5672  1.9818
  814MOL0     H 7385   3.108   6.259   2.944  1.6409 -0.4733  1.7320
  814MOL0     H 7386   3.040   6.145   3.062 -2.8699 -0.7205 -0.8620
  814MOL0     H 7387   2.999   6.112   2.766  1.7075 -2.1495  1.5697
  814MOL0     H 7388   2.896   6.228   2.845  1.3387  0.8642 -0.6719
  814MOL0     H 7389   2.828   6.024   2.999  1.4887 -4.5501  2.4414
  814MOL0     H 7390   2.922   5.919   2.895 -0.9474 -0.0067  0.1698
  814MOL0     H 7391   2.682   6.080   2.794 -1.4425 -0.7740 -4.6403
  814MOL0     H 7392   2.784   5.972   2.706 -0.5449  0.9520  0.0767
  814MOL0     H 7393   2.598   5.908   2.941  1.2862 -1.8818  2.7547
  814MOL0     H 7394   2.715   5.789   2.897  2.6652  2.7054 -0.8115
  814MOL0     H 7395   2.535   5.713   2.764  3.4772 -0.6931  1.7344
  814MOL0     H 7396   2.644   5.806   2.654 -0.1021  0.8747 -0.3766
  814MOL0     H 7397   2.433   5.960   2.783 -3.1334  0.6320 -0.9197
  814MOL0     H 7398   2.517   5.994   2.638  0.0032  1.0845  1.4241
  814MOL0     H 7399   2.364   5.820   2.509  0.0509 -2.0437  0.9712
  814MOL0     H 7400   2.262   5.931   2.600 -0.7314 -1.8036 -1.6705
  814MOL0     H 7401   2.185   5.844   2.844  3.4934  0.6482 -0.3292
  814MOL0     H 7402   2.054   5.637   3.004  0.3022 -1.5133  1.2443
  814MOL0     H 7403   2.134   5.484   2.973  3.1279 -0.0077 -0.0491
  814MOL0     H 7404   1.985   5.431   2.784  0.9473 -0.1756  0.0848
  814MOL0     H 7405   1.909   5.586   2.802 -1.0464 -1.0326 -0.5539
  814MOL0     H 7406   1.891   5.344   2.970 -3.5094 -1.4202 -1.1995
  814MOL0     H 7407   1.889   5.492   3.061 -1.4002  3.8130 -1.0477
  814MOL0     H 7408   1.708   5.562   2.856 -1.8184 -1.2596 -1.4591
  814MOL0     H 7409   1.667   5.491   3.017  0.2753  0.1790 -0.1904
  814MOL0     H 7410   1.426   5.304   2.903 -1.5298 -3.4738 -1.5780
  814MOL0     H 7411   1.238   5.327   2.767 -1.3340  3.0242 -0.9127
  814MOL0     H 7412   1.103   5.719   2.448  3.6941 -1.0240 -0.4677
  814MOL0     H 7413   0.920   5.821   2.293 -0.4860  0.2239 -1.4432
  814MOL0     H 7414   0.824   5.903   2.081  0.8072 -0.2738 -2.2039
  814MOL0     H 7415   0.716   5.793   2.178  1.3475 -0.5416  0.7593
  814MOL0     H 7416   0.703   5.779   1.879  0.0194 -4.8193  0.6726
  814MOL0     H 7417   0.614   5.904   1.971  0.8120  0.4507 -2.6035
  814MOL0     H 7418   0.464   5.738   1.938 -0.4969  0.0480  0.8851
  814MOL0     H 7419   0.521   5.696   2.102  4.4967  1.4376  0.8789
  814MOL0     H 7420   0.610   5.568   1.846 -1.0918  1.5726 -0.9048
  814MOL0     H 7421   0.687   5.532   2.001 -2.0973 -0.5852  2.1374
  814MOL0     H 7422   0.387   5.506   1.963 -0.8273 -0.5084  0.8617
  814MOL0     H 7423   0.487   5.465   2.101  0.1436  0.0426 -0.3350
  814MOL0     H 7424   0.423   5.318   1.841  0.1158  0.4580  0.6551
  814MOL0     H 7425   0.409   5.258   2.004 -3.0020 -0.0640 -1.9537
  814MOL0     H 7426   0.668   5.313   1.838 -1.9900  1.4671 -0.1368
  814MOL0     H 7427   0.671   5.301   2.017  1.5056 -2.1864  0.0537
  814MOL0     H 7428   0.557   5.082   2.021  1.8310 -3.1545  0.7161
  814MOL0     H 7429   0.719   5.083   1.942 -0.3990 -0.3888  0.1919
  814MOL0     H 7430   0.989   5.478   2.043  1.8659 -0.6392 -0.7290
  814MOL0     H 7431   1.161   5.387   2.196  1.4481 -0.5929  0.8469
  814MOL0     H 7432   1.494   5.526   2.468  0.7369  0.7274 -0.5405
  814MOL0     H 7433   1.668   5.510   2.612  0.6641  1.2671  2.0965
  814MOL0     H 7434   3.245   6.216   2.762  1.8570  0.1296 -0.7078
  814MOL0     H 7435   3.496   6.255   2.710  1.0538  0.2636  0.0104
  814MOL0     H 7436   3.903   6.343   2.939 -2.1765 -0.3550 -1.5083
  814MOL0     H 7437   4.125   6.412   2.890  0.6993  0.1340  1.7801
  814MOL0     H 7438   4.312   6.428   2.913 -1.5633  2.6675 -1.9323
  814MOL0     H 7439   4.370   6.438   2.743 -1.3488 -1.3526 -0.3892
  814MOL0     H 7440   4.532   6.265   2.931 -3.2740 -1.3233 -1.3023
  814MOL0     H 7441   4.590   6.344   2.783  1.5576 -1.0917  1.2648
  814MOL0     H 7442   4.523   6.512   3.042 -0.3301 -1.6115  0.5550
  814MOL0     H 7443   4.593   6.575   2.900  2.1677  0.0261  0.8545
  814MOL0     H 7444   4.730   6.350   3.043  1.0316  0.0674 -0.2051
  814MOL0     H 7445   4.783   6.430   2.906 -0.1637 -3.1840  0.5075
  814MOL0     H 7446   4.861   6.689   3.250  0.7327 -0.4788  0.2591
  814MOL0     H 7447   4.221   6.013   2.756  2.9649  2.9198  0.0283
  814MOL0     H 7448   3.981   5.952   2.762  0.9522 -1.0640  1.5134
  815MOL0     O 7449   4.453   8.762   4.461  0.4943  0.0467 -0.3689
  815MOL0     C 7450   4.504   8.693   4.547  0.4312 -1.1574  0.4628
  815MOL0     O 7451   4.450   8.588   4.608  0.0680  0.2299 -0.6584
  815MOL0     C 7452   4.322   8.558   4.574 -0.8534 -0.6491  0.2106
  815MOL0     C 7453   4.221   8.565   4.668 -0.0745 -0.2658 -0.1219
  815MOL0     C 7454   4.089   8.532   4.634  0.0451  0.3033  0.6522
  815MOL0     C 7455   4.057   8.469   4.514 -0.6792  0.7193  0.4077
  815MOL0     O 7456   3.935   8.434   4.458  0.6897  0.2318 -0.2914
  815MOL0     C 7457   3.818   8.414   4.540  0.0599 -0.2915 -0.0078
  815MOL0     C 7458   3.732   8.541   4.529  0.8495 -0.2923  0.8880
  815MOL0     C 7459   3.601   8.534   4.619  0.3547 -0.0851 -0.1619
  815MOL0     C 7460   3.495   8.436   4.562  0.7963 -0.8335 -0.2761
  815MOL0     C 7461   3.358   8.466   4.621  0.0132  0.8756  0.0393
  815MOL0     C 7462   3.258   8.354   4.578  0.7572  0.5398 -0.0351
  815MOL0     C 7463   3.120   8.380   4.633 -0.7932  0.1490 -0.2338
  815MOL0     C 7464   3.022   8.269   4.581 -0.4497  0.1247  0.0144
  815MOL0     N 7465   2.882   8.314   4.590 -0.2400 -0.3926  0.0068
  815MOL0     C 7466   2.777   8.303   4.498  0.4866 -0.1525 -0.0162
  815MOL0     C 7467   2.669   8.334   4.573  0.9046  0.4039 -0.0084
  815MOL0     C 7468   2.527   8.325   4.523 -0.3064  0.9839 -0.1139
  815MOL0     C 7469   2.443   8.218   4.589  0.1637  0.1449 -0.1488
  815MOL0     C 7470   2.293   8.247   4.576  0.3789  0.2111  1.1057
  815MOL0     C 7471   2.199   8.147   4.629  0.0175 -0.8690  0.3547
  815MOL0     O 7472   2.174   8.040   4.533 -0.0054 -0.7282  0.1554
  815MOL0     C 7473   2.081   7.939   4.563  0.1416 -0.0004  0.4867
  815MOL0     C 7474   2.088   7.830   4.478  0.2319  0.2179  0.2391
  815MOL0     C 7475   1.991   7.727   4.490 -0.2521  0.4894 -0.3899
  815MOL0     C 7476   1.892   7.723   4.586  0.0437 -0.6461 -0.8962
  815MOL0     C 7477   1.800   7.609   4.596 -0.4705 -0.3654 -1.0978
  815MOL0     O 7478   1.855   7.486   4.569  0.3492 -0.5718 -0.0073
  815MOL0     C 7479   1.763   7.389   4.569 -0.0442  0.5455 -0.3545
  815MOL0     C 7480   1.761   7.316   4.692  0.6873  0.0682  0.6523
  815MOL0     C 7481   1.669   7.212   4.700  0.0796 -0.4982 -0.4140
  815MOL0     C 7482   1.595   7.168   4.592 -0.2926 -0.2283  0.3949
  815MOL0     O 7483   1.512   7.056   4.608  0.5430  0.2489 -0.4665
  815MOL0     C 7484   1.371   7.082   4.613  0.6900  0.4592 -0.4559
  815MOL0     C 7485   1.292   6.947   4.646  0.2172 -0.0889  0.1246
  815MOL0     C 7486   1.342   6.829   4.559 -0.1501 -0.4032  0.1533
  815MOL0     C 7487   1.302   6.686   4.616  0.2198 -0.3276 -0.6119
  815MOL0     C 7488   1.415   6.627   4.709 -0.4551 -0.3330  0.1277
  815MOL0     C 7489   1.371   6.486   4.732  0.1055  0.3551 -0.5781
  815MOL0     C 7490   1.458   6.419   4.848 -0.1557  0.3748 -0.1636
  815MOL0     C 7491   1.608   6.420   4.838 -0.5544  0.2744  0.5458
  815MOL0    Cl 7492   1.665   6.296   4.720  0.4305 -0.0780  0.3828
  815MOL0     C 7493   1.595   7.244   4.479  0.0896 -0.2200  0.0697
  815MOL0     C 7494   1.673   7.357   4.468  0.1360 -0.3720  1.3569
  815MOL0     O 7495   1.680   7.637   4.605 -0.2975  0.1783  0.4765
  815MOL0     C 7496   1.892   7.832   4.676  0.8402  0.1848 -0.6550
  815MOL0     C 7497   1.980   7.940   4.662  0.1340 -0.1495  0.3991
  815MOL0     N 7498   2.708   8.363   4.704  0.6092  0.5170 -0.6005
  815MOL0     N 7499   2.831   8.350   4.713  0.0597 -0.5734  0.2854
  815MOL0     C 7500   4.166   8.461   4.421 -0.2112 -0.2303  0.9671
  815MOL0     C 7501   4.300   8.499   4.449 -0.8548  0.3402 -0.6818
  815MOL0     C 7502   4.633   8.751   4.604  0.4492 -0.1549  0.1213
  815MOL0     C 7503   4.702   8.858   4.548  0.0208  0.0171  0.2014
  815MOL0     C 7504   4.829   8.899   4.604 -0.2831 -0.4438 -0.3937
  815MOL0     C 7505   4.903   8.824   4.693  0.2111 -0.6235 -0.4873
  815MOL0     O 7506   5.035   8.845   4.728  0.5658  0.2540 -0.4121
  815MOL0     C 7507   5.131   8.888   4.628  0.7564  0.2848  0.9259
  815MOL0     C 7508   5.186   8.784   4.528  0.1344 -0.9455 -0.5527
  815MOL0     C 7509   5.226   8.650   4.583  0.2550  0.1860  0.7004
  815MOL0     C 7510   5.188   8.538   4.478 -0.9775  0.3197  0.0323
  815MOL0     C 7511   5.047   8.517   4.485 -0.5726 -0.2050 -0.5040
  815MOL0     C 7512   4.929   8.494   4.499  0.0290  0.6176  0.7330
  815MOL0     C 7513   4.841   8.715   4.744  0.1773 -1.1533  0.4840
  815MOL0     C 7514   4.706   8.683   4.704 -0.2527  0.8092 -0.0590
  815MOL0     H 7515   4.244   8.584   4.772 -2.5876  0.6138  0.3609
  815MOL0     H 7516   4.019   8.552   4.714  0.5457  0.4035  1.0679
  815MOL0     H 7517   3.843   8.393   4.644 -1.3201 -0.9453  0.2088
  815MOL0     H 7518   3.750   8.337   4.504 -3.4789  2.9271 -0.8125
  815MOL0     H 7519   3.720   8.575   4.426  2.1070  0.5109  0.9922
  815MOL0     H 7520   3.790   8.626   4.566  0.5062  0.6003 -0.5565
  815MOL0     H 7521   3.571   8.639   4.606 -0.3583 -0.3036 -0.2839
  815MOL0     H 7522   3.620   8.514   4.725  0.7209  0.6428 -0.0792
  815MOL0     H 7523   3.502   8.435   4.453  1.3255 -0.6688 -0.2467
  815MOL0     H 7524   3.534   8.339   4.593  0.9725 -0.8241 -0.4706
  815MOL0     H 7525   3.309   8.561   4.597 -1.0909  0.5135  0.8260
  815MOL0     H 7526   3.369   8.460   4.730 -0.4942  2.1547  0.1754
  815MOL0     H 7527   3.292   8.253   4.603  1.6783  0.6138 -0.9108
  815MOL0     H 7528   3.261   8.365   4.469 -2.5362  3.8503  0.0087
  815MOL0     H 7529   3.117   8.385   4.742  0.0022 -2.1962 -0.0387
  815MOL0     H 7530   3.103   8.481   4.596  0.0429 -0.4403 -2.3984
  815MOL0     H 7531   3.022   8.183   4.648 -0.4240  0.4739  0.4667
  815MOL0     H 7532   3.040   8.235   4.479 -1.2365 -1.1042  0.2635
  815MOL0     H 7533   2.781   8.274   4.394  0.8573 -0.0250 -0.0416
  815MOL0     H 7534   2.531   8.294   4.418  2.0773 -0.9731  0.4638
  815MOL0     H 7535   2.492   8.428   4.533 -1.0027  0.5211  3.2816
  815MOL0     H 7536   2.472   8.217   4.694 -0.9897  0.2952  0.1930
  815MOL0     H 7537   2.477   8.123   4.546  0.3624  0.1980 -0.1070
  815MOL0     H 7538   2.277   8.336   4.638  1.5891 -0.5931  2.6433
  815MOL0     H 7539   2.267   8.270   4.472 -1.4680 -1.1292  1.2319
  815MOL0     H 7540   2.112   8.208   4.652  1.2628  0.9791  0.3921
  815MOL0     H 7541   2.243   8.109   4.722  1.4920  1.8487  0.8635
  815MOL0     H 7542   2.164   7.828   4.400 -0.5457  2.7340 -0.6872
  815MOL0     H 7543   1.996   7.639   4.427  2.0747 -0.1484  0.5873
  815MOL0     H 7544   1.829   7.343   4.772 -2.2384 -1.0881  3.7962
  815MOL0     H 7545   1.651   7.160   4.793  0.3079  3.2501  1.9438
  815MOL0     H 7546   1.339   7.132   4.521 -3.2557  2.7448  1.8459
  815MOL0     H 7547   1.339   7.151   4.692 -1.4461 -0.8163 -0.1221
  815MOL0     H 7548   1.184   6.959   4.639  0.3169 -0.1654 -2.2865
  815MOL0     H 7549   1.313   6.929   4.752  0.8891 -4.2495 -0.5601
  815MOL0     H 7550   1.449   6.818   4.537  0.0775  0.2082  0.9368
  815MOL0     H 7551   1.309   6.843   4.456  1.6539 -3.2319 -0.9493
  815MOL0     H 7552   1.210   6.710   4.670  0.2384  1.6168 -1.3588
  815MOL0     H 7553   1.283   6.617   4.533 -1.9333  1.0154 -1.3156
  815MOL0     H 7554   1.434   6.678   4.803 -0.3940 -1.9553  1.0376
  815MOL0     H 7555   1.514   6.617   4.664 -0.1651  1.5407  0.2771
  815MOL0     H 7556   1.374   6.416   4.648 -1.5288 -1.3913  0.7407
  815MOL0     H 7557   1.266   6.493   4.759  0.5946 -2.2998  2.7295
  815MOL0     H 7558   1.436   6.472   4.941 -0.3594 -2.4134  1.5019
  815MOL0     H 7559   1.422   6.318   4.868  4.1200 -1.3031  0.0352
  815MOL0     H 7560   1.657   6.391   4.931  1.9484  1.7160 -0.2266
  815MOL0     H 7561   1.645   6.519   4.810 -1.3000  0.6664  0.9205
  815MOL0     H 7562   1.546   7.206   4.390  0.6581 -1.1894  0.1548
  815MOL0     H 7563   1.665   7.415   4.377 -0.3230  1.2506  2.3807
  815MOL0     H 7564   1.814   7.830   4.751  1.9180 -1.1203  0.4832
  815MOL0     H 7565   1.967   8.032   4.717  2.9616  1.5152 -1.5017
  815MOL0     H 7566   4.138   8.437   4.319  2.4285 -0.9516  0.3624
  815MOL0     H 7567   4.384   8.497   4.380  1.6621  0.1123  2.1656
  815MOL0     H 7568   4.670   8.921   4.465  0.3728  0.4187  0.3665
  815MOL0     H 7569   4.857   8.992   4.555 -0.7383  0.3948  0.8737
  815MOL0     H 7570   5.220   8.915   4.686  0.8303  2.6180 -0.1557
  815MOL0     H 7571   5.108   8.979   4.571  0.2912 -0.9984 -1.0263
  815MOL0     H 7572   5.108   8.780   4.451 -1.1588  0.9275  0.5435
  815MOL0     H 7573   5.279   8.821   4.485  0.4990 -3.1541 -1.7956
  815MOL0     H 7574   5.185   8.627   4.681  1.2019  3.9183  2.1524
  815MOL0     H 7575   5.335   8.655   4.597  0.2195  1.8705  0.6181
  815MOL0     H 7576   5.226   8.557   4.377  1.8954 -0.5073  0.8382
  815MOL0     H 7577   5.238   8.444   4.504  2.2724  1.2958 -2.0217
  815MOL0     H 7578   4.822   8.491   4.507 -0.1666  1.7980 -1.0082
  815MOL0     H 7579   4.895   8.642   4.803 -0.8686 -2.3156  0.0740
  815MOL0     H 7580   4.666   8.591   4.746  0.3398  0.4507 -0.2550
  816MOL0     O 7581   6.450   8.501   7.032 -0.3896 -0.3505 -0.2869
  816MOL0     C 7582   6.556   8.464   6.992  0.2979 -0.2640  0.3768
  816MOL0     O 7583   6.573   8.335   6.945  0.2434 -0.6971  0.5802
  816MOL0     C 7584   6.466   8.252   6.956 -0.5782 -0.5017 -0.2307
  816MOL0     C 7585   6.393   8.236   7.078  0.6492 -0.0885 -0.0285
  816MOL0     C 7586   6.295   8.130   7.086 -0.0088 -0.2662 -0.0109
  816MOL0     C 7587   6.266   8.052   6.970  0.5656 -0.3416 -0.2456
  816MOL0     O 7588   6.183   7.944   6.958 -0.9865  0.0618 -0.0541
  816MOL0     C 7589   6.128   7.894   7.083 -0.3478  0.4244  0.3552
  816MOL0     C 7590   6.054   7.763   7.048  0.5078  0.6887  1.3002
  816MOL0     C 7591   5.946   7.768   6.940 -0.1515 -0.5107  0.7535
  816MOL0     C 7592   5.867   7.632   6.913  0.4883  0.2789  0.3844
  816MOL0     C 7593   5.755   7.601   7.025  0.4743  0.2032  0.4904
  816MOL0     C 7594   5.687   7.472   6.978 -0.3093 -0.0522  0.7157
  816MOL0     C 7595   5.533   7.450   7.009 -1.1163 -0.0805  0.6397
  816MOL0     C 7596   5.494   7.458   7.162 -0.0708  0.1267 -0.5515
  816MOL0     N 7597   5.361   7.404   7.180  0.1805  0.4126  0.2463
  816MOL0     C 7598   5.256   7.454   7.115 -0.4728  1.2910  0.2420
  816MOL0     C 7599   5.159   7.360   7.143  0.0044 -0.4373 -0.2775
  816MOL0     C 7600   5.013   7.339   7.085 -0.5961 -0.5269 -0.4259
  816MOL0     C 7601   4.904   7.422   7.158 -0.3049 -0.3121  0.0957
  816MOL0     C 7602   4.880   7.389   7.310  0.0479  0.6119 -0.0651
  816MOL0     C 7603   4.733   7.421   7.358 -1.2351  0.5528  0.4159
  816MOL0     O 7604   4.642   7.328   7.299  0.6152 -0.3381 -0.3501
  816MOL0     C 7605   4.511   7.344   7.326  0.5839 -0.0929 -0.3044
  816MOL0     C 7606   4.462   7.369   7.462  0.6439  0.3507 -0.0266
  816MOL0     C 7607   4.319   7.378   7.479 -0.4607 -0.8048  0.6580
  816MOL0     C 7608   4.230   7.356   7.376  0.9613 -0.2652 -0.4636
  816MOL0     C 7609   4.085   7.354   7.409  0.1279  0.5405  0.0742
  816MOL0     O 7610   4.061   7.372   7.548  0.3098 -0.6267 -0.4305
  816MOL0     C 7611   3.935   7.350   7.598  0.3101  0.0956 -0.0780
  816MOL0     C 7612   3.886   7.220   7.598  0.5842 -0.5295 -0.2087
  816MOL0     C 7613   3.769   7.192   7.656  0.3464  0.7482  0.2152
  816MOL0     C 7614   3.710   7.288   7.733  0.7832  0.2474  0.5311
  816MOL0     O 7615   3.584   7.256   7.797 -0.5126  0.2381  0.3365
  816MOL0     C 7616   3.508   7.363   7.866 -0.3192  0.3008  0.4107
  816MOL0     C 7617   3.402   7.299   7.951 -0.3656  0.3082 -0.4545
  816MOL0     C 7618   3.281   7.258   7.858 -0.4163 -0.1713 -0.1787
  816MOL0     C 7619   3.184   7.173   7.939 -0.5170 -0.1937  0.6514
  816MOL0     C 7620   3.050   7.153   7.851 -0.3588 -0.3376  0.5910
  816MOL0     C 7621   2.962   7.056   7.924  0.5866  0.2104 -0.7038
  816MOL0     C 7622   2.832   7.031   7.848  0.2188  0.8414  0.3935
  816MOL0     C 7623   2.725   6.949   7.909  0.5788 -0.5408  0.3460
  816MOL0    Cl 7624   2.633   7.066   7.998  0.0960 -0.4012  0.2618
  816MOL0     C 7625   3.756   7.428   7.739  0.0883  1.0894  0.6851
  816MOL0     C 7626   3.873   7.456   7.673  0.7359  0.0296  0.1201
  816MOL0     O 7627   3.996   7.362   7.324 -0.4560 -0.2691 -0.0678
  816MOL0     C 7628   4.279   7.330   7.249 -0.4658 -0.3416  0.2496
  816MOL0     C 7629   4.417   7.355   7.224  0.5622  0.3596  0.1122
  816MOL0     N 7630   5.209   7.269   7.226 -0.8219  0.2660  0.2569
  816MOL0     N 7631   5.327   7.297   7.258 -0.3848 -0.5351 -0.5748
  816MOL0     C 7632   6.326   8.087   6.847  0.5124 -0.1506  0.2365
  816MOL0     C 7633   6.425   8.182   6.836 -0.0931 -0.4727 -0.1850
  816MOL0     C 7634   6.677   8.559   6.990 -0.5575  0.6438  0.3132
  816MOL0     C 7635   6.794   8.490   7.005 -0.1253 -0.6980 -0.2447
  816MOL0     C 7636   6.909   8.568   6.997 -0.6675  0.1804  0.4055
  816MOL0     C 7637   6.904   8.708   6.971 -0.7546 -0.6248 -0.8187
  816MOL0     O 7638   7.022   8.778   6.950 -0.4655  0.1052 -0.5082
  816MOL0     C 7639   7.062   8.868   7.058 -0.2531 -0.1574  0.0182
  816MOL0     C 7640   7.189   8.937   7.018 -0.2141 -0.1829  0.4009
  816MOL0     C 7641   7.283   8.861   6.919 -0.0664 -0.1025 -0.0666
  816MOL0     C 7642   7.411   8.940   6.893  0.1752 -0.0441  0.6384
  816MOL0     C 7643   7.507   8.925   7.006 -0.2599 -0.2029 -0.3391
  816MOL0     C 7644   7.577   8.904   7.108  0.3950  0.0779  0.3229
  816MOL0     C 7645   6.779   8.775   6.961 -0.2666  0.4684 -0.9373
  816MOL0     C 7646   6.668   8.693   6.975 -0.0082  0.3483  0.1400
  816MOL0     H 7647   6.420   8.300   7.162 -0.3046  0.5647 -0.2133
  816MOL0     H 7648   6.251   8.107   7.182  0.6363 -0.4215  0.2555
  816MOL0     H 7649   6.053   7.963   7.121 -2.8665 -2.3381  0.8125
  816MOL0     H 7650   6.203   7.868   7.158 -0.9588  1.3138  1.2928
  816MOL0     H 7651   6.024   7.704   7.135 -0.4046  3.3342  2.9105
  816MOL0     H 7652   6.137   7.704   7.008  0.7487  1.4073  0.7171
  816MOL0     H 7653   5.992   7.797   6.844  0.3208 -1.0495  0.8096
  816MOL0     H 7654   5.872   7.838   6.980  0.1600 -1.5179  3.2701
  816MOL0     H 7655   5.824   7.634   6.812  0.2580  0.9251  0.4888
  816MOL0     H 7656   5.934   7.546   6.909  1.6888  1.2237 -2.7807
  816MOL0     H 7657   5.690   7.687   7.046  0.0752  0.0504 -0.1174
  816MOL0     H 7658   5.806   7.575   7.119 -0.1381  0.3606  0.8719
  816MOL0     H 7659   5.744   7.386   7.014 -0.9256  0.5445  3.3513
  816MOL0     H 7660   5.705   7.468   6.870 -0.6612 -1.4301  0.6887
  816MOL0     H 7661   5.491   7.538   6.960 -2.2701  1.1455  3.5759
  816MOL0     H 7662   5.503   7.359   6.956  1.8836 -0.5493 -0.4772
  816MOL0     H 7663   5.505   7.563   7.191 -0.3533 -0.5255  2.1185
  816MOL0     H 7664   5.573   7.410   7.220  0.5857  3.0633  1.1928
  816MOL0     H 7665   5.261   7.525   7.033  2.1672  2.7450  1.5311
  816MOL0     H 7666   4.983   7.234   7.092 -0.2911 -0.6075 -0.2850
  816MOL0     H 7667   5.025   7.364   6.979 -1.7580 -0.0559 -0.4574
  816MOL0     H 7668   4.816   7.393   7.099  0.1829 -0.0405 -0.7824
  816MOL0     H 7669   4.919   7.531   7.159  0.6767 -0.4168 -1.2370
  816MOL0     H 7670   4.914   7.285   7.315 -1.2212  0.2519  2.1478
  816MOL0     H 7671   4.950   7.437   7.379  0.8934  0.5698 -0.8653
  816MOL0     H 7672   4.697   7.521   7.333 -3.9773 -0.2496  0.8166
  816MOL0     H 7673   4.740   7.413   7.467 -0.0586 -1.6934  0.2327
  816MOL0     H 7674   4.525   7.380   7.550  1.4296  3.2114 -0.8155
  816MOL0     H 7675   4.282   7.402   7.578  0.0198  0.0436  0.6455
  816MOL0     H 7676   3.925   7.136   7.541 -2.8314 -0.9804 -2.1659
  816MOL0     H 7677   3.738   7.089   7.661  2.3475  0.0669 -0.3958
  816MOL0     H 7678   3.467   7.420   7.782 -2.2078  0.2536  1.2449
  816MOL0     H 7679   3.564   7.430   7.932 -3.2057  0.0946  3.3098
  816MOL0     H 7680   3.383   7.367   8.035 -2.8686 -0.0057 -0.6659
  816MOL0     H 7681   3.440   7.210   8.001 -2.4132 -1.0264 -1.1161
  816MOL0     H 7682   3.317   7.190   7.781  0.0941 -0.8306  0.6303
  816MOL0     H 7683   3.242   7.349   7.811 -1.3644 -0.5472 -0.1455
  816MOL0     H 7684   3.232   7.077   7.955  0.3946  0.1269 -0.0653
  816MOL0     H 7685   3.167   7.216   8.038 -0.6844 -1.5463  1.2254
  816MOL0     H 7686   3.055   7.128   7.745 -1.9213  1.2278  0.0965
  816MOL0     H 7687   3.000   7.250   7.851  0.3860  0.2878 -4.1411
  816MOL0     H 7688   2.934   7.092   8.023 -0.5421  2.9395 -1.9221
  816MOL0     H 7689   3.012   6.962   7.949 -0.1676  0.2181  0.9815
  816MOL0     H 7690   2.780   7.119   7.808  0.8911  1.6856  1.3623
  816MOL0     H 7691   2.860   6.970   7.761 -0.2478  3.6967 -1.9122
  816MOL0     H 7692   2.779   6.868   7.960  1.0295  0.7600  2.0358
  816MOL0     H 7693   2.662   6.900   7.834  0.7879 -1.7874  0.9454
  816MOL0     H 7694   3.702   7.499   7.800  0.2447  1.2808  0.6020
  816MOL0     H 7695   3.920   7.553   7.668  0.1660  0.3577  0.9466
  816MOL0     H 7696   4.214   7.306   7.166 -1.1778  0.0143  0.6965
  816MOL0     H 7697   4.442   7.344   7.119 -1.1853 -1.4003 -0.1702
  816MOL0     H 7698   6.300   8.031   6.757  1.0922 -0.5981  0.3392
  816MOL0     H 7699   6.468   8.201   6.738  0.0451  1.4784  0.2120
  816MOL0     H 7700   6.796   8.382   7.009  3.8911 -0.7690 -0.1980
  816MOL0     H 7701   7.006   8.523   7.014 -1.1354 -0.6686  0.9486
  816MOL0     H 7702   7.089   8.805   7.143  0.7299 -1.5949 -1.2981
  816MOL0     H 7703   6.980   8.932   7.089  1.2717  2.3044 -0.6699
  816MOL0     H 7704   7.172   9.035   6.973  3.3810  1.7348  2.7426
  816MOL0     H 7705   7.239   8.952   7.114  0.6568 -2.5721  0.3945
  816MOL0     H 7706   7.226   8.845   6.827  1.6130  0.5883 -1.2766
  816MOL0     H 7707   7.311   8.759   6.950 -3.1691 -0.7164  1.1230
  816MOL0     H 7708   7.457   8.899   6.802  0.7863  3.7378 -0.9291
  816MOL0     H 7709   7.378   9.042   6.872  0.0849 -0.1943  0.0247
  816MOL0     H 7710   7.654   8.898   7.182  1.6736 -1.0266 -1.0595
  816MOL0     H 7711   6.781   8.882   6.942 -0.2402  0.0479 -3.6062
  816MOL0     H 7712   6.567   8.733   6.965  0.0754  0.3475 -0.8387
  817MOL0     O 7713   1.544   8.092   3.212  0.5466 -0.6240 -0.5203
  817MOL0     C 7714   1.432   8.081   3.264 -0.1016  0.0192 -0.3796
  817MOL0     O 7715   1.314   8.056   3.196 -0.7945  0.4636 -0.8037
  817MOL0     C 7716   1.314   8.055   3.059 -0.3108 -0.4117  0.2463
  817MOL0     C 7717   1.359   8.165   2.985  0.7405 -0.2490  1.4612
  817MOL0     C 7718   1.333   8.173   2.847  0.7362 -0.5758 -0.0052
  817MOL0     C 7719   1.275   8.064   2.783 -0.3777 -0.5960 -0.5960
  817MOL0     O 7720   1.254   8.060   2.646  0.0106 -0.7426 -0.1133
  817MOL0     C 7721   1.298   8.166   2.550 -0.1211 -0.0425  0.2921
  817MOL0     C 7722   1.250   8.119   2.412 -0.2265  0.8827  0.9969
  817MOL0     C 7723   1.281   8.226   2.306  0.1714  1.1475 -0.6355
  817MOL0     C 7724   1.233   8.173   2.172 -1.0078 -0.5797  0.2937
  817MOL0     C 7725   1.218   8.292   2.067  0.2001 -0.0237  0.6954
  817MOL0     C 7726   1.225   8.244   1.922  0.7766  0.5229  0.1072
  817MOL0     C 7727   1.114   8.148   1.888 -0.2178  0.7071  0.5829
  817MOL0     C 7728   0.966   8.199   1.918 -0.1965 -0.8081 -0.1890
  817MOL0     N 7729   0.950   8.330   1.847 -0.2536  0.7285  0.4043
  817MOL0     C 7730   0.955   8.449   1.914 -0.0694 -0.3296 -0.1691
  817MOL0     C 7731   0.938   8.543   1.814  0.4263  0.3129 -0.0907
  817MOL0     C 7732   0.962   8.691   1.826  0.5259  0.9082  0.1694
  817MOL0     C 7733   1.105   8.711   1.881  0.3223 -0.5420  0.1287
  817MOL0     C 7734   1.163   8.850   1.852 -0.0022 -0.5012 -0.7881
  817MOL0     C 7735   1.300   8.879   1.926 -0.0460  0.5630 -0.6021
  817MOL0     O 7736   1.295   8.841   2.070 -0.0338 -0.1375  0.7475
  817MOL0     C 7737   1.406   8.776   2.120  0.0168  0.8160 -0.0374
  817MOL0     C 7738   1.496   8.843   2.206  0.6315 -0.7579 -0.8553
  817MOL0     C 7739   1.598   8.776   2.265 -0.3930  0.1738  0.4181
  817MOL0     C 7740   1.629   8.641   2.217  0.4254 -0.0088 -0.6907
  817MOL0     C 7741   1.760   8.590   2.256  0.0083  0.1454  0.3329
  817MOL0     O 7742   1.857   8.679   2.300 -0.4934  0.5086 -0.5628
  817MOL0     C 7743   1.966   8.620   2.355  1.0390  0.3258 -0.6510
  817MOL0     C 7744   1.991   8.647   2.491 -0.0129 -0.6744  0.5989
  817MOL0     C 7745   2.088   8.585   2.562  0.0980 -0.0428  0.6236
  817MOL0     C 7746   2.175   8.489   2.497 -0.6507 -0.2158  0.3194
  817MOL0     O 7747   2.282   8.440   2.571 -0.0167 -0.8939 -0.3170
  817MOL0     C 7748   2.248   8.315   2.634  0.0888 -0.1758  0.3163
  817MOL0     C 7749   2.361   8.272   2.728 -1.3269 -0.0140  0.0802
  817MOL0     C 7750   2.484   8.213   2.649 -0.2318  0.4085 -0.7557
  817MOL0     C 7751   2.604   8.200   2.752 -0.1872 -0.4828 -0.1686
  817MOL0     C 7752   2.720   8.142   2.679  0.5425 -1.1647  0.2904
  817MOL0     C 7753   2.864   8.153   2.730 -0.3235 -0.1221 -1.0890
  817MOL0     C 7754   2.974   8.134   2.622 -0.5359  0.3794 -0.0721
  817MOL0     C 7755   3.038   8.257   2.577  0.4008 -0.2566 -0.8263
  817MOL0    Cl 7756   2.932   8.396   2.530  0.2829  0.9044  0.0450
  817MOL0     C 7757   2.156   8.468   2.361  0.2924  0.2790 -0.6870
  817MOL0     C 7758   2.048   8.529   2.290 -0.7374 -0.1800  0.2064
  817MOL0     O 7759   1.775   8.469   2.237  0.1227  0.3474 -1.0953
  817MOL0     C 7760   1.543   8.576   2.129  0.5546  0.5775  0.2204
  817MOL0     C 7761   1.432   8.642   2.094 -0.6229  0.2143  0.4665
  817MOL0     N 7762   0.923   8.485   1.690 -1.3015  0.2037 -0.4211
  817MOL0     N 7763   0.931   8.352   1.710 -0.2780 -0.5858  0.2611
  817MOL0     C 7764   1.213   7.961   2.850 -0.1762  0.5707 -0.3600
  817MOL0     C 7765   1.235   7.960   2.988  0.7037 -0.2207 -0.3188
  817MOL0     C 7766   1.421   8.100   3.413 -0.4010  0.4552  0.9513
  817MOL0     C 7767   1.299   8.064   3.480 -0.1311  0.0934 -0.0818
  817MOL0     C 7768   1.277   8.102   3.608 -0.2578 -0.2038 -0.7396
  817MOL0     C 7769   1.380   8.166   3.689  0.2648  0.4063  0.0771
  817MOL0     O 7770   1.349   8.233   3.809  0.3135  0.0133  0.0219
  817MOL0     C 7771   1.403   8.168   3.920 -0.7211  0.3175 -0.0838
  817MOL0     C 7772   1.330   8.195   4.051  0.1542 -0.0421  0.2676
  817MOL0     C 7773   1.179   8.159   4.038 -0.1496 -0.0822  0.3523
  817MOL0     C 7774   1.111   8.211   4.167 -0.0804 -0.1262  0.4301
  817MOL0     C 7775   0.964   8.203   4.173  0.3923  0.8328  0.6700
  817MOL0     C 7776   0.846   8.194   4.168 -0.6132  0.9703  0.3292
  817MOL0     C 7777   1.504   8.188   3.622 -0.0205  0.8465 -0.5712
  817MOL0     C 7778   1.521   8.152   3.486  0.0080 -0.9625  1.2284
  817MOL0     H 7779   1.400   8.253   3.034 -0.3271  0.8282  0.4889
  817MOL0     H 7780   1.369   8.254   2.784  2.7591 -1.4035 -0.0024
  817MOL0     H 7781   1.408   8.161   2.545 -0.0559  1.8400 -1.4470
  817MOL0     H 7782   1.249   8.260   2.574 -0.1853  0.6427 -2.2514
  817MOL0     H 7783   1.149   8.078   2.404  0.9483 -1.7574 -3.4947
  817MOL0     H 7784   1.312   8.031   2.390 -0.0113  0.9469  1.3340
  817MOL0     H 7785   1.389   8.239   2.300  0.5900  1.8457  4.4878
  817MOL0     H 7786   1.249   8.329   2.326 -0.6073  0.7008  0.5076
  817MOL0     H 7787   1.316   8.114   2.133  0.9008  1.8987  0.3707
  817MOL0     H 7788   1.140   8.118   2.190  0.2308 -3.2859 -1.1533
  817MOL0     H 7789   1.296   8.367   2.084 -0.4917  1.2401 -1.4105
  817MOL0     H 7790   1.122   8.341   2.085 -1.0618 -2.0715 -0.1692
  817MOL0     H 7791   1.320   8.191   1.913  2.4293  3.4528 -1.4147
  817MOL0     H 7792   1.213   8.324   1.849 -1.1251  1.4273  1.3344
  817MOL0     H 7793   1.110   8.117   1.783 -2.9165  2.8865 -0.0540
  817MOL0     H 7794   1.123   8.051   1.939 -1.4318 -1.1158 -2.4016
  817MOL0     H 7795   0.965   8.201   2.027 -0.8385  0.3843 -0.2012
  817MOL0     H 7796   0.889   8.129   1.883 -0.5587 -1.8671  2.5213
  817MOL0     H 7797   0.982   8.477   2.015  2.5227  1.5080 -1.2409
  817MOL0     H 7798   0.888   8.733   1.894  2.3473  1.4484  1.9205
  817MOL0     H 7799   0.950   8.747   1.732  0.3736  1.8272  0.7231
  817MOL0     H 7800   1.179   8.638   1.846  1.5557  0.7071  0.0239
  817MOL0     H 7801   1.096   8.700   1.989 -0.6489  2.3410  0.4028
  817MOL0     H 7802   1.200   8.855   1.749  2.7905  1.6912  0.1594
  817MOL0     H 7803   1.085   8.922   1.878 -0.0852 -1.7584  2.9138
  817MOL0     H 7804   1.315   8.988   1.924  2.2513  0.5626  3.6895
  817MOL0     H 7805   1.369   8.809   1.878 -1.2919 -1.7042  0.7307
  817MOL0     H 7806   1.465   8.945   2.225  0.5125 -0.6967 -1.3748
  817MOL0     H 7807   1.666   8.836   2.324  0.3993  2.8192 -2.8645
  817MOL0     H 7808   1.927   8.721   2.537  1.8704  1.4973 -0.0681
  817MOL0     H 7809   2.103   8.620   2.664 -1.2851 -1.2961  1.2933
  817MOL0     H 7810   2.218   8.243   2.558  2.4090 -0.1172 -0.7526
  817MOL0     H 7811   2.161   8.333   2.698 -0.7635  0.0183 -0.8675
  817MOL0     H 7812   2.323   8.184   2.780 -0.2379 -1.1429 -0.9630
  817MOL0     H 7813   2.399   8.335   2.809  0.0454 -0.4710 -0.1786
  817MOL0     H 7814   2.520   8.275   2.567  1.4629 -1.2774 -1.3515
  817MOL0     H 7815   2.463   8.114   2.609 -1.6798  1.1131 -1.8467
  817MOL0     H 7816   2.618   8.302   2.791 -3.3131 -1.1027  3.2292
  817MOL0     H 7817   2.578   8.150   2.846  0.2492  0.7678  0.6498
  817MOL0     H 7818   2.718   8.198   2.585  1.9846 -1.8966 -0.2134
  817MOL0     H 7819   2.699   8.037   2.655 -1.0613 -1.0180  0.9798
  817MOL0     H 7820   2.859   8.065   2.794 -2.2279  0.4243 -0.4125
  817MOL0     H 7821   2.881   8.235   2.800 -0.1192  0.1423 -1.4464
  817MOL0     H 7822   3.056   8.075   2.661  0.0690  0.5486 -1.0496
  817MOL0     H 7823   2.942   8.088   2.528  0.1260  3.5980 -2.0534
  817MOL0     H 7824   3.123   8.241   2.509 -0.0911  3.0219 -2.4086
  817MOL0     H 7825   3.072   8.294   2.674  2.7110 -1.4819 -1.0793
  817MOL0     H 7826   2.228   8.404   2.311  2.8096  0.9177  1.8858
  817MOL0     H 7827   2.043   8.519   2.182 -2.8069 -0.8834  0.3326
  817MOL0     H 7828   1.549   8.473   2.095 -2.2994  0.4403 -0.0722
  817MOL0     H 7829   1.354   8.596   2.035 -2.8058  0.5137  2.9259
  817MOL0     H 7830   1.169   7.873   2.805 -1.3802  0.1358  1.5197
  817MOL0     H 7831   1.183   7.888   3.050 -0.5874 -0.0864 -1.2142
  817MOL0     H 7832   1.215   8.017   3.431  0.2918 -2.5593  1.5727
  817MOL0     H 7833   1.183   8.082   3.657 -0.7745  2.2029 -0.6320
  817MOL0     H 7834   1.505   8.201   3.940 -0.9046  0.4654  0.6577
  817MOL0     H 7835   1.413   8.063   3.892 -1.4323 -0.3544  2.0008
  817MOL0     H 7836   1.379   8.134   4.128 -0.0224 -0.7814 -0.1979
  817MOL0     H 7837   1.333   8.303   4.070 -2.0029  0.1628 -0.3156
  817MOL0     H 7838   1.180   8.052   4.014  0.3038 -0.1499  0.6799
  817MOL0     H 7839   1.134   8.214   3.954 -0.0535 -2.3237 -1.2575
  817MOL0     H 7840   1.150   8.171   4.262 -0.9513  1.1538  1.3659
  817MOL0     H 7841   1.147   8.314   4.154  2.7400 -1.1997 -1.0971
  817MOL0     H 7842   0.741   8.200   4.188 -0.2916  2.1837  1.8687
  817MOL0     H 7843   1.584   8.229   3.682 -1.3188  0.5910  1.4210
  817MOL0     H 7844   1.610   8.170   3.428 -0.8006 -1.2264 -0.1382
  818MOL0     O 7845   4.962   0.020   8.018 -0.1144  0.5830 -0.0795
  818MOL0     C 7846   4.948   0.128   8.068  0.4691 -0.4863  0.6367
  818MOL0     O 7847   4.860   0.161   8.173  0.4426 -0.1117  0.4761
  818MOL0     C 7848   4.787   0.053   8.212 -0.9751 -1.1709  0.9952
  818MOL0     C 7849   4.684  -0.010   8.143 -0.0267  0.8024 -0.3495
  818MOL0     C 7850   4.607  -0.119   8.200 -0.0122  0.4790 -0.9415
  818MOL0     C 7851   4.653  -0.175   8.326 -0.0192  0.3661  0.2872
  818MOL0     O 7852   4.568  -0.268   8.383 -0.3761  0.2374 -0.0356
  818MOL0     C 7853   4.431  -0.247   8.387  0.4657 -0.1407 -0.3347
  818MOL0     C 7854   4.377  -0.297   8.516 -0.2166  0.1796 -0.6650
  818MOL0     C 7855   4.220  -0.290   8.506 -0.2439 -0.3022  0.0856
  818MOL0     C 7856   4.164  -0.166   8.574 -1.3389 -0.3191 -0.5551
  818MOL0     C 7857   4.008  -0.165   8.566  0.9124 -0.4393 -0.9293
  818MOL0     C 7858   3.957  -0.051   8.651  0.0472  0.7525 -0.4034
  818MOL0     C 7859   3.805  -0.023   8.635 -0.1001  0.6959  0.6812
  818MOL0     C 7860   3.767   0.082   8.742 -0.2186 -1.1084  0.1934
  818MOL0     N 7861   3.628   0.123   8.735  0.5233  0.1386 -0.5287
  818MOL0     C 7862   3.527   0.048   8.794  1.0558 -0.1332  0.9314
  818MOL0     C 7863   3.417   0.130   8.783 -0.5210  0.1897 -0.5001
  818MOL0     C 7864   3.286   0.099   8.846 -0.2441 -0.0950 -0.1376
  818MOL0     C 7865   3.182   0.195   8.790  0.2527  0.1841 -0.1939
  818MOL0     C 7866   3.050   0.166   8.854  0.0981 -0.1735  0.7630
  818MOL0     C 7867   2.938   0.205   8.752  0.1782  0.0249 -0.2997
  818MOL0     O 7868   2.815   0.147   8.797  0.5006 -0.2979 -0.4513
  818MOL0     C 7869   2.697   0.216   8.755  0.0868  0.7875 -0.3322
  818MOL0     C 7870   2.679   0.281   8.631 -0.1451  0.9949 -0.0384
  818MOL0     C 7871   2.550   0.324   8.597 -1.1719 -0.5224  0.8574
  818MOL0     C 7872   2.440   0.297   8.684 -0.2479 -1.0594 -0.2169
  818MOL0     C 7873   2.301   0.337   8.652  0.3523  0.7104 -0.0691
  818MOL0     O 7874   2.276   0.346   8.517 -0.1225  0.2004 -0.9282
  818MOL0     C 7875   2.147   0.359   8.479  1.1551 -0.2017 -0.0420
  818MOL0     C 7876   2.134   0.469   8.394  0.7763 -0.3732 -0.8341
  818MOL0     C 7877   1.999   0.502   8.343 -0.4891 -0.3563 -0.0777
  818MOL0     C 7878   1.887   0.423   8.377 -0.0729  0.4766 -0.4692
  818MOL0     O 7879   1.761   0.422   8.313 -0.7105 -0.3223 -0.2194
  818MOL0     C 7880   1.736   0.536   8.233  0.5266  0.7633 -0.0849
  818MOL0     C 7881   1.581   0.535   8.214 -0.3650  0.0519  0.1022
  818MOL0     C 7882   1.537   0.664   8.145  0.2615  0.0930 -0.7860
  818MOL0     C 7883   1.389   0.662   8.082 -0.1543  0.2695  0.1888
  818MOL0     C 7884   1.285   0.679   8.197 -0.3001 -0.6003 -0.2006
  818MOL0     C 7885   1.149   0.683   8.134 -0.3536  1.0017 -0.3061
  818MOL0     C 7886   1.048   0.691   8.254 -0.2735  0.3108 -0.5114
  818MOL0     C 7887   0.911   0.659   8.198  1.2710  0.2518  0.1058
  818MOL0    Cl 7888   0.798   0.663   8.333  0.1800 -0.0734  0.0137
  818MOL0     C 7889   1.905   0.311   8.462 -0.0108 -0.0910 -1.2777
  818MOL0     C 7890   2.036   0.279   8.510 -0.3277  0.2196 -1.1688
  818MOL0     O 7891   2.218   0.343   8.741  0.1110  0.5044 -0.4578
  818MOL0     C 7892   2.455   0.227   8.797 -0.3433 -0.4141 -0.7855
  818MOL0     C 7893   2.582   0.194   8.829 -0.6191  0.1015  0.3951
  818MOL0     N 7894   3.463   0.248   8.726  0.0871  0.0140  0.4840
  818MOL0     N 7895   3.589   0.250   8.703 -0.9540  0.3674  0.0054
  818MOL0     C 7896   4.773  -0.119   8.382 -0.8176 -0.2194 -0.5343
  818MOL0     C 7897   4.838  -0.006   8.327  0.1713  0.4471 -0.0273
  818MOL0     C 7898   5.025   0.241   8.014 -0.8690  0.5071  0.7350
  818MOL0     C 7899   5.118   0.220   7.906  0.5663 -0.0952 -0.8937
  818MOL0     C 7900   5.181   0.334   7.844 -0.4315  0.1533 -0.2405
  818MOL0     C 7901   5.148   0.460   7.883 -0.1910 -0.4348 -0.7073
  818MOL0     O 7902   5.213   0.561   7.815  0.1517 -0.1617  0.4269
  818MOL0     C 7903   5.225   0.692   7.873 -0.0510 -0.2744 -0.3567
  818MOL0     C 7904   5.303   0.792   7.784 -0.9094  0.1885  0.5207
  818MOL0     C 7905   5.225   0.800   7.654  0.6149 -0.5033  0.9310
  818MOL0     C 7906   5.284   0.897   7.551 -0.4791 -0.5310  0.8059
  818MOL0     C 7907   5.280   1.038   7.587 -0.5259  0.4962  0.5927
  818MOL0     C 7908   5.322   1.149   7.610 -0.0219  0.0248  0.2058
  818MOL0     C 7909   5.064   0.476   7.996 -0.0074  0.7587  1.0240
  818MOL0     C 7910   5.006   0.368   8.056  0.5095  0.3608 -1.2659
  818MOL0     H 7911   4.653   0.027   8.046  2.6621  0.5333 -1.3935
  818MOL0     H 7912   4.525  -0.169   8.150  0.7389 -1.2137 -0.5655
  818MOL0     H 7913   4.397  -0.308   8.302  2.9385 -0.1571 -1.3823
  818MOL0     H 7914   4.403  -0.142   8.371 -1.4347 -0.6099 -0.3665
  818MOL0     H 7915   4.409  -0.235   8.601 -1.5901  0.4119 -0.2891
  818MOL0     H 7916   4.412  -0.399   8.528  2.1569  1.0868  0.8077
  818MOL0     H 7917   4.173  -0.378   8.551  1.8035 -0.3584  2.3225
  818MOL0     H 7918   4.191  -0.294   8.400  1.0497 -0.9006 -0.2744
  818MOL0     H 7919   4.212  -0.152   8.672  1.1123  0.0852 -1.7400
  818MOL0     H 7920   4.203  -0.079   8.520 -1.2887 -0.2599 -0.4247
  818MOL0     H 7921   3.963  -0.259   8.598  2.5268 -1.1433 -0.6368
  818MOL0     H 7922   3.983  -0.129   8.466 -0.3634 -0.1818 -0.5373
  818MOL0     H 7923   4.011   0.037   8.616  0.3824  1.0009  0.7112
  818MOL0     H 7924   3.968  -0.080   8.756 -1.0083 -1.3373 -0.8183
  818MOL0     H 7925   3.781   0.018   8.537 -0.2745  0.7435  0.7442
  818MOL0     H 7926   3.748  -0.112   8.663  0.9447 -0.4053 -0.5740
  818MOL0     H 7927   3.825   0.173   8.723 -0.1199 -1.4717 -1.4150
  818MOL0     H 7928   3.787   0.047   8.843  0.1146 -0.4072  0.3744
  818MOL0     H 7929   3.531  -0.046   8.848  0.5425 -0.2082  0.8459
  818MOL0     H 7930   3.298   0.105   8.955  3.8579  2.4013 -0.5327
  818MOL0     H 7931   3.258  -0.003   8.819 -0.5504  0.4609 -2.0614
  818MOL0     H 7932   3.170   0.186   8.681  0.2331 -1.2894 -0.0840
  818MOL0     H 7933   3.195   0.299   8.822 -0.1929  0.3011 -0.3715
  818MOL0     H 7934   3.053   0.060   8.884 -1.4732 -0.3898  0.2271
  818MOL0     H 7935   3.029   0.231   8.939  1.4484  2.6441 -0.9203
  818MOL0     H 7936   2.951   0.164   8.651 -1.2054 -1.6075  0.1526
  818MOL0     H 7937   2.939   0.313   8.733 -1.9632 -0.0763 -1.3080
  818MOL0     H 7938   2.762   0.305   8.566 -0.8306  1.0610 -0.9023
  818MOL0     H 7939   2.540   0.391   8.512  2.9799  0.7037  1.1282
  818MOL0     H 7940   2.213   0.533   8.357 -1.8543  3.4205 -0.4247
  818MOL0     H 7941   1.987   0.592   8.284 -0.8219 -0.2271  0.1850
  818MOL0     H 7942   1.806   0.521   8.150  2.2012 -0.8293  1.5178
  818MOL0     H 7943   1.753   0.630   8.286  1.9913  0.0793  0.6984
  818MOL0     H 7944   1.528   0.526   8.309 -0.5124  1.2930  0.1582
  818MOL0     H 7945   1.552   0.452   8.150 -0.0706  0.5321 -0.6606
  818MOL0     H 7946   1.592   0.678   8.051 -2.0720  0.7606 -2.1535
  818MOL0     H 7947   1.557   0.757   8.198  0.3098 -0.1505 -0.3729
  818MOL0     H 7948   1.386   0.730   7.996  0.8096 -1.4669 -1.3189
  818MOL0     H 7949   1.383   0.564   8.034  3.1727 -2.0693  3.9411
  818MOL0     H 7950   1.307   0.771   8.252 -2.5805  1.4821 -2.5281
  818MOL0     H 7951   1.301   0.591   8.262 -1.9633  0.6570  2.0407
  818MOL0     H 7952   1.131   0.596   8.070 -1.1887  0.1762  1.0041
  818MOL0     H 7953   1.142   0.770   8.067 -0.0814  1.1584 -0.1341
  818MOL0     H 7954   1.064   0.604   8.319 -3.2694 -0.3047 -0.4522
  818MOL0     H 7955   1.053   0.788   8.303 -0.5115 -0.2960  0.7515
  818MOL0     H 7956   0.907   0.565   8.142  1.4816  1.6084 -2.3526
  818MOL0     H 7957   0.887   0.736   8.124 -0.9477 -0.6556 -0.2062
  818MOL0     H 7958   1.837   0.227   8.475 -0.3820  0.1768 -1.4713
  818MOL0     H 7959   2.057   0.199   8.579  1.3499  2.6194  1.3075
  818MOL0     H 7960   2.377   0.199   8.868  2.0197  0.3162  2.3122
  818MOL0     H 7961   2.596   0.141   8.922 -0.5025 -1.1032 -0.2802
  818MOL0     H 7962   4.802  -0.169   8.473 -3.3813 -0.0743  0.4633
  818MOL0     H 7963   4.922   0.040   8.378 -1.0701  0.8036  1.8090
  818MOL0     H 7964   5.152   0.123   7.872  1.5701 -0.8312  2.0020
  818MOL0     H 7965   5.257   0.342   7.767  1.1718 -1.2163  1.1131
  818MOL0     H 7966   5.280   0.685   7.967 -1.4535 -1.1202  0.4265
  818MOL0     H 7967   5.129   0.735   7.903  1.2775 -0.8202  6.1968
  818MOL0     H 7968   5.308   0.891   7.830 -2.1236 -0.2806  1.7412
  818MOL0     H 7969   5.406   0.757   7.779 -0.2781  2.0557 -0.3324
  818MOL0     H 7970   5.121   0.824   7.676  0.5079 -0.1704  0.0843
  818MOL0     H 7971   5.225   0.707   7.596  0.5823  0.6157 -0.9397
  818MOL0     H 7972   5.384   0.867   7.518 -0.6173 -0.4311  0.2744
  818MOL0     H 7973   5.222   0.878   7.463  2.1977 -1.4925 -1.0044
  818MOL0     H 7974   5.366   1.244   7.631 -0.1387  0.9822 -3.3944
  818MOL0     H 7975   5.026   0.573   8.030 -1.0522  1.2712 -1.3827
  818MOL0     H 7976   4.938   0.385   8.140  1.0895 -1.0039 -0.4820
  819MOL0     O 7977   7.712   8.315  10.615 -0.0738 -0.9748  0.3010
  819MOL0     C 7978   7.800   8.345  10.528  0.1035  0.5418 -0.1930
  819MOL0     O 7979   7.785   8.434  10.425  0.0135  0.0989  0.0727
  819MOL0     C 7980   7.667   8.487  10.395 -0.3262  0.3566  0.2892
  819MOL0     C 7981   7.664   8.622  10.379  0.9622  0.9327 -0.0905
  819MOL0     C 7982   7.539   8.691  10.368 -0.4162 -0.8235 -0.4456
  819MOL0     C 7983   7.424   8.622  10.363 -0.0589 -0.4667  0.4661
  819MOL0     O 7984   7.312   8.702  10.350  1.0573 -0.9139 -0.1438
  819MOL0     C 7985   7.233   8.692  10.230  0.1789 -0.5098  0.2269
  819MOL0     C 7986   7.096   8.630  10.258 -0.1510  0.2517  0.0329
  819MOL0     C 7987   6.992   8.632  10.145 -0.7220 -0.4072  0.0439
  819MOL0     C 7988   6.878   8.525  10.165 -0.8361 -0.3423 -0.1517
  819MOL0     C 7989   6.747   8.564  10.094 -0.2114  0.8195  0.5969
  819MOL0     C 7990   6.629   8.489  10.165 -0.5570 -0.3446  0.0206
  819MOL0     C 7991   6.585   8.552  10.301 -1.3558 -0.0942 -0.1889
  819MOL0     C 7992   6.433   8.531  10.322 -0.6658 -0.0440  0.4464
  819MOL0     N 7993   6.385   8.390  10.317  0.3602  0.7091 -0.0842
  819MOL0     C 7994   6.361   8.306  10.425 -0.2165  0.2706  0.2758
  819MOL0     C 7995   6.292   8.199  10.373 -0.4661 -0.2229 -0.1514
  819MOL0     C 7996   6.259   8.071  10.440  0.1500 -0.3684 -0.5827
  819MOL0     C 7997   6.204   8.102  10.575  0.5541  0.1574 -0.8147
  819MOL0     C 7998   6.182   7.967  10.656 -0.3995  0.1144 -0.4966
  819MOL0     C 7999   6.042   7.911  10.632 -0.4329 -0.1693  0.2551
  819MOL0     O 8000   5.957   7.956  10.739  0.6143  0.8269 -0.2871
  819MOL0     C 8001   5.825   7.929  10.708 -0.3831 -0.3114 -0.8022
  819MOL0     C 8002   5.729   7.997  10.784 -0.0664 -0.2511  0.3658
  819MOL0     C 8003   5.592   7.990  10.753  0.0939  0.0540  0.5689
  819MOL0     C 8004   5.547   7.905  10.651  0.8034  0.0773 -0.2040
  819MOL0     C 8005   5.396   7.885  10.625 -0.4228  0.0577 -0.1408
  819MOL0     O 8006   5.354   7.777  10.546  0.2912 -0.0866  0.0184
  819MOL0     C 8007   5.220   7.745  10.568  0.3824 -1.0848  0.6261
  819MOL0     C 8008   5.107   7.806  10.506 -0.5349  0.3583  0.8241
  819MOL0     C 8009   4.984   7.760  10.539  0.0515 -0.5255  0.1726
  819MOL0     C 8010   4.964   7.660  10.639  0.1211  0.1024  0.2625
  819MOL0     O 8011   4.842   7.607  10.674 -0.7442 -0.5871 -0.1860
  819MOL0     C 8012   4.733   7.652  10.598 -0.6587 -0.3744  0.5559
  819MOL0     C 8013   4.620   7.551  10.617  0.5943 -0.5077  0.5659
  819MOL0     C 8014   4.483   7.598  10.553 -0.2080  0.1632  0.1062
  819MOL0     C 8015   4.421   7.705  10.639  0.4294 -1.1409  0.3439
  819MOL0     C 8016   4.267   7.739  10.617 -0.3271 -0.8823  0.7156
  819MOL0     C 8017   4.177   7.614  10.617 -0.7097  0.0267 -0.5929
  819MOL0     C 8018   4.039   7.658  10.602  0.2831  0.0696 -0.4750
  819MOL0     C 8019   3.940   7.547  10.577  0.8813 -0.0489  0.2660
  819MOL0    Cl 8020   3.794   7.604  10.481  0.1165 -0.3702  0.1715
  819MOL0     C 8021   5.075   7.614  10.702  0.0919  0.0148 -0.7064
  819MOL0     C 8022   5.199   7.655  10.670 -0.8557  0.9892  0.3894
  819MOL0     O 8023   5.323   7.974  10.672  0.2852  0.2690  0.5893
  819MOL0     C 8024   5.647   7.834  10.575 -0.0795 -0.0444  0.7592
  819MOL0     C 8025   5.783   7.843  10.605  0.6922 -0.5679  0.0372
  819MOL0     N 8026   6.250   8.240  10.249 -0.0051  0.4796  0.2752
  819MOL0     N 8027   6.306   8.350  10.215  0.0055  0.6784 -0.0511
  819MOL0     C 8028   7.427   8.480  10.368 -0.0812  0.3556 -0.2899
  819MOL0     C 8029   7.545   8.413  10.377 -0.2018  1.0638  0.2766
  819MOL0     C 8030   7.940   8.312  10.559  0.0461 -1.1707  0.6109
  819MOL0     C 8031   8.051   8.392  10.513 -0.4388  0.0639 -0.2404
  819MOL0     C 8032   8.176   8.346  10.537 -0.4684  0.4458 -0.3574
  819MOL0     C 8033   8.211   8.229  10.599  1.1952 -0.4705  0.2341
  819MOL0     O 8034   8.345   8.204  10.609  0.9077 -0.4014 -1.0128
  819MOL0     C 8035   8.391   8.076  10.662  0.2807 -0.1614 -0.7243
  819MOL0     C 8036   8.537   8.065  10.624  0.3210 -0.5529 -0.3657
  819MOL0     C 8037   8.638   8.166  10.685  0.1605  0.1142 -0.5701
  819MOL0     C 8038   8.591   8.303  10.728 -0.1925 -0.5691  0.2962
  819MOL0     C 8039   8.703   8.384  10.769  0.3904 -0.0363 -0.4797
  819MOL0     C 8040   8.797   8.456  10.809 -0.1374  0.1063  0.0169
  819MOL0     C 8041   8.102   8.152  10.645 -0.3638  0.1351 -0.4347
  819MOL0     C 8042   7.970   8.196  10.634  0.5176 -0.9432 -0.5515
  819MOL0     H 8043   7.749   8.689  10.395  0.3945  1.3172  1.5203
  819MOL0     H 8044   7.544   8.800  10.368 -3.4563 -0.5309  2.0950
  819MOL0     H 8045   7.279   8.612  10.171  1.8173  0.6786 -0.1643
  819MOL0     H 8046   7.231   8.782  10.168  1.6237 -0.4099  0.2904
  819MOL0     H 8047   7.064   8.674  10.353  2.3472 -1.6499  1.8572
  819MOL0     H 8048   7.103   8.526  10.291  0.2504  0.5901  1.0578
  819MOL0     H 8049   7.046   8.606  10.053 -0.5523 -0.1858  0.0789
  819MOL0     H 8050   6.949   8.732  10.137 -0.5873 -0.4380 -1.5287
  819MOL0     H 8051   6.919   8.432  10.126 -3.1995 -1.9887  1.0742
  819MOL0     H 8052   6.866   8.523  10.274  2.3532 -2.4610  0.3080
  819MOL0     H 8053   6.755   8.537   9.989 -2.2914 -4.2063  1.4785
  819MOL0     H 8054   6.725   8.671  10.106 -1.1300  0.6274  0.6925
  819MOL0     H 8055   6.663   8.387  10.186 -4.1974 -1.5127  0.8661
  819MOL0     H 8056   6.540   8.481  10.103 -0.4377  4.4432 -1.2078
  819MOL0     H 8057   6.637   8.512  10.389 -1.2520  1.0691  0.3039
  819MOL0     H 8058   6.604   8.660  10.306  0.2214 -0.2201 -2.2646
  819MOL0     H 8059   6.382   8.589  10.245 -0.9749 -0.6360  0.1913
  819MOL0     H 8060   6.406   8.573  10.419  0.6763  2.8827 -0.3505
  819MOL0     H 8061   6.403   8.305  10.525  1.4770  1.6630 -0.3676
  819MOL0     H 8062   6.345   8.003  10.448  0.0686 -0.5054 -0.8735
  819MOL0     H 8063   6.184   8.015  10.384  0.6142 -2.3694  0.6835
  819MOL0     H 8064   6.109   8.156  10.567 -0.5366 -1.4667  0.5440
  819MOL0     H 8065   6.280   8.157  10.632  0.1524  0.2763 -0.3865
  819MOL0     H 8066   6.267   7.902  10.637  0.5608  0.0685  3.2519
  819MOL0     H 8067   6.185   7.997  10.761 -0.9521  3.8303 -1.3824
  819MOL0     H 8068   6.058   7.803  10.627  3.3258  0.3080 -1.6318
  819MOL0     H 8069   5.999   7.958  10.543  0.1261  1.5100  0.8373
  819MOL0     H 8070   5.757   8.051  10.874 -0.7842 -2.6823  2.1651
  819MOL0     H 8071   5.522   8.036  10.822  1.7487  1.1411  1.5999
  819MOL0     H 8072   5.118   7.894  10.445  1.4525  0.1325  0.8028
  819MOL0     H 8073   4.895   7.805  10.496 -1.9136 -1.9574  2.4101
  819MOL0     H 8074   4.746   7.654  10.489 -0.5817 -1.5026  0.5360
  819MOL0     H 8075   4.709   7.747  10.646 -2.2813 -0.7922  0.6384
  819MOL0     H 8076   4.602   7.537  10.723  0.0611  1.3511  0.7619
  819MOL0     H 8077   4.651   7.456  10.573 -0.6642 -1.1137  0.9478
  819MOL0     H 8078   4.422   7.509  10.541 -1.4542  0.5308  2.9132
  819MOL0     H 8079   4.498   7.643  10.454  2.5466  0.0482  0.3977
  819MOL0     H 8080   4.431   7.676  10.744 -0.1209  3.0666  1.7606
  819MOL0     H 8081   4.489   7.788  10.615  1.1354 -1.7415  0.2258
  819MOL0     H 8082   4.249   7.805  10.531 -2.4962 -0.8449  1.1448
  819MOL0     H 8083   4.234   7.799  10.702 -0.8966  1.6832 -1.1602
  819MOL0     H 8084   4.181   7.554  10.708 -0.2181  0.9486  0.0074
  819MOL0     H 8085   4.202   7.541  10.540 -0.7105  1.0291 -1.5738
  819MOL0     H 8086   4.004   7.725  10.682 -1.9293  1.6892 -2.6614
  819MOL0     H 8087   4.041   7.710  10.506  0.0118 -0.1378 -0.5923
  819MOL0     H 8088   3.918   7.481  10.662 -0.7553 -0.9015 -0.7691
  819MOL0     H 8089   3.982   7.474  10.508 -1.7768 -0.9681 -0.5171
  819MOL0     H 8090   5.059   7.531  10.769  1.9225  0.0492 -0.1599
  819MOL0     H 8091   5.291   7.615  10.710 -0.6037  1.2162  0.0480
  819MOL0     H 8092   5.624   7.772  10.489  3.9460 -0.1712 -0.3881
  819MOL0     H 8093   5.851   7.789  10.540  0.2551 -2.0562  0.7610
  819MOL0     H 8094   7.327   8.437  10.366  1.6030 -4.0780 -0.1236
  819MOL0     H 8095   7.545   8.305  10.365 -1.1245  1.3783 -5.7594
  819MOL0     H 8096   8.041   8.487  10.462  0.4132  0.1227 -0.3235
  819MOL0     H 8097   8.255   8.416  10.514 -1.6823  1.6794 -0.9337
  819MOL0     H 8098   8.346   7.989  10.614  0.2283 -0.0842 -0.8151
  819MOL0     H 8099   8.366   8.071  10.769  0.5579  2.5028 -0.4763
  819MOL0     H 8100   8.563   7.959  10.635  0.2842 -0.6132 -0.8419
  819MOL0     H 8101   8.550   8.085  10.517 -3.6269  1.9212 -0.5905
  819MOL0     H 8102   8.724   8.168  10.617 -0.3665 -2.1756 -1.3990
  819MOL0     H 8103   8.667   8.122  10.781 -1.4023  0.6831  0.1848
  819MOL0     H 8104   8.552   8.357  10.641  2.7381  3.4076  1.1633
  819MOL0     H 8105   8.517   8.300  10.809 -1.0386  0.4396 -0.4049
  819MOL0     H 8106   8.882   8.518  10.827  0.0715 -0.0371 -0.4397
  819MOL0     H 8107   8.125   8.064  10.703  4.6586  0.7959 -0.9825
  819MOL0     H 8108   7.891   8.139  10.680  0.5743 -1.1565 -0.7165
  820MOL0     O 8109   6.258   9.791  10.006 -0.5553 -0.9376  0.5747
  820MOL0     C 8110   6.381   9.774  10.019  0.0243 -0.4517 -0.8976
  820MOL0     O 8111   6.435   9.704  10.127 -1.1978  0.0954 -0.1816
  820MOL0     C 8112   6.370   9.636  10.227  0.5168  0.9369  0.3156
  820MOL0     C 8113   6.247   9.574  10.201 -0.3013  0.1489 -0.0689
  820MOL0     C 8114   6.189   9.506  10.307  0.1901 -0.8050 -0.1479
  820MOL0     C 8115   6.244   9.492  10.433  0.5092 -0.5085 -0.1835
  820MOL0     O 8116   6.173   9.437  10.535 -0.0901  0.5108 -0.4267
  820MOL0     C 8117   6.060   9.351  10.512 -0.6918 -0.1336 -0.5154
  820MOL0     C 8118   6.011   9.306  10.652  0.0169  0.4513  0.7543
  820MOL0     C 8119   5.859   9.274  10.629 -0.5534 -0.0823  0.1226
  820MOL0     C 8120   5.787   9.247  10.754 -0.6392 -0.2395  0.5306
  820MOL0     C 8121   5.637   9.230  10.735 -0.1603 -0.8635 -0.3167
  820MOL0     C 8122   5.575   9.362  10.679 -0.3480 -0.2292 -0.4643
  820MOL0     C 8123   5.420   9.363  10.706 -0.0608 -0.2848 -0.3717
  820MOL0     C 8124   5.355   9.277  10.599 -0.1959  0.3458 -0.5337
  820MOL0     N 8125   5.212   9.308  10.594  0.7358 -0.8863  0.5153
  820MOL0     C 8126   5.112   9.266  10.676  0.0092  0.2255 -0.6390
  820MOL0     C 8127   4.995   9.334  10.649 -1.1170 -0.4063 -0.2607
  820MOL0     C 8128   4.867   9.329  10.728 -0.1105  0.6723  0.0099
  820MOL0     C 8129   4.780   9.210  10.689  0.0532 -0.0866  0.5546
  820MOL0     C 8130   4.643   9.255  10.698 -0.1170  0.2362 -0.7661
  820MOL0     C 8131   4.542   9.158  10.638 -0.5631  0.3066 -0.3217
  820MOL0     O 8132   4.411   9.207  10.655 -0.6578 -0.1625 -0.1686
  820MOL0     C 8133   4.301   9.135  10.614  0.5385  0.3050  0.7927
  820MOL0     C 8134   4.296   9.053  10.500 -0.0189 -0.4893  0.7623
  820MOL0     C 8135   4.182   9.004  10.457  0.3382  0.4253 -0.6360
  820MOL0     C 8136   4.062   9.027  10.524  0.0127 -0.1152 -1.0430
  820MOL0     C 8137   3.937   8.983  10.461  0.3350 -0.4898  0.2763
  820MOL0     O 8138   3.820   9.026  10.525  0.8839  0.0857  1.1692
  820MOL0     C 8139   3.715   8.939  10.557 -0.5046 -0.7793 -0.4202
  820MOL0     C 8140   3.733   8.798  10.547  0.9845 -0.1168 -0.4030
  820MOL0     C 8141   3.625   8.727  10.589  0.1433  0.2728 -0.0827
  820MOL0     C 8142   3.499   8.778  10.649 -0.1943  0.3449 -0.5527
  820MOL0     O 8143   3.411   8.702  10.724  0.1716 -0.4729  0.8298
  820MOL0     C 8144   3.275   8.715  10.679 -0.1426  0.4994  0.4808
  820MOL0     C 8145   3.211   8.580  10.684  0.0239 -0.3417 -0.2582
  820MOL0     C 8146   3.076   8.575  10.612  0.0826 -0.1324 -0.3827
  820MOL0     C 8147   2.985   8.452  10.650 -0.4749  0.4087  0.5712
  820MOL0     C 8148   2.853   8.462  10.584  0.4882 -0.1467  0.0268
  820MOL0     C 8149   2.764   8.562  10.657 -0.5629  0.0655 -0.5020
  820MOL0     C 8150   2.618   8.522  10.616 -0.3978  0.2818 -1.1100
  820MOL0     C 8151   2.588   8.590  10.483 -0.3544 -0.3397 -0.2306
  820MOL0    Cl 8152   2.422   8.608  10.468 -0.4006  0.1664 -0.1019
  820MOL0     C 8153   3.503   8.914  10.658  0.2296 -0.1619 -0.7291
  820MOL0     C 8154   3.615   8.991  10.623 -0.3735 -0.6708 -0.0278
  820MOL0     O 8155   3.945   8.900  10.368 -0.0698 -0.2626 -0.2777
  820MOL0     C 8156   4.066   9.105  10.635 -0.4483  0.4368 -0.3735
  820MOL0     C 8157   4.188   9.152  10.680  0.6402 -0.0226 -0.1936
  820MOL0     N 8158   5.030   9.413  10.539 -0.1201 -0.9658  0.4832
  820MOL0     N 8159   5.155   9.391  10.504 -0.6073  0.6515  0.9609
  820MOL0     C 8160   6.367   9.552  10.457  0.6201 -0.0712  1.1076
  820MOL0     C 8161   6.435   9.620  10.350  0.5040  0.2599  0.0180
  820MOL0     C 8162   6.470   9.821   9.914  0.1221  0.5585 -0.4275
  820MOL0     C 8163   6.425   9.897   9.803  0.0796  0.2162  0.0016
  820MOL0     C 8164   6.516   9.934   9.709 -0.4861  0.9489 -0.2152
  820MOL0     C 8165   6.651   9.916   9.730 -0.2659 -0.1296  0.6650
  820MOL0     O 8166   6.726   9.977   9.628  0.2089 -0.1815  0.7772
  820MOL0     C 8167   6.861   9.955   9.628  0.6711  0.1649 -0.1814
  820MOL0     C 8168   6.906  10.028   9.495 -0.1942 -0.3051 -0.5285
  820MOL0     C 8169   7.060  10.019   9.484  0.9962  0.5799 -0.1790
  820MOL0     C 8170   7.114  10.112   9.375 -0.0538 -0.1478  0.4909
  820MOL0     C 8171   7.251  10.073   9.349  0.7846  0.1817 -0.4523
  820MOL0     C 8172   7.367  10.048   9.345 -1.6121  0.1877 -0.0043
  820MOL0     C 8173   6.701   9.845   9.840  0.1031  0.1005  0.1452
  820MOL0     C 8174   6.611   9.789   9.932 -0.4709  0.2029  0.1453
  820MOL0     H 8175   6.183   9.592  10.115 -1.5887  1.0083  1.0435
  820MOL0     H 8176   6.087   9.472  10.293  0.4147 -0.8401 -1.9400
  820MOL0     H 8177   6.083   9.261  10.454  0.8340 -0.2918  0.2982
  820MOL0     H 8178   5.981   9.409  10.463  1.0211  0.9622 -2.0820
  820MOL0     H 8179   6.009   9.386  10.726  1.6267  1.1625  0.0871
  820MOL0     H 8180   6.050   9.211  10.693 -3.2367 -0.9074  0.9920
  820MOL0     H 8181   5.844   9.197  10.553  1.5904 -0.7641  0.3206
  820MOL0     H 8182   5.817   9.364  10.582  0.8595  0.7202  0.3140
  820MOL0     H 8183   5.817   9.149  10.792 -1.4262 -1.0427 -0.8374
  820MOL0     H 8184   5.810   9.326  10.826  2.3227 -0.8234  0.3491
  820MOL0     H 8185   5.598   9.212  10.836  1.1387  0.3390  0.4323
  820MOL0     H 8186   5.610   9.143  10.674  0.5064 -2.2854  1.3357
  820MOL0     H 8187   5.595   9.366  10.571  2.8499  1.4794  0.0642
  820MOL0     H 8188   5.617   9.448  10.731 -0.8553 -0.8858  1.0860
  820MOL0     H 8189   5.381   9.333  10.804 -1.5480  2.2120 -0.1309
  820MOL0     H 8190   5.379   9.463  10.689 -0.9748 -0.5800  0.0678
  820MOL0     H 8191   5.367   9.169  10.611 -1.9109 -0.0923 -2.3158
  820MOL0     H 8192   5.401   9.305  10.504  2.3503  0.3525  0.6206
  820MOL0     H 8193   5.124   9.191  10.754 -1.0102  0.9928  0.2917
  820MOL0     H 8194   4.814   9.421  10.703 -0.3639 -0.4995 -4.6540
  820MOL0     H 8195   4.885   9.324  10.836  0.2311  2.4725  0.0692
  820MOL0     H 8196   4.795   9.127  10.759  0.9946  0.8390  1.4924
  820MOL0     H 8197   4.796   9.178  10.586  0.9062  1.0374  0.3208
  820MOL0     H 8198   4.608   9.267  10.801 -3.7048  1.7251 -2.0016
  820MOL0     H 8199   4.625   9.355  10.659  2.1303  1.8371  1.9298
  820MOL0     H 8200   4.554   9.063  10.690 -0.2392  1.4304  1.7915
  820MOL0     H 8201   4.570   9.137  10.535  0.1723  1.3263 -0.3418
  820MOL0     H 8202   4.380   9.047  10.431  0.3853  0.5952  1.1420
  820MOL0     H 8203   4.182   8.959  10.358  0.2763  3.1279 -1.9443
  820MOL0     H 8204   3.825   8.750  10.513  0.2049 -1.4279 -0.7121
  820MOL0     H 8205   3.636   8.620  10.578  2.1392  0.6967 -3.5395
  820MOL0     H 8206   3.264   8.757  10.578 -2.5918 -1.5138 -0.2034
  820MOL0     H 8207   3.222   8.775  10.754 -0.3652 -0.6505  1.2700
  820MOL0     H 8208   3.195   8.569  10.791  1.7561  3.6597  0.6400
  820MOL0     H 8209   3.282   8.506  10.645  1.8960 -1.0275  3.8432
  820MOL0     H 8210   3.089   8.590  10.505  3.7012  1.4534  0.1418
  820MOL0     H 8211   3.019   8.650  10.668  1.7720  1.5200 -0.7784
  820MOL0     H 8212   3.042   8.369  10.607  0.6498  0.6651  1.5220
  820MOL0     H 8213   2.971   8.442  10.758  0.7630  2.6851  1.0051
  820MOL0     H 8214   2.818   8.359  10.579  1.0378 -0.3455  0.1955
  820MOL0     H 8215   2.859   8.504  10.484  1.5002 -0.2613  0.0305
  820MOL0     H 8216   2.789   8.668  10.648  2.8566 -0.4558  1.1265
  820MOL0     H 8217   2.796   8.542  10.760  2.3571  1.5732 -1.0016
  820MOL0     H 8218   2.594   8.416  10.605  0.9006 -0.5412  2.4165
  820MOL0     H 8219   2.551   8.558  10.694  0.4555 -0.7668  0.1637
  820MOL0     H 8220   2.617   8.520  10.404 -0.3009  0.7546 -1.2230
  820MOL0     H 8221   2.639   8.686  10.474 -0.8784 -0.1097 -0.9252
  820MOL0     H 8222   3.420   8.967  10.704 -0.7380 -1.0798 -1.3760
  820MOL0     H 8223   3.623   9.099  10.633 -0.1481 -0.5652 -1.1653
  820MOL0     H 8224   3.976   9.130  10.691 -1.2203 -2.9754  0.1023
  820MOL0     H 8225   4.188   9.212  10.770  0.6026  1.9766 -1.4640
  820MOL0     H 8226   6.420   9.550  10.552  0.5098  2.0170  1.2711
  820MOL0     H 8227   6.531   9.670  10.362  0.1827  0.6117  1.2774
  820MOL0     H 8228   6.322   9.916   9.777 -0.1161  0.1550  0.7240
  820MOL0     H 8229   6.482   9.992   9.624  2.0342  3.9600  0.6368
  820MOL0     H 8230   6.884   9.848   9.620 -0.5369 -0.0038 -1.9685
  820MOL0     H 8231   6.902  10.002   9.718  0.1096  0.7741 -0.2307
  820MOL0     H 8232   6.845   9.984   9.417  3.0784 -2.0850 -2.2970
  820MOL0     H 8233   6.877  10.134   9.498  2.6573  0.5926  3.1344
  820MOL0     H 8234   7.086   9.916   9.460 -0.4914  0.1775 -0.1248
  820MOL0     H 8235   7.111  10.047   9.577 -0.2791 -1.0662  1.0737
  820MOL0     H 8236   7.060  10.095   9.281  0.1885 -0.6757  0.4481
  820MOL0     H 8237   7.110  10.216   9.410 -0.3895 -0.2460  0.7432
  820MOL0     H 8238   7.470  10.029   9.323 -2.1965 -0.6025 -2.3068
  820MOL0     H 8239   6.808   9.827   9.848 -0.0704 -0.5050  1.3332
  820MOL0     H 8240   6.656   9.733  10.014 -1.0242 -1.6660 -0.7562
  821MOL0     O 8241   6.518  10.067   4.429  0.0793  0.1423 -0.2541
  821MOL0     C 8242   6.567  10.124   4.335  0.2741 -0.0505 -0.2097
  821MOL0     O 8243   6.540  10.251   4.288  0.2000 -0.1195 -0.0593
  821MOL0     C 8244   6.441  10.312   4.355  0.0374 -0.5035  0.0309
  821MOL0     C 8245   6.310  10.288   4.315 -0.2923 -0.5125  0.6777
  821MOL0     C 8246   6.198  10.354   4.376  0.4455 -0.0164  0.6042
  821MOL0     C 8247   6.220  10.436   4.481  0.0715 -0.0249  0.2954
  821MOL0     O 8248   6.105  10.498   4.521 -0.0043  0.5297 -1.0088
  821MOL0     C 8249   6.076  10.477   4.662  0.3136  0.0648 -0.4052
  821MOL0     C 8250   5.934  10.450   4.691 -0.6743 -0.3876  0.5993
  821MOL0     C 8251   5.877  10.329   4.621 -0.2400 -0.0309  1.1040
  821MOL0     C 8252   5.722  10.311   4.645  0.1855 -0.5484 -0.2738
  821MOL0     C 8253   5.662  10.209   4.541 -0.4774 -0.0290  0.9016
  821MOL0     C 8254   5.517  10.204   4.530  0.3482  0.2883  0.5334
  821MOL0     C 8255   5.458  10.351   4.513 -0.0346  0.4655 -0.2151
  821MOL0     C 8256   5.302  10.350   4.475 -0.7966 -0.0904 -0.1662
  821MOL0     N 8257   5.208  10.267   4.546 -0.6776 -0.9832 -0.3419
  821MOL0     C 8258   5.193  10.139   4.512  0.5891  0.8409 -0.4206
  821MOL0     C 8259   5.091  10.094   4.588 -0.2921  0.1637  0.4999
  821MOL0     C 8260   5.019   9.958   4.552 -0.1091 -0.2007 -0.4205
  821MOL0     C 8261   5.099   9.846   4.478  0.2692  0.4633  0.2068
  821MOL0     C 8262   5.024   9.713   4.481  1.2470 -1.3067 -0.1311
  821MOL0     C 8263   4.882   9.717   4.406  0.1933 -0.2449 -0.0428
  821MOL0     O 8264   4.791   9.817   4.453  0.3315  0.2680  0.1527
  821MOL0     C 8265   4.657   9.801   4.434  0.6213  0.0086 -0.0690
  821MOL0     C 8266   4.603   9.712   4.346 -0.3423 -0.5871  1.0874
  821MOL0     C 8267   4.464   9.699   4.337 -0.1339  0.0350 -0.4831
  821MOL0     C 8268   4.372   9.765   4.418 -0.0142  0.0505  0.0357
  821MOL0     C 8269   4.225   9.740   4.400 -0.4083  0.0341  0.7447
  821MOL0     O 8270   4.183   9.668   4.296  0.1591 -0.0174  0.2265
  821MOL0     C 8271   4.054   9.684   4.261 -0.4221 -0.9089 -0.4427
  821MOL0     C 8272   3.941   9.613   4.317  0.5360 -0.6358 -0.5062
  821MOL0     C 8273   3.811   9.648   4.271 -0.3868 -0.5339  0.3232
  821MOL0     C 8274   3.791   9.724   4.166 -0.3773 -0.3224  0.1130
  821MOL0     O 8275   3.669   9.726   4.123  1.1586 -0.3194  0.4300
  821MOL0     C 8276   3.591   9.843   4.106 -0.7196  0.8897  0.0688
  821MOL0     C 8277   3.480   9.817   4.015 -0.4719 -0.6289  0.7013
  821MOL0     C 8278   3.396   9.695   4.061  0.3568 -0.1159 -0.4248
  821MOL0     C 8279   3.267   9.661   3.971 -0.3968 -0.7323 -0.6040
  821MOL0     C 8280   3.190   9.543   4.027  0.8092 -0.5975 -0.6536
  821MOL0     C 8281   3.052   9.518   3.949  1.2632  0.2095 -0.6789
  821MOL0     C 8282   2.975   9.379   3.987  0.1421  1.2583 -0.3602
  821MOL0     C 8283   2.837   9.358   3.931  0.1240 -0.2838 -0.4947
  821MOL0    Cl 8284   2.727   9.486   3.983  0.0862  0.0543  0.1926
  821MOL0     C 8285   3.900   9.795   4.110  0.2393  0.3335  0.5734
  821MOL0     C 8286   4.032   9.773   4.156 -0.5579  0.7205 -0.0486
  821MOL0     O 8287   4.150   9.803   4.470 -0.4047 -0.0263  0.2427
  821MOL0     C 8288   4.428   9.851   4.506 -0.0841 -0.8383 -0.6924
  821MOL0     C 8289   4.558   9.871   4.512 -0.4743 -0.4022 -0.2069
  821MOL0     N 8290   5.045  10.200   4.662 -0.2917  0.6087 -0.2578
  821MOL0     N 8291   5.117  10.306   4.636 -0.1476 -0.4848  0.3013
  821MOL0     C 8292   6.349  10.451   4.534  0.4908  0.2720  0.3250
  821MOL0     C 8293   6.457  10.387   4.470 -0.9780  0.3730 -0.6473
  821MOL0     C 8294   6.688  10.067   4.270 -1.1675  0.5075 -0.2396
  821MOL0     C 8295   6.742   9.932   4.305  0.3638  0.1709  0.5484
  821MOL0     C 8296   6.859   9.889   4.257  0.0120  0.1226  0.8055
  821MOL0     C 8297   6.935   9.972   4.168 -0.2517  1.5123  0.7730
  821MOL0     O 8298   7.067   9.936   4.138  0.4150  0.2248  0.0021
  821MOL0     C 8299   7.144   9.839   4.212  0.1919 -0.3925  0.9209
  821MOL0     C 8300   7.288   9.848   4.159  0.6334  0.6727  0.0871
  821MOL0     C 8301   7.348   9.988   4.166  0.0278  0.4540  0.2028
  821MOL0     C 8302   7.501  10.001   4.146  0.6860  0.2638 -0.6951
  821MOL0     C 8303   7.574   9.927   4.253  0.7112 -0.0211 -0.2979
  821MOL0     C 8304   7.632   9.870   4.342  0.0897 -0.3137  0.5932
  821MOL0     C 8305   6.883  10.093   4.126 -0.7343  0.5570 -0.3944
  821MOL0     C 8306   6.766  10.135   4.175  0.7307  0.9823 -0.5974
  821MOL0     H 8307   6.304  10.232   4.223  1.1489 -2.2325  1.5518
  821MOL0     H 8308   6.093  10.356   4.346  1.0613 -0.6605 -1.8051
  821MOL0     H 8309   6.097  10.572   4.712 -0.6400  0.0560  0.0391
  821MOL0     H 8310   6.152  10.410   4.703  1.0200  2.1936  2.0414
  821MOL0     H 8311   5.881  10.541   4.661  0.7246  0.5402  0.8633
  821MOL0     H 8312   5.927  10.438   4.800  2.4397 -1.8369  0.7380
  821MOL0     H 8313   5.918  10.237   4.664 -0.1235 -0.5457 -0.0590
  821MOL0     H 8314   5.897  10.318   4.514  0.1020 -2.4990  1.3612
  821MOL0     H 8315   5.684  10.276   4.741  0.6612 -0.5637 -0.0892
  821MOL0     H 8316   5.677  10.408   4.622  2.1347  0.4911  0.0202
  821MOL0     H 8317   5.703  10.110   4.563 -0.3804 -0.1768  0.0873
  821MOL0     H 8318   5.690  10.237   4.439 -1.9738  2.3152  1.0620
  821MOL0     H 8319   5.478  10.154   4.619  1.0298 -0.6682  0.3165
  821MOL0     H 8320   5.487  10.143   4.444 -0.5608 -0.1713  1.1636
  821MOL0     H 8321   5.465  10.403   4.608 -2.4929 -2.0992  1.5273
  821MOL0     H 8322   5.506  10.406   4.431  2.5363 -2.0751 -0.5867
  821MOL0     H 8323   5.290  10.325   4.369  1.1065  2.2874 -1.0250
  821MOL0     H 8324   5.281  10.457   4.470  2.4311  0.8258  2.2143
  821MOL0     H 8325   5.246  10.089   4.432  4.0244  1.3199  1.3187
  821MOL0     H 8326   4.938   9.990   4.486 -0.2843 -0.7669 -0.4859
  821MOL0     H 8327   4.968   9.913   4.638  0.0547  3.9841  2.1166
  821MOL0     H 8328   5.196   9.837   4.527  1.2442  2.3677 -1.2551
  821MOL0     H 8329   5.118   9.873   4.374 -2.1590 -0.9421 -0.6874
  821MOL0     H 8330   5.080   9.627   4.442  4.4331 -1.3327  3.7984
  821MOL0     H 8331   4.993   9.676   4.579 -2.8014 -3.8522 -2.1040
  821MOL0     H 8332   4.846   9.614   4.401  3.4727 -1.4752 -1.5725
  821MOL0     H 8333   4.904   9.744   4.303  3.2859 -0.9536  0.3267
  821MOL0     H 8334   4.660   9.652   4.275 -1.2188 -0.6983  0.4679
  821MOL0     H 8335   4.413   9.638   4.264 -0.9684  0.7746 -0.5470
  821MOL0     H 8336   3.960   9.535   4.390 -0.6161 -0.3131  0.1632
  821MOL0     H 8337   3.727   9.605   4.325  0.8500 -1.5355  1.5276
  821MOL0     H 8338   3.650   9.928   4.071 -0.5716  0.2775 -1.2131
  821MOL0     H 8339   3.548   9.871   4.202  1.1976  3.4433  0.3031
  821MOL0     H 8340   3.507   9.811   3.909 -1.8549  2.4343  0.0689
  821MOL0     H 8341   3.420   9.908   4.016 -1.5479 -1.3224  1.7113
  821MOL0     H 8342   3.347   9.714   4.157 -3.6217 -3.2447 -1.5552
  821MOL0     H 8343   3.455   9.604   4.071 -0.0696 -0.3490  0.0396
  821MOL0     H 8344   3.200   9.746   3.952  1.7830  1.9229  2.4311
  821MOL0     H 8345   3.298   9.626   3.872  2.9645  0.5952 -0.1607
  821MOL0     H 8346   3.170   9.552   4.134  0.5836 -2.2380 -0.5362
  821MOL0     H 8347   3.255   9.455   4.022 -0.2655 -1.4705  0.1460
  821MOL0     H 8348   3.078   9.500   3.845  0.0350 -2.5679 -0.5935
  821MOL0     H 8349   2.990   9.608   3.960  0.4621 -0.4338  0.2853
  821MOL0     H 8350   3.034   9.292   3.958 -2.2073 -1.0708  1.3475
  821MOL0     H 8351   2.959   9.367   4.095 -2.3725  1.5152 -0.6309
  821MOL0     H 8352   2.792   9.266   3.970  1.0730 -0.4264  0.3112
  821MOL0     H 8353   2.851   9.352   3.823  1.1062  0.1043 -0.3949
  821MOL0     H 8354   3.893   9.862   4.025 -0.4877  0.6078  0.8446
  821MOL0     H 8355   4.113   9.828   4.109 -0.2802 -0.3107 -0.8329
  821MOL0     H 8356   4.359   9.892   4.579  0.2485 -0.4349 -0.5971
  821MOL0     H 8357   4.588   9.942   4.588 -1.1073 -1.5704  1.1578
  821MOL0     H 8358   6.362  10.500   4.630 -1.5220 -0.2006  0.8796
  821MOL0     H 8359   6.559  10.407   4.498 -1.3643  2.1833 -0.4012
  821MOL0     H 8360   6.681   9.869   4.370 -0.3232 -2.9081 -2.8075
  821MOL0     H 8361   6.906   9.794   4.284  0.3003 -1.3050 -3.8119
  821MOL0     H 8362   7.105   9.741   4.181  0.9458 -0.1051 -1.1031
  821MOL0     H 8363   7.141   9.855   4.320 -0.7347 -0.3216  0.8961
  821MOL0     H 8364   7.346   9.772   4.212 -0.0215 -2.5414 -3.3740
  821MOL0     H 8365   7.291   9.814   4.055  2.0305  2.8074 -0.6320
  821MOL0     H 8366   7.323  10.038   4.261  0.1423 -1.5814  1.3706
  821MOL0     H 8367   7.309  10.051   4.086  0.7650  1.0393  0.2893
  821MOL0     H 8368   7.531   9.956   4.051  2.6181  1.7449 -0.8579
  821MOL0     H 8369   7.531  10.106   4.156 -3.8020  1.5492  2.3428
  821MOL0     H 8370   7.696   9.819   4.411 -0.1058 -2.4324 -0.6682
  821MOL0     H 8371   6.930  10.155   4.051 -2.4505  0.4844 -1.5773
  821MOL0     H 8372   6.722  10.226   4.136  0.9792  0.2513 -2.6728
  822MOL0     O 8373   4.650   2.631   5.427  0.2643 -0.2585 -0.1869
  822MOL0     C 8374   4.709   2.695   5.509 -0.9309  0.2162 -0.9399
  822MOL0     O 8375   4.655   2.751   5.622 -0.5127  0.1645  0.6341
  822MOL0     C 8376   4.526   2.727   5.667 -0.0681  0.3278  0.3660
  822MOL0     C 8377   4.500   2.799   5.782  0.2166  0.3026  0.7065
  822MOL0     C 8378   4.371   2.800   5.832  0.5767  1.4426  0.3557
  822MOL0     C 8379   4.272   2.712   5.784 -0.2960  0.5313 -0.3681
  822MOL0     O 8380   4.141   2.702   5.840 -0.4023 -0.6304  0.7178
  822MOL0     C 8381   4.072   2.811   5.892  0.6127  0.0305 -0.4336
  822MOL0     C 8382   3.944   2.766   5.968 -0.3960  0.1517 -0.0165
  822MOL0     C 8383   3.852   2.877   6.032 -0.3300  0.1678 -0.1108
  822MOL0     C 8384   3.876   2.897   6.181 -0.3854 -0.0571  0.2048
  822MOL0     C 8385   3.787   3.011   6.228 -0.5288 -1.2595  0.7368
  822MOL0     C 8386   3.844   3.056   6.361 -0.0163 -0.5693 -0.2318
  822MOL0     C 8387   3.805   3.199   6.404 -0.1378 -0.3155  0.9698
  822MOL0     C 8388   3.662   3.245   6.382  0.0511 -0.1122  0.3305
  822MOL0     N 8389   3.573   3.163   6.469  0.9173 -0.2219  0.6684
  822MOL0     C 8390   3.515   3.213   6.580 -0.5297  0.9779 -0.4037
  822MOL0     C 8391   3.431   3.120   6.619 -0.9556 -0.8124  0.2063
  822MOL0     C 8392   3.334   3.140   6.731  0.5734  0.1926 -1.1656
  822MOL0     C 8393   3.208   3.215   6.684  0.3301 -0.2309  0.4762
  822MOL0     C 8394   3.120   3.138   6.578  0.0810 -0.2623  0.5710
  822MOL0     C 8395   3.053   2.998   6.627 -0.9538  0.3361  0.2829
  822MOL0     O 8396   2.981   3.025   6.751  0.2595  0.6002  0.3530
  822MOL0     C 8397   2.846   3.023   6.732  0.5576 -0.7190 -0.3671
  822MOL0     C 8398   2.769   2.932   6.804  0.0833  0.6826 -0.4353
  822MOL0     C 8399   2.636   2.916   6.773 -0.1230  0.0925 -0.2723
  822MOL0     C 8400   2.567   2.993   6.676  0.3339 -0.9580  0.4367
  822MOL0     C 8401   2.424   2.960   6.648  0.5960 -0.1140 -0.0190
  822MOL0     O 8402   2.368   2.848   6.720  0.0086 -0.5708  0.3671
  822MOL0     C 8403   2.232   2.831   6.705 -0.6110 -0.0487  0.9506
  822MOL0     C 8404   2.197   2.696   6.682 -0.9085 -0.0104 -0.6557
  822MOL0     C 8405   2.062   2.662   6.680 -0.6265 -0.0516 -0.2020
  822MOL0     C 8406   1.960   2.762   6.697 -1.2214  1.7867  0.4226
  822MOL0     O 8407   1.827   2.733   6.686 -0.4196  0.3344  0.0715
  822MOL0     C 8408   1.787   2.611   6.749  0.3378 -0.0814 -0.6623
  822MOL0     C 8409   1.633   2.608   6.754 -0.5251 -0.1586 -0.1044
  822MOL0     C 8410   1.601   2.691   6.877  0.4937  0.3514  0.2084
  822MOL0     C 8411   1.456   2.696   6.913  0.3610  0.2932  0.2239
  822MOL0     C 8412   1.402   2.563   6.962  0.6264  0.3574 -0.3348
  822MOL0     C 8413   1.248   2.545   6.925 -0.0302  0.2103  1.3528
  822MOL0     C 8414   1.153   2.642   6.984  0.6174  0.0030  0.2708
  822MOL0     C 8415   1.039   2.585   7.064 -0.5328 -0.2151 -1.0661
  822MOL0    Cl 8416   1.098   2.513   7.223  0.0325 -0.2984  0.4867
  822MOL0     C 8417   2.005   2.896   6.719 -1.3917  0.3935 -0.2058
  822MOL0     C 8418   2.138   2.941   6.727 -0.7017  0.5268 -0.2080
  822MOL0     O 8419   2.361   3.028   6.560  0.3122 -0.5521 -0.9916
  822MOL0     C 8420   2.642   3.091   6.604  0.3806  0.1811  0.4397
  822MOL0     C 8421   2.777   3.108   6.645 -1.0297 -0.0994  0.3575
  822MOL0     N 8422   3.458   3.004   6.554  0.5149 -0.1961  0.6155
  822MOL0     N 8423   3.540   3.029   6.457  0.0524 -0.6375 -0.8432
  822MOL0     C 8424   4.302   2.629   5.668 -0.6602 -0.4130  0.2677
  822MOL0     C 8425   4.428   2.639   5.611 -0.2531  0.7691  0.0642
  822MOL0     C 8426   4.851   2.730   5.484  0.6725 -0.3293  0.3472
  822MOL0     C 8427   4.922   2.692   5.365  0.3773 -0.5694 -0.5989
  822MOL0     C 8428   5.043   2.744   5.334 -0.5939  0.5171 -0.0392
  822MOL0     C 8429   5.102   2.849   5.412  0.2353 -0.4165  0.1630
  822MOL0     O 8430   5.218   2.921   5.389  0.1207 -0.8061 -0.4116
  822MOL0     C 8431   5.289   2.886   5.275  0.1195  0.7631  0.6047
  822MOL0     C 8432   5.427   2.943   5.288  0.5050  0.4852 -0.2683
  822MOL0     C 8433   5.409   3.099   5.287  0.2137 -0.0241 -0.3413
  822MOL0     C 8434   5.527   3.178   5.228 -0.1671 -0.4597  0.2784
  822MOL0     C 8435   5.645   3.172   5.312 -0.5726 -0.8773  0.4471
  822MOL0     C 8436   5.751   3.171   5.368 -0.4418  0.6935  0.1592
  822MOL0     C 8437   5.035   2.893   5.528  0.5019  0.2810 -0.8544
  822MOL0     C 8438   4.914   2.832   5.559  0.0221  0.5093 -0.2962
  822MOL0     H 8439   4.571   2.875   5.815  3.0162 -1.6970 -0.3009
  822MOL0     H 8440   4.341   2.867   5.913 -1.5801  0.6572  0.2583
  822MOL0     H 8441   4.034   2.868   5.807 -1.0629  0.7267  0.7468
  822MOL0     H 8442   4.126   2.866   5.969 -0.6811 -1.3380  1.5296
  822MOL0     H 8443   3.978   2.690   6.039  5.8225  2.0514 -0.3822
  822MOL0     H 8444   3.885   2.718   5.890 -0.9469 -0.5869  0.8425
  822MOL0     H 8445   3.746   2.860   6.014  0.5082 -2.3371 -4.1458
  822MOL0     H 8446   3.869   2.971   5.979  0.4016  0.8967  1.3412
  822MOL0     H 8447   3.879   2.805   6.240  1.3043  1.1995  2.2442
  822MOL0     H 8448   3.977   2.933   6.199 -1.0528  1.7514  0.5845
  822MOL0     H 8449   3.690   2.967   6.253 -0.7364 -1.2205  0.0320
  822MOL0     H 8450   3.765   3.094   6.161  0.3263 -0.0259  1.9204
  822MOL0     H 8451   3.953   3.060   6.358 -0.0556  0.3398 -2.2518
  822MOL0     H 8452   3.811   2.989   6.441 -1.3480 -0.2418 -0.4823
  822MOL0     H 8453   3.835   3.227   6.506 -0.1797  0.2749  0.8202
  822MOL0     H 8454   3.870   3.264   6.345  0.6239 -1.5487  0.4159
  822MOL0     H 8455   3.625   3.245   6.280 -1.0386  1.6298  0.6909
  822MOL0     H 8456   3.665   3.352   6.403 -1.9282 -0.2145  1.3872
  822MOL0     H 8457   3.528   3.310   6.626  0.8051  0.4527  0.4090
  822MOL0     H 8458   3.378   3.210   6.802 -0.4113  1.9152 -2.1766
  822MOL0     H 8459   3.303   3.046   6.776 -3.3422  1.3803 -0.9649
  822MOL0     H 8460   3.241   3.309   6.640 -2.7894  1.7479  1.9978
  822MOL0     H 8461   3.145   3.242   6.770 -2.0730 -1.2639 -0.8755
  822MOL0     H 8462   3.036   3.206   6.561  1.2737  1.0385 -0.4269
  822MOL0     H 8463   3.167   3.114   6.482 -1.2238 -0.1801 -0.1012
  822MOL0     H 8464   3.129   2.921   6.647  0.2446  1.0575 -1.2537
  822MOL0     H 8465   2.992   2.969   6.542 -1.7991 -1.4123  1.4231
  822MOL0     H 8466   2.819   2.868   6.876 -1.0126 -1.4062 -1.4221
  822MOL0     H 8467   2.582   2.837   6.824 -2.3271  2.0657  0.6497
  822MOL0     H 8468   2.280   2.626   6.684 -1.1723 -0.3480 -1.2712
  822MOL0     H 8469   2.041   2.556   6.674  0.0830 -0.3235  1.6241
  822MOL0     H 8470   1.831   2.602   6.849 -0.9486  0.3503 -0.0379
  822MOL0     H 8471   1.825   2.531   6.686  1.6955  0.0581 -0.0710
  822MOL0     H 8472   1.597   2.505   6.755 -0.8606 -0.1315 -2.5140
  822MOL0     H 8473   1.591   2.645   6.660 -0.8924 -0.1980  0.0427
  822MOL0     H 8474   1.637   2.794   6.868 -0.7273  1.0852  2.7243
  822MOL0     H 8475   1.649   2.643   6.962 -0.4116  0.7737  0.9801
  822MOL0     H 8476   1.457   2.758   7.003 -0.5685  1.5888 -0.6274
  822MOL0     H 8477   1.384   2.737   6.842 -1.2909  0.2688  1.8015
  822MOL0     H 8478   1.406   2.555   7.071  3.0699  1.1344 -0.3024
  822MOL0     H 8479   1.465   2.480   6.929  1.2836  1.1341 -1.0820
  822MOL0     H 8480   1.222   2.442   6.951  1.4467 -0.4896  0.2167
  822MOL0     H 8481   1.244   2.543   6.816 -0.3177  1.7612  1.3070
  822MOL0     H 8482   1.207   2.722   7.036  1.6893 -1.2265  1.1285
  822MOL0     H 8483   1.107   2.691   6.898 -1.1617 -0.7681  0.7445
  822MOL0     H 8484   0.975   2.513   7.013 -1.7580  0.5881 -0.7261
  822MOL0     H 8485   0.960   2.658   7.085 -0.2727 -0.3773  0.6281
  822MOL0     H 8486   1.924   2.967   6.737  0.3645  2.4709 -0.1020
  822MOL0     H 8487   2.154   3.044   6.757  1.3303  0.2789 -0.3077
  822MOL0     H 8488   2.594   3.137   6.518  2.1423 -1.4398 -1.5018
  822MOL0     H 8489   2.833   3.191   6.603  0.4791 -0.4993  1.4650
  822MOL0     H 8490   4.226   2.559   5.636 -0.5028 -1.3292  1.8167
  822MOL0     H 8491   4.455   2.575   5.528 -3.0357 -0.2882 -0.1054
  822MOL0     H 8492   4.889   2.614   5.296  0.2585 -0.6256 -0.4789
  822MOL0     H 8493   5.082   2.702   5.242 -0.9009 -0.4079  0.2371
  822MOL0     H 8494   5.240   2.913   5.181  0.8005 -0.6294 -0.1927
  822MOL0     H 8495   5.297   2.777   5.271  1.7780  0.8009  1.7553
  822MOL0     H 8496   5.477   2.907   5.378  1.8815  0.1452 -1.1239
  822MOL0     H 8497   5.494   2.907   5.209 -0.9377 -0.5752 -1.0547
  822MOL0     H 8498   5.387   3.138   5.387  0.7338 -1.4898  0.3752
  822MOL0     H 8499   5.326   3.124   5.220 -1.0192  0.4781  1.2841
  822MOL0     H 8500   5.546   3.154   5.123  0.6353  1.1898  0.0183
  822MOL0     H 8501   5.496   3.282   5.219  2.4755  0.4061  0.3908
  822MOL0     H 8502   5.838   3.166   5.431 -2.5252 -0.4175  3.1322
  822MOL0     H 8503   5.065   2.975   5.592 -3.0387 -0.2404  1.7918
  822MOL0     H 8504   4.872   2.850   5.658  0.7317 -3.1147  0.8006
  823MOL0     O 8505   9.237   3.425   3.547 -0.0965 -0.6490  0.0784
  823MOL0     C 8506   9.254   3.373   3.658  0.1406  0.0873 -0.7668
  823MOL0     O 8507   9.371   3.339   3.712  0.0450  0.1597 -0.1364
  823MOL0     C 8508   9.495   3.349   3.653 -0.0538  1.1677 -0.1668
  823MOL0     C 8509   9.611   3.370   3.733  0.2897  0.2585  0.3004
  823MOL0     C 8510   9.735   3.359   3.674 -0.8160  0.5401 -0.0236
  823MOL0     C 8511   9.754   3.353   3.539  0.4624 -0.0673  0.1134
  823MOL0     O 8512   9.883   3.354   3.504 -0.4962 -0.1694 -0.8790
  823MOL0     C 8513   9.934   3.250   3.416 -1.0235 -0.2784 -0.3790
  823MOL0     C 8514  10.084   3.263   3.397 -0.0995  0.7362  0.5070
  823MOL0     C 8515  10.130   3.408   3.356 -0.0266 -0.9242  0.8036
  823MOL0     C 8516  10.270   3.414   3.292  0.0986  0.0220  0.4319
  823MOL0     C 8517  10.263   3.377   3.142 -0.1224 -0.2462  0.0303
  823MOL0     C 8518  10.161   3.467   3.059 -0.5391 -0.3786  0.5674
  823MOL0     C 8519  10.182   3.429   2.913  0.6888 -0.6526  1.0373
  823MOL0     C 8520  10.152   3.288   2.875  0.0338  0.1324 -0.3929
  823MOL0     N 8521  10.013   3.245   2.902 -0.1564  0.4530 -0.1131
  823MOL0     C 8522   9.985   3.178   3.023  0.8162  0.6863  0.5151
  823MOL0     C 8523   9.861   3.134   3.020 -0.5199  0.5660 -0.0704
  823MOL0     C 8524   9.801   3.048   3.131  0.2143 -1.1626  0.6550
  823MOL0     C 8525   9.655   3.080   3.137  0.6078  1.0148  0.2530
  823MOL0     C 8526   9.591   3.007   3.255 -0.4927  0.8290 -1.2463
  823MOL0     C 8527   9.438   2.994   3.235 -0.1846  0.2548 -0.2169
  823MOL0     O 8528   9.365   3.117   3.236  0.8017  0.0701  0.4775
  823MOL0     C 8529   9.226   3.122   3.260 -0.1600 -0.2823  0.7195
  823MOL0     C 8530   9.139   3.013   3.288 -0.4280  0.0973 -0.5872
  823MOL0     C 8531   9.006   3.040   3.319  0.2492 -0.8729  0.0747
  823MOL0     C 8532   8.958   3.171   3.337  0.2850 -0.3287  0.4094
  823MOL0     C 8533   8.817   3.202   3.368 -0.3661 -1.2089  0.0850
  823MOL0     O 8534   8.732   3.096   3.344  1.1372  0.3953 -0.1201
  823MOL0     C 8535   8.598   3.126   3.364 -0.1713 -0.6216  0.5608
  823MOL0     C 8536   8.534   3.065   3.471 -0.1846 -0.6076  0.1701
  823MOL0     C 8537   8.387   3.076   3.469 -0.0934  0.0681 -0.5822
  823MOL0     C 8538   8.319   3.164   3.386  0.2566 -0.2134  0.2436
  823MOL0     O 8539   8.187   3.191   3.419  0.3557  0.2190 -1.1140
  823MOL0     C 8540   8.078   3.149   3.329  0.0119 -0.6604 -0.5828
  823MOL0     C 8541   7.939   3.143   3.390  0.1091 -0.0499  0.0843
  823MOL0     C 8542   7.925   3.059   3.524 -0.1073 -0.6467  0.7997
  823MOL0     C 8543   7.794   2.977   3.516  0.3431  0.1349 -0.3710
  823MOL0     C 8544   7.676   3.072   3.514 -0.0025 -0.1992  0.0689
  823MOL0     C 8545   7.549   2.984   3.494  0.4262 -0.3471  1.4068
  823MOL0     C 8546   7.413   3.066   3.487 -0.4098 -0.0721 -0.4098
  823MOL0     C 8547   7.403   3.165   3.371 -0.1357 -0.0753 -0.8276
  823MOL0    Cl 8548   7.242   3.230   3.362 -0.1532 -0.0806 -0.1273
  823MOL0     C 8549   8.398   3.238   3.292  1.1873  1.8428 -0.6444
  823MOL0     C 8550   8.535   3.216   3.275  0.0265 -1.1418 -0.4395
  823MOL0     O 8551   8.786   3.314   3.407 -0.5519  0.3477 -0.1457
  823MOL0     C 8552   9.048   3.274   3.319 -0.8320 -0.4419  0.4099
  823MOL0     C 8553   9.182   3.248   3.286  0.1196  0.5987  0.7188
  823MOL0     N 8554   9.809   3.186   2.900 -0.5646  0.2450  0.5916
  823MOL0     N 8555   9.900   3.242   2.821  0.0605  0.1784  0.1410
  823MOL0     C 8556   9.643   3.342   3.455 -0.7181 -0.7168 -0.5598
  823MOL0     C 8557   9.517   3.337   3.512  0.6409  0.3705 -0.8366
  823MOL0     C 8558   9.125   3.360   3.729  0.0867 -0.0440  0.7224
  823MOL0     C 8559   9.010   3.315   3.654  0.2559 -0.4512  0.1132
  823MOL0     C 8560   8.894   3.274   3.723  0.0865 -0.0928  0.7011
  823MOL0     C 8561   8.889   3.275   3.864 -0.6432 -0.4705  0.4007
  823MOL0     O 8562   8.779   3.248   3.940  0.3258 -0.6186 -0.3204
  823MOL0     C 8563   8.661   3.204   3.874  0.2118 -0.1887 -0.2176
  823MOL0     C 8564   8.569   3.317   3.823 -0.4698  0.9211 -0.4099
  823MOL0     C 8565   8.473   3.355   3.936 -0.0563  0.1403  0.0951
  823MOL0     C 8566   8.355   3.253   3.961 -0.2714 -0.5402 -0.9179
  823MOL0     C 8567   8.279   3.229   3.844 -0.4839 -0.1512 -0.5329
  823MOL0     C 8568   8.195   3.214   3.757 -0.4568 -0.5767 -0.3169
  823MOL0     C 8569   9.003   3.325   3.935 -0.5720 -0.4642 -0.0891
  823MOL0     C 8570   9.115   3.363   3.865  0.9031 -0.1823 -0.0493
  823MOL0     H 8571   9.599   3.392   3.838  1.0275  0.0661  0.4245
  823MOL0     H 8572   9.818   3.360   3.745  1.3476 -2.5275 -2.2173
  823MOL0     H 8573   9.888   3.276   3.319  1.7393  1.8369 -1.2592
  823MOL0     H 8574   9.917   3.145   3.441  0.4198 -0.6471 -0.8863
  823MOL0     H 8575  10.106   3.191   3.318  1.9333  1.6846  0.1379
  823MOL0     H 8576  10.139   3.236   3.488 -2.7252  0.7543  2.2195
  823MOL0     H 8577  10.134   3.465   3.449 -1.4130  1.8596 -0.7194
  823MOL0     H 8578  10.048   3.459   3.304  0.5121  0.4067  1.2237
  823MOL0     H 8579  10.303   3.518   3.281 -0.8707  0.1631 -1.8096
  823MOL0     H 8580  10.340   3.352   3.347  0.9408  1.0206  0.5182
  823MOL0     H 8581  10.240   3.270   3.146  0.1419 -0.3163 -0.2870
  823MOL0     H 8582  10.360   3.389   3.093 -0.5919  0.6987 -0.6847
  823MOL0     H 8583  10.185   3.572   3.078 -0.4541 -0.2304 -0.3318
  823MOL0     H 8584  10.056   3.451   3.085 -0.5241  0.1528  0.9772
  823MOL0     H 8585  10.117   3.490   2.849  0.5917  1.0484  2.6818
  823MOL0     H 8586  10.284   3.462   2.891  0.7320 -1.4344 -0.0400
  823MOL0     H 8587  10.227   3.217   2.911 -0.3301 -0.7663 -1.3512
  823MOL0     H 8588  10.162   3.288   2.766 -1.4251 -1.5500 -0.5735
  823MOL0     H 8589  10.055   3.170   3.105 -1.0517  1.4227  2.2522
  823MOL0     H 8590   9.857   3.053   3.226  0.8342  1.6562  0.2286
  823MOL0     H 8591   9.801   2.945   3.094  2.1289  0.4001 -4.5780
  823MOL0     H 8592   9.597   3.070   3.045 -1.5626 -0.0833  1.6859
  823MOL0     H 8593   9.629   3.182   3.166 -1.7115  0.6619 -0.3725
  823MOL0     H 8594   9.637   2.908   3.262  1.8787  1.9498  0.8160
  823MOL0     H 8595   9.612   3.050   3.354 -1.4709 -2.5493  0.5965
  823MOL0     H 8596   9.401   2.926   3.312  0.5942  2.2099  2.0137
  823MOL0     H 8597   9.430   2.954   3.133  2.6726  1.9940 -1.2390
  823MOL0     H 8598   9.178   2.912   3.298  0.3623  0.6053  2.3217
  823MOL0     H 8599   8.933   2.962   3.338  1.3598 -1.9548  0.0292
  823MOL0     H 8600   8.592   3.006   3.541 -1.2948 -2.2860 -0.2656
  823MOL0     H 8601   8.334   3.041   3.558  0.1875  0.8567 -0.0880
  823MOL0     H 8602   8.100   3.046   3.299 -0.6207 -1.1233  0.4974
  823MOL0     H 8603   8.079   3.227   3.252 -2.4609 -0.6424 -0.6604
  823MOL0     H 8604   7.874   3.098   3.315 -2.3360  0.8235  1.5565
  823MOL0     H 8605   7.909   3.248   3.399  1.1313  0.1586  1.4555
  823MOL0     H 8606   7.944   3.120   3.612  1.6035  0.2990 -0.1607
  823MOL0     H 8607   8.009   2.989   3.518  1.6007  1.4482 -1.9569
  823MOL0     H 8608   7.796   2.905   3.433 -0.4777 -1.0110  0.5666
  823MOL0     H 8609   7.796   2.913   3.605  5.3798 -3.3215 -2.4394
  823MOL0     H 8610   7.685   3.144   3.432  0.8987  0.8271  1.0358
  823MOL0     H 8611   7.660   3.134   3.603 -1.1465 -0.9528  0.4055
  823MOL0     H 8612   7.540   2.914   3.578 -4.1654  0.5701  1.9488
  823MOL0     H 8613   7.565   2.925   3.403  0.0672 -1.2894  1.9401
  823MOL0     H 8614   7.331   2.995   3.471 -1.5444  1.3874 -1.3908
  823MOL0     H 8615   7.407   3.117   3.584 -0.2556  1.7932 -1.3531
  823MOL0     H 8616   7.412   3.107   3.279  1.0198 -0.1400 -0.6814
  823MOL0     H 8617   7.487   3.235   3.375 -0.3506  0.2339 -1.4689
  823MOL0     H 8618   8.334   3.304   3.234  0.0603 -0.6257 -2.3779
  823MOL0     H 8619   8.590   3.278   3.205  1.4912 -3.5949 -1.5889
  823MOL0     H 8620   9.016   3.376   3.338  2.7270  0.6823  1.2092
  823MOL0     H 8621   9.260   3.324   3.282 -1.0209  1.7377 -1.9921
  823MOL0     H 8622   9.654   3.355   3.348 -0.2252 -5.1103 -1.2418
  823MOL0     H 8623   9.428   3.347   3.450  0.5729 -0.0222 -0.8071
  823MOL0     H 8624   8.997   3.311   3.546 -1.0533  2.1319  0.1021
  823MOL0     H 8625   8.803   3.246   3.671 -0.3111 -1.5968  2.1159
  823MOL0     H 8626   8.602   3.150   3.949  0.3811  2.0644  1.6716
  823MOL0     H 8627   8.694   3.137   3.794 -0.6059 -1.1169  0.1948
  823MOL0     H 8628   8.607   3.413   3.787  0.6147  0.4459 -0.5414
  823MOL0     H 8629   8.503   3.281   3.744 -0.4562 -1.2111  0.4819
  823MOL0     H 8630   8.438   3.454   3.906 -0.0747  0.4067  0.9465
  823MOL0     H 8631   8.528   3.380   4.027  0.8751  2.6476 -1.0889
  823MOL0     H 8632   8.393   3.154   3.988  1.0308 -0.2858 -1.7501
  823MOL0     H 8633   8.286   3.288   4.038 -0.9140 -0.4115 -1.5388
  823MOL0     H 8634   8.131   3.203   3.672  0.4122  1.0555 -1.2351
  823MOL0     H 8635   8.999   3.351   4.040 -0.5510  1.3786 -0.5015
  823MOL0     H 8636   9.199   3.400   3.922  2.6563 -2.5453 -0.9180
  824MOL0     O 8637  10.254   4.986   7.235  0.1610 -0.0388  0.1407
  824MOL0     C 8638  10.282   5.093   7.293 -0.0634 -0.3026  0.1170
  824MOL0     O 8639  10.189   5.191   7.321  0.5569 -0.1044 -0.7121
  824MOL0     C 8640  10.055   5.142   7.298 -0.0256 -0.0562  0.1863
  824MOL0     C 8641   9.996   5.045   7.376  0.6033 -0.3898  0.2141
  824MOL0     C 8642   9.867   5.013   7.360  0.3503  0.1129 -0.5907
  824MOL0     C 8643   9.787   5.075   7.263 -0.4725 -0.4686  0.3514
  824MOL0     O 8644   9.662   5.033   7.232 -0.0019  0.2865 -0.2027
  824MOL0     C 8645   9.558   5.055   7.331 -0.4545 -0.4141  0.7419
  824MOL0     C 8646   9.450   4.973   7.276 -0.6439 -0.0140  0.1990
  824MOL0     C 8647   9.328   4.982   7.369  0.0499  0.3920 -0.9386
  824MOL0     C 8648   9.201   4.927   7.295 -0.2039 -0.2354  0.4621
  824MOL0     C 8649   9.077   4.941   7.384 -0.8388  0.2177  0.5486
  824MOL0     C 8650   9.087   4.850   7.509  0.2554 -0.1981  0.0742
  824MOL0     C 8651   8.943   4.833   7.547  1.3592  0.2488 -0.4368
  824MOL0     C 8652   8.876   4.957   7.619 -0.0002  0.3737  1.0678
  824MOL0     N 8653   8.730   4.939   7.629  0.8474 -0.1979  0.1180
  824MOL0     C 8654   8.643   4.995   7.531  0.6905 -0.2181 -0.3813
  824MOL0     C 8655   8.514   4.978   7.588 -0.3478  0.0163  1.3186
  824MOL0     C 8656   8.394   5.043   7.529  0.5743 -0.5113  0.5385
  824MOL0     C 8657   8.263   4.978   7.568  0.1232 -0.1607  0.7534
  824MOL0     C 8658   8.227   5.031   7.704  0.2134  0.5476 -0.1551
  824MOL0     C 8659   8.096   4.966   7.758  0.2053 -0.4466  0.0648
  824MOL0     O 8660   7.981   5.007   7.671 -0.4019  0.3867 -0.5423
  824MOL0     C 8661   7.855   4.970   7.722 -0.4222 -0.8678 -0.3460
  824MOL0     C 8662   7.826   4.889   7.839 -0.6979 -0.0135  0.6287
  824MOL0     C 8663   7.689   4.887   7.880  0.3067  0.4576 -0.0929
  824MOL0     C 8664   7.585   4.939   7.802 -0.2910  0.4206  0.4777
  824MOL0     C 8665   7.449   4.913   7.838  0.2067  0.4102  0.1492
  824MOL0     O 8666   7.357   4.984   7.761 -0.4136  0.4944 -0.5890
  824MOL0     C 8667   7.231   4.929   7.770  0.9254 -0.3523 -0.1626
  824MOL0     C 8668   7.184   4.838   7.674 -0.0198  0.0951 -0.1056
  824MOL0     C 8669   7.051   4.788   7.686 -0.1036 -0.2103  0.0881
  824MOL0     C 8670   6.964   4.830   7.782 -0.4050 -0.3634  0.3545
  824MOL0     O 8671   6.836   4.783   7.774  0.3973 -0.0299 -0.4028
  824MOL0     C 8672   6.712   4.855   7.769 -0.8731  0.4208  0.3411
  824MOL0     C 8673   6.653   4.845   7.913 -1.4245  0.6616 -1.0625
  824MOL0     C 8674   6.598   4.695   7.942  0.0885  0.6658  0.3148
  824MOL0     C 8675   6.445   4.694   7.909 -0.3484  0.1416 -0.1079
  824MOL0     C 8676   6.391   4.561   7.969  0.3992  0.4992 -1.0033
  824MOL0     C 8677   6.258   4.521   7.908 -0.2603 -0.0388 -0.5694
  824MOL0     C 8678   6.230   4.376   7.940 -0.0528  0.2520  0.3151
  824MOL0     C 8679   6.084   4.375   7.967  0.2618 -0.6126 -0.4223
  824MOL0    Cl 8680   5.997   4.466   7.845 -0.0168 -0.1350  0.1782
  824MOL0     C 8681   7.004   4.935   7.859  0.4864 -0.4637  1.0850
  824MOL0     C 8682   7.137   4.979   7.859  0.2474 -0.5158 -0.2200
  824MOL0     O 8683   7.420   4.828   7.925  0.5522 -0.3458  0.5472
  824MOL0     C 8684   7.616   5.019   7.690  0.3869  1.1633 -0.5757
  824MOL0     C 8685   7.749   5.030   7.647 -1.3252 -0.7423 -0.9321
  824MOL0     N 8686   8.531   4.904   7.702  0.1194 -0.1491  0.0128
  824MOL0     N 8687   8.657   4.883   7.735 -0.2165  0.0749  0.3356
  824MOL0     C 8688   9.846   5.160   7.177  0.4634  0.0931 -0.6092
  824MOL0     C 8689   9.985   5.194   7.193  0.1214  0.0699  0.7803
  824MOL0     C 8690  10.421   5.123   7.347  0.2286  0.4042 -0.8645
  824MOL0     C 8691  10.527   5.049   7.318  0.3991  0.2126  0.2756
  824MOL0     C 8692  10.653   5.060   7.385  0.5536 -0.3822  0.4711
  824MOL0     C 8693  10.666   5.161   7.486 -0.1369  0.2983 -0.2591
  824MOL0     O 8694  10.786   5.158   7.550  0.0542 -0.1092 -0.3281
  824MOL0     C 8695  10.798   5.229   7.672  0.7615  0.6455 -0.0766
  824MOL0     C 8696  10.939   5.222   7.720  0.7134  0.6673  0.8259
  824MOL0     C 8697  10.956   5.301   7.853 -0.3091  0.6806 -0.1935
  824MOL0     C 8698  11.095   5.241   7.903 -0.4748 -0.5240 -0.2275
  824MOL0     C 8699  11.147   5.334   8.009  0.9292  0.5926  0.2594
  824MOL0     C 8700  11.204   5.408   8.086 -0.9366  0.6907  0.0449
  824MOL0     C 8701  10.556   5.238   7.517  0.1172  0.1027  0.3479
  824MOL0     C 8702  10.439   5.217   7.452  0.5838 -0.2350 -0.5034
  824MOL0     H 8703  10.051   5.007   7.461  3.3347 -0.7799 -1.6054
  824MOL0     H 8704   9.824   4.939   7.427  1.9196  0.2202  0.5878
  824MOL0     H 8705   9.527   5.160   7.333 -1.1448 -0.6087  0.4601
  824MOL0     H 8706   9.582   5.030   7.435  1.8437  0.0871  0.3855
  824MOL0     H 8707   9.479   4.868   7.282 -2.1252 -0.5912 -1.7627
  824MOL0     H 8708   9.420   4.990   7.172  2.0920 -1.6375 -0.9859
  824MOL0     H 8709   9.300   5.082   7.402 -4.2832 -1.7582  3.0828
  824MOL0     H 8710   9.344   4.934   7.467 -1.9416 -1.8773 -1.6314
  824MOL0     H 8711   9.180   4.985   7.204 -1.6535 -0.0714  0.8751
  824MOL0     H 8712   9.220   4.826   7.257 -1.3567 -0.4559  0.4531
  824MOL0     H 8713   8.989   4.912   7.326  0.0525 -2.6652  0.4452
  824MOL0     H 8714   9.068   5.042   7.423 -1.7951 -0.7923  3.1665
  824MOL0     H 8715   9.161   4.898   7.573  0.4075  0.4682 -0.5959
  824MOL0     H 8716   9.124   4.751   7.481  0.1372 -0.1505 -0.2529
  824MOL0     H 8717   8.884   4.791   7.466  0.8014 -3.4017  1.6481
  824MOL0     H 8718   8.951   4.757   7.625 -1.3945  2.7033  2.5310
  824MOL0     H 8719   8.899   5.042   7.555 -2.3402  0.6511  0.4809
  824MOL0     H 8720   8.916   4.972   7.720 -0.9731  1.3655  1.3184
  824MOL0     H 8721   8.664   5.061   7.447  6.1516  0.7311  1.3801
  824MOL0     H 8722   8.404   5.033   7.421 -1.9621  1.4122  0.0013
  824MOL0     H 8723   8.395   5.152   7.543  0.0910 -0.5662  1.0708
  824MOL0     H 8724   8.278   4.869   7.573 -2.6112 -0.5702  2.3889
  824MOL0     H 8725   8.177   4.990   7.501  1.5770  1.1025 -0.9931
  824MOL0     H 8726   8.306   5.009   7.778  0.2818 -0.8175 -0.6047
  824MOL0     H 8727   8.211   5.139   7.704 -0.7867  0.4091 -0.5752
  824MOL0     H 8728   8.081   5.009   7.858 -0.1568 -0.5384  0.0523
  824MOL0     H 8729   8.103   4.857   7.767 -0.1627 -0.3836  1.2750
  824MOL0     H 8730   7.904   4.851   7.904 -0.7022  1.1649  1.3649
  824MOL0     H 8731   7.665   4.833   7.971  0.6958  0.3504 -0.0516
  824MOL0     H 8732   7.248   4.799   7.596 -2.0814 -1.5405 -1.0611
  824MOL0     H 8733   7.018   4.707   7.622  0.8612 -1.3326  0.9555
  824MOL0     H 8734   6.650   4.819   7.686 -0.4541  0.0782  0.1736
  824MOL0     H 8735   6.732   4.959   7.740 -2.7456  0.7243  0.0040
  824MOL0     H 8736   6.592   4.933   7.930 -0.8712  0.8184  0.2941
  824MOL0     H 8737   6.737   4.864   7.981 -2.9299  0.7558  0.8620
  824MOL0     H 8738   6.615   4.684   8.049  2.3471 -1.5131 -0.1689
  824MOL0     H 8739   6.649   4.608   7.899 -2.5133 -0.0940 -1.4800
  824MOL0     H 8740   6.384   4.780   7.937  0.6638  1.8743 -2.7690
  824MOL0     H 8741   6.438   4.694   7.799 -3.2174  1.4678 -0.0249
  824MOL0     H 8742   6.391   4.565   8.078  0.8049 -1.2318 -0.9157
  824MOL0     H 8743   6.459   4.478   7.947  1.0619 -0.0540  2.6268
  824MOL0     H 8744   6.266   4.531   7.800 -0.7055 -3.0801 -0.9921
  824MOL0     H 8745   6.179   4.587   7.946 -1.2477 -1.1155 -0.6607
  824MOL0     H 8746   6.238   4.307   7.856 -0.9610 -1.6633  1.7255
  824MOL0     H 8747   6.289   4.340   8.025  0.4368 -2.7595 -1.1574
  824MOL0     H 8748   6.068   4.403   8.071  2.2763  0.2581 -0.3008
  824MOL0     H 8749   6.047   4.273   7.951 -1.3749 -0.3157  1.2204
  824MOL0     H 8750   6.929   4.970   7.930  0.5042 -0.0059  0.8805
  824MOL0     H 8751   7.170   5.074   7.899  2.2615 -1.3721  0.2678
  824MOL0     H 8752   7.536   5.053   7.625  1.1939  1.0548 -1.6539
  824MOL0     H 8753   7.760   5.098   7.563 -0.1805  1.7332  1.0523
  824MOL0     H 8754   9.797   5.189   7.084  0.5532  0.6276 -0.4980
  824MOL0     H 8755  10.035   5.269   7.134  0.7182 -0.1371  1.0115
  824MOL0     H 8756  10.531   4.982   7.233 -1.2280 -0.7959  0.9363
  824MOL0     H 8757  10.729   4.995   7.343 -0.2827 -0.6457 -0.6819
  824MOL0     H 8758  10.735   5.185   7.750  1.3632  0.0061  0.0611
  824MOL0     H 8759  10.776   5.335   7.660  0.8357  1.0307  2.4633
  824MOL0     H 8760  10.962   5.116   7.735 -0.8406  0.3717  1.3337
  824MOL0     H 8761  10.993   5.276   7.641  0.0729 -0.3758 -0.3741
  824MOL0     H 8762  10.873   5.287   7.923 -2.3946 -1.5370 -2.9132
  824MOL0     H 8763  10.964   5.409   7.835 -2.4163  0.8115 -0.6860
  824MOL0     H 8764  11.077   5.143   7.949  0.4182 -0.6862 -0.2210
  824MOL0     H 8765  11.169   5.234   7.823  4.5546 -0.5107  3.9201
  824MOL0     H 8766  11.242   5.479   8.156 -3.7991  0.2707  2.2065
  824MOL0     H 8767  10.560   5.315   7.594 -1.6178 -0.1360  0.7397
  824MOL0     H 8768  10.350   5.270   7.485  1.5239  1.5696 -0.7633
  825MOL0     O 8769   8.623   2.392   1.131  0.6801 -0.4777  1.5259
  825MOL0     C 8770   8.682   2.295   1.162  0.1984  0.2600  0.2634
  825MOL0     O 8771   8.638   2.187   1.235 -0.1559 -0.1863  0.3887
  825MOL0     C 8772   8.500   2.166   1.244 -0.4577 -0.1975 -0.2131
  825MOL0     C 8773   8.456   2.037   1.214  0.5180  0.7990 -0.3688
  825MOL0     C 8774   8.323   2.005   1.221  0.3495 -1.2451 -0.2856
  825MOL0     C 8775   8.221   2.101   1.257  1.0988 -0.6358 -0.2193
  825MOL0     O 8776   8.088   2.095   1.243  0.0277  0.2369  0.1138
  825MOL0     C 8777   8.017   1.974   1.249  0.3563  0.0793  0.0448
  825MOL0     C 8778   7.869   2.009   1.252  0.8481 -0.5533  0.4901
  825MOL0     C 8779   7.839   2.069   1.386  0.0603  0.4000  0.1255
  825MOL0     C 8780   7.707   2.149   1.374 -0.7948 -0.1925  0.3804
  825MOL0     C 8781   7.642   2.176   1.503  0.1344  0.1420  0.2120
  825MOL0     C 8782   7.573   2.053   1.563 -0.3133  0.1016  0.0869
  825MOL0     C 8783   7.539   2.088   1.705 -0.6626  0.8090 -0.1149
  825MOL0     C 8784   7.443   2.202   1.718  0.2368 -0.4679  0.7514
  825MOL0     N 8785   7.376   2.207   1.848 -0.2470 -0.7151 -0.7291
  825MOL0     C 8786   7.247   2.235   1.870  0.3020  0.1874 -0.3821
  825MOL0     C 8787   7.218   2.209   2.004 -0.3359  1.3508 -0.2706
  825MOL0     C 8788   7.090   2.193   2.067 -0.2388  0.6398 -0.2541
  825MOL0     C 8789   7.013   2.318   2.040 -0.6358 -0.5465 -0.1597
  825MOL0     C 8790   7.088   2.451   2.085  0.0967 -0.0375 -0.5337
  825MOL0     C 8791   6.991   2.566   2.074  0.0546  0.1188 -0.7971
  825MOL0     O 8792   6.904   2.551   2.185 -0.1815  0.0421  0.2264
  825MOL0     C 8793   6.799   2.632   2.191  1.4237 -0.6659 -0.5160
  825MOL0     C 8794   6.771   2.741   2.104 -0.1935  1.3562 -0.8021
  825MOL0     C 8795   6.669   2.833   2.137 -0.0451  0.2747 -0.3980
  825MOL0     C 8796   6.603   2.824   2.265  0.4142  0.8115 -0.0235
  825MOL0     C 8797   6.501   2.924   2.303 -0.6450 -0.6718  0.2751
  825MOL0     O 8798   6.483   2.928   2.437 -0.2498 -0.6278 -0.3011
  825MOL0     C 8799   6.396   3.016   2.496 -0.7322  0.1332 -0.1706
  825MOL0     C 8800   6.261   3.007   2.495 -0.0801  0.0021  0.5142
  825MOL0     C 8801   6.188   3.099   2.569 -0.2554 -0.4725  0.3795
  825MOL0     C 8802   6.248   3.201   2.645 -0.3946  0.6581  0.5458
  825MOL0     O 8803   6.176   3.288   2.730  0.7594  0.1897  0.1669
  825MOL0     C 8804   6.191   3.426   2.698  0.7574  0.7266 -0.3713
  825MOL0     C 8805   6.105   3.507   2.798 -0.1615 -0.7614 -0.2304
  825MOL0     C 8806   6.125   3.659   2.778 -0.0131  0.4496  0.5276
  825MOL0     C 8807   6.048   3.733   2.889  0.0963 -0.5847  0.1663
  825MOL0     C 8808   5.895   3.725   2.883 -0.2188 -0.5866  0.5116
  825MOL0     C 8809   5.839   3.818   2.988 -0.3381  0.4977 -0.0545
  825MOL0     C 8810   5.697   3.869   2.973  0.0709  0.0717  0.2691
  825MOL0     C 8811   5.593   3.749   2.993  0.3282 -0.1269 -0.2158
  825MOL0    Cl 8812   5.574   3.716   3.168 -0.3371  0.0836 -0.1371
  825MOL0     C 8813   6.393   3.213   2.639  0.4511 -0.1299  0.3054
  825MOL0     C 8814   6.469   3.115   2.567 -0.1760  1.2681 -0.2128
  825MOL0     O 8815   6.439   2.985   2.220  0.1569  0.3632  1.0335
  825MOL0     C 8816   6.628   2.717   2.347 -0.1502 -0.2836 -0.4838
  825MOL0     C 8817   6.725   2.627   2.308  0.4725  0.2107  0.4160
  825MOL0     N 8818   7.346   2.189   2.061  0.2726  0.2622  0.5406
  825MOL0     N 8819   7.434   2.189   1.973  0.3444 -0.3956  0.2856
  825MOL0     C 8820   8.264   2.223   1.311  0.7223  0.2369 -0.4597
  825MOL0     C 8821   8.403   2.258   1.305 -1.0227  0.0767 -0.1739
  825MOL0     C 8822   8.824   2.310   1.135 -0.1194  0.7013  0.1671
  825MOL0     C 8823   8.881   2.438   1.087  0.4014  0.3233 -0.5627
  825MOL0     C 8824   9.017   2.456   1.063  0.2069 -0.8494  0.3309
  825MOL0     C 8825   9.101   2.347   1.088  0.1387 -0.9992 -0.2479
  825MOL0     O 8826   9.236   2.338   1.066  0.1357  0.5602  0.3183
  825MOL0     C 8827   9.296   2.463   1.030 -0.5859 -0.6658 -0.4846
  825MOL0     C 8828   9.447   2.437   1.001 -0.1262 -0.5979 -0.7478
  825MOL0     C 8829   9.459   2.330   0.890  0.4478 -1.1692  0.1872
  825MOL0     C 8830   9.608   2.308   0.858  1.5358 -0.1651  0.1826
  825MOL0     C 8831   9.620   2.203   0.755  0.2407  0.7943 -0.7358
  825MOL0     C 8832   9.644   2.114   0.676  0.7709  0.0900 -0.5102
  825MOL0     C 8833   9.055   2.230   1.144  0.6338  0.3369  0.7410
  825MOL0     C 8834   8.916   2.208   1.168 -0.2859 -0.0982  0.1887
  825MOL0     H 8835   8.522   1.953   1.194  0.2438  0.6980 -0.8684
  825MOL0     H 8836   8.283   1.913   1.178 -4.2841  1.3543 -2.2985
  825MOL0     H 8837   8.026   1.916   1.341  0.9874  0.3601  0.1680
  825MOL0     H 8838   8.040   1.922   1.155  0.8931  1.4960 -0.6463
  825MOL0     H 8839   7.813   1.915   1.244 -1.8458  0.9834  0.1885
  825MOL0     H 8840   7.841   2.065   1.163 -2.1659 -4.6419 -1.4394
  825MOL0     H 8841   7.920   2.138   1.412  1.5089 -1.4646  0.8423
  825MOL0     H 8842   7.836   1.992   1.464 -3.0197 -0.7487 -0.9458
  825MOL0     H 8843   7.724   2.236   1.311 -5.0288 -1.0254 -2.3433
  825MOL0     H 8844   7.641   2.097   1.303 -0.3682  1.3792 -1.2465
  825MOL0     H 8845   7.562   2.250   1.500 -0.9375 -0.7979  2.7614
  825MOL0     H 8846   7.719   2.222   1.566 -0.9902  1.0822  0.9421
  825MOL0     H 8847   7.650   1.975   1.558 -0.5712 -0.0893 -1.5122
  825MOL0     H 8848   7.480   2.032   1.509 -0.7400 -0.6093  1.0667
  825MOL0     H 8849   7.496   2.002   1.757  0.3731 -0.0518 -0.6606
  825MOL0     H 8850   7.632   2.123   1.749  0.7732  1.6227 -3.4627
  825MOL0     H 8851   7.374   2.186   1.634 -0.1149 -0.1918  0.9822
  825MOL0     H 8852   7.500   2.295   1.713  1.4790 -0.9971  3.2977
  825MOL0     H 8853   7.168   2.269   1.804 -0.8986  1.6345  1.6887
  825MOL0     H 8854   7.100   2.166   2.173 -2.2008  1.1170  0.0854
  825MOL0     H 8855   7.038   2.112   2.016 -3.6385  1.9359  0.8595
  825MOL0     H 8856   6.913   2.313   2.083 -0.8092 -3.3174 -0.7056
  825MOL0     H 8857   7.008   2.327   1.931  0.7269 -2.4658 -0.4248
  825MOL0     H 8858   7.127   2.447   2.187  0.2727  2.4983 -0.4383
  825MOL0     H 8859   7.170   2.479   2.018 -0.9648 -1.3648 -2.4735
  825MOL0     H 8860   6.948   2.553   1.974  0.5837 -1.0270 -0.8934
  825MOL0     H 8861   7.033   2.666   2.081 -3.6196  1.7296  1.0946
  825MOL0     H 8862   6.838   2.763   2.022  0.2474 -0.0130 -0.8348
  825MOL0     H 8863   6.652   2.896   2.050  1.2761  0.8764 -0.2514
  825MOL0     H 8864   6.213   2.934   2.430 -3.9465  0.0390  3.0434
  825MOL0     H 8865   6.082   3.079   2.563 -0.4001  0.1150  0.8475
  825MOL0     H 8866   6.150   3.435   2.597 -0.7121 -1.0181 -0.0044
  825MOL0     H 8867   6.297   3.454   2.695  0.5499  1.4357 -1.1825
  825MOL0     H 8868   6.148   3.494   2.898  0.2126  1.1077 -0.1176
  825MOL0     H 8869   5.999   3.479   2.803  0.5337 -3.4571  2.3890
  825MOL0     H 8870   6.071   3.696   2.691  0.8932  0.9644  0.1703
  825MOL0     H 8871   6.232   3.680   2.784  0.4808 -2.1216  2.5696
  825MOL0     H 8872   6.090   3.705   2.986  1.3160  1.7931  0.4138
  825MOL0     H 8873   6.070   3.838   2.866 -3.7168 -0.1179 -2.3315
  825MOL0     H 8874   5.854   3.625   2.897 -2.9329  0.6197  1.9924
  825MOL0     H 8875   5.856   3.765   2.789  0.6219 -0.2608  0.2899
  825MOL0     H 8876   5.887   3.916   2.990 -0.2122  0.4335  0.0704
  825MOL0     H 8877   5.858   3.776   3.088  3.0610 -2.1706 -1.6077
  825MOL0     H 8878   5.673   3.941   3.052  0.3109 -0.1728  0.5719
  825MOL0     H 8879   5.687   3.899   2.869 -1.4203 -1.9819 -0.2348
  825MOL0     H 8880   5.618   3.657   2.940 -2.8527 -0.5464 -1.2383
  825MOL0     H 8881   5.493   3.779   2.958  0.0644  2.0641  2.1337
  825MOL0     H 8882   6.444   3.292   2.693  1.6333 -0.2983 -0.5257
  825MOL0     H 8883   6.577   3.123   2.564 -0.0110  2.5566  3.4656
  825MOL0     H 8884   6.570   2.689   2.435 -0.4958 -1.0923 -0.9591
  825MOL0     H 8885   6.752   2.547   2.376 -3.6741 -0.9991  0.8718
  825MOL0     H 8886   8.188   2.294   1.343 -2.1946 -0.6364 -4.5646
  825MOL0     H 8887   8.432   2.345   1.363 -0.7503 -0.2653  0.2160
  825MOL0     H 8888   8.820   2.527   1.081  1.3695  1.4467  3.4685
  825MOL0     H 8889   9.051   2.555   1.033 -3.2540  0.4392  0.2171
  825MOL0     H 8890   9.287   2.538   1.109  0.9113 -0.1060 -0.8126
  825MOL0     H 8891   9.248   2.499   0.938 -0.0925 -0.8013 -0.7979
  825MOL0     H 8892   9.507   2.528   1.001 -2.5472  1.3286  4.0318
  825MOL0     H 8893   9.491   2.394   1.091  0.4133 -0.1057 -0.7691
  825MOL0     H 8894   9.402   2.362   0.803  1.3487  0.7847  0.2630
  825MOL0     H 8895   9.410   2.236   0.916  0.4938 -2.0170 -2.5541
  825MOL0     H 8896   9.643   2.401   0.811  1.3404  0.3351  1.0193
  825MOL0     H 8897   9.668   2.285   0.946  0.1305  1.1901  1.5395
  825MOL0     H 8898   9.644   2.028   0.611 -1.4916 -0.2944 -0.0766
  825MOL0     H 8899   9.113   2.143   1.173 -1.9688 -2.0470 -0.6907
  825MOL0     H 8900   8.884   2.114   1.211 -4.5958  1.0438 -0.0881
  826MOL0     O 8901   2.060   9.074  10.389  1.1199 -0.0619 -0.2092
  826MOL0     C 8902   2.119   9.071  10.281  0.8429 -0.0210 -0.3713
  826MOL0     O 8903   2.075   9.098  10.161  0.3234 -0.1229 -0.5398
  826MOL0     C 8904   1.940   9.136  10.145 -0.2854 -0.4611  0.5065
  826MOL0     C 8905   1.840   9.047  10.185  0.4855  0.7361  0.7488
  826MOL0     C 8906   1.710   9.077  10.144 -0.2327 -0.4012 -0.7049
  826MOL0     C 8907   1.673   9.186  10.066  0.3625  0.2908 -0.0153
  826MOL0     O 8908   1.547   9.199  10.013  0.4143  0.3416  0.1157
  826MOL0     C 8909   1.547   9.219   9.869  0.5140  0.5934  0.0096
  826MOL0     C 8910   1.469   9.357   9.831 -0.2639  1.2225 -0.2738
  826MOL0     C 8911   1.326   9.356   9.886  0.3580 -0.3789  0.0371
  826MOL0     C 8912   1.256   9.493   9.876  0.5472  0.0893 -0.3207
  826MOL0     C 8913   1.099   9.476   9.902  0.4670  0.6493  0.4636
  826MOL0     C 8914   1.024   9.609   9.888 -0.7591 -0.4096 -0.1582
  826MOL0     C 8915   0.872   9.604   9.929 -0.0923 -0.2808  0.3441
  826MOL0     C 8916   0.836   9.568  10.077  0.6678 -0.7080 -0.3229
  826MOL0     N 8917   0.703   9.507  10.075 -1.5987 -0.4704  0.9148
  826MOL0     C 8918   0.588   9.576  10.091 -0.1334  0.9808 -0.4716
  826MOL0     C 8919   0.495   9.476  10.098 -0.9382 -0.1993 -0.1845
  826MOL0     C 8920   0.353   9.498  10.126  0.3707 -0.2058 -0.8524
  826MOL0     C 8921   0.265   9.531  10.018  0.8987  0.2244  0.7458
  826MOL0     C 8922   0.116   9.503  10.051 -0.2398  0.3189 -0.7958
  826MOL0     C 8923   0.020   9.552   9.940  0.1251  0.1624 -0.0514
  826MOL0     O 8924   0.039   9.697   9.947 -0.0164  0.7400  0.4920
  826MOL0     C 8925  -0.081   9.758   9.963 -0.1978  0.2770 -0.9767
  826MOL0     C 8926  -0.149   9.783   9.847  0.3976  0.3642  0.6750
  826MOL0     C 8927  -0.269   9.848   9.852  0.6280 -0.6926  0.0003
  826MOL0     C 8928  -0.334   9.861   9.977  0.2475 -0.1338  0.3952
  826MOL0     C 8929  -0.467   9.929   9.992  0.1094 -0.6165  0.0403
  826MOL0     O 8930  -0.535   9.908  10.111 -0.1170  0.3943  0.2539
  826MOL0     C 8931  -0.646   9.982  10.144 -0.1792 -0.2021 -1.1079
  826MOL0     C 8932  -0.759   9.998  10.059 -0.2030  0.0400  0.6950
  826MOL0     C 8933  -0.883  10.056  10.104 -0.1224  1.0146 -0.3026
  826MOL0     C 8934  -0.895  10.098  10.238  0.0024 -0.1867  0.8825
  826MOL0     O 8935  -1.003  10.146  10.302 -0.2614  0.6361 -0.0876
  826MOL0     C 8936  -1.128  10.141  10.227 -0.6541 -0.0221 -0.1721
  826MOL0     C 8937  -1.237  10.200  10.313 -0.5487  0.1544 -1.1994
  826MOL0     C 8938  -1.372  10.170  10.246 -0.9939  0.1625  0.5466
  826MOL0     C 8939  -1.489  10.186  10.337  0.3054  0.4577 -1.3647
  826MOL0     C 8940  -1.610  10.103  10.288 -0.6926  0.3784  0.2399
  826MOL0     C 8941  -1.728  10.106  10.377 -0.1061  0.1472 -0.6142
  826MOL0     C 8942  -1.802  10.235  10.354  0.0986  0.2536 -0.0895
  826MOL0     C 8943  -1.887  10.283  10.473  0.8356  0.0780  0.4402
  826MOL0    Cl 8944  -2.024  10.169  10.495  0.4428 -0.0976  0.5926
  826MOL0     C 8945  -0.780  10.079  10.317 -0.8246 -0.1634 -0.6296
  826MOL0     C 8946  -0.664  10.016  10.278 -0.0469 -0.5496  0.1128
  826MOL0     O 8947  -0.497  10.011   9.913 -0.3472  0.4651  0.0101
  826MOL0     C 8948  -0.277   9.809  10.094 -0.5265  0.5924 -0.3508
  826MOL0     C 8949  -0.148   9.752  10.088  0.6282  0.2182  1.0750
  826MOL0     N 8950   0.557   9.353  10.080  0.1550 -0.6019  0.3261
  826MOL0     N 8951   0.683   9.379  10.073  0.4807  0.5963  0.1128
  826MOL0     C 8952   1.773   9.281  10.038  0.6364 -0.5374 -0.4015
  826MOL0     C 8953   1.909   9.253  10.077  0.5390 -0.6496 -0.4337
  826MOL0     C 8954   2.258   9.026  10.288  0.4965  0.1599 -0.5506
  826MOL0     C 8955   2.327   8.980  10.167  1.1297 -0.0002 -0.0928
  826MOL0     C 8956   2.451   8.927  10.174  0.1446 -0.0105  0.1694
  826MOL0     C 8957   2.514   8.924  10.295 -0.4433 -0.5324  0.5366
  826MOL0     O 8958   2.650   8.880  10.309  0.3571  0.6507 -0.6566
  826MOL0     C 8959   2.731   8.846  10.200 -0.9034 -0.1768  0.5895
  826MOL0     C 8960   2.860   8.801  10.261  0.4041 -0.2045 -0.3736
  826MOL0     C 8961   2.936   8.925  10.304 -0.1447 -0.2607  0.1475
  826MOL0     C 8962   3.066   8.867  10.380 -0.9082  0.4709  0.0195
  826MOL0     C 8963   3.165   8.969  10.403 -0.4170  1.1474  0.3087
  826MOL0     C 8964   3.255   9.038  10.430  0.6585 -0.4318  0.0508
  826MOL0     C 8965   2.449   8.963  10.411  0.7907 -0.4237  0.2256
  826MOL0     C 8966   2.317   9.014  10.408 -0.3838  0.2435 -0.6092
  826MOL0     H 8967   1.868   8.955  10.237  3.3731  1.1485  0.0708
  826MOL0     H 8968   1.621   9.020  10.169  0.0973 -0.0300  1.6147
  826MOL0     H 8969   1.507   9.127   9.826  0.7246 -0.1151  1.2618
  826MOL0     H 8970   1.645   9.219   9.819  0.5797 -0.5336  0.1174
  826MOL0     H 8971   1.455   9.337   9.725 -1.0507 -1.3303  0.2527
  826MOL0     H 8972   1.529   9.447   9.850  0.5357  1.0952 -2.0473
  826MOL0     H 8973   1.340   9.346   9.994  5.0245  2.3799  0.0040
  826MOL0     H 8974   1.265   9.279   9.838  0.4028 -0.5489  0.2513
  826MOL0     H 8975   1.296   9.567   9.946  0.3944  0.5981 -0.7663
  826MOL0     H 8976   1.281   9.534   9.778 -0.6124  0.0948 -0.6222
  826MOL0     H 8977   1.083   9.429  10.000  0.2108 -1.2071 -0.4258
  826MOL0     H 8978   1.060   9.413   9.822  0.0177  2.3315 -0.7035
  826MOL0     H 8979   1.021   9.648   9.786 -0.5380 -3.7011 -1.5540
  826MOL0     H 8980   1.074   9.689   9.943 -1.1969  1.4501 -2.3045
  826MOL0     H 8981   0.839   9.705   9.902 -0.8934 -0.1518  1.6741
  826MOL0     H 8982   0.821   9.536   9.860  3.1500 -1.1402 -1.3990
  826MOL0     H 8983   0.833   9.652  10.148 -0.3920 -1.2978  0.3638
  826MOL0     H 8984   0.920   9.505  10.106  0.5407 -1.1668 -0.9231
  826MOL0     H 8985   0.564   9.682  10.098 -1.9844  0.6714 -1.4903
  826MOL0     H 8986   0.347   9.573  10.205 -0.0891  0.1368 -1.2049
  826MOL0     H 8987   0.314   9.412  10.180  1.6698  0.1293  0.7040
  826MOL0     H 8988   0.282   9.477   9.924 -0.2036  1.2036 -0.0417
  826MOL0     H 8989   0.283   9.635   9.988 -0.0977 -0.4665 -2.7419
  826MOL0     H 8990   0.101   9.396  10.068 -0.3116  0.2233 -1.4494
  826MOL0     H 8991   0.103   9.560  10.144  1.1378 -0.0321 -0.3620
  826MOL0     H 8992  -0.081   9.520   9.966 -0.5226  2.3289  0.3821
  826MOL0     H 8993   0.056   9.501   9.851  1.7213  0.0733  0.6170
  826MOL0     H 8994  -0.096   9.769   9.753 -0.1685 -1.4753  0.6020
  826MOL0     H 8995  -0.319   9.887   9.764  1.6779 -1.2783 -0.8810
  826MOL0     H 8996  -0.759   9.974   9.953 -3.9988  2.3252  0.0073
  826MOL0     H 8997  -0.970  10.073  10.042  0.3670  0.8256 -1.0533
  826MOL0     H 8998  -1.146  10.036  10.205 -1.3831 -0.5132  2.4343
  826MOL0     H 8999  -1.114  10.197  10.134  1.2768  1.5800  0.9947
  826MOL0     H 9000  -1.217  10.306  10.334 -0.5200 -0.4969  2.8648
  826MOL0     H 9001  -1.226  10.148  10.408  2.7036  1.0309 -0.9726
  826MOL0     H 9002  -1.365  10.072  10.197  1.0522  0.2737  0.5280
  826MOL0     H 9003  -1.384  10.237  10.160  0.8357 -1.5293 -1.1428
  826MOL0     H 9004  -1.451  10.136  10.426 -3.7315  2.4607  1.8342
  826MOL0     H 9005  -1.524  10.287  10.363  0.0039  0.3131 -1.1950
  826MOL0     H 9006  -1.571  10.003  10.267  2.5861  1.6238 -0.1582
  826MOL0     H 9007  -1.638  10.145  10.190  1.0495 -0.7148 -0.7752
  826MOL0     H 9008  -1.692  10.085  10.479  0.4538 -0.0193 -0.8430
  826MOL0     H 9009  -1.801  10.027  10.361 -1.8228  1.4126  0.5666
  826MOL0     H 9010  -1.737  10.319  10.325  1.8451  0.7585  4.4574
  826MOL0     H 9011  -1.870  10.208  10.273 -0.2453 -2.2411  0.9551
  826MOL0     H 9012  -1.934  10.375  10.437 -1.0962 -1.9648 -2.7670
  826MOL0     H 9013  -1.832  10.276  10.567  1.7192 -0.8882 -0.1379
  826MOL0     H 9014  -0.794  10.112  10.420 -2.6395  1.3402 -1.2965
  826MOL0     H 9015  -0.594   9.994  10.357 -1.1538 -0.4598  1.1428
  826MOL0     H 9016  -0.326   9.810  10.191 -0.3278  1.6343 -0.2481
  826MOL0     H 9017  -0.101   9.706  10.175 -0.5391  2.4693  3.0200
  826MOL0     H 9018   1.746   9.374   9.990 -0.6552  0.1205  1.4846
  826MOL0     H 9019   1.987   9.327  10.068 -0.9059  1.2161  1.3907
  826MOL0     H 9020   2.268   8.990  10.077  0.1205 -1.7380  0.3468
  826MOL0     H 9021   2.473   8.865  10.088 -2.2574 -0.4673 -0.1937
  826MOL0     H 9022   2.746   8.928  10.130  1.4877 -0.1122  1.1192
  826MOL0     H 9023   2.693   8.762  10.141  2.5418 -0.3468 -1.6234
  826MOL0     H 9024   2.838   8.742  10.350 -0.2149 -1.9323 -1.6300
  826MOL0     H 9025   2.912   8.748  10.181 -0.3117 -0.5355 -0.6327
  826MOL0     H 9026   2.862   8.991  10.351 -0.3386  0.5158 -1.1786
  826MOL0     H 9027   2.973   8.983  10.219 -1.8721  1.5400  0.5479
  826MOL0     H 9028   3.032   8.820  10.473  1.0555 -0.6827  0.2142
  826MOL0     H 9029   3.121   8.787  10.329  0.6148  1.6480 -0.2612
  826MOL0     H 9030   3.330   9.111  10.451 -0.0018 -0.2891  2.0357
  826MOL0     H 9031   2.496   8.960  10.508 -1.0572  0.5168  1.1936
  826MOL0     H 9032   2.282   9.052  10.503  0.3155  0.1102 -0.2894
  827MOL0     O 9033   4.395   4.437   1.020 -0.5801 -0.4724  0.2387
  827MOL0     C 9034   4.426   4.352   0.938  0.4849 -0.4255  0.6043
  827MOL0     O 9035   4.336   4.279   0.866 -0.2275 -0.8199  0.1974
  827MOL0     C 9036   4.204   4.299   0.875  0.1604 -1.1452 -0.7958
  827MOL0     C 9037   4.135   4.299   1.000  0.1007 -0.9739 -0.7771
  827MOL0     C 9038   3.996   4.312   1.005  1.0594  0.0532 -0.5006
  827MOL0     C 9039   3.926   4.339   0.885 -0.6210  0.3537  0.2195
  827MOL0     O 9040   3.789   4.347   0.895  0.9814 -0.3144  0.0193
  827MOL0     C 9041   3.705   4.314   0.790  0.1812  0.1588 -0.6014
  827MOL0     C 9042   3.563   4.274   0.832 -0.4726  0.2327 -0.1474
  827MOL0     C 9043   3.482   4.200   0.718 -1.0860 -0.3767  0.6688
  827MOL0     C 9044   3.337   4.165   0.752  0.0340 -0.3636  0.7079
  827MOL0     C 9045   3.319   4.063   0.861 -0.0624 -0.1862  0.5119
  827MOL0     C 9046   3.392   3.930   0.842 -0.1644 -0.8179 -0.2059
  827MOL0     C 9047   3.329   3.833   0.742  0.7299  0.2914 -0.0300
  827MOL0     C 9048   3.207   3.754   0.803 -0.0125 -0.5384  0.2742
  827MOL0     N 9049   3.237   3.611   0.794  0.1211  0.1636  0.3100
  827MOL0     C 9050   3.205   3.519   0.694  0.0447  0.6967 -0.4818
  827MOL0     C 9051   3.237   3.396   0.749 -0.0036 -0.9254  0.4921
  827MOL0     C 9052   3.257   3.256   0.679  0.4295 -1.2190 -0.3020
  827MOL0     C 9053   3.213   3.250   0.534 -0.5958  0.7609  0.3224
  827MOL0     C 9054   3.061   3.219   0.545  0.4370  0.2556  0.7489
  827MOL0     C 9055   3.017   3.149   0.410  0.0065  0.2283  0.4158
  827MOL0     O 9056   2.990   3.009   0.425  0.0082 -0.3107  0.4264
  827MOL0     C 9057   2.887   2.970   0.498 -0.1743 -0.0757 -0.2327
  827MOL0     C 9058   2.866   2.832   0.509 -1.2788  0.6095  0.1195
  827MOL0     C 9059   2.747   2.790   0.564  0.5093  0.2009  0.4894
  827MOL0     C 9060   2.657   2.878   0.622 -0.6756 -0.4891 -0.3209
  827MOL0     C 9061   2.540   2.827   0.699 -0.8378  0.7722 -0.1560
  827MOL0     O 9062   2.445   2.916   0.714  0.4766  0.0935 -0.1982
  827MOL0     C 9063   2.319   2.874   0.764 -0.5431  0.4379  0.3562
  827MOL0     C 9064   2.301   2.865   0.901  0.6331  0.6371  0.1346
  827MOL0     C 9065   2.179   2.827   0.956  0.9353 -0.3493 -1.3075
  827MOL0     C 9066   2.072   2.785   0.874  0.6959  0.2915  1.3100
  827MOL0     O 9067   1.964   2.723   0.918 -0.3173  0.1590 -0.1123
  827MOL0     C 9068   1.858   2.802   0.979  0.0565 -0.4102  0.2468
  827MOL0     C 9069   1.750   2.712   1.028 -0.7141 -0.8754  0.2096
  827MOL0     C 9070   1.627   2.776   1.089  0.1128 -0.7501  0.5705
  827MOL0     C 9071   1.514   2.667   1.097 -0.8732  0.3204 -0.2579
  827MOL0     C 9072   1.394   2.738   1.161  0.2936  0.2461 -0.4476
  827MOL0     C 9073   1.295   2.782   1.044 -0.1783  0.0281  0.1969
  827MOL0     C 9074   1.152   2.829   1.111  0.1544 -0.5356 -0.1311
  827MOL0     C 9075   1.044   2.880   1.015 -1.0306  0.3112  0.0229
  827MOL0    Cl 9076   0.987   2.734   0.929 -0.5327  0.3973 -0.1325
  827MOL0     C 9077   2.092   2.792   0.736  0.8593  0.0021  0.5889
  827MOL0     C 9078   2.211   2.841   0.684  0.2572 -0.8011 -0.4349
  827MOL0     O 9079   2.539   2.718   0.746 -0.7455  0.7732 -0.6961
  827MOL0     C 9080   2.672   3.011   0.611  0.1589 -0.4947 -0.3527
  827MOL0     C 9081   2.783   3.060   0.547  0.2488  0.4288  0.0797
  827MOL0     N 9082   3.285   3.413   0.877 -0.0088  0.0555 -0.2268
  827MOL0     N 9083   3.283   3.542   0.908  0.3392 -0.3695  0.0828
  827MOL0     C 9084   3.991   4.337   0.759 -0.6244 -0.5521 -0.1824
  827MOL0     C 9085   4.127   4.321   0.757 -0.4999 -0.8790 -0.7019
  827MOL0     C 9086   4.569   4.343   0.891  0.5334 -0.9500  0.0554
  827MOL0     C 9087   4.674   4.374   0.975  0.1425 -1.3314 -0.1479
  827MOL0     C 9088   4.810   4.363   0.944 -0.4497  0.1209  1.1314
  827MOL0     C 9089   4.844   4.316   0.815 -0.1990 -0.4326  0.4192
  827MOL0     O 9090   4.972   4.288   0.766  0.5235 -0.3161 -0.2043
  827MOL0     C 9091   5.088   4.317   0.852 -0.6793 -0.2368 -0.0852
  827MOL0     C 9092   5.215   4.280   0.788 -0.1536 -0.2280  0.6084
  827MOL0     C 9093   5.332   4.296   0.900 -1.1031 -0.2541  0.5191
  827MOL0     C 9094   5.462   4.251   0.837 -0.0855  0.2731 -0.8268
  827MOL0     C 9095   5.575   4.245   0.931 -0.4898 -0.6183  0.6249
  827MOL0     C 9096   5.685   4.265   0.990  0.4729 -0.3057  0.7867
  827MOL0     C 9097   4.744   4.302   0.722 -0.5911 -0.2260 -0.5974
  827MOL0     C 9098   4.608   4.302   0.755 -0.8444  0.3269 -0.6392
  827MOL0     H 9099   4.183   4.285   1.096 -2.4828  1.2370  0.9708
  827MOL0     H 9100   3.948   4.320   1.102  0.5485  0.4290 -0.7760
  827MOL0     H 9101   3.739   4.225   0.737 -1.4690  1.4552 -4.0980
  827MOL0     H 9102   3.700   4.387   0.709  0.0300 -0.9737 -1.6276
  827MOL0     H 9103   3.515   4.367   0.864 -0.2056  0.7090 -1.0898
  827MOL0     H 9104   3.562   4.209   0.920 -0.7605  1.2660  0.6449
  827MOL0     H 9105   3.536   4.113   0.680  0.7008  1.8355 -2.2971
  827MOL0     H 9106   3.482   4.268   0.632  2.2413 -1.0180  0.0496
  827MOL0     H 9107   3.287   4.257   0.782 -1.4974 -1.3995  1.4328
  827MOL0     H 9108   3.284   4.135   0.662  1.9979 -1.9784  0.0163
  827MOL0     H 9109   3.213   4.039   0.875  0.1833  0.3261  4.1990
  827MOL0     H 9110   3.348   4.114   0.953  0.3016 -0.7227  0.7038
  827MOL0     H 9111   3.397   3.885   0.942 -1.0725  0.6484  0.5377
  827MOL0     H 9112   3.488   3.968   0.807 -0.6926  1.1629  0.3859
  827MOL0     H 9113   3.285   3.876   0.651 -1.0131 -0.2209  0.5340
  827MOL0     H 9114   3.403   3.761   0.707 -0.0346 -0.7681  0.5059
  827MOL0     H 9115   3.125   3.769   0.733  0.8510 -0.0885 -0.6661
  827MOL0     H 9116   3.174   3.784   0.902 -1.4056  3.3939 -1.2097
  827MOL0     H 9117   3.179   3.546   0.593 -0.8786  4.3231  0.5762
  827MOL0     H 9118   3.214   3.173   0.735  1.9621 -1.5048  0.5150
  827MOL0     H 9119   3.366   3.248   0.685  0.2997 -2.3942  0.7711
  827MOL0     H 9120   3.258   3.156   0.499 -1.0406  1.2500 -1.7100
  827MOL0     H 9121   3.239   3.330   0.463 -1.4250 -0.5558 -1.5645
  827MOL0     H 9122   3.034   3.157   0.630 -2.1923  0.3932  0.0933
  827MOL0     H 9123   3.002   3.312   0.545 -1.4632 -0.7243 -3.3338
  827MOL0     H 9124   3.102   3.159   0.341  0.8331  0.9272  1.5046
  827MOL0     H 9125   2.927   3.201   0.378 -0.1660  1.1756  2.3430
  827MOL0     H 9126   2.929   2.754   0.469  0.8427  0.4706  3.3803
  827MOL0     H 9127   2.728   2.683   0.568 -1.8811  0.5953  3.2654
  827MOL0     H 9128   2.388   2.875   0.966 -0.2214  1.5253  1.1756
  827MOL0     H 9129   2.179   2.816   1.064 -0.0545  3.5150 -0.7621
  827MOL0     H 9130   1.826   2.883   0.913  1.3697 -0.5942 -0.6499
  827MOL0     H 9131   1.905   2.845   1.069 -1.4835 -2.1590  1.9698
  827MOL0     H 9132   1.811   2.648   1.093  2.4135  2.3953  0.8052
  827MOL0     H 9133   1.721   2.650   0.942  1.8231 -2.5228  0.4271
  827MOL0     H 9134   1.590   2.854   1.022 -3.9651 -0.8071  2.4611
  827MOL0     H 9135   1.650   2.826   1.183  0.9023 -0.3059  0.1583
  827MOL0     H 9136   1.487   2.636   0.995  0.5103  0.0332 -0.5514
  827MOL0     H 9137   1.550   2.587   1.162  1.2501  2.9075  1.9711
  827MOL0     H 9138   1.426   2.822   1.224  0.3843  0.6305 -1.0017
  827MOL0     H 9139   1.345   2.670   1.231  2.1954 -0.3974  0.3104
  827MOL0     H 9140   1.270   2.703   0.973  2.9231  1.3196 -2.5356
  827MOL0     H 9141   1.339   2.863   0.986 -0.1352  0.0225  0.2218
  827MOL0     H 9142   1.114   2.760   1.186 -0.0561 -1.0424 -0.7028
  827MOL0     H 9143   1.186   2.914   1.172  0.8878 -1.9341  1.5197
  827MOL0     H 9144   1.095   2.946   0.944  0.4837 -0.7781  0.0336
  827MOL0     H 9145   0.959   2.927   1.065 -1.9854 -1.3334  0.0264
  827MOL0     H 9146   2.008   2.770   0.671  1.1097 -0.3779  0.3884
  827MOL0     H 9147   2.225   2.854   0.577 -1.6871  1.3624 -0.4981
  827MOL0     H 9148   2.610   3.087   0.658 -0.4142 -1.9112  1.3003
  827MOL0     H 9149   2.792   3.168   0.549 -1.6849  0.6309 -0.1437
  827MOL0     H 9150   3.941   4.361   0.666 -1.1267 -1.9278 -0.2916
  827MOL0     H 9151   4.176   4.312   0.661  0.5378 -1.0288 -0.1695
  827MOL0     H 9152   4.653   4.413   1.074 -2.1726  0.8574 -1.3712
  827MOL0     H 9153   4.889   4.368   1.018 -0.3643 -1.8879  1.2314
  827MOL0     H 9154   5.075   4.269   0.949 -1.0515  0.0036 -0.0157
  827MOL0     H 9155   5.088   4.425   0.871 -2.4950  0.1932 -2.1402
  827MOL0     H 9156   5.206   4.176   0.755 -0.0441 -0.7854  2.2259
  827MOL0     H 9157   5.226   4.352   0.706  0.3751 -0.0472  0.8298
  827MOL0     H 9158   5.314   4.237   0.990 -0.7889 -0.6953  0.2987
  827MOL0     H 9159   5.350   4.400   0.929  1.4082 -0.5749  0.3580
  827MOL0     H 9160   5.455   4.152   0.792  1.6243 -0.1376 -0.2633
  827MOL0     H 9161   5.479   4.322   0.755  0.1677 -0.3621 -1.3373
  827MOL0     H 9162   5.778   4.289   1.037  2.0171  0.9051 -2.5593
  827MOL0     H 9163   4.778   4.277   0.621 -1.8864 -0.8413 -0.8967
  827MOL0     H 9164   4.526   4.285   0.686 -1.2780  1.7080 -0.4924
  828MOL0     O 9165  10.765   4.251   6.937 -0.0343 -0.1332  0.5109
  828MOL0     C 9166  10.845   4.240   7.029  0.4494 -0.0341 -0.2435
  828MOL0     O 9167  10.812   4.214   7.152 -0.1955 -0.3671  0.1739
  828MOL0     C 9168  10.686   4.160   7.168  0.3697 -0.6786  0.9759
  828MOL0     C 9169  10.576   4.239   7.198  0.1259 -0.2636  0.1182
  828MOL0     C 9170  10.449   4.185   7.221  0.3654  0.2870 -0.6726
  828MOL0     C 9171  10.437   4.047   7.229 -0.6148 -0.0363 -0.1971
  828MOL0     O 9172  10.323   3.980   7.254 -0.0808 -0.2641 -0.6073
  828MOL0     C 9173  10.205   4.057   7.280  0.3899 -0.2674  0.1644
  828MOL0     C 9174  10.087   3.957   7.246  0.5834 -0.2890 -0.1315
  828MOL0     C 9175   9.953   4.019   7.266 -0.4317 -0.6573  0.4999
  828MOL0     C 9176   9.847   3.922   7.224 -0.5128 -0.4178 -1.1559
  828MOL0     C 9177   9.716   3.981   7.171 -0.1844  0.8707  0.6882
  828MOL0     C 9178   9.615   3.867   7.165  0.2287 -0.3607  0.5930
  828MOL0     C 9179   9.539   3.833   7.289  0.0287  0.0469 -0.2971
  828MOL0     C 9180   9.458   3.960   7.341 -0.6471  0.1385 -0.9351
  828MOL0     N 9181   9.355   3.910   7.435 -0.0340  0.2873 -0.1329
  828MOL0     C 9182   9.380   3.872   7.567  0.3251  0.8050 -0.1426
  828MOL0     C 9183   9.266   3.826   7.612 -0.7767 -0.3955 -0.0310
  828MOL0     C 9184   9.223   3.790   7.755  0.4017 -0.0595 -0.9281
  828MOL0     C 9185   9.188   3.922   7.822  0.4077  0.3064 -1.0275
  828MOL0     C 9186   9.154   3.907   7.980  0.4856 -0.0413  0.1940
  828MOL0     C 9187   9.016   3.857   8.016 -0.3628 -0.3049  0.9241
  828MOL0     O 9188   8.985   3.852   8.163 -0.5081  0.0177  0.4114
  828MOL0     C 9189   8.854   3.823   8.200 -0.1473  0.4427 -0.5272
  828MOL0     C 9190   8.833   3.857   8.332  0.7503  0.1459 -0.9305
  828MOL0     C 9191   8.705   3.859   8.391 -0.0106 -0.2510  0.6075
  828MOL0     C 9192   8.595   3.808   8.315  0.3081  0.1914  1.4689
  828MOL0     C 9193   8.466   3.793   8.382  0.3275  0.1105 -0.7815
  828MOL0     O 9194   8.444   3.825   8.509 -0.7798 -0.5412 -0.6831
  828MOL0     C 9195   8.316   3.855   8.552 -0.6680  0.1329  0.0766
  828MOL0     C 9196   8.212   3.761   8.558 -0.0314 -0.3955  1.2358
  828MOL0     C 9197   8.086   3.794   8.600 -0.1582 -0.3270 -0.1743
  828MOL0     C 9198   8.062   3.923   8.656 -0.8083 -0.2711  0.5636
  828MOL0     O 9199   7.943   3.950   8.709 -0.3674 -0.0002  0.1708
  828MOL0     C 9200   7.821   3.919   8.639  0.2277 -0.4149 -0.3887
  828MOL0     C 9201   7.707   3.963   8.727  0.4608 -0.0265 -0.6338
  828MOL0     C 9202   7.580   3.971   8.640  0.7373 -0.1409  0.2487
  828MOL0     C 9203   7.527   3.834   8.598 -0.3462 -0.7013 -0.3898
  828MOL0     C 9204   7.382   3.851   8.562 -0.6447  0.4206 -0.0128
  828MOL0     C 9205   7.325   3.709   8.527 -0.2796 -0.0711  0.0509
  828MOL0     C 9206   7.171   3.719   8.509  0.7535 -0.5777  0.3965
  828MOL0     C 9207   7.116   3.586   8.469 -0.1263  1.1546 -0.4267
  828MOL0    Cl 9208   7.190   3.531   8.313 -0.0444 -0.3721 -0.3464
  828MOL0     C 9209   8.162   4.015   8.645  0.3552 -0.1931  0.0160
  828MOL0     C 9210   8.285   3.985   8.597  1.5975 -0.7842  0.3391
  828MOL0     O 9211   8.377   3.745   8.314  0.6250 -0.3152  0.1953
  828MOL0     C 9212   8.622   3.769   8.175  0.9024  0.3143  0.6014
  828MOL0     C 9213   8.744   3.776   8.120 -0.5103 -0.0604  1.1326
  828MOL0     N 9214   9.169   3.848   7.512  0.0424 -1.0870 -1.2979
  828MOL0     N 9215   9.224   3.886   7.406 -0.1099 -0.0566 -0.1296
  828MOL0     C 9216  10.554   3.973   7.202  0.2226 -0.1255  0.5762
  828MOL0     C 9217  10.676   4.021   7.158  0.7107 -0.3674  0.7047
  828MOL0     C 9218  10.988   4.248   6.995 -0.0498 -0.0245 -0.5941
  828MOL0     C 9219  11.090   4.217   7.085 -0.1391  0.2927 -0.0399
  828MOL0     C 9220  11.224   4.239   7.052 -0.3599  0.8141 -0.1523
  828MOL0     C 9221  11.257   4.266   6.920 -0.4825 -0.3347  0.2417
  828MOL0     O 9222  11.388   4.289   6.878  0.7148  0.1086  0.6555
  828MOL0     C 9223  11.501   4.281   6.964 -0.5349  0.1553 -0.3704
  828MOL0     C 9224  11.625   4.301   6.872 -0.2192 -0.2319  0.3359
  828MOL0     C 9225  11.753   4.286   6.945 -0.9964  0.0778  0.1778
  828MOL0     C 9226  11.866   4.339   6.855  0.0046  0.8536  0.0419
  828MOL0     C 9227  11.993   4.305   6.927  0.0714 -0.6926  0.5056
  828MOL0     C 9228  12.092   4.296   6.997  0.4904 -0.9240 -0.7533
  828MOL0     C 9229  11.156   4.272   6.822  0.6957  0.6668 -0.3092
  828MOL0     C 9230  11.023   4.266   6.858  0.3663  0.4976  0.1100
  828MOL0     H 9231  10.587   4.347   7.191  2.1841 -0.4354  0.2892
  828MOL0     H 9232  10.369   4.257   7.232  0.0413 -0.2788  0.8286
  828MOL0     H 9233  10.195   4.148   7.221 -1.4646  2.2910  3.9407
  828MOL0     H 9234  10.205   4.086   7.386  2.6907  0.4768  0.0094
  828MOL0     H 9235  10.099   3.868   7.308  0.2567  0.2377  0.7016
  828MOL0     H 9236  10.098   3.911   7.148  0.5998 -2.6461  0.9147
  828MOL0     H 9237   9.944   4.108   7.202  0.1395 -0.2074  1.0299
  828MOL0     H 9238   9.932   4.045   7.370  0.5478 -2.6239  1.2246
  828MOL0     H 9239   9.890   3.846   7.159  0.4172 -2.8417  2.0289
  828MOL0     H 9240   9.826   3.869   7.318 -0.9468 -1.7447 -1.9765
  828MOL0     H 9241   9.733   4.038   7.079 -0.2272  0.6182  0.5225
  828MOL0     H 9242   9.676   4.052   7.244  2.9112 -0.4251  3.9403
  828MOL0     H 9243   9.660   3.781   7.115  0.0647 -0.3584  0.4417
  828MOL0     H 9244   9.529   3.893   7.103 -1.1561  1.6223  3.1546
  828MOL0     H 9245   9.467   3.753   7.268  0.6651 -0.1374 -1.9707
  828MOL0     H 9246   9.612   3.809   7.367 -0.4770  3.0680  1.2404
  828MOL0     H 9247   9.405   4.004   7.256  0.4357  1.3730 -1.0036
  828MOL0     H 9248   9.519   4.041   7.382 -1.1906 -0.1859  0.5749
  828MOL0     H 9249   9.475   3.881   7.619  0.8124  3.8157 -1.3346
  828MOL0     H 9250   9.311   3.745   7.800 -0.1401 -0.9928 -0.7826
  828MOL0     H 9251   9.138   3.721   7.752  0.4535 -0.0901 -2.4517
  828MOL0     H 9252   9.114   3.986   7.774 -1.1715 -1.4027 -0.9408
  828MOL0     H 9253   9.279   3.982   7.806 -0.2322  1.7264  0.3309
  828MOL0     H 9254   9.222   3.832   8.024  3.8126  2.2968 -0.5335
  828MOL0     H 9255   9.166   4.007   8.024 -0.1569  1.3651 -2.6378
  828MOL0     H 9256   8.994   3.758   7.977 -2.9514 -0.1121  1.6502
  828MOL0     H 9257   8.938   3.922   7.974  0.7223 -0.0715 -0.8300
  828MOL0     H 9258   8.915   3.896   8.392  1.0875  0.6940 -1.7254
  828MOL0     H 9259   8.689   3.902   8.489 -0.1797  0.1670  0.3985
  828MOL0     H 9260   8.237   3.657   8.539 -0.7556 -0.5549  1.1036
  828MOL0     H 9261   8.024   3.705   8.609  0.5548 -1.0020 -1.6023
  828MOL0     H 9262   7.827   3.812   8.616  1.8825 -0.5047  0.2906
  828MOL0     H 9263   7.818   3.984   8.551  1.7295  1.7911  1.0827
  828MOL0     H 9264   7.725   4.061   8.773  0.9810  1.2064 -3.2800
  828MOL0     H 9265   7.700   3.885   8.804  0.3101  0.3038 -0.3101
  828MOL0     H 9266   7.593   4.036   8.553 -0.1811  0.0706  0.2598
  828MOL0     H 9267   7.508   4.017   8.708 -0.6838 -3.3212  1.0709
  828MOL0     H 9268   7.584   3.785   8.519  0.2245 -1.0657  0.2433
  828MOL0     H 9269   7.526   3.764   8.682 -0.2707  0.3119  0.4799
  828MOL0     H 9270   7.366   3.920   8.479  1.5453  0.1568 -0.7163
  828MOL0     H 9271   7.334   3.896   8.649  0.7567  2.6136 -0.2987
  828MOL0     H 9272   7.344   3.645   8.614  1.7917  0.5682  0.1037
  828MOL0     H 9273   7.378   3.686   8.434  3.9515  0.4269  2.0901
  828MOL0     H 9274   7.137   3.743   8.610  1.5670 -3.5199  1.4630
  828MOL0     H 9275   7.152   3.790   8.427 -2.2679 -4.1643 -2.3969
  828MOL0     H 9276   7.009   3.602   8.457  0.1468  2.2411 -1.5421
  828MOL0     H 9277   7.133   3.516   8.552  1.1913  1.9348 -0.0055
  828MOL0     H 9278   8.142   4.113   8.688  0.7845 -0.4051  0.7271
  828MOL0     H 9279   8.359   4.063   8.586 -0.0182  0.7643  0.0066
  828MOL0     H 9280   8.538   3.746   8.111  0.7085  0.2470  0.8774
  828MOL0     H 9281   8.763   3.741   8.019 -1.1097  1.6954  0.3679
  828MOL0     H 9282  10.556   3.864   7.203 -0.0738 -0.1511 -0.2606
  828MOL0     H 9283  10.757   3.952   7.137  0.7973 -0.3125  0.8546
  828MOL0     H 9284  11.064   4.184   7.185  1.1189 -0.2010  0.1537
  828MOL0     H 9285  11.302   4.226   7.125 -1.8652  1.5306  1.6616
  828MOL0     H 9286  11.508   4.185   7.017 -1.5771 -0.6523 -1.6325
  828MOL0     H 9287  11.489   4.362   7.036 -3.9201 -1.1829  0.8019
  828MOL0     H 9288  11.613   4.226   6.794  1.5754 -1.6127  1.3035
  828MOL0     H 9289  11.613   4.400   6.827 -1.1337 -0.8217 -0.7371
  828MOL0     H 9290  11.778   4.183   6.972 -0.5871 -0.2598 -1.3727
  828MOL0     H 9291  11.739   4.345   7.036  2.6483  0.5118  0.6084
  828MOL0     H 9292  11.870   4.291   6.757  0.1376 -1.2518  1.0234
  828MOL0     H 9293  11.856   4.448   6.847 -0.1426  0.9621  1.3888
  828MOL0     H 9294  12.169   4.287   7.070  0.7870  3.6614 -0.1687
  828MOL0     H 9295  11.193   4.287   6.721  0.2803  2.2883 -0.2521
  828MOL0     H 9296  10.951   4.279   6.778  0.9918 -1.3569 -0.8045
  829MOL0     O 9297   9.808   1.806  10.466 -0.4051 -0.2901  0.5825
  829MOL0     C 9298   9.804   1.692  10.504  0.1281  0.2401  0.5227
  829MOL0     O 9299   9.910   1.612  10.544  0.4627 -0.1621 -0.5102
  829MOL0     C 9300  10.039   1.653  10.545 -0.2572  0.7694  0.4821
  829MOL0     C 9301  10.087   1.779  10.521  0.1225 -0.2592  0.7820
  829MOL0     C 9302  10.229   1.804  10.531  1.0706 -1.4876 -0.0489
  829MOL0     C 9303  10.310   1.715  10.584 -0.4260  0.3407 -0.1603
  829MOL0     O 9304  10.449   1.728  10.603 -0.3084 -1.2507 -0.3743
  829MOL0     C 9305  10.530   1.845  10.583  0.5864  0.6649 -0.1902
  829MOL0     C 9306  10.673   1.814  10.570  0.1527 -0.3408  0.0425
  829MOL0     C 9307  10.753   1.944  10.588 -0.3940 -0.0249  0.0061
  829MOL0     C 9308  10.904   1.923  10.616 -0.3179  0.2075 -0.3444
  829MOL0     C 9309  10.981   2.051  10.662  0.7541  0.4458  0.2930
  829MOL0     C 9310  11.132   2.017  10.670  0.4462  0.3862  0.8000
  829MOL0     C 9311  11.202   2.029  10.535  0.5910 -0.2043  0.4413
  829MOL0     C 9312  11.314   1.933  10.527  0.0798 -0.2190 -0.0201
  829MOL0     N 9313  11.414   1.949  10.628  0.5307 -1.0050  0.0875
  829MOL0     C 9314  11.526   2.026  10.609 -0.5118  0.3863 -0.4982
  829MOL0     C 9315  11.592   2.023  10.727  0.2630  0.0217  0.7996
  829MOL0     C 9316  11.718   2.098  10.763 -0.7995  0.5321 -0.3339
  829MOL0     C 9317  11.716   2.247  10.741  0.0817  0.0282 -0.2612
  829MOL0     C 9318  11.671   2.314  10.870 -0.3482 -0.9843  0.5640
  829MOL0     C 9319  11.517   2.339  10.871 -0.2782 -0.5750  0.8077
  829MOL0     O 9320  11.487   2.412  10.749  0.8933  0.8736  0.6274
  829MOL0     C 9321  11.351   2.441  10.730  0.7392  0.7413 -0.4584
  829MOL0     C 9322  11.314   2.533  10.628 -0.0466 -0.3844  0.4257
  829MOL0     C 9323  11.176   2.550  10.588  0.7834  0.1648  0.0012
  829MOL0     C 9324  11.073   2.482  10.661  0.4437  0.8990 -0.0624
  829MOL0     C 9325  10.920   2.488  10.628 -0.5839  0.8743  0.1812
  829MOL0     O 9326  10.837   2.394  10.692 -0.2542  0.3883  0.8227
  829MOL0     C 9327  10.714   2.366  10.645  1.1191  0.3730 -0.8268
  829MOL0     C 9328  10.653   2.279  10.733  0.0492  0.4155  0.9576
  829MOL0     C 9329  10.521   2.231  10.703  0.2693 -0.8156  0.0451
  829MOL0     C 9330  10.459   2.271  10.581 -0.1335  1.1556 -0.0180
  829MOL0     O 9331  10.353   2.199  10.544 -0.4589 -0.2283 -0.3048
  829MOL0     C 9332  10.230   2.262  10.586  0.2273 -0.1298 -0.2734
  829MOL0     C 9333  10.110   2.185  10.529  0.6140  0.1059  0.0309
  829MOL0     C 9334   9.972   2.256  10.557 -0.0605  0.1482 -0.5364
  829MOL0     C 9335   9.859   2.171  10.513 -0.2038 -0.1335  0.3303
  829MOL0     C 9336   9.717   2.221  10.564 -0.3556 -0.8148 -1.5992
  829MOL0     C 9337   9.615   2.111  10.562  0.6007  0.2033 -0.5595
  829MOL0     C 9338   9.470   2.159  10.587  0.0278  0.9559  0.9823
  829MOL0     C 9339   9.385   2.059  10.664 -0.0705  0.3047 -0.6586
  829MOL0    Cl 9340   9.442   2.070  10.834 -0.3404 -0.2039 -0.0743
  829MOL0     C 9341  10.517   2.363  10.491 -0.5355  0.0043 -0.7216
  829MOL0     C 9342  10.647   2.410  10.521 -0.5319  0.2079  0.6495
  829MOL0     O 9343  10.881   2.572  10.550  0.0889 -0.3878  0.0409
  829MOL0     C 9344  11.114   2.394  10.761  0.5763 -0.3821  1.1393
  829MOL0     C 9345  11.245   2.373  10.800 -0.6875  0.0305 -0.3912
  829MOL0     N 9346  11.526   1.952  10.818 -0.1079  0.3866 -0.0481
  829MOL0     N 9347  11.415   1.913  10.761 -0.6513 -0.6037  0.0435
  829MOL0     C 9348  10.265   1.588  10.608 -0.0740  0.5856  0.0168
  829MOL0     C 9349  10.133   1.554  10.574 -0.8658 -0.1209  0.1871
  829MOL0     C 9350   9.669   1.629  10.511  0.4398 -0.2713  0.6376
  829MOL0     C 9351   9.653   1.488  10.493 -0.0483  0.3830 -0.5858
  829MOL0     C 9352   9.531   1.423  10.512  1.0840  0.0044 -0.5567
  829MOL0     C 9353   9.419   1.502  10.547  0.5891 -0.0560  0.6534
  829MOL0     O 9354   9.300   1.436  10.553  0.0337 -0.6286  0.4063
  829MOL0     C 9355   9.204   1.487  10.650 -0.2232 -0.3145 -0.0895
  829MOL0     C 9356   9.093   1.381  10.677 -1.0210  1.0402  0.0653
  829MOL0     C 9357   9.011   1.406  10.798 -0.1638 -0.1062 -0.1054
  829MOL0     C 9358   8.929   1.283  10.850  1.1343  0.0112 -0.2425
  829MOL0     C 9359   9.020   1.190  10.926  0.8390 -0.6630 -0.2781
  829MOL0     C 9360   9.076   1.106  10.987 -0.0036 -0.6659  0.2154
  829MOL0     C 9361   9.428   1.637  10.561 -0.2857 -0.8316  0.6613
  829MOL0     C 9362   9.558   1.703  10.547  0.7288 -0.1946 -0.5791
  829MOL0     H 9363  10.025   1.866  10.504  0.6838  0.6444  3.0196
  829MOL0     H 9364  10.271   1.901  10.505 -1.0253 -1.0484 -2.1339
  829MOL0     H 9365  10.505   1.919  10.659  1.8165 -0.6031  1.5037
  829MOL0     H 9366  10.506   1.891  10.486  0.5779  1.0484 -0.0070
  829MOL0     H 9367  10.678   1.780  10.466 -1.8243  0.1303 -0.2454
  829MOL0     H 9368  10.705   1.743  10.646 -0.5513  0.3326  0.9782
  829MOL0     H 9369  10.725   1.993  10.682 -2.1922  0.4601 -0.7414
  829MOL0     H 9370  10.737   2.015  10.506 -1.2444  1.6514  1.5612
  829MOL0     H 9371  10.913   1.852  10.698 -2.4894  1.5969  1.2082
  829MOL0     H 9372  10.942   1.892  10.518 -0.9634  0.4440 -0.6779
  829MOL0     H 9373  10.953   2.065  10.767  0.4807 -3.3088  0.8380
  829MOL0     H 9374  10.963   2.150  10.619 -0.3140  2.2696  4.4490
  829MOL0     H 9375  11.137   1.912  10.701  1.4588 -0.5482 -2.0981
  829MOL0     H 9376  11.186   2.078  10.743 -0.5592  3.4985 -0.8771
  829MOL0     H 9377  11.134   2.032  10.449 -0.1882  2.3618  1.0544
  829MOL0     H 9378  11.252   2.126  10.532  0.7439 -0.2285  1.8854
  829MOL0     H 9379  11.366   1.944  10.431  0.6076 -1.1756  0.1339
  829MOL0     H 9380  11.273   1.832  10.536 -0.7263 -0.0866 -1.7739
  829MOL0     H 9381  11.543   2.097  10.529 -0.2150  0.9830  0.0880
  829MOL0     H 9382  11.787   2.052  10.691 -0.1131  3.2549 -1.5602
  829MOL0     H 9383  11.746   2.068  10.864  2.2474  2.7832 -0.3796
  829MOL0     H 9384  11.646   2.278  10.662 -3.3219 -0.5611  2.2940
  829MOL0     H 9385  11.819   2.278  10.720 -0.4024  1.3125 -0.8458
  829MOL0     H 9386  11.708   2.260  10.958 -3.3655  0.6151  3.0175
  829MOL0     H 9387  11.725   2.408  10.880  0.6834 -1.6592  1.7310
  829MOL0     H 9388  11.493   2.402  10.958  1.9095  0.1614  0.9487
  829MOL0     H 9389  11.466   2.242  10.875 -1.9904  0.2168 -0.4450
  829MOL0     H 9390  11.404   2.581  10.593  1.6114 -2.0989  2.1142
  829MOL0     H 9391  11.154   2.623  10.510  1.9262 -0.0204 -0.5247
  829MOL0     H 9392  10.700   2.236  10.821  1.2114 -0.2236  0.0603
  829MOL0     H 9393  10.471   2.168  10.775 -1.2850  1.0859  0.7332
  829MOL0     H 9394  10.231   2.368  10.557  0.0738  0.3502  1.3882
  829MOL0     H 9395  10.223   2.254  10.695 -0.3951  0.8872 -0.2172
  829MOL0     H 9396  10.111   2.087  10.577 -2.4399 -0.4745 -0.8905
  829MOL0     H 9397  10.132   2.168  10.423  1.0220  1.8335 -0.1923
  829MOL0     H 9398   9.971   2.355  10.511  2.4194 -0.2221 -1.5901
  829MOL0     H 9399   9.945   2.259  10.663  1.3536 -0.8470 -0.1138
  829MOL0     H 9400   9.856   2.165  10.404 -3.0609 -1.4464  0.3917
  829MOL0     H 9401   9.884   2.071  10.551  1.0312  1.3353  3.7542
  829MOL0     H 9402   9.693   2.306  10.500 -0.3623 -0.3853 -1.0310
  829MOL0     H 9403   9.725   2.239  10.672  1.4878 -1.2236 -1.6351
  829MOL0     H 9404   9.640   2.032  10.632 -1.2847 -1.2684 -1.4603
  829MOL0     H 9405   9.624   2.070  10.461 -1.9972  0.9131 -1.1459
  829MOL0     H 9406   9.480   2.260  10.628 -0.3064  2.4736 -2.3778
  829MOL0     H 9407   9.418   2.173  10.492 -0.0655 -1.0107  0.7035
  829MOL0     H 9408   9.400   1.959  10.621  0.7999  1.3374 -2.9212
  829MOL0     H 9409   9.279   2.084  10.651 -1.4010 -1.9745  3.8250
  829MOL0     H 9410  10.472   2.391  10.397  2.6795  1.2859 -2.0362
  829MOL0     H 9411  10.697   2.471  10.447  0.0880  0.6561  1.4201
  829MOL0     H 9412  11.037   2.341  10.816 -0.7804  1.6939  1.3711
  829MOL0     H 9413  11.265   2.296  10.874 -2.5141  1.0851  1.3037
  829MOL0     H 9414  10.338   1.520  10.650 -1.2514  0.0262  1.2208
  829MOL0     H 9415  10.104   1.449  10.565  0.6521 -0.6244  0.7949
  829MOL0     H 9416   9.741   1.427  10.470 -0.6139  0.9225 -4.8252
  829MOL0     H 9417   9.517   1.315  10.502 -1.8849 -0.1140  2.8596
  829MOL0     H 9418   9.148   1.569  10.605 -1.9707 -2.2155 -1.5490
  829MOL0     H 9419   9.251   1.518  10.745  0.5238  2.5575 -1.2775
  829MOL0     H 9420   9.034   1.356  10.588  0.7719 -0.0297 -0.8739
  829MOL0     H 9421   9.144   1.286  10.695 -1.5695  1.1315  2.3619
  829MOL0     H 9422   8.937   1.480  10.767  0.5268  1.4221  1.6529
  829MOL0     H 9423   9.068   1.446  10.883  0.4153 -1.3288  0.1114
  829MOL0     H 9424   8.845   1.325  10.906 -0.3345 -1.9236 -0.8721
  829MOL0     H 9425   8.896   1.232  10.759 -0.1518 -2.2187  1.3717
  829MOL0     H 9426   9.126   1.022  11.030  0.9014 -1.3535 -2.0140
  829MOL0     H 9427   9.345   1.704  10.582 -0.1499  0.1504 -1.6772
  829MOL0     H 9428   9.554   1.811  10.557 -1.9263  0.0971 -3.2429
  830MOL0     O 9429   3.750   3.084   1.539 -0.5613 -0.3342 -0.0371
  830MOL0     C 9430   3.742   2.970   1.494  0.2498  0.1931 -0.2883
  830MOL0     O 9431   3.633   2.884   1.509 -0.4473  0.0852  0.8899
  830MOL0     C 9432   3.537   2.882   1.602  0.5172  0.1987 -0.5778
  830MOL0     C 9433   3.494   2.757   1.641 -0.6998  0.8253 -0.2462
  830MOL0     C 9434   3.394   2.740   1.737  0.0753  0.3981  0.9306
  830MOL0     C 9435   3.332   2.848   1.792 -0.1682  0.3318  0.0808
  830MOL0     O 9436   3.229   2.847   1.882 -0.4897 -0.4941  0.0264
  830MOL0     C 9437   3.174   2.724   1.936 -0.2063 -0.4538  0.5356
  830MOL0     C 9438   3.051   2.754   2.021  0.8374  0.2362 -0.4771
  830MOL0     C 9439   3.004   2.650   2.115 -0.1920 -0.1652  0.0151
  830MOL0     C 9440   2.890   2.708   2.198 -0.3427 -0.7236 -0.2358
  830MOL0     C 9441   2.842   2.621   2.315 -0.1783 -0.3739 -0.6273
  830MOL0     C 9442   2.722   2.683   2.382  0.0697  0.6189  0.9689
  830MOL0     C 9443   2.687   2.623   2.519 -0.1195  0.0807 -0.9184
  830MOL0     C 9444   2.535   2.647   2.563  0.2832 -0.2384 -0.3212
  830MOL0     N 9445   2.478   2.783   2.535  0.6858 -0.7487 -0.7354
  830MOL0     C 9446   2.523   2.910   2.565 -0.1771  0.1114 -0.0106
  830MOL0     C 9447   2.419   2.995   2.523  0.6965  0.0738  0.1643
  830MOL0     C 9448   2.425   3.144   2.515  0.3470 -0.6946 -0.2240
  830MOL0     C 9449   2.561   3.205   2.495  0.0545 -1.1471  0.0736
  830MOL0     C 9450   2.640   3.221   2.630 -1.4404 -0.0172  0.1025
  830MOL0     C 9451   2.786   3.213   2.591 -0.3008 -0.9026 -0.1847
  830MOL0     O 9452   2.831   3.085   2.577 -0.3892 -0.3664 -0.2157
  830MOL0     C 9453   2.972   3.061   2.567 -0.9228 -0.7279 -0.3742
  830MOL0     C 9454   3.082   3.153   2.577 -0.1486 -0.2318 -0.2932
  830MOL0     C 9455   3.215   3.104   2.572 -0.3681  0.2055  0.4730
  830MOL0     C 9456   3.235   2.966   2.551 -1.2262 -0.5739  0.2113
  830MOL0     C 9457   3.383   2.925   2.542  0.0331 -0.3322 -0.1874
  830MOL0     O 9458   3.414   2.790   2.562  0.5447 -0.1788 -0.0436
  830MOL0     C 9459   3.537   2.740   2.558 -0.0700 -0.0996  0.6286
  830MOL0     C 9460   3.543   2.613   2.500 -0.1828  0.1986  1.0130
  830MOL0     C 9461   3.653   2.532   2.532 -0.0584 -0.8053  1.0512
  830MOL0     C 9462   3.775   2.579   2.580 -0.0541 -0.0794  0.1378
  830MOL0     O 9463   3.883   2.494   2.574 -0.2029 -0.4647  0.3059
  830MOL0     C 9464   4.015   2.545   2.612  0.3001  0.0203 -0.2851
  830MOL0     C 9465   4.074   2.642   2.514  0.5598 -0.3018 -0.5138
  830MOL0     C 9466   4.184   2.587   2.423  0.5756  0.1881 -0.5656
  830MOL0     C 9467   4.209   2.684   2.303  0.2985 -0.3679 -0.6712
  830MOL0     C 9468   4.316   2.627   2.213 -0.5623  0.7332 -0.1288
  830MOL0     C 9469   4.344   2.708   2.080 -0.0393 -0.2065 -0.2651
  830MOL0     C 9470   4.463   2.638   2.001  0.8918  0.1337  0.1962
  830MOL0     C 9471   4.498   2.704   1.876 -0.3935  0.2739 -0.0834
  830MOL0    Cl 9472   4.589   2.850   1.926 -0.1467 -0.0929  0.1006
  830MOL0     C 9473   3.769   2.707   2.630  0.1481 -0.1077  0.8971
  830MOL0     C 9474   3.652   2.791   2.626 -0.4280 -0.4379 -0.0630
  830MOL0     O 9475   3.471   3.012   2.519  0.7116  1.4553 -0.0054
  830MOL0     C 9476   3.125   2.880   2.545 -0.1181  0.3169 -0.0030
  830MOL0     C 9477   2.999   2.925   2.552 -0.1625  0.3328  0.3873
  830MOL0     N 9478   2.321   2.919   2.472  0.3025 -0.2781  0.2125
  830MOL0     N 9479   2.355   2.791   2.482  0.4273  0.5487 -0.4732
  830MOL0     C 9480   3.364   2.976   1.747  0.4540 -0.5447  0.7277
  830MOL0     C 9481   3.474   2.991   1.653  0.8664 -0.6850 -0.8653
  830MOL0     C 9482   3.866   2.935   1.410 -0.1333  0.7264 -0.7718
  830MOL0     C 9483   3.955   3.037   1.369 -0.5611 -0.0579 -0.4862
  830MOL0     C 9484   4.074   2.994   1.306  0.1181  0.7692  0.5609
  830MOL0     C 9485   4.094   2.854   1.280  0.6178 -0.2675  0.0880
  830MOL0     O 9486   4.207   2.787   1.226  1.4484  0.3405 -0.4343
  830MOL0     C 9487   4.305   2.890   1.191 -0.0021  0.0686  0.6501
  830MOL0     C 9488   4.410   2.821   1.113 -0.6482 -0.7189 -0.0482
  830MOL0     C 9489   4.531   2.921   1.079  0.2380  0.0516 -0.1246
  830MOL0     C 9490   4.605   2.877   0.953  0.2277  0.3970 -0.2236
  830MOL0     C 9491   4.545   2.928   0.831 -0.0419  0.1890  0.7721
  830MOL0     C 9492   4.499   2.987   0.724  0.1357  0.1828  0.1399
  830MOL0     C 9493   3.997   2.762   1.321 -0.0926  0.0214 -1.4084
  830MOL0     C 9494   3.879   2.806   1.383 -1.3791  0.5263 -0.0905
  830MOL0     H 9495   3.531   2.661   1.609  1.4990  0.3459  3.2183
  830MOL0     H 9496   3.358   2.640   1.761 -1.0368  0.0278 -1.9156
  830MOL0     H 9497   3.253   2.680   1.998  0.9227  0.7630  0.0029
  830MOL0     H 9498   3.150   2.651   1.858  0.9413  0.1401 -0.4023
  830MOL0     H 9499   2.966   2.771   1.955 -0.2225 -0.9188  0.5497
  830MOL0     H 9500   3.082   2.839   2.083 -0.3829  0.7244 -0.5075
  830MOL0     H 9501   3.083   2.610   2.179  0.5411 -1.4610 -1.6326
  830MOL0     H 9502   2.969   2.577   2.042 -0.8475  0.3223 -0.1720
  830MOL0     H 9503   2.922   2.807   2.233  0.4297 -0.5223 -1.4629
  830MOL0     H 9504   2.809   2.723   2.126 -0.1817 -3.5128 -1.0924
  830MOL0     H 9505   2.922   2.613   2.389 -1.7724  1.8964  1.4997
  830MOL0     H 9506   2.822   2.517   2.287  2.2604 -0.7478 -1.1965
  830MOL0     H 9507   2.632   2.679   2.320 -0.1003  2.2885  1.0776
  830MOL0     H 9508   2.741   2.789   2.398 -0.3379  0.4407  2.8164
  830MOL0     H 9509   2.703   2.516   2.507 -1.7536 -0.6360  2.1983
  830MOL0     H 9510   2.753   2.657   2.599 -0.8034  1.6206 -0.9686
  830MOL0     H 9511   2.529   2.630   2.671  0.3813  2.8522  0.2669
  830MOL0     H 9512   2.477   2.567   2.516 -1.2858  0.3738  0.4859
  830MOL0     H 9513   2.618   2.939   2.610  0.5385 -0.2259 -1.2622
  830MOL0     H 9514   2.374   3.180   2.604 -1.6325 -0.1945 -1.4904
  830MOL0     H 9515   2.366   3.184   2.432 -1.8978 -0.3465  1.4472
  830MOL0     H 9516   2.555   3.306   2.454  1.3638 -1.3543 -0.6793
  830MOL0     H 9517   2.611   3.139   2.424 -0.2417 -0.3108 -0.9376
  830MOL0     H 9518   2.619   3.312   2.687  3.6782  1.5225 -0.0026
  830MOL0     H 9519   2.618   3.132   2.690 -0.4743 -1.5173 -1.6922
  830MOL0     H 9520   2.851   3.248   2.671 -2.4595 -2.4872  2.4247
  830MOL0     H 9521   2.806   3.274   2.502 -1.5946  0.0427  0.1462
  830MOL0     H 9522   3.059   3.256   2.602 -0.5071 -0.5152  0.6240
  830MOL0     H 9523   3.300   3.170   2.570  1.9053 -2.5315 -0.0290
  830MOL0     H 9524   3.452   2.573   2.457  0.9400  0.4463 -1.8841
  830MOL0     H 9525   3.638   2.428   2.504 -0.6289 -0.7519  1.1516
  830MOL0     H 9526   4.074   2.456   2.636 -0.5694 -0.8511 -1.2544
  830MOL0     H 9527   3.999   2.602   2.704 -1.3732 -2.7067  1.2649
  830MOL0     H 9528   4.128   2.725   2.560  2.3675 -0.7589 -1.6868
  830MOL0     H 9529   3.994   2.681   2.451  0.2266 -1.1087 -0.6125
  830MOL0     H 9530   4.157   2.486   2.390 -2.1812  0.2949  1.0547
  830MOL0     H 9531   4.274   2.570   2.484 -1.2628 -1.4751  1.8656
  830MOL0     H 9532   4.115   2.701   2.250  0.0068  2.7448  0.6161
  830MOL0     H 9533   4.258   2.780   2.324  1.2405 -1.0766  0.5328
  830MOL0     H 9534   4.282   2.530   2.177  0.8233  0.5303 -0.9728
  830MOL0     H 9535   4.407   2.600   2.267 -2.9778 -0.6831  3.5514
  830MOL0     H 9536   4.368   2.808   2.120 -0.6092 -0.1439 -0.0736
  830MOL0     H 9537   4.250   2.725   2.026 -0.4469 -2.1877 -0.2191
  830MOL0     H 9538   4.552   2.640   2.065  1.3322  1.9568 -0.4075
  830MOL0     H 9539   4.437   2.533   1.985 -0.7479 -0.2069  3.9447
  830MOL0     H 9540   4.399   2.720   1.832 -0.3727 -1.4507 -0.8140
  830MOL0     H 9541   4.569   2.650   1.814  0.4778 -0.1037  1.2127
  830MOL0     H 9542   3.862   2.743   2.674  0.7876 -0.1522 -0.3693
  830MOL0     H 9543   3.649   2.888   2.675  0.9449 -0.3193 -0.1614
  830MOL0     H 9544   3.142   2.773   2.539 -0.2647  0.3570 -3.6632
  830MOL0     H 9545   2.922   2.850   2.536  1.9997 -1.2049 -4.9651
  830MOL0     H 9546   3.312   3.063   1.783 -0.6202 -0.3479 -1.1511
  830MOL0     H 9547   3.497   3.092   1.621  1.2617 -1.4140 -3.0453
  830MOL0     H 9548   3.953   3.141   1.397  1.6707  0.2268 -1.1427
  830MOL0     H 9549   4.159   3.060   1.290  0.9199 -0.7389 -2.0809
  830MOL0     H 9550   4.338   2.951   1.276 -0.5743  1.3521 -0.0253
  830MOL0     H 9551   4.259   2.946   1.109  0.1018 -3.3584 -1.9818
  830MOL0     H 9552   4.463   2.740   1.165 -1.1210  0.5574  2.5718
  830MOL0     H 9553   4.380   2.774   1.019 -0.8903  0.2790 -0.4813
  830MOL0     H 9554   4.602   2.929   1.161 -2.5956 -2.8904  2.9677
  830MOL0     H 9555   4.497   3.023   1.057 -2.1801 -0.8267 -0.7945
  830MOL0     H 9556   4.700   2.930   0.970 -1.6407  3.4087  1.8455
  830MOL0     H 9557   4.629   2.771   0.965  1.2273  0.6015 -0.2720
  830MOL0     H 9558   4.447   3.039   0.645  4.6453 -0.8357 -3.9492
  830MOL0     H 9559   4.011   2.658   1.295  3.5819  0.0621 -0.0859
  830MOL0     H 9560   3.812   2.727   1.414  1.8765 -2.3546  0.1777
  831MOL0     O 9561   9.151   7.927   1.182  0.3057 -0.7985 -0.5638
  831MOL0     C 9562   9.072   8.007   1.138  0.8995 -0.0613  0.1732
  831MOL0     O 9563   9.102   8.134   1.112 -0.5082  0.5657 -0.4230
  831MOL0     C 9564   9.234   8.175   1.125  0.0056  0.2119  0.2709
  831MOL0     C 9565   9.304   8.158   1.243 -0.6539 -0.2152 -0.3677
  831MOL0     C 9566   9.445   8.180   1.242 -0.4960  0.3508  0.0490
  831MOL0     C 9567   9.512   8.217   1.124 -0.1355 -0.2044  0.0138
  831MOL0     O 9568   9.647   8.221   1.116 -0.1111 -0.5336 -0.6892
  831MOL0     C 9569   9.712   8.096   1.069 -0.3808  0.5929  0.2586
  831MOL0     C 9570   9.863   8.091   1.052  0.3010 -0.5410 -0.4254
  831MOL0     C 9571   9.928   8.060   1.193  0.7288  0.2185  0.6583
  831MOL0     C 9572   9.931   8.181   1.285  0.1668 -0.4758  0.4708
  831MOL0     C 9573  10.062   8.262   1.261  0.3721  0.2938  0.7893
  831MOL0     C 9574  10.073   8.375   1.368  0.4264  1.0887 -0.5920
  831MOL0     C 9575  10.204   8.442   1.369 -0.2664  0.5649 -0.2801
  831MOL0     C 9576  10.213   8.559   1.469 -0.0737  0.7609 -0.8590
  831MOL0     N 9577  10.347   8.625   1.482 -0.2440 -0.8135  0.1062
  831MOL0     C 9578  10.378   8.737   1.564  0.3491  1.1073  1.8277
  831MOL0     C 9579  10.508   8.777   1.536 -0.2081 -0.4578  0.3826
  831MOL0     C 9580  10.605   8.888   1.602  0.8263 -0.3365  0.4976
  831MOL0     C 9581  10.568   9.034   1.549 -0.0372 -0.1390 -0.0851
  831MOL0     C 9582  10.426   9.082   1.545 -0.3449  0.0520 -0.5961
  831MOL0     C 9583  10.419   9.228   1.505 -0.5252 -0.0576  0.6900
  831MOL0     O 9584  10.290   9.255   1.442 -0.0951  0.4709  0.2052
  831MOL0     C 9585  10.170   9.262   1.505 -0.1966  0.5406  0.1817
  831MOL0     C 9586  10.151   9.255   1.645 -0.3613 -0.1816  0.5302
  831MOL0     C 9587  10.017   9.279   1.691 -0.6860 -0.4200 -0.3005
  831MOL0     C 9588   9.905   9.308   1.613 -0.1118  0.5380 -0.1957
  831MOL0     C 9589   9.771   9.321   1.666  0.8331  0.2682  0.1389
  831MOL0     O 9590   9.679   9.355   1.563  0.1104 -0.1901 -0.4039
  831MOL0     C 9591   9.546   9.344   1.586  0.2279  0.0767  0.4826
  831MOL0     C 9592   9.489   9.230   1.640 -0.6359 -0.5684  0.1371
  831MOL0     C 9593   9.351   9.221   1.652 -0.3330 -0.1313 -0.3680
  831MOL0     C 9594   9.270   9.325   1.617 -0.1970  0.3185 -0.2026
  831MOL0     O 9595   9.136   9.312   1.613 -0.2065 -0.3246 -0.2727
  831MOL0     C 9596   9.067   9.316   1.486 -0.3687 -0.0837 -0.0520
  831MOL0     C 9597   8.928   9.261   1.509 -0.2977 -0.1591  0.5323
  831MOL0     C 9598   8.936   9.105   1.506  1.2561  0.2458 -1.0196
  831MOL0     C 9599   8.794   9.052   1.467 -0.6138  0.0509  1.0070
  831MOL0     C 9600   8.797   8.904   1.496  0.2472  0.1010 -0.5298
  831MOL0     C 9601   8.661   8.856   1.450  1.1827  0.6170 -0.6033
  831MOL0     C 9602   8.636   8.731   1.534 -1.0539  0.4032 -0.6589
  831MOL0     C 9603   8.494   8.672   1.506 -0.2160 -0.5734  1.4105
  831MOL0    Cl 9604   8.360   8.756   1.572  0.1039  0.2358  0.2026
  831MOL0     C 9605   9.333   9.444   1.570 -0.2376  0.0660 -0.9223
  831MOL0     C 9606   9.464   9.453   1.559  0.4984  0.3058 -0.1851
  831MOL0     O 9607   9.743   9.306   1.785  0.0895  0.2233 -0.5211
  831MOL0     C 9608   9.926   9.293   1.479  0.1372 -0.5580  1.2768
  831MOL0     C 9609  10.055   9.278   1.423 -0.7531 -0.1244  0.2210
  831MOL0     N 9610  10.549   8.684   1.437 -0.7338 -0.2743  0.0807
  831MOL0     N 9611  10.464   8.590   1.412 -0.3772 -0.2051 -0.6584
  831MOL0     C 9612   9.439   8.226   1.003  0.9801 -1.3043  0.0448
  831MOL0     C 9613   9.296   8.216   1.006  0.7479  0.0911 -0.5654
  831MOL0     C 9614   8.924   7.965   1.141  0.2627  0.4950  0.9199
  831MOL0     C 9615   8.819   8.049   1.100 -0.8843  0.7806  0.6813
  831MOL0     C 9616   8.689   7.996   1.098 -0.0958  0.0721  0.5993
  831MOL0     C 9617   8.661   7.865   1.145  0.1252 -0.0921  0.0423
  831MOL0     O 9618   8.536   7.814   1.133 -0.1977  0.9370 -1.1766
  831MOL0     C 9619   8.475   7.739   1.250 -0.9614 -0.7829  0.3960
  831MOL0     C 9620   8.332   7.721   1.227  1.1157  0.3138  0.5595
  831MOL0     C 9621   8.264   7.856   1.203  0.1714  1.1065  0.3400
  831MOL0     C 9622   8.123   7.841   1.147  0.6320 -0.8671 -0.3362
  831MOL0     C 9623   8.073   7.978   1.111 -0.1114  0.4077 -0.3681
  831MOL0     C 9624   8.043   8.094   1.102  0.5550 -0.6012  0.1092
  831MOL0     C 9625   8.767   7.785   1.185 -0.3277  0.2497 -0.7674
  831MOL0     C 9626   8.899   7.833   1.178  0.6249 -0.2860  0.1716
  831MOL0     H 9627   9.264   8.134   1.341 -0.6323 -0.2371 -0.3647
  831MOL0     H 9628   9.503   8.172   1.333 -2.6781  0.3775  1.4951
  831MOL0     H 9629   9.677   8.070   0.969 -0.6296 -2.4614  1.0296
  831MOL0     H 9630   9.674   8.010   1.125 -2.4528  0.4464 -1.2591
  831MOL0     H 9631   9.904   8.183   1.011 -0.2315 -0.4850 -0.8428
  831MOL0     H 9632   9.881   8.002   0.991  1.5334 -2.2752  2.2804
  831MOL0     H 9633  10.033   8.028   1.181  0.2032 -1.1840 -0.4819
  831MOL0     H 9634   9.874   7.979   1.243  0.2939 -0.8191 -1.4046
  831MOL0     H 9635   9.841   8.242   1.276  2.5775  3.2185 -0.8476
  831MOL0     H 9636   9.939   8.148   1.389  1.2905  1.4022  1.0326
  831MOL0     H 9637  10.062   8.308   1.162 -0.0727  0.2277  0.7548
  831MOL0     H 9638  10.156   8.209   1.274  1.2963  2.0753  1.7056
  831MOL0     H 9639  10.066   8.328   1.466 -2.2254 -0.2165 -1.3310
  831MOL0     H 9640  10.001   8.457   1.364  0.9786  1.6204  0.0987
  831MOL0     H 9641  10.278   8.374   1.413 -1.1993 -0.2824  0.0305
  831MOL0     H 9642  10.231   8.468   1.267  2.3544  3.6371  1.0409
  831MOL0     H 9643  10.187   8.516   1.566 -1.6026 -2.2572 -2.4610
  831MOL0     H 9644  10.136   8.630   1.439 -1.7682 -1.1307 -1.2084
  831MOL0     H 9645  10.306   8.773   1.637 -3.6889 -0.2341 -1.1254
  831MOL0     H 9646  10.713   8.881   1.584  0.4352  2.0790 -4.0028
  831MOL0     H 9647  10.581   8.890   1.709  0.8940  1.0950  0.5014
  831MOL0     H 9648  10.604   9.038   1.446 -1.6030  1.9648 -0.6241
  831MOL0     H 9649  10.634   9.103   1.603 -1.3230  1.6834 -0.7115
  831MOL0     H 9650  10.360   9.020   1.484 -1.2556 -0.3703  0.7804
  831MOL0     H 9651  10.392   9.081   1.649 -1.1940  2.2388 -0.8081
  831MOL0     H 9652  10.499   9.249   1.434  0.1501 -2.4389  0.6431
  831MOL0     H 9653  10.426   9.288   1.596  1.0329  2.6522 -1.0974
  831MOL0     H 9654  10.230   9.248   1.719  0.0694  0.5858  0.1519
  831MOL0     H 9655  10.015   9.270   1.800 -0.1480 -0.2061 -0.2699
  831MOL0     H 9656   9.560   9.153   1.671 -0.6306 -0.3023  0.8078
  831MOL0     H 9657   9.311   9.131   1.696  0.9579 -0.2534  0.6351
  831MOL0     H 9658   9.114   9.274   1.396  0.5858 -1.5605  1.0780
  831MOL0     H 9659   9.045   9.421   1.463 -3.4262 -0.9704 -1.8222
  831MOL0     H 9660   8.868   9.286   1.421  2.9458  0.6346 -1.6623
  831MOL0     H 9661   8.881   9.298   1.601 -0.6798 -1.9593  1.1008
  831MOL0     H 9662   8.984   9.059   1.593 -2.9189  1.0962  2.0677
  831MOL0     H 9663   8.999   9.078   1.422  2.7066 -3.2930  0.9967
  831MOL0     H 9664   8.715   9.105   1.520 -0.0150  2.1284 -0.0629
  831MOL0     H 9665   8.777   9.068   1.360 -0.7301 -0.2865  0.9758
  831MOL0     H 9666   8.797   8.903   1.605 -4.7115  3.1226 -0.2026
  831MOL0     H 9667   8.880   8.847   1.453 -0.8269 -0.9020 -1.3150
  831MOL0     H 9668   8.657   8.827   1.344 -1.7853 -0.6037 -0.2756
  831MOL0     H 9669   8.591   8.939   1.461  0.8865  0.5604 -1.8129
  831MOL0     H 9670   8.713   8.655   1.520 -1.6773 -0.4105  0.1438
  831MOL0     H 9671   8.641   8.761   1.639 -1.9949  0.1783 -0.5326
  831MOL0     H 9672   8.496   8.569   1.543 -0.0226 -0.7095  1.0146
  831MOL0     H 9673   8.470   8.668   1.400 -2.3865 -1.7574  1.8991
  831MOL0     H 9674   9.273   9.531   1.545 -0.6815 -0.0583 -0.3090
  831MOL0     H 9675   9.505   9.546   1.520  1.6608 -1.1314 -2.6439
  831MOL0     H 9676   9.847   9.302   1.405 -1.2515 -2.6345  2.4088
  831MOL0     H 9677  10.064   9.281   1.314  1.8823  0.5401  0.3836
  831MOL0     H 9678   9.488   8.249   0.910 -2.8988  3.3954 -1.2452
  831MOL0     H 9679   9.233   8.210   0.917  0.0133 -1.8257  0.0238
  831MOL0     H 9680   8.824   8.153   1.073 -1.4283  1.3709  2.6459
  831MOL0     H 9681   8.605   8.046   1.052 -0.2054 -1.6474 -1.1984
  831MOL0     H 9682   8.493   7.783   1.349 -0.0042  1.1233 -0.5638
  831MOL0     H 9683   8.529   7.644   1.246 -1.4244 -1.0070 -2.1182
  831MOL0     H 9684   8.312   7.651   1.146 -1.1167  3.6417 -2.0549
  831MOL0     H 9685   8.281   7.681   1.315 -1.6850 -1.0336 -1.5491
  831MOL0     H 9686   8.324   7.934   1.156  0.5526  0.4216 -0.3216
  831MOL0     H 9687   8.246   7.884   1.307 -1.2878 -1.1217  0.7609
  831MOL0     H 9688   8.121   7.772   1.061  1.7813 -1.8759  0.4025
  831MOL0     H 9689   8.051   7.799   1.217  0.4782 -0.1015 -0.0279
  831MOL0     H 9690   8.001   8.192   1.087 -1.1066 -1.5102 -1.6078
  831MOL0     H 9691   8.758   7.682   1.219  0.8835  1.1620  2.7736
  831MOL0     H 9692   8.964   7.755   1.216 -2.4287 -1.9132  2.4028
  832MOL0     O 9693   3.694   7.580   0.635 -0.0448 -0.5647 -1.0097
  832MOL0     C 9694   3.772   7.494   0.679  0.5858  0.0168  1.2468
  832MOL0     O 9695   3.742   7.361   0.713  0.9477  0.1037  0.0670
  832MOL0     C 9696   3.612   7.312   0.701 -1.2715 -0.7575  0.6929
  832MOL0     C 9697   3.536   7.277   0.816 -0.2504  0.1413 -0.4265
  832MOL0     C 9698   3.406   7.230   0.810 -0.3961 -0.8888  0.7740
  832MOL0     C 9699   3.348   7.218   0.679  0.4802 -0.6790  0.6066
  832MOL0     O 9700   3.220   7.194   0.661  0.2380  0.2211  0.4214
  832MOL0     C 9701   3.136   7.158   0.776  0.1529 -0.9845  0.2261
  832MOL0     C 9702   3.005   7.133   0.717  0.5888 -0.4777  0.5707
  832MOL0     C 9703   2.883   7.142   0.814  0.2143  0.1333  0.1616
  832MOL0     C 9704   2.765   7.058   0.768  0.2298  0.5396 -0.2570
  832MOL0     C 9705   2.659   7.060   0.872  0.4224 -0.0193  0.3210
  832MOL0     C 9706   2.555   6.956   0.845  0.2398 -0.1246  0.4963
  832MOL0     C 9707   2.432   6.939   0.939 -1.1454  0.3867 -0.3520
  832MOL0     C 9708   2.494   6.880   1.065 -0.5064 -0.0838 -0.4411
  832MOL0     N 9709   2.384   6.874   1.164 -0.2160 -0.6354  0.5836
  832MOL0     C 9710   2.382   6.925   1.290 -0.3781  0.8829 -0.1853
  832MOL0     C 9711   2.256   6.908   1.323 -0.1459  0.4405 -0.2727
  832MOL0     C 9712   2.202   6.931   1.461 -0.7592  0.0665 -0.9510
  832MOL0     C 9713   2.077   7.020   1.465 -0.0378 -0.2210 -0.3576
  832MOL0     C 9714   2.006   7.003   1.600  0.1736 -0.6351 -0.2228
  832MOL0     C 9715   1.891   7.109   1.632 -0.2472 -0.2825  0.7707
  832MOL0     O 9716   1.946   7.233   1.594 -0.0850 -1.3011 -0.7612
  832MOL0     C 9717   1.865   7.350   1.583  0.5176  0.6354 -0.6100
  832MOL0     C 9718   1.925   7.471   1.616 -0.3392  0.6757  0.6786
  832MOL0     C 9719   1.861   7.590   1.631 -0.3069 -0.6548  0.7105
  832MOL0     C 9720   1.719   7.592   1.616 -0.0172 -0.1842  0.5940
  832MOL0     C 9721   1.624   7.713   1.632  0.1483  0.5635  1.1256
  832MOL0     O 9722   1.488   7.691   1.622  0.3521 -0.6622 -0.1929
  832MOL0     C 9723   1.398   7.783   1.578 -0.4873  0.1277  0.3950
  832MOL0     C 9724   1.395   7.923   1.605  0.2483 -0.1340  0.5147
  832MOL0     C 9725   1.294   7.998   1.545 -0.9948  1.3528  0.8664
  832MOL0     C 9726   1.192   7.948   1.462 -0.6317  0.3632  0.0750
  832MOL0     O 9727   1.094   8.034   1.413 -0.0389  0.2050  1.0079
  832MOL0     C 9728   0.961   7.987   1.415 -0.3121 -0.3855 -0.0194
  832MOL0     C 9729   0.873   8.082   1.344  0.0547 -0.6018  0.1278
  832MOL0     C 9730   0.742   8.028   1.299 -1.0365  0.5992  0.0154
  832MOL0     C 9731   0.660   8.127   1.227  0.2286 -0.0493  0.1278
  832MOL0     C 9732   0.697   8.162   1.084  0.4617 -0.2192  0.2641
  832MOL0     C 9733   0.712   8.040   0.991 -0.4470 -0.5358  0.0333
  832MOL0     C 9734   0.594   7.942   0.992  0.2463 -0.3057  0.0890
  832MOL0     C 9735   0.572   7.836   0.878 -0.0807  0.2764 -0.8453
  832MOL0    Cl 9736   0.697   7.713   0.860  0.7373 -0.3640  0.4141
  832MOL0     C 9737   1.198   7.808   1.442  0.3953 -0.0110  0.4861
  832MOL0     C 9738   1.300   7.723   1.501  0.0316 -0.1655  0.9792
  832MOL0     O 9739   1.669   7.825   1.640  0.0071 -0.2269 -0.3035
  832MOL0     C 9740   1.652   7.473   1.574 -0.4881 -0.2061  0.4535
  832MOL0     C 9741   1.726   7.354   1.549 -0.2332  0.7315  0.6598
  832MOL0     N 9742   2.182   6.845   1.231  0.2215  0.2186  0.3853
  832MOL0     N 9743   2.263   6.825   1.133  0.5833 -0.2635  0.0459
  832MOL0     C 9744   3.424   7.247   0.566  0.6310  0.6152  0.4097
  832MOL0     C 9745   3.562   7.285   0.571  0.1664 -0.2769 -0.3962
  832MOL0     C 9746   3.917   7.523   0.678  0.1989  0.8721 -0.3702
  832MOL0     C 9747   3.966   7.649   0.649  0.5445  0.0549 -0.7540
  832MOL0     C 9748   4.101   7.687   0.676 -0.0761 -0.0399  0.0790
  832MOL0     C 9749   4.192   7.590   0.708 -0.1787  0.3332  0.7140
  832MOL0     O 9750   4.326   7.629   0.728  0.2345  0.1306 -0.1809
  832MOL0     C 9751   4.358   7.769   0.771 -1.0173 -1.2799  0.4104
  832MOL0     C 9752   4.493   7.757   0.852  0.1418  0.2246  0.2705
  832MOL0     C 9753   4.611   7.756   0.749 -0.6178  0.3428  0.1674
  832MOL0     C 9754   4.740   7.722   0.826 -0.3689 -0.5766 -0.5049
  832MOL0     C 9755   4.855   7.742   0.738  1.1528  0.4116 -0.4977
  832MOL0     C 9756   4.943   7.775   0.671 -0.3692 -0.3218 -0.2166
  832MOL0     C 9757   4.144   7.463   0.736 -0.6119  0.1599 -0.3182
  832MOL0     C 9758   4.008   7.429   0.727  0.1621 -0.0678 -0.2221
  832MOL0     H 9759   3.576   7.315   0.909 -0.6598  0.7021 -0.4783
  832MOL0     H 9760   3.358   7.202   0.904 -2.0565 -2.0348 -0.3536
  832MOL0     H 9761   3.129   7.239   0.850  1.3166 -2.6603  2.2777
  832MOL0     H 9762   3.162   7.063   0.824  2.7873 -0.6410 -0.3685
  832MOL0     H 9763   3.009   7.035   0.669  2.4877  0.6725 -1.9227
  832MOL0     H 9764   2.993   7.208   0.638  0.7655 -0.9191  0.1223
  832MOL0     H 9765   2.856   7.248   0.819  0.3208  0.1664  0.0337
  832MOL0     H 9766   2.934   7.117   0.908 -0.1097  4.1052  1.5787
  832MOL0     H 9767   2.719   7.090   0.674 -0.8428 -1.9846 -0.6733
  832MOL0     H 9768   2.798   6.955   0.750 -1.4405 -0.2108  0.7053
  832MOL0     H 9769   2.615   7.160   0.873  0.3729  0.0262 -1.8122
  832MOL0     H 9770   2.707   7.045   0.969 -1.6485  0.1197  1.4193
  832MOL0     H 9771   2.609   6.861   0.836  1.7691  0.6859  0.8829
  832MOL0     H 9772   2.516   6.966   0.743 -1.9032 -1.0718  1.1683
  832MOL0     H 9773   2.399   7.041   0.964  0.0276  1.2177 -2.0301
  832MOL0     H 9774   2.344   6.885   0.902 -0.2415 -2.1405  0.9326
  832MOL0     H 9775   2.582   6.933   1.103 -0.7645  0.1438 -0.1601
  832MOL0     H 9776   2.531   6.779   1.048 -0.2775  0.1296 -1.3010
  832MOL0     H 9777   2.465   6.970   1.344 -0.1413 -1.9669  2.0416
  832MOL0     H 9778   2.281   6.968   1.528 -2.1823  1.3420  0.0949
  832MOL0     H 9779   2.164   6.836   1.502 -1.6471  0.4006 -0.9949
  832MOL0     H 9780   2.002   6.968   1.405 -0.4017 -0.9356  0.6931
  832MOL0     H 9781   2.095   7.123   1.433 -2.3048 -0.3023 -2.1680
  832MOL0     H 9782   1.962   6.904   1.596  0.2438 -0.7052  0.6902
  832MOL0     H 9783   2.079   7.013   1.680 -0.3152 -0.3594  0.1892
  832MOL0     H 9784   1.886   7.113   1.741  0.9199  3.6403  0.8057
  832MOL0     H 9785   1.799   7.081   1.578  1.9077 -0.3821 -3.2509
  832MOL0     H 9786   2.028   7.455   1.645  0.5898 -1.1459 -2.9761
  832MOL0     H 9787   1.910   7.683   1.659  0.9582 -0.9355 -0.4637
  832MOL0     H 9788   1.468   7.977   1.664 -0.1566 -0.4914  1.3643
  832MOL0     H 9789   1.293   8.106   1.559  1.0630  1.3452  1.4930
  832MOL0     H 9790   0.926   7.976   1.518  1.0282  1.4296  0.6823
  832MOL0     H 9791   0.948   7.883   1.385  3.3019 -1.9210  2.8945
  832MOL0     H 9792   0.933   8.123   1.262 -0.8927  0.7569  0.0872
  832MOL0     H 9793   0.852   8.166   1.411 -0.9487  2.2479 -3.4619
  832MOL0     H 9794   0.698   7.985   1.390  2.4828 -0.4953  1.3620
  832MOL0     H 9795   0.752   7.941   1.233 -1.5443  0.4411  0.1372
  832MOL0     H 9796   0.558   8.087   1.225  1.0036 -2.2667  1.2064
  832MOL0     H 9797   0.660   8.213   1.295  0.6850 -3.1508  4.4776
  832MOL0     H 9798   0.793   8.212   1.076  1.3330 -1.7138  0.9365
  832MOL0     H 9799   0.616   8.225   1.046  0.1081 -0.6266  0.3271
  832MOL0     H 9800   0.805   7.991   1.022  0.4265  0.4858 -0.9305
  832MOL0     H 9801   0.723   8.068   0.886 -2.1601  0.5454  0.0957
  832MOL0     H 9802   0.594   7.886   1.086  2.5200  1.0019  0.9647
  832MOL0     H 9803   0.502   7.999   0.976  0.8764 -0.1399 -3.9088
  832MOL0     H 9804   0.565   7.895   0.786 -2.8403  1.8093  0.2305
  832MOL0     H 9805   0.479   7.781   0.894  1.3176 -1.6008  1.5643
  832MOL0     H 9806   1.130   7.764   1.370 -0.3331 -1.2333  1.8695
  832MOL0     H 9807   1.286   7.616   1.491 -1.4269  0.2124 -1.8810
  832MOL0     H 9808   1.549   7.482   1.540 -1.5817  1.5163  3.7479
  832MOL0     H 9809   1.677   7.265   1.510 -0.3229  1.5661 -1.2818
  832MOL0     H 9810   3.366   7.257   0.475 -0.4399  0.4981  1.0665
  832MOL0     H 9811   3.617   7.306   0.480  0.4139 -0.6642 -0.3402
  832MOL0     H 9812   3.895   7.721   0.610  1.4300  1.0335 -0.6057
  832MOL0     H 9813   4.137   7.788   0.659  2.1270 -0.5519  1.3680
  832MOL0     H 9814   4.281   7.802   0.841 -1.1111 -0.0025 -0.2604
  832MOL0     H 9815   4.363   7.841   0.688  0.0692  1.0310  2.3463
  832MOL0     H 9816   4.510   7.845   0.914 -1.6301  1.6875 -1.1888
  832MOL0     H 9817   4.492   7.660   0.903  1.0755  0.8207  1.4416
  832MOL0     H 9818   4.630   7.853   0.701  0.1252  0.3143  0.3884
  832MOL0     H 9819   4.600   7.670   0.682  0.9134  1.3914 -1.5396
  832MOL0     H 9820   4.746   7.785   0.915  1.7691  1.4020 -1.9225
  832MOL0     H 9821   4.734   7.620   0.867 -1.2954 -1.1390 -1.9600
  832MOL0     H 9822   5.012   7.806   0.595  1.3136 -0.9396  0.9833
  832MOL0     H 9823   4.215   7.386   0.764 -1.0102 -0.2158 -0.3324
  832MOL0     H 9824   3.989   7.322   0.736  2.3471 -0.8213 -3.1773
  833MOL0     O 9825  10.171   0.794  11.137  0.1632  0.2441  0.1737
  833MOL0     C 9826  10.160   0.915  11.100 -0.2646  0.4122  0.0603
  833MOL0     O 9827  10.068   1.005  11.142 -0.1113 -0.2258 -0.0319
  833MOL0     C 9828   9.958   0.966  11.219  0.4997  0.3864  0.7924
  833MOL0     C 9829   9.945   0.862  11.306  0.2856  0.0974  0.1115
  833MOL0     C 9830   9.831   0.829  11.389 -0.1789 -0.1919  0.3771
  833MOL0     C 9831   9.722   0.901  11.362  0.9345 -0.9051 -0.1335
  833MOL0     O 9832   9.593   0.871  11.415  0.2884  0.3393  0.3728
  833MOL0     C 9833   9.594   0.915  11.549  0.6664 -0.2272  0.1431
  833MOL0     C 9834   9.455   0.965  11.608  0.4397 -0.3873  0.1048
  833MOL0     C 9835   9.370   1.057  11.522  0.0790 -0.5868 -0.1003
  833MOL0     C 9836   9.243   1.108  11.595 -0.1896 -0.9400 -0.0841
  833MOL0     C 9837   9.122   1.162  11.522  0.5328  0.3788 -0.2915
  833MOL0     C 9838   9.050   1.052  11.435 -0.9340 -0.4088  0.1825
  833MOL0     C 9839   8.942   1.100  11.340 -0.0683 -0.6830  0.2588
  833MOL0     C 9840   8.813   1.134  11.411  0.1997 -1.5144  0.2294
  833MOL0     N 9841   8.713   1.175  11.308 -0.4940 -0.0483 -0.0086
  833MOL0     C 9842   8.663   1.300  11.290  0.0085 -0.0368 -1.2806
  833MOL0     C 9843   8.586   1.295  11.179  0.4724 -0.6336 -0.4106
  833MOL0     C 9844   8.518   1.419  11.115 -0.1599  0.1221 -0.9789
  833MOL0     C 9845   8.419   1.502  11.209  0.2526  0.4638  0.1643
  833MOL0     C 9846   8.299   1.548  11.123  0.2491  0.2692  0.4354
  833MOL0     C 9847   8.241   1.677  11.169  0.1736 -0.6178 -0.0761
  833MOL0     O 9848   8.179   1.653  11.300 -0.2955 -0.5355  0.6329
  833MOL0     C 9849   8.056   1.586  11.305  1.0254 -0.1271 -0.1145
  833MOL0     C 9850   8.012   1.534  11.428 -0.6373  0.0057  0.3183
  833MOL0     C 9851   7.886   1.471  11.450 -0.7546 -0.5750  0.3122
  833MOL0     C 9852   7.797   1.457  11.343  0.5102 -0.3789 -0.1720
  833MOL0     C 9853   7.663   1.390  11.374  0.3464  0.0190  0.4683
  833MOL0     O 9854   7.603   1.319  11.282  0.0991 -0.3494  0.0081
  833MOL0     C 9855   7.481   1.251  11.280  0.7515 -0.6025  0.8327
  833MOL0     C 9856   7.475   1.129  11.212  0.7425  0.6492  0.7401
  833MOL0     C 9857   7.350   1.052  11.215 -0.8476 -0.1444 -0.5405
  833MOL0     C 9858   7.234   1.104  11.272  0.7429  0.0668 -0.1960
  833MOL0     O 9859   7.124   1.026  11.292 -0.0385  0.5414  0.0143
  833MOL0     C 9860   7.048   1.027  11.415 -0.4063 -0.7733  1.0944
  833MOL0     C 9861   6.936   0.927  11.384 -0.0555 -0.7445  0.8511
  833MOL0     C 9862   6.856   0.895  11.502  0.5268 -0.3433 -0.3329
  833MOL0     C 9863   6.756   0.779  11.475  0.5413  0.2766  0.2171
  833MOL0     C 9864   6.668   0.758  11.600 -0.2446 -1.1754 -0.3572
  833MOL0     C 9865   6.547   0.662  11.574  1.6676 -0.1158 -0.0617
  833MOL0     C 9866   6.436   0.738  11.497  0.5558  0.1493 -1.2848
  833MOL0     C 9867   6.317   0.655  11.463 -0.3938 -0.4670 -0.1697
  833MOL0    Cl 9868   6.390   0.531  11.350 -0.0515 -0.1740 -0.0459
  833MOL0     C 9869   7.235   1.238  11.329 -0.1404  0.0440  1.3462
  833MOL0     C 9870   7.361   1.307  11.331 -0.4262  0.6640  0.5456
  833MOL0     O 9871   7.625   1.402  11.489 -0.2378 -0.3810 -0.3552
  833MOL0     C 9872   7.847   1.495  11.213  0.1567 -0.2995  0.6583
  833MOL0     C 9873   7.963   1.571  11.201 -0.4888  0.1756  0.0662
  833MOL0     N 9874   8.598   1.162  11.133  0.0229  0.3760  0.2577
  833MOL0     N 9875   8.675   1.092  11.207  0.0779 -0.2635 -0.3991
  833MOL0     C 9876   9.724   1.005  11.269 -0.1056 -0.7399  0.1290
  833MOL0     C 9877   9.841   1.039  11.202 -1.2169 -0.5234  0.3302
  833MOL0     C 9878  10.286   0.978  11.042  0.6640  0.3194  0.2421
  833MOL0     C 9879  10.409   0.898  11.029  0.8679 -0.5925  0.1912
  833MOL0     C 9880  10.527   0.962  10.982  0.1056  0.3530  0.0653
  833MOL0     C 9881  10.527   1.095  10.946  0.3061 -0.8929  0.6006
  833MOL0     O 9882  10.626   1.172  10.901 -0.3249  0.1556  0.3403
  833MOL0     C 9883  10.761   1.126  10.901  0.3752 -0.4758  0.1169
  833MOL0     C 9884  10.845   1.239  10.835 -0.2780 -0.2438  0.1631
  833MOL0     C 9885  10.782   1.290  10.712  0.1708 -0.6970  0.8108
  833MOL0     C 9886  10.897   1.315  10.610 -0.3891 -0.0616 -0.0993
  833MOL0     C 9887  10.954   1.445  10.626  0.0275 -0.7559 -0.0359
  833MOL0     C 9888  11.003   1.559  10.627  0.1158  0.2151 -0.0958
  833MOL0     C 9889  10.401   1.166  10.951 -0.0216 -0.3016  0.5500
  833MOL0     C 9890  10.282   1.113  11.001 -1.4265 -0.4101 -0.1377
  833MOL0     H 9891  10.028   0.791  11.303  2.0674  2.0706 -3.2809
  833MOL0     H 9892   9.819   0.747  11.458 -0.1701  0.4503  1.1572
  833MOL0     H 9893   9.664   0.997  11.565  0.4560  0.1304 -0.7063
  833MOL0     H 9894   9.621   0.829  11.611 -1.0024 -0.3329  0.7716
  833MOL0     H 9895   9.471   1.013  11.705  1.1888  1.7024 -0.9979
  833MOL0     H 9896   9.393   0.875  11.623  0.7976 -0.2572  2.8687
  833MOL0     H 9897   9.350   1.001  11.431 -2.1560  2.2634 -1.5115
  833MOL0     H 9898   9.433   1.145  11.505 -0.5201  0.1121  1.1357
  833MOL0     H 9899   9.212   1.024  11.658  1.3854 -0.9287  0.7554
  833MOL0     H 9900   9.282   1.186  11.661  2.1369 -2.5303  0.5432
  833MOL0     H 9901   9.136   1.249  11.457  0.7344 -0.6969 -1.7392
  833MOL0     H 9902   9.054   1.188  11.604  1.2541  1.0431  0.1122
  833MOL0     H 9903   9.017   0.968  11.497  0.3779 -0.1088  1.3248
  833MOL0     H 9904   9.130   1.015  11.369  1.0078  1.8904  1.1133
  833MOL0     H 9905   8.968   1.194  11.291 -0.9069  0.9851  2.7696
  833MOL0     H 9906   8.914   1.027  11.265  0.8505 -1.0073  0.2197
  833MOL0     H 9907   8.833   1.222  11.472  1.7326 -0.8862 -1.1095
  833MOL0     H 9908   8.776   1.049  11.469 -0.9075 -0.6073  0.8969
  833MOL0     H 9909   8.687   1.383  11.356 -2.1316  0.0194 -0.4931
  833MOL0     H 9910   8.480   1.377  11.021  3.8885 -2.8903 -1.5720
  833MOL0     H 9911   8.593   1.489  11.076  0.4058  0.0654 -0.0153
  833MOL0     H 9912   8.476   1.581  11.258  0.3581  0.7854 -0.4691
  833MOL0     H 9913   8.390   1.437  11.292  1.1997  1.2151  1.1101
  833MOL0     H 9914   8.337   1.561  11.021  0.2218 -3.8051 -0.2419
  833MOL0     H 9915   8.226   1.467  11.126  1.9972 -1.4258 -0.1811
  833MOL0     H 9916   8.165   1.718  11.102 -1.8565  0.6287  2.7564
  833MOL0     H 9917   8.313   1.759  11.178 -1.9807  1.5023 -0.8399
  833MOL0     H 9918   8.077   1.529  11.514  1.1530 -0.4670 -0.9935
  833MOL0     H 9919   7.851   1.439  11.547 -0.8240  0.2550  0.5721
  833MOL0     H 9920   7.571   1.096  11.175  1.4133 -0.6321  3.3799
  833MOL0     H 9921   7.364   0.952  11.177  3.8324 -0.4716  1.4172
  833MOL0     H 9922   7.006   1.127  11.428  1.1961 -0.2346  2.5468
  833MOL0     H 9923   7.109   0.996  11.500  0.9519  2.1245  1.3182
  833MOL0     H 9924   6.967   0.830  11.345 -0.7021  0.0687 -1.9679
  833MOL0     H 9925   6.886   0.966  11.295 -1.5472 -6.0463 -0.9995
  833MOL0     H 9926   6.803   0.989  11.521 -0.9406 -1.0378 -0.9127
  833MOL0     H 9927   6.922   0.875  11.587  1.6610  1.4931 -0.7209
  833MOL0     H 9928   6.686   0.806  11.396  0.2199  0.0317  0.4144
  833MOL0     H 9929   6.811   0.687  11.452  1.1891  0.3943  1.2124
  833MOL0     H 9930   6.623   0.850  11.640 -2.7725 -2.6817  0.4983
  833MOL0     H 9931   6.733   0.720  11.678 -0.0457 -1.1458 -0.5068
  833MOL0     H 9932   6.510   0.626  11.671 -2.2291 -0.7192 -1.5667
  833MOL0     H 9933   6.570   0.569  11.522 -1.2110 -0.5690 -0.6896
  833MOL0     H 9934   6.408   0.836  11.536  0.7420  0.4683 -1.9415
  833MOL0     H 9935   6.482   0.765  11.402  1.2952 -0.4602 -1.1112
  833MOL0     H 9936   6.240   0.716  11.414 -1.5151 -1.0833  0.7698
  833MOL0     H 9937   6.277   0.601  11.550 -2.9906  0.5907 -0.6246
  833MOL0     H 9938   7.138   1.273  11.363  0.1597  2.0406  0.3057
  833MOL0     H 9939   7.382   1.403  11.377 -0.5530  1.6217 -1.2959
  833MOL0     H 9940   7.786   1.490  11.123  0.6026 -1.7414  0.4193
  833MOL0     H 9941   7.982   1.637  11.116 -1.7219  1.3908  0.6898
  833MOL0     H 9942   9.634   1.064  11.254 -0.0911  0.5757  4.0728
  833MOL0     H 9943   9.840   1.123  11.133 -4.4621  2.0582  3.1324
  833MOL0     H 9944  10.415   0.797  11.068 -0.4261 -0.2030  1.4937
  833MOL0     H 9945  10.618   0.905  10.965 -1.1934 -1.7212 -0.2733
  833MOL0     H 9946  10.776   1.030  10.852  0.4401  0.5594 -2.0433
  833MOL0     H 9947  10.790   1.118  11.006 -0.4872  4.2203  0.9396
  833MOL0     H 9948  10.853   1.325  10.903  2.4573  1.8469 -2.5552
  833MOL0     H 9949  10.940   1.192  10.808 -0.6861 -1.9166  1.4612
  833MOL0     H 9950  10.721   1.380  10.722  2.2622  0.7966  0.9591
  833MOL0     H 9951  10.710   1.220  10.669 -1.1334  2.4560 -2.6568
  833MOL0     H 9952  10.978   1.241  10.615 -0.9393 -0.5938  2.7386
  833MOL0     H 9953  10.853   1.315  10.510  0.6685 -2.4706 -0.6522
  833MOL0     H 9954  11.062   1.648  10.632  2.6276 -1.4189  2.7269
  833MOL0     H 9955  10.406   1.267  10.914  3.1026 -1.3377 -2.3383
  833MOL0     H 9956  10.190   1.169  10.999 -1.2392 -0.0733  0.3456
  834MOL0     O 9957   9.099   9.536   4.978 -0.3136 -0.2537  0.6593
  834MOL0     C 9958   9.126   9.578   4.862  0.7457 -0.8434 -0.0505
  834MOL0     O 9959   9.251   9.575   4.807  0.3556  0.6444  0.3606
  834MOL0     C 9960   9.363   9.549   4.884  1.2913  0.8257 -0.0978
  834MOL0     C 9961   9.378   9.584   5.015  0.2683  0.5761 -0.7564
  834MOL0     C 9962   9.499   9.552   5.082 -0.3369 -0.3073 -0.5843
  834MOL0     C 9963   9.592   9.467   5.020 -0.0154 -1.2050 -0.4035
  834MOL0     O 9964   9.704   9.416   5.094  0.0005 -0.5672  0.4578
  834MOL0     C 9965   9.842   9.438   5.040  0.4420  0.1377  0.2528
  834MOL0     C 9966   9.934   9.499   5.153  0.7493 -0.7324 -0.1582
  834MOL0     C 9967   9.942   9.398   5.276  0.0002 -0.2303 -0.1211
  834MOL0     C 9968  10.027   9.456   5.386  0.3593  0.0211 -0.1450
  834MOL0     C 9969  10.037   9.352   5.495 -0.3316 -0.2732 -0.1824
  834MOL0     C 9970   9.899   9.296   5.549  0.4188  0.8368  0.5639
  834MOL0     C 9971   9.812   9.415   5.600  0.3328  0.9365  0.5327
  834MOL0     C 9972   9.688   9.385   5.686 -0.1871 -0.0744 -0.0820
  834MOL0     N 9973   9.578   9.312   5.616  0.1614 -0.4825 -0.5443
  834MOL0     C 9974   9.520   9.348   5.496 -0.3448 -0.8551 -0.2061
  834MOL0     C 9975   9.398   9.284   5.492  0.8790 -0.1086  0.0121
  834MOL0     C 9976   9.290   9.311   5.389  0.3560  0.6571 -1.4637
  834MOL0     C 9977   9.147   9.320   5.441  0.7370 -0.0105 -1.0281
  834MOL0     C 9978   9.039   9.331   5.328 -0.5058 -0.1328 -0.7299
  834MOL0     C 9979   8.896   9.316   5.375  0.7406  0.0336  0.8227
  834MOL0     O 9980   8.855   9.403   5.472 -0.3284  0.4271 -0.5497
  834MOL0     C 9981   8.721   9.440   5.479 -0.4068  0.0090 -0.6201
  834MOL0     C 9982   8.617   9.371   5.412  0.1616 -0.4096  0.2350
  834MOL0     C 9983   8.488   9.422   5.408 -0.7176 -0.0430  0.8126
  834MOL0     C 9984   8.450   9.545   5.477 -0.3486 -0.8080  0.0381
  834MOL0     C 9985   8.312   9.590   5.471 -0.0826 -0.3112  0.8918
  834MOL0     O 9986   8.232   9.516   5.381  0.4494 -0.6018  0.0929
  834MOL0     C 9987   8.095   9.524   5.409 -0.5095 -0.4538 -0.3886
  834MOL0     C 9988   8.031   9.396   5.421 -0.1926  0.3362 -0.4704
  834MOL0     C 9989   7.888   9.388   5.438 -0.6259  1.1091 -0.7386
  834MOL0     C 9990   7.810   9.504   5.446 -0.9097 -0.8829 -0.0615
  834MOL0     O 9991   7.670   9.504   5.447 -0.4790 -0.3087  0.1555
  834MOL0     C 9992   7.592   9.384   5.442 -0.1091 -0.4225 -0.6207
  834MOL0     C 9993   7.451   9.433   5.421 -0.2031 -0.1190  0.7280
  834MOL0     C 9994   7.356   9.315   5.419 -0.8410 -0.0465 -0.2034
  834MOL0     C 9995   7.203   9.337   5.401  0.5172  0.1815 -0.0159
  834MOL0     C 9996   7.145   9.194   5.357 -0.2984  0.0536 -0.0932
  834MOL0     C 9997   6.990   9.189   5.387 -0.1574  0.3619  0.2622
  834MOL0     C 9998   6.930   9.054   5.351 -0.2957 -0.6379 -0.7385
  834MOL0     C 9999   6.781   9.049   5.398 -0.0243  0.2418 -0.1622
  834MOL0    Cl10000   6.708   8.892   5.351  0.5957  0.0677  0.1903
  834MOL0     C10001   7.875   9.632   5.432 -0.1711  0.2854 -0.4812
  834MOL0     C10002   8.014   9.642   5.412 -1.1137  0.0856  0.3551
  834MOL0     O10003   8.281   9.690   5.530  0.1664  0.0623  0.2366
  834MOL0     C10004   8.553   9.602   5.554  0.7027  0.2150 -0.2649
  834MOL0     C10005   8.689   9.554   5.550  0.6460 -0.2164 -0.9190
  834MOL0     N10006   9.395   9.205   5.606  0.3670  1.0561 -0.4784
  834MOL0     N10007   9.495   9.223   5.675  0.6715  0.1610  0.7627
  834MOL0     C10008   9.573   9.431   4.891 -0.4592 -0.6163 -0.5136
  834MOL0     C10009   9.467   9.480   4.815  0.0033 -0.3290 -0.5814
  834MOL0     C10010   9.009   9.633   4.781 -1.8979  0.9645 -0.4888
  834MOL0     C10011   8.877   9.611   4.829 -1.2192  0.2778 -0.5912
  834MOL0     C10012   8.770   9.649   4.758  0.0640 -0.0125  0.2783
  834MOL0     C10013   8.785   9.711   4.631 -0.3915 -0.1603 -0.0140
  834MOL0     O10014   8.684   9.736   4.540  0.0275 -0.8703 -0.0352
  834MOL0     C10015   8.555   9.679   4.581 -0.5825  0.0765  0.2102
  834MOL0     C10016   8.452   9.772   4.524 -0.0994  0.6593  0.0235
  834MOL0     C10017   8.317   9.768   4.601 -0.3699  0.4876  0.9957
  834MOL0     C10018   8.201   9.860   4.540  0.2863  0.5522  0.1825
  834MOL0     C10019   8.179   9.835   4.395 -0.1795 -0.4963 -0.0791
  834MOL0     C10020   8.171   9.808   4.279 -0.2430 -0.5235  0.3049
  834MOL0     C10021   8.918   9.737   4.587  0.3975 -0.8054  0.3018
  834MOL0     C10022   9.031   9.692   4.664  0.3091  0.0281  0.1378
  834MOL0     H10023   9.307   9.645   5.070  1.4966  2.0515 -0.7538
  834MOL0     H10024   9.522   9.575   5.186 -3.0054 -4.5820  1.2255
  834MOL0     H10025   9.849   9.505   4.954 -1.3359 -0.1430 -0.1453
  834MOL0     H10026   9.882   9.339   5.016 -0.5778 -0.3124  0.3742
  834MOL0     H10027   9.901   9.598   5.186 -0.6991 -0.8794 -1.0771
  834MOL0     H10028  10.033   9.512   5.107 -0.9046 -0.8799 -4.1193
  834MOL0     H10029   9.969   9.297   5.242 -0.5249  0.7968 -4.0424
  834MOL0     H10030   9.839   9.390   5.312 -0.3967  0.3526 -1.0918
  834MOL0     H10031  10.127   9.491   5.356  0.8025 -2.5120 -1.9295
  834MOL0     H10032   9.968   9.539   5.426  0.5804  0.6641 -1.1109
  834MOL0     H10033  10.092   9.396   5.579  1.8458 -0.1207 -1.5969
  834MOL0     H10034  10.091   9.264   5.461 -1.3491 -1.5185  1.2871
  834MOL0     H10035   9.917   9.223   5.628 -0.3571 -2.0240 -1.7531
  834MOL0     H10036   9.848   9.244   5.467  1.6838 -0.7562  0.7436
  834MOL0     H10037   9.882   9.472   5.662 -0.4983 -0.2756  2.6814
  834MOL0     H10038   9.783   9.480   5.517  3.0802  0.5824 -0.8328
  834MOL0     H10039   9.655   9.474   5.741  0.8417  0.9397 -1.0766
  834MOL0     H10040   9.720   9.309   5.758 -0.5284  0.7217  0.9358
  834MOL0     H10041   9.548   9.431   5.432 -2.7179  1.5050  1.6041
  834MOL0     H10042   9.291   9.242   5.304 -1.5829  1.0383 -1.8450
  834MOL0     H10043   9.306   9.411   5.348  1.5811  1.1079  0.0241
  834MOL0     H10044   9.136   9.414   5.496  0.6413 -1.2342  1.1197
  834MOL0     H10045   9.121   9.233   5.501 -2.5301  1.0855 -0.6639
  834MOL0     H10046   9.057   9.423   5.272  0.0087  0.2755  0.0852
  834MOL0     H10047   9.062   9.242   5.267  2.4429  0.1175 -0.1489
  834MOL0     H10048   8.885   9.209   5.394  0.2370  0.0217  0.4929
  834MOL0     H10049   8.835   9.332   5.285  0.9984 -1.6790  0.2864
  834MOL0     H10050   8.638   9.275   5.367  2.0636 -0.4416  1.0881
  834MOL0     H10051   8.409   9.377   5.349  0.5730  2.0415 -2.8456
  834MOL0     H10052   8.094   9.312   5.393  0.1329  0.8733 -1.4052
  834MOL0     H10053   7.845   9.289   5.430 -2.9232  1.7972  1.7322
  834MOL0     H10054   7.601   9.339   5.541 -1.2583  2.4842  0.9574
  834MOL0     H10055   7.629   9.322   5.361  0.0687 -1.0646 -0.0558
  834MOL0     H10056   7.452   9.487   5.326 -1.5204 -0.2067  0.6476
  834MOL0     H10057   7.415   9.502   5.498  0.2173 -0.3685  1.1495
  834MOL0     H10058   7.362   9.269   5.518 -0.9138  1.3539  0.4743
  834MOL0     H10059   7.383   9.244   5.340 -0.4043  1.6191 -1.6182
  834MOL0     H10060   7.159   9.389   5.487  1.2347 -0.4702  0.7751
  834MOL0     H10061   7.183   9.397   5.312 -2.0473  1.7654  1.5165
  834MOL0     H10062   7.183   9.120   5.427  0.8038 -0.1278 -0.8543
  834MOL0     H10063   7.166   9.173   5.251 -3.2566  0.3389 -0.8410
  834MOL0     H10064   6.942   9.269   5.329 -1.0397 -2.4643 -3.2887
  834MOL0     H10065   6.982   9.207   5.495 -0.8566 -0.9896  0.4635
  834MOL0     H10066   6.935   9.040   5.242  0.6342 -1.0226 -0.6523
  834MOL0     H10067   6.993   8.980   5.400  0.4305  0.8791  0.7204
  834MOL0     H10068   6.728   9.130   5.346 -3.7227 -0.9760  1.3680
  834MOL0     H10069   6.779   9.061   5.507  1.6069  0.7225 -0.1582
  834MOL0     H10070   7.809   9.717   5.447  0.3084  0.4085  1.1672
  834MOL0     H10071   8.077   9.731   5.407  1.0751 -1.4100 -0.6625
  834MOL0     H10072   8.529   9.688   5.615  0.6983 -0.1786  0.3003
  834MOL0     H10073   8.775   9.580   5.612  1.1649 -1.2582 -1.1730
  834MOL0     H10074   9.642   9.374   4.829  0.7969  3.0964 -2.9015
  834MOL0     H10075   9.457   9.450   4.711  0.0354  0.8849 -0.9550
  834MOL0     H10076   8.861   9.560   4.923 -1.3782 -0.7094 -1.1454
  834MOL0     H10077   8.677   9.616   4.804 -0.1320  2.0431  1.4961
  834MOL0     H10078   8.539   9.663   4.688  1.7341 -2.2253  0.3237
  834MOL0     H10079   8.546   9.582   4.531 -0.4548 -0.1894  0.6950
  834MOL0     H10080   8.491   9.874   4.535  0.6136  0.3544  0.3983
  834MOL0     H10081   8.437   9.750   4.418  2.0615 -1.2455  0.0379
  834MOL0     H10082   8.331   9.806   4.703 -0.8023 -0.2193  1.3252
  834MOL0     H10083   8.287   9.664   4.594 -2.5803  1.1984 -2.2371
  834MOL0     H10084   8.108   9.836   4.594  0.7898 -1.2557  0.3099
  834MOL0     H10085   8.226   9.965   4.552  2.9036  0.0438 -0.2426
  834MOL0     H10086   8.164   9.798   4.172  0.2528  1.9774 -0.0356
  834MOL0     H10087   8.948   9.794   4.500  0.2573  0.0848  0.8261
  834MOL0     H10088   9.134   9.715   4.641  0.4144  0.7790  1.2977
  835MOL0     O10089   4.685   3.296   7.371  0.2416 -0.4750  0.1791
  835MOL0     C10090   4.783   3.334   7.440  0.8441  0.4146  0.4803
  835MOL0     O10091   4.794   3.310   7.572 -0.5576  0.0357 -0.2678
  835MOL0     C10092   4.696   3.259   7.662  0.1544 -0.2570  0.7705
  835MOL0     C10093   4.564   3.303   7.663  0.2624  1.1603 -0.5695
  835MOL0     C10094   4.478   3.259   7.774 -0.4312 -0.7370 -0.1146
  835MOL0     C10095   4.525   3.163   7.863  0.5330 -0.0712  0.1360
  835MOL0     O10096   4.460   3.114   7.973 -0.4106 -0.1483 -0.3085
  835MOL0     C10097   4.324   3.056   7.964 -0.7954  0.1907  0.2919
  835MOL0     C10098   4.293   2.964   8.084 -0.0847 -0.7384 -0.6419
  835MOL0     C10099   4.142   2.962   8.103  0.3414 -0.4593 -1.0497
  835MOL0     C10100   4.088   2.886   8.228 -0.0050 -0.0741  0.4359
  835MOL0     C10101   3.938   2.879   8.237  0.2881 -0.7933 -0.2334
  835MOL0     C10102   3.884   3.020   8.243  0.3932  0.1156 -0.3119
  835MOL0     C10103   3.723   3.026   8.221 -0.4127 -0.2687 -0.2434
  835MOL0     C10104   3.646   2.940   8.328  0.3674 -0.2785 -0.3567
  835MOL0     N10105   3.505   2.979   8.325 -0.3765 -0.3718  0.2685
  835MOL0     C10106   3.402   2.912   8.260  0.5759 -1.3307  0.1917
  835MOL0     C10107   3.298   2.987   8.288  0.2859 -0.6783  0.5049
  835MOL0     C10108   3.153   2.978   8.245  0.0174 -0.1503  0.3127
  835MOL0     C10109   3.130   3.029   8.106  0.2248 -0.5875  0.5332
  835MOL0     C10110   3.124   3.184   8.101  0.1984 -0.0151  0.7024
  835MOL0     C10111   3.084   3.231   7.968 -0.1764 -0.9073  0.1358
  835MOL0     O10112   2.961   3.182   7.906  0.5511 -0.4480  0.6224
  835MOL0     C10113   2.840   3.193   7.976 -0.0490  0.1362 -0.0403
  835MOL0     C10114   2.822   3.280   8.088  0.5064  0.5244 -0.8589
  835MOL0     C10115   2.699   3.287   8.151  0.6147  0.2030  0.3335
  835MOL0     C10116   2.586   3.210   8.103  0.6505  0.0657  0.4710
  835MOL0     C10117   2.459   3.207   8.175  0.8061 -0.1346  0.9315
  835MOL0     O10118   2.372   3.104   8.152  0.0453  0.5060 -0.2189
  835MOL0     C10119   2.239   3.119   8.169  0.4454  0.0466 -0.1052
  835MOL0     C10120   2.170   3.238   8.152 -0.7293 -0.0858  0.3253
  835MOL0     C10121   2.030   3.249   8.154  0.2289  0.5022  0.0167
  835MOL0     C10122   1.954   3.130   8.191  1.3841  0.3507  0.1369
  835MOL0     O10123   1.818   3.131   8.186 -0.0383  0.2527 -0.6438
  835MOL0     C10124   1.740   3.234   8.262 -0.0057  0.1789 -0.0215
  835MOL0     C10125   1.588   3.204   8.271 -0.9049  0.9238 -0.8061
  835MOL0     C10126   1.586   3.069   8.357  1.3253  0.5553  0.3658
  835MOL0     C10127   1.437   3.051   8.409 -0.2309 -0.4356  0.2773
  835MOL0     C10128   1.404   3.139   8.532 -0.9341  0.0445  0.0667
  835MOL0     C10129   1.253   3.125   8.538 -0.4873  0.0068  0.1067
  835MOL0     C10130   1.197   3.200   8.654  0.1514 -0.8349  0.0645
  835MOL0     C10131   1.048   3.215   8.645  0.5422  0.0494  0.2831
  835MOL0    Cl10132   0.967   3.053   8.633 -0.0250  0.2773 -0.2003
  835MOL0     C10133   2.026   3.015   8.211 -0.5462  0.5211  0.5449
  835MOL0     C10134   2.164   3.007   8.196 -0.5564 -1.1462  0.9190
  835MOL0     O10135   2.440   3.298   8.257  0.2537  0.7897 -0.1919
  835MOL0     C10136   2.611   3.119   7.995 -0.3384  0.6086 -0.1660
  835MOL0     C10137   2.731   3.115   7.933 -0.6006  0.5094 -0.3941
  835MOL0     N10138   3.338   3.093   8.363 -0.9427  0.1071 -0.6249
  835MOL0     N10139   3.463   3.092   8.378  0.4426  0.1804 -0.9346
  835MOL0     C10140   4.661   3.112   7.846  0.1627 -0.2662 -0.0469
  835MOL0     C10141   4.742   3.167   7.751 -0.1597  0.0711  0.0420
  835MOL0     C10142   4.879   3.419   7.372  1.4564  0.1337 -0.2755
  835MOL0     C10143   4.842   3.492   7.259 -0.7617 -0.4308 -0.6202
  835MOL0     C10144   4.922   3.595   7.213  1.0368 -0.1748  0.6873
  835MOL0     C10145   5.050   3.627   7.263  0.3548 -0.3646  0.7493
  835MOL0     O10146   5.128   3.723   7.194 -0.3561 -1.6623  0.2212
  835MOL0     C10147   5.254   3.785   7.243  0.5652 -0.6141  0.4497
  835MOL0     C10148   5.390   3.706   7.226  0.2292 -0.0361  0.2300
  835MOL0     C10149   5.411   3.658   7.079 -0.0861  0.2315  0.3407
  835MOL0     C10150   5.344   3.523   7.061 -0.2179  0.0874 -0.0504
  835MOL0     C10151   5.334   3.504   6.916 -0.2021  0.4877 -0.7218
  835MOL0     C10152   5.346   3.499   6.797 -0.1721  0.2958  0.5689
  835MOL0     C10153   5.093   3.534   7.367  0.5805  0.2042  0.3943
  835MOL0     C10154   5.007   3.442   7.428  0.0373 -0.0953 -0.2833
  835MOL0     H10155   4.534   3.378   7.590 -3.0112 -0.2594 -0.8545
  835MOL0     H10156   4.373   3.289   7.782 -1.2533 -2.3222 -3.2885
  835MOL0     H10157   4.303   3.008   7.869 -0.2325  2.8374 -1.2694
  835MOL0     H10158   4.249   3.136   7.963 -1.8172 -0.7437  0.4633
  835MOL0     H10159   4.337   2.997   8.178  1.8982 -0.4606 -1.6150
  835MOL0     H10160   4.334   2.864   8.069 -2.2946 -1.9164  0.6635
  835MOL0     H10161   4.093   2.909   8.021 -1.2023 -2.2368  0.9026
  835MOL0     H10162   4.110   3.066   8.105 -0.0229 -0.5820  0.1347
  835MOL0     H10163   4.136   2.788   8.237 -0.6975 -0.5765 -1.0115
  835MOL0     H10164   4.117   2.941   8.319  0.1982 -0.4714  0.6154
  835MOL0     H10165   3.916   2.837   8.335 -1.5094  1.4498  0.4251
  835MOL0     H10166   3.889   2.815   8.163  2.0660 -1.8136 -0.5866
  835MOL0     H10167   3.930   3.093   8.176 -1.7078  1.9617  0.1343
  835MOL0     H10168   3.904   3.060   8.343 -1.4145  0.6562 -0.1169
  835MOL0     H10169   3.694   3.132   8.226  0.3351  0.1295 -2.7883
  835MOL0     H10170   3.694   2.996   8.120  3.3023  0.7677 -1.8052
  835MOL0     H10171   3.683   2.950   8.430  0.3602 -2.9339 -0.0316
  835MOL0     H10172   3.646   2.835   8.299  0.8639 -0.5021  0.4403
  835MOL0     H10173   3.411   2.823   8.199 -0.9274 -1.9834  0.8750
  835MOL0     H10174   3.094   3.040   8.313 -1.3856 -0.8324 -0.2385
  835MOL0     H10175   3.114   2.876   8.250 -0.6022  0.0949  5.0939
  835MOL0     H10176   3.039   2.983   8.067 -0.7422  2.6104 -1.3200
  835MOL0     H10177   3.210   2.990   8.043  0.0722 -2.2095  1.2954
  835MOL0     H10178   3.065   3.231   8.180  0.8192  1.4662  0.3245
  835MOL0     H10179   3.224   3.225   8.115  0.4297 -0.1090 -0.5263
  835MOL0     H10180   3.159   3.212   7.891 -0.3041  0.7947 -0.4557
  835MOL0     H10181   3.067   3.338   7.986  1.8803 -0.7792  1.7072
  835MOL0     H10182   2.899   3.344   8.132  0.6709 -1.1416  1.4590
  835MOL0     H10183   2.680   3.352   8.236  3.4696  0.1753  1.1010
  835MOL0     H10184   2.220   3.329   8.122  0.3754 -0.6630  0.3665
  835MOL0     H10185   1.969   3.338   8.143 -3.7937 -2.2306 -2.0501
  835MOL0     H10186   1.744   3.325   8.201  0.3034 -0.2984 -0.7328
  835MOL0     H10187   1.779   3.244   8.364  0.0019 -1.2047  0.1300
  835MOL0     H10188   1.562   3.186   8.166 -1.0317  3.0394 -1.1808
  835MOL0     H10189   1.534   3.276   8.333  0.3522  1.1590  0.0732
  835MOL0     H10190   1.655   3.072   8.441  1.6539 -0.0356  0.1263
  835MOL0     H10191   1.612   2.980   8.300 -0.9417  0.4594 -0.6035
  835MOL0     H10192   1.368   3.069   8.325 -0.7286 -1.1790  0.5124
  835MOL0     H10193   1.426   2.946   8.438 -1.9883 -0.3509  0.0287
  835MOL0     H10194   1.421   3.246   8.516 -1.5911 -0.1155 -2.0737
  835MOL0     H10195   1.466   3.101   8.614 -2.1209  0.5916  1.2535
  835MOL0     H10196   1.221   3.022   8.558 -3.1130  1.0633  1.9591
  835MOL0     H10197   1.219   3.172   8.446  0.4455  0.9831  0.2429
  835MOL0     H10198   1.209   3.146   8.749  0.5064 -1.2228 -0.1969
  835MOL0     H10199   1.250   3.296   8.656 -1.3862  0.1612 -2.5616
  835MOL0     H10200   1.016   3.277   8.561 -2.2993 -1.8024 -0.1615
  835MOL0     H10201   1.005   3.261   8.734  2.5850  3.2173 -0.2155
  835MOL0     H10202   1.966   2.925   8.225 -0.9395  0.9778  1.9173
  835MOL0     H10203   2.211   2.909   8.190  1.5252 -0.0897 -1.7885
  835MOL0     H10204   2.530   3.054   7.963 -1.6151  1.4733  1.1877
  835MOL0     H10205   2.752   3.032   7.866  1.1188  0.1552  0.5235
  835MOL0     H10206   4.708   3.044   7.916 -0.7966  0.8823  1.7899
  835MOL0     H10207   4.844   3.130   7.744 -0.4046 -0.8285  1.0379
  835MOL0     H10208   4.747   3.490   7.206  0.8177  1.4555 -3.8569
  835MOL0     H10209   4.869   3.645   7.133 -0.4154 -0.7345  1.2558
  835MOL0     H10210   5.247   3.814   7.348  1.5920  0.0755  0.3405
  835MOL0     H10211   5.261   3.879   7.188  1.9295  0.2228  1.9790
  835MOL0     H10212   5.477   3.765   7.255 -0.0819 -1.0366  3.7158
  835MOL0     H10213   5.393   3.628   7.303  0.1777  1.4447  1.7756
  835MOL0     H10214   5.518   3.655   7.054 -0.0871 -2.6904  0.3488
  835MOL0     H10215   5.358   3.735   7.023  1.7838 -0.4422 -2.5895
  835MOL0     H10216   5.408   3.444   7.101  0.5321  1.3393  1.3204
  835MOL0     H10217   5.242   3.523   7.101  0.7539 -0.6950  2.5809
  835MOL0     H10218   5.370   3.512   6.694  3.6691 -0.1686  1.2718
  835MOL0     H10219   5.193   3.522   7.407  1.9538  0.1008 -2.8102
  835MOL0     H10220   5.032   3.384   7.516 -1.7854  0.6630  0.7932
  836MOL0     O10221  11.138   3.983   2.687 -0.0864  0.0704  0.6586
  836MOL0     C10222  11.236   4.052   2.651  0.6697 -0.5236 -0.7448
  836MOL0     O10223  11.224   4.187   2.618  0.0185  0.5288  0.0526
  836MOL0     C10224  11.095   4.238   2.599 -0.1977 -0.4995  0.3185
  836MOL0     C10225  11.065   4.302   2.478  0.8534  0.1894 -0.1570
  836MOL0     C10226  10.939   4.366   2.464 -0.0416  0.6769 -0.5136
  836MOL0     C10227  10.842   4.367   2.570 -0.2067 -0.5558 -0.4750
  836MOL0     O10228  10.722   4.422   2.576 -0.4192  0.2620 -0.0731
  836MOL0     C10229  10.681   4.496   2.462  0.3616  0.6244 -0.9985
  836MOL0     C10230  10.551   4.564   2.477 -0.3203 -0.8094  0.3076
  836MOL0     C10231  10.506   4.645   2.350  0.4071  0.0882 -0.5459
  836MOL0     C10232  10.413   4.761   2.395 -0.1458 -0.6987  0.2404
  836MOL0     C10233  10.275   4.701   2.412  0.4252 -0.2559 -0.1518
  836MOL0     C10234  10.183   4.819   2.449 -0.8051 -0.4050  0.1199
  836MOL0     C10235  10.060   4.775   2.511  0.2688 -0.1479 -0.3994
  836MOL0     C10236   9.956   4.891   2.513 -0.1794 -0.8343 -0.9049
  836MOL0     N10237   9.856   4.873   2.616  0.6749  0.1827  0.2765
  836MOL0     C10238   9.762   4.959   2.668  0.3450  0.2869 -0.3191
  836MOL0     C10239   9.684   4.881   2.753  0.2267 -0.5189 -0.2060
  836MOL0     C10240   9.576   4.916   2.843 -0.2194 -0.9561 -0.1547
  836MOL0     C10241   9.447   4.930   2.768  0.2919 -0.8563  0.5779
  836MOL0     C10242   9.379   4.798   2.711 -0.1738 -0.5021 -0.0166
  836MOL0     C10243   9.236   4.813   2.651 -0.6455 -0.3272 -0.0282
  836MOL0     O10244   9.209   4.935   2.580 -0.2492  0.9518  0.6704
  836MOL0     C10245   9.076   4.952   2.526 -0.2954 -0.8993 -1.4210
  836MOL0     C10246   8.970   4.862   2.538 -0.0202  0.7424 -0.1250
  836MOL0     C10247   8.839   4.897   2.496 -0.3138  0.9425 -0.0258
  836MOL0     C10248   8.809   5.023   2.441 -0.2017 -0.6779  0.0322
  836MOL0     C10249   8.666   5.055   2.408 -0.6666 -0.4726 -0.1112
  836MOL0     O10250   8.564   4.975   2.438 -0.0942  0.3139 -0.6659
  836MOL0     C10251   8.439   5.015   2.389 -0.3352  0.3145 -0.4959
  836MOL0     C10252   8.339   5.084   2.465 -0.1247 -1.1601 -0.1132
  836MOL0     C10253   8.223   5.131   2.405 -0.1238  0.0640  0.5721
  836MOL0     C10254   8.196   5.112   2.266 -0.7792 -0.2304 -0.1509
  836MOL0     O10255   8.085   5.145   2.199  0.2977  1.3072 -0.4915
  836MOL0     C10256   8.094   5.199   2.066  0.2568  0.0211  0.0376
  836MOL0     C10257   7.960   5.266   2.031  0.2653  0.4484  0.6731
  836MOL0     C10258   7.843   5.168   2.059  0.1242 -0.1389  0.5218
  836MOL0     C10259   7.707   5.224   2.007 -0.5757 -0.2067 -0.6015
  836MOL0     C10260   7.597   5.122   2.015 -0.3790 -0.1081 -0.1804
  836MOL0     C10261   7.481   5.190   1.951  0.7985  0.6588  0.3577
  836MOL0     C10262   7.354   5.101   1.959 -0.8597 -0.0316  0.0962
  836MOL0     C10263   7.356   4.995   1.849 -0.0335 -0.5309  0.9403
  836MOL0    Cl10264   7.199   4.924   1.849 -0.0806  0.8494  0.1176
  836MOL0     C10265   8.300   5.041   2.192  0.9425 -0.6214 -0.9952
  836MOL0     C10266   8.416   5.000   2.253  0.3791  0.0260 -0.2523
  836MOL0     O10267   8.650   5.162   2.358  0.5377 -1.0562  0.2898
  836MOL0     C10268   8.913   5.115   2.434 -0.1454  0.0198 -0.4140
  836MOL0     C10269   9.043   5.078   2.477 -0.2205 -0.4567  0.9481
  836MOL0     N10270   9.738   4.752   2.756  0.8878  0.1768  0.1512
  836MOL0     N10271   9.830   4.748   2.671  0.4284  0.1705  0.9280
  836MOL0     C10272  10.880   4.305   2.692 -0.0118 -0.0055  0.6735
  836MOL0     C10273  11.004   4.237   2.705 -0.3103  0.8386 -0.3153
  836MOL0     C10274  11.375   3.995   2.649  0.4095 -0.0891  0.5773
  836MOL0     C10275  11.378   3.857   2.638 -0.2542  0.3735  0.3879
  836MOL0     C10276  11.498   3.793   2.622 -0.3022 -0.0312 -0.1803
  836MOL0     C10277  11.627   3.857   2.615 -0.1304  0.4921  0.3977
  836MOL0     O10278  11.737   3.774   2.608  0.5613 -0.3387  0.6049
  836MOL0     C10279  11.857   3.814   2.674  0.1116 -0.1602 -0.0375
  836MOL0     C10280  11.947   3.694   2.685 -0.2830 -0.1244 -0.0277
  836MOL0     C10281  11.975   3.645   2.548  0.1189 -0.6365 -0.0037
  836MOL0     C10282  12.104   3.567   2.556  0.0943  0.7866 -0.6384
  836MOL0     C10283  12.093   3.438   2.631 -0.2198  0.2851 -0.0787
  836MOL0     C10284  12.096   3.334   2.701  0.3783 -0.5095 -0.1964
  836MOL0     C10285  11.618   3.989   2.650 -0.1469  0.0466  0.1649
  836MOL0     C10286  11.494   4.061   2.665 -0.9407 -0.1071  0.0830
  836MOL0     H10287  11.134   4.291   2.395 -1.0483  4.0759 -2.5202
  836MOL0     H10288  10.919   4.399   2.362 -1.1055 -2.9729 -1.6377
  836MOL0     H10289  10.669   4.429   2.376 -3.1063  0.7245 -0.7128
  836MOL0     H10290  10.757   4.570   2.436  2.2253 -1.2530 -1.1528
  836MOL0     H10291  10.567   4.626   2.566 -1.8253  0.5966 -0.3525
  836MOL0     H10292  10.474   4.491   2.503  2.0306 -2.9547  1.6886
  836MOL0     H10293  10.452   4.576   2.285 -0.9798 -0.9500  1.5657
  836MOL0     H10294  10.586   4.698   2.299  1.2005  0.0855  0.6493
  836MOL0     H10295  10.452   4.810   2.485 -1.9773 -2.0688  1.8614
  836MOL0     H10296  10.411   4.836   2.316  0.6993  0.5615  1.3650
  836MOL0     H10297  10.278   4.630   2.495  3.7745 -0.0824  0.0012
  836MOL0     H10298  10.230   4.655   2.323  0.2411  0.6268 -0.5337
  836MOL0     H10299  10.149   4.868   2.357 -3.0042  1.2687  1.7350
  836MOL0     H10300  10.236   4.887   2.516 -0.4024 -1.1229  0.5415
  836MOL0     H10301  10.020   4.694   2.450 -0.8440  0.3988 -0.4078
  836MOL0     H10302  10.065   4.737   2.613 -0.0718 -3.8916 -1.6501
  836MOL0     H10303   9.901   4.902   2.419 -0.3330 -4.0621 -1.3132
  836MOL0     H10304  10.013   4.980   2.543 -2.6290  1.1051 -1.7426
  836MOL0     H10305   9.758   5.065   2.645  4.1632  0.4566 -0.8135
  836MOL0     H10306   9.604   5.006   2.898 -0.2144 -1.4725  0.7040
  836MOL0     H10307   9.563   4.827   2.906 -3.2711 -1.0944 -0.8102
  836MOL0     H10308   9.459   4.997   2.682 -0.5018 -0.6836  0.5929
  836MOL0     H10309   9.372   4.990   2.821  1.0633  0.4424  0.2268
  836MOL0     H10310   9.444   4.767   2.628  0.9401  0.0088  0.6415
  836MOL0     H10311   9.388   4.719   2.787  0.6287 -0.3593  0.0475
  836MOL0     H10312   9.170   4.813   2.739 -0.2204 -0.1949  0.2961
  836MOL0     H10313   9.218   4.730   2.582 -2.7605 -1.3010  1.5692
  836MOL0     H10314   8.982   4.768   2.592 -0.1367  1.5817  1.4165
  836MOL0     H10315   8.768   4.816   2.508  1.8471 -0.9721  0.6302
  836MOL0     H10316   8.354   5.111   2.569  2.1526 -0.2859 -0.6136
  836MOL0     H10317   8.137   5.171   2.458 -1.4534 -1.6663 -0.1819
  836MOL0     H10318   8.113   5.122   1.991 -1.6262  0.4402 -0.9355
  836MOL0     H10319   8.158   5.287   2.055 -2.0592  2.0188  1.4684
  836MOL0     H10320   7.961   5.286   1.924 -2.2308 -2.3751 -0.0108
  836MOL0     H10321   7.963   5.356   2.094 -1.3393  1.9222 -1.2316
  836MOL0     H10322   7.838   5.139   2.165  0.5163 -3.0265 -0.1676
  836MOL0     H10323   7.874   5.083   1.998 -0.6992 -0.3372  0.3724
  836MOL0     H10324   7.688   5.305   2.078  1.2186  0.0187 -0.3081
  836MOL0     H10325   7.732   5.267   1.909  0.6895  0.8879  0.1588
  836MOL0     H10326   7.570   5.094   2.117  1.4613  1.2941  0.7578
  836MOL0     H10327   7.638   5.036   1.962  0.8346  0.1398  0.3284
  836MOL0     H10328   7.498   5.227   1.850 -0.4900  1.5222  0.4362
  836MOL0     H10329   7.465   5.273   2.020 -3.0640 -0.2116  0.7638
  836MOL0     H10330   7.343   5.052   2.056  0.4083 -2.4950 -0.8966
  836MOL0     H10331   7.269   5.169   1.945  0.7057  1.6300 -2.2139
  836MOL0     H10332   7.433   4.922   1.877 -1.2158 -2.3548 -0.4164
  836MOL0     H10333   7.378   5.042   1.753  0.8916 -1.0429  0.8876
  836MOL0     H10334   8.288   5.021   2.086 -1.1222 -0.8499 -0.7602
  836MOL0     H10335   8.501   4.965   2.195  1.8861  1.8826  0.7259
  836MOL0     H10336   8.892   5.212   2.390  1.3024  0.7451  0.4283
  836MOL0     H10337   9.111   5.159   2.455 -2.3155  1.3273  0.6427
  836MOL0     H10338  10.810   4.314   2.774  0.7915  0.1294  1.3493
  836MOL0     H10339  11.023   4.171   2.789  2.4233 -0.4694 -1.8525
  836MOL0     H10340  11.291   3.793   2.643 -1.3412  1.6654 -1.0669
  836MOL0     H10341  11.507   3.685   2.616  1.8218  0.0146  1.1096
  836MOL0     H10342  11.829   3.856   2.771  1.4221  0.5447  0.0672
  836MOL0     H10343  11.892   3.893   2.607 -1.8962 -1.1504 -2.4049
  836MOL0     H10344  12.041   3.731   2.728  0.5063 -0.9982 -0.9565
  836MOL0     H10345  11.915   3.612   2.750 -0.1176 -1.1392 -1.1981
  836MOL0     H10346  11.998   3.730   2.483  1.0134 -0.1177  0.9794
  836MOL0     H10347  11.886   3.595   2.508 -1.4614  2.2017 -0.3343
  836MOL0     H10348  12.134   3.557   2.451 -3.6664 -0.3759 -1.7407
  836MOL0     H10349  12.186   3.621   2.605  1.3000 -0.4006 -1.2737
  836MOL0     H10350  12.092   3.246   2.762 -0.6392  0.3824  1.0677
  836MOL0     H10351  11.695   4.063   2.669  0.6746 -1.0812  1.3649
  836MOL0     H10352  11.495   4.167   2.686  2.0309 -0.3177  1.6093
  837MOL0     O10353   2.321   5.026   2.986  0.5472  0.3802  0.5973
  837MOL0     C10354   2.432   5.015   3.025 -1.0610  0.3708 -0.0404
  837MOL0     O10355   2.483   4.921   3.106 -0.4459  0.4227 -0.6817
  837MOL0     C10356   2.411   4.808   3.124 -0.5818 -0.1731 -0.0362
  837MOL0     C10357   2.290   4.796   3.201 -0.6709  0.2043  0.1565
  837MOL0     C10358   2.233   4.671   3.216 -0.1948 -0.0522 -0.1627
  837MOL0     C10359   2.281   4.560   3.148  0.2198  0.5017 -0.2022
  837MOL0     O10360   2.202   4.444   3.163 -0.9824  0.0619 -0.4661
  837MOL0     C10361   2.268   4.321   3.172  0.0416  1.2925 -0.4614
  837MOL0     C10362   2.155   4.211   3.191  0.0816  0.4380 -0.3388
  837MOL0     C10363   2.086   4.170   3.064 -0.1192 -1.1234  0.4274
  837MOL0     C10364   1.973   4.266   3.046  0.6813 -0.4582  0.2397
  837MOL0     C10365   1.894   4.228   2.917 -0.4985 -0.6526 -0.1394
  837MOL0     C10366   1.761   4.300   2.917 -0.4991 -0.1621  0.2660
  837MOL0     C10367   1.678   4.265   2.788 -0.6256 -0.8206 -0.7977
  837MOL0     C10368   1.557   4.347   2.781  0.0435 -0.2292 -0.2634
  837MOL0     N10369   1.481   4.313   2.663 -0.1012  0.8899 -0.2207
  837MOL0     C10370   1.385   4.209   2.651 -0.9853 -0.1328  0.6594
  837MOL0     C10371   1.340   4.217   2.523 -0.3300  1.1172  0.6063
  837MOL0     C10372   1.224   4.122   2.482  0.3928 -0.5022 -0.5745
  837MOL0     C10373   1.156   4.146   2.344  0.3836  0.3991 -0.4672
  837MOL0     C10374   1.026   4.071   2.350  0.3522  1.1158  0.3035
  837MOL0     C10375   0.975   4.055   2.207 -1.2252 -0.4125 -1.8219
  837MOL0     O10376   0.859   3.972   2.225  0.4691  0.4316  0.2329
  837MOL0     C10377   0.727   4.015   2.204 -0.6966 -0.6401  0.7053
  837MOL0     C10378   0.688   4.135   2.147  1.1528 -0.5023 -0.1369
  837MOL0     C10379   0.551   4.171   2.147  0.0188 -0.4036  0.1918
  837MOL0     C10380   0.449   4.088   2.197 -0.1762 -0.2224  0.2836
  837MOL0     C10381   0.309   4.124   2.174 -0.2592  0.8184 -0.4051
  837MOL0     O10382   0.224   4.020   2.201 -0.1550 -0.6533  0.1824
  837MOL0     C10383   0.086   4.035   2.201 -0.2009 -0.6505 -0.1585
  837MOL0     C10384   0.005   3.983   2.303  0.2848 -0.4826  0.0805
  837MOL0     C10385  -0.131   4.008   2.321  0.3657 -1.0989  0.7402
  837MOL0     C10386  -0.204   4.062   2.221  0.3679  0.5637  0.9655
  837MOL0     O10387  -0.338   4.075   2.228  0.3690 -1.0149 -0.6245
  837MOL0     C10388  -0.423   4.036   2.332  1.0553 -0.5446 -0.0509
  837MOL0     C10389  -0.553   4.116   2.312  0.0254 -0.6542  0.4416
  837MOL0     C10390  -0.648   4.081   2.429  0.2240 -0.0937 -0.8407
  837MOL0     C10391  -0.783   4.147   2.418  0.2322  0.8551 -0.5696
  837MOL0     C10392  -0.888   4.075   2.512 -0.0526  0.2923  0.7241
  837MOL0     C10393  -0.866   4.098   2.662  0.5170  1.3040 -0.7857
  837MOL0     C10394  -0.974   4.022   2.741  1.2044 -0.4474  0.6103
  837MOL0     C10395  -1.104   4.107   2.760 -0.6700  0.2387  0.8342
  837MOL0    Cl10396  -1.094   4.220   2.897 -0.3665 -0.0113  0.2556
  837MOL0     C10397  -0.136   4.092   2.105 -1.2863  0.5321 -0.5138
  837MOL0     C10398   0.008   4.094   2.105  0.2263 -1.0746 -0.1727
  837MOL0     O10399   0.272   4.232   2.138 -0.0101  0.1962  0.3342
  837MOL0     C10400   0.492   3.974   2.263  0.3364 -0.5977 -0.3726
  837MOL0     C10401   0.628   3.941   2.265  0.2284  0.7202 -0.3879
  837MOL0     N10402   1.420   4.302   2.454 -0.6750 -0.0001  0.8219
  837MOL0     N10403   1.510   4.360   2.537 -0.1401 -0.2036  0.5853
  837MOL0     C10404   2.403   4.567   3.078 -0.2883 -0.2446  0.6004
  837MOL0     C10405   2.464   4.698   3.060 -0.6948  1.2343  0.3091
  837MOL0     C10406   2.532   5.113   2.980  0.7938 -0.2616 -0.3197
  837MOL0     C10407   2.665   5.075   2.964 -0.0676  0.5144 -0.0004
  837MOL0     C10408   2.767   5.155   2.916 -0.3091 -0.1681 -0.1849
  837MOL0     C10409   2.729   5.284   2.877  0.1316 -1.0066 -0.3822
  837MOL0     O10410   2.824   5.365   2.827  0.0341  0.5902 -1.1960
  837MOL0     C10411   2.784   5.492   2.763 -0.0760  0.6407 -0.5619
  837MOL0     C10412   2.923   5.553   2.742 -0.5479  1.4073 -0.0143
  837MOL0     C10413   2.898   5.652   2.635 -0.1298  0.0494 -0.3664
  837MOL0     C10414   3.033   5.702   2.566 -0.0772  0.3382 -0.0102
  837MOL0     C10415   3.151   5.734   2.656  0.7433  1.2322 -0.2536
  837MOL0     C10416   3.241   5.751   2.730 -0.7401 -0.7104  0.0481
  837MOL0     C10417   2.591   5.325   2.876 -0.1309 -0.0076  0.1318
  837MOL0     C10418   2.500   5.239   2.932  0.7199  0.2786 -0.8612
  837MOL0     H10419   2.254   4.889   3.242  1.1277  1.2406 -0.5004
  837MOL0     H10420   2.146   4.650   3.278  1.4150 -0.1033  2.2136
  837MOL0     H10421   2.329   4.323   3.263 -0.9276 -1.0792  0.3193
  837MOL0     H10422   2.325   4.309   3.080 -1.5012  0.2433 -1.3278
  837MOL0     H10423   2.091   4.235   3.277 -0.7480 -2.0177 -0.1695
  837MOL0     H10424   2.220   4.131   3.230  2.5816  2.3715 -0.3145
  837MOL0     H10425   2.046   4.068   3.071  0.0585 -1.3096 -0.9801
  837MOL0     H10426   2.160   4.178   2.984 -0.1575 -0.5505  0.4453
  837MOL0     H10427   1.906   4.272   3.132  1.5862  0.0702  0.9277
  837MOL0     H10428   2.008   4.368   3.025  2.0065 -1.3509 -2.2738
  837MOL0     H10429   1.880   4.120   2.909 -2.8019 -0.5080  1.2288
  837MOL0     H10430   1.960   4.262   2.836 -0.0729  0.4795  0.6441
  837MOL0     H10431   1.781   4.407   2.921  0.7462 -0.2070 -2.6609
  837MOL0     H10432   1.694   4.268   2.998 -0.6669 -1.5294 -0.3757
  837MOL0     H10433   1.737   4.276   2.696 -1.5567  0.7846 -1.2483
  837MOL0     H10434   1.645   4.161   2.798 -1.6255 -0.4744 -0.4186
  837MOL0     H10435   1.588   4.451   2.765  0.9585 -0.4054  0.2773
  837MOL0     H10436   1.499   4.353   2.873  0.0712  0.6001 -0.2988
  837MOL0     H10437   1.353   4.147   2.734  0.2225  0.9209  1.9645
  837MOL0     H10438   1.149   4.136   2.561 -0.6967 -0.6302 -1.5538
  837MOL0     H10439   1.249   4.016   2.484  2.6967 -0.0151  2.0128
  837MOL0     H10440   1.232   4.111   2.274  2.0507  2.2426  0.3334
  837MOL0     H10441   1.148   4.254   2.331 -1.3652  0.6847  2.1093
  837MOL0     H10442   1.034   3.973   2.397  0.9851  1.3711  0.7269
  837MOL0     H10443   0.957   4.136   2.404  0.4858  1.8151 -0.3526
  837MOL0     H10444   1.053   4.008   2.147 -2.5134 -2.3055 -2.1048
  837MOL0     H10445   0.953   4.152   2.160 -1.0444  0.0966 -0.8704
  837MOL0     H10446   0.761   4.188   2.086  0.5567  0.0652 -0.3799
  837MOL0     H10447   0.522   4.266   2.101 -2.5578 -1.6447 -0.9573
  837MOL0     H10448   0.055   3.938   2.388 -0.3542 -3.4932 -1.0166
  837MOL0     H10449  -0.175   3.992   2.418  0.2343 -1.6739  0.5860
  837MOL0     H10450  -0.383   4.056   2.431  0.5394 -0.3066  0.1063
  837MOL0     H10451  -0.439   3.928   2.319 -2.8551 -0.1541  0.3457
  837MOL0     H10452  -0.605   4.090   2.219  1.1453  3.1164 -1.4328
  837MOL0     H10453  -0.544   4.225   2.318 -0.2857 -0.6697  1.4247
  837MOL0     H10454  -0.606   4.129   2.518 -3.9401  2.7555 -0.1206
  837MOL0     H10455  -0.656   3.975   2.453 -0.2366  0.3731  1.2539
  837MOL0     H10456  -0.780   4.255   2.438 -1.1185  0.3663  3.0897
  837MOL0     H10457  -0.805   4.138   2.312  2.8174  3.2520 -1.4314
  837MOL0     H10458  -0.890   3.968   2.491 -1.0790  0.3454  0.5015
  837MOL0     H10459  -0.989   4.109   2.488  0.9916  2.3779 -1.0846
  837MOL0     H10460  -0.881   4.204   2.682 -0.9176  0.5803  2.6437
  837MOL0     H10461  -0.767   4.067   2.697  1.1468  1.3562 -2.4214
  837MOL0     H10462  -1.014   3.936   2.687  1.3474  0.5944 -1.2153
  837MOL0     H10463  -0.934   3.989   2.838 -1.8754 -2.6629  1.2710
  837MOL0     H10464  -1.186   4.040   2.787  0.6776 -0.8856  2.3039
  837MOL0     H10465  -1.107   4.158   2.663  1.2477 -1.9364 -0.4732
  837MOL0     H10466  -0.195   4.140   2.028  0.6803  2.2725 -1.0199
  837MOL0     H10467   0.045   4.135   2.012 -0.5732  0.4949  0.1713
  837MOL0     H10468   0.422   3.931   2.333  0.1086  0.7998  0.2905
  837MOL0     H10469   0.657   3.847   2.312  0.4587 -0.8948 -3.4802
  837MOL0     H10470   2.454   4.480   3.037  0.2044  0.6255 -0.6938
  837MOL0     H10471   2.551   4.716   2.997  0.1517  0.3684  1.1922
  837MOL0     H10472   2.695   4.978   3.001  0.1329  0.0506 -1.3263
  837MOL0     H10473   2.873   5.136   2.935 -0.6250 -1.8793  0.0440
  837MOL0     H10474   2.717   5.557   2.820 -2.5459 -1.1428 -1.2629
  837MOL0     H10475   2.734   5.467   2.669 -2.2958 -1.8552  1.1248
  837MOL0     H10476   2.956   5.590   2.839  1.6783 -0.8152  0.1749
  837MOL0     H10477   2.997   5.479   2.712 -1.0358  1.0752 -0.4221
  837MOL0     H10478   2.843   5.738   2.675  0.0768  0.7544 -1.5391
  837MOL0     H10479   2.837   5.603   2.557 -0.5319  0.4201 -0.2900
  837MOL0     H10480   3.080   5.626   2.502 -0.5574  0.1730 -0.1730
  837MOL0     H10481   3.012   5.790   2.504  0.9283 -0.6165 -1.7904
  837MOL0     H10482   3.323   5.779   2.794 -1.1004 -1.6633  0.9560
  837MOL0     H10483   2.556   5.422   2.841  0.6225  1.1618  2.4511
  837MOL0     H10484   2.396   5.269   2.931  0.4054 -0.7662 -1.0778
  838MOL0     O10485  10.376   2.327   4.631  0.3410 -0.3737  0.3287
  838MOL0     C10486  10.372   2.205   4.649 -0.4703  0.3535 -0.1043
  838MOL0     O10487  10.272   2.130   4.676  0.0467  0.7323  0.3758
  838MOL0     C10488  10.159   2.192   4.713 -0.2950 -0.3654 -0.1328
  838MOL0     C10489  10.139   2.269   4.828  0.3325  0.8177 -0.0553
  838MOL0     C10490  10.011   2.340   4.863 -0.0400  1.1950 -0.5220
  838MOL0     C10491   9.902   2.306   4.771  0.3398 -0.8393 -0.6571
  838MOL0     O10492   9.785   2.363   4.760  0.1829  0.0598 -0.3316
  838MOL0     C10493   9.730   2.433   4.865 -0.6251  0.5005  0.3922
  838MOL0     C10494   9.575   2.461   4.855  0.0413 -0.4819 -0.0544
  838MOL0     C10495   9.489   2.343   4.815 -0.2488  1.5460  0.8997
  838MOL0     C10496   9.331   2.336   4.810 -0.1062 -0.4375  0.1345
  838MOL0     C10497   9.267   2.213   4.744  0.0859  0.1274  0.1232
  838MOL0     C10498   9.124   2.242   4.707  0.2107 -0.3545 -0.2709
  838MOL0     C10499   9.077   2.131   4.604 -0.3142 -0.5819  0.8350
  838MOL0     C10500   9.075   1.997   4.684 -0.0156  0.7672  0.1398
  838MOL0     N10501   9.044   1.875   4.604 -0.2691 -0.8342  0.6108
  838MOL0     C10502   8.928   1.805   4.591 -0.1322 -0.5507  0.9822
  838MOL0     C10503   8.953   1.708   4.508 -1.6247  0.2502 -0.0008
  838MOL0     C10504   8.854   1.619   4.450 -0.5223 -0.3376  0.7082
  838MOL0     C10505   8.748   1.579   4.553  0.8352  1.1837  1.1485
  838MOL0     C10506   8.676   1.450   4.502  0.3525 -0.6919 -0.5768
  838MOL0     C10507   8.525   1.459   4.515 -0.0760  0.5005  1.2121
  838MOL0     O10508   8.472   1.553   4.426  0.5293  0.9016 -0.4926
  838MOL0     C10509   8.340   1.539   4.397 -0.2502 -0.0765  0.4811
  838MOL0     C10510   8.277   1.604   4.289  0.0743 -0.2366 -0.4072
  838MOL0     C10511   8.134   1.593   4.270 -1.0465 -0.3958  0.8285
  838MOL0     C10512   8.050   1.528   4.355  0.0641 -0.5702 -0.1928
  838MOL0     C10513   7.908   1.513   4.332 -0.8376 -0.6872 -0.2352
  838MOL0     O10514   7.835   1.451   4.424  0.2913  0.1369 -0.9459
  838MOL0     C10515   7.703   1.409   4.414  0.7836  0.7624 -0.0970
  838MOL0     C10516   7.656   1.307   4.506  0.5259 -0.1622  0.2162
  838MOL0     C10517   7.513   1.261   4.500 -1.2756  0.5681 -0.0278
  838MOL0     C10518   7.430   1.313   4.402  0.0598 -0.8087  0.6260
  838MOL0     O10519   7.298   1.263   4.383 -0.3280 -0.4066 -0.2043
  838MOL0     C10520   7.209   1.355   4.320  0.6419  0.3120  0.4095
  838MOL0     C10521   7.075   1.289   4.321 -0.4293 -0.4324 -0.4345
  838MOL0     C10522   6.974   1.344   4.231 -0.7075 -1.4046 -0.3728
  838MOL0     C10523   6.833   1.298   4.273 -0.3975  0.4521  0.0941
  838MOL0     C10524   6.730   1.347   4.161 -0.0118 -0.6275  0.0490
  838MOL0     C10525   6.606   1.246   4.142 -0.0092 -0.3144 -0.2343
  838MOL0     C10526   6.571   1.231   3.991 -0.7497  0.4837  0.0022
  838MOL0     C10527   6.523   1.346   3.910  0.1151  0.1619 -0.4047
  838MOL0    Cl10528   6.427   1.288   3.773  0.6862 -0.0060 -0.0333
  838MOL0     C10529   7.483   1.409   4.319  0.9482  0.4150 -0.4755
  838MOL0     C10530   7.607   1.460   4.331 -0.3016 -0.7598  0.0058
  838MOL0     O10531   7.873   1.544   4.224  0.1171 -0.9254  0.0035
  838MOL0     C10532   8.110   1.476   4.471 -0.1044 -0.5002  0.3330
  838MOL0     C10533   8.250   1.485   4.489  0.2723 -0.2873  0.6750
  838MOL0     N10534   9.087   1.699   4.484 -0.5083 -0.1492 -0.0111
  838MOL0     N10535   9.141   1.808   4.536 -0.0178  0.9973  0.0846
  838MOL0     C10536   9.928   2.212   4.666  0.7870 -0.1336 -1.4004
  838MOL0     C10537  10.048   2.156   4.637 -1.1033  0.0213  0.1076
  838MOL0     C10538  10.495   2.137   4.604 -0.2215 -0.2402  0.0731
  838MOL0     C10539  10.550   2.032   4.673  0.1615  1.0239 -0.6642
  838MOL0     C10540  10.673   1.974   4.635 -0.6124 -0.1455  0.2023
  838MOL0     C10541  10.734   2.004   4.513 -0.6969  0.5704 -0.1722
  838MOL0     O10542  10.860   1.942   4.494  0.2332 -0.0848  0.2293
  838MOL0     C10543  10.921   1.945   4.366 -0.4838  0.4628 -0.3179
  838MOL0     C10544  11.009   2.071   4.353  0.4879  0.0652  0.8487
  838MOL0     C10545  11.113   2.098   4.457  0.2701 -0.7985  0.3086
  838MOL0     C10546  11.185   2.225   4.432 -0.2184  0.2619 -0.0584
  838MOL0     C10547  11.310   2.236   4.507 -0.0561  0.1129  0.0109
  838MOL0     C10548  11.420   2.248   4.556  0.3755 -0.0046 -0.0549
  838MOL0     C10549  10.667   2.097   4.431 -0.1987 -0.3858 -0.1046
  838MOL0     C10550  10.553   2.164   4.479 -0.0076  0.4383  0.6998
  838MOL0     H10551  10.221   2.280   4.898  1.8087 -3.1990 -0.8964
  838MOL0     H10552   9.993   2.393   4.956  0.9523 -0.2185  0.5151
  838MOL0     H10553   9.785   2.528   4.861 -0.0956  0.1677 -2.7096
  838MOL0     H10554   9.748   2.381   4.960 -0.3505  2.9378  1.7730
  838MOL0     H10555   9.555   2.542   4.785  1.0888 -0.0744  0.1093
  838MOL0     H10556   9.550   2.499   4.955  3.4271 -0.7010  1.0091
  838MOL0     H10557   9.530   2.272   4.887  2.9514  4.4230  2.1901
  838MOL0     H10558   9.522   2.321   4.713  3.3300 -1.6190  2.5207
  838MOL0     H10559   9.295   2.345   4.913  0.4117 -3.5180  0.6973
  838MOL0     H10560   9.301   2.427   4.757  2.7919 -0.0662 -1.0566
  838MOL0     H10561   9.282   2.135   4.820 -0.8865 -0.3106 -0.1288
  838MOL0     H10562   9.331   2.191   4.658 -1.3289 -1.8912 -0.4833
  838MOL0     H10563   9.107   2.339   4.661 -0.9641 -1.5305 -2.5006
  838MOL0     H10564   9.059   2.232   4.795 -0.0803 -3.2406 -0.7152
  838MOL0     H10565   8.979   2.158   4.564  0.9003 -1.0843 -2.9639
  838MOL0     H10566   9.141   2.128   4.515 -1.3852  1.7412 -0.0972
  838MOL0     H10567   9.003   1.996   4.766 -3.9049 -3.4678 -2.7936
  838MOL0     H10568   9.179   1.986   4.715  0.0205  1.2867  0.2098
  838MOL0     H10569   8.832   1.852   4.611  0.8783  1.8784  0.4609
  838MOL0     H10570   8.919   1.536   4.420  1.1181  1.7366 -1.8315
  838MOL0     H10571   8.816   1.666   4.359  0.4280  0.5973  0.7809
  838MOL0     H10572   8.676   1.660   4.569  2.1111  2.9541 -1.4289
  838MOL0     H10573   8.798   1.558   4.648 -0.7429 -2.0613  1.3901
  838MOL0     H10574   8.696   1.441   4.395  1.1416  0.8342 -0.5767
  838MOL0     H10575   8.712   1.357   4.548  0.1179 -1.1784 -1.3498
  838MOL0     H10576   8.486   1.481   4.614 -1.0347 -0.0889  0.9830
  838MOL0     H10577   8.490   1.359   4.487 -1.5044  1.3680 -0.3202
  838MOL0     H10578   8.340   1.657   4.219 -0.5242  2.3642  0.9010
  838MOL0     H10579   8.094   1.618   4.172  3.7161  2.5668 -0.7067
  838MOL0     H10580   7.723   1.271   4.584 -0.3538 -0.3609  0.8968
  838MOL0     H10581   7.479   1.194   4.579  1.5974  0.2382  1.0546
  838MOL0     H10582   7.235   1.374   4.215 -2.6314 -0.0220 -0.5580
  838MOL0     H10583   7.209   1.456   4.361  1.0546  0.0829  0.9797
  838MOL0     H10584   7.033   1.296   4.422  1.5560  0.8053  0.3628
  838MOL0     H10585   7.091   1.182   4.300 -2.4319 -0.8829  0.1301
  838MOL0     H10586   6.994   1.340   4.123 -2.7468  2.8070 -1.0843
  838MOL0     H10587   6.990   1.449   4.257 -0.7045 -1.8646  1.5657
  838MOL0     H10588   6.829   1.193   4.301 -2.0767  0.3928 -0.2641
  838MOL0     H10589   6.808   1.363   4.358 -0.0366 -0.6670  1.0897
  838MOL0     H10590   6.785   1.357   4.068  1.5851 -1.8019  0.8163
  838MOL0     H10591   6.679   1.439   4.191  2.7108  0.8717  0.3889
  838MOL0     H10592   6.521   1.279   4.202 -0.4762  1.1346 -1.6088
  838MOL0     H10593   6.625   1.143   4.171 -0.0410 -0.7349 -1.6446
  838MOL0     H10594   6.656   1.195   3.932 -0.4963 -1.5064  1.4725
  838MOL0     H10595   6.494   1.153   3.995  0.0750 -0.3684 -0.4371
  838MOL0     H10596   6.606   1.412   3.882  0.0409  0.6766  0.5668
  838MOL0     H10597   6.463   1.412   3.972 -0.0858  0.5709 -1.0242
  838MOL0     H10598   7.424   1.450   4.237  2.7555  1.6448 -1.2269
  838MOL0     H10599   7.628   1.537   4.258  1.1499 -0.8874  0.2490
  838MOL0     H10600   8.042   1.436   4.545 -1.9688  1.0170 -0.4878
  838MOL0     H10601   8.291   1.457   4.585  2.8800  0.1845 -0.2018
  838MOL0     H10602   9.845   2.179   4.604  0.7319  0.2525 -1.5334
  838MOL0     H10603  10.063   2.089   4.554 -3.7788 -0.7393  0.1578
  838MOL0     H10604  10.509   1.998   4.767  0.6127 -0.6806 -1.0491
  838MOL0     H10605  10.720   1.906   4.705 -1.5697 -3.5271 -2.1656
  838MOL0     H10606  10.848   1.935   4.286  0.9885 -0.3461 -1.6055
  838MOL0     H10607  10.984   1.856   4.372 -1.5995 -0.3411 -0.1384
  838MOL0     H10608  11.060   2.051   4.258 -1.6580  4.1106 -1.4326
  838MOL0     H10609  10.938   2.152   4.330  0.8176  0.1494  0.0959
  838MOL0     H10610  11.186   2.017   4.455 -0.6165 -1.6075  0.2443
  838MOL0     H10611  11.071   2.102   4.558 -1.6185 -2.0724 -0.3716
  838MOL0     H10612  11.209   2.222   4.326  2.1682 -1.5194  0.4660
  838MOL0     H10613  11.120   2.304   4.473  0.6294 -0.3915  2.7600
  838MOL0     H10614  11.518   2.270   4.594  1.0842 -0.4909 -1.5277
  838MOL0     H10615  10.707   2.138   4.338  1.1566 -1.6859 -0.1433
  838MOL0     H10616  10.507   2.237   4.413  0.7673  2.8907  2.7348
  839MOL0     O10617   3.242   7.964   1.453  0.4825  0.4230 -0.5103
  839MOL0     C10618   3.331   8.047   1.423  0.4389 -0.4243  0.5354
  839MOL0     O10619   3.305   8.182   1.399  0.2115  0.1314 -0.4065
  839MOL0     C10620   3.187   8.231   1.439 -0.2042 -0.0922 -0.4166
  839MOL0     C10621   3.132   8.324   1.356  0.6819  0.8959  0.7717
  839MOL0     C10622   3.000   8.375   1.372  0.0314  0.5377  0.5947
  839MOL0     C10623   2.927   8.341   1.487  0.8478  0.5737  0.4369
  839MOL0     O10624   2.805   8.395   1.518  0.5597  0.5033  0.2329
  839MOL0     C10625   2.706   8.352   1.623 -0.0131 -0.1862  0.2704
  839MOL0     C10626   2.607   8.475   1.623 -0.4333  0.0867 -0.3475
  839MOL0     C10627   2.518   8.464   1.753 -0.4551  0.2350  0.5197
  839MOL0     C10628   2.417   8.573   1.766  0.4912 -0.6305  0.1810
  839MOL0     C10629   2.323   8.524   1.874  0.7969  0.4114  0.0140
  839MOL0     C10630   2.219   8.637   1.910  0.8046 -0.2708 -0.6738
  839MOL0     C10631   2.280   8.762   1.982  0.2594 -0.2464 -0.0139
  839MOL0     C10632   2.175   8.827   2.076 -0.3816  0.4106 -0.6439
  839MOL0     N10633   2.079   8.898   2.002 -0.0261 -0.5470 -0.2501
  839MOL0     C10634   1.945   8.868   1.972 -0.6416 -0.5272  0.3970
  839MOL0     C10635   1.890   8.983   1.921 -0.8891  0.7410  0.9484
  839MOL0     C10636   1.754   8.991   1.864  1.2012 -0.5692  0.4592
  839MOL0     C10637   1.700   9.133   1.886  0.4378 -0.3836  1.2378
  839MOL0     C10638   1.561   9.152   1.824 -0.5217  0.2615 -0.2916
  839MOL0     C10639   1.562   9.172   1.675  0.3332  0.9564 -0.0768
  839MOL0     O10640   1.439   9.118   1.613 -0.1858  0.2173 -0.2300
  839MOL0     C10641   1.459   9.006   1.533  0.1602  0.4844  0.0030
  839MOL0     C10642   1.555   8.905   1.538  0.1335 -0.3642  0.5063
  839MOL0     C10643   1.567   8.809   1.440  0.4536  0.6282 -0.5342
  839MOL0     C10644   1.473   8.818   1.331  0.4646  0.2159  0.2619
  839MOL0     C10645   1.488   8.735   1.209  0.2545  0.2454 -0.1959
  839MOL0     O10646   1.607   8.675   1.191 -0.3108 -0.8052  0.2881
  839MOL0     C10647   1.620   8.599   1.073 -0.1848  0.6226 -0.3382
  839MOL0     C10648   1.674   8.657   0.966 -0.0560 -0.4306  0.1376
  839MOL0     C10649   1.657   8.588   0.841 -0.2229  0.3510  0.5003
  839MOL0     C10650   1.591   8.462   0.831 -0.6404  0.8455 -0.0160
  839MOL0     O10651   1.570   8.393   0.721 -0.1453  0.1436 -0.2231
  839MOL0     C10652   1.433   8.350   0.698 -0.0047  0.8770 -1.0764
  839MOL0     C10653   1.390   8.351   0.547 -0.9079 -0.4957 -0.5207
  839MOL0     C10654   1.259   8.282   0.525 -0.3129  0.4476  0.0915
  839MOL0     C10655   1.199   8.335   0.390  0.2244 -0.4818 -0.2941
  839MOL0     C10656   1.064   8.264   0.350 -0.0744 -0.9925 -0.0951
  839MOL0     C10657   0.955   8.244   0.463 -0.6961  0.4175 -0.5945
  839MOL0     C10658   0.843   8.152   0.421  0.1285  0.6588  0.3693
  839MOL0     C10659   0.757   8.119   0.539  0.0770  0.9072  0.3154
  839MOL0    Cl10660   0.620   8.011   0.478  0.2177 -0.3528  0.0233
  839MOL0     C10661   1.565   8.397   0.953  0.6551 -0.9206 -0.3235
  839MOL0     C10662   1.570   8.466   1.072 -0.7123 -0.0986 -1.0669
  839MOL0     O10663   1.388   8.732   1.131 -0.3364  0.1434 -0.8544
  839MOL0     C10664   1.368   8.908   1.327  0.8796  0.2346 -0.3883
  839MOL0     C10665   1.367   9.003   1.431 -0.1701 -0.2596  0.0373
  839MOL0     N10666   2.000   9.077   1.913 -0.2490  0.4840 -0.2656
  839MOL0     N10667   2.100   9.033   1.964  0.0988 -0.1977  0.0777
  839MOL0     C10668   2.986   8.245   1.574 -0.0707 -0.0229 -0.0222
  839MOL0     C10669   3.115   8.185   1.553 -0.0770 -0.3579 -0.5068
  839MOL0     C10670   3.474   8.009   1.426  0.1122  0.2712  0.3343
  839MOL0     C10671   3.591   8.090   1.387  0.9802  0.1586 -0.4847
  839MOL0     C10672   3.725   8.054   1.417  0.3275 -0.8317 -0.8212
  839MOL0     C10673   3.758   7.937   1.485  0.9983 -0.4737 -0.2583
  839MOL0     O10674   3.886   7.891   1.504  0.3630  0.3137  0.2901
  839MOL0     C10675   3.993   7.970   1.453  0.0751 -0.5793 -0.3668
  839MOL0     C10676   4.121   7.905   1.490 -0.2229  0.6406 -0.2405
  839MOL0     C10677   4.141   7.923   1.639 -0.4897  0.0040 -0.6461
  839MOL0     C10678   4.291   7.917   1.664  0.1284 -0.2246  0.1188
  839MOL0     C10679   4.370   8.034   1.653 -0.1862 -0.8301  0.1619
  839MOL0     C10680   4.433   8.137   1.644 -0.7423 -1.1428 -0.4247
  839MOL0     C10681   3.644   7.860   1.531  0.7004 -0.1052  0.1846
  839MOL0     C10682   3.510   7.895   1.507 -0.3469 -0.2587  0.9609
  839MOL0     H10683   3.191   8.362   1.273  1.2258  0.6633  1.0480
  839MOL0     H10684   2.955   8.440   1.298 -1.8543 -1.6589 -0.3312
  839MOL0     H10685   2.751   8.336   1.721 -2.5518  0.0388  1.5713
  839MOL0     H10686   2.649   8.261   1.603 -0.7729  0.0133  1.3801
  839MOL0     H10687   2.541   8.480   1.536 -0.4062  0.1848 -0.3626
  839MOL0     H10688   2.664   8.568   1.633  1.9084 -1.0844 -1.9704
  839MOL0     H10689   2.582   8.448   1.840 -0.7026  2.4107  1.1416
  839MOL0     H10690   2.476   8.363   1.744  2.5051 -1.0392 -0.1619
  839MOL0     H10691   2.465   8.667   1.796  1.4376 -0.7548 -0.8806
  839MOL0     H10692   2.358   8.593   1.676 -1.3652 -0.7405  1.3118
  839MOL0     H10693   2.391   8.508   1.958 -0.4837 -1.9345  0.6990
  839MOL0     H10694   2.274   8.429   1.849  2.1039 -0.4677  0.6758
  839MOL0     H10695   2.146   8.589   1.976  1.1839 -1.3898 -1.0485
  839MOL0     H10696   2.157   8.657   1.822 -0.3106 -1.0893 -0.1041
  839MOL0     H10697   2.367   8.724   2.036 -0.3830 -0.9244  0.5639
  839MOL0     H10698   2.318   8.838   1.914  0.4984 -0.0476  0.3397
  839MOL0     H10699   2.227   8.892   2.147  1.1947  0.2575 -1.6303
  839MOL0     H10700   2.118   8.762   2.143  0.3083  0.7072  0.2473
  839MOL0     H10701   1.903   8.768   1.982 -1.8817  0.0785  1.6203
  839MOL0     H10702   1.687   8.923   1.917  0.2438 -1.6127 -1.9155
  839MOL0     H10703   1.759   8.966   1.757  0.0374 -2.0990  0.7186
  839MOL0     H10704   1.776   9.204   1.853  0.2599 -1.4383 -1.7283
  839MOL0     H10705   1.682   9.154   1.992  1.8937  0.4847  1.3408
  839MOL0     H10706   1.501   9.064   1.848  0.1213  0.0408  0.5169
  839MOL0     H10707   1.520   9.239   1.876 -0.3250 -0.6414  1.4476
  839MOL0     H10708   1.654   9.137   1.628  0.1006  1.3596 -0.8496
  839MOL0     H10709   1.579   9.279   1.654  0.6174  0.9624  0.1711
  839MOL0     H10710   1.619   8.898   1.626  0.2768  1.3021  0.5597
  839MOL0     H10711   1.631   8.721   1.435 -1.7795 -1.0268 -1.9650
  839MOL0     H10712   1.711   8.759   0.963 -2.5245  0.5725  1.2113
  839MOL0     H10713   1.701   8.639   0.755  2.1117  0.2332  1.5698
  839MOL0     H10714   1.357   8.403   0.756  1.0828  2.0433 -0.6704
  839MOL0     H10715   1.422   8.244   0.723 -1.3518  1.3870  0.6093
  839MOL0     H10716   1.459   8.289   0.489  0.2431 -0.7157  0.9936
  839MOL0     H10717   1.401   8.454   0.512 -1.9950 -0.2564 -0.1988
  839MOL0     H10718   1.194   8.321   0.604 -1.3633  2.0438 -1.4865
  839MOL0     H10719   1.259   8.173   0.523 -0.3752  0.4496 -0.0811
  839MOL0     H10720   1.171   8.441   0.393  1.0884 -0.0890 -3.3994
  839MOL0     H10721   1.266   8.312   0.307  0.2126 -1.9899  0.0800
  839MOL0     H10722   1.090   8.169   0.303  0.4327 -0.4279 -0.9750
  839MOL0     H10723   1.009   8.320   0.274 -2.8257 -0.7324  1.9321
  839MOL0     H10724   0.915   8.344   0.483  1.5715  1.3590 -0.4946
  839MOL0     H10725   1.000   8.213   0.558  0.2128  1.8609 -0.5218
  839MOL0     H10726   0.785   8.198   0.340 -0.6769 -1.0118 -0.0436
  839MOL0     H10727   0.882   8.061   0.374  0.2970 -0.2220  2.1423
  839MOL0     H10728   0.712   8.209   0.581  0.6077  1.9367 -1.2183
  839MOL0     H10729   0.819   8.072   0.616  0.4727  0.0937 -0.4817
  839MOL0     H10730   1.529   8.295   0.963 -0.7637 -0.5636 -1.3857
  839MOL0     H10731   1.537   8.437   1.171 -0.3980  1.5582 -0.4402
  839MOL0     H10732   1.292   8.914   1.251  3.2452  1.2758 -2.8416
  839MOL0     H10733   1.294   9.083   1.432  0.1031  0.0088 -0.8097
  839MOL0     H10734   2.937   8.209   1.664  1.3325 -1.3621  0.2441
  839MOL0     H10735   3.138   8.106   1.624  1.8342  0.8059  0.2297
  839MOL0     H10736   3.585   8.184   1.333  0.9783 -1.1595 -2.9407
  839MOL0     H10737   3.800   8.123   1.380  1.9656 -2.3479 -0.4619
  839MOL0     H10738   3.988   8.069   1.500 -2.3568 -1.6357  1.8612
  839MOL0     H10739   3.982   7.982   1.344 -0.8634 -2.3104 -0.5017
  839MOL0     H10740   4.129   7.799   1.466  0.6730  0.1826  1.9108
  839MOL0     H10741   4.209   7.948   1.441  0.6274 -0.1069  0.5993
  839MOL0     H10742   4.080   7.855   1.700 -0.5464  1.6986  1.3131
  839MOL0     H10743   4.117   8.026   1.668  1.6594  0.1742  0.7206
  839MOL0     H10744   4.303   7.871   1.762  1.1797 -0.5872 -0.1638
  839MOL0     H10745   4.336   7.839   1.603  0.5526 -0.8512  1.2212
  839MOL0     H10746   4.470   8.237   1.640  0.4949 -1.5229  0.8514
  839MOL0     H10747   3.666   7.775   1.595  1.8291  0.4215  0.5306
  839MOL0     H10748   3.427   7.834   1.542 -0.7386 -0.4039 -0.2034
  840MOL0     O10749  10.087   9.574   3.155 -0.3404  0.5300 -0.6584
  840MOL0     C10750  10.039   9.515   3.061 -0.3247 -0.0444 -0.2508
  840MOL0     O10751   9.926   9.539   2.995 -0.6442 -0.2186  0.0922
  840MOL0     C10752   9.844   9.647   3.021 -0.3384 -0.6392  0.2234
  840MOL0     C10753   9.907   9.780   3.033  0.7943 -0.6430  0.6638
  840MOL0     C10754   9.834   9.887   3.071  0.7964  0.4160 -0.0785
  840MOL0     C10755   9.698   9.870   3.096 -0.6169  0.0121  0.4924
  840MOL0     O10756   9.619   9.973   3.139  0.6662 -0.2923  0.1522
  840MOL0     C10757   9.658  10.032   3.266  0.4508  0.4962  0.0108
  840MOL0     C10758   9.646   9.905   3.376  0.7514  0.3349 -0.1588
  840MOL0     C10759   9.512   9.838   3.379  0.1661 -0.3143  1.0303
  840MOL0     C10760   9.404   9.938   3.425  0.5514 -0.0905 -0.4102
  840MOL0     C10761   9.259   9.900   3.406  0.3304  0.0108  0.3682
  840MOL0     C10762   9.213   9.865   3.257  0.4619 -0.1614  0.3388
  840MOL0     C10763   9.199   9.709   3.252  0.0903  0.0269  0.1721
  840MOL0     C10764   9.181   9.649   3.121  0.1063 -0.1797 -0.1409
  840MOL0     N10765   9.173   9.506   3.116 -0.0487 -0.1027 -0.1845
  840MOL0     C10766   9.054   9.434   3.114  0.2614 -0.8239 -0.3408
  840MOL0     C10767   9.088   9.311   3.066 -0.2676  0.6165  0.5110
  840MOL0     C10768   8.997   9.208   3.009  0.4092  1.0112  0.4211
  840MOL0     C10769   8.964   9.236   2.861 -0.1089 -0.8700  0.5893
  840MOL0     C10770   9.091   9.213   2.777  0.2401  0.1268 -0.0685
  840MOL0     C10771   9.089   9.221   2.623 -0.8569 -0.0341 -0.5779
  840MOL0     O10772   9.026   9.115   2.537 -0.0398 -0.0537 -0.0909
  840MOL0     C10773   8.894   9.091   2.560  0.0950 -0.4626 -0.2676
  840MOL0     C10774   8.795   9.165   2.501  0.5989 -0.2012  1.2022
  840MOL0     C10775   8.667   9.118   2.509 -0.4334  0.5682  0.1238
  840MOL0     C10776   8.638   9.001   2.584  0.0713 -0.2986  0.0533
  840MOL0     C10777   8.502   8.942   2.589  0.1557  0.7041 -0.1380
  840MOL0     O10778   8.415   8.992   2.506  0.2666  1.0278  0.0638
  840MOL0     C10779   8.298   8.930   2.481 -0.4336 -0.3109  0.2692
  840MOL0     C10780   8.285   8.797   2.466  0.8359  0.0172 -0.6504
  840MOL0     C10781   8.160   8.743   2.453 -0.1961 -1.1609 -0.7815
  840MOL0     C10782   8.044   8.823   2.449  0.4722  0.4131  0.1422
  840MOL0     O10783   7.928   8.752   2.450  0.4878 -0.7010  0.2244
  840MOL0     C10784   7.806   8.833   2.473 -0.2910 -0.1250 -0.3536
  840MOL0     C10785   7.691   8.744   2.512  0.3551  1.0674  0.1970
  840MOL0     C10786   7.567   8.824   2.567 -0.3903 -0.5601 -0.1115
  840MOL0     C10787   7.452   8.739   2.616  0.8068 -0.5378 -0.6659
  840MOL0     C10788   7.354   8.835   2.696 -0.8050 -0.5339 -0.5615
  840MOL0     C10789   7.271   8.757   2.803 -0.2015 -0.4881  0.9018
  840MOL0     C10790   7.204   8.865   2.901  0.5533  0.2801  0.8525
  840MOL0     C10791   7.115   8.797   3.000  0.4966  1.2678  0.1439
  840MOL0    Cl10792   6.970   8.737   2.908  0.3958 -0.4213  0.3147
  840MOL0     C10793   8.058   8.966   2.448  0.3734 -1.0091  0.7065
  840MOL0     C10794   8.185   9.015   2.451 -0.4229  0.0064  0.1224
  840MOL0     O10795   8.474   8.857   2.667  0.0866  0.3498  0.3353
  840MOL0     C10796   8.741   8.932   2.647 -0.0810  1.6000 -0.2269
  840MOL0     C10797   8.870   8.972   2.630 -0.4969  0.6903 -0.2791
  840MOL0     N10798   9.224   9.302   3.057 -0.4504 -0.1228 -0.6290
  840MOL0     N10799   9.275   9.415   3.091 -0.6156 -0.4303  0.2097
  840MOL0     C10800   9.630   9.759   3.054  0.0144  0.2671  0.0522
  840MOL0     C10801   9.704   9.642   3.025  0.3579 -0.5467  0.2777
  840MOL0     C10802  10.117   9.409   3.005  0.1155  0.3240 -0.1073
  840MOL0     C10803  10.255   9.388   3.030  0.2627 -0.6944 -0.7601
  840MOL0     C10804  10.325   9.287   2.972 -0.5840  0.3809 -0.3044
  840MOL0     C10805  10.269   9.196   2.882 -0.6131  0.0470 -0.7322
  840MOL0     O10806  10.335   9.096   2.821  0.4608 -0.1673  0.1748
  840MOL0     C10807  10.477   9.081   2.847  0.4614 -0.5602  0.3861
  840MOL0     C10808  10.537   8.983   2.746 -0.1338 -0.3339 -0.4412
  840MOL0     C10809  10.683   8.951   2.774 -0.4995 -0.1634 -0.2647
  840MOL0     C10810  10.740   8.842   2.678 -0.8704 -0.2998  0.4547
  840MOL0     C10811  10.888   8.802   2.697  0.5235  0.5706  0.2785
  840MOL0     C10812  11.004   8.786   2.714  0.9728  0.2959 -0.4910
  840MOL0     C10813  10.134   9.206   2.872 -0.3284  0.1709 -0.0936
  840MOL0     C10814  10.060   9.303   2.933  1.0006  0.5298 -0.2225
  840MOL0     H10815  10.013   9.789   3.013  0.6473 -1.7186 -0.7012
  840MOL0     H10816   9.874   9.986   3.052  1.5762 -0.2532 -2.2390
  840MOL0     H10817   9.589  10.109   3.303 -0.7195 -1.6314  2.6841
  840MOL0     H10818   9.760  10.070   3.259  1.1156 -0.9151  1.3735
  840MOL0     H10819   9.687   9.930   3.474 -0.2910 -3.3799  1.4000
  840MOL0     H10820   9.712   9.824   3.345  0.0906 -0.0085 -0.6825
  840MOL0     H10821   9.507   9.747   3.440 -0.0263  0.4777  2.2387
  840MOL0     H10822   9.488   9.805   3.278 -0.8070  2.5034  0.2491
  840MOL0     H10823   9.421   9.954   3.532  0.9875 -1.0510 -0.3276
  840MOL0     H10824   9.405  10.038   3.381  1.4778  0.6159  1.1255
  840MOL0     H10825   9.199   9.982   3.447  2.2603  1.9070 -0.3892
  840MOL0     H10826   9.244   9.803   3.455  1.6926 -0.3553  0.1188
  840MOL0     H10827   9.282   9.897   3.178  0.0469 -2.0800 -0.8611
  840MOL0     H10828   9.111   9.897   3.234 -0.3246 -0.1996  3.3179
  840MOL0     H10829   9.291   9.665   3.292 -1.0950  0.5936  3.9403
  840MOL0     H10830   9.113   9.688   3.316  0.1558 -1.5093 -0.2047
  840MOL0     H10831   9.261   9.690   3.059 -1.3957  1.9496 -0.8017
  840MOL0     H10832   9.085   9.689   3.087  0.7551 -0.7334 -2.9192
  840MOL0     H10833   8.956   9.479   3.125  1.7969  2.5963  0.7220
  840MOL0     H10834   8.899   9.206   3.057 -0.1516  0.0370 -0.6966
  840MOL0     H10835   9.042   9.113   3.038 -1.8326  0.1701  1.3263
  840MOL0     H10836   8.927   9.336   2.837  0.3701 -1.2008 -1.7658
  840MOL0     H10837   8.887   9.164   2.835  0.4099 -1.8943  1.7703
  840MOL0     H10838   9.170   9.282   2.809  2.0046 -2.6131  1.9291
  840MOL0     H10839   9.129   9.116   2.808  0.5465  0.8366  1.9571
  840MOL0     H10840   9.187   9.236   2.577 -1.5667  1.7613 -1.6074
  840MOL0     H10841   9.037   9.314   2.600 -1.9187 -0.5358 -0.2704
  840MOL0     H10842   8.811   9.256   2.444  1.1671  0.0933  1.8180
  840MOL0     H10843   8.588   9.163   2.449 -0.8172 -1.1906 -0.7490
  840MOL0     H10844   8.373   8.734   2.463  1.1239  0.4185 -0.7645
  840MOL0     H10845   8.148   8.635   2.456  2.0950 -1.4641  2.0175
  840MOL0     H10846   7.774   8.879   2.379 -0.8687 -1.7459 -0.9782
  840MOL0     H10847   7.828   8.904   2.553  2.5741  0.0915 -1.2149
  840MOL0     H10848   7.721   8.673   2.589  0.4664  3.2883  2.2969
  840MOL0     H10849   7.677   8.683   2.422  0.7777 -2.0444  2.1166
  840MOL0     H10850   7.539   8.896   2.489  1.0355  1.1224  0.8484
  840MOL0     H10851   7.611   8.892   2.641 -0.3794  2.1930 -2.4469
  840MOL0     H10852   7.403   8.694   2.529 -0.4090 -1.0144  0.2315
  840MOL0     H10853   7.490   8.662   2.684  1.3938  2.6071  2.8870
  840MOL0     H10854   7.285   8.890   2.633  0.5396 -0.8988 -2.4258
  840MOL0     H10855   7.410   8.914   2.748  0.7944 -0.7605 -1.8422
  840MOL0     H10856   7.333   8.690   2.864  0.2377 -2.7642 -1.8289
  840MOL0     H10857   7.190   8.703   2.753  0.3661 -0.4937 -0.0351
  840MOL0     H10858   7.275   8.926   2.956 -0.5451  1.4182  1.0523
  840MOL0     H10859   7.148   8.929   2.832  0.2701 -1.9263 -1.0935
  840MOL0     H10860   7.087   8.866   3.080 -4.3649 -0.9967  0.7439
  840MOL0     H10861   7.171   8.716   3.049  0.0507  0.2507 -0.9721
  840MOL0     H10862   7.975   9.036   2.438  1.9076  0.4920 -5.3404
  840MOL0     H10863   8.213   9.120   2.445  0.7471 -0.3596 -1.7414
  840MOL0     H10864   8.721   8.836   2.693  1.1030 -0.1421 -3.0566
  840MOL0     H10865   8.940   8.906   2.679 -2.9963 -1.2892  0.8427
  840MOL0     H10866   9.523   9.751   3.044  0.0860 -0.9671  0.0751
  840MOL0     H10867   9.656   9.547   3.002 -0.1212  0.2437 -2.4353
  840MOL0     H10868  10.311   9.459   3.089 -2.0403 -1.0896  2.1289
  840MOL0     H10869  10.432   9.289   2.988 -0.4985  0.7651 -0.8856
  840MOL0     H10870  10.489   9.032   2.944  0.8613 -0.8307  0.2006
  840MOL0     H10871  10.524   9.180   2.843 -0.3334 -0.2272 -2.5542
  840MOL0     H10872  10.478   8.891   2.750  0.0796 -0.4470  0.1609
  840MOL0     H10873  10.522   9.018   2.643  1.0931  0.5442 -0.3421
  840MOL0     H10874  10.697   8.919   2.878  0.8743 -1.8361 -0.9220
  840MOL0     H10875  10.743   9.041   2.755  2.8299 -2.4615 -1.5382
  840MOL0     H10876  10.690   8.746   2.664  0.2970 -0.4674 -4.2026
  840MOL0     H10877  10.741   8.887   2.578  1.2913  1.0508  1.0135
  840MOL0     H10878  11.110   8.772   2.719  1.0533  0.3200 -1.7685
  840MOL0     H10879  10.083   9.132   2.810  0.1792  0.8768 -1.3938
  840MOL0     H10880   9.952   9.296   2.925  1.1663 -2.8105 -0.5844
  841MOL0     O10881   4.210   1.662   8.153  0.1881  0.0648 -0.4891
  841MOL0     C10882   4.254   1.621   8.264  0.1740 -0.3970  0.1567
  841MOL0     O10883   4.188   1.535   8.343  0.4556  0.8564  1.1777
  841MOL0     C10884   4.074   1.476   8.303  0.2591 -0.0181 -0.0293
  841MOL0     C10885   3.950   1.532   8.340 -0.2649 -0.3382  0.1000
  841MOL0     C10886   3.825   1.473   8.299  0.3212  0.4372  0.0529
  841MOL0     C10887   3.821   1.361   8.211  0.4020 -0.2310  0.4475
  841MOL0     O10888   3.704   1.303   8.168 -0.1534 -0.1765 -0.5252
  841MOL0     C10889   3.579   1.361   8.211 -0.7388  0.8088 -0.0944
  841MOL0     C10890   3.466   1.295   8.131  0.2291 -0.7180 -0.7204
  841MOL0     C10891   3.326   1.341   8.171 -0.4646 -0.3117  0.0911
  841MOL0     C10892   3.208   1.281   8.092  0.0198 -0.1037 -0.1757
  841MOL0     C10893   3.072   1.344   8.127 -1.0853 -0.9814  0.3619
  841MOL0     C10894   2.968   1.251   8.094 -0.0335  0.1620  0.0177
  841MOL0     C10895   2.833   1.329   8.103  0.0212  1.1681 -0.0336
  841MOL0     C10896   2.720   1.236   8.149  0.8099 -0.3239  0.2314
  841MOL0     N10897   2.591   1.297   8.115 -0.1789  0.0503  0.9519
  841MOL0     C10898   2.541   1.279   7.989 -0.3410  0.4003  0.1045
  841MOL0     C10899   2.421   1.322   7.989  0.0214 -0.0809 -0.4651
  841MOL0     C10900   2.313   1.318   7.881  0.7195  0.4731 -0.1108
  841MOL0     C10901   2.310   1.171   7.841 -0.2019  0.1095  0.6050
  841MOL0     C10902   2.185   1.140   7.761  0.9042 -0.7223 -0.7578
  841MOL0     C10903   2.163   0.989   7.764  0.8521 -0.1791  0.3992
  841MOL0     O10904   2.059   0.944   7.665 -0.7621 -0.7135 -0.2455
  841MOL0     C10905   1.932   0.980   7.699  0.3412  0.1395  0.4799
  841MOL0     C10906   1.878   1.093   7.641 -0.6828  0.0953  0.5250
  841MOL0     C10907   1.745   1.122   7.653  0.6393  0.8913 -0.7650
  841MOL0     C10908   1.662   1.038   7.744 -0.9476 -0.3057  0.2331
  841MOL0     C10909   1.529   1.084   7.775 -0.9002 -0.4805  0.1777
  841MOL0     O10910   1.521   1.221   7.769  0.2271  0.0200  0.7013
  841MOL0     C10911   1.404   1.286   7.756 -0.2375  0.7558 -0.0126
  841MOL0     C10912   1.335   1.272   7.637  1.2703  0.7311  0.6499
  841MOL0     C10913   1.225   1.352   7.600 -0.9634 -0.4849 -0.0375
  841MOL0     C10914   1.174   1.436   7.702  0.5959 -0.3228 -0.0700
  841MOL0     O10915   1.042   1.474   7.690  0.5261 -0.2279  0.1467
  841MOL0     C10916   1.029   1.612   7.706 -0.6640  0.4276 -0.2391
  841MOL0     C10917   0.922   1.661   7.612 -0.0032  0.4835  0.7778
  841MOL0     C10918   0.787   1.593   7.652  0.0905  0.4379 -0.1132
  841MOL0     C10919   0.667   1.617   7.566 -0.9526  0.1549 -0.8088
  841MOL0     C10920   0.537   1.629   7.633 -0.3395 -0.4881 -0.2037
  841MOL0     C10921   0.433   1.613   7.525 -0.0387 -0.5769 -0.7269
  841MOL0     C10922   0.288   1.659   7.564  0.8460  0.4818  0.3587
  841MOL0     C10923   0.196   1.690   7.451 -0.6921 -0.4672 -0.3159
  841MOL0    Cl10924   0.090   1.817   7.517  0.0947 -0.1410  0.0789
  841MOL0     C10925   1.234   1.441   7.827  0.1484  0.3386 -0.2920
  841MOL0     C10926   1.351   1.365   7.861 -0.6581 -0.1053  0.4631
  841MOL0     O10927   1.441   1.004   7.801 -0.2987  0.4377  0.7430
  841MOL0     C10928   1.714   0.921   7.794  0.2654  0.2553  0.2481
  841MOL0     C10929   1.847   0.896   7.776 -0.2562 -0.7455  0.3872
  841MOL0     N10930   2.399   1.375   8.112  0.1867 -0.2693  0.6520
  841MOL0     N10931   2.504   1.361   8.191  0.2902 -0.1370  0.4243
  841MOL0     C10932   3.946   1.310   8.171 -0.0666 -0.1781  0.3663
  841MOL0     C10933   4.066   1.368   8.223 -0.1346 -0.0527  0.4410
  841MOL0     C10934   4.386   1.667   8.312 -0.3247 -0.6173  0.1196
  841MOL0     C10935   4.416   1.657   8.450  0.8111 -0.5791  0.2861
  841MOL0     C10936   4.544   1.690   8.501 -0.5824  0.5795  0.0460
  841MOL0     C10937   4.643   1.739   8.414 -0.5894  0.4965 -0.5751
  841MOL0     O10938   4.771   1.783   8.442 -0.1172  0.0643  0.0797
  841MOL0     C10939   4.799   1.804   8.580 -0.2225 -0.0708  0.6645
  841MOL0     C10940   4.738   1.927   8.628  0.2804  0.2800 -0.5813
  841MOL0     C10941   4.761   1.946   8.789 -0.9029 -0.4424  0.2726
  841MOL0     C10942   4.870   2.053   8.817  0.0388 -0.1353 -0.5002
  841MOL0     C10943   4.803   2.178   8.806  0.2892  0.4459  0.4134
  841MOL0     C10944   4.741   2.278   8.804  0.4045  0.7388  0.6745
  841MOL0     C10945   4.608   1.760   8.279  0.0627  0.0483  0.6909
  841MOL0     C10946   4.487   1.708   8.227 -0.5878 -0.4971 -0.4830
  841MOL0     H10947   3.938   1.616   8.407  0.4866 -1.2699  1.4572
  841MOL0     H10948   3.732   1.503   8.346  1.0319  0.9770  1.1696
  841MOL0     H10949   3.574   1.468   8.188  0.5232  1.2945  1.7150
  841MOL0     H10950   3.563   1.350   8.318 -2.0252  0.9075 -0.2528
  841MOL0     H10951   3.457   1.186   8.140  2.5753 -1.2702 -3.4688
  841MOL0     H10952   3.470   1.321   8.025 -0.0343  0.7408 -0.3946
  841MOL0     H10953   3.324   1.450   8.169 -1.8925 -0.3235 -0.0317
  841MOL0     H10954   3.322   1.312   8.277  1.6735 -1.2566 -0.0416
  841MOL0     H10955   3.240   1.289   7.987 -0.8644 -1.1807 -0.5459
  841MOL0     H10956   3.200   1.173   8.108 -1.1079  0.1006  0.6895
  841MOL0     H10957   3.051   1.441   8.080 -2.3981 -0.7126  1.4584
  841MOL0     H10958   3.077   1.364   8.234 -3.2442 -0.0158  0.3204
  841MOL0     H10959   2.971   1.177   8.175 -1.0290 -0.4255 -0.4656
  841MOL0     H10960   2.977   1.195   8.000  1.8669  1.3878 -0.5800
  841MOL0     H10961   2.833   1.412   8.176  1.9864 -1.1970  2.8874
  841MOL0     H10962   2.809   1.371   8.005 -1.5805 -1.1880 -0.7190
  841MOL0     H10963   2.731   1.225   8.257  1.6717  0.2943  0.2109
  841MOL0     H10964   2.725   1.135   8.107 -0.1987 -0.3824  0.2118
  841MOL0     H10965   2.589   1.222   7.911 -2.3691  0.1334 -1.0121
  841MOL0     H10966   2.345   1.389   7.804  0.2862  1.1705  0.3450
  841MOL0     H10967   2.220   1.359   7.921  1.6921 -0.0867  2.9694
  841MOL0     H10968   2.285   1.128   7.938  1.3297  2.9382  2.4039
  841MOL0     H10969   2.402   1.137   7.793 -0.3818 -0.4944  0.6845
  841MOL0     H10970   2.098   1.184   7.811  1.4387  0.8385 -1.1214
  841MOL0     H10971   2.193   1.176   7.658 -0.8778  0.4510 -0.5317
  841MOL0     H10972   2.133   0.949   7.861  0.6408 -3.8026 -1.0303
  841MOL0     H10973   2.258   0.941   7.742  1.0074 -0.5641  1.8222
  841MOL0     H10974   1.950   1.139   7.575  0.6003  0.5467  2.1767
  841MOL0     H10975   1.689   1.201   7.603 -1.3002 -1.1826 -2.0514
  841MOL0     H10976   1.373   1.205   7.561 -1.0096 -0.5918  0.5804
  841MOL0     H10977   1.164   1.341   7.511 -1.5912 -0.5548  0.3924
  841MOL0     H10978   1.125   1.662   7.691  0.3768 -0.9078  1.6452
  841MOL0     H10979   0.997   1.629   7.809  1.4123 -2.9597  1.1264
  841MOL0     H10980   0.941   1.633   7.507 -3.1067 -0.5507  0.3727
  841MOL0     H10981   0.912   1.770   7.614  4.9314  1.1385  1.8230
  841MOL0     H10982   0.769   1.631   7.753  1.1329  3.8851 -1.0685
  841MOL0     H10983   0.783   1.484   7.653 -4.1738  0.4234  0.1281
  841MOL0     H10984   0.686   1.713   7.516  2.5171  1.2470  2.1770
  841MOL0     H10985   0.657   1.543   7.485 -0.4284  0.2916 -1.0056
  841MOL0     H10986   0.524   1.726   7.681  2.5599 -0.1203  0.0291
  841MOL0     H10987   0.519   1.546   7.701 -0.2339 -0.2224  0.1524
  841MOL0     H10988   0.424   1.505   7.508 -3.9729 -1.2881  3.9301
  841MOL0     H10989   0.469   1.659   7.432  3.5027 -2.2472 -0.3676
  841MOL0     H10990   0.242   1.575   7.617  0.2753  1.8356  2.1078
  841MOL0     H10991   0.298   1.745   7.631  2.8554  1.3250 -0.9586
  841MOL0     H10992   0.142   1.599   7.424 -0.9577  0.1044 -1.7810
  841MOL0     H10993   0.244   1.732   7.362 -3.3030 -0.2158 -1.7116
  841MOL0     H10994   1.186   1.506   7.900  1.5748  1.2134 -0.0861
  841MOL0     H10995   1.393   1.373   7.960 -0.9574 -1.2972  0.7024
  841MOL0     H10996   1.642   0.849   7.832  0.1140  0.8348  1.0752
  841MOL0     H10997   1.894   0.806   7.815  1.5508  0.5223  1.2785
  841MOL0     H10998   3.948   1.238   8.090  1.3965  1.0553 -0.7766
  841MOL0     H10999   4.162   1.333   8.185  0.2181 -0.9155  2.0504
  841MOL0     H11000   4.352   1.622   8.530  2.8692 -0.0982  2.2741
  841MOL0     H11001   4.563   1.675   8.607 -3.7836  1.0673  0.7901
  841MOL0     H11002   4.908   1.811   8.586 -0.0401 -1.4120 -0.5802
  841MOL0     H11003   4.773   1.710   8.631 -0.0308 -1.4751 -1.7180
  841MOL0     H11004   4.780   2.016   8.580  0.9759 -0.2643 -1.0133
  841MOL0     H11005   4.630   1.930   8.611  0.2159  0.6383 -0.1089
  841MOL0     H11006   4.776   1.850   8.839 -0.5786 -2.0045 -2.6082
  841MOL0     H11007   4.664   1.980   8.825 -0.4988 -0.3199  1.2787
  841MOL0     H11008   4.918   2.056   8.916  4.6827 -0.4042 -2.4847
  841MOL0     H11009   4.939   2.026   8.736 -1.2906 -3.2994 -0.7348
  841MOL0     H11010   4.676   2.362   8.814 -2.1549 -0.8512 -1.3983
  841MOL0     H11011   4.674   1.801   8.203 -1.3994 -1.1890 -1.3666
  841MOL0     H11012   4.470   1.721   8.121 -2.0866  2.1712 -0.0136
  842MOL0     O11013   0.687   3.892   3.004  0.3367  0.0121 -0.2831
  842MOL0     C11014   0.698   3.976   3.095 -0.9007 -0.2800  0.1124
  842MOL0     O11015   0.605   4.066   3.132 -1.0963 -0.0664 -0.2920
  842MOL0     C11016   0.476   4.056   3.086 -0.1408 -0.1312  0.1624
  842MOL0     C11017   0.396   4.167   3.047  0.2257  0.4786 -0.6082
  842MOL0     C11018   0.262   4.144   3.008 -0.4859  0.1680  0.3199
  842MOL0     C11019   0.204   4.020   3.034  0.5727  0.0128  0.0892
  842MOL0     O11020   0.073   3.999   3.017  0.6684  0.4815  0.9616
  842MOL0     C11021  -0.022   4.097   2.987 -0.3875  0.5493  0.1569
  842MOL0     C11022  -0.069   4.192   3.100 -0.4759  0.4750  0.0419
  842MOL0     C11023  -0.150   4.127   3.213  0.3161  0.3005  0.3479
  842MOL0     C11024  -0.241   4.248   3.271  0.3794 -0.2163  0.3998
  842MOL0     C11025  -0.353   4.187   3.361 -1.2068 -0.6351  0.0778
  842MOL0     C11026  -0.457   4.291   3.408  0.3269 -0.0722 -0.1577
  842MOL0     C11027  -0.554   4.218   3.500 -0.1152  0.9600  0.9684
  842MOL0     C11028  -0.660   4.309   3.570 -0.3239 -0.0161  0.5905
  842MOL0     N11029  -0.749   4.233   3.664  0.6272 -0.2155  0.5573
  842MOL0     C11030  -0.721   4.148   3.767 -0.4575  0.5819 -1.1829
  842MOL0     C11031  -0.849   4.103   3.802 -0.4930 -0.2629 -0.1442
  842MOL0     C11032  -0.845   4.007   3.916  0.0422  0.1016  0.2410
  842MOL0     C11033  -0.843   3.863   3.863 -0.2424 -0.0068  0.0765
  842MOL0     C11034  -0.806   3.772   3.980  0.0499  0.1945 -0.5739
  842MOL0     C11035  -0.896   3.784   4.101 -0.0816  0.4742 -0.4828
  842MOL0     O11036  -1.031   3.790   4.060  1.2489  0.3702  0.5582
  842MOL0     C11037  -1.128   3.779   4.157  0.8718 -0.5392  0.0020
  842MOL0     C11038  -1.100   3.771   4.295 -0.2959 -0.5693 -0.2254
  842MOL0     C11039  -1.201   3.751   4.392 -1.0194 -0.3043 -0.1958
  842MOL0     C11040  -1.333   3.742   4.353  0.5538 -0.2743  0.4585
  842MOL0     C11041  -1.450   3.716   4.442  0.0045  0.1589 -0.2669
  842MOL0     O11042  -1.574   3.723   4.386  0.4481 -0.2872  0.8045
  842MOL0     C11043  -1.689   3.744   4.454  0.5318  0.2061 -0.3942
  842MOL0     C11044  -1.703   3.824   4.564 -0.8226 -0.4072 -0.4601
  842MOL0     C11045  -1.824   3.839   4.625 -0.6480  1.1984 -0.0331
  842MOL0     C11046  -1.941   3.786   4.573  0.3657  0.2006 -0.2355
  842MOL0     O11047  -2.066   3.819   4.621 -0.5314 -0.2694 -0.7690
  842MOL0     C11048  -2.073   3.880   4.745 -0.3114 -0.1047  0.0369
  842MOL0     C11049  -2.224   3.892   4.768  1.0012 -0.7446  0.5720
  842MOL0     C11050  -2.311   3.774   4.810  0.0186 -0.7525  0.2995
  842MOL0     C11051  -2.451   3.826   4.830  0.4647 -0.0032 -0.6832
  842MOL0     C11052  -2.540   3.718   4.870  0.8239  0.3134  0.0933
  842MOL0     C11053  -2.661   3.794   4.933 -0.4383  0.1581  0.3653
  842MOL0     C11054  -2.764   3.690   4.988  0.5697 -0.2147 -0.2629
  842MOL0     C11055  -2.877   3.760   5.066  0.1159 -0.2865  0.3474
  842MOL0    Cl11056  -2.956   3.880   4.966  0.3993 -0.0255 -0.0904
  842MOL0     C11057  -1.934   3.710   4.456 -0.2211 -0.9013  0.1256
  842MOL0     C11058  -1.813   3.692   4.403  0.1523 -0.1561 -0.0888
  842MOL0     O11059  -1.419   3.683   4.560 -0.1444 -0.6072  0.5358
  842MOL0     C11060  -1.361   3.761   4.218 -0.3283  0.3582 -0.1863
  842MOL0     C11061  -1.259   3.787   4.124 -0.5477 -0.1967  0.1852
  842MOL0     N11062  -0.944   4.153   3.718 -0.1294 -1.0819  1.0473
  842MOL0     N11063  -0.879   4.230   3.637  0.9303 -0.1517  0.2843
  842MOL0     C11064   0.276   3.913   3.077  0.6071 -0.3369  0.2486
  842MOL0     C11065   0.416   3.928   3.102  0.4134  0.6641 -0.3259
  842MOL0     C11066   0.836   3.993   3.163 -0.4908  0.3909 -0.3655
  842MOL0     C11067   0.861   4.072   3.282 -0.3670  1.4250  0.5484
  842MOL0     C11068   0.978   4.086   3.350 -1.2936  0.2263  0.7533
  842MOL0     C11069   1.091   4.019   3.307 -0.2981 -0.9692  0.1451
  842MOL0     O11070   1.212   4.022   3.373  0.4560  0.1657 -0.1003
  842MOL0     C11071   1.232   4.118   3.483 -0.0899 -0.0166 -0.8385
  842MOL0     C11072   1.367   4.102   3.567  0.3814 -0.3633 -0.0616
  842MOL0     C11073   1.400   3.952   3.594  0.9110  0.4984  0.7404
  842MOL0     C11074   1.391   3.911   3.744 -0.4581  0.0545 -0.3138
  842MOL0     C11075   1.386   3.768   3.750  0.7295  0.5220  0.2536
  842MOL0     C11076   1.389   3.650   3.761  0.4409  0.6308  0.3542
  842MOL0     C11077   1.082   3.941   3.189  0.3747 -0.1099 -0.0528
  842MOL0     C11078   0.954   3.928   3.120 -0.4767  0.1525  0.7928
  842MOL0     H11079   0.434   4.268   3.058 -0.2642  0.4851  1.3776
  842MOL0     H11080   0.210   4.233   2.975 -1.3525  0.2326  1.7951
  842MOL0     H11081  -0.113   4.045   2.956 -1.7884  2.8543  0.2031
  842MOL0     H11082   0.010   4.149   2.896  0.9109 -2.2374 -1.1060
  842MOL0     H11083  -0.122   4.271   3.047 -0.0369 -0.4106 -1.7982
  842MOL0     H11084   0.021   4.231   3.149 -1.2534  0.7130  1.3431
  842MOL0     H11085  -0.089   4.082   3.292  2.4071  0.5976 -1.0169
  842MOL0     H11086  -0.220   4.050   3.179 -1.1920  1.9419 -0.4652
  842MOL0     H11087  -0.195   4.334   3.321  0.4581 -0.9067  1.5683
  842MOL0     H11088  -0.293   4.293   3.186 -2.0838 -0.8933  1.4525
  842MOL0     H11089  -0.300   4.153   3.450 -0.6842  1.0926  0.4792
  842MOL0     H11090  -0.400   4.108   3.302  0.6585 -1.9572  0.2926
  842MOL0     H11091  -0.510   4.338   3.325  1.2189  2.7171  0.7576
  842MOL0     H11092  -0.416   4.376   3.463  0.6007 -0.6542  0.5719
  842MOL0     H11093  -0.598   4.143   3.434 -0.5387  2.0105  0.0390
  842MOL0     H11094  -0.502   4.160   3.577  2.3276 -1.2597 -2.0765
  842MOL0     H11095  -0.731   4.341   3.493 -0.6148 -2.0576 -0.0456
  842MOL0     H11096  -0.610   4.391   3.623 -0.5065  0.0494  0.6604
  842MOL0     H11097  -0.624   4.115   3.804 -1.5181  1.0319  2.4236
  842MOL0     H11098  -0.939   4.033   3.967 -0.4539  0.6913 -0.9457
  842MOL0     H11099  -0.763   4.043   3.979  0.2224  2.5757 -1.2641
  842MOL0     H11100  -0.763   3.865   3.789  2.4452  3.7885  2.6954
  842MOL0     H11101  -0.937   3.838   3.812 -0.5310  2.7626 -0.9197
  842MOL0     H11102  -0.807   3.674   3.931  0.6790  0.9088 -2.0617
  842MOL0     H11103  -0.708   3.808   4.010  0.5214  1.5339 -3.3918
  842MOL0     H11104  -0.873   3.877   4.154  1.0799 -0.4393  0.6954
  842MOL0     H11105  -0.887   3.700   4.170  1.5707  1.2898  0.3641
  842MOL0     H11106  -1.002   3.761   4.342  0.9306  0.5877 -2.3678
  842MOL0     H11107  -1.172   3.724   4.493 -3.0797 -0.0763  0.5093
  842MOL0     H11108  -1.619   3.866   4.617  0.3821  0.5153 -2.9213
  842MOL0     H11109  -1.810   3.896   4.716  3.9780 -2.1893  1.8239
  842MOL0     H11110  -2.025   3.978   4.745  2.2881 -1.2522  1.8045
  842MOL0     H11111  -2.026   3.812   4.817  0.8304  0.3908 -0.2201
  842MOL0     H11112  -2.275   3.939   4.683  0.1619 -0.2186  1.3426
  842MOL0     H11113  -2.232   3.971   4.843  3.7117  0.2444 -0.0709
  842MOL0     H11114  -2.268   3.729   4.899  1.1843  1.1494  0.7677
  842MOL0     H11115  -2.303   3.695   4.734 -2.1891 -1.3689  0.6263
  842MOL0     H11116  -2.441   3.904   4.907  3.2057 -1.0130  0.0939
  842MOL0     H11117  -2.496   3.864   4.738 -0.5932 -1.6809 -0.9093
  842MOL0     H11118  -2.494   3.648   4.941  1.5491 -1.5106 -2.0471
  842MOL0     H11119  -2.562   3.652   4.785 -0.0578 -0.4743  0.9082
  842MOL0     H11120  -2.700   3.863   4.859  5.3129  1.9346 -1.5343
  842MOL0     H11121  -2.635   3.855   5.020 -1.0742  0.7768  0.1294
  842MOL0     H11122  -2.807   3.639   4.902  2.3163 -1.1981 -0.6023
  842MOL0     H11123  -2.720   3.624   5.064 -0.6407  1.4219  1.9748
  842MOL0     H11124  -2.837   3.801   5.159  0.4908  2.0532 -0.7933
  842MOL0     H11125  -2.946   3.680   5.095 -0.4220 -0.6765 -1.8546
  842MOL0     H11126  -2.024   3.673   4.408 -0.3295 -0.9458  0.3599
  842MOL0     H11127  -1.787   3.628   4.320  0.7132 -1.4508  1.0493
  842MOL0     H11128  -1.464   3.771   4.184 -0.5567  1.7976  0.8559
  842MOL0     H11129  -1.290   3.807   4.022 -0.8634 -1.1342  0.0879
  842MOL0     H11130   0.222   3.827   3.115  1.0002 -0.2308  1.0669
  842MOL0     H11131   0.477   3.848   3.145  1.3231  1.0176 -0.9365
  842MOL0     H11132   0.784   4.135   3.323 -0.2079  2.9683 -1.3515
  842MOL0     H11133   0.981   4.158   3.431 -1.3281  2.0345 -0.7698
  842MOL0     H11134   1.160   4.107   3.565  0.6507  0.5088 -0.1034
  842MOL0     H11135   1.222   4.222   3.452 -2.7675  0.4997  1.3334
  842MOL0     H11136   1.455   4.137   3.512  1.6318 -0.1834  1.9558
  842MOL0     H11137   1.349   4.158   3.659 -0.2567  1.7525 -1.4100
  842MOL0     H11138   1.490   3.919   3.542 -0.5852 -0.2890 -1.5029
  842MOL0     H11139   1.338   3.883   3.536  3.1713  1.1241 -2.7132
  842MOL0     H11140   1.472   3.953   3.805 -0.3431  1.1899 -1.2330
  842MOL0     H11141   1.295   3.951   3.777 -1.6049 -1.9640 -1.0057
  842MOL0     H11142   1.394   3.544   3.752  0.0188  0.6901 -0.7890
  842MOL0     H11143   1.170   3.886   3.156 -1.2598 -1.6736 -2.1716
  842MOL0     H11144   0.959   3.863   3.034  0.0530  0.7517  0.3648
  843MOL0     O11145   4.136   3.865   9.919 -0.3954  0.0110  0.1361
  843MOL0     C11146   4.126   3.983   9.950  0.1687  0.3095  0.8455
  843MOL0     O11147   4.022   4.038  10.013  0.4001 -0.3830  0.1909
  843MOL0     C11148   3.905   3.971  10.047 -0.1427 -0.1121 -0.1774
  843MOL0     C11149   3.868   3.971  10.179  0.0689 -0.3266 -0.3627
  843MOL0     C11150   3.748   3.902  10.225 -0.8537 -1.3431  0.4173
  843MOL0     C11151   3.683   3.830  10.130 -0.4012 -0.7387  0.2976
  843MOL0     O11152   3.570   3.762  10.184 -0.7447  0.0747  0.1695
  843MOL0     C11153   3.477   3.707  10.089 -0.1391 -0.8639  0.4006
  843MOL0     C11154   3.392   3.615  10.175  0.1515  0.5518 -0.4836
  843MOL0     C11155   3.286   3.531  10.089  0.3652  0.0523  0.0141
  843MOL0     C11156   3.181   3.608  10.014  0.1964 -1.1096  0.6339
  843MOL0     C11157   3.106   3.532   9.915  0.0327  0.6105 -0.3676
  843MOL0     C11158   2.966   3.597   9.867  0.0808 -0.5519  0.2013
  843MOL0     C11159   2.860   3.597   9.979 -0.2596  0.4939 -0.0129
  843MOL0     C11160   2.732   3.621   9.907 -0.1964 -0.7683  0.0567
  843MOL0     N11161   2.614   3.656   9.989  0.4147 -0.1176 -0.1632
  843MOL0     C11162   2.557   3.578  10.086  0.4835 -0.5761 -0.0962
  843MOL0     C11163   2.460   3.659  10.134  0.4183  0.6228 -0.2988
  843MOL0     C11164   2.383   3.620  10.259 -0.9363 -0.1465  0.5414
  843MOL0     C11165   2.236   3.615  10.238 -0.4188  0.0848 -0.9504
  843MOL0     C11166   2.168   3.602  10.372  0.4062  0.4273  0.1597
  843MOL0     C11167   2.022   3.589  10.353 -1.1939 -0.1458  1.7693
  843MOL0     O11168   1.958   3.605  10.476  0.0696 -0.4249  0.2421
  843MOL0     C11169   1.825   3.565  10.497 -0.9675 -1.0754 -0.1290
  843MOL0     C11170   1.737   3.507  10.402 -0.7952  0.3513 -0.8752
  843MOL0     C11171   1.603   3.481  10.424  0.1231 -0.3423  0.2557
  843MOL0     C11172   1.555   3.501  10.554  0.3034  0.4284 -0.5174
  843MOL0     C11173   1.412   3.468  10.584  0.9538 -0.0583 -0.7599
  843MOL0     O11174   1.334   3.447  10.470 -0.0465 -0.3560 -0.4379
  843MOL0     C11175   1.209   3.389  10.492 -0.0569  0.5852 -0.3578
  843MOL0     C11176   1.168   3.315  10.378  0.3719  0.6775 -0.1077
  843MOL0     C11177   1.041   3.254  10.389 -0.0402  0.2980 -0.5114
  843MOL0     C11178   0.947   3.292  10.484  0.1266 -0.1503 -0.2185
  843MOL0     O11179   0.818   3.258  10.487 -0.2843 -0.7720  0.0492
  843MOL0     C11180   0.750   3.271  10.360  0.0120  1.0932  0.6602
  843MOL0     C11181   0.601   3.281  10.376 -0.0157 -0.1185 -0.8535
  843MOL0     C11182   0.529   3.277  10.244 -0.2130  0.0695 -0.5222
  843MOL0     C11183   0.384   3.262  10.272  0.5194  0.5290  0.2597
  843MOL0     C11184   0.311   3.207  10.148  0.3032 -0.2167  0.0378
  843MOL0     C11185   0.156   3.202  10.172 -0.1193  0.7330  0.2680
  843MOL0     C11186   0.093   3.122  10.063 -0.1165  0.0514 -0.2180
  843MOL0     C11187  -0.052   3.146  10.057 -0.2330  0.9685  0.4156
  843MOL0    Cl11188  -0.132   3.098  10.214  0.0587  0.4248 -0.2897
  843MOL0     C11189   0.987   3.353  10.599  0.8378  0.3880  0.6214
  843MOL0     C11190   1.118   3.403  10.607  0.0861 -0.7149 -0.6300
  843MOL0     O11191   1.377   3.450  10.702 -0.4260  0.0991 -0.1522
  843MOL0     C11192   1.638   3.563  10.648  0.2409 -0.4698  0.3452
  843MOL0     C11193   1.768   3.602  10.620  0.2143  0.2524  0.4190
  843MOL0     N11194   2.465   3.784  10.077  0.6658  0.0712  0.3342
  843MOL0     N11195   2.559   3.776   9.987  0.6068 -0.5800  0.9965
  843MOL0     C11196   3.735   3.819   9.993  0.6755 -0.0698 -0.1157
  843MOL0     C11197   3.845   3.889   9.954 -0.2226 -1.1563 -0.1703
  843MOL0     C11198   4.232   4.065   9.909  0.0437 -0.4799 -0.1574
  843MOL0     C11199   4.286   4.163   9.993 -0.0051 -0.5418 -0.1989
  843MOL0     C11200   4.393   4.248   9.949 -0.0788  0.1819 -0.0062
  843MOL0     C11201   4.441   4.234   9.819 -0.2729  1.3731 -1.1297
  843MOL0     O11202   4.546   4.311   9.766 -0.5512  0.8532 -0.0979
  843MOL0     C11203   4.616   4.402   9.849 -0.0825 -0.2280  0.6251
  843MOL0     C11204   4.720   4.352   9.943 -0.0629 -0.6812 -0.0294
  843MOL0     C11205   4.822   4.464   9.993  0.2330  0.5780  0.1168
  843MOL0     C11206   4.934   4.487   9.885 -0.1685 -0.8132  0.7105
  843MOL0     C11207   4.999   4.615   9.903 -0.3124  0.0871 -0.5013
  843MOL0     C11208   5.060   4.718   9.933  0.2216 -0.8758 -0.0345
  843MOL0     C11209   4.376   4.143   9.733 -0.2143  0.3185 -0.5845
  843MOL0     C11210   4.275   4.055   9.778 -0.3447 -0.1146 -0.1589
  843MOL0     H11211   3.922   4.032  10.251  1.7964 -1.9326 -0.2019
  843MOL0     H11212   3.730   3.898  10.332  0.8075 -1.4947  0.7292
  843MOL0     H11213   3.523   3.649  10.009 -0.7992 -1.2974  0.3245
  843MOL0     H11214   3.414   3.787  10.049 -0.0828 -1.3259 -0.6319
  843MOL0     H11215   3.343   3.665  10.258 -0.9049 -1.0806 -0.0847
  843MOL0     H11216   3.457   3.537  10.215  0.9266  0.8853 -1.0573
  843MOL0     H11217   3.239   3.464  10.162  1.1512 -1.2547 -0.6415
  843MOL0     H11218   3.347   3.481  10.014  1.2645  1.2500 -0.0933
  843MOL0     H11219   3.114   3.640  10.094 -0.1176 -1.2354  0.4227
  843MOL0     H11220   3.222   3.697   9.966  2.1332 -1.4962  1.4937
  843MOL0     H11221   3.077   3.440   9.967  2.5985 -0.2505 -0.2925
  843MOL0     H11222   3.175   3.507   9.834  1.8646  2.0568  0.6628
  843MOL0     H11223   2.928   3.550   9.775 -0.7854 -1.3183  0.9254
  843MOL0     H11224   2.997   3.700   9.847  2.0470 -0.9535  0.9280
  843MOL0     H11225   2.861   3.500  10.029 -1.8751 -1.1277 -2.8550
  843MOL0     H11226   2.867   3.670  10.060  0.6196 -3.1520  3.5350
  843MOL0     H11227   2.695   3.534   9.853  0.5432 -1.1234  0.1230
  843MOL0     H11228   2.748   3.701   9.833 -0.6347 -1.4883 -0.8389
  843MOL0     H11229   2.585   3.477  10.115 -0.2483 -1.3723 -2.0379
  843MOL0     H11230   2.422   3.699  10.325 -0.9480  1.9310 -1.7744
  843MOL0     H11231   2.414   3.521  10.292 -0.3979 -0.4747 -0.8843
  843MOL0     H11232   2.215   3.527  10.177  0.8772 -1.3720  0.6027
  843MOL0     H11233   2.210   3.715  10.200  0.8054  1.5816  1.8191
  843MOL0     H11234   2.209   3.518  10.430  3.5726  0.7204 -1.3893
  843MOL0     H11235   2.192   3.689  10.433  0.6446  1.2022 -1.0160
  843MOL0     H11236   1.995   3.501  10.295 -0.4468  0.9730 -0.4034
  843MOL0     H11237   1.990   3.673  10.290  0.5756 -1.1673 -0.6240
  843MOL0     H11238   1.768   3.478  10.302 -1.4998 -0.2906 -0.9129
  843MOL0     H11239   1.535   3.450  10.345 -1.8175 -3.7399  2.9832
  843MOL0     H11240   1.243   3.313  10.300 -0.2709  2.6744 -0.8375
  843MOL0     H11241   1.012   3.177  10.318 -2.3410 -1.3767  2.0561
  843MOL0     H11242   0.765   3.179  10.304 -4.3072 -2.1818  4.1933
  843MOL0     H11243   0.790   3.356  10.305  0.0091  1.3304  1.0208
  843MOL0     H11244   0.594   3.377  10.428  1.2809 -0.3639 -0.1623
  843MOL0     H11245   0.568   3.206  10.448 -0.2659  3.3870  3.0055
  843MOL0     H11246   0.567   3.215  10.163 -2.0768  2.0705 -3.0941
  843MOL0     H11247   0.544   3.376  10.200  2.8575 -1.1324 -2.4978
  843MOL0     H11248   0.364   3.184  10.346  1.1739  0.9784  0.9095
  843MOL0     H11249   0.333   3.355  10.297  0.8443  1.5346 -2.4186
  843MOL0     H11250   0.365   3.115  10.124  1.3394  0.8211 -1.8166
  843MOL0     H11251   0.318   3.270  10.059  2.5893 -1.8106 -1.0077
  843MOL0     H11252   0.115   3.302  10.182  1.9252  1.5488  1.1501
  843MOL0     H11253   0.139   3.150  10.267  2.4823  2.8181  2.0261
  843MOL0     H11254   0.143   3.157   9.973  0.7219 -0.8647 -0.1276
  843MOL0     H11255   0.116   3.015  10.070  2.6649  0.4963 -1.3598
  843MOL0     H11256  -0.089   3.098   9.966  1.5398  2.1414 -0.9745
  843MOL0     H11257  -0.073   3.253  10.050  1.4341  1.5283  2.7365
  843MOL0     H11258   0.914   3.357  10.679 -0.5504 -2.2532 -0.3778
  843MOL0     H11259   1.138   3.462  10.696 -2.2902  0.8120 -1.0186
  843MOL0     H11260   1.612   3.580  10.752 -0.4845  3.7995 -0.3274
  843MOL0     H11261   1.822   3.659  10.695 -0.1446 -1.8242  2.3612
  843MOL0     H11262   3.686   3.771   9.909  1.6428 -1.4340  0.0575
  843MOL0     H11263   3.878   3.882   9.851 -0.0582  1.6026 -0.3760
  843MOL0     H11264   4.248   4.190  10.091  0.9864 -2.7040  0.8514
  843MOL0     H11265   4.421   4.326  10.018 -1.1876 -0.0355  0.7226
  843MOL0     H11266   4.546   4.449   9.919  1.8201  0.2260  2.3240
  843MOL0     H11267   4.668   4.475   9.787 -0.3960  2.2117  3.0407
  843MOL0     H11268   4.682   4.308  10.035  0.1269  0.9208  0.8472
  843MOL0     H11269   4.782   4.282   9.885  1.7713  2.1755 -1.7926
  843MOL0     H11270   4.874   4.419  10.078  0.0472 -2.3268 -1.1934
  843MOL0     H11271   4.771   4.557  10.021 -2.3435 -0.9828  0.9623
  843MOL0     H11272   5.004   4.405   9.874 -1.0393 -1.4754 -0.0622
  843MOL0     H11273   4.882   4.507   9.790  1.0131 -1.1791 -0.0301
  843MOL0     H11274   5.117   4.800   9.971  0.5880  0.7143 -3.6282
  843MOL0     H11275   4.416   4.123   9.634 -0.5718  0.0524 -0.6755
  843MOL0     H11276   4.217   3.998   9.707 -2.0231  1.6507 -0.2832
  844MOL0     O11277  10.366   9.669   2.918  0.1616  0.1455  0.0602
  844MOL0     C11278  10.472   9.665   2.978  0.0902  0.8978  0.7343
  844MOL0     O11279  10.511   9.759   3.068 -0.1317  0.4990 -0.7500
  844MOL0     C11280  10.422   9.855   3.091 -0.1848 -0.2905  0.5459
  844MOL0     C11281  10.331   9.833   3.192  0.4904 -0.7608 -0.5889
  844MOL0     C11282  10.219   9.914   3.206 -0.1083  0.9461 -0.1352
  844MOL0     C11283  10.215  10.034   3.136  0.3650 -0.5144 -0.4649
  844MOL0     O11284  10.116  10.121   3.163  0.7914  0.1299  0.0463
  844MOL0     C11285  10.120  10.238   3.095 -0.5248 -0.8678 -0.1970
  844MOL0     C11286   9.989  10.305   3.120  0.9145 -0.8033  0.2534
  844MOL0     C11287   9.972  10.341   3.277 -0.5182 -0.5101 -0.2184
  844MOL0     C11288   9.840  10.421   3.302 -0.0587  0.4480  0.6026
  844MOL0     C11289   9.823  10.555   3.226 -0.6128 -0.0020 -0.4273
  844MOL0     C11290   9.687  10.613   3.286 -0.2033 -0.1261 -0.4260
  844MOL0     C11291   9.641  10.741   3.198 -0.0017 -0.5127  0.0744
  844MOL0     C11292   9.518  10.806   3.257 -0.1961 -0.0593 -0.9422
  844MOL0     N11293   9.555  10.929   3.330  0.9569 -0.6376 -0.3010
  844MOL0     C11294   9.526  10.966   3.458  0.1183  0.8347  0.1488
  844MOL0     C11295   9.532  11.100   3.457  0.2743  0.3189  0.3042
  844MOL0     C11296   9.485  11.176   3.574  0.0138 -0.2914  0.1970
  844MOL0     C11297   9.603  11.173   3.670  0.2264 -0.4183 -0.0012
  844MOL0     C11298   9.555  11.251   3.795 -0.1857 -0.4305  0.4812
  844MOL0     C11299   9.681  11.292   3.875 -0.8835 -0.2300  0.1218
  844MOL0     O11300   9.721  11.176   3.958  0.6438 -0.2506 -0.3805
  844MOL0     C11301   9.785  11.213   4.073 -0.6840 -0.2863 -0.0043
  844MOL0     C11302   9.706  11.224   4.192  0.2632  0.0730 -0.0886
  844MOL0     C11303   9.772  11.262   4.312  0.2198 -0.5954 -0.5250
  844MOL0     C11304   9.912  11.281   4.319  0.1790  0.6996 -0.4414
  844MOL0     C11305   9.979  11.316   4.446  0.9850  0.2377 -0.1162
  844MOL0     O11306   9.893  11.311   4.558 -0.1719 -0.0137  0.9714
  844MOL0     C11307   9.945  11.321   4.683  0.5607 -0.9156  0.6579
  844MOL0     C11308  10.034  11.230   4.728 -0.7143  1.0229  0.2507
  844MOL0     C11309  10.078  11.238   4.866 -0.6671 -0.2062 -0.2462
  844MOL0     C11310  10.036  11.348   4.938  0.1481  0.5717 -0.7686
  844MOL0     O11311  10.074  11.349   5.067 -1.4581 -0.9078  0.0843
  844MOL0     C11312  10.131  11.477   5.121 -0.7785 -0.3024 -0.1373
  844MOL0     C11313  10.153  11.464   5.274  0.2288 -0.3354 -0.1107
  844MOL0     C11314  10.014  11.443   5.336  0.4520  0.1452 -0.7267
  844MOL0     C11315  10.014  11.438   5.492  0.1282  0.3131 -0.3968
  844MOL0     C11316   9.885  11.444   5.564 -0.2511  0.3628  0.6482
  844MOL0     C11317   9.902  11.451   5.717 -0.2686  0.0708 -0.4840
  844MOL0     C11318   9.779  11.516   5.774 -0.2103 -0.8405 -0.2160
  844MOL0     C11319   9.837  11.591   5.893  0.4916 -1.0409 -0.3469
  844MOL0    Cl11320   9.694  11.684   5.957  0.2280  0.2818  0.1591
  844MOL0     C11321   9.946  11.441   4.896  0.3107  0.2341  0.1572
  844MOL0     C11322   9.896  11.427   4.765  0.8897  0.3965  0.7504
  844MOL0     O11323  10.097  11.329   4.448 -0.4485 -0.1797 -0.0225
  844MOL0     C11324   9.983  11.265   4.202  0.4242 -0.0635  0.1141
  844MOL0     C11325   9.924  11.223   4.082  0.0001  0.0657 -0.2571
  844MOL0     N11326   9.570  11.148   3.334 -0.9765 -0.0774  0.4698
  844MOL0     N11327   9.583  11.049   3.263 -0.1996  0.4052  0.3259
  844MOL0     C11328  10.318  10.058   3.038 -0.2775 -0.5568 -0.3702
  844MOL0     C11329  10.408   9.965   3.006  0.0438  0.1434  0.0970
  844MOL0     C11330  10.570   9.561   2.953  0.2326  0.1692  0.1252
  844MOL0     C11331  10.563   9.490   2.831  0.0182 -0.3252 -0.7326
  844MOL0     C11332  10.664   9.402   2.786  0.6638  0.0427 -0.9620
  844MOL0     C11333  10.777   9.394   2.877  1.0240 -0.0999  0.4040
  844MOL0     O11334  10.869   9.308   2.828  0.1264 -0.9122  0.3791
  844MOL0     C11335  10.993   9.294   2.895 -0.3037 -0.6254 -0.1227
  844MOL0     C11336  11.065   9.177   2.830 -0.7406  0.4043  0.1614
  844MOL0     C11337  11.088   9.198   2.682  0.1120  0.0262 -0.2250
  844MOL0     C11338  11.237   9.241   2.660  0.2166 -0.0658  0.8515
  844MOL0     C11339  11.341   9.130   2.666  0.4550  0.6149 -0.5974
  844MOL0     C11340  11.413   9.033   2.689 -0.4908  0.1382 -0.1966
  844MOL0     C11341  10.776   9.462   2.998  0.7030  0.2056 -0.1380
  844MOL0     C11342  10.677   9.544   3.036  0.0323  0.3832 -0.0761
  844MOL0     H11343  10.329   9.749   3.261 -2.9389  1.0203  1.7897
  844MOL0     H11344  10.143   9.885   3.278  0.8051  1.8663  1.2480
  844MOL0     H11345  10.130  10.221   2.988 -2.4982 -0.4308 -0.4965
  844MOL0     H11346  10.205  10.303   3.116 -0.0394 -1.0363 -1.5865
  844MOL0     H11347   9.905  10.242   3.090 -0.0275  1.1671 -1.4613
  844MOL0     H11348   9.990  10.394   3.057  0.8824 -0.2012  1.0836
  844MOL0     H11349  10.047  10.419   3.290 -1.4774  0.5785 -1.0045
  844MOL0     H11350   9.968  10.252   3.341 -2.1862  0.1430  0.6279
  844MOL0     H11351   9.754  10.368   3.262 -0.6342  0.8947  1.2134
  844MOL0     H11352   9.824  10.424   3.411 -0.8530 -1.7519  0.5945
  844MOL0     H11353   9.819  10.541   3.118  1.1532  0.8453 -0.6370
  844MOL0     H11354   9.905  10.621   3.257 -0.8297 -0.0448  0.2535
  844MOL0     H11355   9.709  10.644   3.388  0.3764  0.8175 -0.8157
  844MOL0     H11356   9.605  10.541   3.295  1.7147 -2.0669  3.8920
  844MOL0     H11357   9.719  10.817   3.185 -0.2377 -0.4107 -0.8550
  844MOL0     H11358   9.611  10.702   3.100 -3.3651  0.2592  0.6626
  844MOL0     H11359   9.463  10.739   3.324  0.0661 -0.0668 -0.7327
  844MOL0     H11360   9.449  10.837   3.179 -1.6130 -1.4160 -0.2938
  844MOL0     H11361   9.497  10.895   3.535  2.1390  1.0216  1.1538
  844MOL0     H11362   9.403  11.119   3.618 -0.4095  0.6314  0.6370
  844MOL0     H11363   9.453  11.280   3.557  0.4980 -0.0711  0.6003
  844MOL0     H11364   9.697  11.219   3.639  0.4864  0.3308  1.7502
  844MOL0     H11365   9.616  11.068   3.697  1.9091 -1.0482 -2.8831
  844MOL0     H11366   9.506  11.340   3.753 -1.9811 -1.1819  0.8729
  844MOL0     H11367   9.486  11.188   3.852 -0.1095 -0.3191  0.7002
  844MOL0     H11368   9.665  11.383   3.935  0.9295 -0.2120  0.6510
  844MOL0     H11369   9.768  11.319   3.814 -0.1846 -1.9219  0.3087
  844MOL0     H11370   9.600  11.202   4.193  0.0208  1.1688  0.5283
  844MOL0     H11371   9.717  11.284   4.403  4.0418 -0.6058  2.0081
  844MOL0     H11372  10.074  11.151   4.666  1.1074  3.1212 -1.4323
  844MOL0     H11373  10.132  11.165   4.925 -1.0169 -1.1827 -1.1031
  844MOL0     H11374  10.070  11.566   5.101  0.1803  0.3525 -0.2198
  844MOL0     H11375  10.222  11.477   5.059 -0.5266 -0.3585  0.2300
  844MOL0     H11376  10.208  11.549   5.315  0.5158  1.0779 -3.2111
  844MOL0     H11377  10.212  11.373   5.293 -1.1811 -1.3467 -0.4736
  844MOL0     H11378   9.976  11.346   5.303 -0.0844  1.6136 -5.0031
  844MOL0     H11379   9.938  11.516   5.306 -1.3689 -0.7399  1.4250
  844MOL0     H11380  10.074  11.352   5.521  1.8118  0.6202 -2.6205
  844MOL0     H11381  10.061  11.530   5.529 -0.9096  0.3448  0.9185
  844MOL0     H11382   9.843  11.345   5.543  0.4993 -0.3211  2.1787
  844MOL0     H11383   9.824  11.526   5.525  0.7358  0.9078  0.2142
  844MOL0     H11384   9.994  11.506   5.739 -0.8933  1.0598 -0.3040
  844MOL0     H11385   9.914  11.352   5.763  0.1821  0.1180 -0.4921
  844MOL0     H11386   9.734  11.575   5.695  1.2507 -1.4659 -1.5661
  844MOL0     H11387   9.705  11.441   5.802 -0.6640 -0.5287 -0.5623
  844MOL0     H11388   9.926  11.648   5.865  1.0985 -3.1255 -3.1053
  844MOL0     H11389   9.871  11.518   5.966 -0.1010 -2.0503 -1.0559
  844MOL0     H11390   9.900  11.520   4.954  0.2547  0.0311  0.3909
  844MOL0     H11391   9.835  11.504   4.718  2.1366  1.9360  1.5672
  844MOL0     H11392  10.089  11.285   4.212 -0.0755  2.8399  0.3272
  844MOL0     H11393   9.981  11.203   3.992  0.1088  1.0583 -0.4261
  844MOL0     H11394  10.303  10.133   2.961  0.0632 -1.6431 -1.5396
  844MOL0     H11395  10.460   9.975   2.912 -2.9069  1.5050 -1.5333
  844MOL0     H11396  10.477   9.502   2.766 -0.1042 -1.1727 -0.7441
  844MOL0     H11397  10.658   9.348   2.692 -2.9696 -1.6509  0.0628
  844MOL0     H11398  10.999   9.283   3.003  0.5484  2.2247  0.2157
  844MOL0     H11399  11.044   9.387   2.866  1.3155 -1.9611 -1.7782
  844MOL0     H11400  11.162   9.169   2.880  0.8090  0.6433 -2.6424
  844MOL0     H11401  11.013   9.081   2.841 -0.9581  0.5545  0.4464
  844MOL0     H11402  11.021   9.270   2.636  0.6397 -0.4765 -1.8329
  844MOL0     H11403  11.077   9.105   2.625  0.4594  0.1186 -0.4466
  844MOL0     H11404  11.254   9.298   2.568  3.4235  0.2902  1.5452
  844MOL0     H11405  11.246   9.310   2.745 -0.8323  0.1693  0.7881
  844MOL0     H11406  11.472   8.944   2.699 -0.2526  0.2555 -0.5553
  844MOL0     H11407  10.850   9.449   3.076  0.9693 -0.9145 -0.5592
  844MOL0     H11408  10.688   9.597   3.130  0.8172  1.2877 -0.6531
  845MOL0     O11409   1.596  10.978   2.327 -0.2809  0.0594 -0.1604
  845MOL0     C11410   1.689  10.925   2.381  0.9050  0.8941  1.2847
  845MOL0     O11411   1.699  10.899   2.514 -0.9870 -0.5300 -0.5810
  845MOL0     C11412   1.604  10.952   2.605  0.2230 -0.1836 -0.5383
  845MOL0     C11413   1.465  10.951   2.574  0.8004  0.2896 -0.3682
  845MOL0     C11414   1.360  10.999   2.655 -0.0341  1.5747  0.3204
  845MOL0     C11415   1.390  11.042   2.780 -0.5036 -0.5409 -0.3338
  845MOL0     O11416   1.300  11.093   2.870  0.6292 -0.5152  0.0965
  845MOL0     C11417   1.334  11.122   3.005  0.6408  0.6842 -0.3046
  845MOL0     C11418   1.345  10.992   3.089  0.7224 -0.3692  1.0393
  845MOL0     C11419   1.218  10.908   3.104 -0.2499 -0.3559  0.7949
  845MOL0     C11420   1.083  10.969   3.119  0.2545  0.7990  0.0627
  845MOL0     C11421   0.980  10.870   3.180  0.5921 -0.2897  0.4696
  845MOL0     C11422   0.997  10.863   3.330 -0.5626  0.0886  0.1598
  845MOL0     C11423   0.895  10.771   3.391  0.6154 -1.0425  0.0706
  845MOL0     C11424   0.751  10.819   3.399 -0.8611  0.6473 -0.1396
  845MOL0     N11425   0.724  10.934   3.487  0.8118  0.3167  0.3695
  845MOL0     C11426   0.666  11.051   3.439 -0.5009  0.5506 -0.4011
  845MOL0     C11427   0.636  11.130   3.553  0.3314  0.2216  0.5187
  845MOL0     C11428   0.557  11.248   3.557 -0.5428  0.5044 -0.7955
  845MOL0     C11429   0.399  11.220   3.541 -0.1623 -0.1550 -0.1387
  845MOL0     C11430   0.319  11.348   3.553 -0.7093 -0.3544 -1.0978
  845MOL0     C11431   0.169  11.319   3.553 -0.5975 -0.0290  0.3981
  845MOL0     O11432   0.100  11.441   3.515 -0.3401 -0.4440  0.9382
  845MOL0     C11433  -0.035  11.450   3.494 -0.4822  0.0068  0.3150
  845MOL0     C11434  -0.082  11.570   3.434 -0.0796  0.1953  0.2804
  845MOL0     C11435  -0.218  11.585   3.408 -0.8247 -0.5879  0.3061
  845MOL0     C11436  -0.305  11.484   3.447  0.4795  1.0356 -0.6978
  845MOL0     C11437  -0.450  11.508   3.437 -0.4315  0.0113  0.2817
  845MOL0     O11438  -0.488  11.640   3.445  0.0666  0.1288 -0.1820
  845MOL0     C11439  -0.615  11.678   3.416 -0.3828 -0.3445  0.7235
  845MOL0     C11440  -0.696  11.630   3.317 -0.2611  0.5443  0.3832
  845MOL0     C11441  -0.817  11.678   3.279 -0.2693  0.5826  0.8247
  845MOL0     C11442  -0.876  11.770   3.354  0.7297  0.2319  0.2236
  845MOL0     O11443  -1.003  11.808   3.324 -0.0689 -0.5880  0.2802
  845MOL0     C11444  -1.100  11.773   3.423 -0.0449  0.3587 -0.8508
  845MOL0     C11445  -1.230  11.847   3.446 -0.0875 -0.4170 -0.4573
  845MOL0     C11446  -1.333  11.820   3.339 -0.0857  0.5791 -0.4032
  845MOL0     C11447  -1.454  11.913   3.368 -0.8641 -0.3288  0.4272
  845MOL0     C11448  -1.438  12.048   3.294 -1.0489  0.4966 -0.1028
  845MOL0     C11449  -1.576  12.112   3.279 -0.7943  0.3904  0.0446
  845MOL0     C11450  -1.549  12.255   3.230  0.0884 -0.5536  0.4405
  845MOL0     C11451  -1.649  12.364   3.275 -0.4869  0.2083  0.1074
  845MOL0    Cl11452  -1.805  12.301   3.262 -0.0178  0.3661 -0.2769
  845MOL0     C11453  -0.802  11.830   3.455  1.2528  0.8519  0.5818
  845MOL0     C11454  -0.668  11.791   3.478 -0.8570  0.4656  0.5089
  845MOL0     O11455  -0.521  11.409   3.427 -0.3104  0.4615  0.1869
  845MOL0     C11456  -0.263  11.366   3.504 -0.6199  0.3087 -0.2852
  845MOL0     C11457  -0.124  11.349   3.520 -0.6628 -0.0938  0.2054
  845MOL0     N11458   0.682  11.059   3.660  0.6529  0.6120  0.0453
  845MOL0     N11459   0.735  10.946   3.617 -0.3376 -0.6602 -0.5146
  845MOL0     C11460   1.532  11.051   2.817 -0.2976  0.6328 -0.4106
  845MOL0     C11461   1.635  11.008   2.735 -0.0809  0.0397 -0.2511
  845MOL0     C11462   1.794  10.874   2.286  0.3286  0.2127 -0.1038
  845MOL0     C11463   1.781  10.871   2.146 -0.5059 -0.8094 -0.2344
  845MOL0     C11464   1.881  10.823   2.057 -0.6925 -0.6621  0.4991
  845MOL0     C11465   2.001  10.780   2.111 -0.4392  0.3736  0.3384
  845MOL0     O11466   2.093  10.727   2.022 -0.1088  0.0182 -0.1645
  845MOL0     C11467   2.229  10.742   2.052  0.4386  0.7016  0.0234
  845MOL0     C11468   2.306  10.761   1.915 -0.4016  0.2423 -0.4407
  845MOL0     C11469   2.456  10.779   1.934  0.1974 -0.1326 -0.2184
  845MOL0     C11470   2.536  10.813   1.812 -0.9324  0.1222 -0.6280
  845MOL0     C11471   2.673  10.837   1.840 -0.8046 -0.5626 -0.7677
  845MOL0     C11472   2.795  10.859   1.845  0.2350 -0.3351 -1.5490
  845MOL0     C11473   2.023  10.800   2.251  0.0763 -0.2169  0.5341
  845MOL0     C11474   1.920  10.844   2.344  0.4148  0.4199  0.2731
  845MOL0     H11475   1.434  10.914   2.477 -2.0152  0.7689  0.2494
  845MOL0     H11476   1.257  10.997   2.623 -0.1972  0.7972  0.8631
  845MOL0     H11477   1.251  11.185   3.039  0.3302  2.6323 -4.1343
  845MOL0     H11478   1.423  11.182   3.024  3.2168 -2.0367 -2.6702
  845MOL0     H11479   1.390  11.019   3.184 -1.3846  1.8154  1.5273
  845MOL0     H11480   1.417  10.926   3.039 -1.7236 -0.8179 -2.2864
  845MOL0     H11481   1.233  10.849   3.194 -2.3025 -0.7038  0.9578
  845MOL0     H11482   1.218  10.841   3.017  3.9088 -0.9807  1.0764
  845MOL0     H11483   1.080  11.064   3.175 -0.8275  3.3629 -3.9131
  845MOL0     H11484   1.042  11.001   3.022 -2.0035 -0.2914  0.5826
  845MOL0     H11485   0.987  10.772   3.130  2.5051  0.9533 -1.9153
  845MOL0     H11486   0.879  10.909   3.170  1.7229  3.3953  1.8404
  845MOL0     H11487   0.990  10.962   3.375 -3.0690  0.2616 -0.4324
  845MOL0     H11488   1.092  10.813   3.353 -0.7200 -0.9072 -1.1935
  845MOL0     H11489   0.893  10.674   3.340  0.6435 -1.0909  0.1605
  845MOL0     H11490   0.930  10.746   3.491 -0.5878  2.0804  1.3930
  845MOL0     H11491   0.691  10.737   3.440 -1.2744  1.5225  1.0452
  845MOL0     H11492   0.719  10.844   3.298  2.5171 -0.4627 -1.6356
  845MOL0     H11493   0.641  11.076   3.336  1.7958 -0.3226 -1.2302
  845MOL0     H11494   0.594  11.313   3.476 -2.0671  2.1948 -0.1995
  845MOL0     H11495   0.578  11.286   3.657  0.5545 -2.4617  0.2057
  845MOL0     H11496   0.371  11.155   3.624 -0.7550  3.8087  3.0965
  845MOL0     H11497   0.380  11.168   3.446  0.1791  2.5069 -1.7750
  845MOL0     H11498   0.340  11.416   3.635 -0.5428 -0.0695 -1.3724
  845MOL0     H11499   0.346  11.397   3.459  1.7153 -4.0934 -2.6251
  845MOL0     H11500   0.150  11.282   3.654  0.4004 -4.6922 -0.8621
  845MOL0     H11501   0.137  11.237   3.487  0.1841  0.2123 -0.2928
  845MOL0     H11502  -0.017  11.655   3.418  1.4243 -0.8319  0.7720
  845MOL0     H11503  -0.257  11.674   3.359 -3.1447  0.5611  3.8654
  845MOL0     H11504  -0.668  11.547   3.252  2.0883  1.6122 -0.0873
  845MOL0     H11505  -0.855  11.628   3.190  1.0661 -0.8030  0.9896
  845MOL0     H11506  -1.051  11.777   3.521  2.0770  1.1352 -1.8863
  845MOL0     H11507  -1.123  11.669   3.398  0.4378  0.0724 -0.1656
  845MOL0     H11508  -1.199  11.951   3.451  1.2425 -0.6998 -1.8233
  845MOL0     H11509  -1.265  11.816   3.545 -0.3292  1.4591  0.0678
  845MOL0     H11510  -1.375  11.720   3.355  0.6857  0.5365  1.5740
  845MOL0     H11511  -1.292  11.829   3.237  0.7322 -2.5086 -0.4317
  845MOL0     H11512  -1.538  11.861   3.321 -0.2705 -0.0158 -1.0508
  845MOL0     H11513  -1.477  11.924   3.474 -1.6859  0.1660  0.2034
  845MOL0     H11514  -1.394  12.037   3.194 -1.1363 -2.0141  0.0725
  845MOL0     H11515  -1.371  12.105   3.358  2.2620 -2.5549 -0.5261
  845MOL0     H11516  -1.611  12.094   3.381  0.0121 -2.1798 -0.0756
  845MOL0     H11517  -1.649  12.069   3.210 -0.0610  2.6395 -2.2784
  845MOL0     H11518  -1.447  12.286   3.255  0.2794 -2.7606  2.8278
  845MOL0     H11519  -1.553  12.244   3.121 -1.6508 -1.6062  0.5639
  845MOL0     H11520  -1.639  12.454   3.214  3.4072 -0.7346 -0.9061
  845MOL0     H11521  -1.624  12.386   3.379  0.6882 -3.2143  0.6759
  845MOL0     H11522  -0.846  11.907   3.518 -0.1285  0.5813  0.0010
  845MOL0     H11523  -0.602  11.841   3.549  0.2586  1.4281 -1.1193
  845MOL0     H11524  -0.338  11.295   3.538  0.0947  0.6093  2.0562
  845MOL0     H11525  -0.092  11.253   3.562 -2.7419 -0.8939  0.0594
  845MOL0     H11526   1.558  11.078   2.919 -1.4210  0.9980 -0.2089
  845MOL0     H11527   1.732  11.019   2.781 -0.7390 -1.1061  1.5159
  845MOL0     H11528   1.701  10.924   2.096  1.1433  0.2870 -1.8161
  845MOL0     H11529   1.873  10.823   1.949  2.6457  0.9139  0.1302
  845MOL0     H11530   2.268  10.662   2.116  1.4441  1.3760  0.2666
  845MOL0     H11531   2.231  10.836   2.107 -1.2271  0.4788  0.5426
  845MOL0     H11532   2.296  10.670   1.855  2.5214 -0.6423  0.2158
  845MOL0     H11533   2.264  10.844   1.858  0.8056  1.1194 -0.1013
  845MOL0     H11534   2.497  10.687   1.977  0.5992  0.2618  0.2469
  845MOL0     H11535   2.473  10.859   2.006  0.9469  0.7984 -1.4144
  845MOL0     H11536   2.534  10.726   1.747  0.3843 -1.1192  0.9213
  845MOL0     H11537   2.503  10.901   1.756 -0.3672 -2.0375 -4.7259
  845MOL0     H11538   2.901  10.856   1.861 -0.1307 -3.4007  1.2778
  845MOL0     H11539   2.115  10.769   2.301  0.5406  2.2656  1.3486
  845MOL0     H11540   1.936  10.854   2.451 -0.9782 -0.8383  0.6430
  846MOL0     O11541   1.742   1.443   8.955  0.3041 -0.0523  0.1530
  846MOL0     C11542   1.809   1.478   8.860  0.2891 -0.2522  0.2479
  846MOL0     O11543   1.756   1.516   8.739 -0.2734  0.5307  0.0002
  846MOL0     C11544   1.620   1.513   8.729  0.1056  0.1017 -0.7185
  846MOL0     C11545   1.567   1.403   8.667 -0.0533  0.8605  0.3867
  846MOL0     C11546   1.430   1.387   8.657  0.2085 -0.5587 -0.1417
  846MOL0     C11547   1.338   1.485   8.712  0.2174 -0.0537 -0.5053
  846MOL0     O11548   1.202   1.479   8.697  0.6614 -0.2017 -0.3534
  846MOL0     C11549   1.117   1.399   8.785 -1.1655  0.7471  0.8842
  846MOL0     C11550   0.999   1.338   8.704 -0.9100  0.2832  0.1049
  846MOL0     C11551   0.901   1.448   8.661  0.2466 -0.1159 -0.2854
  846MOL0     C11552   0.801   1.397   8.559  0.4979  0.3160  0.7871
  846MOL0     C11553   0.662   1.472   8.565 -0.2129 -0.1252  0.2129
  846MOL0     C11554   0.662   1.613   8.492  0.1036 -0.2508  1.1615
  846MOL0     C11555   0.525   1.655   8.481 -1.1912  1.0583  0.3719
  846MOL0     C11556   0.516   1.783   8.399 -0.2135 -0.1877 -0.5600
  846MOL0     N11557   0.375   1.821   8.378 -0.5285 -0.1984  0.8171
  846MOL0     C11558   0.293   1.736   8.310  0.4094 -0.4604 -0.9153
  846MOL0     C11559   0.175   1.785   8.365  0.1903 -0.1289  0.0772
  846MOL0     C11560   0.048   1.728   8.311 -0.1131  0.1782 -0.7099
  846MOL0     C11561  -0.063   1.826   8.308 -0.5251  0.8229 -0.8169
  846MOL0     C11562  -0.174   1.768   8.217 -0.4608 -0.1172  0.2238
  846MOL0     C11563  -0.300   1.863   8.221  0.2243 -0.9263  0.0516
  846MOL0     O11564  -0.403   1.822   8.126 -0.1568  0.2133 -0.0490
  846MOL0     C11565  -0.513   1.906   8.112  0.1153 -0.4372 -0.5242
  846MOL0     C11566  -0.619   1.860   8.031 -1.1822  1.2419 -0.0441
  846MOL0     C11567  -0.732   1.931   8.006  0.0895  0.0678 -0.8249
  846MOL0     C11568  -0.757   2.051   8.081 -0.2656  0.2331 -0.2809
  846MOL0     C11569  -0.881   2.126   8.074 -0.2289 -0.2021  0.2439
  846MOL0     O11570  -0.967   2.096   7.970 -0.4657  0.1926 -0.1169
  846MOL0     C11571  -1.074   2.174   7.959 -0.2585  0.1659  0.7975
  846MOL0     C11572  -1.078   2.267   7.855  0.0313  0.5661  0.3307
  846MOL0     C11573  -1.186   2.363   7.842  0.2919  0.6151  0.4239
  846MOL0     C11574  -1.302   2.359   7.921 -0.8731  0.2577  0.2069
  846MOL0     O11575  -1.408   2.438   7.881 -0.1392  0.5995 -0.1436
  846MOL0     C11576  -1.532   2.416   7.941  0.7897 -0.3670  0.1346
  846MOL0     C11577  -1.631   2.516   7.876 -0.6873  0.0389 -0.5298
  846MOL0     C11578  -1.637   2.643   7.961 -0.5358 -0.3645  0.1862
  846MOL0     C11579  -1.752   2.736   7.927  0.0547 -0.2369 -0.0183
  846MOL0     C11580  -1.745   2.861   8.022  0.2709  0.3979 -0.7535
  846MOL0     C11581  -1.884   2.934   8.019  0.5379 -1.2759  0.3202
  846MOL0     C11582  -1.887   3.053   8.111  1.2631  0.6616 -0.2943
  846MOL0     C11583  -1.996   3.155   8.077  0.2020  0.0718 -0.7692
  846MOL0    Cl11584  -2.151   3.059   8.044 -0.0791 -0.3658  0.3252
  846MOL0     C11585  -1.298   2.267   8.025  1.2251 -0.2954  0.0059
  846MOL0     C11586  -1.190   2.171   8.045 -0.0777 -0.4448 -0.7089
  846MOL0     O11587  -0.902   2.215   8.155 -0.0923 -0.1152 -0.5739
  846MOL0     C11588  -0.653   2.088   8.174 -0.6412  0.6806 -0.4313
  846MOL0     C11589  -0.531   2.025   8.173 -0.0702 -0.8356  0.0644
  846MOL0     N11590   0.191   1.898   8.438 -0.2708  0.1027  0.3807
  846MOL0     N11591   0.317   1.928   8.438  0.2455 -0.4466  0.4071
  846MOL0     C11592   1.401   1.597   8.771  0.4882  1.2936 -0.1416
  846MOL0     C11593   1.536   1.617   8.773  0.3893 -0.1364 -0.4812
  846MOL0     C11594   1.953   1.496   8.891 -0.2735  0.0941 -1.2009
  846MOL0     C11595   2.019   1.418   8.985  0.9058 -0.3237 -0.3529
  846MOL0     C11596   2.153   1.441   9.022 -0.0064  0.5603 -0.9134
  846MOL0     C11597   2.218   1.548   8.969 -0.0749  0.1241 -0.2474
  846MOL0     O11598   2.341   1.588   9.003 -1.1411 -0.5360 -0.5191
  846MOL0     C11599   2.421   1.519   9.100 -0.0085 -1.2776  0.0631
  846MOL0     C11600   2.548   1.594   9.132  0.3782  0.2787  0.4394
  846MOL0     C11601   2.644   1.580   9.010 -0.2405  0.3450  0.5635
  846MOL0     C11602   2.786   1.593   9.058 -0.7890  0.8202  0.4803
  846MOL0     C11603   2.810   1.721   9.105 -0.1839  0.4321 -1.0351
  846MOL0     C11604   2.814   1.820   9.165 -0.4028 -0.4436 -0.1724
  846MOL0     C11605   2.150   1.625   8.879 -0.6262 -0.7860  0.5812
  846MOL0     C11606   2.025   1.603   8.834 -0.2193  0.2043  0.0812
  846MOL0     H11607   1.623   1.325   8.616 -1.2142  0.5825 -0.5086
  846MOL0     H11608   1.386   1.301   8.609  0.6273 -0.0675 -1.4405
  846MOL0     H11609   1.074   1.464   8.861 -0.6610  0.8208  1.1127
  846MOL0     H11610   1.173   1.318   8.833  1.0034 -0.8269 -3.6919
  846MOL0     H11611   0.942   1.257   8.751 -2.1652 -2.4794 -5.3036
  846MOL0     H11612   1.030   1.290   8.610 -0.8551 -0.4294  0.4869
  846MOL0     H11613   0.960   1.530   8.618 -1.4207  0.1493 -2.2365
  846MOL0     H11614   0.840   1.481   8.745  1.5754  3.6895 -0.6256
  846MOL0     H11615   0.843   1.403   8.458 -1.1097 -1.9976 -0.0965
  846MOL0     H11616   0.777   1.291   8.573  0.6087  0.1796  0.0048
  846MOL0     H11617   0.637   1.496   8.669 -1.2866  1.8539 -0.4532
  846MOL0     H11618   0.588   1.404   8.522 -1.3292  1.1673  0.0199
  846MOL0     H11619   0.716   1.611   8.397  2.9968 -2.9739  2.7000
  846MOL0     H11620   0.721   1.686   8.548  1.3887 -0.0842 -0.3642
  846MOL0     H11621   0.465   1.573   8.440 -0.5363  1.0480 -0.5826
  846MOL0     H11622   0.485   1.676   8.581 -3.0558  3.1769 -0.7292
  846MOL0     H11623   0.578   1.773   8.310  0.8499 -1.5850  0.2954
  846MOL0     H11624   0.564   1.863   8.458  0.9332 -0.1309 -1.5383
  846MOL0     H11625   0.323   1.657   8.242  4.0525 -0.6050  0.6140
  846MOL0     H11626   0.020   1.644   8.375  1.8434 -0.3690 -0.5136
  846MOL0     H11627   0.061   1.690   8.209 -2.8752  3.1690 -2.3643
  846MOL0     H11628  -0.024   1.915   8.259 -1.5703  2.0009  0.4446
  846MOL0     H11629  -0.100   1.845   8.409  1.7361 -1.2364  0.5128
  846MOL0     H11630  -0.133   1.758   8.117  0.9752 -1.6239  0.9246
  846MOL0     H11631  -0.200   1.671   8.261  1.0040  0.6602  3.0781
  846MOL0     H11632  -0.257   1.960   8.193  2.5717 -1.5242  1.2931
  846MOL0     H11633  -0.357   1.880   8.313 -0.4939 -0.0941 -0.5285
  846MOL0     H11634  -0.598   1.763   7.987 -4.0028  0.5710 -0.0973
  846MOL0     H11635  -0.816   1.890   7.952 -3.6089  2.3176  2.6801
  846MOL0     H11636  -0.996   2.275   7.784 -1.6149  1.4564 -1.5651
  846MOL0     H11637  -1.185   2.437   7.762  0.2201 -0.2493 -0.3937
  846MOL0     H11638  -1.526   2.417   8.050 -0.7335 -0.5953  0.2404
  846MOL0     H11639  -1.560   2.317   7.905  0.6893  0.2134 -1.4744
  846MOL0     H11640  -1.728   2.471   7.851 -0.6811 -0.5911  0.4995
  846MOL0     H11641  -1.589   2.546   7.780  0.8363 -2.1488 -0.6236
  846MOL0     H11642  -1.539   2.691   7.969 -1.2055  0.7485  4.3303
  846MOL0     H11643  -1.655   2.624   8.068 -1.6396 -0.4564 -0.0041
  846MOL0     H11644  -1.760   2.768   7.823  1.7163 -1.6054 -0.6199
  846MOL0     H11645  -1.844   2.683   7.952  0.6749 -0.9849  0.7412
  846MOL0     H11646  -1.655   2.913   7.989  1.8176 -1.7160 -0.1104
  846MOL0     H11647  -1.728   2.821   8.123  0.3344 -2.7697 -1.9252
  846MOL0     H11648  -1.972   2.872   8.036 -1.1553  1.0235  0.3359
  846MOL0     H11649  -1.901   2.974   7.919  2.1815 -0.7793  0.2049
  846MOL0     H11650  -1.891   3.029   8.217 -0.1222  0.0693 -0.4505
  846MOL0     H11651  -1.793   3.102   8.088  1.0708  0.3136 -2.0367
  846MOL0     H11652  -1.977   3.207   7.983 -1.6379  0.9531 -0.7049
  846MOL0     H11653  -2.020   3.230   8.153  1.5903  0.0970 -0.3393
  846MOL0     H11654  -1.373   2.274   8.103  1.2481  0.1514 -0.0126
  846MOL0     H11655  -1.194   2.111   8.136  3.1090  1.7291  1.0319
  846MOL0     H11656  -0.661   2.175   8.238  0.5955 -0.1595  0.9512
  846MOL0     H11657  -0.450   2.071   8.228  0.0052 -0.3512 -0.4354
  846MOL0     H11658   1.334   1.671   8.814  1.0694  2.4882 -1.2025
  846MOL0     H11659   1.586   1.704   8.814  0.9452 -0.1065 -1.2192
  846MOL0     H11660   1.964   1.347   9.047  0.7543  0.0510 -0.0537
  846MOL0     H11661   2.196   1.388   9.106  0.2018  1.8722 -0.1714
  846MOL0     H11662   2.453   1.425   9.054 -0.1015  0.0755 -3.0322
  846MOL0     H11663   2.363   1.501   9.191 -0.1394 -2.4784 -0.2388
  846MOL0     H11664   2.534   1.702   9.145 -0.5289  0.4354 -1.4858
  846MOL0     H11665   2.587   1.539   9.218 -0.4069  0.1419  0.7246
  846MOL0     H11666   2.631   1.655   8.931  1.9878  0.9762  0.7281
  846MOL0     H11667   2.629   1.484   8.960 -1.7844  1.2727 -0.8827
  846MOL0     H11668   2.803   1.515   9.133  2.0351 -0.3846 -1.2579
  846MOL0     H11669   2.850   1.559   8.976  1.3377  2.6266  1.2684
  846MOL0     H11670   2.806   1.915   9.213  0.6069 -1.3299  1.9052
  846MOL0     H11671   2.197   1.717   8.844 -0.9326 -0.9500 -0.2890
  846MOL0     H11672   1.989   1.677   8.762 -0.1890 -0.6041 -0.7768
  847MOL0     O11673  11.266   1.689   1.741  0.1901 -0.4253  0.2514
  847MOL0     C11674  11.355   1.746   1.803  0.1111  0.4250  0.5489
  847MOL0     O11675  11.423   1.856   1.761  0.0972 -0.4120  0.4025
  847MOL0     C11676  11.392   1.899   1.634  0.6855 -0.6385  0.3190
  847MOL0     C11677  11.483   1.882   1.531  0.0606 -0.9607 -0.4325
  847MOL0     C11678  11.457   1.914   1.401  0.1312  0.3085 -0.3567
  847MOL0     C11679  11.337   1.972   1.372  0.3025 -0.3192 -0.1008
  847MOL0     O11680  11.288   2.016   1.247 -0.3019  0.2150  0.4980
  847MOL0     C11681  11.372   1.990   1.134  0.0338  0.7838 -0.8441
  847MOL0     C11682  11.294   1.991   1.003 -0.3162 -0.1195  0.2030
  847MOL0     C11683  11.196   2.110   0.978  0.0724 -0.2972 -0.1753
  847MOL0     C11684  11.143   2.098   0.837  0.7837 -0.2915 -0.7316
  847MOL0     C11685  11.036   2.202   0.812  0.3751  0.5275 -0.1373
  847MOL0     C11686  10.893   2.138   0.828  1.0455  0.0025  0.5327
  847MOL0     C11687  10.782   2.235   0.794  0.2802 -0.1499  0.1146
  847MOL0     C11688  10.774   2.270   0.646 -0.2349  0.1059  0.4031
  847MOL0     N11689  10.651   2.326   0.591  0.6528  0.2819 -0.3474
  847MOL0     C11690  10.606   2.451   0.618  0.2635  0.0272  0.7005
  847MOL0     C11691  10.488   2.458   0.547  0.6882  0.3312  0.5250
  847MOL0     C11692  10.382   2.567   0.545 -0.4854  1.2209 -0.3139
  847MOL0     C11693  10.388   2.652   0.423 -0.1252 -0.7827  0.2304
  847MOL0     C11694  10.504   2.755   0.425  0.2936  0.2804 -0.1216
  847MOL0     C11695  10.571   2.768   0.287  0.1635 -0.3555 -0.3574
  847MOL0     O11696  10.617   2.632   0.243 -0.2375 -0.7040  0.1828
  847MOL0     C11697  10.739   2.592   0.283 -0.1498 -0.4671 -0.0653
  847MOL0     C11698  10.829   2.671   0.357  0.5699  0.2541  0.6880
  847MOL0     C11699  10.951   2.619   0.398 -0.5863 -0.8335 -1.3077
  847MOL0     C11700  10.981   2.486   0.377 -0.8818  0.7240  0.0448
  847MOL0     C11701  11.105   2.431   0.451 -0.1436  0.3828 -0.7619
  847MOL0     O11702  11.157   2.510   0.554  0.4158 -0.2492  0.3751
  847MOL0     C11703  11.265   2.457   0.630 -0.2625 -0.7716 -0.5768
  847MOL0     C11704  11.266   2.458   0.770 -0.0082 -0.3150 -0.5693
  847MOL0     C11705  11.369   2.408   0.849 -1.2441  0.8607 -0.3901
  847MOL0     C11706  11.490   2.359   0.790 -0.5367 -0.6057 -0.8665
  847MOL0     O11707  11.589   2.314   0.882  0.1867  0.1770  0.1306
  847MOL0     C11708  11.705   2.245   0.837 -0.2237 -0.0703  0.4823
  847MOL0     C11709  11.722   2.124   0.939  0.5947 -0.4617  0.5596
  847MOL0     C11710  11.747   2.158   1.083 -0.5437 -0.7713 -0.5514
  847MOL0     C11711  11.748   2.029   1.162 -0.3496  0.3945 -0.0384
  847MOL0     C11712  11.762   2.050   1.314  0.8410  0.1377  0.6496
  847MOL0     C11713  11.901   2.092   1.351 -0.0127 -0.5110 -0.5463
  847MOL0     C11714  11.915   2.123   1.497 -0.1038 -0.1377 -0.2771
  847MOL0     C11715  11.904   2.008   1.599 -0.1119 -1.1088 -0.6416
  847MOL0    Cl11716  11.875   2.054   1.769 -0.6327 -0.2320  0.4699
  847MOL0     C11717  11.496   2.369   0.647 -0.1161  1.1189 -0.5088
  847MOL0     C11718  11.386   2.414   0.569 -0.2610 -0.3073 -0.3173
  847MOL0     O11719  11.134   2.312   0.431  0.5867 -0.1600  0.2200
  847MOL0     C11720  10.897   2.408   0.290  0.2682 -0.7168  0.3503
  847MOL0     C11721  10.775   2.462   0.244 -0.8577  0.4440 -0.1022
  847MOL0     N11722  10.479   2.342   0.467 -0.2575  0.1805 -0.1029
  847MOL0     N11723  10.575   2.265   0.501  0.0416  0.9128  0.1083
  847MOL0     C11724  11.244   1.999   1.472 -0.2720  0.3645  0.3423
  847MOL0     C11725  11.265   1.947   1.601 -0.2420 -0.6836 -0.0141
  847MOL0     C11726  11.393   1.701   1.935  0.2275 -0.2748  0.7006
  847MOL0     C11727  11.520   1.736   1.991  0.3446  0.1937  0.3967
  847MOL0     C11728  11.551   1.685   2.118 -0.2679  0.3792  0.0430
  847MOL0     C11729  11.456   1.614   2.192  0.6105 -0.2201 -0.4066
  847MOL0     O11730  11.497   1.575   2.318 -0.0030  0.1123 -0.3774
  847MOL0     C11731  11.405   1.501   2.412  0.0142 -0.7935  0.6234
  847MOL0     C11732  11.392   1.352   2.374 -0.2814 -0.6213  0.6096
  847MOL0     C11733  11.531   1.297   2.356 -0.7273  0.3851  0.0987
  847MOL0     C11734  11.525   1.137   2.355  0.2051  0.4293  0.0235
  847MOL0     C11735  11.662   1.088   2.347 -0.2278 -0.4697 -0.0625
  847MOL0     C11736  11.777   1.052   2.338 -0.2986  0.3728 -0.2348
  847MOL0     C11737  11.327   1.604   2.144  0.9304  0.1489  0.7419
  847MOL0     C11738  11.294   1.633   2.014 -0.2944 -0.6358 -0.7290
  847MOL0     H11739  11.581   1.846   1.561 -0.6859 -2.0675  0.7828
  847MOL0     H11740  11.530   1.899   1.322  0.1364 -0.5196 -0.2063
  847MOL0     H11741  11.413   1.889   1.146  0.0895  0.9157  0.1221
  847MOL0     H11742  11.464   2.048   1.128  0.5847 -0.0830 -0.9629
  847MOL0     H11743  11.258   1.893   0.973  3.4317 -0.9690 -2.2070
  847MOL0     H11744  11.372   1.997   0.927 -0.7252 -1.8566 -0.4015
  847MOL0     H11745  11.255   2.202   0.982  1.0445 -0.8004 -2.0185
  847MOL0     H11746  11.125   2.096   1.061  0.5151  0.1171  0.2835
  847MOL0     H11747  11.218   2.116   0.759  0.4629  0.1563 -0.9409
  847MOL0     H11748  11.099   2.000   0.818  0.1439  0.4444 -3.5992
  847MOL0     H11749  11.040   2.245   0.711 -2.0785  0.0796 -0.4819
  847MOL0     H11750  11.036   2.273   0.895 -2.7840 -0.8148  1.1656
  847MOL0     H11751  10.877   2.091   0.925  2.6930  1.5642  1.6329
  847MOL0     H11752  10.892   2.051   0.761 -0.9228 -0.1968  0.7747
  847MOL0     H11753  10.687   2.190   0.823 -0.3441  0.4117 -1.0041
  847MOL0     H11754  10.784   2.328   0.852 -0.0296  0.0381 -0.1727
  847MOL0     H11755  10.802   2.178   0.595  2.9031 -0.1058  2.2345
  847MOL0     H11756  10.852   2.344   0.628  1.0667 -0.8262  1.9736
  847MOL0     H11757  10.648   2.522   0.689 -1.6827  0.4119  1.5184
  847MOL0     H11758  10.391   2.623   0.639  0.3729 -0.7236  0.8222
  847MOL0     H11759  10.282   2.522   0.537 -0.5217  1.2021  0.2116
  847MOL0     H11760  10.300   2.716   0.408 -0.6441 -0.9514  2.2030
  847MOL0     H11761  10.400   2.597   0.330  0.7683  0.4336 -0.3935
  847MOL0     H11762  10.480   2.855   0.463  3.7052  0.8904  0.7671
  847MOL0     H11763  10.582   2.720   0.494 -0.7362  0.6663  1.2876
  847MOL0     H11764  10.649   2.843   0.303  0.7548 -0.5616 -2.1599
  847MOL0     H11765  10.502   2.808   0.212 -0.4078 -2.4655 -1.0118
  847MOL0     H11766  10.815   2.776   0.381 -4.4785 -0.1160  0.4309
  847MOL0     H11767  11.015   2.687   0.453 -3.3908  2.0177 -1.3003
  847MOL0     H11768  11.181   2.504   0.819  0.3245  1.7252 -1.8239
  847MOL0     H11769  11.383   2.420   0.956  0.9351 -2.5261 -0.1514
  847MOL0     H11770  11.788   2.315   0.826  0.2176 -0.4868  1.1010
  847MOL0     H11771  11.695   2.194   0.740  0.6569  0.8437 -0.1099
  847MOL0     H11772  11.804   2.062   0.903 -0.2796  0.4641 -3.6913
  847MOL0     H11773  11.636   2.056   0.933  0.5361 -0.3165 -0.7050
  847MOL0     H11774  11.672   2.225   1.126 -0.1625 -1.9834  2.2845
  847MOL0     H11775  11.838   2.217   1.075 -1.8531  1.5603  0.4919
  847MOL0     H11776  11.672   1.956   1.133  0.5717  0.2524 -2.2824
  847MOL0     H11777  11.836   1.973   1.130 -0.2750 -0.4348  1.4967
  847MOL0     H11778  11.740   1.956   1.366  1.1172 -0.5222 -0.3849
  847MOL0     H11779  11.690   2.128   1.342  0.7452  0.6576 -0.9583
  847MOL0     H11780  11.938   2.177   1.292 -1.7879 -0.2208 -1.3069
  847MOL0     H11781  11.963   2.005   1.326 -1.8242 -1.1319 -3.3697
  847MOL0     H11782  12.013   2.171   1.509  0.1053 -0.2100 -1.5328
  847MOL0     H11783  11.837   2.189   1.535  0.1234 -0.7202  1.3176
  847MOL0     H11784  11.993   1.945   1.592 -0.3324 -1.3920 -0.9478
  847MOL0     H11785  11.822   1.943   1.567 -0.2430 -1.0395 -0.4414
  847MOL0     H11786  11.590   2.344   0.599 -1.0209  0.2711 -1.9029
  847MOL0     H11787  11.383   2.425   0.461 -0.2900 -2.2163 -0.5409
  847MOL0     H11788  10.918   2.302   0.280  0.5657 -0.7825  1.5389
  847MOL0     H11789  10.698   2.400   0.200  0.6646 -3.0787  1.7928
  847MOL0     H11790  11.141   2.027   1.452  0.1413  2.2348  0.6009
  847MOL0     H11791  11.174   1.948   1.661 -2.0087  1.3451 -2.4812
  847MOL0     H11792  11.595   1.796   1.940 -0.0754 -0.6173 -1.2361
  847MOL0     H11793  11.645   1.711   2.166 -0.1128  1.6210 -0.8921
  847MOL0     H11794  11.320   1.569   2.417  1.0125  0.4261  1.7717
  847MOL0     H11795  11.440   1.495   2.516 -1.7948  1.9282  1.4951
  847MOL0     H11796  11.321   1.295   2.435 -2.0056  1.9158  1.1221
  847MOL0     H11797  11.346   1.356   2.275  0.5053  0.2424  0.2755
  847MOL0     H11798  11.583   1.319   2.450 -2.1036 -1.0338  1.2294
  847MOL0     H11799  11.588   1.336   2.271 -0.9701 -2.1531 -1.3112
  847MOL0     H11800  11.483   1.089   2.443  1.4701 -0.1402  0.3452
  847MOL0     H11801  11.465   1.106   2.269  0.1707  2.2490 -0.6453
  847MOL0     H11802  11.878   1.017   2.327 -0.6862 -1.5325  1.4737
  847MOL0     H11803  11.251   1.555   2.202 -1.0876  1.9649 -0.2297
  847MOL0     H11804  11.197   1.616   1.969 -0.7770 -3.1771  1.0460
  848MOL0     O11805   9.512   1.335   1.754 -0.1866  0.0155 -0.3878
  848MOL0     C11806   9.545   1.413   1.660 -0.4985 -0.1500 -0.6450
  848MOL0     O11807   9.462   1.456   1.565  0.2316  0.1697 -0.3006
  848MOL0     C11808   9.332   1.403   1.540  0.5312  0.6138 -0.3348
  848MOL0     C11809   9.322   1.263   1.521  0.8295  0.2781 -0.0792
  848MOL0     C11810   9.198   1.200   1.505 -0.1263 -0.4132 -1.3231
  848MOL0     C11811   9.084   1.273   1.512  0.2705 -0.0282  0.6515
  848MOL0     O11812   8.963   1.213   1.509  0.1979 -0.2361 -0.1676
  848MOL0     C11813   8.861   1.278   1.433  0.1118  0.3858 -0.2462
  848MOL0     C11814   8.733   1.192   1.432 -0.5348 -0.4357 -0.5670
  848MOL0     C11815   8.610   1.267   1.381  0.2313 -0.0040 -0.1517
  848MOL0     C11816   8.621   1.327   1.236  0.0005 -1.0864  0.4375
  848MOL0     C11817   8.548   1.225   1.133 -0.0417 -0.5991  0.5634
  848MOL0     C11818   8.548   1.277   0.987  0.4005 -0.0762  0.8738
  848MOL0     C11819   8.676   1.303   0.913 -0.1952  0.0170 -0.0607
  848MOL0     C11820   8.659   1.387   0.782  0.4805  0.6036  0.1336
  848MOL0     N11821   8.789   1.393   0.704  0.5195 -0.1243 -0.1511
  848MOL0     C11822   8.900   1.455   0.747 -0.9673 -0.1905 -0.6024
  848MOL0     C11823   8.988   1.457   0.635 -0.3482  0.4089  0.0580
  848MOL0     C11824   9.117   1.539   0.644  0.5615 -0.4280  0.5102
  848MOL0     C11825   9.244   1.464   0.591  0.4847 -0.5177  0.6010
  848MOL0     C11826   9.363   1.535   0.631 -0.2054 -0.5484 -0.2640
  848MOL0     C11827   9.480   1.469   0.543  0.1435  0.0602 -0.0269
  848MOL0     O11828   9.476   1.563   0.429 -0.2276  0.4406  0.4903
  848MOL0     C11829   9.591   1.572   0.354 -0.2484 -0.6857  0.1286
  848MOL0     C11830   9.663   1.471   0.302 -1.3090  0.9294  0.2019
  848MOL0     C11831   9.778   1.494   0.221  0.8328  0.4840  0.2569
  848MOL0     C11832   9.832   1.618   0.194  0.1061 -0.7606 -0.3136
  848MOL0     C11833   9.943   1.656   0.115  0.5408 -0.0575  0.2620
  848MOL0     O11834   9.996   1.551   0.047 -0.6302 -0.5451 -0.2211
  848MOL0     C11835  10.103   1.585  -0.034  0.2933 -0.5048  0.0230
  848MOL0     C11836  10.237   1.585   0.006 -0.0276 -0.0743 -0.2990
  848MOL0     C11837  10.344   1.609  -0.079 -0.1006  0.0936  0.3768
  848MOL0     C11838  10.308   1.658  -0.210  0.6854  0.1924 -0.1264
  848MOL0     O11839  10.394   1.721  -0.300  0.3198 -0.2528 -0.3840
  848MOL0     C11840  10.532   1.727  -0.269 -0.1242  0.2799  0.1853
  848MOL0     C11841  10.611   1.613  -0.330 -0.3009 -0.2583 -0.0688
  848MOL0     C11842  10.759   1.649  -0.353  1.0401 -0.2946 -0.3068
  848MOL0     C11843  10.853   1.652  -0.229 -0.1001  0.1858  0.3921
  848MOL0     C11844  10.969   1.748  -0.242  0.3534 -0.4458  0.0660
  848MOL0     C11845  11.068   1.739  -0.115 -0.0231 -0.1190 -0.5632
  848MOL0     C11846  11.220   1.775  -0.160 -0.3976 -0.1134 -1.6562
  848MOL0     C11847  11.306   1.746  -0.037  0.4303 -0.0087 -0.4257
  848MOL0    Cl11848  11.347   1.582   0.003  0.0796  0.2783  0.1061
  848MOL0     C11849  10.175   1.645  -0.257  0.2632 -0.5986 -0.6612
  848MOL0     C11850  10.074   1.617  -0.163 -0.5042 -0.2926 -0.4915
  848MOL0     O11851   9.980   1.771   0.110  0.1568  0.2948  0.2010
  848MOL0     C11852   9.760   1.720   0.262 -0.1723 -0.4268 -0.3456
  848MOL0     C11853   9.641   1.698   0.324  0.8449  0.4069 -0.4346
  848MOL0     N11854   8.924   1.387   0.535 -0.1166 -0.4466  0.1877
  848MOL0     N11855   8.804   1.347   0.578  0.2258 -0.3938 -0.3324
  848MOL0     C11856   9.098   1.414   1.527 -0.3610  0.2320 -0.4581
  848MOL0     C11857   9.220   1.474   1.546 -0.2842 -0.1359 -0.0301
  848MOL0     C11858   9.684   1.456   1.652  0.5161  0.1114 -0.0906
  848MOL0     C11859   9.785   1.387   1.729  0.2999  0.3177 -0.2989
  848MOL0     C11860   9.920   1.421   1.716 -0.3683 -0.2396  0.7204
  848MOL0     C11861   9.970   1.522   1.626  0.0070 -0.0213 -0.5970
  848MOL0     O11862  10.107   1.560   1.652  0.1103  0.1145 -0.6478
  848MOL0     C11863  10.163   1.665   1.571  0.0181  0.1513 -0.2795
  848MOL0     C11864  10.222   1.602   1.456 -0.5962  0.5053 -0.2159
  848MOL0     C11865  10.293   1.696   1.350  0.1191  0.4507 -0.3657
  848MOL0     C11866  10.207   1.713   1.226 -0.2799 -0.9461 -0.3590
  848MOL0     C11867  10.233   1.840   1.158 -0.5616  0.1097 -0.7846
  848MOL0     C11868  10.262   1.953   1.104  0.7792  0.8014 -0.7472
  848MOL0     C11869   9.871   1.583   1.554 -0.1620  0.2049 -1.1405
  848MOL0     C11870   9.736   1.542   1.560 -0.1395 -0.2781 -0.5609
  848MOL0     H11871   9.410   1.198   1.518 -0.2050 -1.1808 -0.0780
  848MOL0     H11872   9.202   1.093   1.488  1.3754 -0.7573  0.7391
  848MOL0     H11873   8.898   1.298   1.332  1.8890  2.1506  0.6912
  848MOL0     H11874   8.828   1.375   1.471 -2.8300  0.6499 -2.9656
  848MOL0     H11875   8.703   1.170   1.535  0.4050  1.4842  0.1548
  848MOL0     H11876   8.734   1.104   1.368 -3.3444 -0.8099 -0.2436
  848MOL0     H11877   8.594   1.349   1.451  2.3662  1.7543 -1.5729
  848MOL0     H11878   8.521   1.204   1.375 -0.4032  0.9619 -1.3485
  848MOL0     H11879   8.564   1.421   1.241 -1.5587 -1.8521 -1.3247
  848MOL0     H11880   8.722   1.349   1.200 -0.6670 -0.9701 -1.4741
  848MOL0     H11881   8.444   1.200   1.159 -0.0785 -1.9920 -0.7784
  848MOL0     H11882   8.598   1.129   1.139  0.2651 -0.6139 -1.4127
  848MOL0     H11883   8.493   1.371   0.988  1.2584  0.4930 -0.9812
  848MOL0     H11884   8.481   1.209   0.935  2.9832 -2.3214  0.2772
  848MOL0     H11885   8.747   1.350   0.982 -0.9302  0.6157  0.3046
  848MOL0     H11886   8.714   1.206   0.882  1.8583  0.2510  1.5213
  848MOL0     H11887   8.624   1.485   0.814  1.4164  0.2482  2.4338
  848MOL0     H11888   8.590   1.346   0.708  1.6607  0.4290 -0.9134
  848MOL0     H11889   8.917   1.498   0.845 -0.2275  0.3882 -0.9707
  848MOL0     H11890   9.136   1.569   0.748  0.8818 -1.2611  0.7087
  848MOL0     H11891   9.098   1.627   0.583  2.1432 -0.8254 -0.6464
  848MOL0     H11892   9.229   1.454   0.483  1.9231  0.0534  0.3236
  848MOL0     H11893   9.257   1.362   0.627  2.9480 -0.3935  0.2621
  848MOL0     H11894   9.345   1.636   0.592 -1.6832 -1.5075 -2.2332
  848MOL0     H11895   9.376   1.530   0.740 -2.1468 -3.3430 -0.0651
  848MOL0     H11896   9.455   1.366   0.514 -1.1197  0.5749 -0.8948
  848MOL0     H11897   9.576   1.473   0.594 -0.0427  2.1563  0.2311
  848MOL0     H11898   9.649   1.364   0.315 -0.2870  0.5751 -1.3234
  848MOL0     H11899   9.841   1.421   0.171 -1.7897 -0.0645 -2.5915
  848MOL0     H11900  10.255   1.555   0.109 -1.4803 -0.7459 -0.2189
  848MOL0     H11901  10.447   1.603  -0.046  0.0563 -1.5831 -0.3364
  848MOL0     H11902  10.539   1.736  -0.160 -2.7730 -1.2326  0.5759
  848MOL0     H11903  10.565   1.819  -0.318  0.2195  0.6073  1.0115
  848MOL0     H11904  10.569   1.575  -0.423  0.0071 -1.8864  0.4242
  848MOL0     H11905  10.593   1.521  -0.273 -0.7487 -1.3863 -1.9280
  848MOL0     H11906  10.759   1.749  -0.398  0.3543 -0.0123  0.3136
  848MOL0     H11907  10.798   1.574  -0.423 -1.2118 -1.7823 -0.0547
  848MOL0     H11908  10.803   1.674  -0.134  3.0394 -1.5037  2.6079
  848MOL0     H11909  10.897   1.553  -0.213  0.4090 -0.0669 -2.1911
  848MOL0     H11910  10.947   1.855  -0.253 -0.3460 -0.7951 -2.6417
  848MOL0     H11911  11.013   1.722  -0.339 -1.6677 -2.2541 -0.4349
  848MOL0     H11912  11.059   1.639  -0.071  1.9354  1.1121  3.0163
  848MOL0     H11913  11.040   1.803  -0.032  0.0565 -1.3203  0.4149
  848MOL0     H11914  11.253   1.717  -0.247 -0.6379 -1.4659 -0.8903
  848MOL0     H11915  11.221   1.881  -0.185 -2.0265  0.1784 -0.6860
  848MOL0     H11916  11.274   1.794   0.056 -0.5982 -2.2896  0.4903
  848MOL0     H11917  11.399   1.795  -0.064  0.1845  1.2785  0.9551
  848MOL0     H11918  10.163   1.692  -0.354  2.3205 -2.4940 -1.9122
  848MOL0     H11919   9.968   1.632  -0.183 -1.5425 -2.3911  2.7490
  848MOL0     H11920   9.780   1.826   0.255 -0.2750 -0.2506  1.5781
  848MOL0     H11921   9.578   1.778   0.361 -5.1987 -3.4411 -1.0710
  848MOL0     H11922   9.018   1.486   1.515  1.2886  2.8612  2.5863
  848MOL0     H11923   9.236   1.581   1.554  1.1816 -0.4968  3.2358
  848MOL0     H11924   9.775   1.324   1.817 -1.3487  3.7065  2.2016
  848MOL0     H11925  10.002   1.373   1.768  0.7567  3.4269  2.7295
  848MOL0     H11926  10.244   1.710   1.628 -0.0234 -1.1109  0.8093
  848MOL0     H11927  10.089   1.742   1.544 -0.1373  0.4599  0.9733
  848MOL0     H11928  10.300   1.531   1.485  1.3058  1.7533 -1.9637
  848MOL0     H11929  10.144   1.537   1.416  0.0441 -0.0012 -0.6534
  848MOL0     H11930  10.391   1.656   1.324  0.7907  2.0922 -0.4713
  848MOL0     H11931  10.309   1.791   1.403 -2.2625  0.0013  1.3731
  848MOL0     H11932  10.224   1.633   1.153  0.2950 -0.2930 -0.9507
  848MOL0     H11933  10.103   1.703   1.257  0.0084  1.7117  1.8989
  848MOL0     H11934  10.297   2.048   1.069 -0.8408  1.7308  0.0824
  848MOL0     H11935   9.895   1.674   1.500  0.2154  1.0379  0.3757
  848MOL0     H11936   9.665   1.592   1.494 -0.7916 -0.0686  0.2902
  849MOL0     O11937   2.368  10.401   4.286 -0.0737 -0.0894 -1.1203
  849MOL0     C11938   2.443  10.328   4.227 -0.5056 -0.8165 -0.0248
  849MOL0     O11939   2.397  10.227   4.141 -0.2242  0.9818  0.3504
  849MOL0     C11940   2.281  10.168   4.167  0.1485  0.0092  0.2583
  849MOL0     C11941   2.205  10.163   4.286  0.1427 -0.4383 -0.3394
  849MOL0     C11942   2.073  10.109   4.289 -0.6856  0.8333  0.2397
  849MOL0     C11943   2.010  10.050   4.182 -1.4555  0.5839  0.3594
  849MOL0     O11944   1.887   9.994   4.199 -0.4224 -0.4151  0.4416
  849MOL0     C11945   1.801   9.990   4.089 -0.6528  0.8164 -0.0433
  849MOL0     C11946   1.672   9.921   4.122  0.2804  0.3374 -0.9718
  849MOL0     C11947   1.579  10.023   4.202 -0.1706  0.8033 -0.2860
  849MOL0     C11948   1.447   9.952   4.252 -0.2948 -0.9853 -0.3432
  849MOL0     C11949   1.370  10.047   4.336  0.1772 -0.0914 -0.1918
  849MOL0     C11950   1.231   9.981   4.381  0.4944 -0.3872  0.8752
  849MOL0     C11951   1.129  10.080   4.441  0.2041 -0.5381  0.6376
  849MOL0     C11952   1.002  10.023   4.485 -0.3213 -0.5753  0.2167
  849MOL0     N11953   0.914  10.140   4.505  0.0343 -0.1741 -0.4770
  849MOL0     C11954   0.842  10.206   4.406  0.3442  0.0749 -1.1297
  849MOL0     C11955   0.768  10.300   4.472  0.0886 -0.4508 -0.5513
  849MOL0     C11956   0.682  10.399   4.406  0.0205  0.8248 -0.1813
  849MOL0     C11957   0.566  10.333   4.331  0.3713  0.7998  0.5695
  849MOL0     C11958   0.489  10.451   4.275  0.6081  0.3729 -0.1305
  849MOL0     C11959   0.366  10.406   4.208  0.3379 -0.2494  1.2643
  849MOL0     O11960   0.317  10.524   4.136  0.3569 -0.1367 -0.0403
  849MOL0     C11961   0.180  10.529   4.132 -0.4152 -0.2267  0.7228
  849MOL0     C11962   0.124  10.646   4.076 -0.6377 -0.0981  0.3385
  849MOL0     C11963  -0.018  10.670   4.062  0.6045  0.8204  0.5990
  849MOL0     C11964  -0.114  10.576   4.101 -0.1533  0.0871 -0.2119
  849MOL0     C11965  -0.257  10.599   4.096 -0.2561  0.9293  0.2658
  849MOL0     O11966  -0.291  10.703   4.011  0.1453 -0.1733 -0.1771
  849MOL0     C11967  -0.420  10.746   4.013  0.5574 -0.3140 -0.8101
  849MOL0     C11968  -0.435  10.889   4.021  0.6480 -1.3215 -0.5836
  849MOL0     C11969  -0.557  10.956   4.039  0.4530  0.4398 -0.1025
  849MOL0     C11970  -0.675  10.880   4.047  0.5621 -0.0019  0.4049
  849MOL0     O11971  -0.800  10.938   4.040  0.2497  0.4504  0.1856
  849MOL0     C11972  -0.814  11.080   4.063 -0.5975  0.4691  0.1789
  849MOL0     C11973  -0.954  11.123   4.075  0.6190  0.0702  0.5455
  849MOL0     C11974  -1.037  11.072   3.950 -0.0698 -0.3988 -0.4059
  849MOL0     C11975  -1.126  10.950   3.978  0.3487  0.6659 -0.0865
  849MOL0     C11976  -1.191  10.889   3.849  0.0450 -0.6473 -1.3000
  849MOL0     C11977  -1.224  10.740   3.861 -0.2971  0.0969 -0.1655
  849MOL0     C11978  -1.089  10.669   3.852 -0.4441 -0.1106  0.2828
  849MOL0     C11979  -1.110  10.524   3.799  1.1963  0.3628 -0.2584
  849MOL0    Cl11980  -1.157  10.500   3.624  0.1854  0.1878  0.3973
  849MOL0     C11981  -0.663  10.733   4.037 -0.1849  0.3052 -0.1384
  849MOL0     C11982  -0.541  10.671   4.016  0.0907 -0.8315  0.1733
  849MOL0     O11983  -0.335  10.523   4.155  0.7301  0.2979 -0.3798
  849MOL0     C11984  -0.057  10.458   4.164 -0.8873  0.6525  0.1038
  849MOL0     C11985   0.083  10.435   4.181 -0.1001 -0.1158 -0.4936
  849MOL0     N11986   0.800  10.291   4.609  0.5573 -0.3865  0.1417
  849MOL0     N11987   0.896  10.209   4.625  0.5120  0.0412  0.2575
  849MOL0     C11988   2.095  10.034   4.063  0.9575 -0.0607  0.9102
  849MOL0     C11989   2.223  10.087   4.062  0.0500 -0.3797  0.3759
  849MOL0     C11990   2.589  10.352   4.214 -0.2240  0.4761 -0.3238
  849MOL0     C11991   2.670  10.290   4.120 -0.2716  0.6937 -0.5646
  849MOL0     C11992   2.810  10.318   4.124  0.8533 -0.3743 -1.0097
  849MOL0     C11993   2.870  10.412   4.210  0.2547 -0.1926 -0.2569
  849MOL0     O11994   3.003  10.438   4.200  0.3302 -0.2390  0.0163
  849MOL0     C11995   3.057  10.508   4.313 -0.2766  0.0814 -0.1985
  849MOL0     C11996   3.203  10.486   4.352  1.5909  0.4307 -0.6254
  849MOL0     C11997   3.301  10.538   4.245 -0.6691 -0.5830  0.0213
  849MOL0     C11998   3.292  10.696   4.235 -0.3582 -0.6507  1.1571
  849MOL0     C11999   3.395  10.741   4.143  0.4376 -1.0132  1.0033
  849MOL0     C12000   3.465  10.800   4.062 -0.8407  0.0394  0.5528
  849MOL0     C12001   2.779  10.473   4.304 -0.3109 -0.9063 -0.1163
  849MOL0     C12002   2.643  10.445   4.307 -0.2102 -0.6950 -0.7635
  849MOL0     H12003   2.239  10.195   4.384 -1.8974  1.4434 -0.1516
  849MOL0     H12004   2.033  10.104   4.390  4.0160 -0.9674  2.3106
  849MOL0     H12005   1.856   9.928   4.017 -1.6913 -3.7881  2.6892
  849MOL0     H12006   1.787  10.090   4.047  2.1273  1.6684  0.7988
  849MOL0     H12007   1.703   9.832   4.178  1.2003 -1.8280 -4.5972
  849MOL0     H12008   1.629   9.893   4.026 -0.9178  1.7095 -0.8655
  849MOL0     H12009   1.564  10.123   4.161  1.1290  1.0664 -0.1585
  849MOL0     H12010   1.637  10.047   4.292  1.5937 -0.8263 -0.8998
  849MOL0     H12011   1.392   9.907   4.169  3.5315 -4.0894 -1.4968
  849MOL0     H12012   1.480   9.867   4.313  0.9518 -0.6250 -0.5024
  849MOL0     H12013   1.353  10.139   4.278  1.3214 -0.9609 -2.0222
  849MOL0     H12014   1.433  10.078   4.419  1.1922  2.3896 -1.7683
  849MOL0     H12015   1.247   9.903   4.455  0.9154  0.1731  1.3894
  849MOL0     H12016   1.195   9.943   4.286  0.6715 -0.0505  0.6696
  849MOL0     H12017   1.175  10.146   4.516 -0.1381  1.3091 -0.7082
  849MOL0     H12018   1.100  10.148   4.360  0.0452 -1.0781  0.2383
  849MOL0     H12019   1.004   9.959   4.573 -0.9090 -1.8922 -0.7055
  849MOL0     H12020   0.975   9.956   4.403 -1.6954  0.4298 -0.1983
  849MOL0     H12021   0.833  10.199   4.298 -0.5626 -0.5414 -1.0238
  849MOL0     H12022   0.748  10.438   4.328 -0.0685 -1.6292 -1.5843
  849MOL0     H12023   0.641  10.473   4.475  0.1115  0.8944 -0.2032
  849MOL0     H12024   0.525  10.267   4.407  2.7545 -3.1576 -1.2660
  849MOL0     H12025   0.602  10.276   4.245 -0.6957  0.5802  0.2588
  849MOL0     H12026   0.468  10.527   4.350  3.5267  1.2773 -0.1167
  849MOL0     H12027   0.555  10.503   4.205  0.2860 -0.2785 -0.9319
  849MOL0     H12028   0.299  10.379   4.289  0.1342 -1.5410  0.6851
  849MOL0     H12029   0.384  10.318   4.145 -1.8180  0.3804 -0.3266
  849MOL0     H12030   0.203  10.713   4.045 -0.0129 -1.3529 -0.9146
  849MOL0     H12031  -0.047  10.760   4.008 -1.3442  1.0125  1.8465
  849MOL0     H12032  -0.352  10.957   4.005 -1.9694  1.6960 -2.8389
  849MOL0     H12033  -0.562  11.064   4.037 -1.3427  0.3725 -0.7963
  849MOL0     H12034  -0.766  11.149   3.994 -3.4748  1.2614 -1.1652
  849MOL0     H12035  -0.764  11.097   4.159 -0.0830 -6.1594  1.6111
  849MOL0     H12036  -0.950  11.231   4.092  3.0269  0.2828 -0.9042
  849MOL0     H12037  -0.994  11.078   4.166  0.9309 -1.4331 -0.0337
  849MOL0     H12038  -0.962  11.054   3.872 -0.2622 -0.0199 -0.6796
  849MOL0     H12039  -1.097  11.152   3.906 -0.3177 -0.9725 -1.1214
  849MOL0     H12040  -1.069  10.875   4.035  2.4159  3.3007  1.5375
  849MOL0     H12041  -1.208  10.968   4.047 -1.7905 -0.4230 -2.2218
  849MOL0     H12042  -1.124  10.915   3.766  0.7298  2.7707  0.1502
  849MOL0     H12043  -1.282  10.945   3.828 -0.3252 -0.2577  1.0878
  849MOL0     H12044  -1.294  10.726   3.778 -2.3628 -1.2425  1.6832
  849MOL0     H12045  -1.282  10.721   3.952  0.4482 -1.4805  0.0019
  849MOL0     H12046  -1.023  10.720   3.781  2.0891 -1.2205  1.7566
  849MOL0     H12047  -1.036  10.677   3.947  0.6835 -0.4138 -0.3092
  849MOL0     H12048  -1.195  10.483   3.855  0.7455  0.6187 -0.7515
  849MOL0     H12049  -1.022  10.464   3.823  1.1173  0.1574 -0.4805
  849MOL0     H12050  -0.755  10.675   4.033 -0.9858  1.5474 -0.4212
  849MOL0     H12051  -0.548  10.563   4.016  2.3737 -1.0494 -1.2508
  849MOL0     H12052  -0.126  10.382   4.199  2.6244 -2.4371  0.9337
  849MOL0     H12053   0.117  10.344   4.231  3.0905  1.1505 -0.0829
  849MOL0     H12054   2.065   9.979   3.975 -2.3886  1.5809  0.8601
  849MOL0     H12055   2.286  10.066   3.976  0.1400 -4.1007  1.1507
  849MOL0     H12056   2.617  10.224   4.053  2.3709 -2.2113 -0.0471
  849MOL0     H12057   2.861  10.247   4.059 -1.0021 -2.1440 -0.6580
  849MOL0     H12058   3.012  10.461   4.401  0.9112  0.0978  0.4449
  849MOL0     H12059   3.025  10.612   4.311  2.4490  1.0166 -0.1087
  849MOL0     H12060   3.208  10.548   4.442  0.2321  1.2637 -1.1007
  849MOL0     H12061   3.230  10.386   4.386 -0.7691  0.2897  1.0650
  849MOL0     H12062   3.283  10.492   4.148  2.0074 -2.2413  0.2151
  849MOL0     H12063   3.403  10.508   4.272 -1.3602 -0.7826  2.7088
  849MOL0     H12064   3.195  10.715   4.187  0.7803 -1.0715 -1.4752
  849MOL0     H12065   3.307  10.732   4.337  1.7964  1.1089  0.2906
  849MOL0     H12066   3.528  10.848   3.989 -1.1302 -1.8232 -1.0126
  849MOL0     H12067   2.812  10.538   4.384  3.3420 -1.4359 -0.9723
  849MOL0     H12068   2.574  10.493   4.376 -2.0700 -1.1623 -2.2280
  850MOL0     O12069   3.516  10.379   8.450 -0.0745  0.5763  0.2720
  850MOL0     C12070   3.518  10.290   8.354 -0.2043  0.0877 -0.6651
  850MOL0     O12071   3.580  10.172   8.356 -0.8183  0.1015 -0.0580
  850MOL0     C12072   3.640  10.125   8.471  0.6899  0.5432 -0.1351
  850MOL0     C12073   3.562  10.038   8.553  0.5348 -0.0583  0.3644
  850MOL0     C12074   3.609  10.004   8.680  0.6382 -0.0671 -0.0428
  850MOL0     C12075   3.737  10.036   8.726  0.1576 -0.1396 -1.2104
  850MOL0     O12076   3.772   9.978   8.850  0.0367 -0.0330 -0.1179
  850MOL0     C12077   3.855  10.053   8.936 -0.2636  0.6770 -0.4966
  850MOL0     C12078   3.835   9.994   9.082 -0.4387 -0.1118  0.7908
  850MOL0     C12079   3.685   9.978   9.132 -0.2079  0.5142  0.3291
  850MOL0     C12080   3.657  10.105   9.190 -0.8364 -0.6434  0.0185
  850MOL0     C12081   3.513  10.140   9.200  0.1290  1.8559 -0.2766
  850MOL0     C12082   3.477  10.264   9.279 -0.5526 -0.3820 -0.1967
  850MOL0     C12083   3.524  10.274   9.430  0.1199  0.8166  0.1944
  850MOL0     C12084   3.474  10.160   9.514 -0.1053  0.0341 -0.3833
  850MOL0     N12085   3.331  10.140   9.511 -0.7750  0.3318  1.4138
  850MOL0     C12086   3.235  10.188   9.589  0.1761 -0.5929 -0.3716
  850MOL0     C12087   3.114  10.144   9.547  0.8669  0.6579  0.3347
  850MOL0     C12088   2.982  10.177   9.604  0.4462 -0.1998 -0.1847
  850MOL0     C12089   2.943  10.107   9.727 -0.3203  0.4478  0.1137
  850MOL0     C12090   2.796  10.097   9.751 -0.0719 -0.0654  0.8382
  850MOL0     C12091   2.720  10.227   9.759  0.4650  0.7041 -0.9281
  850MOL0     O12092   2.573  10.203   9.762  0.8883  0.2977  0.2169
  850MOL0     C12093   2.492  10.218   9.653 -0.1860 -0.1593 -0.0589
  850MOL0     C12094   2.356  10.225   9.678  0.8630  0.2359  0.0395
  850MOL0     C12095   2.263  10.256   9.576 -0.1458 -0.2858  0.1207
  850MOL0     C12096   2.317  10.276   9.448 -0.4573  1.0819 -0.0354
  850MOL0     C12097   2.226  10.320   9.337  1.1948  0.3296  0.1980
  850MOL0     O12098   2.097  10.359   9.362 -0.3361  0.5951  0.4926
  850MOL0     C12099   2.007  10.356   9.254 -0.5828  0.1201 -0.4278
  850MOL0     C12100   1.928  10.468   9.212  0.1255 -0.0273 -0.7369
  850MOL0     C12101   1.835  10.445   9.114 -0.8699  0.0681  0.4353
  850MOL0     C12102   1.818  10.322   9.042 -0.3781  0.5653  0.1614
  850MOL0     O12103   1.707  10.319   8.957 -0.7798 -0.3261 -0.4785
  850MOL0     C12104   1.636  10.195   8.932 -0.4618  0.0170 -0.8195
  850MOL0     C12105   1.559  10.159   9.055  0.3284  0.1737  0.6325
  850MOL0     C12106   1.424  10.081   9.021  0.4080  0.4239  1.2528
  850MOL0     C12107   1.343  10.083   9.143 -0.0521  0.1099  0.3359
  850MOL0     C12108   1.226   9.993   9.141 -0.0005  0.6670  0.4980
  850MOL0     C12109   1.105  10.063   9.078  0.1773  0.5184  0.9230
  850MOL0     C12110   0.980   9.971   9.094 -0.3147  0.0335 -0.2347
  850MOL0     C12111   0.867  10.059   9.063 -0.8072 -0.0718 -0.1412
  850MOL0    Cl12112   0.852  10.191   9.186  0.3100  0.4605  0.0378
  850MOL0     C12113   1.901  10.218   9.079 -0.1127  0.8262 -0.2482
  850MOL0     C12114   1.988  10.234   9.189  0.6095 -0.3116 -0.4396
  850MOL0     O12115   2.276  10.318   9.231 -0.4893  0.0648 -0.6251
  850MOL0     C12116   2.455  10.267   9.423  0.0396  0.6133 -0.3606
  850MOL0     C12117   2.547  10.233   9.526 -0.7309 -0.2100  0.6806
  850MOL0     N12118   3.141  10.071   9.435  0.8362 -0.3653 -0.5273
  850MOL0     N12119   3.271  10.053   9.420 -0.8237 -0.1184  0.0925
  850MOL0     C12120   3.816  10.119   8.650  0.2218  0.1373 -0.3785
  850MOL0     C12121   3.765  10.163   8.526 -0.7156  0.1171  0.3327
  850MOL0     C12122   3.452  10.328   8.227  0.0279 -0.7576  1.0872
  850MOL0     C12123   3.415  10.459   8.198 -0.1877 -0.3633 -0.2181
  850MOL0     C12124   3.364  10.489   8.064 -0.1862 -0.8619 -0.0267
  850MOL0     C12125   3.358  10.405   7.958 -0.3643 -0.0634 -0.2134
  850MOL0     O12126   3.283  10.443   7.846 -0.0548 -0.5945 -0.5818
  850MOL0     C12127   3.318  10.393   7.719  0.5191  0.3405  0.3798
  850MOL0     C12128   3.203  10.281   7.698 -0.0488  0.2766 -0.6230
  850MOL0     C12129   3.244  10.206   7.564 -0.3120 -0.4067 -0.1532
  850MOL0     C12130   3.189  10.068   7.575 -0.5625 -0.9796  0.7527
  850MOL0     C12131   3.274   9.982   7.662 -0.0108  0.1883 -0.1263
  850MOL0     C12132   3.337   9.902   7.725  0.4691 -0.8027 -0.2004
  850MOL0     C12133   3.403  10.276   7.982 -0.0370 -0.4387  0.7521
  850MOL0     C12134   3.448  10.241   8.113 -0.5985  1.2969  0.3886
  850MOL0     H12135   3.466  10.006   8.514  1.4951 -2.3043 -0.2907
  850MOL0     H12136   3.557   9.924   8.733  0.5029 -0.7091 -1.1037
  850MOL0     H12137   3.817  10.156   8.942  0.8459  1.0178  3.9192
  850MOL0     H12138   3.958  10.054   8.899  0.1022  1.1540  0.5001
  850MOL0     H12139   3.894  10.052   9.153  1.7931 -0.1306 -0.9287
  850MOL0     H12140   3.883   9.896   9.080  1.6891  0.7561  3.6071
  850MOL0     H12141   3.678   9.898   9.207 -2.3326 -2.1442 -2.4334
  850MOL0     H12142   3.611   9.942   9.060 -1.5948  1.1972  1.3630
  850MOL0     H12143   3.700  10.109   9.291 -0.2571  0.5761 -0.2565
  850MOL0     H12144   3.704  10.185   9.132  2.6930 -0.3547  2.8918
  850MOL0     H12145   3.467  10.054   9.251  0.6003  1.5311 -0.3883
  850MOL0     H12146   3.472  10.136   9.099 -2.7228 -3.6198  0.6919
  850MOL0     H12147   3.368  10.272   9.279 -0.5818 -0.7702 -0.3522
  850MOL0     H12148   3.521  10.346   9.221 -1.6114 -0.9155 -1.8029
  850MOL0     H12149   3.632  10.269   9.442  0.3814  1.4890 -1.6178
  850MOL0     H12150   3.499  10.372   9.472  1.6868 -0.0705  3.4703
  850MOL0     H12151   3.498  10.187   9.617  0.3354 -0.8659 -0.2361
  850MOL0     H12152   3.526  10.068   9.486  1.5130  0.0642  2.2185
  850MOL0     H12153   3.246  10.244   9.681 -1.7902 -0.6095 -0.0853
  850MOL0     H12154   2.908  10.161   9.524 -0.2518 -0.5894  0.5255
  850MOL0     H12155   2.984  10.285   9.622 -1.4783  0.9286 -5.0852
  850MOL0     H12156   3.002  10.151   9.808  1.4757 -2.7156  0.7002
  850MOL0     H12157   2.980  10.004   9.735  3.7508  1.6424 -0.9533
  850MOL0     H12158   2.756  10.037   9.669  0.9598 -0.5215  0.6534
  850MOL0     H12159   2.780  10.047   9.847 -1.1423 -1.5237 -0.0601
  850MOL0     H12160   2.748  10.298   9.680 -0.5027 -1.7122 -3.6494
  850MOL0     H12161   2.751  10.270   9.855  3.7549 -1.2168 -0.9904
  850MOL0     H12162   2.312  10.216   9.777 -0.8036  1.1445 -0.5923
  850MOL0     H12163   2.155  10.256   9.587 -0.0160 -1.0971  1.6087
  850MOL0     H12164   1.939  10.566   9.258  0.5949 -1.5986  2.8067
  850MOL0     H12165   1.751  10.511   9.095 -2.6131 -2.0749  0.2744
  850MOL0     H12166   1.700  10.109   8.912  2.5586  1.7058  0.7383
  850MOL0     H12167   1.572  10.211   8.845  1.0516  0.9472 -1.8064
  850MOL0     H12168   1.531  10.252   9.106 -0.3214  0.0669  0.4883
  850MOL0     H12169   1.623  10.102   9.123  1.6028 -4.7163 -3.9919
  850MOL0     H12170   1.448   9.977   8.997  0.1301  0.2244  1.8236
  850MOL0     H12171   1.376  10.128   8.934  1.8213 -0.5591 -0.1292
  850MOL0     H12172   1.408  10.056   9.227 -0.4663  1.9547  1.3056
  850MOL0     H12173   1.314  10.188   9.152 -0.3430 -0.0234  0.9687
  850MOL0     H12174   1.196   9.954   9.239 -0.6425 -0.4682 -0.1224
  850MOL0     H12175   1.254   9.899   9.091 -1.9755 -1.4602  3.0768
  850MOL0     H12176   1.127  10.068   8.971 -0.5985 -1.1296  0.6559
  850MOL0     H12177   1.090  10.167   9.109  2.0769  1.5870 -1.3356
  850MOL0     H12178   0.987   9.884   9.027 -2.9460 -0.7047  0.3581
  850MOL0     H12179   0.972   9.934   9.196 -1.2615  3.1899  0.9360
  850MOL0     H12180   0.770  10.010   9.061 -1.5224  1.2852  0.3210
  850MOL0     H12181   0.894  10.116   8.973  2.2453  2.0048  1.8674
  850MOL0     H12182   1.881  10.119   9.038 -1.4314  1.0355 -0.1693
  850MOL0     H12183   2.044  10.155   9.238  0.8872 -0.5514 -1.1399
  850MOL0     H12184   2.492  10.275   9.321 -4.2468  2.8307 -1.9748
  850MOL0     H12185   2.653  10.237   9.500 -1.3603  2.1793 -2.0707
  850MOL0     H12186   3.922  10.135   8.669  0.1687 -0.1261  0.1636
  850MOL0     H12187   3.830  10.230   8.472  0.3510 -1.8919 -1.0120
  850MOL0     H12188   3.413  10.527   8.282 -2.4125  0.0360 -0.5420
  850MOL0     H12189   3.319  10.587   8.055  2.3502  0.5774  1.6019
  850MOL0     H12190   3.420  10.354   7.733  1.1701  2.4000  1.7912
  850MOL0     H12191   3.311  10.469   7.641 -1.5525  1.1609  1.3105
  850MOL0     H12192   3.219  10.204   7.775  0.8274 -0.5096 -1.5662
  850MOL0     H12193   3.101  10.320   7.699 -0.5117 -0.8917 -0.8065
  850MOL0     H12194   3.353  10.213   7.561 -0.3230 -0.6927 -1.4229
  850MOL0     H12195   3.213  10.259   7.474  3.0787 -0.4744 -1.5005
  850MOL0     H12196   3.086  10.082   7.610 -0.7799 -2.4432  0.7482
  850MOL0     H12197   3.182  10.024   7.475  0.6261 -0.2080  0.3075
  850MOL0     H12198   3.382   9.828   7.788  1.3555  0.3016  0.4888
  850MOL0     H12199   3.390  10.192   7.913 -2.2073  1.2583 -1.0551
  850MOL0     H12200   3.481  10.138   8.115  2.1008  2.0182 -1.5312
  851MOL0     O12201   8.568   2.826   1.829 -0.1562  0.3535  0.1184
  851MOL0     C12202   8.607   2.922   1.766  1.1754 -0.1800  0.1122
  851MOL0     O12203   8.536   2.988   1.672  0.4151  0.3048 -0.0605
  851MOL0     C12204   8.412   2.963   1.650 -0.2756  1.2263  0.3835
  851MOL0     C12205   8.367   2.972   1.519  0.4364  0.0679 -0.7155
  851MOL0     C12206   8.234   2.948   1.490  0.8375  0.0409 -0.0345
  851MOL0     C12207   8.137   2.918   1.589 -0.4013  0.6224  0.6874
  851MOL0     O12208   8.013   2.893   1.549  0.7635 -0.1531  0.4906
  851MOL0     C12209   7.915   2.902   1.649 -0.2018 -0.5266 -0.3394
  851MOL0     C12210   7.783   2.869   1.590 -0.7764  0.3900  0.2338
  851MOL0     C12211   7.661   2.917   1.678  0.0642 -0.1443  0.0370
  851MOL0     C12212   7.523   2.928   1.610 -0.0554 -0.3581 -0.7578
  851MOL0     C12213   7.413   2.916   1.724 -0.1094  0.2044  1.1890
  851MOL0     C12214   7.271   2.924   1.658  0.2674  0.0191 -0.5449
  851MOL0     C12215   7.162   2.955   1.757  0.1339 -0.6122 -0.3455
  851MOL0     C12216   7.028   2.963   1.681 -1.0795  0.2084 -0.1524
  851MOL0     N12217   6.913   3.003   1.765 -0.6714 -0.0219 -0.9065
  851MOL0     C12218   6.901   3.127   1.829 -0.0965 -0.4125 -0.4806
  851MOL0     C12219   6.774   3.139   1.847 -0.4257  0.4779  0.0751
  851MOL0     C12220   6.709   3.247   1.930  0.2142  0.6188 -0.0204
  851MOL0     C12221   6.740   3.229   2.080  0.5633 -0.4202  0.0776
  851MOL0     C12222   6.656   3.318   2.178 -0.5570  0.1622  0.8298
  851MOL0     C12223   6.510   3.275   2.196  0.3784 -0.0487  0.2358
  851MOL0     O12224   6.424   3.393   2.218 -1.1072  0.0817 -0.2473
  851MOL0     C12225   6.289   3.379   2.222  0.2742  0.3842 -0.2719
  851MOL0     C12226   6.228   3.253   2.252  0.4372  0.3270  0.0869
  851MOL0     C12227   6.092   3.243   2.259  0.3365 -0.3744 -0.5256
  851MOL0     C12228   6.011   3.355   2.236  0.5954 -0.8625 -0.2472
  851MOL0     C12229   5.859   3.354   2.232 -0.6911  0.6359  0.6503
  851MOL0     O12230   5.794   3.471   2.191 -0.1798  0.6532  0.7818
  851MOL0     C12231   5.655   3.482   2.191 -0.5375  0.2342 -0.2972
  851MOL0     C12232   5.567   3.376   2.180  0.1800 -1.4220 -0.3571
  851MOL0     C12233   5.432   3.398   2.171  0.1284  0.6269  0.7261
  851MOL0     C12234   5.376   3.529   2.168 -0.5371 -1.4924 -0.2776
  851MOL0     O12235   5.247   3.540   2.144 -0.0598  0.2660  1.2708
  851MOL0     C12236   5.193   3.670   2.120 -0.7642  0.6129  0.6397
  851MOL0     C12237   5.051   3.659   2.066  0.1085  0.2121 -0.3109
  851MOL0     C12238   4.958   3.784   2.103 -0.4634 -0.1128 -0.0335
  851MOL0     C12239   4.814   3.754   2.066  0.3111 -0.4367  0.6757
  851MOL0     C12240   4.734   3.888   2.068 -1.5099  0.0572  0.9234
  851MOL0     C12241   4.586   3.874   2.034 -0.1788 -0.1157 -0.0769
  851MOL0     C12242   4.501   3.995   2.081  0.2573  1.2165  0.4471
  851MOL0     C12243   4.358   3.955   2.076  0.7443 -0.5869 -0.2375
  851MOL0    Cl12244   4.248   4.048   2.189  0.4872  0.4794  0.1808
  851MOL0     C12245   5.470   3.629   2.176 -0.2055 -0.1291 -0.3812
  851MOL0     C12246   5.604   3.606   2.194  1.1175  0.1005 -0.5793
  851MOL0     O12247   5.810   3.260   2.290  0.5738 -0.4695 -0.1388
  851MOL0     C12248   6.070   3.481   2.216 -0.0783  0.0818  0.6085
  851MOL0     C12249   6.210   3.494   2.207 -0.7284 -0.0772 -0.4814
  851MOL0     N12250   6.708   3.026   1.810 -0.6801  0.2359  0.2226
  851MOL0     N12251   6.791   2.945   1.766 -0.1785 -0.2094 -0.1323
  851MOL0     C12252   8.181   2.905   1.722  0.1865 -0.1605 -0.1089
  851MOL0     C12253   8.315   2.919   1.742 -0.5759  1.0323 -0.2246
  851MOL0     C12254   8.744   2.966   1.789 -0.0769 -0.2033  0.9924
  851MOL0     C12255   8.792   3.086   1.733 -0.7877  0.4840  0.3067
  851MOL0     C12256   8.924   3.122   1.762  1.1555  0.1316 -0.0245
  851MOL0     C12257   9.017   3.038   1.837  1.0877 -0.2200  0.3548
  851MOL0     O12258   9.137   3.088   1.843  0.1716  0.5632 -0.2793
  851MOL0     C12259   9.236   3.028   1.758 -0.2660 -0.1495  0.5723
  851MOL0     C12260   9.217   3.029   1.613  0.2439 -0.4319  0.1846
  851MOL0     C12261   9.227   3.166   1.549  0.0377 -0.4174 -1.0415
  851MOL0     C12262   9.268   3.158   1.404 -0.1914  0.8269  0.6805
  851MOL0     C12263   9.149   3.151   1.317  0.5550 -0.4087 -0.0761
  851MOL0     C12264   9.062   3.147   1.241 -0.0256 -0.8501  0.9605
  851MOL0     C12265   8.967   2.923   1.886  0.7226 -0.3937 -0.7865
  851MOL0     C12266   8.833   2.886   1.862  0.2077  0.3037 -0.4158
  851MOL0     H12267   8.436   3.000   1.440  1.5700  0.7183  0.4596
  851MOL0     H12268   8.202   2.965   1.388  0.9066 -3.1330 -0.6995
  851MOL0     H12269   7.916   2.995   1.708 -0.3632  0.2552 -1.5349
  851MOL0     H12270   7.925   2.828   1.729 -1.4066  0.1962  0.5209
  851MOL0     H12271   7.776   2.761   1.572 -1.8186  0.6254 -0.9434
  851MOL0     H12272   7.787   2.920   1.493  0.2756  1.8243  1.0059
  851MOL0     H12273   7.687   3.017   1.713  1.2330 -0.9895  1.7098
  851MOL0     H12274   7.659   2.843   1.759 -0.3962  0.9092  1.0067
  851MOL0     H12275   7.529   3.021   1.553 -1.7085 -0.0896 -0.5318
  851MOL0     H12276   7.507   2.845   1.540  1.3271 -1.3069 -0.0230
  851MOL0     H12277   7.427   2.988   1.805 -0.5974  2.4975 -0.6257
  851MOL0     H12278   7.423   2.816   1.766  0.3127 -0.8432 -1.2393
  851MOL0     H12279   7.238   2.825   1.626 -2.3512  0.2042  1.3216
  851MOL0     H12280   7.264   2.995   1.574 -1.2118 -1.1832 -1.4788
  851MOL0     H12281   7.149   2.862   1.812 -0.2761 -2.2669 -3.0516
  851MOL0     H12282   7.189   3.041   1.819 -0.3949 -1.1789  0.6800
  851MOL0     H12283   7.002   2.859   1.659  0.4366 -0.0552 -0.8170
  851MOL0     H12284   7.037   3.019   1.588 -1.6358 -0.7815 -0.8165
  851MOL0     H12285   6.982   3.198   1.847  1.2809 -1.9363 -0.4248
  851MOL0     H12286   6.603   3.238   1.904  0.7231 -1.6475 -1.5896
  851MOL0     H12287   6.739   3.348   1.901 -4.9093  3.1438  2.1758
  851MOL0     H12288   6.846   3.248   2.097  1.4261 -3.8650 -0.6506
  851MOL0     H12289   6.732   3.124   2.110  0.8212 -0.3461  0.4134
  851MOL0     H12290   6.702   3.340   2.274  2.0338  0.9796 -0.4995
  851MOL0     H12291   6.659   3.415   2.129  2.2591 -1.0529 -1.7454
  851MOL0     H12292   6.498   3.211   2.284 -0.7073 -2.3678 -1.4827
  851MOL0     H12293   6.483   3.215   2.108 -0.2368  1.8121 -0.8953
  851MOL0     H12294   6.273   3.158   2.278 -2.7405 -0.9311  1.4936
  851MOL0     H12295   6.055   3.153   2.307  3.0592 -0.7698  1.0556
  851MOL0     H12296   5.592   3.270   2.183 -0.5236 -1.8055 -3.9630
  851MOL0     H12297   5.370   3.309   2.176  0.2652  0.5845  2.0856
  851MOL0     H12298   5.259   3.716   2.045  0.9955 -0.0795  1.6890
  851MOL0     H12299   5.190   3.716   2.219  3.4959 -1.0164  1.7570
  851MOL0     H12300   5.009   3.567   2.108  0.8241  0.2567  0.5377
  851MOL0     H12301   5.064   3.649   1.958 -1.6467 -1.2154 -0.4369
  851MOL0     H12302   4.995   3.874   2.053 -0.2048  0.3884  1.0166
  851MOL0     H12303   4.954   3.802   2.211 -0.6714 -1.6984  0.2414
  851MOL0     H12304   4.815   3.704   1.969 -0.5018  0.2758  0.2832
  851MOL0     H12305   4.760   3.685   2.132  0.6868 -1.4330 -0.0553
  851MOL0     H12306   4.788   3.953   1.999  3.6743 -1.6353  2.9056
  851MOL0     H12307   4.745   3.928   2.169  0.7107 -1.2708  1.2715
  851MOL0     H12308   4.547   3.781   2.076 -0.1977 -0.2472 -0.3775
  851MOL0     H12309   4.577   3.861   1.925  0.7476 -1.2289 -0.0274
  851MOL0     H12310   4.519   4.009   2.188  3.3876  1.9944 -0.0841
  851MOL0     H12311   4.524   4.086   2.026  1.1322  1.0190  0.4762
  851MOL0     H12312   4.351   3.848   2.095  2.2625 -0.4244  1.4588
  851MOL0     H12313   4.308   3.972   1.980  0.2299 -3.6009 -0.5928
  851MOL0     H12314   5.455   3.736   2.175  1.2907  0.1177 -0.0364
  851MOL0     H12315   5.667   3.695   2.200  0.2707  0.6854 -0.1493
  851MOL0     H12316   6.015   3.572   2.195 -0.8638 -0.3027  0.9634
  851MOL0     H12317   6.265   3.587   2.197 -2.8917  1.4513  1.0103
  851MOL0     H12318   8.110   2.882   1.801  0.1268 -0.7905 -0.3473
  851MOL0     H12319   8.334   2.921   1.849  1.0067  0.8106 -0.4790
  851MOL0     H12320   8.719   3.136   1.669 -0.8274 -2.1786 -1.9159
  851MOL0     H12321   8.970   3.213   1.727  2.2503  0.4048  1.9337
  851MOL0     H12322   9.225   2.921   1.779  1.2883 -1.0685 -2.5844
  851MOL0     H12323   9.335   3.069   1.778  0.0821  0.4950 -2.0643
  851MOL0     H12324   9.297   2.962   1.581 -2.3926 -3.2805 -1.0333
  851MOL0     H12325   9.133   2.972   1.571  2.1310 -0.8315 -3.4056
  851MOL0     H12326   9.293   3.233   1.605 -0.0234 -0.9291 -0.3460
  851MOL0     H12327   9.131   3.215   1.566  0.4786 -0.5644  2.6483
  851MOL0     H12328   9.315   3.254   1.380 -0.8034  0.6316 -1.4917
  851MOL0     H12329   9.344   3.080   1.394 -0.6454  0.2181  1.7307
  851MOL0     H12330   8.989   3.152   1.162  0.4302  2.3573  0.6321
  851MOL0     H12331   9.042   2.873   1.946 -1.4565 -2.0180  0.7124
  851MOL0     H12332   8.797   2.793   1.905  0.1735 -0.2125 -1.5179
  852MOL0     O12333   9.417   2.626   0.239 -0.1471  0.3859  0.1028
  852MOL0     C12334   9.385   2.573   0.131  0.3088 -0.0802 -0.8202
  852MOL0     O12335   9.263   2.526   0.108  0.1257 -0.2485 -0.0281
  852MOL0     C12336   9.193   2.495   0.221 -0.0796  0.0289  0.5139
  852MOL0     C12337   9.094   2.590   0.259 -0.1402 -0.4726  0.7134
  852MOL0     C12338   9.016   2.564   0.379 -0.8685  0.1494  0.2103
  852MOL0     C12339   9.031   2.453   0.461 -0.4344 -0.3403  0.2501
  852MOL0     O12340   8.948   2.437   0.571 -1.2594 -0.1154  0.1185
  852MOL0     C12341   8.970   2.333   0.673 -0.1052  0.0791  0.2106
  852MOL0     C12342   8.859   2.325   0.780  0.9384 -0.3115 -0.7148
  852MOL0     C12343   8.726   2.268   0.711 -1.1138 -0.0828  0.1861
  852MOL0     C12344   8.613   2.263   0.819  0.0682  0.6526  0.4124
  852MOL0     C12345   8.487   2.222   0.755  0.2173 -0.5597 -0.8450
  852MOL0     C12346   8.372   2.183   0.858 -0.5287  0.2182  0.2197
  852MOL0     C12347   8.248   2.127   0.785  1.0517 -0.6763  0.5611
  852MOL0     C12348   8.161   2.058   0.886  0.9619  0.4180 -0.0345
  852MOL0     N12349   8.028   2.020   0.834  0.2522 -0.6464 -0.1044
  852MOL0     C12350   7.920   2.099   0.820  1.0907 -0.1037 -0.8401
  852MOL0     C12351   7.815   2.019   0.779  0.3326 -0.8703  0.0745
  852MOL0     C12352   7.672   2.076   0.771  0.4573  1.2285 -0.4358
  852MOL0     C12353   7.574   1.963   0.739  0.7529  0.0241 -0.0619
  852MOL0     C12354   7.446   2.022   0.674  0.5430  0.2767  0.1606
  852MOL0     C12355   7.328   1.926   0.683 -0.6956  0.1328  0.6249
  852MOL0     O12356   7.219   2.007   0.636 -0.2263 -0.1461 -0.2221
  852MOL0     C12357   7.090   1.947   0.651 -0.5726 -0.6182  0.6010
  852MOL0     C12358   6.989   2.040   0.640  0.5454 -0.1403 -0.1692
  852MOL0     C12359   6.853   2.005   0.644 -0.1185 -0.2994 -0.5605
  852MOL0     C12360   6.827   1.873   0.675 -0.0340  0.4052 -0.0352
  852MOL0     C12361   6.681   1.835   0.679 -0.2036 -0.6099 -0.0665
  852MOL0     O12362   6.602   1.941   0.691 -0.1526 -0.1230  0.4669
  852MOL0     C12363   6.471   1.938   0.656 -0.0318 -0.9348 -0.6089
  852MOL0     C12364   6.380   1.876   0.735  1.1051  0.1909  0.5553
  852MOL0     C12365   6.246   1.871   0.708  0.6392  0.9896 -0.8133
  852MOL0     C12366   6.195   1.924   0.591  0.0935  0.9466  0.2616
  852MOL0     O12367   6.062   1.940   0.548 -0.3880 -0.2468  0.2731
  852MOL0     C12368   5.977   1.855   0.613  0.8626 -0.0871  0.8682
  852MOL0     C12369   5.930   1.914   0.754  0.2123 -0.6113  1.0764
  852MOL0     C12370   5.841   1.820   0.839  0.0746 -0.6130 -0.0015
  852MOL0     C12371   5.696   1.854   0.810  0.3263 -0.0763  0.1599
  852MOL0     C12372   5.603   1.758   0.879  0.6042  0.0213 -0.0803
  852MOL0     C12373   5.464   1.751   0.831 -1.4059  1.2954 -0.1247
  852MOL0     C12374   5.387   1.668   0.929  0.5653  0.1654  0.1682
  852MOL0     C12375   5.245   1.633   0.871 -0.3781 -0.6636  0.1624
  852MOL0    Cl12376   5.247   1.579   0.700 -0.3588  0.1896 -0.2974
  852MOL0     C12377   6.282   1.978   0.502 -0.7483  1.3499  0.3595
  852MOL0     C12378   6.419   1.990   0.535 -0.5555  0.6326 -0.8041
  852MOL0     O12379   6.651   1.718   0.646 -0.4912 -0.3058  0.5238
  852MOL0     C12380   6.926   1.773   0.689  0.6006 -0.2534  0.4137
  852MOL0     C12381   7.059   1.817   0.681  0.5675 -0.0459 -0.8452
  852MOL0     N12382   7.866   1.897   0.765 -0.4857  1.1743  0.1022
  852MOL0     N12383   7.995   1.898   0.794  0.1474  0.0863  0.5572
  852MOL0     C12384   9.140   2.366   0.423 -0.3381 -0.4214 -1.0542
  852MOL0     C12385   9.221   2.389   0.313 -0.2423 -0.5797 -0.2157
  852MOL0     C12386   9.494   2.557   0.032  0.0226 -0.2700 -0.0487
  852MOL0     C12387   9.462   2.545  -0.105  0.6569 -0.3437  0.1443
  852MOL0     C12388   9.571   2.529  -0.197  0.6132 -0.0451 -0.4677
  852MOL0     C12389   9.709   2.521  -0.155  0.2546  0.3555  0.6032
  852MOL0     O12390   9.818   2.497  -0.238 -1.0665  0.5555 -0.5932
  852MOL0     C12391   9.819   2.374  -0.318 -0.6927 -0.8809  0.9126
  852MOL0     C12392   9.770   2.253  -0.238 -0.2715  0.3955 -1.0200
  852MOL0     C12393   9.804   2.128  -0.311  0.7316  0.5247 -0.4937
  852MOL0     C12394   9.732   2.013  -0.251 -0.2010  0.3561 -0.2021
  852MOL0     C12395   9.784   1.891  -0.308  0.7455  0.5572 -0.2001
  852MOL0     C12396   9.834   1.791  -0.353  0.0861 -0.1859 -0.2095
  852MOL0     C12397   9.729   2.532  -0.016 -0.0957  0.0099  0.1433
  852MOL0     C12398   9.625   2.554   0.075 -0.1205 -0.2534 -0.7032
  852MOL0     H12399   9.076   2.683   0.207 -0.6708 -0.5457  0.7523
  852MOL0     H12400   8.934   2.628   0.411 -0.4855  0.9664 -0.4066
  852MOL0     H12401   9.059   2.361   0.730  0.5065  0.9943 -1.1388
  852MOL0     H12402   8.992   2.239   0.623 -1.6013  1.0644 -2.5196
  852MOL0     H12403   8.842   2.424   0.824 -3.4247 -0.7334 -1.0985
  852MOL0     H12404   8.891   2.274   0.872  0.0096  1.8291  0.8659
  852MOL0     H12405   8.739   2.172   0.660 -1.9008 -1.3144  2.1680
  852MOL0     H12406   8.708   2.336   0.628 -2.2136 -1.7256 -0.9650
  852MOL0     H12407   8.637   2.184   0.891  0.2049  0.2326 -0.0831
  852MOL0     H12408   8.599   2.362   0.864  0.5862  0.5834  0.7371
  852MOL0     H12409   8.508   2.133   0.694  0.6774  0.1622 -1.7753
  852MOL0     H12410   8.452   2.295   0.682 -2.8169 -0.8677  0.1978
  852MOL0     H12411   8.352   2.269   0.923  0.1158  1.7646 -1.5268
  852MOL0     H12412   8.421   2.102   0.912  1.9823  0.0647 -2.0492
  852MOL0     H12413   8.194   2.202   0.726 -1.7170 -1.9927  1.2589
  852MOL0     H12414   8.277   2.050   0.713 -1.3893 -0.2133 -1.0278
  852MOL0     H12415   8.147   2.121   0.974  1.1721 -0.8152  0.9027
  852MOL0     H12416   8.214   1.969   0.922  0.0892 -0.1552 -0.1439
  852MOL0     H12417   7.909   2.206   0.830 -2.1849 -0.3407 -0.9742
  852MOL0     H12418   7.676   2.155   0.695  0.3371  0.1542 -1.5875
  852MOL0     H12419   7.639   2.122   0.865  1.0450 -2.0854  1.5551
  852MOL0     H12420   7.538   1.903   0.824 -0.7137 -0.7685 -1.1845
  852MOL0     H12421   7.614   1.895   0.663  2.3644  0.5606  0.2591
  852MOL0     H12422   7.419   2.115   0.726 -1.5060 -0.4101  0.3968
  852MOL0     H12423   7.464   2.052   0.570  2.0009 -0.8331  0.0616
  852MOL0     H12424   7.314   1.864   0.772  0.2320 -0.8120  0.1325
  852MOL0     H12425   7.320   1.840   0.615  2.7346 -0.3332  0.6435
  852MOL0     H12426   7.017   2.145   0.627  2.2424 -0.5718 -0.2125
  852MOL0     H12427   6.767   2.069   0.626 -1.0245 -0.4225  2.7124
  852MOL0     H12428   6.431   1.828   0.819 -0.0920 -1.4570  0.3836
  852MOL0     H12429   6.184   1.819   0.781  1.8324  0.3579 -0.2279
  852MOL0     H12430   6.013   1.752   0.625  1.2695 -0.6138 -3.5208
  852MOL0     H12431   5.887   1.850   0.552  2.9772 -0.6365 -2.4326
  852MOL0     H12432   5.878   2.008   0.731 -0.3381 -1.2618 -0.4314
  852MOL0     H12433   6.017   1.932   0.819 -1.4845  2.2158  2.7581
  852MOL0     H12434   5.860   1.845   0.944  1.3727  2.2160 -0.8177
  852MOL0     H12435   5.866   1.715   0.817  4.4065  0.4794 -1.2702
  852MOL0     H12436   5.677   1.959   0.834  2.3922  0.0853  1.3574
  852MOL0     H12437   5.681   1.836   0.703 -2.9304  2.3146  0.0419
  852MOL0     H12438   5.598   1.785   0.985  1.1670 -0.0066 -0.0477
  852MOL0     H12439   5.648   1.659   0.870  0.0424 -0.1841 -0.7281
  852MOL0     H12440   5.466   1.711   0.729 -1.5204  0.2978  0.2480
  852MOL0     H12441   5.421   1.849   0.808 -0.7852  1.6998  0.4020
  852MOL0     H12442   5.443   1.575   0.945  1.3644  0.8644  1.5190
  852MOL0     H12443   5.369   1.725   1.020 -0.2650  0.5100 -0.2064
  852MOL0     H12444   5.193   1.729   0.860  0.0457 -0.5572 -1.0968
  852MOL0     H12445   5.190   1.567   0.939 -1.9577  0.8347  0.4196
  852MOL0     H12446   6.251   1.997   0.400  0.4408 -1.5350 -0.6630
  852MOL0     H12447   6.493   2.030   0.467 -0.9518  0.2996 -1.4410
  852MOL0     H12448   6.896   1.669   0.702  2.2061 -0.9811 -1.1808
  852MOL0     H12449   7.131   1.739   0.704 -0.3272 -1.0032 -1.2213
  852MOL0     H12450   9.160   2.269   0.467 -2.6987 -1.3720 -1.9505
  852MOL0     H12451   9.317   2.338   0.305  0.7133  1.3488 -1.9545
  852MOL0     H12452   9.361   2.553  -0.144  2.0955  0.7691 -3.8641
  852MOL0     H12453   9.543   2.528  -0.302  1.2209  0.7407 -0.6506
  852MOL0     H12454   9.924   2.366  -0.348 -0.6839 -0.7328  0.9057
  852MOL0     H12455   9.775   2.381  -0.418  3.9341  1.8058 -1.2692
  852MOL0     H12456   9.813   2.252  -0.138  1.0208  0.8294 -1.5403
  852MOL0     H12457   9.662   2.250  -0.221 -0.0089 -1.5037  0.6090
  852MOL0     H12458   9.914   2.122  -0.310  0.8281  1.7776 -1.3306
  852MOL0     H12459   9.768   2.143  -0.413 -0.4331  1.6882  0.0608
  852MOL0     H12460   9.754   2.005  -0.145 -1.6989  0.7231  0.1683
  852MOL0     H12461   9.624   2.018  -0.271 -0.0002 -0.0322 -1.4452
  852MOL0     H12462   9.857   1.704  -0.411  3.2041 -0.9660  1.9495
  852MOL0     H12463   9.834   2.524   0.011  0.3799  0.3466 -1.4651
  852MOL0     H12464   9.648   2.558   0.181  2.4359 -2.5292 -1.0795
  853MOL0     O12465   8.650  10.984  10.873  0.3380 -0.8091  0.1810
  853MOL0     C12466   8.708  10.883  10.921  0.4030 -0.2437 -0.0318
  853MOL0     O12467   8.643  10.772  10.961 -0.3160 -0.3401 -0.2464
  853MOL0     C12468   8.514  10.767  10.924  0.3824  0.5976  0.4433
  853MOL0     C12469   8.474  10.766  10.787 -0.5282 -0.8459 -0.5561
  853MOL0     C12470   8.340  10.781  10.741  0.5918  0.2409  0.6613
  853MOL0     C12471   8.244  10.759  10.847  0.1026 -0.6931 -0.0817
  853MOL0     O12472   8.112  10.737  10.807 -0.0932 -0.3076  0.6103
  853MOL0     C12473   8.006  10.677  10.896 -0.0867  0.6180 -0.9052
  853MOL0     C12474   7.877  10.746  10.850  0.2919  0.1670 -0.7387
  853MOL0     C12475   7.760  10.659  10.897  0.3313 -0.5132 -0.1381
  853MOL0     C12476   7.621  10.687  10.839  0.2218 -0.4646  0.5736
  853MOL0     C12477   7.519  10.604  10.929  0.2931 -0.7161 -0.8565
  853MOL0     C12478   7.374  10.608  10.860  0.1876 -0.3885 -0.2439
  853MOL0     C12479   7.278  10.573  10.964  0.2431  0.6231  1.5401
  853MOL0     C12480   7.147  10.575  10.892 -0.0680  0.8773 -0.1378
  853MOL0     N12481   7.031  10.565  10.991 -0.4595 -0.0099 -0.1635
  853MOL0     C12482   7.015  10.636  11.108 -0.1822 -1.0612  0.9266
  853MOL0     C12483   6.906  10.576  11.165  0.3145 -0.7705 -0.4794
  853MOL0     C12484   6.855  10.599  11.307  0.4316  0.7750  0.2714
  853MOL0     C12485   6.750  10.507  11.357 -0.3551  0.4650 -1.0334
  853MOL0     C12486   6.768  10.474  11.506 -0.2386  0.4653  0.3816
  853MOL0     C12487   6.660  10.386  11.543 -1.4164  0.9046  0.5464
  853MOL0     O12488   6.534  10.442  11.523 -0.5434 -0.0032  0.3516
  853MOL0     C12489   6.425  10.359  11.535 -1.0472 -0.6973 -0.5071
  853MOL0     C12490   6.430  10.229  11.567  0.2321 -0.1247  0.2707
  853MOL0     C12491   6.313  10.153  11.560  0.1627  0.0898 -0.7370
  853MOL0     C12492   6.194  10.205  11.524  0.4192 -0.9995  0.6482
  853MOL0     C12493   6.081  10.117  11.510 -0.2966 -0.9100  0.6161
  853MOL0     O12494   6.096   9.984  11.508 -0.2605  0.1084 -0.5377
  853MOL0     C12495   5.986   9.904  11.511 -0.0282 -0.2204 -0.4768
  853MOL0     C12496   5.968   9.806  11.415  0.3284  1.3349  0.6745
  853MOL0     C12497   5.845   9.731  11.416  0.2017  0.1918  0.0394
  853MOL0     C12498   5.753   9.743  11.521 -0.7042 -0.7484  0.2956
  853MOL0     O12499   5.640   9.667  11.545 -0.4285  0.7019  0.2161
  853MOL0     C12500   5.595   9.592  11.424 -0.9152 -0.7044  0.3079
  853MOL0     C12501   5.485   9.502  11.458  0.2121 -0.4943  0.8832
  853MOL0     C12502   5.363   9.561  11.510  0.3932 -0.2378 -0.5769
  853MOL0     C12503   5.248   9.466  11.564  0.3034  0.1577  0.2647
  853MOL0     C12504   5.126   9.546  11.612 -0.5308 -0.6541 -0.1251
  853MOL0     C12505   5.014   9.448  11.642  0.1935 -0.3403  0.2962
  853MOL0     C12506   4.879   9.510  11.618  0.0949 -0.3063 -0.1514
  853MOL0     C12507   4.776   9.461  11.715  0.3713 -0.5438  0.2631
  853MOL0    Cl12508   4.767   9.279  11.699  0.1063  0.1347  0.4863
  853MOL0     C12509   5.784   9.836  11.630  0.9950 -0.0819  0.4977
  853MOL0     C12510   5.899   9.910  11.622 -0.3373  0.5369 -0.7579
  853MOL0     O12511   5.973  10.179  11.497 -0.0131 -0.1408 -0.0372
  853MOL0     C12512   6.196  10.335  11.491  0.3346  0.2331  1.1766
  853MOL0     C12513   6.305  10.414  11.498 -0.3902  0.3316 -0.5705
  853MOL0     N12514   6.849  10.495  11.073 -0.1369 -0.7252 -0.3416
  853MOL0     N12515   6.930  10.477  10.975 -0.2874 -0.3554 -0.0776
  853MOL0     C12516   8.285  10.757  10.983  0.3361 -1.0246 -0.4897
  853MOL0     C12517   8.418  10.764  11.023  0.3554 -0.2418  0.3609
  853MOL0     C12518   8.847  10.876  10.937 -0.3670 -1.1651  0.0385
  853MOL0     C12519   8.923  10.989  10.904 -1.0704 -0.4257 -0.3665
  853MOL0     C12520   9.062  10.996  10.925 -0.5704 -0.2431  1.0332
  853MOL0     C12521   9.137  10.882  10.961  0.8839 -0.8175  0.5000
  853MOL0     O12522   9.268  10.895  10.962  0.4498 -0.0190  0.5733
  853MOL0     C12523   9.346  10.783  11.002  0.2620 -0.0443  0.8922
  853MOL0     C12524   9.351  10.773  11.151  0.9425  0.4362  0.4927
  853MOL0     C12525   9.438  10.657  11.197 -0.1723  0.3556 -0.8687
  853MOL0     C12526   9.438  10.643  11.348  0.1758  0.0154 -0.5379
  853MOL0     C12527   9.509  10.747  11.423 -0.2815 -0.6982  0.2698
  853MOL0     C12528   9.560  10.846  11.473  0.0528 -0.1804 -0.3275
  853MOL0     C12529   9.055  10.765  10.999  0.8679  0.3876  0.3575
  853MOL0     C12530   8.918  10.764  10.988  1.2149  0.2390  0.6533
  853MOL0     H12531   8.537  10.748  10.700 -2.2958  1.6088 -2.5177
  853MOL0     H12532   8.298  10.772  10.641 -2.7488  1.9510  1.7628
  853MOL0     H12533   8.020  10.686  11.004 -2.9333 -3.4882  0.0194
  853MOL0     H12534   7.997  10.571  10.871  1.7408  0.3208 -0.4823
  853MOL0     H12535   7.880  10.752  10.741 -3.2085  1.4482 -0.8816
  853MOL0     H12536   7.872  10.850  10.882 -1.6913 -0.0669 -0.1244
  853MOL0     H12537   7.752  10.662  11.006  1.2577 -2.8054  0.0468
  853MOL0     H12538   7.776  10.558  10.859  3.3044  0.9163 -3.3848
  853MOL0     H12539   7.596  10.794  10.834  0.0228 -0.4444  1.6485
  853MOL0     H12540   7.613  10.650  10.736  0.0416 -0.9247  0.7501
  853MOL0     H12541   7.513  10.659  11.023  1.6715  1.2401 -1.8220
  853MOL0     H12542   7.552  10.500  10.938 -1.6517 -1.3595 -0.8320
  853MOL0     H12543   7.375  10.542  10.772 -1.2175 -0.8270  0.0407
  853MOL0     H12544   7.340  10.705  10.823  1.6935  0.0996 -0.4308
  853MOL0     H12545   7.283  10.471  11.002 -3.5204 -1.3773 -2.5035
  853MOL0     H12546   7.286  10.643  11.048 -3.7352  2.0089  0.9708
  853MOL0     H12547   7.142  10.488  10.826  2.2894  0.6169 -0.0837
  853MOL0     H12548   7.132  10.661  10.826  1.6629 -0.4507 -2.4205
  853MOL0     H12549   7.082  10.699  11.165 -0.1598 -0.2970  0.0721
  853MOL0     H12550   6.823  10.703  11.313  0.1197  0.6742  0.4446
  853MOL0     H12551   6.941  10.602  11.374  0.1114  1.9063  0.6574
  853MOL0     H12552   6.748  10.415  11.298  0.3688 -0.5153  0.3972
  853MOL0     H12553   6.655  10.559  11.341  0.0127  2.1306  1.5286
  853MOL0     H12554   6.858  10.413  11.521 -0.6428 -0.1755  0.2336
  853MOL0     H12555   6.769  10.562  11.572 -1.7828  0.4788  0.4079
  853MOL0     H12556   6.666  10.362  11.649 -0.8868  0.2416  0.3699
  853MOL0     H12557   6.672  10.296  11.482 -1.2490  0.0161  1.8636
  853MOL0     H12558   6.523  10.185  11.604  0.4375 -1.1883 -1.3934
  853MOL0     H12559   6.317  10.047  11.582 -2.6139  0.2775  1.1984
  853MOL0     H12560   6.043   9.790  11.338 -1.0227 -5.1956  0.1793
  853MOL0     H12561   5.826   9.662  11.334  0.5980  0.8398 -0.6032
  853MOL0     H12562   5.679   9.535  11.384  2.1015  2.0759  2.1818
  853MOL0     H12563   5.561   9.657  11.342  0.0099 -1.1775 -0.4626
  853MOL0     H12564   5.527   9.434  11.533 -0.4578 -0.4800  1.2746
  853MOL0     H12565   5.458   9.446  11.368 -0.4322  0.3078  0.5777
  853MOL0     H12566   5.324   9.633  11.437  1.2688  1.2965  0.4283
  853MOL0     H12567   5.385   9.620  11.600 -0.7188  0.2821 -0.6277
  853MOL0     H12568   5.218   9.400  11.482  0.0531  1.7131 -0.9486
  853MOL0     H12569   5.285   9.407  11.648  0.6474  1.9138  1.3918
  853MOL0     H12570   5.092   9.607  11.527  0.6275 -2.1688 -1.7577
  853MOL0     H12571   5.146   9.604  11.702 -0.8618 -2.0527  0.8931
  853MOL0     H12572   5.021   9.425  11.748 -1.7455  3.0203  1.3130
  853MOL0     H12573   5.020   9.361  11.576 -1.8044 -1.4312  1.4637
  853MOL0     H12574   4.886   9.617  11.639  1.6059 -0.7390  1.8312
  853MOL0     H12575   4.845   9.481  11.518 -1.6509 -0.7767  0.5369
  853MOL0     H12576   4.684   9.511  11.684  1.4401  0.9222 -0.6845
  853MOL0     H12577   4.806   9.481  11.818  2.6277 -1.9066 -0.0696
  853MOL0     H12578   5.712   9.842  11.711  0.2635  2.0143 -0.2454
  853MOL0     H12579   5.928   9.965  11.711 -3.6003 -1.0076  1.4437
  853MOL0     H12580   6.105  10.382  11.456  0.2285  0.1321  1.3147
  853MOL0     H12581   6.305  10.521  11.485 -0.9948  0.7901  2.3763
  853MOL0     H12582   8.206  10.747  11.057 -1.1606  2.3393 -1.4422
  853MOL0     H12583   8.446  10.800  11.121  0.2312  0.4367  0.1522
  853MOL0     H12584   8.877  11.081  10.867 -0.8587 -0.0653  0.2469
  853MOL0     H12585   9.116  11.089  10.907  0.4281 -1.0344 -0.2216
  853MOL0     H12586   9.445  10.803  10.959  0.6549  0.9820  2.1880
  853MOL0     H12587   9.297  10.699  10.952 -0.2437  1.6827 -1.7052
  853MOL0     H12588   9.399  10.859  11.197  1.7975  0.1461  0.1654
  853MOL0     H12589   9.254  10.765  11.200  0.1821 -2.2871 -1.2645
  853MOL0     H12590   9.542  10.680  11.174  0.5141 -0.0100  1.6243
  853MOL0     H12591   9.402  10.567  11.145  0.7840  0.5227 -1.8443
  853MOL0     H12592   9.336  10.636  11.387  0.8278  0.2799  1.3363
  853MOL0     H12593   9.490  10.547  11.360 -1.0911 -0.5556  0.6530
  853MOL0     H12594   9.588  10.942  11.511  0.4557  0.7796 -2.8807
  853MOL0     H12595   9.102  10.672  11.032  0.9383  0.0582 -0.6332
  853MOL0     H12596   8.861  10.682  11.030  0.6912  0.2261 -0.0652
  854MOL0     O12597   1.715   0.254  10.851  0.0861 -0.2484  0.0333
  854MOL0     C12598   1.756   0.228  10.961 -1.0906  0.7865  1.0754
  854MOL0     O12599   1.685   0.247  11.072  0.2885 -0.7377  0.6160
  854MOL0     C12600   1.547   0.235  11.082  0.1216  0.1141 -0.0557
  854MOL0     C12601   1.491   0.245  11.210  0.1794 -0.3805  0.0939
  854MOL0     C12602   1.346   0.239  11.242  0.0273  0.6120 -0.5834
  854MOL0     C12603   1.250   0.232  11.136  0.0475 -0.0095  0.5112
  854MOL0     O12604   1.114   0.215  11.158 -0.5921  0.0241 -0.0565
  854MOL0     C12605   1.047   0.300  11.258  0.7159  0.0281 -0.4351
  854MOL0     C12606   0.920   0.361  11.211 -0.0230 -0.6930  0.7686
  854MOL0     C12607   0.814   0.260  11.183  0.3815  0.4742 -1.2802
  854MOL0     C12608   0.669   0.314  11.154 -0.0864  0.2336 -0.2900
  854MOL0     C12609   0.566   0.201  11.162  0.1860 -0.1601  0.6565
  854MOL0     C12610   0.421   0.256  11.116 -0.6831  0.1375  0.1441
  854MOL0     C12611   0.312   0.145  11.113  1.5628  0.5098  0.8007
  854MOL0     C12612   0.176   0.205  11.058 -0.5319  0.5619 -0.0464
  854MOL0     N12613   0.097   0.279  11.156 -0.1373  0.3749 -0.2662
  854MOL0     C12614   0.043   0.223  11.265  0.6742  0.5444  0.0500
  854MOL0     C12615  -0.025   0.323  11.323 -1.0151  0.7988  0.4152
  854MOL0     C12616  -0.129   0.315  11.437 -0.1925 -0.4794  0.3636
  854MOL0     C12617  -0.277   0.357  11.404 -1.3892  0.2537 -0.4945
  854MOL0     C12618  -0.283   0.510  11.366  0.0972  1.2925 -0.2543
  854MOL0     C12619  -0.424   0.552  11.366 -0.4172  0.1529  0.2245
  854MOL0     O12620  -0.498   0.511  11.480  0.2402 -0.7541 -0.3297
  854MOL0     C12621  -0.637   0.539  11.494 -0.6935 -0.1683  0.4522
  854MOL0     C12622  -0.709   0.642  11.420  0.2053  0.3397 -1.0263
  854MOL0     C12623  -0.848   0.649  11.439 -1.1063 -0.3459 -0.9366
  854MOL0     C12624  -0.916   0.559  11.525  0.0814 -1.2605 -0.0475
  854MOL0     C12625  -1.062   0.573  11.540 -1.0034 -0.4940  0.1865
  854MOL0     O12626  -1.129   0.479  11.627  0.9258 -0.3288 -0.0123
  854MOL0     C12627  -1.256   0.501  11.674 -0.0875  1.3315  0.0850
  854MOL0     C12628  -1.359   0.547  11.587  0.4699 -0.3615  1.1460
  854MOL0     C12629  -1.489   0.559  11.641 -1.0172 -0.7728 -0.9686
  854MOL0     C12630  -1.517   0.531  11.774 -0.3167 -0.3261 -0.6334
  854MOL0     O12631  -1.645   0.557  11.803 -0.3048 -0.0800  0.1977
  854MOL0     C12632  -1.692   0.504  11.927  0.3988 -0.2242 -0.3102
  854MOL0     C12633  -1.841   0.528  11.950  0.2997  0.0374  0.5650
  854MOL0     C12634  -1.886   0.677  11.933  0.2171  0.2965  0.3028
  854MOL0     C12635  -2.038   0.694  11.960  0.2502 -1.1486 -0.6294
  854MOL0     C12636  -2.086   0.828  11.883  0.5223  0.1625  0.5771
  854MOL0     C12637  -2.224   0.886  11.920 -0.0388 -0.1781  0.0773
  854MOL0     C12638  -2.335   0.887  11.816  0.0447 -0.3879  0.6516
  854MOL0     C12639  -2.411   1.016  11.831 -0.3644 -0.5096 -0.0717
  854MOL0    Cl12640  -2.566   1.013  11.752 -0.3730  0.3362 -0.1610
  854MOL0     C12641  -1.419   0.486  11.857 -0.0500  0.0284  0.9134
  854MOL0     C12642  -1.281   0.469  11.804  0.9281 -0.0081 -0.6115
  854MOL0     O12643  -1.113   0.675  11.498  0.0672 -0.1563 -0.4703
  854MOL0     C12644  -0.845   0.465  11.593 -0.0600 -0.5785  0.0813
  854MOL0     C12645  -0.710   0.455  11.575  0.8194  0.3582 -0.7617
  854MOL0     N12646   0.012   0.443  11.266 -1.1382  0.2018  0.0576
  854MOL0     N12647   0.085   0.409  11.165 -0.4962  0.5056  0.3960
  854MOL0     C12648   1.313   0.221  11.012  0.4267  0.8078 -0.1019
  854MOL0     C12649   1.452   0.225  10.982  0.8649 -0.3539 -0.0305
  854MOL0     C12650   1.901   0.199  10.966 -0.0235  0.7028  0.4157
  854MOL0     C12651   1.966   0.155  11.084 -0.0725 -0.0296  0.3131
  854MOL0     C12652   2.109   0.126  11.091  0.4736 -0.3068  0.2141
  854MOL0     C12653   2.195   0.154  10.985 -0.0953 -0.3000 -0.1405
  854MOL0     O12654   2.326   0.127  11.006  0.1272  0.6488 -0.6571
  854MOL0     C12655   2.412   0.106  10.892 -0.1787 -0.4475  0.6620
  854MOL0     C12656   2.551   0.099  10.940  0.1670 -0.5357  0.0185
  854MOL0     C12657   2.579  -0.035  11.002  0.3109  0.0116 -0.0357
  854MOL0     C12658   2.724  -0.037  11.066  0.6921  0.1222  0.7432
  854MOL0     C12659   2.766  -0.167  11.097 -0.2995  0.4675  0.3690
  854MOL0     C12660   2.817  -0.260  11.144 -0.2696 -0.4631 -0.0192
  854MOL0     C12661   2.137   0.201  10.864 -0.1004  0.0309 -0.0373
  854MOL0     C12662   1.993   0.209  10.863 -0.9606  0.6589  0.5000
  854MOL0     H12663   1.553   0.260  11.298 -0.1057 -0.2899  0.2810
  854MOL0     H12664   1.302   0.249  11.340 -0.0054 -1.0629 -0.3886
  854MOL0     H12665   1.111   0.383  11.289 -1.8449  2.1614 -0.4941
  854MOL0     H12666   1.027   0.237  11.345  2.3575  0.0454 -0.0153
  854MOL0     H12667   0.947   0.406  11.115  1.4774 -1.7080  0.6728
  854MOL0     H12668   0.877   0.439  11.275  0.9615  1.6327 -1.2438
  854MOL0     H12669   0.812   0.184  11.262  0.5502  0.5768 -1.1772
  854MOL0     H12670   0.840   0.200  11.095  1.7160  0.8559 -1.1631
  854MOL0     H12671   0.629   0.389  11.223 -0.2488 -0.1833  0.0742
  854MOL0     H12672   0.667   0.354  11.052 -2.5281  0.2629 -0.2899
  854MOL0     H12673   0.563   0.175  11.268  1.6841  0.4290  0.8706
  854MOL0     H12674   0.598   0.122  11.093  0.3125 -0.3167  0.8928
  854MOL0     H12675   0.425   0.282  11.010 -2.1354 -2.7265 -0.7022
  854MOL0     H12676   0.396   0.349  11.167  2.3065  2.1911 -1.7925
  854MOL0     H12677   0.338   0.068  11.040 -1.6917  0.6073 -0.6678
  854MOL0     H12678   0.293   0.098  11.210 -0.5705  0.4848  0.4200
  854MOL0     H12679   0.109   0.130  11.015 -2.3570  0.2692  2.9910
  854MOL0     H12680   0.189   0.263  10.966 -0.1879  1.7031  0.6927
  854MOL0     H12681   0.038   0.119  11.294  1.3572  0.7651  1.0160
  854MOL0     H12682  -0.105   0.380  11.522 -3.2693  2.4433 -0.7718
  854MOL0     H12683  -0.131   0.214  11.478  0.8901 -0.2209  1.1142
  854MOL0     H12684  -0.326   0.348  11.501  0.3167 -0.5094  0.3434
  854MOL0     H12685  -0.317   0.279  11.338  2.7461  0.6094 -3.8819
  854MOL0     H12686  -0.232   0.582  11.431 -1.8276  2.9777 -0.5205
  854MOL0     H12687  -0.231   0.526  11.271 -0.4962  1.9271 -0.4840
  854MOL0     H12688  -0.485   0.506  11.288 -2.0103  0.3848  1.2817
  854MOL0     H12689  -0.433   0.659  11.346 -1.8786 -0.5065 -3.2837
  854MOL0     H12690  -0.646   0.708  11.361  2.3250  0.1728  0.9043
  854MOL0     H12691  -0.908   0.725  11.389 -4.2555  2.4817  5.7537
  854MOL0     H12692  -1.344   0.568  11.482  2.3458  2.0646  1.7877
  854MOL0     H12693  -1.568   0.593  11.575 -1.4089 -0.0235 -0.1191
  854MOL0     H12694  -1.634   0.550  12.007 -1.0018 -1.8295  1.7587
  854MOL0     H12695  -1.672   0.397  11.936  0.8159 -0.0188  1.5973
  854MOL0     H12696  -1.884   0.495  12.045 -2.4970  0.2790 -0.5140
  854MOL0     H12697  -1.892   0.465  11.876 -0.6608 -0.4699  1.6222
  854MOL0     H12698  -1.871   0.702  11.828  1.6513 -2.9755 -0.4235
  854MOL0     H12699  -1.830   0.740  12.002  0.1473 -2.1384  2.7711
  854MOL0     H12700  -2.100   0.613  11.921 -0.9919  0.6242 -2.5942
  854MOL0     H12701  -2.067   0.708  12.064 -0.0874  1.2945 -0.9902
  854MOL0     H12702  -2.081   0.811  11.775  2.7549  1.0539  0.5003
  854MOL0     H12703  -2.014   0.907  11.904  2.0131 -1.3554  1.4257
  854MOL0     H12704  -2.214   0.993  11.945  2.6723 -0.5200  0.7860
  854MOL0     H12705  -2.259   0.833  12.009  2.5714  0.5748  1.6785
  854MOL0     H12706  -2.286   0.869  11.720 -2.0565 -0.3116 -0.4919
  854MOL0     H12707  -2.410   0.807  11.829  1.3254 -2.1728 -1.9911
  854MOL0     H12708  -2.361   1.097  11.778 -1.4072 -2.9127 -5.3827
  854MOL0     H12709  -2.435   1.029  11.937  1.7575 -0.0982  0.4000
  854MOL0     H12710  -1.436   0.460  11.961 -0.7363 -1.6437  0.4107
  854MOL0     H12711  -1.220   0.432  11.885 -0.8076 -1.5292  0.0775
  854MOL0     H12712  -0.900   0.399  11.660 -1.7936  0.8364  0.1613
  854MOL0     H12713  -0.655   0.385  11.637 -0.6112  2.3460  3.1137
  854MOL0     H12714   1.244   0.216  10.928 -1.2442  1.2221  1.1916
  854MOL0     H12715   1.478   0.222  10.876 -0.4528 -0.4789 -0.3688
  854MOL0     H12716   1.911   0.148  11.177  0.1302  2.8858  0.7693
  854MOL0     H12717   2.144   0.087  11.186 -2.4917  1.7908  2.3730
  854MOL0     H12718   2.409   0.187  10.818 -1.1839 -1.9198 -0.9871
  854MOL0     H12719   2.371   0.020  10.839 -3.5004  0.6668  1.1805
  854MOL0     H12720   2.622   0.118  10.858 -0.9524  0.7662 -0.7022
  854MOL0     H12721   2.578   0.167  11.021  4.9854 -0.0410 -1.6516
  854MOL0     H12722   2.558  -0.114  10.930  0.9623  0.1894 -0.4290
  854MOL0     H12723   2.511  -0.058  11.084  0.8591  0.3522  0.5232
  854MOL0     H12724   2.796   0.020  11.005  2.0076 -0.7650  1.4407
  854MOL0     H12725   2.717   0.013  11.163 -2.3316  0.4864  0.4281
  854MOL0     H12726   2.847  -0.349  11.195 -0.8897  0.2878  1.7812
  854MOL0     H12727   2.204   0.218  10.781 -0.1419  2.2631  0.3167
  854MOL0     H12728   1.944   0.249  10.775 -0.9361  2.8558  1.4039
  855MOL0     O12729   7.702  10.710   5.044 -0.9186 -0.3006 -0.8273
  855MOL0     C12730   7.735  10.597   5.079 -0.3750  0.0390 -0.0156
  855MOL0     O12731   7.654  10.481   5.061  0.1578 -0.3429 -0.1296
  855MOL0     C12732   7.518  10.493   5.033 -1.0647 -0.0523 -0.3706
  855MOL0     C12733   7.430  10.596   5.062  0.0538 -0.7366  0.1744
  855MOL0     C12734   7.298  10.601   5.033  0.0781 -0.3057 -0.2031
  855MOL0     C12735   7.236  10.490   4.967 -0.9215  0.1240  0.0136
  855MOL0     O12736   7.106  10.483   4.938  0.6234  0.3825  0.3646
  855MOL0     C12737   7.016  10.588   4.982 -0.4547  1.1157  0.2371
  855MOL0     C12738   6.872  10.533   5.009  0.0388 -0.9366 -0.0056
  855MOL0     C12739   6.779  10.654   5.033 -0.2451  0.4646  0.2492
  855MOL0     C12740   6.645  10.587   5.044  0.0980 -0.2005  0.2708
  855MOL0     C12741   6.526  10.678   5.078  1.1440 -0.3193  1.0915
  855MOL0     C12742   6.393  10.599   5.100  1.3087  0.3440 -0.1282
  855MOL0     C12743   6.270  10.684   5.147  0.8717 -0.0160  0.4482
  855MOL0     C12744   6.256  10.696   5.294  0.2547 -0.1033  0.4123
  855MOL0     N12745   6.125  10.740   5.336  0.3955  0.6142 -0.4183
  855MOL0     C12746   6.048  10.675   5.438 -0.5697 -0.1756 -0.0078
  855MOL0     C12747   5.936  10.760   5.452 -0.1224 -0.3031  0.7156
  855MOL0     C12748   5.823  10.738   5.552  0.1516  0.0894  0.2984
  855MOL0     C12749   5.856  10.781   5.694  0.3402  0.1716  0.0300
  855MOL0     C12750   5.743  10.758   5.792  1.2454 -0.3846  0.2665
  855MOL0     C12751   5.607  10.830   5.749 -0.0885  0.0735  0.7132
  855MOL0     O12752   5.514  10.815   5.859 -0.9020 -0.4462 -0.4638
  855MOL0     C12753   5.380  10.834   5.830 -0.2979  0.4550  0.1336
  855MOL0     C12754   5.329  10.894   5.712 -0.5109 -0.3431 -0.3257
  855MOL0     C12755   5.190  10.912   5.688 -0.1469 -0.0988 -0.2757
  855MOL0     C12756   5.091  10.878   5.780 -0.7617  0.9692  0.3123
  855MOL0     C12757   4.950  10.906   5.764 -0.1742  0.4423 -0.7502
  855MOL0     O12758   4.862  10.880   5.861 -0.5988  0.7964 -0.7013
  855MOL0     C12759   4.730  10.904   5.850 -0.0655  0.4957 -0.3297
  855MOL0     C12760   4.652  10.892   5.733 -0.3018  0.6320  0.5100
  855MOL0     C12761   4.521  10.942   5.728  0.3053 -0.9535 -0.4158
  855MOL0     C12762   4.468  11.006   5.843 -0.4959 -0.2161  0.0228
  855MOL0     O12763   4.345  11.075   5.835 -0.6319 -0.0287  0.5212
  855MOL0     C12764   4.289  11.115   5.964  0.5846 -1.2170 -0.4070
  855MOL0     C12765   4.208  11.004   6.010  0.9170  0.2189  0.1059
  855MOL0     C12766   4.137  11.040   6.142 -0.0052 -1.2133  0.0616
  855MOL0     C12767   4.074  10.904   6.188  0.3148  0.0227  0.5327
  855MOL0     C12768   4.034  10.906   6.327  0.0839 -0.0356 -0.0214
  855MOL0     C12769   3.908  10.996   6.349 -0.6472  0.5621 -0.4803
  855MOL0     C12770   3.775  10.919   6.323 -0.7455 -0.3817  0.6536
  855MOL0     C12771   3.663  11.014   6.356  0.7063 -0.5626  0.0408
  855MOL0    Cl12772   3.586  10.984   6.529  0.5766  0.3484  0.0591
  855MOL0     C12773   4.541  11.003   5.960 -0.3737 -0.4989  0.1565
  855MOL0     C12774   4.671  10.949   5.963  0.7173  0.1937  0.5015
  855MOL0     O12775   4.917  10.963   5.662 -0.4632 -0.2866  0.6473
  855MOL0     C12776   5.137  10.807   5.895  0.4442  0.3592 -0.0085
  855MOL0     C12777   5.278  10.793   5.920 -0.0666  0.5857  0.2031
  855MOL0     N12778   5.965  10.870   5.372  1.0342 -0.1826 -0.6865
  855MOL0     N12779   6.073  10.853   5.314  0.1434 -0.0901  0.4043
  855MOL0     C12780   7.322  10.384   4.937  0.8920  0.7614 -0.2430
  855MOL0     C12781   7.456  10.384   4.974  0.3408 -0.5248 -0.4123
  855MOL0     C12782   7.877  10.576   5.106 -0.2766 -0.2358 -0.8021
  855MOL0     C12783   7.933  10.446   5.129  0.1205 -0.8455  0.6765
  855MOL0     C12784   8.072  10.434   5.161  0.5295  0.4489  0.4128
  855MOL0     C12785   8.153  10.544   5.177  0.3518  0.0502  0.5516
  855MOL0     O12786   8.281  10.524   5.218 -0.6423  0.1080 -0.8369
  855MOL0     C12787   8.384  10.603   5.160  0.0266  1.7710 -0.1179
  855MOL0     C12788   8.516  10.531   5.166  0.4201 -0.2972 -0.1682
  855MOL0     C12789   8.583  10.532   5.307  0.3825 -0.4048 -0.1922
  855MOL0     C12790   8.505  10.515   5.439  0.0078 -0.5697 -0.3321
  855MOL0     C12791   8.591  10.542   5.556  0.4928 -0.2235  0.2660
  855MOL0     C12792   8.644  10.573   5.667  0.2442  0.0389 -0.3723
  855MOL0     C12793   8.098  10.664   5.140  0.0955 -0.1926  0.0854
  855MOL0     C12794   7.967  10.687   5.106  0.4764 -0.2244 -0.8784
  855MOL0     H12795   7.469  10.683   5.115  0.5289 -1.8275  1.6995
  855MOL0     H12796   7.243  10.690   5.062  1.0356  1.2449 -2.7911
  855MOL0     H12797   7.022  10.663   4.902 -0.9616  1.0488  0.1264
  855MOL0     H12798   7.051  10.626   5.078 -2.1180 -1.4562  1.9875
  855MOL0     H12799   6.885  10.472   5.098 -1.6089  1.4001  1.9497
  855MOL0     H12800   6.828  10.480   4.924 -0.8241 -0.3786  0.0746
  855MOL0     H12801   6.784  10.731   4.956  0.3947  0.6388  0.4629
  855MOL0     H12802   6.804  10.703   5.127  1.5937  2.0965 -1.0300
  855MOL0     H12803   6.606  10.535   4.956  1.1293 -0.3337 -0.1242
  855MOL0     H12804   6.646  10.513   5.124  0.7978  1.7145  2.1137
  855MOL0     H12805   6.502  10.755   5.004 -0.5984 -2.0929 -0.3222
  855MOL0     H12806   6.555  10.740   5.162 -0.8598  2.5112 -0.1652
  855MOL0     H12807   6.402  10.518   5.173  0.3306 -1.1895 -1.6448
  855MOL0     H12808   6.374  10.553   5.003  1.6183  0.7871 -0.3994
  855MOL0     H12809   6.278  10.787   5.110 -1.8199  0.1940  0.3030
  855MOL0     H12810   6.178  10.635   5.114 -0.0264  1.6116  0.4046
  855MOL0     H12811   6.318  10.778   5.331  1.2807  0.0284 -1.4772
  855MOL0     H12812   6.282  10.603   5.345 -1.1510  0.3813  2.1282
  855MOL0     H12813   6.054  10.579   5.487 -2.8190 -0.0048  0.7393
  855MOL0     H12814   5.798  10.632   5.570  0.0699  0.3028  1.5759
  855MOL0     H12815   5.739  10.791   5.508  1.4711 -0.6664 -3.5292
  855MOL0     H12816   5.877  10.889   5.700 -3.2022  0.9834  0.3947
  855MOL0     H12817   5.945  10.722   5.718  0.9813  0.1267 -2.2904
  855MOL0     H12818   5.731  10.653   5.820 -1.3121 -0.5310 -1.0330
  855MOL0     H12819   5.763  10.803   5.890 -1.0613  1.9372 -0.1918
  855MOL0     H12820   5.571  10.787   5.655  2.0847 -0.0386 -0.1460
  855MOL0     H12821   5.615  10.937   5.727  2.9801  0.0828  1.4082
  855MOL0     H12822   5.391  10.927   5.629 -0.6579 -0.3339 -0.4337
  855MOL0     H12823   5.160  10.942   5.588 -0.8445 -1.6257 -0.5637
  855MOL0     H12824   4.689  10.838   5.646 -2.4241 -1.2805  0.6746
  855MOL0     H12825   4.465  10.938   5.635  1.0763 -3.1657 -0.8380
  855MOL0     H12826   4.215  11.192   5.942 -0.0931 -2.0354 -1.0854
  855MOL0     H12827   4.358  11.164   6.033 -0.5420  1.3080 -0.9778
  855MOL0     H12828   4.286  10.930   6.027  3.2495  2.1597 -1.5038
  855MOL0     H12829   4.135  10.982   5.931  0.9863  1.1562 -0.2268
  855MOL0     H12830   4.054  11.110   6.128  1.6521  0.6517 -0.9929
  855MOL0     H12831   4.198  11.080   6.223 -1.1604 -0.7212  0.7226
  855MOL0     H12832   3.984  10.890   6.127  0.7278  1.4636 -0.4767
  855MOL0     H12833   4.153  10.830   6.172 -0.2563 -0.3997 -0.3858
  855MOL0     H12834   4.122  10.926   6.388  1.6506 -0.8683 -1.8699
  855MOL0     H12835   4.008  10.800   6.338  0.0957 -0.0692 -0.3114
  855MOL0     H12836   3.906  11.083   6.283  1.1603 -0.0854 -1.4544
  855MOL0     H12837   3.917  11.037   6.450 -0.6814  2.9806 -1.3929
  855MOL0     H12838   3.754  10.884   6.222  0.3102  1.8041 -0.3913
  855MOL0     H12839   3.760  10.832   6.388  0.9684 -0.7157  0.6528
  855MOL0     H12840   3.579  10.998   6.288  0.9611 -2.4654  0.1098
  855MOL0     H12841   3.701  11.116   6.351  2.7118 -1.2143  0.8807
  855MOL0     H12842   4.507  11.046   6.054  1.3003 -2.3980  1.7106
  855MOL0     H12843   4.729  10.943   6.055  3.5537  3.0360 -0.8800
  855MOL0     H12844   5.062  10.785   5.971 -0.2137  2.0316 -0.1487
  855MOL0     H12845   5.319  10.757   6.013 -1.2062  0.4158  0.6595
  855MOL0     H12846   7.299  10.303   4.868  0.5995  0.4351  0.2335
  855MOL0     H12847   7.530  10.315   4.934  0.7896 -1.3687  1.7189
  855MOL0     H12848   7.880  10.353   5.146  1.3741 -1.9366 -1.0076
  855MOL0     H12849   8.121  10.346   5.200  1.5631  1.2734  1.0225
  855MOL0     H12850   8.375  10.698   5.214 -3.8528  1.3260  0.3149
  855MOL0     H12851   8.362  10.615   5.053 -0.3509 -0.3732 -0.3105
  855MOL0     H12852   8.509  10.427   5.135 -0.0269 -0.4241  0.3446
  855MOL0     H12853   8.577  10.586   5.093 -0.4375 -0.3734 -0.9646
  855MOL0     H12854   8.633  10.628   5.324  1.7629 -0.8034 -1.7873
  855MOL0     H12855   8.651  10.446   5.305  2.4092  1.1310 -1.9236
  855MOL0     H12856   8.423  10.587   5.433 -0.2225 -0.8588 -0.6671
  855MOL0     H12857   8.461  10.416   5.455  1.0639 -0.9547  0.3417
  855MOL0     H12858   8.673  10.591   5.769  0.3223 -1.2396 -0.1506
  855MOL0     H12859   8.167  10.747   5.153 -1.3970  0.9329  1.0403
  855MOL0     H12860   7.935  10.788   5.082  1.4471  0.2638 -0.1913
  856MOL0     O12861  10.193   7.306   3.638 -0.6168  0.3885 -0.7809
  856MOL0     C12862  10.230   7.221   3.719 -0.3317  0.4545 -0.3502
  856MOL0     O12863  10.151   7.179   3.822 -0.6208 -0.0791  0.7917
  856MOL0     C12864  10.053   7.259   3.853 -0.1985 -0.6220 -1.1030
  856MOL0     C12865   9.924   7.240   3.805  0.5232 -0.1049 -0.1769
  856MOL0     C12866   9.818   7.324   3.841  0.6141  0.0100  0.1241
  856MOL0     C12867   9.838   7.416   3.934  0.0352 -0.1314 -0.3362
  856MOL0     O12868   9.733   7.493   3.978  0.8973  0.2290 -1.5382
  856MOL0     C12869   9.616   7.418   4.015 -0.5203  0.6056 -1.2253
  856MOL0     C12870   9.572   7.466   4.153 -0.1045 -0.8670 -0.1127
  856MOL0     C12871   9.425   7.413   4.175  0.0753  0.3917  0.2023
  856MOL0     C12872   9.346   7.485   4.282 -0.3208 -0.2971 -0.0869
  856MOL0     C12873   9.208   7.421   4.304 -1.4881  0.4159  0.2367
  856MOL0     C12874   9.135   7.482   4.418 -0.2738 -0.1228 -0.2385
  856MOL0     C12875   9.000   7.408   4.446  0.6804 -0.1353 -0.1598
  856MOL0     C12876   8.913   7.495   4.533 -0.1614 -0.3803  0.3154
  856MOL0     N12877   8.778   7.443   4.548  0.3568  0.4323  0.8045
  856MOL0     C12878   8.724   7.352   4.638 -0.5979  0.1626 -0.1627
  856MOL0     C12879   8.591   7.346   4.615  0.6936  0.1203 -0.0951
  856MOL0     C12880   8.498   7.257   4.694 -0.5644 -0.1496  0.6109
  856MOL0     C12881   8.377   7.334   4.732  0.2905 -0.0703 -0.3264
  856MOL0     C12882   8.412   7.443   4.831 -0.0528 -0.3537  0.8257
  856MOL0     C12883   8.287   7.473   4.920 -0.1757 -1.0261  0.1547
  856MOL0     O12884   8.171   7.503   4.838  1.0365  0.3557 -0.0871
  856MOL0     C12885   8.089   7.599   4.895  0.1321  0.5064 -0.6164
  856MOL0     C12886   8.071   7.728   4.834 -0.6122  0.4208  0.0505
  856MOL0     C12887   7.984   7.825   4.877  0.1401 -0.5390 -0.1552
  856MOL0     C12888   7.891   7.785   4.974  0.6337 -0.2908  0.4225
  856MOL0     C12889   7.791   7.877   5.016  0.0165 -0.2198  0.6837
  856MOL0     O12890   7.711   7.833   5.118  0.4912 -0.8996  0.2199
  856MOL0     C12891   7.618   7.908   5.187  0.8239  0.1031 -0.6826
  856MOL0     C12892   7.518   7.851   5.267  0.2866 -0.4784  0.7752
  856MOL0     C12893   7.437   7.929   5.357  0.3369 -0.2553  0.6902
  856MOL0     C12894   7.466   8.071   5.363  0.2180  0.4186  0.5356
  856MOL0     O12895   7.399   8.164   5.439  0.5326  0.1955  0.2946
  856MOL0     C12896   7.275   8.121   5.504 -0.5414 -0.3593  0.7936
  856MOL0     C12897   7.196   8.239   5.549  0.8353  0.9604  0.7083
  856MOL0     C12898   7.154   8.333   5.435  0.4765 -0.3181 -1.1988
  856MOL0     C12899   7.073   8.459   5.477  0.1787 -0.2992 -0.2062
  856MOL0     C12900   7.040   8.546   5.349  0.2701 -0.5082 -0.6692
  856MOL0     C12901   6.968   8.469   5.240 -0.5872  0.3310  0.3736
  856MOL0     C12902   6.910   8.561   5.126 -0.2014  0.4727  0.1449
  856MOL0     C12903   6.888   8.476   5.002  0.3467 -0.6531 -0.3166
  856MOL0    Cl12904   6.768   8.342   5.035 -0.0508 -0.2939 -0.1017
  856MOL0     C12905   7.570   8.124   5.280  0.3266 -0.1263 -0.2624
  856MOL0     C12906   7.632   8.044   5.194 -0.2876 -0.1664  0.3456
  856MOL0     O12907   7.788   7.987   4.957  0.7436 -0.8044 -0.8762
  856MOL0     C12908   7.911   7.666   5.042 -0.3074  0.7423 -0.5649
  856MOL0     C12909   7.999   7.574   5.001 -0.7640  0.2548 -0.2540
  856MOL0     N12910   8.563   7.430   4.512 -0.1380 -0.6847  1.0229
  856MOL0     N12911   8.674   7.486   4.472 -0.1759  0.5552 -0.1399
  856MOL0     C12912   9.968   7.438   3.984 -0.6730  0.5678 -0.0078
  856MOL0     C12913  10.075   7.361   3.938  0.4935 -0.9503 -0.3365
  856MOL0     C12914  10.364   7.145   3.705  0.0043 -0.3167 -0.2847
  856MOL0     C12915  10.463   7.185   3.612  0.3678 -0.5323  0.2422
  856MOL0     C12916  10.582   7.107   3.588  0.2842 -0.1055  0.1529
  856MOL0     C12917  10.598   6.986   3.661  0.8498  0.3773 -0.3739
  856MOL0     O12918  10.709   6.913   3.643 -0.5811  0.4591  0.4516
  856MOL0     C12919  10.833   6.976   3.691  0.0119  0.4508 -0.8543
  856MOL0     C12920  10.904   6.887   3.785  1.1896  0.0002 -0.5644
  856MOL0     C12921  10.923   6.754   3.726  0.0397  0.0910 -0.2738
  856MOL0     C12922  10.980   6.662   3.837  0.6806 -1.0033  0.9818
  856MOL0     C12923  10.879   6.613   3.928  0.4357 -0.3680 -1.6398
  856MOL0     C12924  10.790   6.566   3.996 -0.0557 -0.0503  0.2880
  856MOL0     C12925  10.501   6.954   3.763  0.0371 -0.0886  0.4478
  856MOL0     C12926  10.383   7.036   3.784 -0.6428  0.5147  0.5066
  856MOL0     H12927   9.912   7.161   3.732  0.6189  1.2379 -1.7198
  856MOL0     H12928   9.714   7.304   3.817 -0.2663  1.4360  2.3970
  856MOL0     H12929   9.627   7.310   4.018  0.7855  0.7268 -0.4195
  856MOL0     H12930   9.538   7.439   3.942  0.5501 -0.0281 -2.5907
  856MOL0     H12931   9.562   7.575   4.151 -1.9642 -0.8806  3.1510
  856MOL0     H12932   9.642   7.440   4.233  0.9700 -1.4811 -1.2143
  856MOL0     H12933   9.442   7.310   4.205  2.0803  0.6176 -0.0438
  856MOL0     H12934   9.378   7.403   4.076  1.4233 -1.3567 -0.3101
  856MOL0     H12935   9.406   7.465   4.371  1.9099 -0.9518 -1.6269
  856MOL0     H12936   9.332   7.590   4.257 -1.4578 -1.1729 -3.8715
  856MOL0     H12937   9.220   7.317   4.333  0.5100  1.2143  2.5217
  856MOL0     H12938   9.150   7.434   4.211 -2.8999  0.6135  1.1193
  856MOL0     H12939   9.125   7.589   4.398  3.2001  0.1012 -1.5646
  856MOL0     H12940   9.209   7.472   4.498  0.1220 -0.0635 -0.5933
  856MOL0     H12941   8.943   7.383   4.356 -1.3988  2.3239  0.3538
  856MOL0     H12942   9.020   7.313   4.497  0.1569 -0.5017 -0.6269
  856MOL0     H12943   8.902   7.596   4.493 -2.3807 -0.3237  0.9382
  856MOL0     H12944   8.959   7.529   4.626 -1.5616  3.9052 -0.3124
  856MOL0     H12945   8.776   7.284   4.705  1.2868  1.2090 -0.4992
  856MOL0     H12946   8.551   7.221   4.783 -1.1885 -3.4269 -0.2267
  856MOL0     H12947   8.463   7.172   4.636  2.1672 -0.1799 -1.1807
  856MOL0     H12948   8.314   7.262   4.785 -0.2975  0.5828 -0.1284
  856MOL0     H12949   8.311   7.356   4.647  1.2131 -1.0343 -1.3305
  856MOL0     H12950   8.500   7.407   4.885  0.6869 -0.3730 -0.3456
  856MOL0     H12951   8.445   7.532   4.777 -0.8216 -2.0516 -2.7019
  856MOL0     H12952   8.303   7.550   4.996  1.3788 -0.7596 -0.4227
  856MOL0     H12953   8.264   7.390   4.988 -1.1900 -1.0015 -0.1411
  856MOL0     H12954   8.139   7.751   4.753 -0.4039  0.9115  0.3616
  856MOL0     H12955   7.986   7.925   4.836  1.7350 -0.7261 -0.6183
  856MOL0     H12956   7.513   7.743   5.254  1.6320 -0.2942 -1.8729
  856MOL0     H12957   7.344   7.897   5.401 -2.9700  5.0007 -1.5513
  856MOL0     H12958   7.310   8.070   5.594 -2.4634  0.0575  1.8209
  856MOL0     H12959   7.210   8.053   5.448 -0.4362 -0.7904  1.1843
  856MOL0     H12960   7.263   8.286   5.621  0.0310  1.1709  1.3289
  856MOL0     H12961   7.110   8.214   5.612  0.9019 -0.6244  0.2031
  856MOL0     H12962   7.102   8.275   5.357 -2.0316 -0.8282  0.7211
  856MOL0     H12963   7.245   8.366   5.385  0.9811 -1.1680 -0.8670
  856MOL0     H12964   6.979   8.432   5.526 -0.6133  1.6470 -0.5546
  856MOL0     H12965   7.127   8.526   5.544 -2.3020  1.3701  0.2821
  856MOL0     H12966   7.142   8.572   5.319  0.3081  1.3864  0.8775
  856MOL0     H12967   6.981   8.635   5.371  0.7803  0.2014 -2.0031
  856MOL0     H12968   6.884   8.408   5.275  1.1799 -2.6980 -0.2524
  856MOL0     H12969   7.033   8.392   5.196 -2.0727 -1.1741  0.7268
  856MOL0     H12970   6.821   8.608   5.167 -0.0549 -1.3488  2.7501
  856MOL0     H12971   6.980   8.643   5.105 -0.1849  0.3396 -0.3318
  856MOL0     H12972   6.978   8.417   4.981  1.9844  0.3985  2.9502
  856MOL0     H12973   6.860   8.533   4.914 -2.6239 -1.2040  0.1526
  856MOL0     H12974   7.593   8.230   5.275  0.4697 -0.1869 -0.9343
  856MOL0     H12975   7.708   8.097   5.138  0.4775 -1.3931  0.2072
  856MOL0     H12976   7.848   7.630   5.123 -0.8254 -0.6106 -1.5303
  856MOL0     H12977   7.989   7.474   5.043 -0.9009 -0.2212 -1.3823
  856MOL0     H12978   9.983   7.523   4.050 -0.2999 -0.5591  1.4297
  856MOL0     H12979  10.171   7.379   3.985 -1.2614  1.5120  2.7097
  856MOL0     H12980  10.436   7.275   3.557  3.6755 -0.0043 -0.7395
  856MOL0     H12981  10.664   7.142   3.526 -1.0007  0.6366 -1.1620
  856MOL0     H12982  10.787   7.058   3.746  1.6919 -0.4946  2.2315
  856MOL0     H12983  10.893   7.015   3.608  1.3522  2.0497  0.7727
  856MOL0     H12984  11.000   6.933   3.811  0.3480  2.3947 -1.4525
  856MOL0     H12985  10.846   6.868   3.876  0.2791 -1.5968 -1.4494
  856MOL0     H12986  10.984   6.758   3.635 -1.7208 -1.6291 -1.6248
  856MOL0     H12987  10.825   6.718   3.694 -0.7885  1.1968  0.9079
  856MOL0     H12988  11.019   6.576   3.782  1.6830  0.9265 -1.4625
  856MOL0     H12989  11.071   6.697   3.885 -0.4613  1.2121  1.6739
  856MOL0     H12990  10.710   6.523   4.052  1.5404 -3.3486  0.2941
  856MOL0     H12991  10.520   6.863   3.820  2.0280  0.8804  1.4390
  856MOL0     H12992  10.311   6.997   3.855 -2.0155 -1.0545 -1.6093
  857MOL0     O12993   9.841   3.907   0.797 -0.5341 -0.2352 -0.7240
  857MOL0     C12994   9.857   4.014   0.863  0.1203 -0.8649 -0.2565
  857MOL0     O12995   9.762   4.098   0.902  0.2971  0.1272  0.8356
  857MOL0     C12996   9.631   4.076   0.862  0.6246  0.5409 -0.0961
  857MOL0     C12997   9.540   4.004   0.948 -0.7741  0.2850 -0.3164
  857MOL0     C12998   9.399   3.992   0.912 -0.0540  0.4249 -0.2301
  857MOL0     C12999   9.361   4.034   0.787 -0.9542 -0.1340  0.0685
  857MOL0     O13000   9.247   3.986   0.734  0.0285  0.1966 -0.1351
  857MOL0     C13001   9.189   3.858   0.777 -0.6505  0.0486 -0.1025
  857MOL0     C13002   9.085   3.816   0.676  0.2129 -0.0194  1.1851
  857MOL0     C13003   8.945   3.839   0.747  0.4878 -0.4414  0.7938
  857MOL0     C13004   8.821   3.829   0.655 -0.0432  0.2566 -0.1899
  857MOL0     C13005   8.815   3.703   0.571  0.0982  0.5135  0.2130
  857MOL0     C13006   8.677   3.655   0.534  0.9250 -0.7638 -0.3502
  857MOL0     C13007   8.666   3.570   0.401  0.1870 -0.6843 -0.1977
  857MOL0     C13008   8.535   3.589   0.323 -0.7508 -0.4335 -0.0234
  857MOL0     N13009   8.423   3.501   0.372 -0.6727 -0.3095 -0.7514
  857MOL0     C13010   8.391   3.374   0.324  0.1448 -0.6421 -0.5977
  857MOL0     C13011   8.275   3.345   0.381 -0.0095  0.6584 -0.0327
  857MOL0     C13012   8.206   3.215   0.352 -0.2317 -0.0888  0.2136
  857MOL0     C13013   8.109   3.243   0.237 -0.0436  0.0223  0.0741
  857MOL0     C13014   8.011   3.131   0.237  0.2282 -0.0943 -0.1904
  857MOL0     C13015   7.924   3.133   0.113  0.0025 -0.2992  0.2934
  857MOL0     O13016   7.812   3.224   0.122 -0.2037 -0.0754  0.8031
  857MOL0     C13017   7.694   3.172   0.092  0.7548 -0.1221  0.1225
  857MOL0     C13018   7.672   3.069  -0.001 -0.3289  0.0397  0.5060
  857MOL0     C13019   7.544   3.033  -0.026 -0.0071 -0.2231 -0.2200
  857MOL0     C13020   7.436   3.079   0.042 -0.5609  0.8685  0.8560
  857MOL0     C13021   7.308   3.024   0.011 -0.3877  0.3285  0.5770
  857MOL0     O13022   7.212   3.041   0.099 -0.0119  0.4459  0.0983
  857MOL0     C13023   7.080   3.043   0.049  0.3960  1.2900 -0.4597
  857MOL0     C13024   7.004   3.146   0.099 -0.1660 -0.6345 -0.0787
  857MOL0     C13025   6.865   3.139   0.069 -0.6430 -0.6638  0.4122
  857MOL0     C13026   6.807   3.039  -0.008  0.3563 -0.1983  0.2606
  857MOL0     O13027   6.675   3.025  -0.011 -0.5164  0.4291  0.0428
  857MOL0     C13028   6.628   2.963   0.113  0.1835  0.2673  0.2474
  857MOL0     C13029   6.481   2.921   0.100  0.6787  0.7779  0.2080
  857MOL0     C13030   6.394   3.057   0.090  0.2154 -0.4776 -0.0749
  857MOL0     C13031   6.253   3.005   0.113  0.1502 -0.4260  0.1692
  857MOL0     C13032   6.154   3.102   0.049  0.1065  0.3560  0.1901
  857MOL0     C13033   6.009   3.055   0.059  0.0777 -0.6936 -0.8904
  857MOL0     C13034   5.911   3.156  -0.024 -0.9378  0.0489 -0.4324
  857MOL0     C13035   5.785   3.079  -0.076 -0.6991 -0.6350 -0.5530
  857MOL0    Cl13036   5.688   3.024   0.065 -0.0156  0.5698  0.4756
  857MOL0     C13037   6.889   2.935  -0.050  0.3690 -0.8194  0.7923
  857MOL0     C13038   7.031   2.935  -0.030 -0.2790 -0.4364 -0.9005
  857MOL0     O13039   7.289   2.999  -0.104  0.3316  0.0905  0.3702
  857MOL0     C13040   7.450   3.184   0.136  0.8045  0.2792  0.0641
  857MOL0     C13041   7.582   3.224   0.164 -0.5575  0.2659 -0.2313
  857MOL0     N13042   8.237   3.445   0.466 -0.4098  0.6814  0.6432
  857MOL0     N13043   8.323   3.541   0.451 -0.3153  0.6243 -0.0279
  857MOL0     C13044   9.448   4.110   0.707  0.2804 -0.0256 -0.6456
  857MOL0     C13045   9.577   4.131   0.752 -0.2510 -0.4586 -0.3095
  857MOL0     C13046  10.000   4.035   0.920  0.1394  0.5804 -0.3413
  857MOL0     C13047  10.033   4.162   0.964 -0.6530  0.4721  0.5380
  857MOL0     C13048  10.160   4.197   1.017 -0.1801 -0.6283  0.2953
  857MOL0     C13049  10.265   4.108   1.009 -0.0945  0.8520 -0.5713
  857MOL0     O13050  10.388   4.150   1.052 -0.0764 -0.5514 -0.0951
  857MOL0     C13051  10.496   4.054   1.031 -0.7874 -0.4956 -0.6435
  857MOL0     C13052  10.622   4.126   1.084  0.0758 -0.3200  0.8997
  857MOL0     C13053  10.645   4.118   1.238  0.1549 -0.0220  0.3247
  857MOL0     C13054  10.782   4.176   1.306 -0.3102 -0.6465 -1.1795
  857MOL0     C13055  10.906   4.101   1.310 -0.4859  1.1466 -0.0295
  857MOL0     C13056  11.008   4.040   1.302 -0.0889 -0.3998  0.3826
  857MOL0     C13057  10.233   3.977   0.955  0.7098  0.3799  0.1443
  857MOL0     C13058  10.104   3.936   0.911  0.6758 -0.5920  0.3087
  857MOL0     H13059   9.575   3.967   1.044 -1.1826  2.2232  0.6405
  857MOL0     H13060   9.334   3.934   0.976  1.0223  2.2453  2.6971
  857MOL0     H13061   9.162   3.869   0.883  0.2580  1.9196 -0.0133
  857MOL0     H13062   9.269   3.786   0.762  0.7669  1.5328  0.0257
  857MOL0     H13063   9.104   3.713   0.646  0.8887  0.9367 -1.9666
  857MOL0     H13064   9.084   3.877   0.585  0.0347 -0.6828  0.7351
  857MOL0     H13065   8.947   3.941   0.787 -0.4562 -0.1851  0.2249
  857MOL0     H13066   8.930   3.766   0.827  0.4956 -1.6901 -0.3258
  857MOL0     H13067   8.736   3.835   0.724  1.5777 -0.8022  2.0075
  857MOL0     H13068   8.816   3.919   0.592 -4.4292 -0.1443 -0.7004
  857MOL0     H13069   8.860   3.622   0.631  0.6631  0.5141 -0.2026
  857MOL0     H13070   8.860   3.727   0.475  0.0993 -0.3775 -0.0151
  857MOL0     H13071   8.607   3.738   0.519  0.5973 -0.9978 -0.1266
  857MOL0     H13072   8.637   3.591   0.613  0.7879 -0.7862 -0.4380
  857MOL0     H13073   8.742   3.587   0.325 -0.0347 -2.8433 -0.9807
  857MOL0     H13074   8.683   3.463   0.419 -0.2112 -0.5764  0.9063
  857MOL0     H13075   8.566   3.578   0.219  0.9656  0.5488  0.3574
  857MOL0     H13076   8.501   3.693   0.320 -0.5135 -0.3538  0.1264
  857MOL0     H13077   8.449   3.314   0.254  0.3149 -0.0666 -0.9561
  857MOL0     H13078   8.165   3.186   0.449 -0.0722 -1.5297 -0.1288
  857MOL0     H13079   8.276   3.140   0.314 -1.0219 -1.1415  0.7798
  857MOL0     H13080   8.165   3.240   0.143 -0.6027  0.4128 -0.2725
  857MOL0     H13081   8.053   3.337   0.242 -1.5286 -0.8733  1.0162
  857MOL0     H13082   8.067   3.038   0.228  0.0996 -0.2420  0.4815
  857MOL0     H13083   7.954   3.118   0.329  1.6059 -1.8706  0.4773
  857MOL0     H13084   7.900   3.028   0.097  4.0148 -0.9414 -3.2452
  857MOL0     H13085   7.984   3.145   0.022 -1.5625  0.2057 -0.7080
  857MOL0     H13086   7.758   3.033  -0.056  1.5064  3.2962  1.0047
  857MOL0     H13087   7.545   2.950  -0.096  0.3395 -0.7930  0.4476
  857MOL0     H13088   7.047   3.226   0.158 -0.0199  0.8205 -2.0521
  857MOL0     H13089   6.796   3.203   0.122 -0.9699 -2.7701  2.6711
  857MOL0     H13090   6.637   3.030   0.198 -2.5432  0.8911  0.1294
  857MOL0     H13091   6.680   2.868   0.129  0.3924  0.0124 -1.7019
  857MOL0     H13092   6.446   2.866   0.188 -0.4933  1.1012 -0.0409
  857MOL0     H13093   6.455   2.851   0.021  0.1452 -0.0309  1.0785
  857MOL0     H13094   6.410   3.096  -0.011 -0.8215  1.1682  0.3604
  857MOL0     H13095   6.428   3.128   0.166  2.2464 -0.8050 -0.6285
  857MOL0     H13096   6.232   2.911   0.061  0.8736 -0.0011 -0.9114
  857MOL0     H13097   6.218   2.992   0.216 -2.6466 -2.3090 -0.9085
  857MOL0     H13098   6.183   3.122  -0.055 -0.1540 -2.2903 -0.4660
  857MOL0     H13099   6.167   3.197   0.101  2.1352  0.2793 -0.0960
  857MOL0     H13100   5.975   3.046   0.163  1.8661 -0.7913 -0.2793
  857MOL0     H13101   6.000   2.956   0.013 -1.1705 -0.4760 -1.1403
  857MOL0     H13102   5.898   3.237   0.048  0.8183 -0.4485  0.5163
  857MOL0     H13103   5.970   3.203  -0.104 -1.6479  2.9444  0.6154
  857MOL0     H13104   5.824   2.997  -0.138  1.8916  1.2177 -1.5723
  857MOL0     H13105   5.744   3.143  -0.154  0.2516 -0.4310 -0.9045
  857MOL0     H13106   6.849   2.850  -0.105 -2.9134  2.3266 -2.2351
  857MOL0     H13107   7.089   2.851  -0.066  0.0798 -0.5297 -0.1307
  857MOL0     H13108   7.370   3.229   0.194 -0.3603 -0.6195 -0.7889
  857MOL0     H13109   7.624   3.298   0.231  1.4587 -0.8467 -0.1631
  857MOL0     H13110   9.418   4.155   0.613 -0.4441  0.7815 -0.0455
  857MOL0     H13111   9.639   4.198   0.693 -2.3366  1.0714 -0.8778
  857MOL0     H13112   9.955   4.238   0.965  1.8553  3.2025  0.7785
  857MOL0     H13113  10.173   4.301   1.045 -1.6544  0.0990 -1.4970
  857MOL0     H13114  10.518   4.042   0.925  1.2024 -0.0573 -0.3249
  857MOL0     H13115  10.474   3.954   1.071  1.6867 -1.2155 -0.9375
  857MOL0     H13116  10.707   4.074   1.038 -0.9514  0.2531 -1.8570
  857MOL0     H13117  10.628   4.224   1.037  1.3341  0.1048  1.9057
  857MOL0     H13118  10.637   4.011   1.260 -0.7465 -0.7523 -2.9971
  857MOL0     H13119  10.561   4.172   1.281  0.5964  0.5472  0.4826
  857MOL0     H13120  10.798   4.270   1.251 -3.5427 -0.3208 -1.7590
  857MOL0     H13121  10.756   4.206   1.408  1.2914 -1.6479 -0.4436
  857MOL0     H13122  11.104   3.995   1.285  0.6181  1.2839 -0.3171
  857MOL0     H13123  10.305   3.897   0.948 -2.3914 -2.8009  1.8417
  857MOL0     H13124  10.088   3.834   0.880 -0.4909 -0.3252 -0.0095
  858MOL0     O13125   2.479   6.237   4.415 -0.5768  0.0153 -0.3326
  858MOL0     C13126   2.434   6.340   4.468 -0.7270 -0.3022 -0.3714
  858MOL0     O13127   2.506   6.435   4.533 -0.0503 -0.5017  0.2316
  858MOL0     C13128   2.639   6.438   4.513  0.4077  0.4754 -0.7024
  858MOL0     C13129   2.690   6.413   4.384 -0.1167 -0.7614 -1.0955
  858MOL0     C13130   2.814   6.458   4.354 -0.0388  0.5707 -0.4562
  858MOL0     C13131   2.897   6.517   4.447  0.0160 -0.4297  0.8174
  858MOL0     O13132   3.022   6.559   4.404 -0.6683  0.0190 -0.3054
  858MOL0     C13133   3.087   6.670   4.462  1.0143 -0.6404  0.4678
  858MOL0     C13134   3.183   6.728   4.351 -0.4977  0.8228 -0.6009
  858MOL0     C13135   3.301   6.629   4.296 -0.6241 -1.0855 -0.2816
  858MOL0     C13136   3.412   6.610   4.402 -0.5482 -0.8928  0.8287
  858MOL0     C13137   3.506   6.490   4.383 -0.8328 -0.1255 -0.0960
  858MOL0     C13138   3.644   6.507   4.443  0.4937  0.4480 -0.4632
  858MOL0     C13139   3.645   6.466   4.594  0.2199 -0.9165 -0.1393
  858MOL0     C13140   3.648   6.312   4.596 -0.2794 -0.6998 -0.5029
  858MOL0     N13141   3.672   6.259   4.730 -0.6402  0.1527  0.0968
  858MOL0     C13142   3.631   6.296   4.849 -0.0609 -0.1590 -0.4127
  858MOL0     C13143   3.650   6.202   4.937  0.0275  0.1569  0.5000
  858MOL0     C13144   3.617   6.211   5.082 -0.4149 -0.0055  0.7645
  858MOL0     C13145   3.464   6.190   5.098 -0.5924  0.2350 -0.8619
  858MOL0     C13146   3.424   6.240   5.236  0.4682  0.6948 -0.6063
  858MOL0     C13147   3.270   6.238   5.236 -0.2991 -0.4424  0.1585
  858MOL0     O13148   3.240   6.102   5.214  0.1069  0.1405  0.4599
  858MOL0     C13149   3.104   6.067   5.214  0.3610 -0.2198  0.0879
  858MOL0     C13150   3.042   6.032   5.339  0.3620 -0.5513  0.0624
  858MOL0     C13151   2.909   5.985   5.349  0.5893 -0.0059 -0.1168
  858MOL0     C13152   2.840   5.967   5.230 -0.0993  0.6191  0.1407
  858MOL0     C13153   2.706   5.903   5.225 -0.5587 -0.3827  0.0727
  858MOL0     O13154   2.650   5.857   5.114  0.5699  0.0711  0.0168
  858MOL0     C13155   2.535   5.778   5.119 -0.1935 -0.1170 -0.7751
  858MOL0     C13156   2.509   5.675   5.216  0.9452  0.2269  0.0537
  858MOL0     C13157   2.378   5.617   5.228 -0.0715 -0.6882  0.1406
  858MOL0     C13158   2.285   5.648   5.121  0.2265  0.0190  0.0653
  858MOL0     O13159   2.152   5.600   5.118  0.2814 -0.5261  0.3231
  858MOL0     C13160   2.097   5.519   5.228  0.9973 -0.1871  1.1653
  858MOL0     C13161   1.951   5.476   5.217  0.3567  0.2293  0.1410
  858MOL0     C13162   1.846   5.589   5.237  0.2933 -1.0945 -0.4813
  858MOL0     C13163   1.699   5.557   5.184  1.0176 -0.0361  0.2950
  858MOL0     C13164   1.617   5.691   5.185  0.5098 -0.0097 -0.0079
  858MOL0     C13165   1.476   5.674   5.128  0.9457 -0.1646  0.3161
  858MOL0     C13166   1.392   5.802   5.131 -0.8493 -0.1323  0.0453
  858MOL0     C13167   1.246   5.763   5.133  0.1444 -0.4637 -0.2086
  858MOL0    Cl13168   1.181   5.665   5.005 -0.2180  0.0135 -0.3204
  858MOL0     C13169   2.319   5.737   5.026 -0.7071  0.4176  0.2161
  858MOL0     C13170   2.438   5.802   5.022  0.2752 -0.1819  0.2688
  858MOL0     O13171   2.659   5.897   5.337  0.0748 -0.0999  0.7385
  858MOL0     C13172   2.909   5.984   5.112 -0.5311 -0.5993 -0.0071
  858MOL0     C13173   3.041   6.044   5.100  0.6766  0.3474  0.0777
  858MOL0     N13174   3.705   6.095   4.869 -0.3785  0.3301 -0.3906
  858MOL0     N13175   3.714   6.131   4.745  0.3204 -0.1060 -1.3163
  858MOL0     C13176   2.851   6.549   4.574 -0.5134  0.6823  0.5622
  858MOL0     C13177   2.720   6.492   4.615  0.0706  0.0790  0.2669
  858MOL0     C13178   2.292   6.359   4.468 -0.3036 -0.5836  0.2204
  858MOL0     C13179   2.200   6.292   4.390 -0.1134  1.0714  0.5665
  858MOL0     C13180   2.061   6.329   4.379 -0.2918 -0.5060  0.5731
  858MOL0     C13181   2.007   6.427   4.474  0.4314  0.3331  0.5788
  858MOL0     O13182   1.876   6.466   4.476  0.0603 -0.1610 -0.0707
  858MOL0     C13183   1.782   6.434   4.367 -0.1132 -0.1576 -0.5821
  858MOL0     C13184   1.645   6.487   4.397 -0.4479  0.4477 -0.1688
  858MOL0     C13185   1.541   6.473   4.287  0.6753 -0.1118 -0.3156
  858MOL0     C13186   1.530   6.331   4.226 -1.0502 -0.0465 -0.7842
  858MOL0     C13187   1.439   6.322   4.114  0.1773  0.2610 -0.4837
  858MOL0     C13188   1.376   6.315   4.012 -0.4336  0.4009 -0.1536
  858MOL0     C13189   2.088   6.482   4.558 -0.2793 -0.3165 -0.2240
  858MOL0     C13190   2.227   6.445   4.569 -0.6347 -0.3586  0.6379
  858MOL0     H13191   2.633   6.384   4.297  2.2183 -3.1759 -1.9725
  858MOL0     H13192   2.849   6.449   4.252  0.4836  1.9329 -0.4179
  858MOL0     H13193   3.127   6.638   4.559 -0.3129 -1.4973  0.7613
  858MOL0     H13194   3.015   6.748   4.489 -0.4711 -1.4566 -0.9596
  858MOL0     H13195   3.234   6.815   4.395 -1.1500  0.5869  0.6610
  858MOL0     H13196   3.124   6.762   4.266 -0.6400  1.2902 -0.3215
  858MOL0     H13197   3.334   6.678   4.204 -1.9958 -1.2733 -0.8978
  858MOL0     H13198   3.263   6.529   4.275  2.0320 -2.4084  0.8047
  858MOL0     H13199   3.468   6.704   4.409  2.7896 -2.8268  2.5424
  858MOL0     H13200   3.379   6.596   4.506  3.8450 -1.0878  2.4098
  858MOL0     H13201   3.522   6.475   4.276  1.0541 -0.4400  0.1938
  858MOL0     H13202   3.464   6.397   4.421  0.1906 -1.0409 -1.1370
  858MOL0     H13203   3.670   6.613   4.438 -0.4961  0.7585  0.6310
  858MOL0     H13204   3.721   6.442   4.400 -1.2121 -4.3181  2.8640
  858MOL0     H13205   3.737   6.503   4.639  2.3050 -2.1923 -3.0027
  858MOL0     H13206   3.552   6.502   4.640  1.3734 -0.0620  1.6050
  858MOL0     H13207   3.729   6.265   4.541 -0.4721 -3.1029  1.1290
  858MOL0     H13208   3.562   6.267   4.547 -0.1573 -0.9112 -0.5217
  858MOL0     H13209   3.586   6.394   4.863  0.1827 -0.0749 -0.1890
  858MOL0     H13210   3.641   6.307   5.128 -1.0329 -1.0915  3.5711
  858MOL0     H13211   3.669   6.140   5.146 -0.4243 -0.1765  0.5858
  858MOL0     H13212   3.447   6.084   5.077  1.7307 -0.3041 -0.2355
  858MOL0     H13213   3.412   6.259   5.031 -2.9062  1.4392  1.9321
  858MOL0     H13214   3.466   6.158   5.295 -1.9912 -1.8836 -2.1751
  858MOL0     H13215   3.455   6.338   5.273 -1.3092  0.8322  0.6907
  858MOL0     H13216   3.228   6.296   5.153  2.0764  1.5526  0.2231
  858MOL0     H13217   3.220   6.294   5.316  0.0035 -0.4076  0.3263
  858MOL0     H13218   3.099   6.043   5.430 -0.3241 -1.9304  0.6831
  858MOL0     H13219   2.872   5.948   5.444  0.4045 -0.3196 -0.3101
  858MOL0     H13220   2.589   5.657   5.287 -0.5643  3.8029  3.0041
  858MOL0     H13221   2.358   5.533   5.294 -0.6233 -0.3494  0.4076
  858MOL0     H13222   2.119   5.572   5.321  0.7257  1.4213  0.3525
  858MOL0     H13223   2.161   5.431   5.230  0.5345 -0.5265  1.1849
  858MOL0     H13224   1.937   5.395   5.289 -0.0596  0.2453  0.0768
  858MOL0     H13225   1.934   5.432   5.119 -0.5397  1.3193 -0.2099
  858MOL0     H13226   1.895   5.674   5.189 -1.3402  0.9795  1.3219
  858MOL0     H13227   1.843   5.622   5.341  0.0642 -2.9812  0.1514
  858MOL0     H13228   1.710   5.513   5.084  0.0616 -1.7381  0.8968
  858MOL0     H13229   1.650   5.484   5.249 -1.1753  2.2039  1.3112
  858MOL0     H13230   1.664   5.777   5.137 -0.8553  1.1687  0.6842
  858MOL0     H13231   1.612   5.719   5.291 -0.5169 -1.7546  0.4375
  858MOL0     H13232   1.431   5.607   5.202  0.9079  1.6490  2.0182
  858MOL0     H13233   1.470   5.623   5.031 -2.7127 -2.1189  1.3678
  858MOL0     H13234   1.427   5.867   5.212  0.5346 -0.5380 -0.1948
  858MOL0     H13235   1.409   5.863   5.042 -1.4258  1.3655  0.9263
  858MOL0     H13236   1.185   5.855   5.135 -0.0710 -0.6030 -0.3011
  858MOL0     H13237   1.238   5.720   5.234  0.5321  1.7039  0.8130
  858MOL0     H13238   2.235   5.761   4.961  0.2500  0.8924 -0.8731
  858MOL0     H13239   2.461   5.880   4.951  4.0881  2.6383  4.0595
  858MOL0     H13240   2.860   5.954   5.020 -0.4496  1.0707 -0.6369
  858MOL0     H13241   3.075   6.071   5.001 -0.0427 -0.0529 -0.2879
  858MOL0     H13242   2.920   6.595   4.643 -0.4304 -1.0017  1.6514
  858MOL0     H13243   2.681   6.517   4.714 -0.2731  1.4879 -0.2092
  858MOL0     H13244   2.236   6.204   4.337 -2.1931 -0.3893  1.4100
  858MOL0     H13245   1.996   6.271   4.314 -0.7087  0.1446  0.3925
  858MOL0     H13246   1.778   6.327   4.347 -0.9464 -0.2123 -0.1660
  858MOL0     H13247   1.828   6.493   4.287  1.3685 -0.4696  0.0094
  858MOL0     H13248   1.609   6.440   4.489  1.0141  1.7226  1.1015
  858MOL0     H13249   1.646   6.586   4.443 -0.1860  0.1875  0.3955
  858MOL0     H13250   1.569   6.553   4.217  0.0141 -0.3744 -0.8966
  858MOL0     H13251   1.450   6.491   4.345  0.2594 -2.4494 -0.1506
  858MOL0     H13252   1.630   6.308   4.187 -0.7826 -2.5433  1.1591
  858MOL0     H13253   1.497   6.262   4.303 -0.7267  2.9884  2.3123
  858MOL0     H13254   1.317   6.320   3.923 -0.9456  0.1439  0.1613
  858MOL0     H13255   2.052   6.551   4.634 -0.8880 -2.0750  1.1329
  858MOL0     H13256   2.287   6.483   4.651 -1.7500  1.3172  0.7261
  859MOL0     O13257   2.684   0.937   1.972  0.2786  0.8614  0.5943
  859MOL0     C13258   2.677   0.927   2.090  0.0320 -0.3022 -0.7491
  859MOL0     O13259   2.763   0.855   2.174  0.4807  0.8631 -0.6099
  859MOL0     C13260   2.879   0.811   2.117 -1.1577 -0.2301  0.1276
  859MOL0     C13261   2.978   0.898   2.056  0.3413 -0.5970 -0.0637
  859MOL0     C13262   3.093   0.867   1.989  0.3128  0.1010 -0.2860
  859MOL0     C13263   3.117   0.722   1.984 -0.3164 -0.1121  0.6407
  859MOL0     O13264   3.224   0.662   1.920 -0.0888 -0.6344  0.3209
  859MOL0     C13265   3.308   0.758   1.861  0.5571 -1.1373 -0.3427
  859MOL0     C13266   3.418   0.667   1.796 -0.5603  0.0604  0.4116
  859MOL0     C13267   3.545   0.737   1.735 -0.0099  0.3750 -0.1833
  859MOL0     C13268   3.660   0.633   1.706  0.3649 -0.1434 -0.4657
  859MOL0     C13269   3.799   0.703   1.678 -0.3957 -0.5701  0.1084
  859MOL0     C13270   3.843   0.803   1.782  0.1672  1.2912  0.6993
  859MOL0     C13271   3.981   0.859   1.752 -1.4037 -0.6481  0.3865
  859MOL0     C13272   3.973   0.946   1.620  0.6179  0.5541  0.5459
  859MOL0     N13273   3.890   1.063   1.629 -0.5387  0.5794 -0.6358
  859MOL0     C13274   3.776   1.093   1.565  0.3181  0.6427 -0.5806
  859MOL0     C13275   3.712   1.199   1.627 -0.1384 -0.1280 -0.3797
  859MOL0     C13276   3.580   1.266   1.592  0.0407  0.1379  0.8084
  859MOL0     C13277   3.462   1.237   1.681  0.2844  0.4920  0.2339
  859MOL0     C13278   3.487   1.309   1.807  0.0524 -0.0235  0.9226
  859MOL0     C13279   3.383   1.265   1.908  0.3251 -0.2407  0.0646
  859MOL0     O13280   3.340   1.357   2.010 -0.0939  0.0439 -0.0771
  859MOL0     C13281   3.228   1.343   2.088  0.2643  0.8580 -0.4612
  859MOL0     C13282   3.111   1.293   2.039  0.9508 -0.9092 -0.3305
  859MOL0     C13283   3.008   1.270   2.133 -0.6094 -0.4294 -0.0047
  859MOL0     C13284   3.016   1.298   2.267 -0.0999  0.0308  0.5995
  859MOL0     C13285   2.902   1.266   2.364  1.3686  0.8687 -0.3844
  859MOL0     O13286   2.915   1.286   2.499 -0.3926  0.1477  0.2847
  859MOL0     C13287   2.812   1.266   2.593 -0.0202  0.2607  0.0263
  859MOL0     C13288   2.847   1.219   2.713 -0.0617 -0.7910 -0.3771
  859MOL0     C13289   2.752   1.207   2.814 -0.6681  1.0924  0.7333
  859MOL0     C13290   2.616   1.231   2.790 -0.5458  0.4121  0.3680
  859MOL0     O13291   2.532   1.214   2.900  0.6666  0.8179  0.5266
  859MOL0     C13292   2.423   1.309   2.916 -0.2417  0.0315 -0.6972
  859MOL0     C13293   2.387   1.290   3.063  0.2845  0.1707 -0.6002
  859MOL0     C13294   2.282   1.399   3.103  0.3409  0.0463 -0.5936
  859MOL0     C13295   2.242   1.403   3.249  0.0076  0.9167 -0.2519
  859MOL0     C13296   2.097   1.449   3.280 -0.0061 -0.2299 -0.0391
  859MOL0     C13297   2.054   1.468   3.430  0.1383  0.2168 -0.7262
  859MOL0     C13298   2.041   1.332   3.489  1.2018 -0.0478  0.1166
  859MOL0     C13299   1.945   1.336   3.610 -0.2834  0.0191 -0.9298
  859MOL0    Cl13300   2.025   1.430   3.734  0.1242 -0.0393 -0.0353
  859MOL0     C13301   2.577   1.278   2.667 -0.1735 -0.4918 -0.5003
  859MOL0     C13302   2.678   1.294   2.569  0.2286 -0.6773  1.2962
  859MOL0     O13303   2.798   1.226   2.308 -0.0582  0.4813 -0.2569
  859MOL0     C13304   3.140   1.338   2.319 -0.7922 -0.6470  1.0772
  859MOL0     C13305   3.246   1.363   2.226 -0.1499  0.7505  0.4219
  859MOL0     N13306   3.798   1.240   1.730 -0.0080  1.0034 -0.5778
  859MOL0     N13307   3.897   1.163   1.726  0.3200  0.5009 -0.2249
  859MOL0     C13308   3.018   0.633   2.035 -0.4674  0.2899 -0.5328
  859MOL0     C13309   2.910   0.678   2.114  0.6557 -0.4474  0.2670
  859MOL0     C13310   2.565   1.008   2.150 -0.0675  0.7849  0.0288
  859MOL0     C13311   2.494   0.959   2.262  0.1406 -1.9203  0.2645
  859MOL0     C13312   2.401   1.042   2.333 -0.3540 -0.0946  0.6455
  859MOL0     C13313   2.363   1.165   2.277 -0.2040 -0.7467  0.6977
  859MOL0     O13314   2.266   1.251   2.329  0.3885 -0.2167 -0.3990
  859MOL0     C13315   2.201   1.208   2.453 -0.3657 -0.3565 -0.5229
  859MOL0     C13316   2.099   1.316   2.489 -0.6431 -0.2827 -0.0515
  859MOL0     C13317   2.051   1.310   2.645 -0.2668 -0.3119  0.9038
  859MOL0     C13318   1.950   1.424   2.678  0.0511 -0.4731  0.1818
  859MOL0     C13319   1.955   1.460   2.822 -0.8805 -0.5835  0.0275
  859MOL0     C13320   1.949   1.520   2.934  0.6350 -0.4478  0.1626
  859MOL0     C13321   2.429   1.207   2.156 -0.3509 -0.4264  0.6479
  859MOL0     C13322   2.527   1.126   2.095 -0.2574  0.2188 -0.1403
  859MOL0     H13323   2.953   1.003   2.066 -3.1286 -1.3143  0.1732
  859MOL0     H13324   3.154   0.945   1.944 -1.3472  1.2601 -0.6343
  859MOL0     H13325   3.356   0.826   1.931  0.9037 -2.4667  0.7453
  859MOL0     H13326   3.257   0.811   1.780 -0.5827  0.0966  1.1242
  859MOL0     H13327   3.362   0.616   1.717 -0.4395 -1.0748  1.0351
  859MOL0     H13328   3.457   0.587   1.860  2.3180 -0.0486 -1.3187
  859MOL0     H13329   3.577   0.805   1.815 -1.9439 -0.8685  1.7498
  859MOL0     H13330   3.517   0.780   1.638 -0.3738  1.3968  0.3587
  859MOL0     H13331   3.677   0.564   1.789 -0.5731  0.9806  0.6960
  859MOL0     H13332   3.628   0.567   1.625  1.7075 -1.6011  0.1235
  859MOL0     H13333   3.791   0.747   1.578 -0.6398 -2.8124 -0.9202
  859MOL0     H13334   3.871   0.622   1.665  0.6552  0.0828  1.6284
  859MOL0     H13335   3.839   0.758   1.881 -0.7693 -1.9237 -0.6507
  859MOL0     H13336   3.769   0.885   1.778  1.3238  2.3328 -0.2856
  859MOL0     H13337   4.006   0.920   1.839  1.5929  1.7016 -1.9295
  859MOL0     H13338   4.057   0.781   1.750 -1.4566 -0.7023 -1.3514
  859MOL0     H13339   3.950   0.887   1.530  0.4819  1.6767 -0.1715
  859MOL0     H13340   4.074   0.982   1.600 -0.0651  0.7975 -3.0252
  859MOL0     H13341   3.742   1.046   1.474 -0.7645 -1.4574  0.8355
  859MOL0     H13342   3.553   1.231   1.492 -1.8769  1.7135  0.6988
  859MOL0     H13343   3.584   1.373   1.571 -0.6673 -0.2780 -1.9017
  859MOL0     H13344   3.466   1.129   1.695  1.1708  0.4838 -0.0014
  859MOL0     H13345   3.363   1.261   1.643 -1.0974 -0.9067  2.6620
  859MOL0     H13346   3.588   1.293   1.847 -1.3751 -3.1698  3.7556
  859MOL0     H13347   3.461   1.414   1.788 -1.5611 -0.8775 -2.1044
  859MOL0     H13348   3.410   1.176   1.965  0.1428 -0.0674  0.4292
  859MOL0     H13349   3.290   1.248   1.852 -0.9271  1.0772  1.6391
  859MOL0     H13350   3.096   1.282   1.932  0.6857  1.3355 -0.5806
  859MOL0     H13351   2.916   1.234   2.088 -1.3706 -1.3999  2.1910
  859MOL0     H13352   2.951   1.211   2.744  0.3372 -0.9988 -1.6975
  859MOL0     H13353   2.783   1.170   2.911  3.1385 -5.0685 -2.2323
  859MOL0     H13354   2.342   1.277   2.850 -0.0292  1.7805 -1.8739
  859MOL0     H13355   2.451   1.411   2.888 -1.0233 -0.0831 -2.0038
  859MOL0     H13356   2.476   1.292   3.126 -0.9608 -1.4984  1.3291
  859MOL0     H13357   2.348   1.190   3.081  3.5592 -1.5800 -2.2933
  859MOL0     H13358   2.187   1.366   3.062  0.2078  3.1343 -3.1515
  859MOL0     H13359   2.302   1.500   3.066 -2.0145  0.8405  0.1240
  859MOL0     H13360   2.246   1.301   3.288 -1.0685 -0.3759 -3.1563
  859MOL0     H13361   2.319   1.461   3.300 -1.1869  0.4673  2.1848
  859MOL0     H13362   2.025   1.376   3.239  1.8282 -2.1084 -0.0645
  859MOL0     H13363   2.081   1.545   3.231  1.6016  0.6650  1.1299
  859MOL0     H13364   1.955   1.515   3.429 -0.9157 -1.6969  2.0181
  859MOL0     H13365   2.119   1.526   3.496 -2.2375  1.1957  0.8642
  859MOL0     H13366   1.989   1.264   3.420 -0.5910  0.3801  0.9728
  859MOL0     H13367   2.137   1.289   3.519  1.0628  0.0122  0.6499
  859MOL0     H13368   1.929   1.235   3.648  1.3435  0.3271  0.7228
  859MOL0     H13369   1.848   1.379   3.583 -0.6715 -0.1473  0.1441
  859MOL0     H13370   2.473   1.307   2.652  0.3848  2.6123  0.7843
  859MOL0     H13371   2.640   1.330   2.474  3.9583 -0.1201 -0.1669
  859MOL0     H13372   3.160   1.367   2.422 -0.7573  1.7151  0.4672
  859MOL0     H13373   3.344   1.386   2.266  0.2116 -0.6853  0.3878
  859MOL0     H13374   3.044   0.529   2.024 -4.6600 -0.7859 -1.8804
  859MOL0     H13375   2.834   0.618   2.163  0.5161  0.5821  1.3598
  859MOL0     H13376   2.512   0.856   2.290  0.5229 -1.4700  1.7925
  859MOL0     H13377   2.348   0.993   2.414 -0.8506 -1.8149 -0.6460
  859MOL0     H13378   2.287   1.202   2.521  1.5239  2.5054 -2.4249
  859MOL0     H13379   2.148   1.114   2.439  2.2483 -1.8656 -0.9449
  859MOL0     H13380   2.156   1.408   2.474  2.1056 -1.6511  1.2122
  859MOL0     H13381   2.012   1.301   2.424 -1.2989 -0.5767  0.8751
  859MOL0     H13382   2.142   1.322   2.705  1.7535 -0.2020 -1.9365
  859MOL0     H13383   2.015   1.210   2.670  0.1963 -0.5486  0.6322
  859MOL0     H13384   1.982   1.518   2.632  1.4112 -0.7234  0.5629
  859MOL0     H13385   1.845   1.408   2.654  0.1256 -0.2582 -0.3103
  859MOL0     H13386   1.944   1.572   3.027  2.5896  2.9157 -1.4138
  859MOL0     H13387   2.405   1.301   2.108  1.3878 -0.8367 -1.1714
  859MOL0     H13388   2.570   1.149   1.997 -0.0564 -1.2874 -0.4359
  860MOL0     O13389   2.048   6.642   7.356  0.1948  0.7472  0.1298
  860MOL0     C13390   2.021   6.524   7.364  0.4660  0.0749  0.3461
  860MOL0     O13391   1.968   6.443   7.265  0.4775  0.4812 -0.6204
  860MOL0     C13392   1.922   6.512   7.154  0.4212 -0.6087 -0.0338
  860MOL0     C13393   1.785   6.516   7.133  0.1419  0.0685 -0.0172
  860MOL0     C13394   1.733   6.588   7.029 -0.5925 -0.1204 -0.0137
  860MOL0     C13395   1.818   6.654   6.937  1.1432  1.0057 -0.6726
  860MOL0     O13396   1.762   6.713   6.829 -0.4369 -0.0798 -0.1540
  860MOL0     C13397   1.628   6.696   6.793  0.1837  0.3273  0.4433
  860MOL0     C13398   1.594   6.552   6.743 -0.7258 -1.0478 -0.0821
  860MOL0     C13399   1.674   6.507   6.618  0.8098  0.0520  0.4788
  860MOL0     C13400   1.594   6.373   6.563 -0.1611  0.2718  1.3073
  860MOL0     C13401   1.688   6.282   6.481  0.0016  0.3392 -0.9389
  860MOL0     C13402   1.596   6.165   6.431 -1.1266 -0.4908  0.7308
  860MOL0     C13403   1.660   6.079   6.326 -0.5469 -0.8730 -0.2067
  860MOL0     C13404   1.770   5.987   6.396  1.4763 -0.1022  0.5661
  860MOL0     N13405   1.701   5.896   6.491  0.3655  0.6255  0.5992
  860MOL0     C13406   1.600   5.811   6.468 -0.2357 -0.4456 -0.7885
  860MOL0     C13407   1.573   5.756   6.595 -1.0555 -0.9275  0.2419
  860MOL0     C13408   1.483   5.642   6.643 -0.2213 -0.2698 -1.4671
  860MOL0     C13409   1.336   5.662   6.624 -0.4464 -0.7664 -0.3864
  860MOL0     C13410   1.298   5.646   6.479  0.3228  0.5923  0.5730
  860MOL0     C13411   1.153   5.670   6.459 -0.7913  0.6783 -0.3867
  860MOL0     O13412   1.072   5.568   6.523 -0.5423  0.6499 -0.2843
  860MOL0     C13413   0.937   5.565   6.492  0.2447 -0.7199 -0.0239
  860MOL0     C13414   0.862   5.672   6.446  0.5901 -0.3105 -0.6395
  860MOL0     C13415   0.723   5.660   6.432  0.7272 -0.2258  0.2701
  860MOL0     C13416   0.654   5.545   6.472 -0.9377 -0.3438  1.3259
  860MOL0     C13417   0.512   5.533   6.446  0.2439 -0.4172 -1.0625
  860MOL0     O13418   0.463   5.405   6.450  0.0213 -0.0249  0.0764
  860MOL0     C13419   0.335   5.386   6.410  0.5300  0.3005 -0.2827
  860MOL0     C13420   0.302   5.332   6.285 -0.0461 -0.2781  0.3789
  860MOL0     C13421   0.168   5.310   6.252  1.3028  1.0258  0.2896
  860MOL0     C13422   0.063   5.347   6.339  0.2417 -0.4328  0.4752
  860MOL0     O13423  -0.068   5.336   6.302  0.2521 -0.5526 -0.3871
  860MOL0     C13424  -0.146   5.460   6.326 -0.7742 -0.4284 -0.4895
  860MOL0     C13425  -0.252   5.467   6.223  0.1060  0.4376 -1.6091
  860MOL0     C13426  -0.202   5.460   6.080  0.5262 -0.0257 -0.1622
  860MOL0     C13427  -0.322   5.477   5.984  0.7888  0.1367  0.4050
  860MOL0     C13428  -0.294   5.495   5.842 -0.6695 -0.4538  0.3272
  860MOL0     C13429  -0.236   5.634   5.803 -0.6034 -0.2028  0.2145
  860MOL0     C13430  -0.194   5.640   5.657 -0.5245 -0.2345 -0.0832
  860MOL0     C13431  -0.113   5.765   5.629 -0.1082 -0.2791  0.1518
  860MOL0    Cl13432   0.042   5.744   5.717  0.2002  0.0312  0.1801
  860MOL0     C13433   0.102   5.413   6.454 -0.2434 -0.1938  0.3994
  860MOL0     C13434   0.236   5.430   6.492 -0.0233 -0.3022 -0.4791
  860MOL0     O13435   0.451   5.639   6.415 -0.0105  0.4379 -0.7545
  860MOL0     C13436   0.729   5.445   6.522  0.0060  0.1509 -0.6769
  860MOL0     C13437   0.871   5.451   6.529  0.2840 -0.3071 -0.1339
  860MOL0     N13438   1.652   5.825   6.688 -0.4967 -0.4937  0.1969
  860MOL0     N13439   1.731   5.902   6.621  0.3944  0.4239 -0.2427
  860MOL0     C13440   1.952   6.640   6.953 -0.5621  0.0828  0.1032
  860MOL0     C13441   2.011   6.569   7.063  0.2749 -0.8294 -0.4938
  860MOL0     C13442   2.070   6.467   7.488  0.3914  0.2710 -0.1248
  860MOL0     C13443   2.031   6.334   7.527 -0.7551 -0.5286 -0.2519
  860MOL0     C13444   2.077   6.279   7.651  0.3374  0.5227  0.1648
  860MOL0     C13445   2.143   6.353   7.751  0.5332  0.2516  0.6781
  860MOL0     O13446   2.169   6.311   7.879  0.2754 -0.2580 -0.1820
  860MOL0     C13447   2.198   6.170   7.904 -0.3921  0.0929 -0.0254
  860MOL0     C13448   2.354   6.154   7.943  0.2298  0.6705 -0.1435
  860MOL0     C13449   2.398   6.257   8.043  1.4133  0.5777 -0.6227
  860MOL0     C13450   2.547   6.237   8.056  0.2777  0.8829  0.2569
  860MOL0     C13451   2.614   6.328   8.142  0.3292 -0.0174 -1.2904
  860MOL0     C13452   2.680   6.401   8.217 -0.2024  0.7142 -0.0990
  860MOL0     C13453   2.166   6.488   7.715 -0.0291 -0.5269 -0.5229
  860MOL0     C13454   2.130   6.546   7.591 -0.4782 -0.3868 -0.3495
  860MOL0     H13455   1.736   6.464   7.214  0.9285  1.9062  1.7336
  860MOL0     H13456   1.625   6.590   7.028 -0.6139 -1.1443 -0.4985
  860MOL0     H13457   1.617   6.764   6.708  0.3849 -0.7969 -0.5086
  860MOL0     H13458   1.559   6.730   6.870 -0.0801 -2.6635  1.6870
  860MOL0     H13459   1.488   6.570   6.723  0.0370  1.7178 -2.2867
  860MOL0     H13460   1.615   6.475   6.817  0.8377 -1.6933 -1.1469
  860MOL0     H13461   1.776   6.481   6.645  0.2414 -3.1160 -0.0634
  860MOL0     H13462   1.693   6.588   6.547  2.1688  0.0897  0.8578
  860MOL0     H13463   1.543   6.317   6.641 -2.4511 -1.7954 -1.4605
  860MOL0     H13464   1.513   6.413   6.502  2.9220  0.7898 -2.8785
  860MOL0     H13465   1.768   6.246   6.547 -0.7810  0.0083 -0.1475
  860MOL0     H13466   1.722   6.343   6.397  2.8772  0.5502  0.2767
  860MOL0     H13467   1.506   6.206   6.384  1.0672  3.7863 -0.2059
  860MOL0     H13468   1.562   6.098   6.511  0.7985 -0.5866  1.5110
  860MOL0     H13469   1.583   6.030   6.265 -4.0562  3.2605  0.3852
  860MOL0     H13470   1.714   6.139   6.252 -0.8610 -2.2981 -1.6453
  860MOL0     H13471   1.829   6.050   6.463  1.3718  0.3764  0.2099
  860MOL0     H13472   1.831   5.938   6.320  0.2963 -0.9297  0.1295
  860MOL0     H13473   1.548   5.782   6.377 -1.8123 -1.6458  0.4363
  860MOL0     H13474   1.488   5.637   6.752  1.3989  1.6849 -1.3784
  860MOL0     H13475   1.501   5.543   6.600 -2.3675 -1.8844  1.0810
  860MOL0     H13476   1.312   5.760   6.668  2.0812  0.0495 -0.6417
  860MOL0     H13477   1.272   5.588   6.671 -2.2160  0.4495 -0.7903
  860MOL0     H13478   1.356   5.711   6.412 -0.3048  0.5078 -0.0637
  860MOL0     H13479   1.308   5.541   6.450 -0.8488  1.2921 -2.8082
  860MOL0     H13480   1.132   5.663   6.352  1.7630  1.1402 -0.9748
  860MOL0     H13481   1.132   5.773   6.491  0.0216  0.9072 -0.5719
  860MOL0     H13482   0.904   5.762   6.402  1.8263 -1.8748 -2.9009
  860MOL0     H13483   0.673   5.749   6.397  0.5160 -0.6581 -0.5457
  860MOL0     H13484   0.363   5.289   6.206  0.2742 -0.4233  0.7067
  860MOL0     H13485   0.152   5.256   6.159  0.4788 -0.4555  1.2694
  860MOL0     H13486  -0.076   5.543   6.316 -0.5992 -0.5953 -0.6461
  860MOL0     H13487  -0.196   5.446   6.423  0.3264 -1.0786  0.0041
  860MOL0     H13488  -0.317   5.554   6.239  2.0696  1.4153  2.1239
  860MOL0     H13489  -0.313   5.381   6.252  1.1624  0.3794  0.6234
  860MOL0     H13490  -0.158   5.362   6.060 -0.4372 -0.4571 -0.2393
  860MOL0     H13491  -0.132   5.539   6.052  0.2449 -0.2875 -1.6763
  860MOL0     H13492  -0.381   5.385   5.990 -1.2559  1.2786 -1.0047
  860MOL0     H13493  -0.374   5.571   6.003 -0.7689 -0.1641 -1.8716
  860MOL0     H13494  -0.391   5.478   5.793 -0.1350 -2.8478 -0.0144
  860MOL0     H13495  -0.228   5.414   5.808  0.3650  0.2028  0.7406
  860MOL0     H13496  -0.149   5.654   5.866 -0.0964 -3.0103  0.5517
  860MOL0     H13497  -0.316   5.707   5.820  0.3036  1.6487 -2.8368
  860MOL0     H13498  -0.144   5.547   5.628 -4.5626 -2.5435 -0.4355
  860MOL0     H13499  -0.291   5.642   5.605 -0.2701 -1.4952 -0.6415
  860MOL0     H13500  -0.174   5.849   5.665 -2.3645 -1.5409 -0.5580
  860MOL0     H13501  -0.095   5.792   5.524 -0.1966  0.2861  0.2775
  860MOL0     H13502   0.025   5.453   6.518 -0.1536 -0.0656  0.4286
  860MOL0     H13503   0.273   5.484   6.579  2.9698 -1.5629 -0.8302
  860MOL0     H13504   0.674   5.355   6.548 -1.5834  0.7859 -1.7300
  860MOL0     H13505   0.928   5.366   6.566  0.8609 -0.3986 -1.2179
  860MOL0     H13506   2.014   6.685   6.876  0.7691 -1.1929  0.3730
  860MOL0     H13507   2.118   6.560   7.079  0.8835 -0.1720 -3.6577
  860MOL0     H13508   1.970   6.271   7.463 -0.7848  1.7309 -2.5886
  860MOL0     H13509   2.034   6.180   7.664 -2.9489  1.8423  0.1720
  860MOL0     H13510   2.177   6.103   7.821 -1.1306 -0.1703  0.3662
  860MOL0     H13511   2.137   6.142   7.991  0.5141 -1.6066  0.1023
  860MOL0     H13512   2.366   6.050   7.977 -0.8048  0.2513 -0.9976
  860MOL0     H13513   2.410   6.169   7.850 -1.9480 -1.2479 -1.8871
  860MOL0     H13514   2.359   6.237   8.144  0.0936  4.7447 -0.1005
  860MOL0     H13515   2.378   6.360   8.013 -2.6348 -0.8103 -3.5387
  860MOL0     H13516   2.566   6.140   8.104 -1.8697 -0.0607 -0.6268
  860MOL0     H13517   2.590   6.244   7.956  1.3374  1.3982  0.7361
  860MOL0     H13518   2.733   6.472   8.278 -0.7122 -0.3537  1.6686
  860MOL0     H13519   2.213   6.546   7.794 -1.5042  0.1690 -0.1143
  860MOL0     H13520   2.161   6.647   7.564  0.5362 -1.0575 -1.7970
  861MOL0     O13521   7.462   4.777  10.786  0.5322 -0.2895 -0.4575
  861MOL0     C13522   7.525   4.810  10.684  0.4785 -0.3419  0.7566
  861MOL0     O13523   7.485   4.791  10.559 -0.1515  0.8703  0.1285
  861MOL0     C13524   7.372   4.729  10.525  0.3041  0.6140  0.0625
  861MOL0     C13525   7.335   4.591  10.541  0.5939  0.4118 -0.3576
  861MOL0     C13526   7.203   4.550  10.508 -0.4618 -0.0325  0.5044
  861MOL0     C13527   7.102   4.634  10.463 -0.3766 -0.1223  0.2091
  861MOL0     O13528   6.977   4.583  10.456  0.3022 -0.9371  0.7205
  861MOL0     C13529   6.874   4.680  10.471 -0.0848 -0.1332  1.0943
  861MOL0     C13530   6.738   4.611  10.504 -0.6648 -0.0327 -0.9263
  861MOL0     C13531   6.695   4.508  10.395  0.6924 -0.3615  0.3269
  861MOL0     C13532   6.544   4.472  10.393 -0.2450 -0.3112 -0.8802
  861MOL0     C13533   6.459   4.580  10.318  0.1025  0.5478  0.2374
  861MOL0     C13534   6.340   4.516  10.257 -0.4275 -0.4007 -0.3613
  861MOL0     C13535   6.265   4.621  10.171  0.0333  0.8072 -0.3751
  861MOL0     C13536   6.216   4.751  10.236  0.6164 -0.1009  0.6860
  861MOL0     N13537   6.087   4.728  10.313  0.5266 -0.6133  0.2926
  861MOL0     C13538   6.076   4.666  10.440  0.8195  0.1521  0.2069
  861MOL0     C13539   5.944   4.675  10.471  0.2379  1.0846  0.3315
  861MOL0     C13540   5.874   4.614  10.594 -0.0566 -0.1562  0.4221
  861MOL0     C13541   5.841   4.476  10.560 -0.0963  0.2709  0.2620
  861MOL0     C13542   5.791   4.386  10.674  0.3950 -1.1349  0.3123
  861MOL0     C13543   5.713   4.266  10.618  0.1200 -0.0624  0.3841
  861MOL0     O13544   5.607   4.232  10.701 -0.3940 -0.4718 -0.6120
  861MOL0     C13545   5.492   4.301  10.702 -0.6428 -0.2773 -0.7373
  861MOL0     C13546   5.408   4.265  10.806  0.4576 -0.7665  0.5032
  861MOL0     C13547   5.282   4.323  10.832 -0.5984 -0.4300  0.0030
  861MOL0     C13548   5.231   4.425  10.746  0.3759  0.7010 -0.4983
  861MOL0     C13549   5.097   4.491  10.757  0.0185  0.6770 -0.7725
  861MOL0     O13550   5.017   4.420  10.847 -0.4112 -0.6272  0.2066
  861MOL0     C13551   4.882   4.449  10.854 -0.3142  0.1358  0.3992
  861MOL0     C13552   4.799   4.515  10.764 -0.2264 -0.6104 -0.4847
  861MOL0     C13553   4.665   4.518  10.786 -0.4132 -0.5878  0.8449
  861MOL0     C13554   4.601   4.469  10.896 -0.3298  0.9378  0.1867
  861MOL0     O13555   4.469   4.497  10.905  0.2622 -0.1912 -0.2833
  861MOL0     C13556   4.409   4.479  11.032 -0.1319 -1.0267 -0.2748
  861MOL0     C13557   4.264   4.548  11.033  0.2204  0.2277 -0.7955
  861MOL0     C13558   4.160   4.468  10.954  0.0597  0.5170 -0.3472
  861MOL0     C13559   4.026   4.540  10.977  0.8555 -0.1877  0.5954
  861MOL0     C13560   3.906   4.472  10.921 -0.8743  0.2849  0.1299
  861MOL0     C13561   3.777   4.539  10.969  0.9207 -0.9391  0.0366
  861MOL0     C13562   3.682   4.443  11.046 -0.9648  0.1083 -0.1723
  861MOL0     C13563   3.745   4.402  11.184 -0.3880 -0.8176 -0.2661
  861MOL0    Cl13564   3.626   4.276  11.249 -0.1477 -0.4753  0.4014
  861MOL0     C13565   4.684   4.407  10.990 -0.0788  0.4220 -0.0985
  861MOL0     C13566   4.821   4.395  10.965  0.4143  0.9114 -0.1102
  861MOL0     O13567   5.076   4.598  10.706  0.1152 -0.5382 -0.7715
  861MOL0     C13568   5.320   4.464  10.640 -0.5319  0.1673 -0.2330
  861MOL0     C13569   5.453   4.417  10.625 -0.4041  0.0643 -0.1464
  861MOL0     N13570   5.882   4.762  10.374 -0.6036 -0.2427 -0.6544
  861MOL0     N13571   5.963   4.791  10.286  0.0640  0.3059 -0.7125
  861MOL0     C13572   7.138   4.774  10.444 -0.0231  0.4306 -0.3838
  861MOL0     C13573   7.270   4.821  10.475 -0.3876  0.0962 -0.3816
  861MOL0     C13574   7.644   4.909  10.692  0.5534  0.0334 -0.4949
  861MOL0     C13575   7.718   4.945  10.578 -1.0578 -0.1477 -0.9377
  861MOL0     C13576   7.844   5.009  10.578 -0.1744 -0.5959 -0.5779
  861MOL0     C13577   7.896   5.033  10.707 -0.3210  0.5481 -0.9261
  861MOL0     O13578   8.017   5.098  10.723  0.3829  0.6576 -0.2500
  861MOL0     C13579   8.128   5.012  10.677 -0.1891 -1.1304  0.0646
  861MOL0     C13580   8.244   5.032  10.780  0.8184 -0.5161  0.2211
  861MOL0     C13581   8.357   4.936  10.761 -0.0806  0.2405 -0.6694
  861MOL0     C13582   8.453   4.930  10.883  0.6989  0.1699  0.2984
  861MOL0     C13583   8.584   4.871  10.844 -1.4741 -0.4149  0.2050
  861MOL0     C13584   8.693   4.811  10.830 -0.2661  0.4423 -0.2063
  861MOL0     C13585   7.815   5.009  10.819 -0.4214 -0.8034 -0.7712
  861MOL0     C13586   7.686   4.948  10.811 -0.1502 -0.9509  0.2295
  861MOL0     H13587   7.413   4.526  10.579 -0.0928 -0.3613 -0.2505
  861MOL0     H13588   7.181   4.447  10.535 -0.5045  0.3131  1.8197
  861MOL0     H13589   6.861   4.731  10.375  1.3026  1.8252  1.9063
  861MOL0     H13590   6.889   4.760  10.544 -1.7830  0.9131  0.3508
  861MOL0     H13591   6.665   4.693  10.509 -0.3157  0.4118 -2.5180
  861MOL0     H13592   6.742   4.572  10.606 -1.1425  3.8961  0.8058
  861MOL0     H13593   6.749   4.413  10.406 -0.1963 -1.0616 -1.0095
  861MOL0     H13594   6.722   4.556  10.300  1.3649  3.8334  2.4207
  861MOL0     H13595   6.527   4.373  10.349  0.6870 -1.3034  0.9008
  861MOL0     H13596   6.522   4.461  10.499  1.1283  2.5318 -0.2028
  861MOL0     H13597   6.524   4.642  10.256  0.3707  0.9694  0.9355
  861MOL0     H13598   6.425   4.647  10.397 -0.9841 -0.6757  0.8578
  861MOL0     H13599   6.275   4.482  10.338  3.1606 -2.8347  1.8150
  861MOL0     H13600   6.370   4.422  10.208  0.9828 -0.3841  0.3987
  861MOL0     H13601   6.332   4.653  10.091  3.4036  0.6875  2.1841
  861MOL0     H13602   6.183   4.571  10.119 -0.0858  1.3590 -0.7268
  861MOL0     H13603   6.191   4.823  10.157 -3.4041 -2.1199 -0.1335
  861MOL0     H13604   6.289   4.797  10.303  1.8039 -1.7018  0.5507
  861MOL0     H13605   6.148   4.597  10.483  0.4547 -1.1430 -1.1590
  861MOL0     H13606   5.779   4.665  10.614 -0.2232 -1.2974  2.9675
  861MOL0     H13607   5.945   4.613  10.678  1.7460 -1.4085 -1.0282
  861MOL0     H13608   5.923   4.427  10.506  0.6940 -2.8625  3.8740
  861MOL0     H13609   5.756   4.473  10.490  1.0587  0.5210 -1.1891
  861MOL0     H13610   5.877   4.356  10.735  1.9857  2.7233  0.2736
  861MOL0     H13611   5.728   4.452  10.734  1.9954  1.1538 -0.3738
  861MOL0     H13612   5.785   4.184  10.613  0.9058  0.6730 -1.0725
  861MOL0     H13613   5.677   4.286  10.517  2.1774  3.9972  0.2342
  861MOL0     H13614   5.451   4.197  10.879  0.9601 -0.0871  0.8499
  861MOL0     H13615   5.226   4.291  10.919 -2.7853  1.0850 -0.7623
  861MOL0     H13616   4.834   4.559  10.671  0.4519 -1.1289 -0.4863
  861MOL0     H13617   4.600   4.573  10.719  1.5372 -0.8818 -1.4522
  861MOL0     H13618   4.469   4.532  11.106  0.2559  0.4238 -1.5825
  861MOL0     H13619   4.398   4.378  11.074 -3.4631  0.8030  4.0445
  861MOL0     H13620   4.271   4.645  10.984 -1.5385  0.9100  0.2207
  861MOL0     H13621   4.235   4.551  11.138 -0.1692 -0.7234 -0.8567
  861MOL0     H13622   4.158   4.365  10.991 -0.5076  1.2338  1.7137
  861MOL0     H13623   4.189   4.475  10.848  0.4555 -1.3187 -0.3983
  861MOL0     H13624   4.006   4.559  11.083 -0.2871 -3.0584  0.9993
  861MOL0     H13625   4.036   4.639  10.931  2.6479  0.1589  1.6010
  861MOL0     H13626   3.898   4.366  10.945 -2.5813  0.5899  1.0717
  861MOL0     H13627   3.907   4.487  10.812 -0.1239 -0.1532  0.0763
  861MOL0     H13628   3.729   4.573  10.877  2.6499 -1.3204 -1.0665
  861MOL0     H13629   3.791   4.627  11.033 -2.2576 -1.3627  1.4925
  861MOL0     H13630   3.579   4.471  11.073 -0.1260  1.2553  2.0640
  861MOL0     H13631   3.680   4.348  10.992  1.6201 -0.7435  1.0626
  861MOL0     H13632   3.746   4.486  11.254  1.0227 -0.1172 -1.0527
  861MOL0     H13633   3.849   4.367  11.177  0.4821  1.2254  1.5650
  861MOL0     H13634   4.649   4.361  11.082  1.2788  0.8595  0.6695
  861MOL0     H13635   4.895   4.348  11.030  1.7492  1.9226 -0.8400
  861MOL0     H13636   5.297   4.545  10.571  1.7319 -0.7377 -2.1677
  861MOL0     H13637   5.513   4.459  10.545  0.9530  0.2981  0.9538
  861MOL0     H13638   7.072   4.852  10.409 -1.6926 -0.0412  1.5409
  861MOL0     H13639   7.296   4.926  10.464 -1.5973  0.3957 -0.5537
  861MOL0     H13640   7.669   4.916  10.485  0.2300 -0.1215 -1.6442
  861MOL0     H13641   7.910   5.035  10.496  4.3363  0.5119  2.9982
  861MOL0     H13642   8.164   5.035  10.577 -1.1509  1.0117  0.1548
  861MOL0     H13643   8.101   4.906  10.677  1.1631 -1.4987  0.2040
  861MOL0     H13644   8.279   5.136  10.771 -0.8213  0.1486  1.0699
  861MOL0     H13645   8.208   5.007  10.880 -3.0533  0.4960 -0.7308
  861MOL0     H13646   8.410   4.964  10.669  0.5139  1.8924  0.1503
  861MOL0     H13647   8.310   4.837  10.753 -0.9952  0.5304  0.9120
  861MOL0     H13648   8.469   5.033  10.916  0.5174  0.7140 -1.2262
  861MOL0     H13649   8.397   4.871  10.956 -2.7868 -1.3822 -3.2188
  861MOL0     H13650   8.783   4.754  10.819 -0.8730 -0.4859 -0.4444
  861MOL0     H13651   7.851   5.032  10.919 -2.3550  2.0574 -0.6261
  861MOL0     H13652   7.641   4.930  10.908  2.0964  2.2940  2.0404
  862MOL0     O13653   2.024   2.143   8.239  0.1571 -0.1757  0.3616
  862MOL0     C13654   2.053   2.192   8.347 -0.1277  0.1063 -0.1336
  862MOL0     O13655   1.958   2.234   8.434 -0.0791  0.1586 -0.7024
  862MOL0     C13656   1.821   2.199   8.417 -1.3125  0.4923  0.1516
  862MOL0     C13657   1.763   2.080   8.363  0.7728  0.1331  0.5718
  862MOL0     C13658   1.627   2.069   8.339  0.2568 -0.1244 -0.4611
  862MOL0     C13659   1.540   2.170   8.379 -0.2367  0.6702 -0.0358
  862MOL0     O13660   1.408   2.183   8.338  0.6341 -0.5237 -0.2020
  862MOL0     C13661   1.347   2.070   8.284 -0.3225  0.3918 -0.1126
  862MOL0     C13662   1.204   2.110   8.248 -0.0399 -1.1973  0.4199
  862MOL0     C13663   1.195   2.251   8.180  0.0646  0.0791  0.4957
  862MOL0     C13664   1.262   2.258   8.045 -0.6614  0.2571  0.5342
  862MOL0     C13665   1.279   2.398   7.985 -1.2808 -0.1895  0.3831
  862MOL0     C13666   1.144   2.460   7.968 -0.0277  0.7109  0.3084
  862MOL0     C13667   1.141   2.595   7.887  0.0145  0.3767  0.6370
  862MOL0     C13668   1.011   2.676   7.841 -0.4047 -0.5363  0.5316
  862MOL0     N13669   0.929   2.715   7.958 -0.2188 -0.7739  0.3957
  862MOL0     C13670   0.883   2.845   7.979 -0.4373  0.3010  0.1447
  862MOL0     C13671   0.775   2.834   8.056  0.0782 -0.6732 -0.4270
  862MOL0     C13672   0.710   2.942   8.136 -0.1099 -0.2733  0.2515
  862MOL0     C13673   0.759   3.085   8.097 -0.1995  0.2823 -0.4717
  862MOL0     C13674   0.698   3.203   8.175 -0.7817 -0.1373  0.4113
  862MOL0     C13675   0.554   3.210   8.146 -0.6196  0.5785  0.5417
  862MOL0     O13676   0.493   3.333   8.195 -0.7090 -0.3740  0.1428
  862MOL0     C13677   0.357   3.332   8.214 -0.3336  0.9481 -0.1307
  862MOL0     C13678   0.267   3.220   8.208 -0.8741 -0.5505  0.1268
  862MOL0     C13679   0.133   3.229   8.236 -0.6094  0.2776 -0.1692
  862MOL0     C13680   0.074   3.348   8.255  0.0757 -0.3260  0.1536
  862MOL0     C13681  -0.063   3.349   8.276 -0.1489 -0.0358 -0.3466
  862MOL0     O13682  -0.134   3.271   8.194  0.5839  0.4009  0.6750
  862MOL0     C13683  -0.264   3.290   8.221  0.3755 -0.1353 -0.3116
  862MOL0     C13684  -0.332   3.391   8.153 -0.2701  0.6919 -0.7765
  862MOL0     C13685  -0.469   3.410   8.175  0.0663  0.0519  0.3704
  862MOL0     C13686  -0.546   3.321   8.254  0.5317  0.7104 -0.4500
  862MOL0     O13687  -0.686   3.343   8.264  0.1350 -0.8404 -0.1955
  862MOL0     C13688  -0.748   3.246   8.353 -0.0379  1.4775 -0.9774
  862MOL0     C13689  -0.903   3.240   8.315  0.4614 -0.4455 -0.1788
  862MOL0     C13690  -1.007   3.244   8.420  0.3107 -0.1411 -0.6024
  862MOL0     C13691  -1.146   3.207   8.373 -0.5389 -0.3012 -0.1588
  862MOL0     C13692  -1.251   3.200   8.493  0.3422  0.0493  0.4363
  862MOL0     C13693  -1.396   3.204   8.427 -0.5835 -0.0750 -0.5005
  862MOL0     C13694  -1.492   3.194   8.551  0.3270  0.1348 -0.2933
  862MOL0     C13695  -1.620   3.268   8.513  0.8648 -0.3116 -0.7108
  862MOL0    Cl13696  -1.647   3.442   8.563  0.2166 -0.0832  0.1443
  862MOL0     C13697  -0.472   3.215   8.300  0.0321 -0.3448 -0.8748
  862MOL0     C13698  -0.333   3.198   8.292  0.1793 -0.1365 -0.4807
  862MOL0     O13699  -0.101   3.433   8.354  0.1801 -0.1017  0.2672
  862MOL0     C13700   0.156   3.465   8.257  0.1700  0.4875 -0.3146
  862MOL0     C13701   0.297   3.452   8.241  0.5120 -0.1691  0.1686
  862MOL0     N13702   0.758   2.699   8.080  0.8149 -0.4062 -0.5337
  862MOL0     N13703   0.850   2.629   8.019  0.0786 -0.3073 -1.2198
  862MOL0     C13704   1.586   2.271   8.447 -1.5331 -0.9021  0.6626
  862MOL0     C13705   1.726   2.286   8.462 -0.5050 -0.2850 -0.0046
  862MOL0     C13706   2.191   2.195   8.387  0.7484  0.1794 -0.6718
  862MOL0     C13707   2.227   2.251   8.510  1.0886  0.1813 -0.0301
  862MOL0     C13708   2.357   2.253   8.559 -0.4258  0.0836  0.2472
  862MOL0     C13709   2.461   2.201   8.481 -0.0022  0.3956 -1.0671
  862MOL0     O13710   2.586   2.196   8.525 -0.2524 -0.8204  0.2601
  862MOL0     C13711   2.695   2.260   8.454  0.2623 -0.0029  0.7010
  862MOL0     C13712   2.757   2.145   8.365 -1.0589 -0.0406 -0.2773
  862MOL0     C13713   2.912   2.169   8.346 -0.2414  0.0279 -0.3212
  862MOL0     C13714   2.932   2.302   8.274 -0.4196 -0.0061  0.0924
  862MOL0     C13715   2.929   2.428   8.347  1.2771 -0.4023  0.0214
  862MOL0     C13716   2.939   2.534   8.410  0.1919 -0.1190  0.3977
  862MOL0     C13717   2.419   2.141   8.358  0.6564  0.2084 -0.4636
  862MOL0     C13718   2.291   2.138   8.306  0.6415  0.2271  0.8583
  862MOL0     H13719   1.821   1.991   8.341  3.4886  2.2379 -1.2896
  862MOL0     H13720   1.594   1.982   8.283  0.9245 -0.8229  0.1963
  862MOL0     H13721   1.346   1.982   8.349 -0.7490  0.4445 -0.0425
  862MOL0     H13722   1.398   2.034   8.194  2.5539 -1.2811  1.9996
  862MOL0     H13723   1.157   2.097   8.346  3.7142 -5.3987  1.9819
  862MOL0     H13724   1.170   2.043   8.168 -1.2445 -0.4201  0.2519
  862MOL0     H13725   1.233   2.325   8.251  0.3318 -0.9737  1.4923
  862MOL0     H13726   1.090   2.279   8.167  0.1987 -0.1608 -1.3664
  862MOL0     H13727   1.362   2.215   8.056  0.4498  2.8841  1.4403
  862MOL0     H13728   1.210   2.191   7.976 -1.5693  0.2526  1.2155
  862MOL0     H13729   1.315   2.391   7.881 -1.3811 -0.0220  0.3372
  862MOL0     H13730   1.340   2.467   8.044 -0.0765  1.3596 -2.4364
  862MOL0     H13731   1.109   2.484   8.069  1.3764  0.3394  0.9188
  862MOL0     H13732   1.080   2.381   7.929  0.3861  0.4992  0.0503
  862MOL0     H13733   1.201   2.666   7.945  1.9219  1.7892 -2.7006
  862MOL0     H13734   1.199   2.572   7.797  2.7485 -0.4355  2.4692
  862MOL0     H13735   0.947   2.614   7.778 -0.8644  0.6387 -0.2043
  862MOL0     H13736   1.034   2.765   7.781 -1.3001 -1.0720 -0.6368
  862MOL0     H13737   0.927   2.938   7.942 -1.4606  0.6061 -0.3242
  862MOL0     H13738   0.722   2.936   8.244  0.5347 -0.0771  0.1913
  862MOL0     H13739   0.601   2.942   8.124 -0.1942  2.1125  0.5177
  862MOL0     H13740   0.749   3.088   7.988  1.0800 -0.6935 -0.6359
  862MOL0     H13741   0.864   3.074   8.126 -0.9955 -0.1584  2.6685
  862MOL0     H13742   0.718   3.194   8.282  0.1379  1.0067  0.3581
  862MOL0     H13743   0.749   3.292   8.138  0.3285 -1.1625 -0.6141
  862MOL0     H13744   0.525   3.118   8.198  2.7839 -1.9740 -1.7105
  862MOL0     H13745   0.525   3.202   8.041 -0.0950  3.9254  0.0069
  862MOL0     H13746   0.310   3.124   8.184  3.5019  1.2996 -0.3932
  862MOL0     H13747   0.074   3.139   8.248  0.7823 -0.4591  1.8085
  862MOL0     H13748  -0.274   3.460   8.093 -2.1074  1.0840 -2.2072
  862MOL0     H13749  -0.525   3.497   8.144 -2.0192 -1.1943  0.3949
  862MOL0     H13750  -0.737   3.268   8.459 -1.4738  0.8402 -0.6629
  862MOL0     H13751  -0.710   3.144   8.344 -0.8291  1.2570 -2.0109
  862MOL0     H13752  -0.905   3.144   8.262 -0.6974 -1.8063  2.1804
  862MOL0     H13753  -0.927   3.316   8.241  2.2556  0.5627  0.2024
  862MOL0     H13754  -1.010   3.348   8.455  2.5493  1.0708 -3.5290
  862MOL0     H13755  -0.963   3.190   8.504  0.7172 -0.2264 -0.8645
  862MOL0     H13756  -1.189   3.273   8.297 -0.0494  2.4880  1.8409
  862MOL0     H13757  -1.122   3.112   8.322  3.8322  0.5570 -0.1050
  862MOL0     H13758  -1.237   3.290   8.555  2.9873 -1.1843  1.7785
  862MOL0     H13759  -1.238   3.115   8.560  0.8291 -0.1578  0.0850
  862MOL0     H13760  -1.407   3.111   8.370  0.1076 -1.3056  1.2625
  862MOL0     H13761  -1.406   3.290   8.361  3.6020  1.2184  0.2404
  862MOL0     H13762  -1.497   3.087   8.575 -3.6399  0.5490  1.5366
  862MOL0     H13763  -1.452   3.240   8.641 -2.4556  1.4391  0.3887
  862MOL0     H13764  -1.686   3.216   8.584  1.0341  3.1376  2.3091
  862MOL0     H13765  -1.642   3.250   8.408  0.6347  2.8712 -1.3222
  862MOL0     H13766  -0.522   3.130   8.346 -0.1047 -0.0460 -0.4656
  862MOL0     H13767  -0.287   3.114   8.343  0.0747  0.0426 -0.0897
  862MOL0     H13768   0.103   3.558   8.268  1.2189  0.9008  1.8765
  862MOL0     H13769   0.349   3.547   8.248 -0.6542  0.5454 -0.5864
  862MOL0     H13770   1.513   2.341   8.487 -2.4533 -1.6075  0.2422
  862MOL0     H13771   1.756   2.380   8.507 -2.2863  1.0321 -1.4137
  862MOL0     H13772   2.165   2.306   8.581  2.4202  3.6601 -1.3536
  862MOL0     H13773   2.368   2.294   8.659 -1.5738  0.5519  0.1975
  862MOL0     H13774   2.767   2.293   8.531 -0.1729 -1.8421  1.9630
  862MOL0     H13775   2.671   2.345   8.390  0.7076 -1.5718 -1.6554
  862MOL0     H13776   2.744   2.048   8.414 -2.7308  1.1446  1.7567
  862MOL0     H13777   2.702   2.142   8.270 -1.4147 -2.9897 -0.0631
  862MOL0     H13778   2.951   2.088   8.284 -0.4832  0.2836 -0.8174
  862MOL0     H13779   2.961   2.167   8.444  2.5855 -0.1984 -1.6665
  862MOL0     H13780   3.023   2.301   8.214  2.2590 -1.8888  3.7420
  862MOL0     H13781   2.844   2.309   8.209 -0.1665 -1.8771 -0.5186
  862MOL0     H13782   2.943   2.621   8.473 -3.2002  1.2691 -1.0192
  862MOL0     H13783   2.499   2.103   8.295  1.0242  0.4590 -0.1535
  862MOL0     H13784   2.284   2.079   8.215  2.9409 -1.5935  1.7552
  863MOL0     O13785   7.438   5.217   9.328  0.0095  0.3554  0.1030
  863MOL0     C13786   7.422   5.198   9.447 -0.2958  0.1143 -0.3309
  863MOL0     O13787   7.462   5.284   9.543 -0.0318 -0.2596 -0.2511
  863MOL0     C13788   7.544   5.381   9.491 -0.6467 -0.4804 -0.0718
  863MOL0     C13789   7.690   5.355   9.480  0.7916 -0.0635 -0.5591
  863MOL0     C13790   7.772   5.457   9.426  0.4378 -0.9484  0.5781
  863MOL0     C13791   7.705   5.566   9.359 -0.0098 -0.2088 -0.7315
  863MOL0     O13792   7.772   5.654   9.287 -0.3180 -0.1160 -0.0153
  863MOL0     C13793   7.813   5.605   9.158  0.3535 -0.9443  0.1063
  863MOL0     C13794   7.699   5.558   9.080  0.8663  0.0474  0.0926
  863MOL0     C13795   7.594   5.667   9.040  0.6789  1.3066  0.0848
  863MOL0     C13796   7.494   5.625   8.929 -0.6108  0.2370  0.5010
  863MOL0     C13797   7.399   5.519   8.967 -0.0374  0.1227  0.2051
  863MOL0     C13798   7.299   5.492   8.849  1.1400  0.7697  0.6659
  863MOL0     C13799   7.170   5.422   8.892  0.3065 -0.3045 -0.3765
  863MOL0     C13800   7.180   5.288   8.967 -0.1151 -0.6841 -0.4399
  863MOL0     N13801   7.046   5.223   8.980  0.4553 -0.6973  0.2171
  863MOL0     C13802   6.932   5.277   8.938  0.5415 -0.4730 -0.1065
  863MOL0     C13803   6.831   5.188   8.973 -1.0645  0.0561  0.5330
  863MOL0     C13804   6.697   5.196   8.919  1.2883  0.3991  0.4778
  863MOL0     C13805   6.674   5.079   8.813  0.3584  0.2632  0.3505
  863MOL0     C13806   6.610   5.112   8.682  0.6507  0.2539  0.7677
  863MOL0     C13807   6.458   5.136   8.693  0.3800 -0.6842  0.5959
  863MOL0     O13808   6.405   5.012   8.727 -0.4063 -0.0702 -0.7662
  863MOL0     C13809   6.272   4.978   8.724  1.0205  1.5414 -0.1435
  863MOL0     C13810   6.169   5.064   8.667  0.0719  0.0573 -0.7393
  863MOL0     C13811   6.038   5.026   8.667 -0.1866 -0.5864 -0.2482
  863MOL0     C13812   6.010   4.888   8.699 -0.0743 -0.0492  0.9193
  863MOL0     C13813   5.865   4.832   8.702  0.6445 -0.5876  0.4915
  863MOL0     O13814   5.839   4.709   8.778 -0.4984 -0.2412  0.1002
  863MOL0     C13815   5.706   4.670   8.803 -0.1577 -0.7287  0.2312
  863MOL0     C13816   5.687   4.535   8.789  0.2141 -0.6560  0.4676
  863MOL0     C13817   5.569   4.466   8.819 -0.1066  0.6151  0.7272
  863MOL0     C13818   5.465   4.553   8.862  0.5900 -0.5031  0.6476
  863MOL0     O13819   5.337   4.517   8.892  0.4349  0.4293 -0.1631
  863MOL0     C13820   5.305   4.376   8.882  0.1991  0.2089 -0.2593
  863MOL0     C13821   5.161   4.367   8.952 -1.4061  0.1753 -0.4128
  863MOL0     C13822   5.091   4.233   8.916  0.2624 -0.6625  0.0853
  863MOL0     C13823   5.055   4.143   9.028  0.3178  0.3502 -0.3168
  863MOL0     C13824   4.939   4.200   9.117  0.1379 -0.2390  0.2714
  863MOL0     C13825   4.936   4.130   9.258 -0.0448  0.4517  0.4917
  863MOL0     C13826   4.839   4.210   9.352 -0.1547  0.8085  0.5027
  863MOL0     C13827   4.696   4.218   9.305  0.5168  0.2936 -0.6466
  863MOL0    Cl13828   4.615   4.049   9.284 -0.2985  0.4976  0.1344
  863MOL0     C13829   5.480   4.693   8.864  0.9901 -0.0749  0.4013
  863MOL0     C13830   5.604   4.758   8.846  0.5052 -0.3846  0.0613
  863MOL0     O13831   5.778   4.908   8.660 -0.0705  0.3816 -0.0698
  863MOL0     C13832   6.108   4.800   8.751  0.4266  0.3431  0.7403
  863MOL0     C13833   6.233   4.854   8.773 -0.1672  0.0722  0.2215
  863MOL0     N13834   6.897   5.091   9.050  0.1227  0.3709 -0.3428
  863MOL0     N13835   7.024   5.118   9.059  0.3242  0.6399  0.9851
  863MOL0     C13836   7.571   5.596   9.377 -0.0456 -0.2336  0.3566
  863MOL0     C13837   7.494   5.499   9.443  0.4663  1.3555 -1.0580
  863MOL0     C13838   7.341   5.083   9.507  0.7276 -0.8493  0.3538
  863MOL0     C13839   7.258   5.016   9.419  1.3386 -0.2617 -0.3071
  863MOL0     C13840   7.151   4.927   9.460 -0.3817  0.1530 -0.5444
  863MOL0     C13841   7.132   4.910   9.596 -0.0963  0.0776  0.6684
  863MOL0     O13842   7.055   4.809   9.641 -0.4652  0.7305  0.3089
  863MOL0     C13843   6.925   4.796   9.590  0.1286 -0.4137  0.4180
  863MOL0     C13844   6.866   4.678   9.666  0.0737 -0.5704  0.4362
  863MOL0     C13845   6.718   4.668   9.641 -0.8396 -0.1529 -0.5711
  863MOL0     C13846   6.656   4.576   9.748  0.8536  0.9708 -0.7198
  863MOL0     C13847   6.503   4.579   9.742  0.5661 -0.6337  0.1962
  863MOL0     C13848   6.383   4.600   9.757 -0.2713 -0.4127  0.9471
  863MOL0     C13849   7.221   4.977   9.680  0.3317 -0.4961  0.1553
  863MOL0     C13850   7.323   5.064   9.643 -0.1700  0.3524 -0.4092
  863MOL0     H13851   7.731   5.263   9.518  2.0719  0.0308 -1.6635
  863MOL0     H13852   7.879   5.450   9.415  0.4570 -0.0055  0.0348
  863MOL0     H13853   7.892   5.531   9.177  1.7226  0.8825  1.9565
  863MOL0     H13854   7.857   5.685   9.097 -1.0190 -0.6087 -0.4749
  863MOL0     H13855   7.650   5.473   9.128  1.4720 -0.0952  0.4661
  863MOL0     H13856   7.755   5.513   8.997 -0.0885 -2.2455  0.6279
  863MOL0     H13857   7.639   5.761   9.009 -0.8526  1.5436 -1.5800
  863MOL0     H13858   7.547   5.695   9.134  1.4303  2.7653  0.0425
  863MOL0     H13859   7.430   5.710   8.906 -0.9855 -0.3751 -0.8056
  863MOL0     H13860   7.552   5.594   8.841 -1.9401 -1.8027  0.2934
  863MOL0     H13861   7.351   5.545   9.062  0.7387  2.1620  0.0749
  863MOL0     H13862   7.459   5.428   8.973 -1.3231 -0.7928 -0.2110
  863MOL0     H13863   7.354   5.445   8.767 -0.6703  1.7041 -1.1714
  863MOL0     H13864   7.269   5.587   8.805  2.0675  0.4502 -0.7258
  863MOL0     H13865   7.108   5.490   8.951  0.0390  0.7221 -1.7900
  863MOL0     H13866   7.115   5.403   8.799  0.7484 -0.9112 -0.5251
  863MOL0     H13867   7.220   5.303   9.068 -0.6189  1.3011 -0.4903
  863MOL0     H13868   7.247   5.220   8.913 -0.3258  0.1656 -1.8202
  863MOL0     H13869   6.917   5.370   8.884  0.5033 -0.0988  0.5510
  863MOL0     H13870   6.659   5.293   8.884 -3.0301 -1.3527 -0.4037
  863MOL0     H13871   6.627   5.167   8.998 -1.3817 -2.5735 -2.6222
  863MOL0     H13872   6.613   5.006   8.867  1.0492 -0.8483 -0.3399
  863MOL0     H13873   6.769   5.033   8.786  0.9752 -0.8836  3.9736
  863MOL0     H13874   6.656   5.203   8.643  1.8163 -1.1574 -1.3817
  863MOL0     H13875   6.635   5.032   8.611  0.7666  0.7254  0.2751
  863MOL0     H13876   6.422   5.170   8.595  2.3215  1.9741  0.7098
  863MOL0     H13877   6.429   5.202   8.775  0.0456 -0.4996  0.3314
  863MOL0     H13878   6.196   5.159   8.622 -1.6152  0.7514 -0.3599
  863MOL0     H13879   5.969   5.102   8.633 -0.3915 -0.9712 -0.7099
  863MOL0     H13880   5.775   4.480   8.755 -0.0225 -2.4241  2.5021
  863MOL0     H13881   5.548   4.360   8.809 -0.8572  0.9520 -1.9937
  863MOL0     H13882   5.380   4.316   8.934 -2.8840  0.1210  4.7511
  863MOL0     H13883   5.288   4.339   8.781 -2.2903 -0.8713  0.4727
  863MOL0     H13884   5.102   4.455   8.921  0.3369  2.1976  1.6417
  863MOL0     H13885   5.185   4.367   9.059 -0.6416 -1.2272 -0.5747
  863MOL0     H13886   5.165   4.183   8.854  0.5113  0.5551 -0.6362
  863MOL0     H13887   5.003   4.246   8.852  0.5806 -3.0477 -0.9449
  863MOL0     H13888   5.022   4.046   8.991 -2.7745  1.7961 -1.6672
  863MOL0     H13889   5.136   4.123   9.098 -0.3060  0.3833  0.4166
  863MOL0     H13890   4.843   4.194   9.064  0.0250  1.7660  0.1646
  863MOL0     H13891   4.949   4.308   9.132 -4.3173  0.2160  1.3319
  863MOL0     H13892   5.036   4.119   9.301 -0.3276  2.4414  1.8089
  863MOL0     H13893   4.888   4.033   9.245  0.6531 -0.2063  2.4201
  863MOL0     H13894   4.841   4.175   9.456 -2.9040  2.4337  1.2274
  863MOL0     H13895   4.884   4.310   9.354 -0.0431  0.9025 -2.4497
  863MOL0     H13896   4.691   4.274   9.211 -1.8876  1.1746 -0.0714
  863MOL0     H13897   4.643   4.288   9.370  1.1277  0.1407  0.0219
  863MOL0     H13898   5.398   4.757   8.894  2.3068  2.2984 -0.8228
  863MOL0     H13899   5.624   4.864   8.861  1.6796 -0.1378 -2.7271
  863MOL0     H13900   6.095   4.696   8.780 -0.4866  0.3469  0.3762
  863MOL0     H13901   6.297   4.777   8.815  0.4536 -0.0785 -0.9585
  863MOL0     H13902   7.525   5.688   9.342 -4.3366 -1.6429  1.6946
  863MOL0     H13903   7.389   5.514   9.464  0.0538 -3.4883  1.9120
  863MOL0     H13904   7.265   5.025   9.312 -0.1810  3.0285 -0.2354
  863MOL0     H13905   7.089   4.882   9.383 -2.6837  1.4473  0.4544
  863MOL0     H13906   6.933   4.760   9.487 -0.3584 -4.2724  1.5640
  863MOL0     H13907   6.877   4.894   9.601  1.1035 -0.0591  1.7653
  863MOL0     H13908   6.911   4.588   9.623 -0.3189 -1.0031  0.9232
  863MOL0     H13909   6.903   4.690   9.768  0.4067  0.9412  0.1662
  863MOL0     H13910   6.697   4.628   9.541  0.3798 -1.7975 -0.2139
  863MOL0     H13911   6.681   4.771   9.648  1.9079  0.7915  2.4497
  863MOL0     H13912   6.688   4.472   9.745 -0.0393  0.6238  0.7704
  863MOL0     H13913   6.683   4.612   9.848 -1.7727 -1.1905  0.9005
  863MOL0     H13914   6.277   4.603   9.766 -0.4357 -0.1749 -0.7853
  863MOL0     H13915   7.213   4.949   9.784 -0.0182 -0.6778  0.0816
  863MOL0     H13916   7.390   5.112   9.714 -0.6732  1.4913 -0.6960
  864MOL0     O13917   0.405   5.928   9.269 -0.6611 -0.1007  0.5893
  864MOL0     C13918   0.485   5.937   9.174  0.5198  0.0306 -0.0090
  864MOL0     O13919   0.447   5.922   9.041  0.3396 -0.1288 -0.4120
  864MOL0     C13920   0.325   5.954   8.989  0.2980 -0.5500 -0.0328
  864MOL0     C13921   0.294   5.894   8.868  0.0049  0.3382  0.4395
  864MOL0     C13922   0.167   5.922   8.811 -1.4387  1.1405 -0.6599
  864MOL0     C13923   0.075   6.006   8.873  1.1110  0.0171 -0.0287
  864MOL0     O13924  -0.042   6.022   8.813  0.2377 -0.0920  0.3499
  864MOL0     C13925  -0.155   5.962   8.871 -1.1577 -0.7845 -0.4714
  864MOL0     C13926  -0.242   5.871   8.782 -0.1660 -0.7523 -0.0688
  864MOL0     C13927  -0.336   5.952   8.693 -0.2463 -0.0925  0.1959
  864MOL0     C13928  -0.418   5.861   8.593  0.0075  0.2406  0.2835
  864MOL0     C13929  -0.533   5.777   8.667 -0.4036 -0.1504 -0.1779
  864MOL0     C13930  -0.604   5.696   8.557  0.8401 -0.7538  0.4247
  864MOL0     C13931  -0.731   5.771   8.511 -0.2115  0.5158 -0.3400
  864MOL0     C13932  -0.818   5.681   8.422 -1.0368 -0.0075 -0.4357
  864MOL0     N13933  -0.928   5.757   8.362  0.5096 -0.6084 -0.1928
  864MOL0     C13934  -1.023   5.809   8.442 -0.1565 -0.2429 -0.4690
  864MOL0     C13935  -1.110   5.877   8.363  0.5690 -0.0016  0.3013
  864MOL0     C13936  -1.216   5.974   8.400 -0.5200 -0.4879  0.3911
  864MOL0     C13937  -1.315   5.981   8.280  0.6838 -0.8154  0.4919
  864MOL0     C13938  -1.432   6.083   8.324  0.1225 -0.0130  0.7818
  864MOL0     C13939  -1.531   6.102   8.213  0.1092 -0.6594 -0.7798
  864MOL0     O13940  -1.588   5.983   8.160 -0.0987 -1.3216  1.0316
  864MOL0     C13941  -1.723   5.984   8.122 -0.2773 -0.0764 -0.0642
  864MOL0     C13942  -1.804   5.874   8.152 -0.3198  0.0121  0.2186
  864MOL0     C13943  -1.944   5.879   8.139  0.1565 -0.5500  0.0249
  864MOL0     C13944  -1.997   5.996   8.088  1.4233 -1.1745  1.1378
  864MOL0     C13945  -2.145   5.995   8.067  0.4576 -0.2826 -0.5762
  864MOL0     O13946  -2.200   6.099   8.008 -0.3397  0.5417 -0.7343
  864MOL0     C13947  -2.332   6.129   8.027  0.5194  0.4084 -0.4652
  864MOL0     C13948  -2.409   6.122   7.914  0.2085 -0.0446  0.0572
  864MOL0     C13949  -2.546   6.141   7.911  0.5830  0.0853 -1.0236
  864MOL0     C13950  -2.608   6.174   8.029  0.7721 -0.1503  0.0132
  864MOL0     O13951  -2.745   6.201   8.020  0.8079  0.6104 -0.8279
  864MOL0     C13952  -2.806   6.267   8.128 -1.0195  0.2572  0.0715
  864MOL0     C13953  -2.950   6.308   8.093 -0.1851  1.1798  0.4193
  864MOL0     C13954  -3.004   6.405   8.198 -0.8322  0.2980  0.2595
  864MOL0     C13955  -3.148   6.402   8.186 -0.5340  0.5490  0.7233
  864MOL0     C13956  -3.217   6.504   8.277  0.0213  0.6567  0.6937
  864MOL0     C13957  -3.365   6.470   8.308 -0.4859  0.0037  0.4769
  864MOL0     C13958  -3.414   6.561   8.408  0.3640 -0.1856 -0.5220
  864MOL0     C13959  -3.378   6.508   8.544 -0.2611  0.1079  0.9872
  864MOL0    Cl13960  -3.421   6.640   8.663  0.2000  0.3936  0.2892
  864MOL0     C13961  -2.529   6.189   8.146  0.5939  0.8977 -0.0889
  864MOL0     C13962  -2.389   6.171   8.147  0.1230  0.2807  0.0411
  864MOL0     O13963  -2.206   5.906   8.132 -0.0414  0.1761  0.8747
  864MOL0     C13964  -1.913   6.104   8.041 -0.3331 -0.1980 -0.4375
  864MOL0     C13965  -1.780   6.097   8.057 -1.2114 -0.2293 -1.0366
  864MOL0     N13966  -1.063   5.864   8.232 -0.4531 -0.0900  0.4898
  864MOL0     N13967  -0.958   5.793   8.230 -0.1980  0.1904 -0.5255
  864MOL0     C13968   0.104   6.064   9.006  0.7879 -0.9101  0.2420
  864MOL0     C13969   0.230   6.035   9.056  0.0818  0.8712 -0.4609
  864MOL0     C13970   0.629   5.955   9.212 -0.8260  0.0027  0.4762
  864MOL0     C13971   0.734   5.959   9.114  0.1811  0.2783 -0.3170
  864MOL0     C13972   0.862   5.973   9.162 -0.6772 -0.3429  0.1219
  864MOL0     C13973   0.888   5.993   9.293 -0.6046 -0.2671 -0.5845
  864MOL0     O13974   1.021   6.006   9.328  0.6830  0.0619  0.3938
  864MOL0     C13975   1.074   5.976   9.455  0.0422 -0.4843  0.3265
  864MOL0     C13976   1.228   5.981   9.427  0.0112 -0.8254  0.6560
  864MOL0     C13977   1.297   5.932   9.550  0.6811  0.1043 -0.2597
  864MOL0     C13978   1.444   5.905   9.525  0.5723  0.6637  0.3269
  864MOL0     C13979   1.505   5.825   9.639  0.4020 -0.5336 -0.5006
  864MOL0     C13980   1.541   5.757   9.733  0.4239  0.0962 -0.0697
  864MOL0     C13981   0.790   5.992   9.392  0.1738  0.3048 -0.8480
  864MOL0     C13982   0.661   5.971   9.349 -0.3962  0.5044  0.4490
  864MOL0     H13983   0.365   5.821   8.829  1.7334  1.6071  1.1221
  864MOL0     H13984   0.160   5.866   8.718  1.6388 -1.0649  0.2495
  864MOL0     H13985  -0.228   6.037   8.903 -0.5812 -1.1052  1.7860
  864MOL0     H13986  -0.127   5.905   8.961 -1.1644  1.6334  1.1434
  864MOL0     H13987  -0.307   5.810   8.845 -1.2569 -0.2501 -0.6833
  864MOL0     H13988  -0.180   5.803   8.722 -0.0174 -0.3514 -0.3700
  864MOL0     H13989  -0.265   6.009   8.633  2.1505 -1.2972  1.7461
  864MOL0     H13990  -0.398   6.032   8.736  0.1552  0.0546  0.5048
  864MOL0     H13991  -0.471   5.936   8.534  2.4273  2.6554  0.9693
  864MOL0     H13992  -0.353   5.801   8.529 -1.1692  0.2932 -1.0075
  864MOL0     H13993  -0.601   5.842   8.723 -0.9782  0.6158 -1.6956
  864MOL0     H13994  -0.481   5.712   8.738  0.3791  0.9697  0.3141
  864MOL0     H13995  -0.638   5.601   8.599  0.5824 -0.1539  1.6222
  864MOL0     H13996  -0.535   5.680   8.474  1.3725 -5.8466  1.5207
  864MOL0     H13997  -0.787   5.804   8.600  0.1257 -0.7740  0.3852
  864MOL0     H13998  -0.713   5.861   8.453 -2.2442  2.1221  1.3361
  864MOL0     H13999  -0.850   5.589   8.470  0.0584 -0.3098 -0.2506
  864MOL0     H14000  -0.751   5.656   8.339  0.3551 -2.0577  1.1964
  864MOL0     H14001  -1.020   5.813   8.551 -0.6316  1.4743 -0.4932
  864MOL0     H14002  -1.174   6.074   8.416 -1.2712 -0.5173  2.9294
  864MOL0     H14003  -1.261   5.924   8.486 -2.0833  1.3536  0.7087
  864MOL0     H14004  -1.355   5.879   8.274  3.3491 -1.8829 -1.0670
  864MOL0     H14005  -1.270   6.015   8.186  0.1854 -1.8420 -0.1400
  864MOL0     H14006  -1.485   6.036   8.407  2.6767  0.2230  2.6569
  864MOL0     H14007  -1.395   6.178   8.362 -1.5823 -0.2297  3.2266
  864MOL0     H14008  -1.482   6.163   8.135 -2.9118  2.5677 -0.4209
  864MOL0     H14009  -1.616   6.161   8.248  1.2696 -0.5366  2.0669
  864MOL0     H14010  -1.763   5.785   8.199  0.5395  0.4403  0.2943
  864MOL0     H14011  -2.005   5.795   8.170 -0.1096 -0.4249 -0.1610
  864MOL0     H14012  -2.351   6.098   7.825  3.2333 -1.7618  2.2749
  864MOL0     H14013  -2.609   6.126   7.824  2.0211 -5.0429 -1.4674
  864MOL0     H14014  -2.747   6.355   8.156  1.3748 -1.1500 -0.3099
  864MOL0     H14015  -2.808   6.203   8.217 -0.6793  1.0373  0.6560
  864MOL0     H14016  -3.003   6.212   8.092  1.1080  0.4179  1.7580
  864MOL0     H14017  -2.962   6.352   7.994 -1.4727  2.3019  1.0418
  864MOL0     H14018  -2.965   6.506   8.183 -2.3505  0.8540 -0.1654
  864MOL0     H14019  -2.964   6.373   8.294 -1.3615  0.9328  0.6981
  864MOL0     H14020  -3.184   6.429   8.086 -0.7900  0.4501  0.7867
  864MOL0     H14021  -3.189   6.302   8.202 -2.8830  0.9381 -2.0297
  864MOL0     H14022  -3.212   6.603   8.230 -1.6849 -0.3565 -1.8496
  864MOL0     H14023  -3.158   6.518   8.369  1.2056  3.7146 -0.3905
  864MOL0     H14024  -3.371   6.364   8.334 -2.9051  0.4077  1.8773
  864MOL0     H14025  -3.428   6.476   8.218 -1.7718 -1.5001  1.2421
  864MOL0     H14026  -3.378   6.663   8.392  0.3637  0.0303  0.7370
  864MOL0     H14027  -3.523   6.556   8.399  0.1236  0.3160  1.5172
  864MOL0     H14028  -3.270   6.490   8.549 -0.2353 -0.5614 -1.1477
  864MOL0     H14029  -3.437   6.424   8.583  0.6039  0.4959  3.2714
  864MOL0     H14030  -2.587   6.210   8.235  0.4563 -0.2862  0.1089
  864MOL0     H14031  -2.326   6.199   8.231 -2.4310  1.5793  1.6470
  864MOL0     H14032  -1.950   6.196   7.997 -0.4506 -0.8284 -1.7088
  864MOL0     H14033  -1.710   6.175   8.030  2.9626 -2.1279  2.9305
  864MOL0     H14034   0.020   6.112   9.056  1.5698 -0.6886  1.3825
  864MOL0     H14035   0.247   6.056   9.162  0.4895 -3.4904  0.4973
  864MOL0     H14036   0.719   5.933   9.009 -0.8322  1.2761 -0.4388
  864MOL0     H14037   0.941   5.990   9.089 -1.5974 -0.1609 -0.8731
  864MOL0     H14038   1.030   5.883   9.492  2.6282 -1.7491  0.4210
  864MOL0     H14039   1.056   6.064   9.518  0.7107  1.3553 -1.9035
  864MOL0     H14040   1.257   5.923   9.339  1.0867 -2.1600  1.8400
  864MOL0     H14041   1.248   6.088   9.416 -2.3283 -0.3283  0.6048
  864MOL0     H14042   1.247   5.847   9.597 -0.4781 -0.1011 -1.7906
  864MOL0     H14043   1.290   6.011   9.625 -0.7904 -0.0498 -0.2086
  864MOL0     H14044   1.463   5.840   9.439  1.2757 -2.1760  2.4951
  864MOL0     H14045   1.500   5.998   9.512  1.5220  0.2758  1.4529
  864MOL0     H14046   1.576   5.690   9.809 -0.6894 -0.2095  0.1973
  864MOL0     H14047   0.821   6.006   9.495  2.4599 -2.9296 -0.9332
  864MOL0     H14048   0.589   5.976   9.430 -1.0714  0.6883 -0.1495
  865MOL0     O14049   9.942   4.472   0.559 -0.1627 -0.5307 -0.1647
  865MOL0     C14050   9.864   4.566   0.574  0.0429  0.7494  0.8001
  865MOL0     O14051   9.896   4.687   0.628 -0.2247  0.3193  0.5759
  865MOL0     C14052  10.032   4.714   0.651  0.4922 -0.2460 -0.3856
  865MOL0     C14053  10.118   4.639   0.726 -0.1568 -0.0732  0.3820
  865MOL0     C14054  10.249   4.679   0.749  0.2947  1.1186 -0.3561
  865MOL0     C14055  10.295   4.795   0.691  0.0258 -0.2446 -0.1673
  865MOL0     O14056  10.432   4.838   0.707 -0.3147 -0.3139 -0.0168
  865MOL0     C14057  10.534   4.744   0.753  0.2152 -0.7097 -0.2884
  865MOL0     C14058  10.666   4.812   0.739  0.7561 -0.5173  0.0394
  865MOL0     C14059  10.781   4.727   0.785  0.5358  0.0538 -0.5055
  865MOL0     C14060  10.916   4.785   0.747  0.4968  0.6172 -0.8079
  865MOL0     C14061  11.023   4.698   0.808 -0.1017 -0.3770  0.0015
  865MOL0     C14062  11.169   4.745   0.761 -0.7129 -0.1276  0.1888
  865MOL0     C14063  11.268   4.668   0.841  0.2401 -0.4881  0.3561
  865MOL0     C14064  11.413   4.715   0.814  1.0268 -0.9525  0.5568
  865MOL0     N14065  11.502   4.641   0.890 -0.4855  0.4666  0.7848
  865MOL0     C14066  11.513   4.647   1.028 -0.4731  0.6172 -0.6852
  865MOL0     C14067  11.599   4.547   1.067  0.0593 -0.4880 -0.0351
  865MOL0     C14068  11.663   4.533   1.205 -0.0081  0.4409 -0.0413
  865MOL0     C14069  11.673   4.389   1.253  0.1456 -0.3098 -0.4982
  865MOL0     C14070  11.573   4.348   1.362  0.8088 -0.4047  0.3171
  865MOL0     C14071  11.423   4.363   1.310  0.0903  0.6454 -0.4910
  865MOL0     O14072  11.379   4.490   1.349  0.2596 -0.2582 -0.0673
  865MOL0     C14073  11.248   4.524   1.304  0.2115  0.2445 -0.6915
  865MOL0     C14074  11.152   4.435   1.261 -0.3776  0.5176 -0.7448
  865MOL0     C14075  11.029   4.479   1.217 -0.6376  0.5697  0.9201
  865MOL0     C14076  11.000   4.620   1.218  0.3504  0.5555  0.3335
  865MOL0     C14077  10.867   4.666   1.170  0.4564 -0.8787 -0.2160
  865MOL0     O14078  10.771   4.574   1.177  0.3761 -0.0665  0.0083
  865MOL0     C14079  10.643   4.599   1.150 -0.8078 -0.1780  0.1830
  865MOL0     C14080  10.554   4.486   1.144 -0.2695 -0.1392  0.3661
  865MOL0     C14081  10.414   4.502   1.125  0.7427  0.5855  0.6729
  865MOL0     C14082  10.350   4.619   1.116 -0.9471  0.4368 -0.1300
  865MOL0     O14083  10.213   4.618   1.083  0.6124 -0.1985 -0.0393
  865MOL0     C14084  10.139   4.745   1.083 -0.2030  0.8984 -0.0701
  865MOL0     C14085   9.985   4.718   1.107 -0.1161 -0.1075 -0.1400
  865MOL0     C14086   9.931   4.625   0.998 -0.1737  0.4422 -0.6332
  865MOL0     C14087   9.778   4.589   1.042 -0.1095  0.1845  0.2788
  865MOL0     C14088   9.739   4.492   0.932  0.5223 -0.6188 -1.4752
  865MOL0     C14089   9.604   4.429   0.930 -0.7106 -0.0222 -0.8514
  865MOL0     C14090   9.489   4.526   0.949 -0.5655  0.2254 -0.0248
  865MOL0     C14091   9.357   4.473   0.892 -1.0542 -0.4026 -0.1423
  865MOL0    Cl14092   9.234   4.607   0.924 -0.2551  0.1856  0.3082
  865MOL0     C14093  10.438   4.735   1.129  0.8570 -0.4259  0.2576
  865MOL0     C14094  10.572   4.724   1.140  0.1899 -0.3369  1.0047
  865MOL0     O14095  10.860   4.791   1.151 -0.4176  0.7045  0.2466
  865MOL0     C14096  11.089   4.704   1.267 -0.5654  0.6657  0.5179
  865MOL0     C14097  11.211   4.659   1.316  0.8374  0.2603 -0.4014
  865MOL0     N14098  11.658   4.497   0.945  0.7618  0.9516  0.5030
  865MOL0     N14099  11.595   4.555   0.845 -0.3683 -0.4267  0.6605
  865MOL0     C14100  10.211   4.868   0.611  0.5892  0.0705 -0.0696
  865MOL0     C14101  10.076   4.827   0.590 -0.2712  0.0562 -0.1695
  865MOL0     C14102   9.734   4.552   0.517 -0.1111 -0.2827  0.2188
  865MOL0     C14103   9.636   4.662   0.533 -0.0630  0.1206  0.2470
  865MOL0     C14104   9.514   4.649   0.468  0.1097 -0.1547  0.8661
  865MOL0     C14105   9.486   4.545   0.378 -0.0862 -0.4244  0.3520
  865MOL0     O14106   9.356   4.537   0.340  0.1324  0.0065  0.6628
  865MOL0     C14107   9.328   4.431   0.246  0.2610 -0.1751 -0.1420
  865MOL0     C14108   9.271   4.301   0.299 -0.6204  0.3876 -0.8831
  865MOL0     C14109   9.118   4.304   0.333  0.5561 -0.7292 -0.8182
  865MOL0     C14110   9.062   4.232   0.462 -0.3451  0.3127  0.6152
  865MOL0     C14111   9.099   4.314   0.581  0.7142 -0.2621  1.2746
  865MOL0     C14112   9.101   4.369   0.689  0.1416  0.4264 -0.3471
  865MOL0     C14113   9.586   4.447   0.372 -0.3545  0.4617 -0.5792
  865MOL0     C14114   9.702   4.439   0.441  0.1298  0.6316  0.8030
  865MOL0     H14115  10.085   4.550   0.779  0.0406 -0.6822 -0.4952
  865MOL0     H14116  10.313   4.617   0.812 -2.4921 -1.1277  0.5019
  865MOL0     H14117  10.538   4.658   0.685  2.4934 -2.0408  1.3765
  865MOL0     H14118  10.514   4.709   0.854 -3.4329  0.4614 -0.4571
  865MOL0     H14119  10.674   4.904   0.798  1.1110  1.4694 -2.9228
  865MOL0     H14120  10.679   4.841   0.635 -0.6102  1.7067  0.4232
  865MOL0     H14121  10.768   4.629   0.739 -0.3867  1.0082 -2.3775
  865MOL0     H14122  10.779   4.717   0.894  0.4158  2.6839 -0.2040
  865MOL0     H14123  10.929   4.772   0.639 -1.8978 -1.4940 -0.9593
  865MOL0     H14124  10.922   4.889   0.780  0.5313 -0.3664  2.5605
  865MOL0     H14125  11.031   4.594   0.776  2.7352 -0.4598  0.6778
  865MOL0     H14126  11.008   4.704   0.916 -0.5268  0.5837 -0.0975
  865MOL0     H14127  11.175   4.854   0.775 -0.0738 -0.1378  0.0262
  865MOL0     H14128  11.189   4.731   0.655  2.6986 -0.8858  0.8124
  865MOL0     H14129  11.258   4.687   0.948  2.6687 -1.6244  0.8593
  865MOL0     H14130  11.258   4.560   0.829 -0.3462 -1.0092  4.2104
  865MOL0     H14131  11.424   4.820   0.841  3.2708 -0.6675 -1.1499
  865MOL0     H14132  11.429   4.703   0.707 -3.2161  2.0280 -0.6672
  865MOL0     H14133  11.493   4.735   1.088  1.6072  1.2237 -0.7920
  865MOL0     H14134  11.619   4.597   1.283  3.1739  2.1604  0.5060
  865MOL0     H14135  11.767   4.564   1.192  0.0577  0.6313  0.9100
  865MOL0     H14136  11.773   4.375   1.296 -0.1049 -2.0049 -0.4285
  865MOL0     H14137  11.664   4.313   1.175  0.6003 -1.0786  0.1779
  865MOL0     H14138  11.589   4.243   1.390 -3.9380 -2.3078 -2.7993
  865MOL0     H14139  11.580   4.420   1.444  0.1591  0.5095 -0.4083
  865MOL0     H14140  11.363   4.288   1.362  1.9174 -1.7871 -1.7028
  865MOL0     H14141  11.412   4.341   1.203  1.4188  0.4890 -0.6091
  865MOL0     H14142  11.169   4.328   1.255 -1.9045  0.3240 -2.9268
  865MOL0     H14143  10.952   4.411   1.182 -1.8290  1.7111  1.2210
  865MOL0     H14144  10.585   4.384   1.163  4.3811  0.5196 -2.2080
  865MOL0     H14145  10.351   4.414   1.123 -1.6734  2.1537  1.7863
  865MOL0     H14146  10.131   4.812   0.997 -0.9590  1.8719  0.7253
  865MOL0     H14147  10.181   4.805   1.164  0.4803 -0.8680  0.9242
  865MOL0     H14148   9.938   4.817   1.108  2.3254  1.1079  0.1862
  865MOL0     H14149   9.970   4.678   1.208 -1.5670  3.5848  1.2625
  865MOL0     H14150   9.987   4.532   0.992 -1.6290 -0.6471  1.3847
  865MOL0     H14151   9.934   4.676   0.902  1.2683  3.1431  0.7213
  865MOL0     H14152   9.774   4.545   1.142 -2.1521 -1.6766 -0.5580
  865MOL0     H14153   9.723   4.683   1.034 -2.9476 -1.1650  2.3832
  865MOL0     H14154   9.812   4.412   0.922  1.8835  0.5673 -1.4253
  865MOL0     H14155   9.755   4.553   0.842  3.3649 -0.1558 -0.7780
  865MOL0     H14156   9.602   4.361   1.016  0.4159 -0.0643 -0.8469
  865MOL0     H14157   9.588   4.378   0.834 -2.0978 -0.8660 -0.2089
  865MOL0     H14158   9.472   4.542   1.056 -1.8501  1.5872 -0.3921
  865MOL0     H14159   9.507   4.617   0.891 -0.0590  0.4917  0.5397
  865MOL0     H14160   9.319   4.386   0.946 -0.9767 -0.6009 -0.4055
  865MOL0     H14161   9.370   4.441   0.788  0.3464 -0.9075  0.1657
  865MOL0     H14162  10.407   4.837   1.114  0.2063 -0.9995 -3.0084
  865MOL0     H14163  10.627   4.816   1.154  0.3709 -0.1871 -0.5192
  865MOL0     H14164  11.068   4.809   1.286 -0.5553  0.4776  1.6317
  865MOL0     H14165  11.285   4.729   1.353  1.5424 -0.7611  0.1570
  865MOL0     H14166  10.244   4.958   0.559  1.8514  0.5742  1.5295
  865MOL0     H14167  10.007   4.883   0.528 -1.3600 -0.2894  0.7032
  865MOL0     H14168   9.664   4.748   0.592  0.5633 -0.6991  1.1626
  865MOL0     H14169   9.445   4.731   0.484 -0.3424 -0.3789  0.1170
  865MOL0     H14170   9.413   4.408   0.181  1.4168 -1.3934  1.6916
  865MOL0     H14171   9.247   4.460   0.179  2.0763 -1.5655 -3.1246
  865MOL0     H14172   9.300   4.225   0.226  0.6648  0.5291 -0.5470
  865MOL0     H14173   9.329   4.272   0.387  1.7785  1.0070 -2.1721
  865MOL0     H14174   9.057   4.280   0.245  0.4423 -0.1636 -0.9004
  865MOL0     H14175   9.093   4.409   0.348  0.0801 -1.1238  1.5703
  865MOL0     H14176   8.953   4.229   0.471 -0.2645  0.2473  1.7974
  865MOL0     H14177   9.108   4.133   0.469  1.9687  1.3447  0.8845
  865MOL0     H14178   9.096   4.418   0.785 -0.8612 -0.8246  0.2785
  865MOL0     H14179   9.561   4.358   0.315 -0.2554  0.4424 -0.5936
  865MOL0     H14180   9.772   4.355   0.436  3.3479  3.0115  2.5249
  866MOL0     O14181   8.147   0.857   0.766  0.6107 -0.2589 -0.4742
  866MOL0     C14182   8.183   0.765   0.835  0.2496  0.5834  0.0885
  866MOL0     O14183   8.106   0.671   0.892 -0.1258 -0.3217 -0.3680
  866MOL0     C14184   7.971   0.678   0.871 -0.9167 -0.1504 -0.5695
  866MOL0     C14185   7.888   0.679   0.981  0.2084  0.3028 -0.1803
  866MOL0     C14186   7.750   0.685   0.965  0.4697 -0.1631 -0.2382
  866MOL0     C14187   7.694   0.698   0.837  0.0867  0.2989 -0.5353
  866MOL0     O14188   7.561   0.712   0.807  0.3182  0.0484 -0.7540
  866MOL0     C14189   7.460   0.786   0.881  0.4817  0.4653 -1.0516
  866MOL0     C14190   7.361   0.684   0.946  0.5699  0.3897  0.4725
  866MOL0     C14191   7.225   0.761   0.972  0.0771  0.1197  0.1790
  866MOL0     C14192   7.127   0.658   1.034 -0.6186  0.3247  0.1223
  866MOL0     C14193   6.995   0.721   1.052  0.6782 -0.0881 -0.1498
  866MOL0     C14194   6.895   0.601   1.100 -0.2844 -1.2079  0.4640
  866MOL0     C14195   6.755   0.657   1.126  0.2542  0.4740  0.6752
  866MOL0     C14196   6.721   0.701   1.270  0.9737 -0.1893 -0.8497
  866MOL0     N14197   6.578   0.714   1.295  0.3092 -0.2497 -0.1304
  866MOL0     C14198   6.513   0.736   1.417 -0.3504 -0.0552 -0.5261
  866MOL0     C14199   6.381   0.730   1.394 -0.1758 -0.4341 -0.2095
  866MOL0     C14200   6.268   0.785   1.481 -0.1427  0.3515  0.4214
  866MOL0     C14201   6.288   0.931   1.537 -0.4637  0.4224  0.0530
  866MOL0     C14202   6.162   1.011   1.546 -0.1173 -0.2140 -0.2090
  866MOL0     C14203   6.050   0.931   1.621  0.3562 -0.0638 -0.0181
  866MOL0     O14204   6.118   0.890   1.741  0.2259 -0.2370  0.3813
  866MOL0     C14205   6.039   0.814   1.830 -0.0123 -0.1575 -0.1680
  866MOL0     C14206   5.927   0.741   1.795  0.7076  0.7620  0.3134
  866MOL0     C14207   5.849   0.685   1.893 -0.0007 -0.4091 -0.5742
  866MOL0     C14208   5.889   0.690   2.032 -0.0118 -0.3041  0.3261
  866MOL0     C14209   5.808   0.621   2.132 -1.3661 -0.0641 -0.6987
  866MOL0     O14210   5.863   0.605   2.259  0.0840 -0.3518  0.8279
  866MOL0     C14211   5.801   0.535   2.360 -0.4914 -0.7162  0.4409
  866MOL0     C14212   5.718   0.600   2.453 -0.1937  0.9341 -0.1449
  866MOL0     C14213   5.675   0.544   2.569  0.2860 -1.1258 -0.0928
  866MOL0     C14214   5.699   0.407   2.601  0.2647 -0.3659 -0.4169
  866MOL0     O14215   5.629   0.344   2.699 -0.2301 -0.4626  0.4072
  866MOL0     C14216   5.488   0.392   2.713 -0.0826  1.0508  0.3942
  866MOL0     C14217   5.380   0.284   2.711 -0.3671  0.6396 -0.4037
  866MOL0     C14218   5.374   0.223   2.570  0.5278  0.4136 -0.1879
  866MOL0     C14219   5.366   0.302   2.437 -0.3679  0.2848  0.2308
  866MOL0     C14220   5.416   0.218   2.326  0.1157 -0.3928 -0.3766
  866MOL0     C14221   5.325   0.101   2.292  0.5554 -0.3584 -0.2393
  866MOL0     C14222   5.376   0.028   2.166  0.6683  0.3298  0.4461
  866MOL0     C14223   5.297  -0.103   2.149  0.1034 -0.6270  0.0119
  866MOL0    Cl14224   5.303  -0.219   2.289 -0.3362 -0.6825  0.1803
  866MOL0     C14225   5.789   0.336   2.512 -0.1751  0.3991  0.1714
  866MOL0     C14226   5.839   0.400   2.392  0.4617  0.1588 -0.6947
  866MOL0     O14227   5.697   0.588   2.111  0.0885 -0.0994  0.5354
  866MOL0     C14228   5.998   0.769   2.068  0.0310 -0.3867 -0.4240
  866MOL0     C14229   6.074   0.824   1.965 -0.4346  0.9326 -0.5629
  866MOL0     N14230   6.370   0.682   1.269 -0.5521  0.8849 -0.3147
  866MOL0     N14231   6.482   0.671   1.208 -0.3389  0.4547  0.1104
  866MOL0     C14232   7.774   0.690   0.726 -0.8356  0.0755  0.2664
  866MOL0     C14233   7.910   0.676   0.744 -0.4679 -0.3420 -0.2405
  866MOL0     C14234   8.333   0.744   0.842  0.1224  0.0503 -0.1703
  866MOL0     C14235   8.390   0.627   0.896 -0.9356  0.2126 -0.1718
  866MOL0     C14236   8.530   0.619   0.921 -0.1787 -0.4706  0.0546
  866MOL0     C14237   8.615   0.722   0.862 -0.5755  0.7279 -0.3928
  866MOL0     O14238   8.754   0.719   0.867  0.8690  0.0454 -0.9612
  866MOL0     C14239   8.801   0.589   0.880 -0.6295 -0.3933 -0.0197
  866MOL0     C14240   8.945   0.577   0.837 -0.3889 -0.0527 -0.5375
  866MOL0     C14241   9.001   0.431   0.854 -0.0022 -0.5568 -0.0719
  866MOL0     C14242   9.034   0.396   1.003 -0.4037 -1.2291  0.0170
  866MOL0     C14243   9.166   0.461   1.035 -0.1649 -0.3876  0.2576
  866MOL0     C14244   9.274   0.505   1.062  0.8193  0.0832  0.1170
  866MOL0     C14245   8.556   0.829   0.795  0.3931 -0.5034  0.1590
  866MOL0     C14246   8.419   0.850   0.798  0.4949 -0.4542 -0.4243
  866MOL0     H14247   7.920   0.683   1.085 -1.9841  0.5448  0.5402
  866MOL0     H14248   7.684   0.681   1.051  0.7095  2.8554  0.1782
  866MOL0     H14249   7.409   0.849   0.808  1.5133  0.8447 -1.4670
  866MOL0     H14250   7.505   0.849   0.958  1.8872 -0.4398 -1.0965
  866MOL0     H14251   7.393   0.634   1.038  0.2719  0.7715  0.7904
  866MOL0     H14252   7.353   0.605   0.871 -0.3152  1.6634 -0.8401
  866MOL0     H14253   7.189   0.802   0.878  2.0603 -2.3144 -1.7823
  866MOL0     H14254   7.252   0.837   1.046  1.9981 -1.5139  1.2681
  866MOL0     H14255   7.120   0.577   0.961  0.0622 -0.7470  1.2177
  866MOL0     H14256   7.161   0.617   1.130 -1.5569 -0.0060  0.3219
  866MOL0     H14257   6.955   0.761   0.959  0.3366 -0.3080 -0.1001
  866MOL0     H14258   7.001   0.802   1.126 -0.4875 -1.0068  1.0072
  866MOL0     H14259   6.935   0.561   1.193 -1.9604  0.4645  1.9986
  866MOL0     H14260   6.893   0.523   1.024 -1.8174 -1.3279  0.5990
  866MOL0     H14261   6.723   0.724   1.046 -0.3317 -1.5265 -0.8650
  866MOL0     H14262   6.692   0.570   1.105 -0.5488  1.2690 -0.3532
  866MOL0     H14263   6.768   0.798   1.293 -0.7620  0.2035  1.3275
  866MOL0     H14264   6.763   0.628   1.339 -0.1272 -1.3649 -1.3858
  866MOL0     H14265   6.574   0.764   1.502  0.9248 -1.3717 -0.9587
  866MOL0     H14266   6.259   0.715   1.564  0.4910 -2.6022 -1.8253
  866MOL0     H14267   6.178   0.784   1.419  0.0387 -0.0360  0.1643
  866MOL0     H14268   6.347   0.980   1.459 -2.8585 -0.8348 -2.7504
  866MOL0     H14269   6.346   0.921   1.629 -0.2125 -0.1000 -0.1593
  866MOL0     H14270   6.184   1.099   1.608 -0.8095 -1.7573  2.3943
  866MOL0     H14271   6.132   1.030   1.443  3.7093  2.1684 -1.1166
  866MOL0     H14272   6.029   0.837   1.569 -2.9625 -0.4566  1.7276
  866MOL0     H14273   5.955   0.983   1.636  0.3981  0.1919 -0.6249
  866MOL0     H14274   5.896   0.723   1.693  0.1202  2.0580  0.2496
  866MOL0     H14275   5.760   0.631   1.866  0.9899 -3.7820  2.2083
  866MOL0     H14276   5.678   0.699   2.432 -3.6994 -0.1175  0.8349
  866MOL0     H14277   5.625   0.615   2.635  0.9204 -0.4013 -0.3730
  866MOL0     H14278   5.458   0.458   2.632  2.8742  2.4446  0.3124
  866MOL0     H14279   5.471   0.440   2.810 -2.1754 -0.9847  1.1500
  866MOL0     H14280   5.279   0.318   2.738 -1.0747  0.8396 -3.0003
  866MOL0     H14281   5.401   0.214   2.792 -1.8328 -0.2579 -0.7716
  866MOL0     H14282   5.280   0.167   2.569  0.7105 -0.0397 -3.3028
  866MOL0     H14283   5.453   0.147   2.568  0.4195  0.1770  2.0698
  866MOL0     H14284   5.261   0.320   2.410 -0.5025 -1.2866 -0.3667
  866MOL0     H14285   5.417   0.399   2.432  0.7806 -0.1665  2.0700
  866MOL0     H14286   5.514   0.180   2.355 -2.0769 -4.9029  2.1499
  866MOL0     H14287   5.410   0.284   2.239  1.7972 -1.4424 -1.3457
  866MOL0     H14288   5.221   0.130   2.274  0.8497  0.0867 -1.3081
  866MOL0     H14289   5.328   0.031   2.375  1.8910  0.7516  0.6875
  866MOL0     H14290   5.351   0.087   2.077  1.3941 -0.6471 -0.4290
  866MOL0     H14291   5.485   0.015   2.157  1.0691  1.4250  2.8663
  866MOL0     H14292   5.323  -0.159   2.059 -2.0402  0.8137 -1.5816
  866MOL0     H14293   5.191  -0.078   2.139  0.2680  0.0015 -0.1909
  866MOL0     H14294   5.805   0.231   2.532 -0.1861  0.4213  0.2953
  866MOL0     H14295   5.906   0.349   2.322 -0.4077 -0.3818 -1.1513
  866MOL0     H14296   6.024   0.792   2.171 -2.4154 -0.3994  0.2555
  866MOL0     H14297   6.180   0.845   1.976  0.0619 -0.9902 -1.2497
  866MOL0     H14298   7.729   0.675   0.629 -0.1908  0.3223 -0.0792
  866MOL0     H14299   7.968   0.690   0.653 -0.1994  4.1714  0.4180
  866MOL0     H14300   8.325   0.550   0.934 -1.9450 -1.2049 -4.2960
  866MOL0     H14301   8.557   0.528   0.972 -2.5970  0.0952  2.5672
  866MOL0     H14302   8.750   0.515   0.818  1.5580 -2.0360  0.0312
  866MOL0     H14303   8.792   0.557   0.984 -1.1013  0.6623  0.2791
  866MOL0     H14304   8.944   0.612   0.733  0.3103 -0.9914 -0.8752
  866MOL0     H14305   9.009   0.640   0.900  1.3293 -1.6214 -0.5996
  866MOL0     H14306   9.093   0.406   0.801 -0.6554 -2.9108 -0.2117
  866MOL0     H14307   8.923   0.364   0.819 -0.8542 -1.0085  2.4388
  866MOL0     H14308   8.954   0.435   1.067  0.1922 -1.1841  0.7511
  866MOL0     H14309   9.043   0.289   1.022 -2.3358 -0.9969  2.9537
  866MOL0     H14310   9.368   0.546   1.092 -0.0600  0.5182  2.5217
  866MOL0     H14311   8.614   0.913   0.759 -2.6894  2.7052  2.0496
  866MOL0     H14312   8.380   0.945   0.762 -1.1674 -0.5486  1.0262
  867MOL0     O14313   3.042   5.410   4.006  0.0758 -0.3597  0.8123
  867MOL0     C14314   2.968   5.336   3.939  0.4670 -0.0060  0.4889
  867MOL0     O14315   3.005   5.223   3.874 -0.8903  0.0421  0.3766
  867MOL0     C14316   3.137   5.183   3.883  0.1552  0.0072  0.2660
  867MOL0     C14317   3.252   5.260   3.864  0.5747  0.7889 -0.3989
  867MOL0     C14318   3.380   5.210   3.855 -0.3524  0.9286 -0.6723
  867MOL0     C14319   3.413   5.075   3.872 -0.6466 -0.3026  0.4136
  867MOL0     O14320   3.538   5.015   3.855 -0.6462 -0.9300 -0.3670
  867MOL0     C14321   3.644   5.104   3.826 -0.5188 -0.3544  0.3604
  867MOL0     C14322   3.707   5.170   3.939  0.6152 -0.0210  0.1404
  867MOL0     C14323   3.828   5.237   3.899 -0.0137 -0.2333 -0.0049
  867MOL0     C14324   3.931   5.224   4.016 -0.4996  1.2060 -0.1871
  867MOL0     C14325   4.068   5.283   3.977  0.6176 -0.7499 -1.1751
  867MOL0     C14326   4.193   5.250   4.069 -0.2325 -0.0223 -0.0185
  867MOL0     C14327   4.325   5.323   4.042  0.4354  0.0552 -1.3744
  867MOL0     C14328   4.334   5.458   4.118 -0.1470 -0.7115  0.1937
  867MOL0     N14329   4.216   5.543   4.117  0.2283 -0.0490 -0.0960
  867MOL0     C14330   4.164   5.617   4.011  1.0518 -0.2944 -0.6607
  867MOL0     C14331   4.069   5.685   4.075  0.2797  0.1660 -0.2925
  867MOL0     C14332   3.967   5.785   4.012 -0.0969  0.9236 -0.6209
  867MOL0     C14333   3.831   5.711   4.029 -0.4591 -0.7152  0.0619
  867MOL0     C14334   3.718   5.807   3.974 -0.4525 -0.2769  0.5490
  867MOL0     C14335   3.579   5.754   4.025 -0.6845  1.2614  0.7895
  867MOL0     O14336   3.476   5.849   3.972 -0.1244 -0.7640  0.1643
  867MOL0     C14337   3.351   5.831   4.014  0.9446  0.0453  0.3181
  867MOL0     C14338   3.294   5.724   4.090  0.2413  0.3685 -0.7256
  867MOL0     C14339   3.161   5.737   4.136  0.2525 -0.6113 -0.3988
  867MOL0     C14340   3.083   5.842   4.088  1.2207 -0.2500  0.7883
  867MOL0     C14341   2.937   5.854   4.123 -0.5357  0.7773 -0.0579
  867MOL0     O14342   2.856   5.944   4.052  0.0111 -0.7320 -0.3216
  867MOL0     C14343   2.717   5.950   4.068  0.3985 -1.1399  0.3473
  867MOL0     C14344   2.628   5.853   4.110 -0.4146 -0.0814 -0.0712
  867MOL0     C14345   2.492   5.879   4.114  0.6234 -0.3359 -1.3229
  867MOL0     C14346   2.445   6.011   4.086  0.0935 -0.0079  0.0561
  867MOL0     O14347   2.316   6.056   4.089 -0.2258  0.3716 -0.2478
  867MOL0     C14348   2.201   5.979   4.060 -0.2055  0.8706  0.9698
  867MOL0     C14349   2.134   6.025   3.930 -0.4681  0.2308  0.3165
  867MOL0     C14350   1.986   5.992   3.909 -0.5708 -0.0002 -1.1816
  867MOL0     C14351   1.891   6.039   4.022  0.1870 -0.3852 -0.3480
  867MOL0     C14352   1.746   6.009   3.993  0.4941 -0.4936 -0.0491
  867MOL0     C14353   1.716   5.869   3.928 -0.2548  0.1536 -0.0202
  867MOL0     C14354   1.568   5.840   3.927 -0.2102  0.2979 -0.3029
  867MOL0     C14355   1.543   5.713   3.857  0.0930  0.6605  0.1310
  867MOL0    Cl14356   1.368   5.678   3.878 -0.1173 -0.2505  0.3112
  867MOL0     C14357   2.533   6.117   4.055  0.4379 -0.6442  0.2815
  867MOL0     C14358   2.665   6.081   4.039  0.1417  0.2548  0.4474
  867MOL0     O14359   2.904   5.789   4.221  0.4216  0.7044  0.3565
  867MOL0     C14360   3.138   5.943   4.015  0.7758 -0.6869  0.4101
  867MOL0     C14361   3.265   5.936   3.968  0.4609  0.0463 -0.7729
  867MOL0     N14362   4.075   5.668   4.213 -0.3501  0.0862  0.0107
  867MOL0     N14363   4.157   5.575   4.235 -0.1162 -0.2805 -0.4621
  867MOL0     C14364   3.297   5.002   3.896 -0.1470 -0.3922 -0.1169
  867MOL0     C14365   3.164   5.050   3.900  0.0378  1.0217 -0.2934
  867MOL0     C14366   2.823   5.373   3.929 -0.2332  0.7819  0.1353
  867MOL0     C14367   2.766   5.454   4.026 -0.1214 -0.1192 -0.0980
  867MOL0     C14368   2.634   5.490   4.014 -0.6372 -0.3530  0.2687
  867MOL0     C14369   2.559   5.444   3.901  0.1703 -0.3985  1.2334
  867MOL0     O14370   2.426   5.475   3.890  0.0128 -0.1222 -0.4870
  867MOL0     C14371   2.379   5.543   3.777  0.2146  0.2141 -0.5149
  867MOL0     C14372   2.242   5.497   3.724  0.1303 -0.6043  0.0892
  867MOL0     C14373   2.123   5.534   3.802  0.0880 -0.3882  0.3214
  867MOL0     C14374   1.993   5.488   3.729 -1.1867  0.0374 -0.6942
  867MOL0     C14375   1.888   5.486   3.823  0.7143  0.5296  0.3091
  867MOL0     C14376   1.810   5.464   3.911 -0.2556 -0.6635  0.0395
  867MOL0     C14377   2.621   5.362   3.808  0.2023  0.1262  0.5311
  867MOL0     C14378   2.754   5.331   3.815 -0.2651 -0.8060  0.5429
  867MOL0     H14379   3.244   5.368   3.861  2.7327  0.9962 -0.2742
  867MOL0     H14380   3.454   5.285   3.829  1.5430 -0.0173  1.5950
  867MOL0     H14381   3.624   5.184   3.754 -3.2168 -0.1970  1.1793
  867MOL0     H14382   3.719   5.036   3.784 -1.0398 -0.5829 -0.2195
  867MOL0     H14383   3.724   5.092   4.014  2.3108 -0.1374 -0.3274
  867MOL0     H14384   3.640   5.243   3.985  0.4598 -0.6200  0.8779
  867MOL0     H14385   3.816   5.345   3.885 -0.7962 -0.3071  0.1004
  867MOL0     H14386   3.864   5.202   3.802  1.4480  3.1831 -0.8590
  867MOL0     H14387   3.893   5.274   4.106  0.0775  1.1820  0.0685
  867MOL0     H14388   3.946   5.122   4.049  0.3976  2.1247  2.4466
  867MOL0     H14389   4.060   5.392   3.968  4.1261  0.6725  5.7449
  867MOL0     H14390   4.077   5.240   3.877 -0.1420  0.0502 -1.6058
  867MOL0     H14391   4.212   5.142   4.063  2.7272  0.3644  1.0527
  867MOL0     H14392   4.163   5.263   4.173  0.1022 -2.2683  0.4126
  867MOL0     H14393   4.404   5.251   4.065 -0.3868 -1.0984 -2.1000
  867MOL0     H14394   4.340   5.343   3.936 -1.4614  0.5652 -1.5678
  867MOL0     H14395   4.418   5.518   4.082  0.7077  0.2270  3.4603
  867MOL0     H14396   4.354   5.425   4.220 -0.9283 -1.7570  0.0297
  867MOL0     H14397   4.183   5.599   3.906 -3.9177  1.7501 -2.2005
  867MOL0     H14398   3.990   5.807   3.907 -0.0493  3.2997 -0.1640
  867MOL0     H14399   3.972   5.880   4.065 -2.3736 -0.1399  1.7402
  867MOL0     H14400   3.809   5.685   4.133 -0.9276  0.2803  0.2241
  867MOL0     H14401   3.834   5.624   3.964 -1.7439  0.6007 -1.8910
  867MOL0     H14402   3.733   5.904   4.023 -0.2073  0.4199 -0.8344
  867MOL0     H14403   3.724   5.818   3.865  0.0101 -0.0555  0.5901
  867MOL0     H14404   3.580   5.754   4.134  0.6184 -2.9403  0.9436
  867MOL0     H14405   3.563   5.653   3.984 -0.0137  1.9604 -1.3581
  867MOL0     H14406   3.363   5.644   4.112  1.4761  0.9454 -2.3660
  867MOL0     H14407   3.115   5.659   4.195  1.2673 -0.5719  0.4753
  867MOL0     H14408   2.665   5.753   4.131  0.8340  0.3828  0.0188
  867MOL0     H14409   2.417   5.804   4.139  0.6128  0.1179  0.1285
  867MOL0     H14410   2.140   5.988   4.150 -1.3499 -2.8260  0.7460
  867MOL0     H14411   2.226   5.874   4.043 -0.3428  0.7857  1.2945
  867MOL0     H14412   2.189   5.975   3.850  1.2468 -2.6684  3.0624
  867MOL0     H14413   2.149   6.132   3.917  0.5431  0.3085  1.8960
  867MOL0     H14414   1.967   5.884   3.906 -3.0402  0.3970 -2.7799
  867MOL0     H14415   1.960   6.028   3.809  2.3613 -0.6979 -2.2990
  867MOL0     H14416   1.917   5.991   4.117 -0.9157  2.2132  1.4195
  867MOL0     H14417   1.898   6.149   4.028  2.2447 -0.4733 -0.5428
  867MOL0     H14418   1.721   6.088   3.922  0.3055 -0.0287  0.5237
  867MOL0     H14419   1.681   6.026   4.079  1.6802  2.6901  0.3569
  867MOL0     H14420   1.760   5.787   3.985 -0.5823 -0.9527 -1.2963
  867MOL0     H14421   1.766   5.870   3.831 -1.2887 -0.5588 -0.5811
  867MOL0     H14422   1.535   5.835   4.031  3.6120 -2.9206  1.0113
  867MOL0     H14423   1.512   5.917   3.874 -0.3719 -0.3430 -1.0861
  867MOL0     H14424   1.597   5.634   3.909 -1.2261 -0.6633 -0.4418
  867MOL0     H14425   1.565   5.708   3.750 -4.5301  3.2108 -1.2201
  867MOL0     H14426   2.502   6.217   4.029  1.5349 -0.8830 -2.2849
  867MOL0     H14427   2.739   6.155   4.011  0.5572 -0.5788 -0.7906
  867MOL0     H14428   3.082   6.030   3.983 -2.1621 -2.3107  0.7678
  867MOL0     H14429   3.307   6.014   3.905  0.9180 -0.7769 -1.5026
  867MOL0     H14430   3.321   4.897   3.912  1.4635  0.2526  2.1582
  867MOL0     H14431   3.078   4.987   3.919 -1.7609  4.0163  2.4644
  867MOL0     H14432   2.824   5.481   4.114 -0.8528 -1.1501  0.7331
  867MOL0     H14433   2.582   5.541   4.095 -2.1496 -4.7920  2.4094
  867MOL0     H14434   2.451   5.539   3.696  1.0205 -0.6087  0.2230
  867MOL0     H14435   2.356   5.649   3.794 -0.9902  0.3612 -2.7465
  867MOL0     H14436   2.233   5.541   3.625  0.5933  0.7198  0.6072
  867MOL0     H14437   2.246   5.388   3.715  0.7843 -0.4969 -1.1264
  867MOL0     H14438   2.109   5.641   3.818 -0.9721  0.0125 -2.7216
  867MOL0     H14439   2.127   5.486   3.901 -1.1070 -3.8191 -1.1219
  867MOL0     H14440   1.962   5.561   3.654  1.7516 -0.4393 -2.5179
  867MOL0     H14441   1.993   5.384   3.698 -2.4352 -0.8528  1.9417
  867MOL0     H14442   1.744   5.447   3.994 -0.0861  0.1711  0.3578
  867MOL0     H14443   2.567   5.304   3.733  0.9473 -1.3920  1.1386
  867MOL0     H14444   2.787   5.277   3.727  1.3870  1.6267 -0.4421
  868MOL0     O14445   8.098   3.280   2.947 -0.5866  0.8332  0.8586
  868MOL0     C14446   8.097   3.161   2.964  0.0471  0.7466  0.1291
  868MOL0     O14447   8.204   3.081   2.947  0.0212  0.3731  0.4516
  868MOL0     C14448   8.338   3.119   2.924  0.3105  0.4355 -0.0000
  868MOL0     C14449   8.431   3.017   2.890 -0.3392 -0.0908  0.7235
  868MOL0     C14450   8.567   3.045   2.891 -0.0132 -1.1315  0.4122
  868MOL0     C14451   8.620   3.175   2.919  0.5845  0.7649 -1.3639
  868MOL0     O14452   8.758   3.192   2.925 -0.3394 -0.0648 -0.6490
  868MOL0     C14453   8.824   3.203   2.804  0.9847  0.5659 -0.1202
  868MOL0     C14454   8.927   3.090   2.814 -0.2698 -0.1807  0.5102
  868MOL0     C14455   9.051   3.136   2.886 -0.4382 -0.4487 -0.1902
  868MOL0     C14456   9.169   3.046   2.913 -0.0017  0.2138 -0.4565
  868MOL0     C14457   9.228   2.985   2.795 -1.0041 -0.2759  0.2724
  868MOL0     C14458   9.368   2.928   2.825  0.3048 -0.3625  0.4106
  868MOL0     C14459   9.437   2.868   2.703  0.2645 -0.6979 -0.5063
  868MOL0     C14460   9.584   2.841   2.735 -0.3962  0.6181  0.0236
  868MOL0     N14461   9.584   2.751   2.854 -0.0557  0.7192 -0.9919
  868MOL0     C14462   9.567   2.616   2.855 -1.0887  0.1172 -0.0689
  868MOL0     C14463   9.580   2.580   2.981 -0.0364 -0.4440  0.6171
  868MOL0     C14464   9.557   2.442   3.032  0.6394  0.9211  0.9712
  868MOL0     C14465   9.423   2.378   2.986 -0.2165  0.3852 -0.3967
  868MOL0     C14466   9.366   2.256   3.070 -0.4378  0.3091 -0.0600
  868MOL0     C14467   9.221   2.283   3.107  0.9410  0.3173 -0.5439
  868MOL0     O14468   9.146   2.286   2.983  0.4244 -1.1154  0.3506
  868MOL0     C14469   9.013   2.256   3.008  0.0415 -0.1819 -0.0323
  868MOL0     C14470   8.930   2.219   2.906  0.1605  0.1432  0.8175
  868MOL0     C14471   8.793   2.199   2.914 -0.5678  0.7864 -0.1901
  868MOL0     C14472   8.728   2.205   3.040 -0.3150 -0.4890 -0.2432
  868MOL0     C14473   8.587   2.167   3.059 -0.3872  0.3616  0.1601
  868MOL0     O14474   8.524   2.222   3.168 -0.2570  0.5663 -0.3600
  868MOL0     C14475   8.387   2.209   3.198 -0.0704 -1.4140  0.2846
  868MOL0     C14476   8.289   2.161   3.110 -0.2036 -0.4592 -0.6871
  868MOL0     C14477   8.154   2.177   3.140 -0.3772  0.4539  0.7369
  868MOL0     C14478   8.110   2.207   3.270  0.1967 -0.5281 -0.0281
  868MOL0     O14479   7.977   2.220   3.308  0.1654 -0.3588  0.2380
  868MOL0     C14480   7.886   2.125   3.250  0.3793  0.2335 -0.3555
  868MOL0     C14481   7.752   2.127   3.318  0.4723  0.6318  0.5720
  868MOL0     C14482   7.652   2.037   3.233 -0.2877 -0.2073 -0.1982
  868MOL0     C14483   7.528   2.016   3.313  0.2053 -0.4239  0.5205
  868MOL0     C14484   7.420   1.952   3.226  0.6186  0.1672 -0.0864
  868MOL0     C14485   7.297   1.912   3.311 -0.0256 -0.1935 -0.1176
  868MOL0     C14486   7.201   1.834   3.222  0.1937 -0.3328  0.1124
  868MOL0     C14487   7.091   1.762   3.299 -0.4017 -0.1810 -0.9417
  868MOL0    Cl14488   7.156   1.641   3.429  0.6952 -0.1781  0.2507
  868MOL0     C14489   8.212   2.249   3.360  0.7526 -0.2703 -0.2978
  868MOL0     C14490   8.350   2.254   3.322  0.2735  0.2906 -0.2865
  868MOL0     O14491   8.533   2.096   2.973 -0.2959  0.2479 -0.7986
  868MOL0     C14492   8.805   2.260   3.141 -0.8796  0.0874  0.4178
  868MOL0     C14493   8.947   2.281   3.131 -0.8523 -0.3756  0.4258
  868MOL0     N14494   9.612   2.693   3.054  0.1373 -0.2732 -0.3884
  868MOL0     N14495   9.606   2.793   2.981 -0.4881 -0.2489  0.4396
  868MOL0     C14496   8.527   3.281   2.923  0.0497  0.3861  0.2004
  868MOL0     C14497   8.390   3.254   2.925 -0.5325 -0.1292  0.3678
  868MOL0     C14498   7.966   3.094   2.990  0.4007  0.3904  0.5343
  868MOL0     C14499   7.854   3.183   3.026  0.5584  0.5369  0.6690
  868MOL0     C14500   7.724   3.130   3.045 -0.4479 -1.1413  0.9622
  868MOL0     C14501   7.705   2.991   3.041  1.3354  0.0107  0.1463
  868MOL0     O14502   7.573   2.948   3.074 -0.2098  0.3056  0.4601
  868MOL0     C14503   7.535   2.820   3.014  1.6054 -0.0136 -0.5636
  868MOL0     C14504   7.385   2.788   3.023  0.5030  0.2660 -0.2316
  868MOL0     C14505   7.323   2.808   3.172 -0.0178 -0.0508 -0.1919
  868MOL0     C14506   7.172   2.808   3.137  0.1059  0.0179  0.5024
  868MOL0     C14507   7.086   2.858   3.244  0.2084  0.1626 -1.0636
  868MOL0     C14508   7.004   2.898   3.327  0.0026  0.9596  0.4351
  868MOL0     C14509   7.816   2.906   3.015  0.2894  0.9665 -1.1766
  868MOL0     C14510   7.944   2.955   2.998 -0.0554 -0.3334 -0.3065
  868MOL0     H14511   8.389   2.920   2.865  0.1532 -0.6691  2.0188
  868MOL0     H14512   8.628   2.956   2.879 -1.1068 -2.2029  2.4022
  868MOL0     H14513   8.878   3.296   2.789  1.3048  0.4451  0.2640
  868MOL0     H14514   8.755   3.182   2.722 -1.4393  4.0575  0.8008
  868MOL0     H14515   8.953   3.061   2.712 -1.2280 -4.0617  1.2004
  868MOL0     H14516   8.889   3.003   2.870 -4.7384  3.5726  4.1835
  868MOL0     H14517   9.019   3.173   2.983 -1.0669 -0.4174 -0.4090
  868MOL0     H14518   9.091   3.225   2.836 -0.2436  0.2314  1.1400
  868MOL0     H14519   9.237   3.114   2.966 -0.8018 -0.1847  1.1272
  868MOL0     H14520   9.129   2.968   2.978 -0.9809  0.9159 -0.1948
  868MOL0     H14521   9.243   3.069   2.726  1.0854  0.0824  1.0809
  868MOL0     H14522   9.169   2.912   2.739 -0.1704  0.4462 -1.6444
  868MOL0     H14523   9.364   2.847   2.899 -1.3484  1.1801  2.1223
  868MOL0     H14524   9.424   3.010   2.871  1.4309 -1.3648  0.8717
  868MOL0     H14525   9.391   2.777   2.665 -1.9448  0.2779 -0.3451
  868MOL0     H14526   9.428   2.942   2.623 -1.0536  0.1351  0.3733
  868MOL0     H14527   9.644   2.930   2.756  0.6210  0.2473 -1.1977
  868MOL0     H14528   9.638   2.808   2.646  0.1362  2.4675 -0.3935
  868MOL0     H14529   9.538   2.553   2.771 -0.8450  0.8065 -0.6808
  868MOL0     H14530   9.557   2.444   3.142 -0.5130 -1.5048  1.0698
  868MOL0     H14531   9.648   2.386   3.008  0.2237 -0.7276  2.9216
  868MOL0     H14532   9.425   2.353   2.880 -0.7775 -1.0502 -0.1021
  868MOL0     H14533   9.350   2.459   2.981  1.5754  2.0363 -0.9175
  868MOL0     H14534   9.389   2.168   3.009  1.4516  1.1960 -0.6852
  868MOL0     H14535   9.422   2.237   3.161  0.0748  2.4377  0.1138
  868MOL0     H14536   9.224   2.379   3.161 -0.8084  1.0415 -1.6476
  868MOL0     H14537   9.188   2.211   3.183  2.4261  2.0614  1.9289
  868MOL0     H14538   8.978   2.203   2.810 -0.2418 -1.0862  0.7975
  868MOL0     H14539   8.735   2.167   2.828 -0.2500  0.9542 -0.4683
  868MOL0     H14540   8.297   2.124   3.008 -3.9316  0.2016 -1.3635
  868MOL0     H14541   8.073   2.153   3.072 -0.5865  1.2643  0.6884
  868MOL0     H14542   7.924   2.024   3.265  0.3688  0.6738  3.5045
  868MOL0     H14543   7.873   2.143   3.143 -0.0496 -1.1709 -0.5592
  868MOL0     H14544   7.708   2.227   3.318  0.7799  0.7851  1.5434
  868MOL0     H14545   7.771   2.084   3.417  2.5331  0.2870  0.0796
  868MOL0     H14546   7.702   1.944   3.208 -0.2854 -0.0905 -0.6434
  868MOL0     H14547   7.627   2.082   3.136  1.3418  1.0031 -0.1019
  868MOL0     H14548   7.555   1.938   3.385  1.7296 -0.2741  0.1576
  868MOL0     H14549   7.489   2.101   3.368  0.2102 -0.3582  0.4227
  868MOL0     H14550   7.457   1.856   3.189 -2.6323 -1.7943  1.3729
  868MOL0     H14551   7.395   2.020   3.144  0.0122 -0.4472 -0.4229
  868MOL0     H14552   7.244   2.002   3.343 -2.8312 -1.5590 -0.6761
  868MOL0     H14553   7.340   1.848   3.389  2.1280 -0.3005 -1.2981
  868MOL0     H14554   7.152   1.890   3.142  0.0306 -2.0121 -1.0199
  868MOL0     H14555   7.239   1.744   3.173 -1.0612 -1.2118  0.6937
  868MOL0     H14556   7.019   1.709   3.236  0.0956 -3.1236  0.7705
  868MOL0     H14557   7.043   1.843   3.355  2.4083  1.0290 -0.1313
  868MOL0     H14558   8.191   2.257   3.466  2.8709 -2.3464  0.3739
  868MOL0     H14559   8.428   2.273   3.395 -0.0221  2.5417 -0.4745
  868MOL0     H14560   8.762   2.285   3.237 -0.4497  1.8781  0.1689
  868MOL0     H14561   9.006   2.318   3.215 -0.1721  0.2994 -0.3305
  868MOL0     H14562   8.572   3.380   2.931  1.7705 -0.4921  2.6592
  868MOL0     H14563   8.332   3.345   2.930 -0.6382  0.2767 -4.0442
  868MOL0     H14564   7.859   3.291   3.031 -0.5875  0.8001 -1.9672
  868MOL0     H14565   7.639   3.193   3.071  1.9144  1.6841  2.3519
  868MOL0     H14566   7.593   2.741   3.061 -0.5613 -1.0313  0.5545
  868MOL0     H14567   7.558   2.833   2.908 -2.1444  1.6942 -1.3548
  868MOL0     H14568   7.333   2.850   2.950 -1.9898 -0.1450  1.0941
  868MOL0     H14569   7.380   2.682   2.996  0.7724  0.3016 -0.4312
  868MOL0     H14570   7.357   2.901   3.219  3.3118 -0.9281 -0.6031
  868MOL0     H14571   7.346   2.723   3.238 -2.6773 -1.8051 -1.3247
  868MOL0     H14572   7.144   2.879   3.058 -0.2925  0.5788  1.1389
  868MOL0     H14573   7.151   2.708   3.097  1.0815 -0.6696  1.6385
  868MOL0     H14574   6.940   2.922   3.410  0.0306 -0.9588  1.0508
  868MOL0     H14575   7.802   2.799   3.019 -0.6423  1.0826  2.6478
  868MOL0     H14576   8.014   2.879   2.966 -1.1245 -1.5776  0.1963
  869MOL0     O14577  10.849  11.267   8.164  0.6027 -0.5591 -0.1394
  869MOL0     C14578  10.810  11.234   8.276 -0.0833 -0.6904  0.0284
  869MOL0     O14579  10.684  11.195   8.308  0.8374 -1.1108  0.0806
  869MOL0     C14580  10.587  11.180   8.210  0.3436 -0.1605  0.0586
  869MOL0     C14581  10.612  11.118   8.086  0.2293  0.1341 -0.1307
  869MOL0     C14582  10.502  11.092   8.002 -0.0041  1.0114 -1.4189
  869MOL0     C14583  10.373  11.130   8.040 -0.1458  0.7607 -0.0604
  869MOL0     O14584  10.264  11.134   7.947 -0.6706 -0.1280 -0.1000
  869MOL0     C14585  10.247  11.020   7.858 -0.2651  0.0651  0.2174
  869MOL0     C14586  10.259  11.070   7.720  0.4798 -0.1130  0.4559
  869MOL0     C14587  10.152  11.174   7.677  0.4060  0.3024  0.2984
  869MOL0     C14588  10.158  11.215   7.526 -0.5945  0.7812 -0.2835
  869MOL0     C14589  10.079  11.333   7.487  0.5150  0.0772 -0.2400
  869MOL0     C14590   9.927  11.332   7.535 -0.0627 -0.8602 -0.5620
  869MOL0     C14591   9.865  11.458   7.471  0.0986  0.0944  0.1658
  869MOL0     C14592   9.771  11.421   7.358 -0.0200 -0.1269  0.3245
  869MOL0     N14593   9.625  11.454   7.373 -0.0189 -0.2594  0.3388
  869MOL0     C14594   9.584  11.571   7.440 -0.4166 -0.2537 -0.2195
  869MOL0     C14595   9.452  11.556   7.439 -0.5708 -0.2644 -0.3754
  869MOL0     C14596   9.352  11.637   7.524  0.0316 -0.2457 -0.5006
  869MOL0     C14597   9.215  11.623   7.476  0.9311 -0.0895 -0.4448
  869MOL0     C14598   9.110  11.679   7.564 -0.6398 -0.0694  0.7505
  869MOL0     C14599   8.968  11.680   7.512 -0.1687 -0.0737  0.6188
  869MOL0     O14600   8.885  11.753   7.601 -0.5304  0.0415  0.2304
  869MOL0     C14601   8.753  11.775   7.560  0.8622  0.1299 -1.0725
  869MOL0     C14602   8.692  11.712   7.446  0.5736  0.3401 -0.7220
  869MOL0     C14603   8.556  11.719   7.439  0.9633  0.1485  0.9553
  869MOL0     C14604   8.470  11.787   7.525 -0.2168  0.7962  0.8187
  869MOL0     C14605   8.320  11.793   7.512 -0.2879  0.0891  0.7738
  869MOL0     O14606   8.247  11.868   7.600 -0.6084  0.2706 -0.0718
  869MOL0     C14607   8.110  11.855   7.598 -0.0233 -0.3912  0.1292
  869MOL0     C14608   8.034  11.954   7.532 -0.4967 -0.0741  0.0981
  869MOL0     C14609   7.896  11.949   7.528  0.0453 -0.4043  0.7650
  869MOL0     C14610   7.825  11.842   7.595 -0.3013 -0.1764  0.0743
  869MOL0     O14611   7.691  11.853   7.609  0.1149 -0.8879  0.6857
  869MOL0     C14612   7.623  11.761   7.697  0.4672 -0.5480  0.4366
  869MOL0     C14613   7.463  11.784   7.688 -0.7843 -0.2449 -0.1543
  869MOL0     C14614   7.434  11.930   7.708  0.2535 -0.0017  0.0423
  869MOL0     C14615   7.294  11.969   7.691 -0.1050  0.0249 -0.3300
  869MOL0     C14616   7.296  12.113   7.649 -0.0602 -0.1017 -0.5557
  869MOL0     C14617   7.155  12.178   7.666 -0.7034 -1.1608  0.6820
  869MOL0     C14618   7.107  12.218   7.809  0.7670 -0.9025  0.3205
  869MOL0     C14619   6.954  12.176   7.838 -0.4038 -0.0329  0.2893
  869MOL0    Cl14620   6.927  12.003   7.808 -0.3012 -0.0467 -0.3472
  869MOL0     C14621   7.904  11.752   7.667  0.2609  0.3634 -0.3095
  869MOL0     C14622   8.048  11.746   7.652 -0.1257 -0.4946 -0.7988
  869MOL0     O14623   8.276  11.741   7.411 -0.0634  0.0387 -0.0041
  869MOL0     C14624   8.530  11.856   7.641  0.2314 -0.1765  1.4021
  869MOL0     C14625   8.674  11.845   7.651 -0.0291  0.3379 -0.2977
  869MOL0     N14626   9.414  11.454   7.361  0.2372  0.0882  0.6674
  869MOL0     N14627   9.522  11.391   7.322  0.1197  0.5189  0.6273
  869MOL0     C14628  10.350  11.186   8.165  0.5207  0.2383  0.3740
  869MOL0     C14629  10.456  11.210   8.245 -0.0177 -0.3758  0.3137
  869MOL0     C14630  10.888  11.255   8.396  0.6782 -0.0658  0.0200
  869MOL0     C14631  10.837  11.255   8.530  0.4958 -0.3754 -0.2232
  869MOL0     C14632  10.914  11.278   8.645  0.1463  0.5242 -0.3274
  869MOL0     C14633  11.042  11.321   8.625 -0.2496  0.5269 -1.1114
  869MOL0     O14634  11.113  11.346   8.740 -0.4128 -0.5459  0.1271
  869MOL0     C14635  11.216  11.432   8.735  0.0698 -0.4081  0.6207
  869MOL0     C14636  11.251  11.486   8.874  0.1232 -0.3327  0.5425
  869MOL0     C14637  11.362  11.588   8.854 -0.6245 -0.3032 -0.0265
  869MOL0     C14638  11.435  11.617   8.982  0.4059 -0.2397 -0.3232
  869MOL0     C14639  11.350  11.658   9.095  0.5016 -0.2809 -0.2495
  869MOL0     C14640  11.290  11.714   9.182 -0.0489 -0.1038 -0.6386
  869MOL0     C14641  11.107  11.310   8.495  0.9361  1.0130 -0.2162
  869MOL0     C14642  11.026  11.284   8.385  0.1407 -0.8458  0.8504
  869MOL0     H14643  10.711  11.081   8.063 -0.8270 -1.3156 -2.8268
  869MOL0     H14644  10.516  11.028   7.915 -1.5575 -2.5923  0.7366
  869MOL0     H14645  10.143  10.985   7.867 -0.1826 -0.3035 -0.2582
  869MOL0     H14646  10.318  10.937   7.862 -1.1662 -0.8966 -1.8944
  869MOL0     H14647  10.261  10.982   7.654 -0.6016  1.0483 -1.1751
  869MOL0     H14648  10.361  11.109   7.718 -0.5461  3.3047  3.7718
  869MOL0     H14649  10.165  11.255   7.749  0.3113  1.2951 -0.7689
  869MOL0     H14650  10.056  11.128   7.701  0.7191 -1.2396 -1.2184
  869MOL0     H14651  10.262  11.240   7.503 -0.1674 -1.9416 -1.7421
  869MOL0     H14652  10.127  11.130   7.464  0.4567  2.2566 -3.0445
  869MOL0     H14653  10.066  11.323   7.378 -0.2115  0.9562 -0.2516
  869MOL0     H14654  10.141  11.419   7.513  4.3706 -1.8344 -2.2000
  869MOL0     H14655   9.914  11.350   7.642  0.2841  0.4126 -0.7235
  869MOL0     H14656   9.877  11.235   7.522 -0.3738 -0.8044  0.1667
  869MOL0     H14657   9.814  11.515   7.550  2.3179  1.8672  0.4333
  869MOL0     H14658   9.943  11.523   7.430  2.5894 -1.4914  2.1360
  869MOL0     H14659   9.778  11.319   7.320 -1.4454  0.1827 -0.8735
  869MOL0     H14660   9.809  11.484   7.276  2.5808 -0.7874  0.9131
  869MOL0     H14661   9.651  11.642   7.488 -0.5775  0.2784 -0.7626
  869MOL0     H14662   9.373  11.744   7.525 -2.5842  0.3613  0.9065
  869MOL0     H14663   9.356  11.608   7.630  0.8931  3.0189  0.4615
  869MOL0     H14664   9.190  11.519   7.454 -1.9715 -0.1744  2.5221
  869MOL0     H14665   9.201  11.673   7.380 -1.8390 -0.4508 -0.3077
  869MOL0     H14666   9.118  11.627   7.660 -1.7830 -1.8577 -0.0444
  869MOL0     H14667   9.134  11.783   7.583  0.4315 -0.1892  0.1181
  869MOL0     H14668   8.941  11.575   7.501 -0.7850  0.2043 -0.6172
  869MOL0     H14669   8.973  11.728   7.414  0.5485  0.7481  1.0469
  869MOL0     H14670   8.752  11.665   7.370  2.0439 -0.7866  1.0532
  869MOL0     H14671   8.521  11.655   7.359  0.7496 -3.4750  3.6621
  869MOL0     H14672   8.089  12.031   7.480 -0.5827  0.1502  0.3380
  869MOL0     H14673   7.852  12.028   7.468  1.7062 -1.1947 -1.6531
  869MOL0     H14674   7.662  11.760   7.799  0.0689  1.4101  0.6493
  869MOL0     H14675   7.628  11.655   7.671 -1.0038 -0.8772  1.4178
  869MOL0     H14676   7.409  11.725   7.762 -1.7031  1.3185  0.4682
  869MOL0     H14677   7.426  11.747   7.592  1.7504 -1.4175 -0.7417
  869MOL0     H14678   7.491  11.982   7.631 -0.1895 -1.4432 -1.2990
  869MOL0     H14679   7.464  11.950   7.811 -0.6659 -0.7340  0.4745
  869MOL0     H14680   7.253  11.920   7.601 -1.7888 -2.1354  1.4880
  869MOL0     H14681   7.243  11.958   7.787 -1.2913  4.1520 -0.3012
  869MOL0     H14682   7.319  12.124   7.542 -0.0284 -2.1490 -0.8023
  869MOL0     H14683   7.373  12.173   7.699 -0.4416 -0.1834  0.1333
  869MOL0     H14684   7.078  12.127   7.607 -1.6016  1.3430 -0.4673
  869MOL0     H14685   7.161  12.281   7.629  1.8889 -1.0728  1.1548
  869MOL0     H14686   7.171  12.175   7.886  0.0741 -0.6351  1.0588
  869MOL0     H14687   7.114  12.327   7.818 -0.7050 -0.8299  1.0453
  869MOL0     H14688   6.897  12.219   7.755 -2.1756 -3.5332 -0.4578
  869MOL0     H14689   6.917  12.202   7.938  1.6487  1.4481  0.7373
  869MOL0     H14690   7.847  11.679   7.723 -2.6223  3.3363  0.9260
  869MOL0     H14691   8.112  11.666   7.687 -1.2003 -1.1927 -0.4093
  869MOL0     H14692   8.469  11.911   7.713  0.6587  0.1348  1.5293
  869MOL0     H14693   8.721  11.884   7.741 -0.8887 -2.8496  1.6814
  869MOL0     H14694  10.248  11.214   8.185  1.0208  2.6370 -0.1530
  869MOL0     H14695  10.445  11.268   8.336 -2.1948  0.8410 -0.6500
  869MOL0     H14696  10.733  11.230   8.550  1.2085 -3.7492 -0.1545
  869MOL0     H14697  10.857  11.275   8.738 -2.1266  1.7093 -1.5898
  869MOL0     H14698  11.191  11.517   8.671 -0.9318 -0.7297  0.5687
  869MOL0     H14699  11.309  11.386   8.699  1.6378  0.6031  3.0788
  869MOL0     H14700  11.161  11.526   8.920 -0.7307  1.7778 -2.6263
  869MOL0     H14701  11.290  11.406   8.938 -1.1101 -0.9201  0.5939
  869MOL0     H14702  11.335  11.678   8.798 -2.8541 -2.7122 -3.2307
  869MOL0     H14703  11.443  11.536   8.801 -1.4602 -3.4505  1.5046
  869MOL0     H14704  11.496  11.530   9.008 -1.6272 -1.0634  2.1775
  869MOL0     H14705  11.493  11.708   8.968 -5.6312  4.1084 -1.0628
  869MOL0     H14706  11.242  11.757   9.268  0.4421  0.6242 -0.7193
  869MOL0     H14707  11.214  11.326   8.487  0.7053  3.7892  0.9610
  869MOL0     H14708  11.078  11.288   8.290 -1.4023  1.6777 -0.0034
  870MOL0     O14709  11.247   3.749   8.074 -0.4036  0.1780  0.3264
  870MOL0     C14710  11.299   3.845   8.131 -0.2338  0.1666 -0.6894
  870MOL0     O14711  11.251   3.940   8.213  0.0347  0.1163  0.0750
  870MOL0     C14712  11.132   3.929   8.275  0.0081 -0.8792 -0.5152
  870MOL0     C14713  11.042   4.031   8.256 -0.0738 -0.2326 -0.2058
  870MOL0     C14714  10.917   4.030   8.326 -0.4403 -0.1928 -1.0327
  870MOL0     C14715  10.874   3.922   8.406 -0.5733 -0.0070 -0.7882
  870MOL0     O14716  10.753   3.898   8.455  0.2694  0.1209 -0.4651
  870MOL0     C14717  10.665   4.013   8.436  0.0968 -0.4804 -0.5014
  870MOL0     C14718  10.536   3.970   8.497 -0.0701 -1.3272 -0.3568
  870MOL0     C14719  10.441   4.080   8.495  0.3205 -0.4536 -0.0801
  870MOL0     C14720  10.308   4.038   8.581 -0.4910  0.3267 -0.3911
  870MOL0     C14721  10.221   4.155   8.618  0.4062 -0.3462 -0.0161
  870MOL0     C14722  10.155   4.204   8.492  0.7106  0.1244  0.4301
  870MOL0     C14723  10.015   4.264   8.505  0.6680  0.7375  0.4123
  870MOL0     C14724   9.985   4.383   8.594  0.9076 -1.2484  0.6400
  870MOL0     N14725   9.840   4.404   8.597 -0.3495  0.0247  0.6565
  870MOL0     C14726   9.766   4.351   8.698 -0.0811 -0.8436 -0.9646
  870MOL0     C14727   9.653   4.417   8.690  0.4341 -1.9371 -0.2037
  870MOL0     C14728   9.531   4.408   8.783 -0.0876 -0.6874 -0.0676
  870MOL0     C14729   9.484   4.267   8.780  0.5853  0.4964 -0.2328
  870MOL0     C14730   9.365   4.236   8.866 -0.8080 -0.6230  0.6983
  870MOL0     C14731   9.236   4.221   8.784 -0.0917  0.4084 -0.0374
  870MOL0     O14732   9.142   4.176   8.882 -0.3649 -0.0089  0.0737
  870MOL0     C14733   9.008   4.208   8.860  0.2295 -1.0888 -0.0099
  870MOL0     C14734   8.946   4.210   8.734 -0.0250 -0.6815  0.5137
  870MOL0     C14735   8.804   4.233   8.730  0.3817  0.0024  0.4067
  870MOL0     C14736   8.721   4.235   8.844 -0.2983  0.0418 -0.3579
  870MOL0     C14737   8.572   4.249   8.830  0.0710 -0.5213 -0.5706
  870MOL0     O14738   8.503   4.275   8.940  0.7572 -0.7095  0.7420
  870MOL0     C14739   8.368   4.300   8.940 -0.0790  0.1433 -0.2957
  870MOL0     C14740   8.290   4.247   9.041  0.6116  0.2580  0.9430
  870MOL0     C14741   8.152   4.256   9.031 -0.1610  0.1453 -0.3424
  870MOL0     C14742   8.086   4.322   8.935 -0.2335 -0.1319  0.9367
  870MOL0     O14743   7.946   4.342   8.964 -0.2797  0.2843  0.4830
  870MOL0     C14744   7.877   4.447   8.888 -0.2663  0.2851  0.1346
  870MOL0     C14745   7.737   4.463   8.945 -0.7564  0.6043  0.1695
  870MOL0     C14746   7.654   4.342   8.920  0.3494  0.0766 -0.4177
  870MOL0     C14747   7.508   4.372   8.971 -0.0961 -0.0471 -0.2134
  870MOL0     C14748   7.414   4.258   8.946  0.4362 -0.0810 -0.2505
  870MOL0     C14749   7.273   4.279   8.989  0.4230  0.5650 -0.1474
  870MOL0     C14750   7.178   4.169   8.927  0.6446  0.5240  0.9211
  870MOL0     C14751   7.026   4.185   8.948 -0.1008 -0.1028  0.1364
  870MOL0    Cl14752   6.960   4.325   8.863  0.2052  0.1047 -0.0754
  870MOL0     C14753   8.164   4.391   8.831 -0.0338 -0.1131 -0.2572
  870MOL0     C14754   8.301   4.385   8.846 -0.0841  1.5126  0.3618
  870MOL0     O14755   8.529   4.258   8.711 -0.5763  0.2394  0.3133
  870MOL0     C14756   8.791   4.242   8.965  0.5525 -0.0616  0.4701
  870MOL0     C14757   8.926   4.223   8.972  0.2945 -0.1073  0.3878
  870MOL0     N14758   9.648   4.504   8.584  0.2954 -0.0938 -0.3298
  870MOL0     N14759   9.768   4.500   8.528 -0.0394 -0.4451  0.0752
  870MOL0     C14760  10.977   3.828   8.424  0.2613 -0.4426  0.1153
  870MOL0     C14761  11.104   3.827   8.355 -0.0820  0.8049 -0.8464
  870MOL0     C14762  11.442   3.857   8.119 -0.3279  0.2876 -0.7286
  870MOL0     C14763  11.503   3.834   7.995 -0.1950  0.1354  0.0868
  870MOL0     C14764  11.639   3.835   7.983 -0.0069 -0.1899  0.2467
  870MOL0     C14765  11.717   3.845   8.096  0.1095  0.1146 -0.3681
  870MOL0     O14766  11.859   3.859   8.085 -0.0953  1.0100  0.1658
  870MOL0     C14767  11.918   3.901   7.961 -0.5883 -0.4235 -0.1148
  870MOL0     C14768  11.943   3.782   7.869  0.2883 -0.2625 -0.4483
  870MOL0     C14769  11.965   3.648   7.932  0.5070  0.8926 -0.0723
  870MOL0     C14770  12.008   3.542   7.834  1.7558 -0.0539 -1.3544
  870MOL0     C14771  12.145   3.570   7.789 -0.0069 -0.3145  0.3668
  870MOL0     C14772  12.254   3.583   7.735 -0.3911  0.4302 -0.0278
  870MOL0     C14773  11.661   3.858   8.224 -0.1325 -0.1404  0.3535
  870MOL0     C14774  11.523   3.873   8.236 -0.8807 -0.1642 -0.6332
  870MOL0     H14775  11.068   4.107   8.183 -0.0474 -0.0207  0.0250
  870MOL0     H14776  10.849   4.114   8.315  2.3193  2.3747 -0.1298
  870MOL0     H14777  10.644   4.037   8.331  2.1732  3.5532 -0.1705
  870MOL0     H14778  10.704   4.097   8.493  0.9836 -0.0326 -1.7425
  870MOL0     H14779  10.545   3.933   8.600 -1.9924  2.4890  1.3463
  870MOL0     H14780  10.502   3.880   8.444 -0.2111 -2.9831  2.3632
  870MOL0     H14781  10.413   4.105   8.392  0.7013 -2.4313 -0.7053
  870MOL0     H14782  10.485   4.170   8.539 -1.4239 -0.2720  1.3795
  870MOL0     H14783  10.256   3.968   8.516  0.6480  0.0658 -1.0468
  870MOL0     H14784  10.334   3.984   8.673 -1.0211  1.6045  0.5405
  870MOL0     H14785  10.274   4.232   8.675  1.6771 -1.5226  0.4380
  870MOL0     H14786  10.140   4.120   8.683  0.0904  0.6909  0.1678
  870MOL0     H14787  10.145   4.120   8.423  1.8478  0.9116 -0.7378
  870MOL0     H14788  10.218   4.273   8.434  1.9271 -0.6068  0.8455
  870MOL0     H14789   9.982   4.287   8.404 -0.5516  0.4912  0.7328
  870MOL0     H14790   9.941   4.185   8.526 -2.0201  2.5265 -1.6572
  870MOL0     H14791  10.036   4.475   8.562  0.5518 -1.0029  0.7809
  870MOL0     H14792  10.026   4.361   8.693 -1.3476 -0.1665  1.8909
  870MOL0     H14793   9.801   4.270   8.762 -1.2706  2.5834  4.7404
  870MOL0     H14794   9.455   4.483   8.758  0.2380 -0.2137  0.3190
  870MOL0     H14795   9.560   4.414   8.889 -0.2919 -1.1331  0.0150
  870MOL0     H14796   9.564   4.207   8.825 -0.3594  0.4625  1.5039
  870MOL0     H14797   9.461   4.234   8.679 -0.7297 -1.0315  0.5104
  870MOL0     H14798   9.376   4.129   8.887  0.1300 -0.8180 -0.6632
  870MOL0     H14799   9.354   4.296   8.956  2.5786 -1.3924  1.7540
  870MOL0     H14800   9.240   4.154   8.698 -2.1973 -0.7426  0.6876
  870MOL0     H14801   9.218   4.323   8.749  1.0484  0.5873 -0.1433
  870MOL0     H14802   9.021   4.216   8.656 -0.3930 -1.3939  0.0949
  870MOL0     H14803   8.773   4.235   8.626  3.3059 -2.0515 -0.6405
  870MOL0     H14804   8.327   4.195   9.128 -0.9663  1.8010  2.6163
  870MOL0     H14805   8.103   4.200   9.110 -1.9085 -0.2006 -1.6127
  870MOL0     H14806   7.871   4.421   8.782 -3.2318 -0.7449  0.4718
  870MOL0     H14807   7.937   4.538   8.901  0.3936 -0.5159  3.6558
  870MOL0     H14808   7.689   4.552   8.903 -1.9391 -0.2040 -0.2645
  870MOL0     H14809   7.756   4.485   9.050 -0.5261 -2.4554  0.8790
  870MOL0     H14810   7.697   4.251   8.963 -0.7374 -0.4781 -0.4515
  870MOL0     H14811   7.645   4.320   8.813 -1.2055 -0.3320 -0.2343
  870MOL0     H14812   7.519   4.385   9.079  0.4352  0.2179 -0.3013
  870MOL0     H14813   7.477   4.470   8.933  1.1710  0.0556 -1.0309
  870MOL0     H14814   7.451   4.162   8.983 -2.0228 -1.9520 -2.3052
  870MOL0     H14815   7.417   4.251   8.837  1.6813 -0.0263 -0.2392
  870MOL0     H14816   7.226   4.374   8.963  0.2566  0.0934 -1.6713
  870MOL0     H14817   7.265   4.258   9.096 -1.6664 -1.0383 -0.5514
  870MOL0     H14818   7.186   4.169   8.818  1.0446  0.0097  0.9460
  870MOL0     H14819   7.211   4.071   8.960 -0.1981 -0.0209  0.1817
  870MOL0     H14820   6.999   4.187   9.054 -3.3072  0.8260 -0.5825
  870MOL0     H14821   6.988   4.091   8.907  0.5576 -1.0663  1.6571
  870MOL0     H14822   8.109   4.454   8.762 -2.0414 -1.0719  0.3936
  870MOL0     H14823   8.374   4.427   8.778  2.0458 -1.5210  0.5817
  870MOL0     H14824   8.729   4.266   9.051 -0.2302  1.8366 -0.5648
  870MOL0     H14825   8.974   4.231   9.069  0.3445  1.5194  0.2527
  870MOL0     H14826  10.944   3.736   8.472 -0.5336 -0.1769  0.0906
  870MOL0     H14827  11.170   3.748   8.387 -2.5032 -1.8204 -1.9189
  870MOL0     H14828  11.451   3.811   7.902  1.0966  3.5971 -1.6967
  870MOL0     H14829  11.685   3.815   7.886 -0.2304  0.5384 -0.0166
  870MOL0     H14830  12.017   3.935   7.995  0.2661 -1.8765 -1.0242
  870MOL0     H14831  11.871   3.986   7.911  1.2559  0.9395  0.3262
  870MOL0     H14832  11.867   3.772   7.791 -0.4962 -0.6464  0.3446
  870MOL0     H14833  12.037   3.814   7.823  1.0692 -0.0849  1.1718
  870MOL0     H14834  11.869   3.615   7.972 -0.5410  4.1238  0.3574
  870MOL0     H14835  12.035   3.649   8.016 -2.6377 -0.0370  2.7825
  870MOL0     H14836  11.993   3.448   7.889 -4.0839  1.7486  0.9661
  870MOL0     H14837  11.935   3.538   7.752  2.4402 -3.7090 -1.9790
  870MOL0     H14838  12.340   3.597   7.673 -2.2559  2.0917 -2.4506
  870MOL0     H14839  11.727   3.861   8.309  0.5755 -1.0281 -0.1492
  870MOL0     H14840  11.481   3.882   8.336  0.5042 -1.6767  0.1404
  871MOL0     O14841   2.783   2.118   3.753 -0.1207  0.5248 -0.1663
  871MOL0     C14842   2.809   2.168   3.857  0.1488  1.2025  0.2910
  871MOL0     O14843   2.938   2.209   3.892 -0.1232 -0.1724  0.6038
  871MOL0     C14844   3.047   2.183   3.813 -0.4532  0.9990 -0.1056
  871MOL0     C14845   3.157   2.281   3.811 -0.0978  0.2720  0.8051
  871MOL0     C14846   3.270   2.249   3.739 -0.6731  0.0318 -0.3665
  871MOL0     C14847   3.289   2.132   3.668  0.0588  0.4350  0.6615
  871MOL0     O14848   3.404   2.106   3.590 -0.2803  0.9153  0.4049
  871MOL0     C14849   3.469   1.978   3.630  0.8456 -0.5763  0.2951
  871MOL0     C14850   3.604   1.981   3.579 -0.7622 -0.2255 -0.1482
  871MOL0     C14851   3.681   1.851   3.573 -0.2802 -0.3483 -0.8583
  871MOL0     C14852   3.828   1.876   3.532 -0.8956 -0.2289 -0.4773
  871MOL0     C14853   3.869   1.824   3.393 -0.0875 -0.0282  0.3004
  871MOL0     C14854   4.012   1.874   3.367 -0.4927 -0.7385  0.0194
  871MOL0     C14855   4.052   1.855   3.226  0.3819 -0.0258 -0.1040
  871MOL0     C14856   4.203   1.879   3.213  0.4034  0.9731  0.2437
  871MOL0     N14857   4.250   1.840   3.082  0.6531 -0.9882 -0.4180
  871MOL0     C14858   4.205   1.888   2.955  0.4606  0.5686 -0.1439
  871MOL0     C14859   4.286   1.824   2.867  0.7753  0.3503 -0.7664
  871MOL0     C14860   4.265   1.820   2.725  1.0095  0.0513 -0.1604
  871MOL0     C14861   4.277   1.960   2.677  0.5114 -1.0351  0.4000
  871MOL0     C14862   4.298   1.972   2.529 -0.2896 -0.1726  0.8555
  871MOL0     C14863   4.445   1.954   2.478 -0.3569 -0.9345  0.3368
  871MOL0     O14864   4.456   1.924   2.337 -0.5588 -0.0430  0.8818
  871MOL0     C14865   4.575   1.933   2.271 -0.9082  0.3107  0.3093
  871MOL0     C14866   4.560   1.940   2.134 -1.1237 -1.0497 -0.0184
  871MOL0     C14867   4.665   1.971   2.050 -0.7095 -0.0543  0.3222
  871MOL0     C14868   4.798   2.002   2.096 -0.8178 -0.5381 -0.3932
  871MOL0     C14869   4.906   2.058   2.008  0.0176 -0.1870  0.0500
  871MOL0     O14870   4.876   2.073   1.880  0.0747 -0.3271 -0.1395
  871MOL0     C14871   4.960   2.135   1.793  0.6257  0.3891  0.7604
  871MOL0     C14872   5.094   2.110   1.787 -0.2433 -0.9119  0.2370
  871MOL0     C14873   5.172   2.155   1.678 -1.1165  0.0672  0.2954
  871MOL0     C14874   5.118   2.232   1.579 -0.2293 -0.0641  0.6632
  871MOL0     O14875   5.190   2.276   1.466  0.5000 -1.0083 -0.3286
  871MOL0     C14876   5.318   2.329   1.490 -0.5705 -0.4866  0.6032
  871MOL0     C14877   5.353   2.437   1.395 -0.0227  0.2966 -0.0107
  871MOL0     C14878   5.278   2.572   1.434  0.0207  0.0956  0.1912
  871MOL0     C14879   5.277   2.664   1.312 -0.6221  0.4048  0.0336
  871MOL0     C14880   5.209   2.794   1.326 -0.4298  0.8827 -0.0837
  871MOL0     C14881   5.288   2.876   1.431 -0.2366  0.5917  0.5973
  871MOL0     C14882   5.263   3.031   1.426 -0.0949 -0.0737 -0.1650
  871MOL0     C14883   5.215   3.084   1.558  0.1919  0.6820  0.0422
  871MOL0    Cl14884   5.040   3.033   1.597 -0.0139  0.4474 -0.0121
  871MOL0     C14885   4.977   2.252   1.588 -0.1571 -0.1226  0.2107
  871MOL0     C14886   4.901   2.213   1.694 -0.1086 -0.3190 -0.3582
  871MOL0     O14887   5.012   2.092   2.061  1.0124  0.0436  0.1334
  871MOL0     C14888   4.820   1.988   2.235  0.4822  0.5136  0.7684
  871MOL0     C14889   4.708   1.963   2.322  0.8837 -0.2434  0.4087
  871MOL0     N14890   4.350   1.722   2.933  0.4807 -0.0539  0.5125
  871MOL0     N14891   4.331   1.733   3.062  0.2857  0.5274 -0.8647
  871MOL0     C14892   3.184   2.036   3.666 -0.1566 -0.8526 -0.1516
  871MOL0     C14893   3.073   2.056   3.752  0.8183  0.2913 -0.1786
  871MOL0     C14894   2.690   2.212   3.939 -0.0308  0.6378  0.7604
  871MOL0     C14895   2.556   2.213   3.894  0.6293  1.1143  0.3269
  871MOL0     C14896   2.447   2.254   3.976 -0.7865  0.0554  0.8320
  871MOL0     C14897   2.477   2.292   4.109  0.3949  0.8682 -0.4639
  871MOL0     O14898   2.376   2.336   4.191 -0.4297  0.6691  0.0077
  871MOL0     C14899   2.283   2.428   4.145 -0.5258 -0.0139  0.3533
  871MOL0     C14900   2.239   2.512   4.270  0.2279 -0.1879 -0.4257
  871MOL0     C14901   2.226   2.423   4.394  0.6078  0.1461  0.3488
  871MOL0     C14902   2.135   2.494   4.493 -0.5902 -0.2450 -0.5137
  871MOL0     C14903   2.119   2.430   4.621  0.2702  0.2102  0.0279
  871MOL0     C14904   2.107   2.366   4.728 -0.2419 -0.8208  0.3381
  871MOL0     C14905   2.604   2.268   4.154  0.3406  0.7468 -0.4659
  871MOL0     C14906   2.711   2.234   4.073  0.2081  0.2642  0.2555
  871MOL0     H14907   3.137   2.368   3.872 -0.8701  0.8553 -0.2380
  871MOL0     H14908   3.355   2.317   3.733  0.7446 -1.6535 -0.5024
  871MOL0     H14909   3.414   1.897   3.581  1.5670  0.6983 -2.8827
  871MOL0     H14910   3.475   1.958   3.738  0.3621  0.3073  0.4985
  871MOL0     H14911   3.653   2.050   3.648 -1.6392  1.7445 -1.3973
  871MOL0     H14912   3.600   2.025   3.479 -1.4522  1.7226  0.6787
  871MOL0     H14913   3.642   1.779   3.501  0.6649 -2.6624  0.8154
  871MOL0     H14914   3.670   1.797   3.667  1.0845 -1.3877 -1.2713
  871MOL0     H14915   3.860   1.978   3.554  1.2623 -1.3786  2.3719
  871MOL0     H14916   3.888   1.812   3.597 -4.1184 -1.3629  1.6319
  871MOL0     H14917   3.796   1.866   3.324 -0.6785 -1.0079  0.3057
  871MOL0     H14918   3.853   1.716   3.390  1.2458 -0.2797  1.1351
  871MOL0     H14919   4.082   1.836   3.442 -0.7438  1.1267  1.2780
  871MOL0     H14920   4.000   1.982   3.377 -1.2147 -0.8933  0.8914
  871MOL0     H14921   4.023   1.753   3.196 -1.5138  0.2953  0.5081
  871MOL0     H14922   3.991   1.924   3.168  0.0999  0.1814  0.4340
  871MOL0     H14923   4.261   1.817   3.282  3.5286  0.2436 -2.7534
  871MOL0     H14924   4.230   1.982   3.238  0.9035  0.8680  0.1515
  871MOL0     H14925   4.129   1.962   2.933  0.6990  1.0731  0.6787
  871MOL0     H14926   4.167   1.775   2.709 -0.7339  3.4826 -0.0380
  871MOL0     H14927   4.340   1.750   2.687  0.1757 -1.4598  0.8723
  871MOL0     H14928   4.359   2.016   2.724 -0.4057  2.0553 -1.4015
  871MOL0     H14929   4.181   2.006   2.698 -0.2125 -1.3203 -2.0602
  871MOL0     H14930   4.249   1.884   2.486  0.9732 -1.2441  1.5470
  871MOL0     H14931   4.262   2.072   2.505  0.5707  0.4058  1.9071
  871MOL0     H14932   4.507   1.888   2.538  1.3305 -1.0919 -1.4586
  871MOL0     H14933   4.501   2.047   2.497 -2.4947  0.4519  0.1923
  871MOL0     H14934   4.461   1.924   2.094 -1.2668  1.8778 -1.0764
  871MOL0     H14935   4.640   1.972   1.944  2.6608 -1.5155 -0.6256
  871MOL0     H14936   5.142   2.062   1.872 -0.6006 -0.3013  0.7859
  871MOL0     H14937   5.277   2.130   1.677 -0.9267  0.4003  3.3837
  871MOL0     H14938   5.375   2.240   1.461 -2.8197 -2.0217  0.6212
  871MOL0     H14939   5.341   2.354   1.594  2.0200 -0.6912  0.1426
  871MOL0     H14940   5.333   2.405   1.293  2.4264  3.7937 -1.7595
  871MOL0     H14941   5.460   2.457   1.407 -0.3255  1.0438  1.9426
  871MOL0     H14942   5.321   2.627   1.518  1.2415  0.3456 -0.5717
  871MOL0     H14943   5.174   2.543   1.452 -0.0707 -2.6830 -3.6365
  871MOL0     H14944   5.383   2.676   1.288 -0.4405  0.5174  0.8529
  871MOL0     H14945   5.234   2.611   1.227  0.0633 -0.8646  0.4511
  871MOL0     H14946   5.104   2.779   1.353  0.1774  0.4540  2.2549
  871MOL0     H14947   5.207   2.843   1.228 -2.0586  0.0059 -0.5332
  871MOL0     H14948   5.395   2.863   1.411  0.0553 -1.2740  2.9006
  871MOL0     H14949   5.263   2.839   1.531 -1.0040  2.2437  1.0342
  871MOL0     H14950   5.361   3.079   1.419 -0.2551  0.8262  2.7391
  871MOL0     H14951   5.193   3.059   1.347 -0.3830 -3.7524 -1.4292
  871MOL0     H14952   5.219   3.193   1.560 -0.9404  0.7404 -0.1819
  871MOL0     H14953   5.272   3.052   1.646 -0.7469  0.5198  0.6120
  871MOL0     H14954   4.936   2.320   1.514  0.3574  1.4759  1.3554
  871MOL0     H14955   4.793   2.219   1.694 -0.0384  4.9293  0.8858
  871MOL0     H14956   4.919   2.006   2.276  0.4971 -0.2901  1.0947
  871MOL0     H14957   4.723   1.961   2.429 -1.9097 -0.3016  0.8936
  871MOL0     H14958   3.197   1.938   3.622  4.8260 -1.4518  2.0381
  871MOL0     H14959   3.000   1.976   3.761  0.8301  0.4324  1.3099
  871MOL0     H14960   2.529   2.187   3.792 -0.1520  0.6773  0.6349
  871MOL0     H14961   2.346   2.273   3.940 -0.6918 -2.7765 -1.2497
  871MOL0     H14962   2.199   2.380   4.094 -2.7476 -0.8619  4.3417
  871MOL0     H14963   2.326   2.496   4.071  0.0289 -1.3545 -0.5974
  871MOL0     H14964   2.312   2.590   4.291  1.0938 -0.7855 -1.1330
  871MOL0     H14965   2.143   2.552   4.236  1.0340  0.4346 -2.0852
  871MOL0     H14966   2.321   2.396   4.440  1.4188  2.5594  0.2422
  871MOL0     H14967   2.181   2.327   4.367 -1.8513  0.5533  2.5190
  871MOL0     H14968   2.174   2.592   4.519 -0.8767 -0.3290  0.2581
  871MOL0     H14969   2.036   2.493   4.446  0.0053 -0.3047 -1.7997
  871MOL0     H14970   2.087   2.313   4.819  1.1675 -2.7617 -0.4055
  871MOL0     H14971   2.624   2.274   4.261  2.6162 -4.2872 -0.3083
  871MOL0     H14972   2.805   2.228   4.126  0.1187 -0.4590  0.3408
  872MOL0     O14973   2.841   0.523   4.989  0.2855  0.0358 -0.4019
  872MOL0     C14974   2.892   0.466   4.894  0.1213  0.1214 -0.5796
  872MOL0     O14975   2.831   0.371   4.811 -0.2582 -0.1163  0.1152
  872MOL0     C14976   2.696   0.373   4.789 -0.1181  0.4170  0.7886
  872MOL0     C14977   2.587   0.440   4.848  0.1267  0.6554 -0.5176
  872MOL0     C14978   2.454   0.399   4.836  0.0945  0.0610 -0.2894
  872MOL0     C14979   2.424   0.312   4.734  0.6576  0.0906  0.1860
  872MOL0     O14980   2.300   0.271   4.698  0.2828  0.5002  0.1055
  872MOL0     C14981   2.184   0.314   4.770  0.6151 -0.2285 -1.2421
  872MOL0     C14982   2.062   0.292   4.690  0.7821 -0.0429 -0.3218
  872MOL0     C14983   1.953   0.395   4.730 -0.5237  0.2112 -0.1563
  872MOL0     C14984   1.878   0.362   4.871  0.0858  0.8185 -1.0831
  872MOL0     C14985   1.740   0.422   4.899 -0.0451  0.2659  0.1304
  872MOL0     C14986   1.739   0.574   4.879 -0.3976  0.2828 -0.4964
  872MOL0     C14987   1.610   0.644   4.933  0.1565 -0.2979  0.3386
  872MOL0     C14988   1.605   0.636   5.080 -0.0350  0.9447  0.1096
  872MOL0     N14989   1.514   0.726   5.146 -0.2717  0.2042 -0.4977
  872MOL0     C14990   1.387   0.728   5.118  0.1591 -0.2038  0.0192
  872MOL0     C14991   1.326   0.825   5.190  0.8232 -0.1147 -0.4837
  872MOL0     C14992   1.174   0.849   5.183  0.1430 -0.1736  0.5473
  872MOL0     C14993   1.126   0.977   5.253 -0.4095  0.0983  0.1709
  872MOL0     C14994   0.989   1.034   5.199 -0.4884  0.3495 -0.8738
  872MOL0     C14995   0.956   1.164   5.267  0.2541 -0.2059  0.2648
  872MOL0     O14996   0.852   1.225   5.186 -0.3077  0.1337  0.6312
  872MOL0     C14997   0.738   1.286   5.243 -0.3421  0.2157 -0.8033
  872MOL0     C14998   0.686   1.387   5.163 -0.1384  0.3216  0.7395
  872MOL0     C14999   0.577   1.463   5.204 -1.0628 -0.0958 -0.0200
  872MOL0     C15000   0.521   1.436   5.334  0.4055  0.2101  0.0380
  872MOL0     C15001   0.402   1.515   5.380 -0.2804 -0.0871  0.2782
  872MOL0     O15002   0.338   1.473   5.487 -0.1598 -0.2926 -1.3189
  872MOL0     C15003   0.206   1.524   5.517 -0.4196  0.3119  0.0132
  872MOL0     C15004   0.162   1.516   5.653 -0.9074 -1.1578 -0.2251
  872MOL0     C15005   0.038   1.552   5.696 -0.1984 -0.5068  0.5925
  872MOL0     C15006  -0.058   1.600   5.604 -0.5280 -0.6163  0.1535
  872MOL0     O15007  -0.185   1.648   5.627 -0.4793 -0.6205 -0.2989
  872MOL0     C15008  -0.223   1.664   5.764  0.0022 -0.4260  0.1751
  872MOL0     C15009  -0.333   1.771   5.756  0.0434  0.0586  0.2166
  872MOL0     C15010  -0.455   1.705   5.673  0.1780  0.8834 -0.5395
  872MOL0     C15011  -0.567   1.810   5.700  0.7133 -0.8642  0.1546
  872MOL0     C15012  -0.682   1.774   5.610 -0.1850 -0.1601  0.7445
  872MOL0     C15013  -0.806   1.858   5.643 -0.1710 -0.1445  0.0544
  872MOL0     C15014  -0.931   1.822   5.567 -0.1349 -0.1831  0.1553
  872MOL0     C15015  -1.055   1.897   5.611  0.7297 -0.1063 -0.1361
  872MOL0    Cl15016  -1.148   1.931   5.463 -0.3219 -0.1848  0.1435
  872MOL0     C15017  -0.025   1.613   5.467 -1.3540  0.4715  0.1553
  872MOL0     C15018   0.106   1.584   5.421 -0.4134  0.6206 -0.1183
  872MOL0     O15019   0.381   1.614   5.319  0.0451 -0.0912 -0.0098
  872MOL0     C15020   0.561   1.323   5.403 -0.1756  0.3743 -0.0791
  872MOL0     C15021   0.668   1.243   5.362 -0.4279  0.2675 -0.2563
  872MOL0     N15022   1.431   0.897   5.245 -0.2541  0.0937 -0.3653
  872MOL0     N15023   1.549   0.831   5.227  0.7111 -0.2882 -0.9778
  872MOL0     C15024   2.525   0.248   4.661  0.2819  0.7940  0.3268
  872MOL0     C15025   2.664   0.277   4.682 -0.6200  0.4244  0.1831
  872MOL0     C15026   3.041   0.490   4.861  0.3670 -0.6143 -0.9361
  872MOL0     C15027   3.124   0.562   4.950 -1.1820 -0.1120 -0.4712
  872MOL0     C15028   3.257   0.584   4.923 -0.7535  0.0846  0.6834
  872MOL0     C15029   3.322   0.546   4.807  0.2961 -0.7177 -0.5802
  872MOL0     O15030   3.457   0.577   4.786 -0.0287  0.2684  0.2794
  872MOL0     C15031   3.474   0.626   4.645 -0.4948  0.6337  0.2254
  872MOL0     C15032   3.601   0.697   4.631 -0.2167  0.4917  0.5460
  872MOL0     C15033   3.720   0.623   4.564  0.3150 -0.5080 -0.8248
  872MOL0     C15034   3.820   0.739   4.522  0.4034 -0.0932 -0.3709
  872MOL0     C15035   3.961   0.692   4.522 -0.2980 -0.2083 -0.0290
  872MOL0     C15036   4.070   0.640   4.516  0.2444 -0.6238  0.7694
  872MOL0     C15037   3.234   0.473   4.719 -0.2088 -0.2535 -0.5297
  872MOL0     C15038   3.098   0.444   4.743  0.1324  0.3043 -0.4783
  872MOL0     H15039   2.596   0.526   4.913  1.0994  2.1187 -2.5110
  872MOL0     H15040   2.385   0.455   4.898  1.0787  1.1813 -0.1713
  872MOL0     H15041   2.198   0.420   4.792  2.5565 -1.0172  2.2141
  872MOL0     H15042   2.185   0.272   4.871 -2.6640  3.0954  0.3963
  872MOL0     H15043   2.017   0.192   4.686  2.7117 -0.9857  0.1087
  872MOL0     H15044   2.091   0.307   4.586 -0.2738  0.3497 -0.5653
  872MOL0     H15045   1.883   0.403   4.647 -2.1640 -0.5691  1.0841
  872MOL0     H15046   1.990   0.497   4.737  1.5889 -0.4190 -1.2984
  872MOL0     H15047   1.873   0.254   4.882 -1.4088  0.7505 -2.1449
  872MOL0     H15048   1.941   0.403   4.951 -1.6985 -1.3447  1.5948
  872MOL0     H15049   1.724   0.402   5.005 -4.1570  0.2552 -0.3152
  872MOL0     H15050   1.657   0.377   4.844  0.0584  2.2521 -1.8105
  872MOL0     H15051   1.741   0.580   4.770  0.5026 -0.5037 -0.5355
  872MOL0     H15052   1.825   0.626   4.922 -1.2436  0.7359  0.7010
  872MOL0     H15053   1.603   0.745   4.891 -2.3377 -0.5977 -0.1095
  872MOL0     H15054   1.519   0.590   4.909 -1.3054 -0.3480  5.0476
  872MOL0     H15055   1.705   0.667   5.112  0.7001  0.5023 -1.6388
  872MOL0     H15056   1.599   0.537   5.125  0.2986  0.7936 -0.1664
  872MOL0     H15057   1.340   0.654   5.055 -0.0454  1.4427 -1.8506
  872MOL0     H15058   1.108   0.770   5.220 -0.7738  0.6986  0.8353
  872MOL0     H15059   1.159   0.865   5.076 -1.5227  3.3153  1.1342
  872MOL0     H15060   1.205   1.053   5.254  0.0493 -0.3574  1.5410
  872MOL0     H15061   1.111   0.955   5.359 -1.4784 -1.2261 -0.2353
  872MOL0     H15062   1.012   1.051   5.094  1.7383 -3.7938 -1.3101
  872MOL0     H15063   0.906   0.963   5.200 -2.2233  2.2580  1.4595
  872MOL0     H15064   1.050   1.218   5.280  0.6062 -0.9562  0.9052
  872MOL0     H15065   0.910   1.151   5.365  0.7294  1.6728  0.7768
  872MOL0     H15066   0.720   1.421   5.065 -3.6691  0.7225 -0.4847
  872MOL0     H15067   0.525   1.535   5.141 -1.9410 -1.6024 -1.0647
  872MOL0     H15068   0.241   1.486   5.721 -1.2771  0.4856  0.9850
  872MOL0     H15069   0.020   1.547   5.803 -2.5717 -1.2133  0.2073
  872MOL0     H15070  -0.141   1.707   5.822 -0.1177  2.4418 -1.5972
  872MOL0     H15071  -0.256   1.574   5.816 -0.5778  1.0199  2.4497
  872MOL0     H15072  -0.305   1.860   5.698 -3.8553 -0.3223 -2.7116
  872MOL0     H15073  -0.364   1.801   5.856  1.3166 -2.0221  1.2895
  872MOL0     H15074  -0.481   1.605   5.709  0.8124  1.2022  0.8912
  872MOL0     H15075  -0.428   1.707   5.567 -0.8137 -0.3245 -0.8374
  872MOL0     H15076  -0.591   1.823   5.806 -0.1243  0.5755 -0.1849
  872MOL0     H15077  -0.536   1.912   5.675 -0.7564 -1.0332 -2.7907
  872MOL0     H15078  -0.711   1.668   5.606 -4.9827  0.9431 -2.0712
  872MOL0     H15079  -0.650   1.784   5.505  0.2641 -3.0113  0.5255
  872MOL0     H15080  -0.783   1.963   5.620 -0.5692  0.1410  0.9402
  872MOL0     H15081  -0.831   1.854   5.749 -0.5191 -1.9124 -0.0703
  872MOL0     H15082  -0.904   1.858   5.468 -1.7489  1.6517  0.3313
  872MOL0     H15083  -0.946   1.714   5.577 -1.4938 -0.0935 -0.6962
  872MOL0     H15084  -1.026   1.991   5.659  0.5311  0.7416 -1.6215
  872MOL0     H15085  -1.110   1.831   5.680 -0.0691 -1.2893 -1.8431
  872MOL0     H15086  -0.095   1.646   5.391 -1.0447  1.1002  0.1316
  872MOL0     H15087   0.132   1.590   5.316 -3.8106 -1.6316 -1.2653
  872MOL0     H15088   0.510   1.287   5.491 -1.0519  1.0202 -0.3075
  872MOL0     H15089   0.695   1.156   5.421  2.1619  1.3956  0.3672
  872MOL0     H15090   2.503   0.183   4.577  0.1877  1.3221 -0.0705
  872MOL0     H15091   2.737   0.229   4.619 -0.3550  1.9524 -0.7290
  872MOL0     H15092   3.087   0.599   5.045  2.1035  4.0840 -0.5748
  872MOL0     H15093   3.321   0.632   4.996  0.9850  0.6084 -1.0881
  872MOL0     H15094   3.397   0.703   4.636 -0.5256  0.4679 -1.1693
  872MOL0     H15095   3.444   0.549   4.574  1.9300  0.9807 -1.3129
  872MOL0     H15096   3.584   0.785   4.568 -2.8641 -0.6162 -0.4133
  872MOL0     H15097   3.625   0.744   4.727 -1.6752  0.4508  0.9514
  872MOL0     H15098   3.687   0.565   4.477  2.5875  0.1781 -2.2302
  872MOL0     H15099   3.769   0.545   4.623  2.9012 -0.6864 -2.9954
  872MOL0     H15100   3.782   0.781   4.428  0.6345 -0.3488 -0.5804
  872MOL0     H15101   3.812   0.820   4.595  2.1224  0.5970 -0.9107
  872MOL0     H15102   4.167   0.596   4.510 -0.2899 -1.7229 -0.1611
  872MOL0     H15103   3.282   0.435   4.629 -4.4782 -0.7561 -2.8446
  872MOL0     H15104   3.050   0.385   4.666  0.0242 -0.2721  0.0258
  873MOL0     O15105   8.239   0.917   5.574  0.1353  0.8749  0.9364
  873MOL0     C15106   8.264   0.923   5.693 -0.6225 -0.0524  0.6774
  873MOL0     O15107   8.175   0.951   5.788  0.2188  0.3485  0.3727
  873MOL0     C15108   8.044   0.975   5.752  0.2305 -1.1668  0.9007
  873MOL0     C15109   7.972   0.864   5.757  0.4763  0.2642  0.6209
  873MOL0     C15110   7.838   0.877   5.719 -0.1083 -0.1823  0.3327
  873MOL0     C15111   7.776   0.997   5.672 -0.2170 -0.1183 -1.1699
  873MOL0     O15112   7.648   0.987   5.636  0.1001 -0.5956  0.2086
  873MOL0     C15113   7.574   1.075   5.546 -0.3082 -0.6293 -0.9499
  873MOL0     C15114   7.512   0.995   5.434  0.2608 -0.2612 -0.4399
  873MOL0     C15115   7.392   1.068   5.367 -0.4564 -1.1984  0.8240
  873MOL0     C15116   7.321   0.975   5.265  0.6267  0.1133  0.1788
  873MOL0     C15117   7.211   1.045   5.182 -0.1675 -0.9159  0.0863
  873MOL0     C15118   7.154   0.948   5.073 -1.1269 -0.7194  1.0516
  873MOL0     C15119   7.004   0.977   5.050  0.5419 -0.6172  0.7108
  873MOL0     C15120   6.947   0.893   4.923  0.5250  0.1948  0.1493
  873MOL0     N15121   6.802   0.882   4.934  1.2501 -0.1668 -0.6425
  873MOL0     C15122   6.725   0.995   4.959 -0.4630 -0.5141  0.3017
  873MOL0     C15123   6.598   0.951   4.973 -0.5227  1.0515  0.5094
  873MOL0     C15124   6.478   1.031   5.003  0.2650 -0.0563  0.4924
  873MOL0     C15125   6.424   1.085   4.873 -0.7912 -0.5063  0.4668
  873MOL0     C15126   6.349   1.213   4.906 -0.1176 -0.6470 -0.3332
  873MOL0     C15127   6.228   1.176   4.984  0.7628 -0.1949  0.7022
  873MOL0     O15128   6.175   1.290   5.033 -0.4072 -0.7306 -0.6027
  873MOL0     C15129   6.041   1.303   5.044 -0.0422  0.6137  0.4823
  873MOL0     C15130   5.958   1.238   5.136 -0.7703  1.0375  0.8864
  873MOL0     C15131   5.815   1.263   5.134  0.0839  0.3170 -0.3016
  873MOL0     C15132   5.763   1.355   5.040  0.2913 -0.3610  0.7703
  873MOL0     C15133   5.618   1.400   5.039 -0.6036 -0.9953  0.1922
  873MOL0     O15134   5.545   1.347   5.146 -0.2780  0.2998 -0.2878
  873MOL0     C15135   5.414   1.378   5.161 -0.4516 -0.3537 -0.6935
  873MOL0     C15136   5.355   1.498   5.167 -0.7989 -0.5598 -0.5063
  873MOL0     C15137   5.215   1.516   5.188  0.1458 -0.1206 -0.1036
  873MOL0     C15138   5.127   1.401   5.207 -0.3433  0.2936 -0.3689
  873MOL0     O15139   4.989   1.404   5.224 -0.6805  0.5417  0.2867
  873MOL0     C15140   4.936   1.368   5.351  0.8903 -0.6648  0.0718
  873MOL0     C15141   4.786   1.361   5.334  0.4728  0.1466 -0.6757
  873MOL0     C15142   4.718   1.313   5.458 -0.0785  0.1965  0.0336
  873MOL0     C15143   4.716   1.411   5.569  0.3993  0.2681  0.0991
  873MOL0     C15144   4.617   1.377   5.682  0.7775 -0.6704 -0.1242
  873MOL0     C15145   4.625   1.228   5.712 -0.1038  0.1080 -0.8323
  873MOL0     C15146   4.528   1.180   5.820 -0.1137  0.0877 -0.3779
  873MOL0     C15147   4.553   1.240   5.960 -0.9780 -0.3446 -0.4328
  873MOL0    Cl15148   4.463   1.149   6.093 -0.1900 -0.0469 -0.3427
  873MOL0     C15149   5.201   1.287   5.200  0.4552  0.1840 -0.3084
  873MOL0     C15150   5.334   1.270   5.177  0.9135  0.5181  0.2574
  873MOL0     O15151   5.585   1.491   4.957  0.5490  0.6426  0.1899
  873MOL0     C15152   5.849   1.419   4.948 -0.0265 -0.0530  0.3799
  873MOL0     C15153   5.985   1.399   4.950 -0.1648 -0.1102  0.0151
  873MOL0     N15154   6.607   0.811   4.978 -0.7009 -0.1349 -0.3681
  873MOL0     N15155   6.727   0.771   4.951  0.0301  0.4851 -0.5817
  873MOL0     C15156   7.854   1.110   5.674  0.3772  1.4014  0.7659
  873MOL0     C15157   7.993   1.098   5.711  0.6674  0.4613 -0.4236
  873MOL0     C15158   8.400   0.897   5.741 -0.0794 -0.4594 -0.1796
  873MOL0     C15159   8.436   0.921   5.877  0.6211 -0.4360  0.9938
  873MOL0     C15160   8.563   0.888   5.917 -0.4363  0.1253  0.1237
  873MOL0     C15161   8.656   0.837   5.829 -0.2764  0.5974 -0.2030
  873MOL0     O15162   8.779   0.805   5.889  0.2235  0.8431  0.6635
  873MOL0     C15163   8.898   0.778   5.816 -0.0939  0.1193  0.8262
  873MOL0     C15164   9.006   0.712   5.915  0.1568  0.0614  0.4198
  873MOL0     C15165   8.963   0.578   5.966 -0.7028 -0.0334 -0.2955
  873MOL0     C15166   9.057   0.515   6.071  0.3228  0.3481 -0.1964
  873MOL0     C15167   9.191   0.491   6.030 -1.2685 -0.7538  0.3731
  873MOL0     C15168   9.301   0.470   5.978 -0.2473  0.3578 -0.2927
  873MOL0     C15169   8.621   0.807   5.698 -0.7204 -0.2597 -0.3146
  873MOL0     C15170   8.484   0.836   5.661  0.2398  1.1952  0.3447
  873MOL0     H15171   8.010   0.765   5.781 -0.5119 -0.3298 -0.2185
  873MOL0     H15172   7.769   0.793   5.727 -0.7218  0.4641  2.7825
  873MOL0     H15173   7.638   1.158   5.516 -1.0729  0.6725  0.8347
  873MOL0     H15174   7.507   1.129   5.614  1.8617 -0.4317  1.1623
  873MOL0     H15175   7.476   0.901   5.478  1.5630 -0.4748  0.2411
  873MOL0     H15176   7.583   0.967   5.355 -3.6356 -1.2611 -3.9430
  873MOL0     H15177   7.431   1.156   5.315 -3.7724 -0.6574 -1.0400
  873MOL0     H15178   7.322   1.103   5.445 -2.1582 -2.5303 -0.0298
  873MOL0     H15179   7.387   0.932   5.189 -0.2471 -0.4820 -0.2670
  873MOL0     H15180   7.276   0.891   5.319  0.7081 -0.6355 -0.8903
  873MOL0     H15181   7.256   1.131   5.131  2.1187 -2.9341 -1.5370
  873MOL0     H15182   7.127   1.087   5.239 -0.0839  4.5472 -3.1206
  873MOL0     H15183   7.167   0.846   5.110  0.9951 -0.3002  1.5838
  873MOL0     H15184   7.213   0.963   4.982 -0.6717 -0.1492  1.4306
  873MOL0     H15185   6.946   0.931   5.131 -0.2775 -3.7908 -1.4464
  873MOL0     H15186   6.981   1.083   5.038 -0.5931 -1.0651 -1.7508
  873MOL0     H15187   6.988   0.792   4.922 -0.8833 -0.4938  2.7020
  873MOL0     H15188   6.970   0.947   4.830  0.4585 -1.6249 -0.9868
  873MOL0     H15189   6.750   1.100   4.953 -3.0934  0.1823  0.1113
  873MOL0     H15190   6.503   1.110   5.074 -0.0761 -0.1980  0.7770
  873MOL0     H15191   6.404   0.971   5.057  0.9705  0.3253  1.9356
  873MOL0     H15192   6.350   1.018   4.828  0.9548 -1.9412 -0.3761
  873MOL0     H15193   6.496   1.101   4.794  0.4619 -1.5380  1.3580
  873MOL0     H15194   6.412   1.283   4.962 -0.3346 -1.6775  1.2434
  873MOL0     H15195   6.320   1.264   4.814  1.7329  1.8764  0.3659
  873MOL0     H15196   6.235   1.116   5.075  0.4673 -0.3438  0.6296
  873MOL0     H15197   6.158   1.128   4.916 -0.1930 -0.3439  1.7668
  873MOL0     H15198   6.001   1.169   5.208 -0.5825 -0.0241 -0.2064
  873MOL0     H15199   5.745   1.214   5.202  1.2510 -0.1676  0.5937
  873MOL0     H15200   5.412   1.590   5.159 -3.0547  1.3284  2.7834
  873MOL0     H15201   5.175   1.617   5.183  0.3861 -0.0726 -3.5763
  873MOL0     H15202   4.965   1.446   5.421 -3.7490  2.2383 -0.8074
  873MOL0     H15203   4.968   1.270   5.386 -0.2217 -0.9666  0.2890
  873MOL0     H15204   4.753   1.285   5.262 -0.0462  0.1292 -0.4273
  873MOL0     H15205   4.759   1.464   5.310  0.2770  0.1282 -0.5395
  873MOL0     H15206   4.772   1.225   5.494  1.5062  2.4395  3.7156
  873MOL0     H15207   4.615   1.280   5.442  0.4179 -1.0671 -0.6995
  873MOL0     H15208   4.820   1.429   5.598  0.7002  0.8009 -1.2543
  873MOL0     H15209   4.684   1.503   5.519  3.7352  0.3034 -2.2685
  873MOL0     H15210   4.513   1.402   5.659  0.7066 -2.3468 -1.7606
  873MOL0     H15211   4.635   1.445   5.766 -3.4108 -0.5815  0.9308
  873MOL0     H15212   4.727   1.197   5.734 -0.3568 -0.7546 -0.8119
  873MOL0     H15213   4.604   1.177   5.618  0.3629  1.0321 -1.4536
  873MOL0     H15214   4.427   1.209   5.791  0.4589  2.0659 -0.5284
  873MOL0     H15215   4.535   1.071   5.824 -0.4818  0.0783  2.7427
  873MOL0     H15216   4.525   1.346   5.958 -1.2984 -0.4468 -1.6746
  873MOL0     H15217   4.660   1.243   5.984 -1.3020  1.7641  1.0700
  873MOL0     H15218   5.150   1.192   5.197  0.5409  0.1536 -1.7717
  873MOL0     H15219   5.380   1.172   5.167  1.1909  0.4540  1.8341
  873MOL0     H15220   5.806   1.486   4.875 -0.3332  0.2980  0.8764
  873MOL0     H15221   6.049   1.456   4.883 -0.1186  0.0990  0.2367
  873MOL0     H15222   7.797   1.196   5.642 -3.3463 -0.8402  0.8189
  873MOL0     H15223   8.057   1.186   5.715  1.0440  0.2655 -1.6449
  873MOL0     H15224   8.362   0.958   5.947  1.1647 -0.7293  1.7297
  873MOL0     H15225   8.576   0.895   6.025 -0.7843 -3.0163  0.4506
  873MOL0     H15226   8.940   0.864   5.764 -0.4657  1.2842  2.3803
  873MOL0     H15227   8.885   0.699   5.740 -2.0412 -0.3317  1.5428
  873MOL0     H15228   9.093   0.687   5.854  0.4381 -1.3072  1.3461
  873MOL0     H15229   9.031   0.792   5.985 -1.5551  0.6987  0.3529
  873MOL0     H15230   8.967   0.500   5.889  1.9504 -3.4660  2.9435
  873MOL0     H15231   8.866   0.583   6.016 -0.3482 -1.3215  0.5875
  873MOL0     H15232   9.068   0.579   6.160 -1.2320 -1.0726  1.0876
  873MOL0     H15233   9.006   0.421   6.096 -1.0055  0.9616 -0.5149
  873MOL0     H15234   9.390   0.450   5.923  0.7678  0.7812  1.1256
  873MOL0     H15235   8.696   0.752   5.642 -1.6899 -0.9837 -0.9331
  873MOL0     H15236   8.450   0.821   5.559  2.3849  0.4867 -0.3287
  874MOL0     O15237   9.186   0.071   0.469  0.5974  0.4605 -0.2243
  874MOL0     C15238   9.247   0.149   0.403  0.7542  0.4775 -0.0016
  874MOL0     O15239   9.195   0.245   0.322 -0.4073  0.3947 -0.5582
  874MOL0     C15240   9.063   0.269   0.320 -0.6154 -0.0105  0.5498
  874MOL0     C15241   8.988   0.260   0.197 -0.0249 -0.3613  0.0715
  874MOL0     C15242   8.848   0.274   0.199 -0.5905  1.1199  0.6197
  874MOL0     C15243   8.776   0.316   0.309 -0.0594 -0.8175  1.1716
  874MOL0     O15244   8.642   0.315   0.307  0.0646 -0.0392  0.1056
  874MOL0     C15245   8.561   0.276   0.423  0.8065  0.2774 -0.2861
  874MOL0     C15246   8.444   0.384   0.437  0.1028  0.2150  0.4268
  874MOL0     C15247   8.330   0.334   0.520  0.6103 -0.0912 -0.5930
  874MOL0     C15248   8.229   0.453   0.529  0.1137  0.0124  0.2565
  874MOL0     C15249   8.092   0.400   0.588  0.1486 -0.4172 -0.1040
  874MOL0     C15250   8.009   0.317   0.494  0.0038  0.0867  0.1998
  874MOL0     C15251   7.880   0.248   0.549  0.3839  0.2084  0.2572
  874MOL0     C15252   7.772   0.352   0.592 -0.5590 -0.5837 -0.1988
  874MOL0     N15253   7.640   0.299   0.633  0.3793  0.5640  0.2610
  874MOL0     C15254   7.530   0.377   0.625  1.5950  0.5330  0.6796
  874MOL0     C15255   7.429   0.300   0.673 -0.1331  0.7114  0.9157
  874MOL0     C15256   7.280   0.345   0.676  0.1578 -0.1747 -0.4453
  874MOL0     C15257   7.202   0.255   0.769 -0.5829  0.6560  0.8177
  874MOL0     C15258   7.062   0.308   0.795 -0.2186 -0.4786  0.3464
  874MOL0     C15259   6.992   0.222   0.894 -0.0394 -0.2958 -0.0078
  874MOL0     O15260   6.858   0.260   0.908  0.5129 -0.4189  0.2359
  874MOL0     C15261   6.794   0.177   0.988 -0.4824  0.6626 -0.6358
  874MOL0     C15262   6.662   0.178   0.950 -1.1191  0.3948  0.9861
  874MOL0     C15263   6.564   0.104   1.006  0.3189  0.1198  0.2900
  874MOL0     C15264   6.602   0.020   1.118  0.3663  0.1876 -0.2123
  874MOL0     C15265   6.504  -0.054   1.198  0.0760  0.3399 -0.1151
  874MOL0     O15266   6.371  -0.031   1.168  0.8125 -0.0379 -0.2187
  874MOL0     C15267   6.265  -0.088   1.236  0.0070 -0.0851 -0.1202
  874MOL0     C15268   6.271  -0.181   1.344  0.2444 -0.9138  1.5296
  874MOL0     C15269   6.156  -0.223   1.401  0.2482 -0.7740 -0.5487
  874MOL0     C15270   6.028  -0.177   1.359 -0.5894  0.4348  0.8889
  874MOL0     O15271   5.910  -0.214   1.411  0.5201  0.8023  0.2050
  874MOL0     C15272   5.880  -0.351   1.453  0.7957  0.5983  0.0787
  874MOL0     C15273   5.735  -0.377   1.479 -0.3139  0.1977 -0.2793
  874MOL0     C15274   5.651  -0.365   1.346 -0.0040 -0.2511 -0.6399
  874MOL0     C15275   5.500  -0.406   1.376 -0.2844  0.1622 -0.4148
  874MOL0     C15276   5.413  -0.390   1.256  0.5428 -1.1610 -0.8667
  874MOL0     C15277   5.389  -0.520   1.184 -0.8334 -0.1784  0.3545
  874MOL0     C15278   5.290  -0.606   1.260 -0.8623  0.0969 -0.1895
  874MOL0     C15279   5.149  -0.579   1.200  0.0236 -1.5537  0.1640
  874MOL0    Cl15280   5.029  -0.669   1.299 -0.0082  0.0751  0.2379
  874MOL0     C15281   6.018  -0.093   1.247 -0.1986  0.1459  1.2452
  874MOL0     C15282   6.133  -0.043   1.188 -0.3675  0.1393 -1.1685
  874MOL0     O15283   6.555  -0.132   1.288  0.6888  0.0745  0.6172
  874MOL0     C15284   6.735   0.025   1.164 -1.1900 -0.0724  0.3638
  874MOL0     C15285   6.837   0.088   1.085 -0.6376 -0.9101  0.5905
  874MOL0     N15286   7.476   0.171   0.701  0.1578 -0.4993 -0.4637
  874MOL0     N15287   7.606   0.172   0.670  0.0301  0.2543 -0.2519
  874MOL0     C15288   8.847   0.335   0.425  0.3413  0.8064 -0.0979
  874MOL0     C15289   8.985   0.311   0.430  1.4162 -0.1165 -0.2437
  874MOL0     C15290   9.397   0.130   0.386 -0.4534  0.4127 -0.6708
  874MOL0     C15291   9.468   0.011   0.412  0.1244 -0.7329  0.2128
  874MOL0     C15292   9.603  -0.008   0.387  0.3345  0.1072 -0.1979
  874MOL0     C15293   9.689   0.096   0.368 -0.1076  0.6099 -0.0197
  874MOL0     O15294   9.820   0.061   0.365  0.1653  0.4197 -0.1927
  874MOL0     C15295   9.917   0.173   0.343 -0.0559 -0.4717  0.5995
  874MOL0     C15296  10.054   0.103   0.309  0.7669  0.1732 -0.8564
  874MOL0     C15297  10.165   0.155   0.406  0.1051 -0.1624 -0.7333
  874MOL0     C15298  10.304   0.126   0.350  0.8115 -0.1236  0.3838
  874MOL0     C15299  10.322  -0.021   0.357  0.0151 -0.0764 -0.0748
  874MOL0     C15300  10.341  -0.137   0.363  0.0803  0.3170 -0.5613
  874MOL0     C15301   9.630   0.221   0.345  0.2746  0.4956 -0.4447
  874MOL0     C15302   9.483   0.243   0.346  0.1776  0.2169 -0.3322
  874MOL0     H15303   9.043   0.249   0.104 -1.2066  0.9120 -0.7967
  874MOL0     H15304   8.790   0.264   0.107  1.0325  1.8113 -0.5261
  874MOL0     H15305   8.615   0.275   0.518 -2.7757  1.4529  1.9533
  874MOL0     H15306   8.524   0.174   0.408 -0.3526  0.1376  2.8548
  874MOL0     H15307   8.406   0.418   0.340 -1.7034  0.4385  1.1757
  874MOL0     H15308   8.489   0.474   0.481 -1.3693  2.0701 -1.6434
  874MOL0     H15309   8.364   0.312   0.621  2.3186  1.6982 -0.7290
  874MOL0     H15310   8.286   0.245   0.473 -3.5212 -0.4398  3.1936
  874MOL0     H15311   8.272   0.535   0.588 -0.8156 -0.5293  1.7363
  874MOL0     H15312   8.205   0.479   0.425 -0.3032 -0.5884  0.1994
  874MOL0     H15313   8.028   0.487   0.604 -3.0841 -2.4261 -1.0398
  874MOL0     H15314   8.103   0.345   0.681 -0.5689  1.6016  1.2521
  874MOL0     H15315   8.075   0.239   0.455  0.2060 -0.7252  2.0592
  874MOL0     H15316   7.981   0.376   0.406  2.4474  1.6742  0.4265
  874MOL0     H15317   7.831   0.196   0.466  1.0700 -1.4245  0.8384
  874MOL0     H15318   7.904   0.172   0.623  0.6666  0.1009  0.0579
  874MOL0     H15319   7.743   0.419   0.510  0.7299  1.0737  0.6434
  874MOL0     H15320   7.823   0.403   0.673  0.4274  0.3616 -1.3787
  874MOL0     H15321   7.536   0.478   0.585  1.7045  1.2431  2.3718
  874MOL0     H15322   7.242   0.328   0.574 -0.8354  0.2779 -0.1654
  874MOL0     H15323   7.277   0.451   0.703 -1.0618 -1.1025  3.6835
  874MOL0     H15324   7.251   0.247   0.867  1.8066 -1.1011 -0.4238
  874MOL0     H15325   7.207   0.156   0.724  1.7690  0.8205  0.6208
  874MOL0     H15326   7.072   0.415   0.814 -1.8895  0.2438 -2.3181
  874MOL0     H15327   6.999   0.304   0.706 -1.0712  1.5491  0.8055
  874MOL0     H15328   7.048   0.230   0.988 -1.6812  0.2837  0.9499
  874MOL0     H15329   6.986   0.116   0.866  0.8490 -0.1170 -0.9552
  874MOL0     H15330   6.631   0.232   0.861 -0.4887 -1.1637 -0.2107
  874MOL0     H15331   6.464   0.118   0.967  0.3922  0.3970  0.1931
  874MOL0     H15332   6.365  -0.231   1.367  0.4380 -0.2555  2.1878
  874MOL0     H15333   6.150  -0.312   1.463  0.7827 -0.6451 -0.3083
  874MOL0     H15334   5.930  -0.377   1.547 -2.3244 -0.5090  1.5760
  874MOL0     H15335   5.915  -0.430   1.386 -1.0003  0.1220 -0.3492
  874MOL0     H15336   5.702  -0.303   1.553 -0.8215  0.1887 -0.4900
  874MOL0     H15337   5.711  -0.477   1.517  0.4332  0.0458 -0.1895
  874MOL0     H15338   5.683  -0.422   1.258 -0.5841 -0.5290 -0.6717
  874MOL0     H15339   5.656  -0.259   1.321 -0.1189 -0.1624 -0.2876
  874MOL0     H15340   5.512  -0.509   1.411 -1.4292  0.0736 -0.2446
  874MOL0     H15341   5.455  -0.344   1.454 -0.8859  1.0475 -1.4368
  874MOL0     H15342   5.452  -0.312   1.189  0.3825 -0.1240  0.2196
  874MOL0     H15343   5.314  -0.355   1.286  1.0268 -1.1514  0.7968
  874MOL0     H15344   5.481  -0.577   1.166 -0.7493  0.8923 -3.4829
  874MOL0     H15345   5.351  -0.502   1.083  0.6010 -1.9383 -0.5595
  874MOL0     H15346   5.331  -0.708   1.262  2.5402  1.3595  0.4459
  874MOL0     H15347   5.281  -0.585   1.367 -0.2692 -1.6074  0.2262
  874MOL0     H15348   5.143  -0.626   1.101  0.9935  0.1496 -0.7595
  874MOL0     H15349   5.134  -0.473   1.177  1.3595 -0.9344  1.9513
  874MOL0     H15350   5.919  -0.062   1.215  0.2910 -0.0262 -0.5302
  874MOL0     H15351   6.139   0.040   1.118  1.1057  0.4205 -0.7457
  874MOL0     H15352   6.774  -0.011   1.258  2.0007  2.0824  0.0273
  874MOL0     H15353   6.943   0.076   1.104 -0.3763 -3.5227 -1.7449
  874MOL0     H15354   8.790   0.361   0.514  0.0446  2.3214 -0.7011
  874MOL0     H15355   9.043   0.322   0.521  3.0215 -4.1664 -0.5863
  874MOL0     H15356   9.414  -0.081   0.432 -1.2138 -0.2585 -0.9538
  874MOL0     H15357   9.647  -0.106   0.398  1.9389  0.6721 -1.2280
  874MOL0     H15358   9.929   0.227   0.438 -3.2414 -1.7111  1.8531
  874MOL0     H15359   9.882   0.248   0.271 -1.4483  0.1931  1.9095
  874MOL0     H15360  10.032  -0.004   0.315 -0.2795  0.4385  1.0543
  874MOL0     H15361  10.072   0.120   0.203  1.8716 -1.9217 -1.0529
  874MOL0     H15362  10.160   0.109   0.505 -0.5021  0.6528 -0.3738
  874MOL0     H15363  10.158   0.264   0.413 -1.9027 -0.2186 -1.0714
  874MOL0     H15364  10.322   0.148   0.244  0.2192  0.2756  0.3628
  874MOL0     H15365  10.378   0.180   0.410 -1.1478  1.4335  1.5257
  874MOL0     H15366  10.371  -0.236   0.393 -1.9349 -0.8949 -2.2236
  874MOL0     H15367   9.697   0.306   0.344  1.6742 -0.5686 -2.0450
  874MOL0     H15368   9.433   0.338   0.333  0.0551 -0.0425 -1.9337
  875MOL0     O15369   5.109   2.162   0.714  0.1902 -0.3791 -1.4823
  875MOL0     C15370   5.131   2.048   0.679  0.3747 -0.4900 -0.2912
  875MOL0     O15371   5.035   1.945   0.694 -0.7115  0.9636 -0.0134
  875MOL0     C15372   4.913   1.957   0.754  0.8956 -0.2161 -1.0092
  875MOL0     C15373   4.824   2.066   0.721  0.1079  0.0147 -0.5125
  875MOL0     C15374   4.694   2.075   0.769 -0.5513 -0.0938 -0.3044
  875MOL0     C15375   4.644   1.969   0.857  0.2950 -0.0644 -0.4254
  875MOL0     O15376   4.512   1.972   0.906 -0.0318 -1.3093  0.6322
  875MOL0     C15377   4.431   2.057   0.825 -0.0103  0.0076  0.4006
  875MOL0     C15378   4.283   2.044   0.888  0.0863  0.1573 -0.0755
  875MOL0     C15379   4.287   2.090   1.035 -0.5351  0.3281 -0.0787
  875MOL0     C15380   4.301   2.245   1.047 -0.4904  0.3191  0.3856
  875MOL0     C15381   4.226   2.294   1.168 -0.4514  1.0209  0.5441
  875MOL0     C15382   4.309   2.404   1.240 -0.0415 -0.1167 -0.6194
  875MOL0     C15383   4.238   2.467   1.359  0.3274  1.0215 -0.0307
  875MOL0     C15384   4.241   2.382   1.493  0.1161  0.2172 -0.7043
  875MOL0     N15385   4.178   2.435   1.620  0.2294 -0.1025  0.0562
  875MOL0     C15386   4.061   2.503   1.615  0.2199  0.4574  0.2887
  875MOL0     C15387   4.064   2.575   1.730 -0.3998  0.4078 -0.6027
  875MOL0     C15388   3.971   2.680   1.779 -1.0042 -1.1471  0.4919
  875MOL0     C15389   3.864   2.634   1.875 -0.1226 -0.1186 -0.2764
  875MOL0     C15390   3.918   2.615   2.029 -0.3150  0.2488  0.3590
  875MOL0     C15391   3.798   2.561   2.118  0.7508 -0.0139  0.4531
  875MOL0     O15392   3.721   2.464   2.051 -0.0496 -0.0491  0.4587
  875MOL0     C15393   3.611   2.435   2.130  0.3047  0.4434 -0.0037
  875MOL0     C15394   3.499   2.527   2.141 -0.1208  0.5762  0.0549
  875MOL0     C15395   3.387   2.482   2.201 -0.3741  0.1876  0.3675
  875MOL0     C15396   3.376   2.358   2.271  0.2720 -0.6055  1.3629
  875MOL0     C15397   3.250   2.305   2.325  0.0652  0.8258 -0.3393
  875MOL0     O15398   3.148   2.390   2.359 -0.8135  0.3640 -0.0342
  875MOL0     C15399   3.043   2.334   2.430 -0.3477 -1.0020  0.8741
  875MOL0     C15400   2.950   2.243   2.380 -0.5562  0.2799  0.2695
  875MOL0     C15401   2.832   2.199   2.445 -0.4603 -0.3793  1.1828
  875MOL0     C15402   2.802   2.239   2.568  1.3243  0.5532 -0.1172
  875MOL0     O15403   2.696   2.195   2.639  0.3120 -0.4399  0.2957
  875MOL0     C15404   2.576   2.153   2.568  0.0547 -0.4372  0.3360
  875MOL0     C15405   2.459   2.211   2.655 -1.0272  0.1702 -0.1979
  875MOL0     C15406   2.315   2.198   2.600  0.6564  0.2027 -0.2654
  875MOL0     C15407   2.198   2.224   2.682 -0.1502  0.0167 -0.4999
  875MOL0     C15408   2.188   2.374   2.739 -0.5559 -0.7154 -0.1099
  875MOL0     C15409   2.159   2.471   2.621  1.0048 -0.6813 -0.2018
  875MOL0     C15410   2.153   2.610   2.680  0.1524 -0.0909 -0.1251
  875MOL0     C15411   2.028   2.637   2.773  0.6094 -0.7055 -0.3865
  875MOL0    Cl15412   1.883   2.613   2.676  0.9078  0.1108  0.0557
  875MOL0     C15413   2.899   2.326   2.629  0.5296  0.3442  0.3632
  875MOL0     C15414   3.017   2.372   2.557  0.5108 -0.0629 -1.4771
  875MOL0     O15415   3.250   2.180   2.345 -0.0002  0.1741 -0.7837
  875MOL0     C15416   3.492   2.269   2.262 -0.4787 -0.7676 -0.2342
  875MOL0     C15417   3.607   2.309   2.192 -0.2656 -0.1925  0.3442
  875MOL0     N15418   4.181   2.555   1.792 -0.7262 -0.1827  0.2510
  875MOL0     N15419   4.242   2.458   1.736 -0.0875  0.5541 -0.4142
  875MOL0     C15420   4.735   1.873   0.902  1.4438 -0.7433 -0.1017
  875MOL0     C15421   4.861   1.864   0.846 -0.2484  0.2854 -0.4277
  875MOL0     C15422   5.256   2.007   0.617  0.3513 -0.1596  0.5541
  875MOL0     C15423   5.266   1.878   0.564  0.1690 -0.9239 -0.2245
  875MOL0     C15424   5.380   1.838   0.487  0.9210  0.3380 -1.1355
  875MOL0     C15425   5.492   1.922   0.492 -0.2157  0.2971  0.3890
  875MOL0     O15426   5.601   1.860   0.425 -0.6759 -0.7454  0.0105
  875MOL0     C15427   5.705   1.950   0.378  0.4771  0.5112  0.5932
  875MOL0     C15428   5.801   1.899   0.272 -0.2782 -0.5035  0.6174
  875MOL0     C15429   5.910   2.010   0.255 -0.9357  0.5362  0.0849
  875MOL0     C15430   6.018   1.968   0.147 -0.1025 -1.0295  0.8050
  875MOL0     C15431   5.966   1.981   0.005  0.2214 -0.7425  0.4612
  875MOL0     C15432   5.926   2.003  -0.104  0.4354 -0.3223  0.2723
  875MOL0     C15433   5.492   2.051   0.550 -1.0973  0.6191 -0.0097
  875MOL0     C15434   5.372   2.100   0.600  0.8679  0.2251 -0.2928
  875MOL0     H15435   4.850   2.151   0.658  0.8278 -0.4822 -0.9006
  875MOL0     H15436   4.629   2.155   0.734 -1.9719 -1.3215 -0.6221
  875MOL0     H15437   4.419   2.027   0.721 -2.5830  1.6140  0.1380
  875MOL0     H15438   4.466   2.159   0.845 -1.0281  0.9769 -2.3487
  875MOL0     H15439   4.239   1.945   0.874  0.6776  0.1502 -2.2449
  875MOL0     H15440   4.217   2.114   0.835  1.4446  1.3943 -0.1892
  875MOL0     H15441   4.364   2.034   1.088  1.9701 -3.1891 -6.3452
  875MOL0     H15442   4.184   2.068   1.063 -1.4519  1.2666 -2.4342
  875MOL0     H15443   4.408   2.265   1.055 -0.2721  0.0250 -1.3674
  875MOL0     H15444   4.277   2.292   0.951  0.1909  0.8734  0.4781
  875MOL0     H15445   4.191   2.215   1.236 -0.3069  0.6440  0.1835
  875MOL0     H15446   4.133   2.328   1.121 -1.0718 -0.3540  0.7163
  875MOL0     H15447   4.309   2.485   1.167 -2.8387  1.4004  0.8892
  875MOL0     H15448   4.408   2.363   1.263  0.0258 -1.0469 -2.4428
  875MOL0     H15449   4.266   2.572   1.375 -4.2908  2.1893  1.8856
  875MOL0     H15450   4.131   2.472   1.340  0.4029  0.1179 -0.7695
  875MOL0     H15451   4.349   2.372   1.507  0.1134  1.7267  0.6800
  875MOL0     H15452   4.196   2.285   1.470  0.2616 -0.0952  0.2864
  875MOL0     H15453   3.990   2.495   1.533 -3.0663 -0.1554  2.9529
  875MOL0     H15454   3.920   2.730   1.696  0.8552  1.1885  0.6427
  875MOL0     H15455   4.024   2.770   1.811  0.0641 -2.2101  1.8352
  875MOL0     H15456   3.827   2.544   1.825 -2.1898 -0.8539  2.3334
  875MOL0     H15457   3.786   2.709   1.880  1.4346  1.5404  0.0665
  875MOL0     H15458   3.995   2.537   2.029 -2.2432 -1.7902  2.5695
  875MOL0     H15459   3.959   2.708   2.071  0.7449 -1.1064  2.5096
  875MOL0     H15460   3.753   2.653   2.157 -3.0340 -1.5118  0.0426
  875MOL0     H15461   3.832   2.511   2.209 -2.2997 -0.7502  1.2985
  875MOL0     H15462   3.486   2.625   2.096 -0.0923  1.0244  0.9910
  875MOL0     H15463   3.304   2.551   2.198 -2.5192 -2.0846  2.2042
  875MOL0     H15464   2.983   2.193   2.289 -1.8777 -1.2958  0.5990
  875MOL0     H15465   2.775   2.118   2.402  0.4364 -0.0630 -0.7317
  875MOL0     H15466   2.584   2.044   2.576  0.4076 -0.2398  4.0716
  875MOL0     H15467   2.575   2.192   2.466  0.7713 -0.5202  0.2891
  875MOL0     H15468   2.481   2.314   2.687  0.0146 -0.1349  0.0913
  875MOL0     H15469   2.463   2.156   2.749  1.1817  1.1927  0.3710
  875MOL0     H15470   2.317   2.092   2.573  1.6402 -0.0898  0.8775
  875MOL0     H15471   2.311   2.252   2.505 -0.7123 -0.8202 -0.8205
  875MOL0     H15472   2.105   2.197   2.631  0.2484 -0.4223 -0.9999
  875MOL0     H15473   2.207   2.164   2.773  3.2797  0.7293 -0.2349
  875MOL0     H15474   2.284   2.403   2.784 -0.0457  2.9565 -3.0920
  875MOL0     H15475   2.115   2.375   2.820 -1.2877  3.1462 -0.6420
  875MOL0     H15476   2.061   2.459   2.573  0.9100 -0.0015 -0.1912
  875MOL0     H15477   2.234   2.461   2.542  2.1870 -1.5514  0.9869
  875MOL0     H15478   2.243   2.630   2.737  0.7365 -0.0588 -1.0391
  875MOL0     H15479   2.146   2.677   2.593  2.7940 -0.6946 -0.8929
  875MOL0     H15480   2.021   2.735   2.821 -0.1142 -0.8632 -0.1485
  875MOL0     H15481   2.025   2.561   2.852 -3.3675  0.8607  1.2560
  875MOL0     H15482   2.884   2.366   2.728  2.0879  3.3035 -0.4782
  875MOL0     H15483   3.091   2.438   2.601  0.0602  0.7995 -1.9850
  875MOL0     H15484   3.473   2.168   2.296  2.7986 -0.3436  3.6571
  875MOL0     H15485   3.686   2.236   2.178 -1.5824 -1.4151 -1.0932
  875MOL0     H15486   4.703   1.802   0.977 -0.3423  2.7681  2.7393
  875MOL0     H15487   4.929   1.785   0.875  3.9869  3.8631  0.4388
  875MOL0     H15488   5.187   1.804   0.573 -1.2721  0.0426 -3.4571
  875MOL0     H15489   5.374   1.745   0.432  0.0390 -1.2208  1.4465
  875MOL0     H15490   5.750   1.993   0.467 -3.3189  0.1990  2.9081
  875MOL0     H15491   5.657   2.036   0.330  1.8981 -0.6642 -3.3441
  875MOL0     H15492   5.853   1.807   0.303  0.8726 -0.5520 -1.2575
  875MOL0     H15493   5.752   1.899   0.174  0.7107  0.0977  0.1080
  875MOL0     H15494   5.964   2.023   0.350  0.5302  0.9616 -0.7756
  875MOL0     H15495   5.863   2.108   0.243 -0.4332  1.5621  4.4931
  875MOL0     H15496   6.110   2.025   0.161 -2.4883  2.7266  2.8939
  875MOL0     H15497   6.040   1.861   0.158  0.1797 -1.1394 -0.6540
  875MOL0     H15498   5.882   2.030  -0.197 -2.7334  0.8263  1.9631
  875MOL0     H15499   5.582   2.111   0.543  1.2048 -2.7049 -4.3316
  875MOL0     H15500   5.373   2.201   0.638 -0.1988 -0.8199  2.8101
  876MOL0     O15501   9.655   6.794   0.795  0.1343  0.1487  0.7266
  876MOL0     C15502   9.676   6.841   0.907  0.5560 -0.3028  0.3329
  876MOL0     O15503   9.593   6.839   1.016  0.2838  0.4102 -0.0081
  876MOL0     C15504   9.457   6.814   1.002 -0.4043  0.1241  0.6373
  876MOL0     C15505   9.391   6.724   0.904  0.3064  0.2097  0.6000
  876MOL0     C15506   9.247   6.719   0.899  0.7319 -0.5893  0.1512
  876MOL0     C15507   9.168   6.795   0.986 -0.7061 -0.7355  0.0090
  876MOL0     O15508   9.029   6.800   0.986 -0.0738  0.1623 -0.3700
  876MOL0     C15509   8.963   6.721   0.886 -0.1084  0.1481  0.5640
  876MOL0     C15510   8.950   6.799   0.758  0.3912  0.4281  0.8793
  876MOL0     C15511   8.873   6.931   0.767 -0.2669  0.4606  0.6854
  876MOL0     C15512   8.829   6.973   0.630  0.3450 -0.0102  0.2817
  876MOL0     C15513   8.765   7.110   0.617  0.3460  0.1078  0.8415
  876MOL0     C15514   8.656   7.138   0.714  0.7387  0.1357  0.5528
  876MOL0     C15515   8.552   7.242   0.664 -0.3327 -0.7322  0.5771
  876MOL0     C15516   8.585   7.391   0.676 -0.0331 -0.5355 -0.2810
  876MOL0     N15517   8.472   7.469   0.740  0.4734 -0.3353 -0.3341
  876MOL0     C15518   8.370   7.519   0.664 -0.0225 -0.1989  0.0562
  876MOL0     C15519   8.270   7.541   0.745  0.4694 -0.5634 -0.4642
  876MOL0     C15520   8.137   7.610   0.717  0.5348  0.6778  0.6502
  876MOL0     C15521   8.129   7.726   0.619 -0.4829 -0.7202  0.6438
  876MOL0     C15522   7.982   7.749   0.592 -0.2739 -0.1624  0.1607
  876MOL0     C15523   7.907   7.797   0.724  0.1294  0.2692 -0.0960
  876MOL0     O15524   7.788   7.863   0.685  1.1885 -0.7228 -0.6107
  876MOL0     C15525   7.664   7.812   0.740  0.1450 -0.4192  0.3744
  876MOL0     C15526   7.630   7.831   0.867 -0.0147  0.0733 -0.1259
  876MOL0     C15527   7.510   7.780   0.912 -0.2360 -0.2795 -0.3797
  876MOL0     C15528   7.420   7.709   0.822 -0.5428  0.1561  0.6160
  876MOL0     C15529   7.286   7.664   0.870  0.5877  0.0898  0.6696
  876MOL0     O15530   7.249   7.698   0.998 -0.1391 -0.3531  0.1098
  876MOL0     C15531   7.127   7.661   1.055  0.0032 -0.4656 -0.0800
  876MOL0     C15532   7.126   7.612   1.189  0.2142  1.1449  0.0150
  876MOL0     C15533   7.009   7.582   1.260  0.2409 -0.2721  0.3718
  876MOL0     C15534   6.884   7.589   1.200 -0.9468  0.8874 -0.0760
  876MOL0     O15535   6.778   7.558   1.279 -0.6544 -0.1312 -0.4225
  876MOL0     C15536   6.654   7.532   1.219  0.2819  0.1838 -0.1042
  876MOL0     C15537   6.549   7.490   1.322  0.6178  0.5532  0.4399
  876MOL0     C15538   6.414   7.484   1.260  0.0421  0.5647 -0.0703
  876MOL0     C15539   6.310   7.464   1.362  0.3204  0.5905  0.3064
  876MOL0     C15540   6.177   7.437   1.285 -0.2725  0.3090 -0.5451
  876MOL0     C15541   6.063   7.386   1.375 -0.9447 -0.0630 -0.4875
  876MOL0     C15542   5.941   7.351   1.298  0.5628 -0.8088  0.0039
  876MOL0     C15543   5.833   7.294   1.399 -0.5432 -0.9702  0.7605
  876MOL0    Cl15544   5.692   7.243   1.302 -0.0245 -0.2113  0.1218
  876MOL0     C15545   6.875   7.631   1.063 -1.1042  0.6432  0.4167
  876MOL0     C15546   6.996   7.678   0.995 -0.2908  0.2350  0.1861
  876MOL0     O15547   7.217   7.594   0.796  0.4633 -0.0777  0.1474
  876MOL0     C15548   7.454   7.694   0.690  0.1590 -0.4125 -0.2406
  876MOL0     C15549   7.576   7.752   0.651 -0.0687 -0.4071 -0.5962
  876MOL0     N15550   8.314   7.488   0.866 -0.1526  0.3200 -0.3295
  876MOL0     N15551   8.436   7.456   0.868 -0.0757  0.2674  0.3835
  876MOL0     C15552   9.235   6.873   1.078  0.3866  0.1052  0.2919
  876MOL0     C15553   9.371   6.887   1.086 -0.0744 -0.2546  0.3527
  876MOL0     C15554   9.808   6.921   0.915  0.0655  0.4450 -0.7227
  876MOL0     C15555   9.918   6.903   0.826  0.2322 -0.0910 -0.3115
  876MOL0     C15556  10.041   6.974   0.851 -0.7628  1.2795  0.8662
  876MOL0     C15557  10.053   7.059   0.959  0.2679  0.1332 -0.0767
  876MOL0     O15558  10.172   7.129   0.983 -0.1445  0.2922  0.5562
  876MOL0     C15559  10.285   7.127   0.887  1.0610  0.1929  0.0875
  876MOL0     C15560  10.387   7.245   0.908  0.5513  0.3312 -0.2128
  876MOL0     C15561  10.326   7.387   0.932  0.0467  0.5544  0.6658
  876MOL0     C15562  10.239   7.429   0.819  0.0900  0.1046  0.1629
  876MOL0     C15563  10.159   7.542   0.869  0.0797  0.2437  0.3528
  876MOL0     C15564  10.097   7.640   0.918 -0.4686 -1.0390  0.0478
  876MOL0     C15565   9.947   7.075   1.049  0.4673  0.4216  0.9049
  876MOL0     C15566   9.834   7.003   1.025  0.0236 -0.3414 -0.1918
  876MOL0     H15567   9.441   6.653   0.839  0.9756  0.0531  1.2740
  876MOL0     H15568   9.206   6.653   0.824  2.2980 -2.4382  0.8146
  876MOL0     H15569   8.864   6.694   0.924  0.1746  0.1203  1.2896
  876MOL0     H15570   9.007   6.624   0.862  1.3002  0.8413  0.2250
  876MOL0     H15571   8.908   6.722   0.693  1.0927  1.6804 -1.1505
  876MOL0     H15572   9.046   6.816   0.709  0.5501  1.1568  1.4289
  876MOL0     H15573   8.945   7.007   0.801 -2.0240  2.7637 -0.5362
  876MOL0     H15574   8.791   6.931   0.839 -0.7153 -0.0228  0.1846
  876MOL0     H15575   8.921   6.973   0.571  0.6950 -0.8347  0.8058
  876MOL0     H15576   8.761   6.895   0.595  1.1512 -1.2982  1.4933
  876MOL0     H15577   8.725   7.120   0.516  1.1944  1.9780  0.6346
  876MOL0     H15578   8.845   7.184   0.629  0.3685  0.2413 -0.0612
  876MOL0     H15579   8.686   7.170   0.814  0.8249  1.5699  0.0870
  876MOL0     H15580   8.599   7.046   0.727  0.4759  0.5260  2.5371
  876MOL0     H15581   8.500   7.220   0.571  0.3518 -1.8424  0.4343
  876MOL0     H15582   8.472   7.220   0.735 -0.6877 -0.2170  0.3380
  876MOL0     H15583   8.609   7.436   0.579 -0.3984 -0.2757 -0.2546
  876MOL0     H15584   8.680   7.395   0.730  1.1627 -4.5383 -1.6636
  876MOL0     H15585   8.378   7.556   0.563 -0.0567 -1.9920 -0.6331
  876MOL0     H15586   8.098   7.634   0.816  0.2059 -0.2386  0.7462
  876MOL0     H15587   8.071   7.533   0.676 -1.1977  2.4560 -0.0779
  876MOL0     H15588   8.171   7.704   0.520 -1.6334  1.0512 -0.2787
  876MOL0     H15589   8.190   7.809   0.656 -0.9559 -0.0233 -0.1193
  876MOL0     H15590   7.979   7.824   0.512  2.6796 -0.6119 -0.4575
  876MOL0     H15591   7.941   7.659   0.546 -0.4590 -0.0420  0.0877
  876MOL0     H15592   7.975   7.860   0.782 -0.8600  0.4306  0.9224
  876MOL0     H15593   7.884   7.704   0.776  0.7217 -0.0157 -0.3348
  876MOL0     H15594   7.694   7.878   0.941 -2.8926  2.4837  1.0542
  876MOL0     H15595   7.481   7.800   1.015 -0.7258  0.8882 -0.7229
  876MOL0     H15596   7.221   7.613   1.240 -1.5571  0.5870  3.6766
  876MOL0     H15597   7.014   7.562   1.367 -1.7942 -0.0467  0.5356
  876MOL0     H15598   6.667   7.460   1.137  1.7180 -1.1552  1.2159
  876MOL0     H15599   6.601   7.615   1.173 -1.5720 -1.4082 -1.0072
  876MOL0     H15600   6.552   7.567   1.399  2.9038  0.3700  0.6105
  876MOL0     H15601   6.567   7.392   1.367 -1.7653 -2.7106 -4.7247
  876MOL0     H15602   6.414   7.403   1.187 -0.5483 -0.8323  1.4165
  876MOL0     H15603   6.391   7.575   1.203  2.6152  0.9241 -0.6627
  876MOL0     H15604   6.344   7.380   1.423 -0.0294  0.4878  0.3598
  876MOL0     H15605   6.310   7.557   1.420 -0.0588 -0.9175  2.9041
  876MOL0     H15606   6.191   7.379   1.194  0.0330 -1.0053  0.3016
  876MOL0     H15607   6.142   7.537   1.257 -3.1865 -1.1173 -2.4539
  876MOL0     H15608   6.033   7.461   1.448  1.0796  3.2977 -2.8328
  876MOL0     H15609   6.099   7.298   1.430 -0.8693  0.8343  0.9461
  876MOL0     H15610   5.907   7.444   1.250  3.2454 -0.7847 -2.1200
  876MOL0     H15611   5.965   7.278   1.220  0.2032 -2.3342  1.2936
  876MOL0     H15612   5.804   7.363   1.479  0.0532  0.3964 -0.1681
  876MOL0     H15613   5.880   7.212   1.453  0.3959 -0.5133  0.6585
  876MOL0     H15614   6.779   7.646   1.015  0.0175 -4.3556 -4.4418
  876MOL0     H15615   6.986   7.714   0.893 -1.1899  2.4771  1.0122
  876MOL0     H15616   7.386   7.656   0.615  0.6935  2.6347 -2.4596
  876MOL0     H15617   7.596   7.762   0.544  0.4252 -2.0230 -0.6946
  876MOL0     H15618   9.170   6.918   1.152 -1.8107  1.5455 -2.3472
  876MOL0     H15619   9.414   6.925   1.178 -1.7491  0.2578  0.9699
  876MOL0     H15620   9.898   6.842   0.739 -1.0470 -1.6557  1.0108
  876MOL0     H15621  10.121   6.960   0.780 -0.6317  1.9044  0.8849
  876MOL0     H15622  10.246   7.125   0.785 -0.2804  2.5787  0.4749
  876MOL0     H15623  10.334   7.033   0.914 -0.5681 -0.7835 -0.2210
  876MOL0     H15624  10.460   7.224   0.987  0.4471 -4.0542 -1.0603
  876MOL0     H15625  10.450   7.235   0.819  1.4264 -2.9367  0.6456
  876MOL0     H15626  10.411   7.454   0.949  2.3746 -2.6262  2.9423
  876MOL0     H15627  10.264   7.372   1.021  0.5646 -1.0352  0.7952
  876MOL0     H15628  10.298   7.457   0.731 -0.6011  1.8980  0.2401
  876MOL0     H15629  10.178   7.342   0.795  1.6363 -0.8649 -0.4218
  876MOL0     H15630  10.043   7.720   0.964 -0.6153 -1.5258  0.7296
  876MOL0     H15631   9.964   7.135   1.138 -0.9951 -1.4173  2.5129
  876MOL0     H15632   9.766   7.004   1.110  1.1252  0.4939  0.7070
  877MOL0     O15633   7.602   2.349   0.504 -0.2086 -0.3551  0.1477
  877MOL0     C15634   7.654   2.296   0.410  0.0486 -0.4690  0.4693
  877MOL0     O15635   7.588   2.238   0.309  0.1752 -0.2891  0.1980
  877MOL0     C15636   7.450   2.227   0.304 -0.2625  0.0924  0.0868
  877MOL0     C15637   7.394   2.108   0.254  0.2761  0.1312  0.1373
  877MOL0     C15638   7.254   2.090   0.241 -0.3393 -0.1659 -0.8185
  877MOL0     C15639   7.169   2.184   0.275  0.1735 -0.2929  0.4715
  877MOL0     O15640   7.032   2.180   0.271  0.0078 -0.3165  0.3478
  877MOL0     C15641   6.972   2.050   0.240  0.3761 -0.0245  0.3500
  877MOL0     C15642   6.826   2.041   0.243 -0.3493 -0.6533 -0.3814
  877MOL0     C15643   6.766   2.163   0.168  0.3836 -0.6523  0.5472
  877MOL0     C15644   6.609   2.163   0.158  0.1539 -0.2496  0.1587
  877MOL0     C15645   6.539   2.033   0.126 -0.9893  0.7233  0.2160
  877MOL0     C15646   6.580   2.001  -0.022 -0.5215 -0.1426 -0.5804
  877MOL0     C15647   6.481   1.900  -0.093 -0.0965  0.2288  0.8713
  877MOL0     C15648   6.342   1.970  -0.118  1.1735 -0.0741  1.3355
  877MOL0     N15649   6.251   1.885  -0.196 -0.4154 -0.4117 -0.4259
  877MOL0     C15650   6.227   1.876  -0.328  0.4751 -0.6964  0.9587
  877MOL0     C15651   6.143   1.772  -0.346 -0.6201  0.3558  0.9385
  877MOL0     C15652   6.076   1.736  -0.490  0.7586  1.0196  1.0465
  877MOL0     C15653   5.937   1.679  -0.469 -0.4811  0.3165 -0.0961
  877MOL0     C15654   5.862   1.679  -0.601  0.6472 -0.1926 -0.6938
  877MOL0     C15655   5.711   1.643  -0.588 -0.0379  1.0174 -0.4013
  877MOL0     O15656   5.649   1.657  -0.721 -0.6096  0.5411 -0.2099
  877MOL0     C15657   5.522   1.603  -0.739 -0.5821  0.5179 -0.0807
  877MOL0     C15658   5.440   1.546  -0.630 -1.0325 -0.9178 -0.2320
  877MOL0     C15659   5.306   1.529  -0.661  0.1061  0.7410 -0.5507
  877MOL0     C15660   5.249   1.540  -0.786  1.0131 -0.8177 -0.1423
  877MOL0     C15661   5.107   1.498  -0.822 -0.1682  0.2456 -0.5366
  877MOL0     O15662   5.077   1.468  -0.955 -0.2256 -0.7425  0.3548
  877MOL0     C15663   4.957   1.429  -1.005 -0.3642  0.3048 -0.7572
  877MOL0     C15664   4.948   1.436  -1.146  0.4032  0.5263 -0.7584
  877MOL0     C15665   4.831   1.390  -1.202  0.7731  0.4405 -0.2135
  877MOL0     C15666   4.725   1.337  -1.127 -0.2605  0.4766  1.4222
  877MOL0     O15667   4.622   1.281  -1.194  0.4905  1.0435 -0.4293
  877MOL0     C15668   4.545   1.164  -1.144  0.2932  0.2484 -0.1058
  877MOL0     C15669   4.410   1.201  -1.080  0.4861  0.0041 -0.3531
  877MOL0     C15670   4.314   1.087  -1.050  0.0427  0.1414 -0.2328
  877MOL0     C15671   4.209   1.056  -1.157 -0.4266  0.0165  0.3234
  877MOL0     C15672   4.101   0.971  -1.096  0.8010 -0.1011  0.2960
  877MOL0     C15673   3.997   0.930  -1.206  0.9489  0.0135 -0.7694
  877MOL0     C15674   3.909   0.813  -1.151  0.2861  0.0561  0.4895
  877MOL0     C15675   3.811   0.750  -1.256  0.0198  0.1949  0.2725
  877MOL0    Cl15676   3.648   0.817  -1.235  0.5877  0.1902 -0.0644
  877MOL0     C15677   4.739   1.322  -0.983  0.5400 -0.3533 -0.7798
  877MOL0     C15678   4.850   1.379  -0.919  0.1276 -0.0644  0.9526
  877MOL0     O15679   5.039   1.478  -0.720 -0.0030  0.6440  0.2052
  877MOL0     C15680   5.333   1.589  -0.891 -0.0541  0.1959  0.4857
  877MOL0     C15681   5.470   1.625  -0.862 -0.3922 -0.3654  0.1797
  877MOL0     N15682   6.128   1.709  -0.226 -0.5817 -0.1247 -0.7787
  877MOL0     N15683   6.177   1.787  -0.140 -0.6734  0.3949 -0.8102
  877MOL0     C15684   7.216   2.303   0.327  0.7285  0.6379  0.4248
  877MOL0     C15685   7.359   2.325   0.344  1.1664  0.7964  0.4455
  877MOL0     C15686   7.799   2.307   0.399 -0.2521 -0.0911  0.0993
  877MOL0     C15687   7.865   2.251   0.286 -0.4230  0.0659  0.1574
  877MOL0     C15688   8.002   2.258   0.279 -1.9142  0.0645  0.4028
  877MOL0     C15689   8.081   2.318   0.380 -0.7828  0.6655  0.0285
  877MOL0     O15690   8.222   2.315   0.365  0.5839 -0.0788  0.1875
  877MOL0     C15691   8.301   2.410   0.439  0.2712  0.2415  0.6405
  877MOL0     C15692   8.448   2.391   0.423  0.9423 -0.6601  0.0180
  877MOL0     C15693   8.478   2.363   0.277 -0.1421  0.2120  0.2510
  877MOL0     C15694   8.629   2.353   0.252  0.7223 -0.4213 -0.1775
  877MOL0     C15695   8.697   2.239   0.313  0.4044  0.2059  0.3718
  877MOL0     C15696   8.735   2.145   0.377  0.9777  0.6522  0.2331
  877MOL0     C15697   8.019   2.359   0.498  0.0020 -0.5634 -0.3244
  877MOL0     C15698   7.879   2.359   0.504 -0.1731  0.3613 -0.0196
  877MOL0     H15699   7.467   2.034   0.224  1.0353  1.7629 -2.2291
  877MOL0     H15700   7.231   1.992   0.200  2.2995 -1.6507  0.8878
  877MOL0     H15701   7.007   1.977   0.314  3.1857  3.5536  2.9107
  877MOL0     H15702   7.016   2.019   0.145 -1.8388  2.1183 -1.5223
  877MOL0     H15703   6.792   2.044   0.347 -0.5638 -0.2800 -0.4634
  877MOL0     H15704   6.804   1.941   0.203  1.1128  0.1079 -3.4209
  877MOL0     H15705   6.799   2.170   0.064 -0.5592  1.9218  0.3410
  877MOL0     H15706   6.790   2.260   0.213 -0.9269 -0.5346  1.0410
  877MOL0     H15707   6.583   2.187   0.262 -1.0395  0.3822 -0.2742
  877MOL0     H15708   6.573   2.248   0.101  1.1306 -0.1793 -0.3900
  877MOL0     H15709   6.430   2.040   0.130 -1.1826 -0.6963 -1.4784
  877MOL0     H15710   6.572   1.948   0.188  0.7047  1.5821  0.5597
  877MOL0     H15711   6.682   1.963  -0.014 -0.5842 -0.3197 -0.6154
  877MOL0     H15712   6.584   2.089  -0.087 -1.1670 -0.4120 -1.0047
  877MOL0     H15713   6.527   1.868  -0.187 -2.3146  0.4803 -0.3578
  877MOL0     H15714   6.466   1.814  -0.027 -1.3345  0.6390  1.1432
  877MOL0     H15715   6.351   2.060  -0.179 -2.2095 -0.1479  0.5376
  877MOL0     H15716   6.302   1.996  -0.019  2.5979 -1.2796  2.2650
  877MOL0     H15717   6.276   1.934  -0.405  0.7308 -1.2029  0.7297
  877MOL0     H15718   6.141   1.668  -0.545 -0.3822 -0.4083  1.4140
  877MOL0     H15719   6.068   1.829  -0.547 -2.2164  0.4771  0.4332
  877MOL0     H15720   5.892   1.736  -0.387  0.5563  1.4372 -0.2772
  877MOL0     H15721   5.952   1.581  -0.425 -0.4987  0.2979 -0.1316
  877MOL0     H15722   5.869   1.777  -0.650  1.5466 -0.8564 -1.9707
  877MOL0     H15723   5.918   1.612  -0.667 -1.6987 -3.2556  0.1849
  877MOL0     H15724   5.651   1.695  -0.512 -2.0766 -0.6342 -0.8085
  877MOL0     H15725   5.713   1.544  -0.543  1.9251  0.6587 -1.2004
  877MOL0     H15726   5.477   1.534  -0.528 -0.7020  2.4738  0.1423
  877MOL0     H15727   5.255   1.492  -0.573  1.7306 -0.9428 -0.2528
  877MOL0     H15728   5.025   1.492  -1.198  0.3500 -0.1097 -1.5443
  877MOL0     H15729   4.806   1.415  -1.305 -0.7490 -0.0189  0.0107
  877MOL0     H15730   4.613   1.116  -1.073  0.2988  0.7619  0.2450
  877MOL0     H15731   4.516   1.101  -1.228 -2.2878  0.6705  0.3634
  877MOL0     H15732   4.363   1.265  -1.155 -1.8046 -1.2864 -0.0929
  877MOL0     H15733   4.419   1.260  -0.988 -0.8585 -1.7766  0.9936
  877MOL0     H15734   4.251   1.110  -0.964 -2.3493 -0.3486 -1.7469
  877MOL0     H15735   4.377   1.000  -1.026  0.2241 -0.5179 -2.8025
  877MOL0     H15736   4.168   1.150  -1.193  1.0422  1.4239  2.1355
  877MOL0     H15737   4.259   0.998  -1.235  0.2268 -0.5643  1.1503
  877MOL0     H15738   4.043   1.019  -1.017 -0.1232 -0.2724 -0.2502
  877MOL0     H15739   4.143   0.884  -1.045  0.9445 -0.0623  0.2427
  877MOL0     H15740   4.052   0.881  -1.287 -0.8080 -2.4710 -0.5940
  877MOL0     H15741   3.948   1.017  -1.251  1.7774  0.0059 -1.7073
  877MOL0     H15742   3.982   0.739  -1.116  0.3438  0.2255  0.7342
  877MOL0     H15743   3.846   0.853  -1.071 -1.7557  3.0892 -2.3871
  877MOL0     H15744   3.813   0.643  -1.234  0.1752  0.2559  0.5619
  877MOL0     H15745   3.842   0.774  -1.358 -0.9804 -0.4645 -0.2054
  877MOL0     H15746   4.663   1.271  -0.925 -0.1825  0.3313 -1.1038
  877MOL0     H15747   4.860   1.361  -0.813 -2.7270 -1.9151  1.0091
  877MOL0     H15748   5.296   1.595  -0.993 -2.8036  4.8414  1.4775
  877MOL0     H15749   5.536   1.657  -0.941 -2.1316  0.7335 -0.8947
  877MOL0     H15750   7.132   2.368   0.350 -0.5604 -1.2951  1.4623
  877MOL0     H15751   7.391   2.424   0.374  0.5417  2.1299 -2.8041
  877MOL0     H15752   7.816   2.200   0.204 -0.0401  1.7296 -1.1491
  877MOL0     H15753   8.036   2.211   0.187  0.1756 -1.5337  1.8931
  877MOL0     H15754   8.284   2.408   0.547  1.4557  0.2266  0.8393
  877MOL0     H15755   8.277   2.513   0.408 -0.8696 -0.4346 -0.8529
  877MOL0     H15756   8.503   2.477   0.461  1.3145 -1.7248  2.0132
  877MOL0     H15757   8.466   2.302   0.484 -0.5412  0.8372  2.8362
  877MOL0     H15758   8.449   2.451   0.219 -0.6943 -1.2367 -1.7997
  877MOL0     H15759   8.421   2.282   0.230  0.6180 -1.3166  1.8570
  877MOL0     H15760   8.650   2.357   0.144 -2.8349  0.3062 -0.9766
  877MOL0     H15761   8.674   2.443   0.295  0.9142 -1.4267  1.8220
  877MOL0     H15762   8.781   2.058   0.420 -1.5183 -1.0816 -0.3475
  877MOL0     H15763   8.076   2.405   0.578  1.4146  0.7266 -1.9691
  877MOL0     H15764   7.821   2.379   0.594 -0.4212 -4.1302  1.0628
  878MOL0     O15765   7.357   9.974  11.141 -0.5183 -0.2353  0.9276
  878MOL0     C15766   7.281  10.063  11.163  0.8447 -0.9555  0.0035
  878MOL0     O15767   7.321  10.193  11.188  0.1898  0.1660 -0.5803
  878MOL0     C15768   7.454  10.228  11.210 -0.4270  0.2706  0.7558
  878MOL0     C15769   7.570  10.143  11.190  0.5327  0.3485  0.8220
  878MOL0     C15770   7.697  10.193  11.199  0.5534  0.5522 -0.0031
  878MOL0     C15771   7.721  10.335  11.224 -0.4069 -0.3352  0.1994
  878MOL0     O15772   7.844  10.399  11.216 -0.4396  0.0834 -0.2326
  878MOL0     C15773   7.961  10.313  11.227 -0.3303  0.3606  0.8355
  878MOL0     C15774   8.086  10.395  11.186 -0.1949 -0.3631 -0.3763
  878MOL0     C15775   8.138  10.506  11.283  0.2451  0.6361  0.6160
  878MOL0     C15776   8.221  10.456  11.399  0.2586  0.8255  0.3526
  878MOL0     C15777   8.370  10.428  11.375 -0.8423 -0.3300 -0.0859
  878MOL0     C15778   8.459  10.554  11.346  0.5610  0.0242  0.6148
  878MOL0     C15779   8.605  10.514  11.351 -0.5332 -0.1567  0.2005
  878MOL0     C15780   8.692  10.613  11.283  0.1644  0.0795 -0.3737
  878MOL0     N15781   8.838  10.569  11.290 -0.5192 -0.7185 -0.7714
  878MOL0     C15782   8.893  10.449  11.256 -0.0171 -0.7281  0.3577
  878MOL0     C15783   9.030  10.466  11.277  1.0074 -0.2953 -0.1164
  878MOL0     C15784   9.143  10.371  11.235 -0.9364 -0.8455 -0.0656
  878MOL0     C15785   9.113  10.314  11.091 -0.3388 -0.1267  0.1512
  878MOL0     C15786   9.102  10.170  11.078  0.5563  0.8465 -0.3165
  878MOL0     C15787   8.958  10.122  11.092 -0.0667  0.2903  0.4152
  878MOL0     O15788   8.915  10.122  11.232  0.1806  0.6241  0.6164
  878MOL0     C15789   8.794  10.062  11.239 -0.1192 -0.2796 -0.1413
  878MOL0     C15790   8.664  10.122  11.221 -0.6224  0.1178 -0.1089
  878MOL0     C15791   8.547  10.062  11.255 -0.3968  0.6032 -0.3102
  878MOL0     C15792   8.557   9.927  11.291  0.1453 -0.4384  0.2571
  878MOL0     C15793   8.437   9.846  11.317  0.2609 -0.2287 -1.0076
  878MOL0     O15794   8.318   9.911  11.292 -0.3204 -0.2641 -0.2287
  878MOL0     C15795   8.194   9.857  11.321 -0.5779 -0.7478 -0.0144
  878MOL0     C15796   8.161   9.718  11.323 -0.5059 -0.6638 -0.9497
  878MOL0     C15797   8.024   9.683  11.349  0.7510  0.3576  0.5304
  878MOL0     C15798   7.920   9.777  11.362 -0.0576 -0.1460  0.2088
  878MOL0     O15799   7.783   9.743  11.381  0.7020  0.3190 -0.2798
  878MOL0     C15800   7.731   9.643  11.290  0.1106 -0.3162  0.3991
  878MOL0     C15801   7.581   9.685  11.269  0.7236  0.0404 -0.7710
  878MOL0     C15802   7.508   9.547  11.232 -0.4041  0.1646 -0.2737
  878MOL0     C15803   7.357   9.574  11.218 -0.6680 -0.1248  0.4018
  878MOL0     C15804   7.291   9.461  11.148 -0.2418 -0.9025 -0.1329
  878MOL0     C15805   7.142   9.488  11.143 -0.0323  0.0079  0.9477
  878MOL0     C15806   7.071   9.386  11.046 -0.8834 -0.6805 -0.5467
  878MOL0     C15807   6.922   9.404  11.042  0.4606 -0.8596 -0.7617
  878MOL0    Cl15808   6.856   9.569  11.050 -0.2438 -0.1600 -0.1587
  878MOL0     C15809   7.957   9.912  11.353  0.3123 -0.8924  1.1892
  878MOL0     C15810   8.091   9.949  11.330  0.6524 -0.0587 -0.2218
  878MOL0     O15811   8.455   9.732  11.358 -0.4252  0.0171  0.1361
  878MOL0     C15812   8.681   9.872  11.325  0.3113 -0.3281  0.2755
  878MOL0     C15813   8.798   9.937  11.285  0.2471  0.2267 -0.1682
  878MOL0     N15814   9.049  10.599  11.311 -0.0339  0.2940 -0.2016
  878MOL0     N15815   8.936  10.650  11.331  0.4597 -0.2524 -0.1899
  878MOL0     C15816   7.611  10.419  11.234  0.3582  0.4082 -0.7052
  878MOL0     C15817   7.483  10.365  11.230 -0.0483  0.6517  0.2945
  878MOL0     C15818   7.135  10.037  11.147 -0.0159 -0.1813  0.1644
  878MOL0     C15819   7.075   9.913  11.170 -1.0509  0.2203  0.2844
  878MOL0     C15820   6.937   9.894  11.176 -0.7655  0.2150  0.4919
  878MOL0     C15821   6.853   9.995  11.146  0.0371 -0.3818  0.8761
  878MOL0     O15822   6.713   9.981  11.147 -0.5660 -0.3721  0.1027
  878MOL0     C15823   6.653   9.847  11.167  1.1431  1.4368  1.1822
  878MOL0     C15824   6.502   9.843  11.143  0.1853  0.3832  0.6511
  878MOL0     C15825   6.422   9.936  11.228  0.8735 -0.0407  0.5080
  878MOL0     C15826   6.278   9.883  11.238  1.1227 -0.5863  0.1223
  878MOL0     C15827   6.210   9.889  11.108  0.0711  0.0006 -1.0258
  878MOL0     C15828   6.148   9.890  11.006 -0.0210  0.2354 -0.1914
  878MOL0     C15829   6.905  10.128  11.133 -0.0348  0.1088 -0.4773
  878MOL0     C15830   7.043  10.148  11.131  0.3327 -0.2797 -0.7098
  878MOL0     H15831   7.570  10.039  11.159  1.7384  1.0497 -1.8203
  878MOL0     H15832   7.776  10.122  11.177  0.0738  0.1310 -0.3843
  878MOL0     H15833   7.961  10.223  11.164 -1.3632  0.8689  0.0861
  878MOL0     H15834   7.974  10.278  11.330  0.3720  0.0770  0.6571
  878MOL0     H15835   8.070  10.434  11.085 -0.3232  0.0146 -0.2150
  878MOL0     H15836   8.159  10.315  11.177 -1.5520 -1.9706  1.8080
  878MOL0     H15837   8.052  10.560  11.323 -0.4340  1.6062 -1.9510
  878MOL0     H15838   8.196  10.577  11.223  0.7589 -0.5920 -0.4178
  878MOL0     H15839   8.211  10.530  11.478 -1.3089  3.9131 -2.4955
  878MOL0     H15840   8.177  10.359  11.427  0.5266 -0.0115 -1.8669
  878MOL0     H15841   8.372  10.357  11.291  3.5742 -1.7681  0.9559
  878MOL0     H15842   8.419  10.388  11.464  1.8166  1.3188 -0.7098
  878MOL0     H15843   8.442  10.640  11.411  3.2979  0.8764  0.3089
  878MOL0     H15844   8.438  10.581  11.242  1.4105 -0.8116  0.2133
  878MOL0     H15845   8.652  10.516  11.450  1.6824  2.7172 -0.7457
  878MOL0     H15846   8.622  10.411  11.318  0.0557  0.5344 -1.8021
  878MOL0     H15847   8.673  10.707  11.335 -0.5786  0.2495 -0.9432
  878MOL0     H15848   8.665  10.618  11.177  1.6381 -2.1365 -0.9321
  878MOL0     H15849   8.850  10.358  11.215 -0.7723 -1.5675  2.8254
  878MOL0     H15850   9.142  10.292  11.310 -0.4993 -1.0497 -0.2724
  878MOL0     H15851   9.243  10.416  11.233 -1.9445  1.8441  2.9171
  878MOL0     H15852   9.199  10.334  11.027 -1.6732  0.5795 -1.5094
  878MOL0     H15853   9.031  10.369  11.044  1.2939  1.5974 -0.8245
  878MOL0     H15854   9.137  10.139  10.979 -2.0623 -1.4903 -0.6255
  878MOL0     H15855   9.166  10.116  11.149 -1.3908 -0.2979  0.6763
  878MOL0     H15856   8.942  10.021  11.053 -0.2192  0.5438 -0.1869
  878MOL0     H15857   8.892  10.188  11.036  0.0666  2.4757  2.6947
  878MOL0     H15858   8.652  10.226  11.195 -0.5112  0.7745  2.2251
  878MOL0     H15859   8.454  10.111  11.229 -0.8922  1.1618  2.3122
  878MOL0     H15860   8.235   9.638  11.324  0.8380  0.5310 -0.2997
  878MOL0     H15861   8.004   9.577  11.356 -1.4890  0.6860 -0.1155
  878MOL0     H15862   7.735   9.539  11.324 -0.8282  0.2384  2.3384
  878MOL0     H15863   7.782   9.647  11.193  1.7235  3.3240  1.2463
  878MOL0     H15864   7.566   9.767  11.199 -3.3433  0.5808  0.4774
  878MOL0     H15865   7.541   9.720  11.365  0.4426 -0.7523 -0.5860
  878MOL0     H15866   7.519   9.463  11.300 -1.8393 -0.2638 -0.5379
  878MOL0     H15867   7.558   9.503  11.145  0.3698  1.2445 -0.4030
  878MOL0     H15868   7.307   9.595  11.313 -1.6708  0.6439 -0.2801
  878MOL0     H15869   7.350   9.660  11.150 -3.7783  0.5138  1.3820
  878MOL0     H15870   7.299   9.372  11.213 -0.9997  1.0725  2.8798
  878MOL0     H15871   7.324   9.461  11.044 -0.5410  3.8464 -0.4345
  878MOL0     H15872   7.125   9.591  11.109  4.1745  0.8710  0.8809
  878MOL0     H15873   7.089   9.478  11.238 -1.2206 -2.3919  0.1205
  878MOL0     H15874   7.113   9.400  10.946  3.7318  1.0048  1.3520
  878MOL0     H15875   7.085   9.281  11.073 -1.3185 -0.8989 -1.1597
  878MOL0     H15876   6.893   9.368  11.141  1.2700  3.7161  1.3764
  878MOL0     H15877   6.868   9.342  10.969 -1.0114 -1.8948  1.1101
  878MOL0     H15878   7.887   9.992  11.374  1.7909 -0.1677  3.6317
  878MOL0     H15879   8.108  10.056  11.327 -0.3377  0.2762  2.7631
  878MOL0     H15880   8.675   9.775  11.373 -0.4347  0.4267  1.7498
  878MOL0     H15881   8.897   9.894  11.296 -0.1295 -0.5166  0.3149
  878MOL0     H15882   7.616  10.524  11.262 -3.2967  0.2046  1.4344
  878MOL0     H15883   7.393  10.422  11.248 -2.1441 -2.7292  1.4233
  878MOL0     H15884   7.152   9.836  11.170 -1.2580 -0.0100  1.7114
  878MOL0     H15885   6.893   9.795  11.174  2.0518 -1.1570  1.2865
  878MOL0     H15886   6.672   9.815  11.270 -0.1563 -1.4070  0.6240
  878MOL0     H15887   6.689   9.778  11.091 -0.3558  0.6042  1.1936
  878MOL0     H15888   6.478   9.865  11.039  0.7945  3.2931  1.0455
  878MOL0     H15889   6.471   9.738  11.154  0.0078 -0.5145 -5.2369
  878MOL0     H15890   6.423  10.042  11.200 -1.3551 -0.6304 -2.1341
  878MOL0     H15891   6.469   9.927  11.327 -0.8409 -0.4551  1.3095
  878MOL0     H15892   6.274   9.787  11.289 -0.8037 -0.8388 -0.4417
  878MOL0     H15893   6.212   9.951  11.292 -1.7153 -1.6257 -1.7858
  878MOL0     H15894   6.089   9.877  10.917 -0.4031  0.7021 -0.0126
  878MOL0     H15895   6.841  10.215  11.123  0.8989  1.1205  1.7730
  878MOL0     H15896   7.073  10.250  11.110 -0.0232 -0.0127  0.0774
  879MOL0     O15897   6.813   5.946   0.884  0.2319 -0.6166  0.2376
  879MOL0     C15898   6.819   6.001   0.774  0.2497  0.2621  0.2128
  879MOL0     O15899   6.707   6.018   0.688 -0.8233  0.0537 -0.3456
  879MOL0     C15900   6.583   6.014   0.742  1.0513  0.7395 -0.2446
  879MOL0     C15901   6.551   6.086   0.854  0.4837  0.2031  0.5354
  879MOL0     C15902   6.415   6.098   0.903 -0.3440  0.1204 -0.3237
  879MOL0     C15903   6.305   6.042   0.821  0.0374  0.4948 -0.3787
  879MOL0     O15904   6.173   6.066   0.843  0.1388 -0.6936  0.0562
  879MOL0     C15905   6.148   6.199   0.884 -0.5730  0.3985  0.6821
  879MOL0     C15906   6.006   6.216   0.923  0.9619 -0.5965 -0.5372
  879MOL0     C15907   5.959   6.359   0.893  0.2294 -0.7778  0.6055
  879MOL0     C15908   5.808   6.361   0.899 -0.1389 -0.4781  0.8303
  879MOL0     C15909   5.755   6.513   0.893  0.5624  0.3064  0.1526
  879MOL0     C15910   5.599   6.518   0.895  0.0177  0.5028  0.5608
  879MOL0     C15911   5.544   6.646   0.945  0.6723 -1.0538 -1.0172
  879MOL0     C15912   5.389   6.639   0.939  0.2017 -0.4083 -0.5200
  879MOL0     N15913   5.325   6.691   0.816  0.3353  0.4683 -0.0236
  879MOL0     C15914   5.310   6.820   0.784 -0.1016 -0.1693 -0.2037
  879MOL0     C15915   5.242   6.820   0.662 -0.3439  0.5289 -0.2041
  879MOL0     C15916   5.193   6.948   0.599  1.2739 -0.2815 -0.2124
  879MOL0     C15917   5.128   6.929   0.461  0.6069 -0.5588  1.2598
  879MOL0     C15918   5.051   7.059   0.423 -0.2789  0.5541  0.1049
  879MOL0     C15919   4.987   7.045   0.284 -0.6901  0.1254  1.0320
  879MOL0     O15920   4.928   7.173   0.242 -0.5830 -1.1650 -0.0491
  879MOL0     C15921   4.801   7.180   0.194  0.4768  0.1754  0.3627
  879MOL0     C15922   4.714   7.066   0.168  0.6839  0.3506 -0.4943
  879MOL0     C15923   4.585   7.083   0.131 -0.3992  1.1833 -0.2093
  879MOL0     C15924   4.536   7.205   0.092  0.8317 -0.1555 -0.0954
  879MOL0     C15925   4.396   7.217   0.047  0.2440 -0.5441 -0.3879
  879MOL0     O15926   4.295   7.130   0.085 -0.5830  0.1483 -0.1897
  879MOL0     C15927   4.165   7.159   0.043 -0.2116 -0.2540  0.0126
  879MOL0     C15928   4.102   7.278   0.076 -0.5729 -0.0060 -0.1539
  879MOL0     C15929   3.969   7.300   0.041  1.3221 -0.7648 -0.4727
  879MOL0     C15930   3.888   7.197  -0.017 -0.4792 -0.3439  0.3912
  879MOL0     O15931   3.752   7.211  -0.035 -1.0894 -0.2818 -0.6415
  879MOL0     C15932   3.671   7.096  -0.026 -0.3268  1.0807 -0.4331
  879MOL0     C15933   3.525   7.137  -0.029  0.3468  1.0588 -0.1112
  879MOL0     C15934   3.474   7.190  -0.164 -0.6432 -0.1059 -0.5393
  879MOL0     C15935   3.325   7.217  -0.153  0.1638 -0.5017  0.7164
  879MOL0     C15936   3.269   7.289  -0.274 -0.3921  0.5868  0.7014
  879MOL0     C15937   3.114   7.299  -0.269  0.0763  0.4622 -0.1124
  879MOL0     C15938   3.058   7.417  -0.351  0.8294  0.2052 -0.1121
  879MOL0     C15939   3.087   7.401  -0.499 -0.5061  0.8044 -0.0248
  879MOL0    Cl15940   3.007   7.525  -0.593 -0.2314  0.2528  0.0718
  879MOL0     C15941   3.957   7.082  -0.048 -0.0173  0.2875  0.2382
  879MOL0     C15942   4.087   7.067  -0.029  0.7660  0.0785 -0.1993
  879MOL0     O15943   4.377   7.325  -0.021  0.0157  0.0904 -0.3586
  879MOL0     C15944   4.629   7.320   0.096  0.3354  0.2993  0.8110
  879MOL0     C15945   4.757   7.310   0.153  0.4492 -0.3044  0.3473
  879MOL0     N15946   5.216   6.689   0.630 -0.2692 -0.2167 -0.3243
  879MOL0     N15947   5.261   6.614   0.721 -0.0556 -1.0714 -0.0247
  879MOL0     C15948   6.347   5.978   0.707 -0.4676  0.2804 -0.4995
  879MOL0     C15949   6.479   5.959   0.664  0.8162  1.2568 -0.6537
  879MOL0     C15950   6.953   6.058   0.742  0.2431 -0.1454 -0.3299
  879MOL0     C15951   6.989   6.073   0.606 -0.0934  0.9592  0.1486
  879MOL0     C15952   7.115   6.136   0.593  0.2501  0.0086  0.3042
  879MOL0     C15953   7.189   6.189   0.700  0.2234  0.4757  0.0883
  879MOL0     O15954   7.304   6.246   0.659  0.1592 -0.3246 -0.0365
  879MOL0     C15955   7.397   6.262   0.763 -0.7730 -0.6341  0.9954
  879MOL0     C15956   7.548   6.256   0.714  0.5425  0.3272 -0.5027
  879MOL0     C15957   7.603   6.379   0.632 -0.6698 -0.6772 -0.8354
  879MOL0     C15958   7.648   6.483   0.738  0.6341 -0.3416  0.3460
  879MOL0     C15959   7.770   6.437   0.802  0.2997  0.1846  1.0850
  879MOL0     C15960   7.879   6.414   0.851 -1.0197  0.1389 -0.5811
  879MOL0     C15961   7.155   6.168   0.831  0.0388  0.3122 -0.0328
  879MOL0     C15962   7.032   6.103   0.850  0.6299  0.5138 -0.2819
  879MOL0     H15963   6.623   6.127   0.924  1.4872  0.8042 -0.8140
  879MOL0     H15964   6.403   6.156   0.994 -0.2576 -0.2320 -0.0868
  879MOL0     H15965   6.182   6.266   0.804  2.0225 -2.0045 -0.4201
  879MOL0     H15966   6.208   6.210   0.975 -0.0248 -1.4864  0.6001
  879MOL0     H15967   5.985   6.192   1.027 -2.4196 -2.5683 -1.4901
  879MOL0     H15968   5.935   6.158   0.863  0.9858 -1.1165 -0.0707
  879MOL0     H15969   5.999   6.378   0.793  1.7161  2.5124  1.6876
  879MOL0     H15970   6.009   6.416   0.972  0.7203 -1.1581  0.5774
  879MOL0     H15971   5.768   6.307   0.813  1.7776 -0.6702 -0.0003
  879MOL0     H15972   5.777   6.310   0.990 -1.1991  0.7774  1.1974
  879MOL0     H15973   5.793   6.555   0.799  1.5452 -0.8052  0.0297
  879MOL0     H15974   5.788   6.563   0.985 -1.3658 -2.2766  2.4054
  879MOL0     H15975   5.556   6.435   0.952 -2.2429 -0.5655 -2.4512
  879MOL0     H15976   5.551   6.501   0.798 -0.9001  0.3627  1.0292
  879MOL0     H15977   5.569   6.674   1.048 -3.4082 -1.5374  0.3224
  879MOL0     H15978   5.582   6.716   0.871  0.7528 -1.3276 -1.2374
  879MOL0     H15979   5.352   6.717   1.006  0.2884  0.1873 -1.1545
  879MOL0     H15980   5.357   6.537   0.963 -1.2795 -0.1886 -1.4753
  879MOL0     H15981   5.347   6.914   0.824 -1.9018  1.8682 -2.9730
  879MOL0     H15982   5.274   7.021   0.588  1.8271 -0.7527  0.6687
  879MOL0     H15983   5.113   6.984   0.664  0.6629 -0.0227 -1.0963
  879MOL0     H15984   5.059   6.845   0.469 -0.0799 -0.1183  0.1727
  879MOL0     H15985   5.206   6.904   0.388  1.5546 -1.0296  2.4039
  879MOL0     H15986   4.978   7.097   0.495  1.8142  1.8568  1.6580
  879MOL0     H15987   5.129   7.134   0.408  0.0280 -0.1126 -1.9636
  879MOL0     H15988   4.919   6.960   0.293 -0.5584 -0.1021  0.0630
  879MOL0     H15989   5.066   7.012   0.216  0.0210 -1.5780  2.6297
  879MOL0     H15990   4.748   6.964   0.181 -2.4548 -0.7305  0.0722
  879MOL0     H15991   4.523   6.993   0.124 -1.6172  1.9642  0.1858
  879MOL0     H15992   4.161   7.357   0.121  0.1848 -0.1806 -0.8247
  879MOL0     H15993   3.917   7.394   0.056  0.9986 -1.0735  0.3932
  879MOL0     H15994   3.690   7.033   0.061 -1.6053 -3.2078 -2.9102
  879MOL0     H15995   3.688   7.030  -0.112 -0.7680 -0.4355  0.5979
  879MOL0     H15996   3.509   7.208   0.053 -0.1875  2.4531 -1.3927
  879MOL0     H15997   3.459   7.054  -0.001  1.4931  0.7108  1.7301
  879MOL0     H15998   3.490   7.113  -0.239 -1.8780 -0.1866 -0.7440
  879MOL0     H15999   3.524   7.284  -0.188 -1.0610 -0.0009 -1.0118
  879MOL0     H16000   3.272   7.122  -0.146  0.0499 -0.4143  1.0747
  879MOL0     H16001   3.296   7.272  -0.062  1.0990  1.6836 -0.2337
  879MOL0     H16002   3.294   7.240  -0.369 -1.6423  1.7400 -0.2653
  879MOL0     H16003   3.310   7.390  -0.279 -0.0287  0.4702  1.2680
  879MOL0     H16004   3.073   7.308  -0.168  1.8855 -1.2008  0.8395
  879MOL0     H16005   3.066   7.206  -0.302  2.0021 -0.6881  0.1531
  879MOL0     H16006   2.949   7.422  -0.344  0.8531  0.8355 -0.1535
  879MOL0     H16007   3.101   7.508  -0.308  2.4308 -0.6648  0.2009
  879MOL0     H16008   3.034   7.315  -0.541 -0.8794  0.4958  1.0382
  879MOL0     H16009   3.192   7.395  -0.529 -1.1484  1.6570 -2.7618
  879MOL0     H16010   3.926   6.989  -0.094  1.5958  0.4019 -1.1785
  879MOL0     H16011   4.127   6.967  -0.045 -0.3560 -1.1061  3.4199
  879MOL0     H16012   4.595   7.419   0.065  2.7074  0.9537  0.0848
  879MOL0     H16013   4.815   7.401   0.162 -2.7706  1.7470  2.3585
  879MOL0     H16014   6.279   5.929   0.637  1.1327 -0.8609 -1.3231
  879MOL0     H16015   6.498   5.901   0.575  0.8663 -0.9799  0.7341
  879MOL0     H16016   6.920   6.049   0.526 -0.0500 -0.0124  0.3922
  879MOL0     H16017   7.147   6.164   0.493  1.9213  1.4414  1.1713
  879MOL0     H16018   7.393   6.176   0.830 -0.4859 -2.4514 -1.1787
  879MOL0     H16019   7.380   6.355   0.817 -0.9817  2.5022 -3.8775
  879MOL0     H16020   7.607   6.233   0.803 -1.3222  0.7433  0.9127
  879MOL0     H16021   7.555   6.168   0.649  3.3839  1.1772 -1.4745
  879MOL0     H16022   7.520   6.433   0.586  0.3273  2.9745  1.2358
  879MOL0     H16023   7.683   6.364   0.559  0.1767  0.0172 -0.0706
  879MOL0     H16024   7.669   6.580   0.692 -0.7399 -0.8418 -1.4469
  879MOL0     H16025   7.575   6.503   0.817  0.7021  2.5776 -0.2323
  879MOL0     H16026   7.976   6.396   0.891 -0.9512 -0.1612 -0.8738
  879MOL0     H16027   7.209   6.189   0.922 -1.9857  3.5932  0.5645
  879MOL0     H16028   7.012   6.092   0.956  1.3059 -0.3073 -0.2216
  880MOL0     O16029   6.025   1.446   6.387 -0.1558  0.3465  0.6782
  880MOL0     C16030   6.119   1.373   6.370  0.1011  0.5985 -0.4091
  880MOL0     O16031   6.144   1.301   6.258 -0.0745  0.3945 -0.5909
  880MOL0     C16032   6.039   1.279   6.170 -0.5114 -0.1124 -0.1049
  880MOL0     C16033   5.935   1.196   6.199 -0.6313  0.0611  0.5102
  880MOL0     C16034   5.828   1.175   6.117  0.2910  0.6018 -0.1055
  880MOL0     C16035   5.819   1.252   6.000  0.9263 -0.7893  0.0905
  880MOL0     O16036   5.701   1.235   5.928 -0.0189  0.6065 -0.5219
  880MOL0     C16037   5.706   1.307   5.802  0.3180  0.5246  0.0790
  880MOL0     C16038   5.572   1.278   5.733  0.5734 -0.0080 -0.1035
  880MOL0     C16039   5.471   1.373   5.790 -0.4532  0.4695  0.1415
  880MOL0     C16040   5.333   1.345   5.726  0.0874  0.2841  0.9170
  880MOL0     C16041   5.211   1.381   5.814  0.2259 -0.1061  0.9097
  880MOL0     C16042   5.214   1.517   5.881  0.2714  0.5854 -0.1335
  880MOL0     C16043   5.088   1.529   5.964  0.3550 -0.1064  0.3061
  880MOL0     C16044   4.963   1.528   5.875  0.3549 -0.2749  0.9338
  880MOL0     N16045   4.847   1.568   5.964  0.2050  0.4231 -0.2334
  880MOL0     C16046   4.813   1.531   6.097  0.6561 -0.8176  0.7988
  880MOL0     C16047   4.697   1.596   6.122  0.1135 -0.0406 -0.5416
  880MOL0     C16048   4.625   1.598   6.247 -0.2215  0.1128 -1.0202
  880MOL0     C16049   4.530   1.482   6.241 -0.3225  0.0298 -0.8902
  880MOL0     C16050   4.439   1.467   6.373 -0.4906 -0.2584  0.0370
  880MOL0     C16051   4.343   1.341   6.363 -0.0368  0.4331  0.7421
  880MOL0     O16052   4.220   1.369   6.295  0.2114 -0.3216 -0.2081
  880MOL0     C16053   4.115   1.433   6.359 -1.0085 -0.2947 -0.1242
  880MOL0     C16054   4.124   1.480   6.484 -0.3281 -0.7003  0.5228
  880MOL0     C16055   4.017   1.541   6.549 -0.1696  0.1963 -0.1538
  880MOL0     C16056   3.896   1.558   6.483  0.8221  0.2599  0.2472
  880MOL0     C16057   3.788   1.633   6.562  0.9275 -0.8087  0.1359
  880MOL0     O16058   3.678   1.676   6.484 -1.2990 -0.5255  0.1503
  880MOL0     C16059   3.570   1.723   6.556 -0.2956  0.4297  0.1000
  880MOL0     C16060   3.554   1.852   6.587  0.5175  0.2898 -0.5146
  880MOL0     C16061   3.437   1.901   6.652 -0.2126 -0.4309  0.5471
  880MOL0     C16062   3.334   1.804   6.684 -0.1793  0.1236  0.2094
  880MOL0     O16063   3.226   1.859   6.749  0.4810 -0.1765  0.3865
  880MOL0     C16064   3.116   1.764   6.751 -0.6060  0.1470  0.0132
  880MOL0     C16065   2.987   1.822   6.813 -0.8277  0.3070  0.4423
  880MOL0     C16066   2.938   1.947   6.745 -0.2166 -0.3197  0.2841
  880MOL0     C16067   2.792   1.979   6.777  0.3833 -0.7235 -0.0963
  880MOL0     C16068   2.760   2.021   6.921  0.4260 -0.2762 -0.3205
  880MOL0     C16069   2.605   2.017   6.937  0.1779  0.2627  0.0057
  880MOL0     C16070   2.547   2.012   7.079  0.3291  0.2468 -0.1577
  880MOL0     C16071   2.402   1.974   7.072  1.0971  0.1856 -0.6006
  880MOL0    Cl16072   2.359   1.950   7.248 -0.0055 -0.2120  0.1352
  880MOL0     C16073   3.356   1.672   6.662  0.2420  0.1466  0.3479
  880MOL0     C16074   3.476   1.629   6.597 -0.1662  0.1100 -0.6934
  880MOL0     O16075   3.796   1.645   6.684  0.2310  0.3697 -0.6831
  880MOL0     C16076   3.880   1.505   6.349  0.0637 -0.1654 -0.8808
  880MOL0     C16077   3.991   1.435   6.294  0.8692  0.1692  0.4103
  880MOL0     N16078   4.660   1.669   6.008  0.0809  0.8036  0.5444
  880MOL0     N16079   4.744   1.646   5.918 -0.4894 -0.7661 -0.0634
  880MOL0     C16080   5.923   1.340   5.965 -0.5381  0.0620 -0.2549
  880MOL0     C16081   6.032   1.352   6.056  0.0295 -0.0363  0.5737
  880MOL0     C16082   6.226   1.389   6.464 -0.4603 -0.4891 -0.0557
  880MOL0     C16083   6.335   1.295   6.456  0.0246  0.2519 -0.1048
  880MOL0     C16084   6.455   1.329   6.527  0.0810  0.7579  1.0017
  880MOL0     C16085   6.458   1.443   6.617  0.2464  0.0423 -0.4406
  880MOL0     O16086   6.574   1.480   6.679  0.3633 -0.6034 -0.0816
  880MOL0     C16087   6.701   1.435   6.641 -0.3917 -0.1301  0.1006
  880MOL0     C16088   6.806   1.503   6.735 -0.1153 -0.1179 -1.0212
  880MOL0     C16089   6.939   1.544   6.667 -0.2280 -0.1503  0.1254
  880MOL0     C16090   7.013   1.432   6.602  0.3439  0.7519  0.5384
  880MOL0     C16091   7.047   1.336   6.713  0.2799  0.2459  0.6368
  880MOL0     C16092   7.061   1.250   6.795 -0.5130  0.5789 -1.2135
  880MOL0     C16093   6.348   1.521   6.641  0.0435 -0.3150  0.6696
  880MOL0     C16094   6.237   1.491   6.558  0.2123 -0.4086  0.0450
  880MOL0     H16095   5.945   1.147   6.295  2.2401  1.1379  0.8608
  880MOL0     H16096   5.740   1.114   6.136  0.4164  0.4484 -0.0127
  880MOL0     H16097   5.794   1.277   5.745  0.4917  4.2247 -1.9195
  880MOL0     H16098   5.722   1.413   5.825  0.1965  0.1708  1.9393
  880MOL0     H16099   5.544   1.172   5.733  2.3239 -0.5162 -1.6818
  880MOL0     H16100   5.580   1.298   5.626  0.1118 -0.0452 -0.1477
  880MOL0     H16101   5.510   1.474   5.773  1.9657 -0.4904 -0.3828
  880MOL0     H16102   5.459   1.356   5.897 -1.6906 -0.0492 -0.0565
  880MOL0     H16103   5.321   1.405   5.636 -1.2672  2.5908  2.5280
  880MOL0     H16104   5.326   1.238   5.704 -0.4069  0.9021 -2.4580
  880MOL0     H16105   5.194   1.306   5.892  1.2463 -2.2527 -0.8126
  880MOL0     H16106   5.123   1.365   5.751  1.0831  0.0336 -0.3516
  880MOL0     H16107   5.217   1.590   5.800 -0.8748  2.4193  1.3848
  880MOL0     H16108   5.303   1.532   5.942 -0.8667  1.9684  1.2752
  880MOL0     H16109   5.084   1.442   6.030 -1.4045 -1.1653 -1.1124
  880MOL0     H16110   5.095   1.627   6.011  0.1059 -0.4100  0.9877
  880MOL0     H16111   4.938   1.429   5.836 -0.9113  0.0024  1.0227
  880MOL0     H16112   4.976   1.590   5.785 -0.4451 -2.3324 -0.6798
  880MOL0     H16113   4.878   1.474   6.161  2.8521 -0.6789 -1.1507
  880MOL0     H16114   4.565   1.689   6.260  0.6379  0.4748  0.8353
  880MOL0     H16115   4.698   1.589   6.328  0.6660 -0.3330 -1.8621
  880MOL0     H16116   4.585   1.390   6.219 -0.6779 -0.0304 -1.5628
  880MOL0     H16117   4.463   1.499   6.156  0.2000 -1.4244 -1.6315
  880MOL0     H16118   4.494   1.453   6.466  0.9542 -0.9177 -0.8894
  880MOL0     H16119   4.392   1.566   6.378  0.4219  0.1502  0.5994
  880MOL0     H16120   4.324   1.307   6.465 -0.2343  0.1557  0.6140
  880MOL0     H16121   4.389   1.250   6.323 -1.8102 -0.3481  0.3986
  880MOL0     H16122   4.216   1.452   6.535  2.2138 -0.9963 -3.7255
  880MOL0     H16123   4.034   1.574   6.651 -2.5339 -0.0344  0.3851
  880MOL0     H16124   3.641   1.916   6.572  0.2846  0.9681  0.9317
  880MOL0     H16125   3.430   2.007   6.677  1.2465 -0.3177  0.5670
  880MOL0     H16126   3.149   1.677   6.808 -0.1824  0.7292  0.6665
  880MOL0     H16127   3.088   1.734   6.650 -4.1807  0.0493  0.8876
  880MOL0     H16128   2.997   1.844   6.920  2.2384 -0.9557  0.5254
  880MOL0     H16129   2.913   1.742   6.811 -1.1470  0.6035  0.4271
  880MOL0     H16130   2.948   1.932   6.637 -1.9520  2.7892 -0.4436
  880MOL0     H16131   3.001   2.030   6.777  1.3077 -1.1799 -0.3846
  880MOL0     H16132   2.752   2.048   6.702  0.2797 -1.8691 -1.1171
  880MOL0     H16133   2.732   1.889   6.759 -1.3019  0.6378 -1.6593
  880MOL0     H16134   2.803   2.115   6.955 -0.4482 -0.2488  0.7683
  880MOL0     H16135   2.788   1.944   6.994  0.1081 -1.6345 -1.5743
  880MOL0     H16136   2.570   1.924   6.891 -0.3329 -0.5823  1.9970
  880MOL0     H16137   2.566   2.106   6.888 -0.8815 -0.0846  0.1938
  880MOL0     H16138   2.607   1.935   7.128  0.2210 -0.6983 -1.4302
  880MOL0     H16139   2.545   2.105   7.136  1.0983  0.9256 -1.2113
  880MOL0     H16140   2.372   1.891   7.008 -0.7063  1.7826 -1.9455
  880MOL0     H16141   2.351   2.059   7.026  0.3737 -0.3370 -0.7778
  880MOL0     H16142   3.282   1.595   6.684 -2.4386  2.1826 -0.9890
  880MOL0     H16143   3.488   1.524   6.574 -0.7349  0.4254 -2.5647
  880MOL0     H16144   3.786   1.510   6.296 -1.7021  1.0769  2.1213
  880MOL0     H16145   3.966   1.392   6.198  0.6429 -0.7668  0.8823
  880MOL0     H16146   5.919   1.407   5.879  0.7802  1.0524  0.4104
  880MOL0     H16147   6.112   1.418   6.026  0.6299  0.5126  3.1393
  880MOL0     H16148   6.337   1.222   6.375 -4.2803 -1.2663  0.8565
  880MOL0     H16149   6.545   1.274   6.501 -0.6495  0.4330 -1.0189
  880MOL0     H16150   6.716   1.461   6.535 -2.7815 -0.6830 -0.4263
  880MOL0     H16151   6.706   1.326   6.649 -1.1763 -0.1391  0.5325
  880MOL0     H16152   6.758   1.596   6.767  0.9939  0.3252 -0.5880
  880MOL0     H16153   6.817   1.437   6.821 -2.5849  3.1746  2.1165
  880MOL0     H16154   6.998   1.597   6.742 -0.0180 -2.2679  1.5274
  880MOL0     H16155   6.910   1.617   6.590 -0.0811 -0.2126  0.0104
  880MOL0     H16156   6.960   1.379   6.522  1.1489  0.1731  0.3839
  880MOL0     H16157   7.107   1.459   6.554  1.4206 -1.7669  1.0673
  880MOL0     H16158   7.082   1.178   6.871 -0.1182  4.0327  2.2379
  880MOL0     H16159   6.350   1.601   6.714  2.4019  3.1125 -2.7348
  880MOL0     H16160   6.157   1.563   6.567  0.3086 -0.4876  1.9292
  881MOL0     O16161   3.428  11.062   2.340 -0.2762  0.5388 -0.0879
  881MOL0     C16162   3.512  10.991   2.276  0.3512  0.5660 -0.3985
  881MOL0     O16163   3.490  10.864   2.228  0.0075 -0.4653  0.5472
  881MOL0     C16164   3.354  10.828   2.216  0.4107 -0.2968 -0.2236
  881MOL0     C16165   3.285  10.796   2.097  0.3950 -0.0958  0.4473
  881MOL0     C16166   3.143  10.760   2.093 -0.2727  0.6100  0.6147
  881MOL0     C16167   3.084  10.737   2.213 -0.6785 -0.5110  0.4825
  881MOL0     O16168   2.951  10.705   2.208  0.9343 -0.4755  0.2595
  881MOL0     C16169   2.852  10.809   2.246  0.2546 -1.1962 -0.7489
  881MOL0     C16170   2.710  10.759   2.243 -0.0186  0.4557 -0.3502
  881MOL0     C16171   2.620  10.868   2.295  0.2799 -0.3981  0.2167
  881MOL0     C16172   2.489  10.802   2.331 -0.4455  0.3823  0.8177
  881MOL0     C16173   2.372  10.888   2.379  0.1255 -0.5172 -0.3121
  881MOL0     C16174   2.418  11.001   2.478  0.6525 -1.1379 -0.0720
  881MOL0     C16175   2.297  11.096   2.497 -0.1381 -0.8016  0.6772
  881MOL0     C16176   2.176  11.033   2.561 -0.3909  0.0372 -0.4598
  881MOL0     N16177   2.084  11.131   2.625  1.1094 -0.3082 -0.6987
  881MOL0     C16178   1.975  11.179   2.562 -0.1093 -0.4295  0.0441
  881MOL0     C16179   1.903  11.253   2.647  0.2146  0.6795 -0.1209
  881MOL0     C16180   1.775  11.330   2.610 -0.6521  0.0547  0.3448
  881MOL0     C16181   1.707  11.375   2.738 -0.0752 -0.1715  0.3406
  881MOL0     C16182   1.559  11.399   2.698 -0.4102  0.2004 -0.3769
  881MOL0     C16183   1.504  11.500   2.800  0.3629 -0.0871  0.4299
  881MOL0     O16184   1.365  11.518   2.753  0.1241  0.0344  0.2257
  881MOL0     C16185   1.297  11.637   2.791  0.3595 -0.7023  0.5017
  881MOL0     C16186   1.332  11.706   2.919  0.0958  0.6136  0.5184
  881MOL0     C16187   1.242  11.805   2.958  0.3470 -0.6566  0.1392
  881MOL0     C16188   1.131  11.851   2.891  0.4053 -1.1655 -0.3736
  881MOL0     C16189   1.034  11.955   2.940  0.0998  0.5418 -0.3898
  881MOL0     O16190   0.914  11.957   2.890  0.0780  0.1383 -0.3931
  881MOL0     C16191   0.830  12.065   2.915  0.6428  1.3546  0.6891
  881MOL0     C16192   0.810  12.159   2.810  0.1458  0.2987 -0.6576
  881MOL0     C16193   0.715  12.252   2.830 -0.0188 -0.3915  0.1745
  881MOL0     C16194   0.627  12.258   2.939 -1.0105  0.0299  0.4232
  881MOL0     O16195   0.522  12.341   2.928  0.1855 -0.4943 -0.4047
  881MOL0     C16196   0.407  12.319   2.995 -0.5659  0.1966 -0.0803
  881MOL0     C16197   0.301  12.418   2.965  0.4941 -0.2903  0.1432
  881MOL0     C16198   0.175  12.398   3.038 -0.3889 -0.2957  0.5448
  881MOL0     C16199   0.064  12.499   2.991 -0.5479  0.2227 -0.4097
  881MOL0     C16200  -0.012  12.454   2.867 -0.0122 -0.3104 -0.0070
  881MOL0     C16201  -0.126  12.550   2.813  0.1367  0.0623  0.4175
  881MOL0     C16202  -0.250  12.542   2.905 -0.1300  0.4199 -0.4124
  881MOL0     C16203  -0.369  12.629   2.852  0.1102  0.3660 -0.9610
  881MOL0    Cl16204  -0.429  12.584   2.694  0.0902  0.0364  0.1253
  881MOL0     C16205   0.642  12.171   3.035 -0.2377 -0.5162 -1.0120
  881MOL0     C16206   0.736  12.068   3.024  0.8414  0.0576  0.4137
  881MOL0     O16207   1.084  12.041   3.010 -0.0769  0.0241 -0.1675
  881MOL0     C16208   1.106  11.785   2.766  0.7668 -0.0175  0.1848
  881MOL0     C16209   1.180  11.680   2.718 -0.1622 -0.3911 -0.1674
  881MOL0     N16210   1.985  11.263   2.759 -0.4663 -0.1199  0.5189
  881MOL0     N16211   2.086  11.188   2.748 -0.1669  0.3176 -0.3744
  881MOL0     C16212   3.157  10.762   2.328  0.0493 -0.3905 -0.1991
  881MOL0     C16213   3.287  10.810   2.338  0.2369  0.0107  0.2073
  881MOL0     C16214   3.657  11.034   2.281  0.8440  0.5273 -0.4601
  881MOL0     C16215   3.753  10.942   2.240  0.3872  0.1196 -0.0097
  881MOL0     C16216   3.879  10.983   2.229 -0.5114 -0.3430 -0.1241
  881MOL0     C16217   3.918  11.115   2.246 -0.1517  0.3112  0.4880
  881MOL0     O16218   4.042  11.146   2.199  0.1644  0.6138  0.0407
  881MOL0     C16219   4.098  11.272   2.233 -1.1128 -0.0872  1.0068
  881MOL0     C16220   4.260  11.253   2.219  0.5684  0.0840  0.1255
  881MOL0     C16221   4.308  11.207   2.078  0.7735  0.5819 -0.3147
  881MOL0     C16222   4.310  11.329   1.986 -0.4236 -0.0262 -1.2779
  881MOL0     C16223   4.437  11.400   2.015  0.1234 -0.1684  0.8162
  881MOL0     C16224   4.536  11.466   2.041  0.1729  0.1191 -0.0939
  881MOL0     C16225   3.822  11.207   2.293 -0.7955 -0.8736 -1.3754
  881MOL0     C16226   3.692  11.162   2.304  0.6290 -1.0099  0.6218
  881MOL0     H16227   3.342  10.806   2.005 -0.3159 -0.5829 -0.0595
  881MOL0     H16228   3.099  10.759   1.994  0.0797  0.3152  0.4548
  881MOL0     H16229   2.865  10.896   2.181  0.5611 -0.1138  0.7045
  881MOL0     H16230   2.878  10.861   2.339 -0.2302 -0.9479 -0.7495
  881MOL0     H16231   2.703  10.664   2.298 -0.7235  1.2602  0.9764
  881MOL0     H16232   2.692  10.727   2.140  1.5675 -2.6638  0.2216
  881MOL0     H16233   2.605  10.941   2.215  0.4552 -0.9782 -0.3573
  881MOL0     H16234   2.666  10.918   2.380 -2.9580 -0.8976  2.4069
  881MOL0     H16235   2.446  10.761   2.239  1.0447  0.1254  0.2004
  881MOL0     H16236   2.517  10.728   2.406  0.9620  1.0420  0.9719
  881MOL0     H16237   2.287  10.831   2.418 -2.3200  2.2442 -1.2257
  881MOL0     H16238   2.341  10.936   2.285  1.2123  2.5518  0.7620
  881MOL0     H16239   2.504  11.060   2.447  0.6869 -0.4965  1.1911
  881MOL0     H16240   2.441  10.950   2.572  1.3808 -0.3045  0.2150
  881MOL0     H16241   2.311  11.195   2.543 -0.2920  0.0981 -1.1178
  881MOL0     H16242   2.263  11.127   2.397 -0.8581 -1.9665  0.5535
  881MOL0     H16243   2.209  10.970   2.644 -0.8091  1.0808  0.5373
  881MOL0     H16244   2.128  10.962   2.493 -2.6634  0.1065  0.9545
  881MOL0     H16245   1.961  11.157   2.457  2.1057  1.0428 -0.6278
  881MOL0     H16246   1.709  11.251   2.570  1.4074 -0.5477 -2.1881
  881MOL0     H16247   1.797  11.414   2.544  1.3817 -1.5165 -1.1290
  881MOL0     H16248   1.758  11.461   2.783  1.7684 -1.4733  0.8233
  881MOL0     H16249   1.709  11.302   2.819 -0.0898  0.6157  1.0679
  881MOL0     H16250   1.559  11.449   2.601  3.1010 -1.4550 -1.4038
  881MOL0     H16251   1.504  11.305   2.694  0.3834 -0.4261  2.0422
  881MOL0     H16252   1.561  11.592   2.815 -1.8198  1.4666 -0.2131
  881MOL0     H16253   1.496  11.453   2.898 -2.7920  0.0696  0.3468
  881MOL0     H16254   1.412  11.681   2.987 -0.4936  0.4588  1.1644
  881MOL0     H16255   1.273  11.858   3.047  1.6507  1.5412 -1.5101
  881MOL0     H16256   0.863  12.144   2.716 -1.1108 -2.3426 -1.0399
  881MOL0     H16257   0.701  12.318   2.745  0.5241 -0.1840  0.2473
  881MOL0     H16258   0.428  12.335   3.102  1.9877 -0.0718 -0.4750
  881MOL0     H16259   0.383  12.213   2.978 -1.8346 -0.2412  3.4416
  881MOL0     H16260   0.294  12.427   2.856  3.4711  1.5048 -0.0139
  881MOL0     H16261   0.326  12.522   2.990 -2.5138  0.2255  1.4501
  881MOL0     H16262   0.199  12.422   3.142 -0.8451  1.4460  0.2791
  881MOL0     H16263   0.143  12.295   3.021  5.9407 -2.7808  0.7704
  881MOL0     H16264  -0.004  12.525   3.073 -0.3814 -1.3587  0.2713
  881MOL0     H16265   0.116  12.589   2.957  2.0028 -1.7530 -2.1157
  881MOL0     H16266  -0.053  12.354   2.877 -1.9873  0.5698  1.2831
  881MOL0     H16267   0.071  12.447   2.796  0.9974  0.7419  1.0312
  881MOL0     H16268  -0.146  12.523   2.708  0.7037 -2.7236  0.9509
  881MOL0     H16269  -0.097  12.655   2.821 -1.4439  0.5054  0.8278
  881MOL0     H16270  -0.294  12.442   2.915  0.7315  0.0388 -0.3298
  881MOL0     H16271  -0.212  12.581   3.000 -1.3312  2.4734 -0.7081
  881MOL0     H16272  -0.346  12.735   2.841 -2.3893  1.3540  1.8133
  881MOL0     H16273  -0.459  12.627   2.915 -0.0343  1.9551 -1.0785
  881MOL0     H16274   0.578  12.176   3.122  2.4486 -0.5056  1.0916
  881MOL0     H16275   0.749  11.986   3.093 -1.5847 -1.7975 -1.1597
  881MOL0     H16276   1.034  11.826   2.696  0.7343  3.9889  2.2500
  881MOL0     H16277   1.156  11.631   2.624 -0.2627 -1.0541  0.1986
  881MOL0     H16278   3.103  10.744   2.420 -3.0947 -3.0151 -2.3272
  881MOL0     H16279   3.337  10.814   2.434  2.0948 -0.0675 -0.7180
  881MOL0     H16280   3.742  10.837   2.214  3.1127 -0.0739 -0.6611
  881MOL0     H16281   3.950  10.918   2.179  1.4960  0.0822  2.0112
  881MOL0     H16282   4.078  11.294   2.338  0.7442 -0.7815  1.5372
  881MOL0     H16283   4.062  11.352   2.167  0.9682  0.5093  0.5006
  881MOL0     H16284   4.296  11.353   2.247 -3.2819  2.6164 -2.8181
  881MOL0     H16285   4.289  11.177   2.292  1.7503  0.3798 -0.0166
  881MOL0     H16286   4.240  11.132   2.035 -1.5367  2.2068  0.3131
  881MOL0     H16287   4.409  11.165   2.076  0.6299 -0.1073  2.4958
  881MOL0     H16288   4.303  11.304   1.880  0.6803  1.6995 -1.8155
  881MOL0     H16289   4.228  11.395   2.018  0.2050  0.5809 -0.8803
  881MOL0     H16290   4.618  11.527   2.073 -0.6914  1.5276 -0.4522
  881MOL0     H16291   3.843  11.301   2.342  1.4714 -2.9694  2.1319
  881MOL0     H16292   3.619  11.239   2.324 -0.1349 -0.7808 -2.4402
  882MOL0     O16293  11.228   7.037   3.629 -0.8849 -0.2711  0.0090
  882MOL0     C16294  11.208   6.954   3.544  1.2280  0.1927  0.5328
  882MOL0     O16295  11.141   6.970   3.430 -0.8596 -0.0908 -0.2869
  882MOL0     C16296  11.057   7.082   3.406 -0.8160 -0.1029  0.5480
  882MOL0     C16297  11.024   7.192   3.495  0.5709 -0.2725 -0.1679
  882MOL0     C16298  10.915   7.283   3.463 -0.1653 -0.4717 -0.8903
  882MOL0     C16299  10.853   7.283   3.339  0.1573  0.0501 -0.5208
  882MOL0     O16300  10.740   7.360   3.313  0.3831 -0.1287 -0.4093
  882MOL0     C16301  10.745   7.431   3.188  0.2499  1.1182 -0.6052
  882MOL0     C16302  10.600   7.475   3.155 -0.0347  0.1820 -0.2545
  882MOL0     C16303  10.489   7.368   3.148  0.0768  0.5003 -0.0672
  882MOL0     C16304  10.428   7.339   3.282 -0.6973 -0.2872 -0.8025
  882MOL0     C16305  10.304   7.239   3.265  0.0398  0.2865 -0.5247
  882MOL0     C16306  10.188   7.302   3.180  0.6413  0.6918  0.2167
  882MOL0     C16307  10.057   7.222   3.199  0.3090  0.3900 -0.0556
  882MOL0     C16308   9.924   7.286   3.147 -1.1055  0.0743 -0.1547
  882MOL0     N16309   9.893   7.420   3.201  0.4219 -0.4730 -0.2025
  882MOL0     C16310   9.934   7.478   3.318 -1.4411 -0.2315 -0.4698
  882MOL0     C16311   9.867   7.592   3.345 -1.2293  0.5475  0.4163
  882MOL0     C16312   9.868   7.671   3.474 -0.3353 -0.2532 -0.1589
  882MOL0     C16313   9.732   7.640   3.533 -0.0241 -0.6634  0.2424
  882MOL0     C16314   9.682   7.715   3.650  0.4180 -0.2439 -1.0515
  882MOL0     C16315   9.556   7.653   3.715 -0.1822  0.9836  0.6272
  882MOL0     O16316   9.517   7.725   3.830 -0.2280  0.3697  1.0546
  882MOL0     C16317   9.394   7.711   3.885 -0.0376 -0.5154  1.0377
  882MOL0     C16318   9.303   7.610   3.843 -0.2788 -0.3441 -0.6547
  882MOL0     C16319   9.182   7.595   3.914 -0.9717  0.0952 -0.2253
  882MOL0     C16320   9.138   7.683   4.013 -0.7134 -0.2883 -0.5809
  882MOL0     C16321   9.005   7.656   4.069 -0.3311  0.9193  0.3484
  882MOL0     O16322   8.928   7.551   4.013  0.1680  0.0057 -0.0698
  882MOL0     C16323   8.803   7.531   4.063 -0.7888 -0.8762 -0.2460
  882MOL0     C16324   8.708   7.629   4.079  0.3022 -0.8425 -0.1648
  882MOL0     C16325   8.577   7.596   4.114 -0.1754 -0.5182  0.8952
  882MOL0     C16326   8.535   7.473   4.149  0.8163 -0.4253  0.1247
  882MOL0     O16327   8.407   7.462   4.193  0.1394  0.4461 -0.2967
  882MOL0     C16328   8.372   7.332   4.232  0.4662  0.1913  0.2755
  882MOL0     C16329   8.226   7.355   4.280  0.3090 -0.2558 -0.2547
  882MOL0     C16330   8.177   7.240   4.369 -0.0470  0.2147 -1.2490
  882MOL0     C16331   8.032   7.243   4.417  1.0606  0.0505  0.8421
  882MOL0     C16332   8.005   7.123   4.508  0.2385  0.6608 -0.1104
  882MOL0     C16333   7.881   7.118   4.588 -0.9202 -0.5817  0.2940
  882MOL0     C16334   7.909   7.215   4.715 -0.2518 -0.8381  0.4373
  882MOL0     C16335   7.992   7.134   4.819 -0.6244  0.3203  0.9828
  882MOL0    Cl16336   8.013   7.197   4.983 -0.1509 -0.4427  0.1739
  882MOL0     C16337   8.630   7.370   4.134 -0.4585  0.0161  0.2574
  882MOL0     C16338   8.760   7.404   4.096 -0.1319 -0.2852  0.7459
  882MOL0     O16339   8.965   7.733   4.155 -0.0619  0.0050 -0.2593
  882MOL0     C16340   9.235   7.778   4.059 -0.3586  0.4800 -0.4220
  882MOL0     C16341   9.356   7.795   3.994 -0.0268 -0.2298  0.8875
  882MOL0     N16342   9.771   7.601   3.239 -0.1604  0.0166  0.5753
  882MOL0     N16343   9.791   7.496   3.161  0.3643 -0.5080 -0.5867
  882MOL0     C16344  10.904   7.191   3.242 -0.3972 -0.4630 -0.5202
  882MOL0     C16345  10.999   7.097   3.276 -0.3102 -0.3443 -0.4378
  882MOL0     C16346  11.262   6.824   3.569 -0.1820 -0.7659  0.1697
  882MOL0     C16347  11.272   6.788   3.702  0.1018 -0.0372 -0.2881
  882MOL0     C16348  11.321   6.658   3.733 -0.3792  0.7411 -0.9774
  882MOL0     C16349  11.341   6.561   3.638  0.7598  0.1351 -0.6137
  882MOL0     O16350  11.371   6.427   3.683 -0.0529 -0.5083 -0.1703
  882MOL0     C16351  11.479   6.364   3.637 -0.2863 -0.4533 -0.8094
  882MOL0     C16352  11.598   6.425   3.709  0.2707 -0.2902 -0.4727
  882MOL0     C16353  11.729   6.366   3.656 -0.1040 -0.0235  0.2493
  882MOL0     C16354  11.787   6.444   3.527 -0.2089  0.4644 -0.9427
  882MOL0     C16355  11.922   6.422   3.499 -1.0898 -0.3715  1.0917
  882MOL0     C16356  12.045   6.408   3.476  0.0289  0.9509  0.2140
  882MOL0     C16357  11.326   6.604   3.498 -0.2989  0.1157 -0.8385
  882MOL0     C16358  11.289   6.736   3.463  0.5999  0.8016 -0.3914
  882MOL0     H16359  11.056   7.176   3.598 -1.4719  2.4486  1.0246
  882MOL0     H16360  10.888   7.351   3.543 -2.2459 -0.1274 -1.8139
  882MOL0     H16361  10.787   7.375   3.104  0.0723  0.5543 -0.3214
  882MOL0     H16362  10.812   7.517   3.204  2.0051 -0.5485  1.6397
  882MOL0     H16363  10.589   7.530   3.061 -1.4220  1.1455  0.4256
  882MOL0     H16364  10.569   7.556   3.222 -1.6705  0.8559 -1.7559
  882MOL0     H16365  10.528   7.274   3.107 -4.5654 -1.9058  0.3952
  882MOL0     H16366  10.404   7.397   3.086 -0.8003 -1.9056 -0.0992
  882MOL0     H16367  10.506   7.311   3.353 -3.2287  0.2145  2.3999
  882MOL0     H16368  10.395   7.434   3.326 -0.5098 -0.5641 -0.0500
  882MOL0     H16369  10.260   7.226   3.364 -1.9508  3.7673 -0.7917
  882MOL0     H16370  10.336   7.148   3.213 -0.6248  1.2685 -2.7813
  882MOL0     H16371  10.211   7.305   3.073  1.6371  3.0994  0.4401
  882MOL0     H16372  10.171   7.404   3.216  3.0401  1.2243 -0.0031
  882MOL0     H16373  10.064   7.124   3.151 -0.3007 -0.8408  2.2295
  882MOL0     H16374  10.045   7.218   3.307 -0.1086  0.1671 -0.1113
  882MOL0     H16375   9.833   7.226   3.161 -0.6683 -0.5733 -0.0891
  882MOL0     H16376   9.936   7.294   3.039  3.6052 -2.7827 -0.1090
  882MOL0     H16377  10.005   7.439   3.391 -0.6889  3.5088  1.0051
  882MOL0     H16378   9.885   7.778   3.462  1.1647 -0.5559 -0.9754
  882MOL0     H16379   9.949   7.645   3.543  0.7362  1.8013 -0.5524
  882MOL0     H16380   9.714   7.534   3.555 -0.6944 -0.0497  2.9863
  882MOL0     H16381   9.661   7.670   3.455  0.8660 -0.1134 -0.3790
  882MOL0     H16382   9.764   7.715   3.723 -1.5290  2.5617  1.3517
  882MOL0     H16383   9.659   7.821   3.638  1.2541  0.2858  1.4798
  882MOL0     H16384   9.584   7.553   3.750 -2.4115 -0.1938 -0.6894
  882MOL0     H16385   9.487   7.644   3.631  0.2205  0.7955  0.3073
  882MOL0     H16386   9.331   7.541   3.765 -0.1938  0.1162 -1.0370
  882MOL0     H16387   9.112   7.528   3.865 -0.8000 -0.2028 -0.0654
  882MOL0     H16388   8.732   7.731   4.049 -1.6117 -0.1554  0.4879
  882MOL0     H16389   8.502   7.673   4.126  0.4693  0.1540  0.6783
  882MOL0     H16390   8.439   7.294   4.310  1.6319  2.4156  0.4374
  882MOL0     H16391   8.383   7.264   4.147  1.1163  0.9162 -0.2229
  882MOL0     H16392   8.155   7.362   4.198 -0.7341  2.7208  0.7569
  882MOL0     H16393   8.228   7.450   4.336  0.1894  0.6230 -1.6914
  882MOL0     H16394   8.240   7.239   4.459 -1.6272  0.4689 -0.1025
  882MOL0     H16395   8.186   7.143   4.319 -2.8384 -1.3899  1.0422
  882MOL0     H16396   8.019   7.336   4.472  1.7973  1.8379 -1.8374
  882MOL0     H16397   7.959   7.243   4.336  3.1894 -0.5668 -1.1763
  882MOL0     H16398   8.089   7.116   4.578  0.5533  1.3910 -0.4061
  882MOL0     H16399   7.996   7.033   4.446 -1.0391  0.7906 -0.1422
  882MOL0     H16400   7.847   7.019   4.617 -2.8451 -0.6794 -2.0391
  882MOL0     H16401   7.795   7.158   4.533 -1.2806  0.1374  1.3459
  882MOL0     H16402   7.952   7.309   4.680  1.9200 -1.9194  0.0049
  882MOL0     H16403   7.813   7.249   4.756 -1.1197  0.0828 -2.1827
  882MOL0     H16404   8.091   7.108   4.781 -1.5742 -2.7967  0.3381
  882MOL0     H16405   7.943   7.036   4.825 -1.9526  0.9259  0.4711
  882MOL0     H16406   8.607   7.267   4.159 -1.4592  0.0567 -0.4286
  882MOL0     H16407   8.837   7.328   4.083  1.0138  0.5700  2.1734
  882MOL0     H16408   9.203   7.833   4.147 -4.6335  0.4843 -1.7327
  882MOL0     H16409   9.423   7.871   4.032  1.2705  0.0816 -1.7701
  882MOL0     H16410  10.861   7.180   3.143 -2.7451 -0.3338  0.4056
  882MOL0     H16411  11.027   7.015   3.209  3.3591  0.3482  0.0298
  882MOL0     H16412  11.253   6.854   3.786 -0.7185 -0.7502  0.1101
  882MOL0     H16413  11.334   6.631   3.837  1.9293  0.3623 -1.3019
  882MOL0     H16414  11.494   6.368   3.528  0.8065 -0.3629 -0.6633
  882MOL0     H16415  11.482   6.258   3.661 -1.0338  0.1120  2.2159
  882MOL0     H16416  11.589   6.534   3.700 -1.3984 -0.2754  0.7813
  882MOL0     H16417  11.595   6.390   3.813  1.7214  1.3903  0.1776
  882MOL0     H16418  11.712   6.263   3.623 -0.5310  0.1900 -0.2112
  882MOL0     H16419  11.795   6.372   3.743 -0.1665  3.2043  0.1794
  882MOL0     H16420  11.730   6.422   3.437 -1.2623  0.6096 -0.3239
  882MOL0     H16421  11.772   6.550   3.551  0.4614  0.5712 -0.9539
  882MOL0     H16422  12.150   6.384   3.473 -0.3204 -1.4820  3.0800
  882MOL0     H16423  11.355   6.545   3.412  2.9438 -0.9071  0.7580
  882MOL0     H16424  11.286   6.769   3.360 -0.1247  1.2499 -0.2304
  883MOL0     O16425   8.154  10.337   8.936  0.4115  0.2074 -0.1779
  883MOL0     C16426   8.046  10.298   8.978  0.3698 -0.6210 -0.2644
  883MOL0     O16427   8.021  10.173   9.033  0.0887  0.0676 -0.4144
  883MOL0     C16428   8.127  10.097   9.069 -0.0671  1.2010  0.9125
  883MOL0     C16429   8.213  10.057   8.961 -0.4373 -0.1563 -0.0318
  883MOL0     C16430   8.322   9.985   8.988 -0.0552  0.6394 -0.7692
  883MOL0     C16431   8.350   9.945   9.119  0.0222  0.4237  0.1131
  883MOL0     O16432   8.469   9.877   9.136 -0.2920 -0.1884  0.1649
  883MOL0     C16433   8.508   9.822   9.263  0.8897  0.5614 -0.8469
  883MOL0     C16434   8.539   9.941   9.348  0.5413  0.0607 -0.5809
  883MOL0     C16435   8.578   9.903   9.500  0.3571  0.1978 -0.1726
  883MOL0     C16436   8.602  10.018   9.596  1.1503  0.2965  0.3206
  883MOL0     C16437   8.645   9.948   9.730 -0.0185  0.1892 -0.1438
  883MOL0     C16438   8.673  10.056   9.838  0.0572 -0.7666  0.7281
  883MOL0     C16439   8.655  10.001   9.977  0.2865 -0.0621 -0.7109
  883MOL0     C16440   8.512  10.036  10.036 -0.7414  0.5284 -0.7818
  883MOL0     N16441   8.513  10.009  10.184 -0.3844 -0.4161  0.3819
  883MOL0     C16442   8.432  10.076  10.273  0.1031 -0.6676  0.4775
  883MOL0     C16443   8.434  10.021  10.399  0.6254  0.7861 -0.0078
  883MOL0     C16444   8.354  10.068  10.521  0.3189  0.1238  0.8387
  883MOL0     C16445   8.214  10.013  10.539  0.3772  0.0087  0.4897
  883MOL0     C16446   8.108  10.083  10.441  0.2168  0.5877 -0.7027
  883MOL0     C16447   7.964  10.040  10.484 -0.4731  0.1347  0.4184
  883MOL0     O16448   7.869  10.089  10.389 -0.1939 -1.0233 -0.5918
  883MOL0     C16449   7.741  10.041  10.397 -0.8439  0.5302  0.2114
  883MOL0     C16450   7.667  10.037  10.283 -1.1052 -0.2433  1.0528
  883MOL0     C16451   7.534   9.996  10.279  0.0806 -0.2271 -0.4166
  883MOL0     C16452   7.464   9.965  10.399 -0.5486  0.8587 -0.1728
  883MOL0     C16453   7.322   9.934  10.388  0.1071 -0.0310  0.0135
  883MOL0     O16454   7.260   9.980  10.274  0.1424  0.4235  0.5455
  883MOL0     C16455   7.121   9.986  10.264  0.3389  0.7729 -0.7062
  883MOL0     C16456   7.030  10.039  10.359 -0.3664  1.2831  0.0609
  883MOL0     C16457   6.893  10.015  10.339  0.2597 -0.6697 -0.2184
  883MOL0     C16458   6.842   9.953  10.227  0.0431 -0.8311 -0.0309
  883MOL0     O16459   6.703   9.936  10.223  0.3884  0.5825 -0.7345
  883MOL0     C16460   6.627  10.054  10.252  0.8937  0.8442 -0.0554
  883MOL0     C16461   6.486  10.045  10.189  0.1984  0.3226 -0.8700
  883MOL0     C16462   6.417  10.173  10.197  0.8374 -1.0510 -0.4550
  883MOL0     C16463   6.271  10.162  10.148 -0.0800  0.1158  1.5396
  883MOL0     C16464   6.190  10.279  10.181 -0.5701 -0.7606 -0.1617
  883MOL0     C16465   6.069  10.282  10.090  0.6503  1.1346 -0.5262
  883MOL0     C16466   5.962  10.387  10.127  0.2203 -0.0369 -0.1787
  883MOL0     C16467   5.867  10.416  10.006 -0.6577  0.8502 -0.8328
  883MOL0    Cl16468   5.744  10.286   9.999 -0.0983 -0.2047  0.1723
  883MOL0     C16469   6.936   9.889  10.142  0.2604  0.4803  0.2774
  883MOL0     C16470   7.074   9.916  10.157 -0.3254  0.0469  0.6992
  883MOL0     O16471   7.269   9.867  10.478 -0.5577  0.2154  0.3414
  883MOL0     C16472   7.543   9.957  10.518  0.6631  0.1847 -0.4447
  883MOL0     C16473   7.687   9.991  10.523  0.2139  0.2385  1.1124
  883MOL0     N16474   8.520   9.910  10.382  0.1786  0.0128 -0.1018
  883MOL0     N16475   8.570   9.910  10.261  0.7252  0.1762 -0.9046
  883MOL0     C16476   8.254   9.962   9.224  0.0826 -0.6158 -0.3616
  883MOL0     C16477   8.144  10.046   9.198 -0.1090 -0.3968 -0.2667
  883MOL0     C16478   7.929  10.380   8.957  0.8811  0.4621  0.1487
  883MOL0     C16479   7.795  10.338   8.984 -0.6356 -0.3375  0.0290
  883MOL0     C16480   7.686  10.422   8.958 -0.3958 -0.3138  0.2047
  883MOL0     C16481   7.701  10.548   8.909  0.6292 -0.8973  0.7341
  883MOL0     O16482   7.597  10.637   8.890  0.6275 -0.0685 -0.1319
  883MOL0     C16483   7.464  10.576   8.870 -0.7552 -0.8047 -0.2217
  883MOL0     C16484   7.357  10.677   8.826  0.1927 -0.3456 -0.7466
  883MOL0     C16485   7.381  10.726   8.682 -0.0879  0.1819 -0.6766
  883MOL0     C16486   7.290  10.832   8.634  0.6368  0.7269  0.6304
  883MOL0     C16487   7.305  10.945   8.724 -0.3437  0.6957  0.3274
  883MOL0     C16488   7.324  11.044   8.792  0.1302 -0.5806 -0.1598
  883MOL0     C16489   7.829  10.600   8.887  0.2942 -0.7811 -0.7108
  883MOL0     C16490   7.940  10.510   8.902  0.0077 -0.1736  0.1014
  883MOL0     H16491   8.192  10.088   8.859  6.2118 -0.6593 -2.0053
  883MOL0     H16492   8.389   9.939   8.916 -1.8903 -1.0503 -1.4967
  883MOL0     H16493   8.596   9.763   9.238  0.0840 -1.2122  0.2842
  883MOL0     H16494   8.428   9.762   9.309 -0.2311  1.5188 -1.4705
  883MOL0     H16495   8.450  10.005   9.360  0.8530  0.4691 -0.4416
  883MOL0     H16496   8.618   9.999   9.300  2.2329 -1.9426 -0.3206
  883MOL0     H16497   8.663   9.834   9.497 -0.1127 -0.5120  1.8067
  883MOL0     H16498   8.496   9.843   9.540  0.4082  0.9355  1.0947
  883MOL0     H16499   8.672  10.090   9.553 -0.2331  2.2604  1.2060
  883MOL0     H16500   8.504  10.064   9.609  0.2680 -1.4764  0.1437
  883MOL0     H16501   8.739   9.894   9.719  0.5075  1.0907 -0.1166
  883MOL0     H16502   8.567   9.880   9.766  2.1057 -1.3115  1.9202
  883MOL0     H16503   8.611  10.143   9.814  0.9538 -0.8959 -2.4179
  883MOL0     H16504   8.778  10.086   9.830 -0.7066  2.0493 -0.0050
  883MOL0     H16505   8.672   9.893   9.977  3.4988  0.3252 -0.8780
  883MOL0     H16506   8.725  10.050  10.047  1.0779  0.6318 -1.9422
  883MOL0     H16507   8.429   9.988   9.984 -0.1812  0.5689 -1.7410
  883MOL0     H16508   8.499  10.145  10.026 -1.6855  0.4125 -0.9248
  883MOL0     H16509   8.380  10.170  10.254 -0.6872 -1.2201 -0.1546
  883MOL0     H16510   8.351  10.177  10.514  2.8579  0.2184  0.4413
  883MOL0     H16511   8.405  10.033  10.611  0.8176 -1.8296 -0.1414
  883MOL0     H16512   8.179  10.011  10.642  0.2705 -2.0783  0.4501
  883MOL0     H16513   8.215   9.906  10.518 -1.1463 -0.0885  0.7856
  883MOL0     H16514   8.099  10.192  10.448 -1.8029  0.4137  0.0334
  883MOL0     H16515   8.137  10.042  10.344  2.0769 -1.2914  0.5796
  883MOL0     H16516   7.948  10.076  10.586  2.4946 -2.8545  2.1367
  883MOL0     H16517   7.955   9.931  10.484 -2.3911  0.2587  0.3088
  883MOL0     H16518   7.720  10.061  10.192 -0.7511 -4.3329 -0.0076
  883MOL0     H16519   7.485   9.986  10.182 -0.4715 -0.0484 -0.1622
  883MOL0     H16520   7.070  10.092  10.445  1.1916  1.9737 -1.0251
  883MOL0     H16521   6.836  10.061  10.419  2.6629  0.3945  1.0040
  883MOL0     H16522   6.688  10.136  10.212  0.0984  1.3964 -0.1599
  883MOL0     H16523   6.614  10.075  10.359  1.0707 -4.1578  1.1942
  883MOL0     H16524   6.427   9.975  10.248  1.5090  0.7122  0.9807
  883MOL0     H16525   6.492  10.011  10.085  1.7822 -1.4307 -0.2545
  883MOL0     H16526   6.469  10.251  10.142 -1.5951  0.4833 -0.7137
  883MOL0     H16527   6.407  10.205  10.301 -2.6597  2.5759 -1.6741
  883MOL0     H16528   6.271  10.140  10.041  1.9769  1.5464  1.1918
  883MOL0     H16529   6.222  10.080  10.201  0.6653 -2.0251 -0.8898
  883MOL0     H16530   6.237  10.372  10.146 -2.5794 -0.5913 -2.7044
  883MOL0     H16531   6.170  10.272  10.288  2.2826 -1.9235  0.3760
  883MOL0     H16532   6.029  10.180  10.092  1.7444  0.6887  0.0354
  883MOL0     H16533   6.102  10.296   9.987  1.0877 -0.1977 -0.5896
  883MOL0     H16534   5.898  10.347  10.207  1.0672  0.6352  0.8705
  883MOL0     H16535   6.015  10.472  10.170  2.3711 -1.1198 -0.5986
  883MOL0     H16536   5.930  10.442   9.921 -1.5173  0.5691 -1.5725
  883MOL0     H16537   5.811  10.507  10.030  2.4879  2.4640  1.0411
  883MOL0     H16538   6.896   9.821  10.067 -1.1594  2.1848 -0.5892
  883MOL0     H16539   7.149   9.880  10.088  2.4436  2.1410  2.3952
  883MOL0     H16540   7.496   9.934  10.613  1.9882  2.9437  1.0141
  883MOL0     H16541   7.742   9.987  10.616 -0.5898  0.1716  1.5926
  883MOL0     H16542   8.269   9.931   9.327 -1.5321 -2.7460 -0.6977
  883MOL0     H16543   8.084  10.086   9.279  2.5544  0.7019  1.3156
  883MOL0     H16544   7.793  10.243   9.037  1.8842 -0.2512  0.4149
  883MOL0     H16545   7.588  10.385   8.984 -2.5669  4.0620 -0.7806
  883MOL0     H16546   7.428  10.539   8.967 -2.2397  1.3735  0.1247
  883MOL0     H16547   7.461  10.503   8.788 -0.5275 -0.4816 -0.5145
  883MOL0     H16548   7.265  10.619   8.814  0.5796 -1.2802  0.6268
  883MOL0     H16549   7.332  10.754   8.899 -2.4397 -0.4009 -1.5012
  883MOL0     H16550   7.378  10.641   8.613 -0.8226  1.2716 -2.0374
  883MOL0     H16551   7.484  10.760   8.674 -0.3469  0.7013 -2.0678
  883MOL0     H16552   7.317  10.851   8.530  0.1048  1.6183  0.6414
  883MOL0     H16553   7.192  10.784   8.641  1.6680 -1.3448  1.5844
  883MOL0     H16554   7.335  11.125   8.861  1.3366  2.1262 -3.2670
  883MOL0     H16555   7.834  10.701   8.849  1.0626  0.3523  2.1018
  883MOL0     H16556   8.042  10.533   8.874  0.2536 -1.9915 -0.6649
  884MOL0     O16557  10.553  10.413   7.655  0.2769 -0.4220 -0.5547
  884MOL0     C16558  10.617  10.310   7.679 -0.1248  0.3613  0.5071
  884MOL0     O16559  10.615  10.197   7.600 -0.1961  0.0178 -0.2535
  884MOL0     C16560  10.494  10.172   7.541 -0.3886 -0.0155  1.0740
  884MOL0     C16561  10.500  10.119   7.410 -0.1892 -1.0716 -0.7997
  884MOL0     C16562  10.387  10.088   7.333 -0.9362 -0.5824  0.4268
  884MOL0     C16563  10.263  10.119   7.382  0.4143  0.2275  0.7277
  884MOL0     O16564  10.149  10.112   7.301  0.3250  0.3307  0.9985
  884MOL0     C16565  10.086  10.233   7.266  0.5536 -0.9169 -0.8976
  884MOL0     C16566   9.964  10.197   7.180  0.0421  0.2119  0.7641
  884MOL0     C16567   9.847  10.143   7.268  0.4837 -0.0372 -0.8896
  884MOL0     C16568   9.709  10.138   7.200 -0.8688 -0.5151 -0.3623
  884MOL0     C16569   9.618  10.034   7.271 -0.0560 -0.1108 -0.5882
  884MOL0     C16570   9.471  10.018   7.210  0.0456  0.4665  1.1264
  884MOL0     C16571   9.373   9.938   7.300  0.2112 -0.1236  0.4458
  884MOL0     C16572   9.220   9.970   7.277 -0.1364 -0.1221  0.0810
  884MOL0     N16573   9.110   9.880   7.319 -0.7636 -0.6204  0.4689
  884MOL0     C16574   9.064   9.866   7.445  0.4046 -0.1171  0.9730
  884MOL0     C16575   8.979   9.762   7.431 -0.1412 -0.3605 -0.1849
  884MOL0     C16576   8.905   9.700   7.556 -0.2522 -0.2513 -0.4446
  884MOL0     C16577   8.756   9.693   7.519  0.0539  0.2624 -0.3082
  884MOL0     C16578   8.689   9.825   7.513 -0.3583 -0.3501 -0.2288
  884MOL0     C16579   8.530   9.825   7.509  0.3013 -0.2051  0.2848
  884MOL0     O16580   8.474   9.777   7.627  0.3588  0.4046 -0.0094
  884MOL0     C16581   8.337   9.779   7.633  0.5266 -0.0616 -0.2046
  884MOL0     C16582   8.271   9.720   7.740 -0.3077 -0.6022  0.6314
  884MOL0     C16583   8.133   9.706   7.752 -0.7682  0.4838  0.7387
  884MOL0     C16584   8.049   9.738   7.645 -0.0782 -0.5889 -0.2868
  884MOL0     C16585   7.905   9.719   7.651 -0.5642  0.4989  0.6569
  884MOL0     O16586   7.826   9.790   7.570 -0.9581  0.3881  0.0147
  884MOL0     C16587   7.695   9.752   7.551 -0.2969 -0.0792  0.4251
  884MOL0     C16588   7.647   9.620   7.564 -0.0072 -0.1154 -0.1531
  884MOL0     C16589   7.514   9.596   7.541  0.2838  0.7214 -0.0381
  884MOL0     C16590   7.418   9.693   7.505  0.3883  0.8447  0.6568
  884MOL0     O16591   7.288   9.634   7.509  0.3421 -0.4385 -0.9469
  884MOL0     C16592   7.179   9.716   7.551 -0.3091 -0.1946 -0.1478
  884MOL0     C16593   7.100   9.764   7.429  0.3941  0.0603 -0.4036
  884MOL0     C16594   6.982   9.854   7.474  0.8204 -0.1820 -0.1719
  884MOL0     C16595   7.039   9.980   7.542 -0.1901  0.6929 -0.5516
  884MOL0     C16596   6.944  10.093   7.534 -0.1130 -0.2988  0.6845
  884MOL0     C16597   6.951  10.172   7.399  0.1222  0.2195 -0.1291
  884MOL0     C16598   6.852  10.290   7.407  0.9342  0.7247 -0.8100
  884MOL0     C16599   6.868  10.382   7.528 -1.4707  0.0998 -0.5565
  884MOL0    Cl16600   6.779  10.536   7.503  0.2749  0.1852 -0.4330
  884MOL0     C16601   7.462   9.830   7.504  0.7663 -0.0438 -0.8015
  884MOL0     C16602   7.603   9.854   7.520 -0.0094 -0.6322  0.4163
  884MOL0     O16603   7.873   9.642   7.741  0.0973 -0.3839  0.3760
  884MOL0     C16604   8.106   9.802   7.535 -0.5804  0.0873 -0.4881
  884MOL0     C16605   8.251   9.828   7.533  0.5041  0.6787 -0.3336
  884MOL0     N16606   8.979   9.712   7.307  0.4839  0.2412  0.4853
  884MOL0     N16607   9.069   9.775   7.240 -0.0936  1.2350  0.1115
  884MOL0     C16608  10.255  10.169   7.513  0.3850  0.3053 -0.2757
  884MOL0     C16609  10.367  10.198   7.597 -0.4877 -0.2776  0.6813
  884MOL0     C16610  10.708  10.319   7.793  0.3496  0.4917 -0.2773
  884MOL0     C16611  10.825  10.239   7.793 -0.9379  0.6092 -0.4053
  884MOL0     C16612  10.914  10.255   7.900 -0.3270 -0.5948 -0.9060
  884MOL0     C16613  10.897  10.342   8.006 -0.3701  0.3685 -0.4262
  884MOL0     O16614  10.994  10.344   8.101 -0.0470  0.7379  0.3455
  884MOL0     C16615  11.010  10.463   8.168  0.7644 -0.1167  0.9694
  884MOL0     C16616  11.159  10.470   8.189 -0.0231 -0.4293  0.0138
  884MOL0     C16617  11.237  10.504   8.064  0.3545  0.4249 -0.0066
  884MOL0     C16618  11.388  10.527   8.103 -0.5744  0.7444  0.3297
  884MOL0     C16619  11.459  10.588   7.988  0.2219 -0.1998 -1.2322
  884MOL0     C16620  11.510  10.624   7.884 -0.2934 -0.4671 -0.0672
  884MOL0     C16621  10.765  10.400   8.014  1.0325  0.5188 -0.3641
  884MOL0     C16622  10.676  10.399   7.907  0.7068  0.4718  0.6348
  884MOL0     H16623  10.601  10.112   7.369  0.5286  4.0537 -0.4763
  884MOL0     H16624  10.415  10.049   7.235 -0.7428 -0.9321  0.6188
  884MOL0     H16625  10.157  10.298   7.215  0.7795 -2.4441 -2.6152
  884MOL0     H16626  10.041  10.274   7.357 -1.6861 -1.0969 -1.8550
  884MOL0     H16627   9.994  10.133   7.096  1.3931  2.1368 -0.3137
  884MOL0     H16628   9.926  10.290   7.138 -0.3631  0.9403  2.6907
  884MOL0     H16629   9.839  10.203   7.358 -2.6311 -0.3023 -0.8900
  884MOL0     H16630   9.870  10.039   7.295  0.1294  0.1298  0.0736
  884MOL0     H16631   9.665  10.236   7.219  0.9687  0.4519 -0.8870
  884MOL0     H16632   9.705  10.129   7.091  1.2741 -0.1956 -0.5074
  884MOL0     H16633   9.604  10.059   7.377  0.6826 -0.5027 -0.3874
  884MOL0     H16634   9.675   9.941   7.272  0.2678 -0.0069  2.3474
  884MOL0     H16635   9.471   9.969   7.113 -1.9106 -1.0674  1.8527
  884MOL0     H16636   9.427  10.117   7.195  0.4204  0.6699  1.3260
  884MOL0     H16637   9.381   9.830   7.283 -3.9396 -0.4342 -0.4585
  884MOL0     H16638   9.390   9.959   7.406  2.2358  2.0555 -0.2282
  884MOL0     H16639   9.209   9.998   7.172 -1.4569  2.7934  0.8863
  884MOL0     H16640   9.193  10.064   7.326 -0.7489  0.4870 -1.3533
  884MOL0     H16641   9.092   9.915   7.538 -0.4208  0.8863  0.7276
  884MOL0     H16642   8.918   9.763   7.644 -2.1400 -1.3006  0.6760
  884MOL0     H16643   8.935   9.596   7.573 -0.8626 -0.3698 -0.0378
  884MOL0     H16644   8.716   9.643   7.607  0.6709 -0.0348 -0.1934
  884MOL0     H16645   8.733   9.627   7.435 -0.6292 -0.0573  0.1248
  884MOL0     H16646   8.729   9.887   7.593  2.9258  0.5376 -2.3775
  884MOL0     H16647   8.726   9.870   7.421  1.8850 -0.6915  0.4533
  884MOL0     H16648   8.503   9.765   7.422 -1.1713  1.7755 -0.7052
  884MOL0     H16649   8.500   9.928   7.486  1.7145  0.8492  2.7460
  884MOL0     H16650   8.331   9.694   7.827  0.1894  1.2483  0.8908
  884MOL0     H16651   8.093   9.671   7.846  0.9814 -0.9432  1.0038
  884MOL0     H16652   7.711   9.535   7.586  0.0279 -0.4539 -1.4731
  884MOL0     H16653   7.480   9.494   7.549  0.3187  0.8008  1.6643
  884MOL0     H16654   7.220   9.799   7.610  0.8393 -0.9189  0.1145
  884MOL0     H16655   7.111   9.659   7.614 -0.0674  0.0903  0.3787
  884MOL0     H16656   7.067   9.671   7.381  3.4859  0.1162 -2.9612
  884MOL0     H16657   7.166   9.819   7.362  0.9995  0.6515  0.6638
  884MOL0     H16658   6.916   9.803   7.545  0.2621  2.5321  1.4225
  884MOL0     H16659   6.919   9.878   7.388  1.7105  2.0772 -0.2577
  884MOL0     H16660   7.057   9.957   7.648 -1.7890  0.1096 -0.3784
  884MOL0     H16661   7.137  10.009   7.503  1.3257  0.4459  2.7102
  884MOL0     H16662   6.959  10.160   7.620 -1.2953  0.8123  0.0511
  884MOL0     H16663   6.846  10.053   7.561 -0.4685 -0.6988 -1.1060
  884MOL0     H16664   6.918  10.101   7.322 -2.6389  1.8641 -0.6163
  884MOL0     H16665   7.053  10.197   7.372 -0.5197  0.4400 -2.5723
  884MOL0     H16666   6.861  10.354   7.318  1.8066  0.9415 -0.5802
  884MOL0     H16667   6.748  10.258   7.403  1.3142 -0.5630 -0.6235
  884MOL0     H16668   6.973  10.412   7.517 -1.6070 -0.0514 -2.6285
  884MOL0     H16669   6.844  10.323   7.617  1.2547  1.3877  1.1833
  884MOL0     H16670   7.402   9.917   7.481 -2.4349 -2.2105 -1.2196
  884MOL0     H16671   7.652   9.950   7.523  0.1849 -0.6760 -0.8215
  884MOL0     H16672   8.045   9.835   7.451  0.1584  1.1756 -0.6228
  884MOL0     H16673   8.288   9.876   7.443 -1.0087 -0.2664 -1.5250
  884MOL0     H16674  10.153  10.181   7.549  0.3501  0.8701 -0.5573
  884MOL0     H16675  10.347  10.231   7.698 -0.9676 -0.7310  0.7345
  884MOL0     H16676  10.854  10.163   7.721  1.5879  1.6856 -0.6221
  884MOL0     H16677  11.006  10.196   7.897 -0.2600 -0.4880 -0.9357
  884MOL0     H16678  10.951  10.464   8.261 -1.4656  0.5394 -0.3660
  884MOL0     H16679  10.982  10.552   8.111 -1.1631 -0.6908  0.9241
  884MOL0     H16680  11.180  10.547   8.264 -0.5543 -0.9513  0.7134
  884MOL0     H16681  11.191  10.375   8.232  0.4021  0.8450  2.7370
  884MOL0     H16682  11.196  10.596   8.021 -0.1294  1.1064  1.8327
  884MOL0     H16683  11.238  10.416   7.998 -1.1980 -0.1852  0.7223
  884MOL0     H16684  11.392  10.588   8.194  2.5147 -0.8934  1.4159
  884MOL0     H16685  11.431  10.430   8.128  2.1721  1.4307 -1.2509
  884MOL0     H16686  11.563  10.668   7.801 -0.0979  0.6144  0.6175
  884MOL0     H16687  10.717  10.441   8.102 -1.8406 -2.1612 -0.5069
  884MOL0     H16688  10.581  10.449   7.921  0.0343 -1.1223  2.0387
  885MOL0     O16689   1.536   0.115   5.800  0.2602 -0.9890 -0.1119
  885MOL0     C16690   1.576   0.071   5.689 -0.0571  1.1936 -0.1279
  885MOL0     O16691   1.498  -0.012   5.609  0.5253  0.0135 -1.1228
  885MOL0     C16692   1.378  -0.049   5.665  0.0851 -0.4240  0.0110
  885MOL0     C16693   1.363  -0.148   5.757 -0.6178  0.0670 -0.3310
  885MOL0     C16694   1.232  -0.181   5.801  0.6580 -0.2324 -0.7645
  885MOL0     C16695   1.120  -0.112   5.756  0.1941  0.3999 -0.0435
  885MOL0     O16696   0.998  -0.143   5.816  0.0071 -0.4612  0.6906
  885MOL0     C16697   0.887  -0.115   5.723  0.9307  0.3945  0.8338
  885MOL0     C16698   0.749  -0.179   5.771 -0.1637  0.3710  0.7834
  885MOL0     C16699   0.638  -0.167   5.668 -0.6375  0.0265 -0.6961
  885MOL0     C16700   0.515  -0.240   5.727 -0.6580 -0.6662  0.6037
  885MOL0     C16701   0.406  -0.211   5.618 -0.6357  0.1172 -0.4155
  885MOL0     C16702   0.341  -0.076   5.619  0.3496  0.0025 -1.0096
  885MOL0     C16703   0.218  -0.067   5.529 -0.3557 -0.3169 -0.1107
  885MOL0     C16704   0.145   0.066   5.566 -0.4229  0.3017 -0.8305
  885MOL0     N16705   0.038   0.101   5.475  0.2801 -0.1170  0.1119
  885MOL0     C16706  -0.004   0.029   5.359 -0.2237 -0.9022  0.3435
  885MOL0     C16707  -0.117   0.100   5.320 -0.3035  1.0298  0.4343
  885MOL0     C16708  -0.219   0.051   5.219 -0.0965 -0.3729  0.8149
  885MOL0     C16709  -0.338   0.158   5.207 -0.4037  0.0110 -0.8264
  885MOL0     C16710  -0.296   0.296   5.130  1.1753  0.4503 -0.4786
  885MOL0     C16711  -0.407   0.400   5.142 -0.3679  0.1201 -0.1664
  885MOL0     O16712  -0.531   0.349   5.082  0.6291 -0.0901  0.5880
  885MOL0     C16713  -0.639   0.429   5.078  0.6980  0.4125  0.2224
  885MOL0     C16714  -0.635   0.567   5.092 -0.5969  0.1047  0.7015
  885MOL0     C16715  -0.751   0.653   5.093  1.1211 -0.0261 -0.1148
  885MOL0     C16716  -0.877   0.590   5.097  0.3344  0.1826 -0.4258
  885MOL0     C16717  -1.000   0.674   5.100  0.6043 -0.5135 -0.3066
  885MOL0     O16718  -0.995   0.816   5.079 -0.0424 -0.9075 -0.2168
  885MOL0     C16719  -1.117   0.883   5.078 -0.3452  0.2136  0.4198
  885MOL0     C16720  -1.197   0.880   4.961 -0.1186 -0.1170  0.7891
  885MOL0     C16721  -1.314   0.965   4.952  0.1596  1.1570  0.0921
  885MOL0     C16722  -1.358   1.039   5.064  0.1729  0.8346 -0.2953
  885MOL0     O16723  -1.489   1.092   5.051 -0.7896 -0.0516  1.0086
  885MOL0     C16724  -1.519   1.201   5.141  0.9489 -0.2082  0.4039
  885MOL0     C16725  -1.666   1.241   5.134 -0.0336 -0.6016  0.2332
  885MOL0     C16726  -1.683   1.359   5.046 -0.0339  0.0941 -0.3063
  885MOL0     C16727  -1.646   1.360   4.900 -0.0395  0.1869  0.8105
  885MOL0     C16728  -1.700   1.475   4.813 -0.5442 -0.4414 -0.1191
  885MOL0     C16729  -1.649   1.614   4.854  0.5466  0.8771  0.6681
  885MOL0     C16730  -1.710   1.734   4.779 -0.2849 -0.1367  0.8699
  885MOL0     C16731  -1.740   1.729   4.628 -0.0790 -0.4936 -0.1034
  885MOL0    Cl16732  -1.589   1.688   4.527  0.4449 -0.0670  0.2024
  885MOL0     C16733  -1.280   1.036   5.180  0.2078 -0.6228  0.0643
  885MOL0     C16734  -1.162   0.959   5.186  0.2930 -0.0155  0.6091
  885MOL0     O16735  -1.099   0.615   5.137  0.4478  0.5458 -1.8725
  885MOL0     C16736  -0.879   0.452   5.086  0.3239 -0.3441  0.4471
  885MOL0     C16737  -0.764   0.371   5.073  0.3677 -0.2071 -0.6793
  885MOL0     N16738  -0.142   0.204   5.404  0.3452  0.3430 -0.2117
  885MOL0     N16739  -0.055   0.192   5.502 -0.2906 -0.5119 -0.3948
  885MOL0     C16740   1.136  -0.009   5.669 -0.1077  0.7291  0.4307
  885MOL0     C16741   1.263   0.018   5.616  0.2777  0.5953 -0.6859
  885MOL0     C16742   1.716   0.094   5.649 -0.4358  0.0214 -0.3231
  885MOL0     C16743   1.794   0.196   5.697  0.1541  0.1474 -0.3971
  885MOL0     C16744   1.936   0.195   5.675  0.7081  0.0404 -0.5575
  885MOL0     C16745   1.996   0.103   5.593  1.6324  0.0394  0.1088
  885MOL0     O16746   2.128   0.095   5.559  0.1395  0.0972 -0.7694
  885MOL0     C16747   2.203   0.215   5.565 -1.0176  0.1119  0.7069
  885MOL0     C16748   2.360   0.186   5.529  0.0749 -0.4298  0.0153
  885MOL0     C16749   2.440   0.310   5.553 -0.0277  0.2123 -0.3800
  885MOL0     C16750   2.594   0.278   5.554 -0.3018 -0.6609  0.0341
  885MOL0     C16751   2.673   0.404   5.514  1.1681 -0.1403  0.8444
  885MOL0     C16752   2.727   0.503   5.467 -0.2539 -0.5763 -0.0306
  885MOL0     C16753   1.915   0.006   5.531 -0.1485  0.2817  0.3725
  885MOL0     C16754   1.781  -0.007   5.568 -0.3750 -0.3810  0.8007
  885MOL0     H16755   1.445  -0.211   5.789  0.3637  1.1002 -0.7662
  885MOL0     H16756   1.210  -0.256   5.876 -3.1851 -0.0892 -1.5620
  885MOL0     H16757   0.916  -0.138   5.619 -1.3361  3.0598 -0.5029
  885MOL0     H16758   0.863  -0.009   5.718  0.4075  0.2382 -2.0323
  885MOL0     H16759   0.727  -0.129   5.866 -1.4398 -0.6108  1.0297
  885MOL0     H16760   0.761  -0.283   5.802 -2.1455  0.5266  2.2038
  885MOL0     H16761   0.657  -0.198   5.565 -5.6967 -0.7303 -1.6594
  885MOL0     H16762   0.616  -0.060   5.663 -0.5375  0.0171 -1.5250
  885MOL0     H16763   0.533  -0.348   5.734 -0.6858 -0.6950  0.2386
  885MOL0     H16764   0.490  -0.207   5.828  0.6012  0.7686  0.4825
  885MOL0     H16765   0.323  -0.279   5.642 -1.8039  1.9462  0.9696
  885MOL0     H16766   0.440  -0.226   5.515 -1.2244 -0.0675 -0.5890
  885MOL0     H16767   0.413  -0.007   5.575 -0.4864  1.7451  0.2595
  885MOL0     H16768   0.314  -0.046   5.721  0.5865  0.3776 -1.0600
  885MOL0     H16769   0.247  -0.061   5.424 -0.9723  0.9351 -0.2254
  885MOL0     H16770   0.158  -0.158   5.538 -0.9001 -0.3766 -3.2501
  885MOL0     H16771   0.216   0.147   5.584  0.5706 -0.3027 -1.8864
  885MOL0     H16772   0.097   0.053   5.663  2.2996  0.2056  0.6164
  885MOL0     H16773   0.036  -0.059   5.309  1.7075 -1.9932  3.5301
  885MOL0     H16774  -0.263  -0.044   5.250  2.5437 -1.9554  0.0708
  885MOL0     H16775  -0.173   0.036   5.121 -0.6239 -1.8623  0.7756
  885MOL0     H16776  -0.382   0.161   5.307  0.3230 -1.5538 -0.4290
  885MOL0     H16777  -0.426   0.115   5.159 -1.5401 -1.0232  1.9735
  885MOL0     H16778  -0.199   0.332   5.164 -0.8759  2.9995  3.4089
  885MOL0     H16779  -0.277   0.270   5.026  0.5865 -3.1295  0.1790
  885MOL0     H16780  -0.366   0.486   5.089 -0.4370 -0.7315 -1.6797
  885MOL0     H16781  -0.421   0.426   5.247 -3.8876  2.1618 -0.9769
  885MOL0     H16782  -0.542   0.625   5.090  1.4681 -2.9549 -1.3221
  885MOL0     H16783  -0.734   0.760   5.099 -1.1909  0.3739  0.2987
  885MOL0     H16784  -1.159   0.838   4.869 -2.0228  1.3190 -0.7209
  885MOL0     H16785  -1.365   0.975   4.856  0.9260 -1.5160 -0.6578
  885MOL0     H16786  -1.453   1.285   5.118  0.3494  0.2579  0.3472
  885MOL0     H16787  -1.507   1.177   5.247  1.8134 -3.3637 -0.3013
  885MOL0     H16788  -1.695   1.268   5.236  1.0122 -1.2509  0.7173
  885MOL0     H16789  -1.730   1.155   5.110  0.2832 -1.4723  2.2347
  885MOL0     H16790  -1.638   1.446   5.093 -2.1237 -0.9187  4.1741
  885MOL0     H16791  -1.789   1.386   5.058 -0.0921 -0.6024  0.9332
  885MOL0     H16792  -1.538   1.354   4.887  0.1948  1.6076  1.7954
  885MOL0     H16793  -1.690   1.277   4.844  2.0330 -0.5798  0.2421
  885MOL0     H16794  -1.810   1.470   4.818 -0.7325  0.1960 -2.3789
  885MOL0     H16795  -1.664   1.468   4.710  2.4661 -2.2366  0.9457
  885MOL0     H16796  -1.544   1.590   4.834 -0.6798 -3.2910 -1.9715
  885MOL0     H16797  -1.656   1.632   4.962 -1.6468 -2.0004  1.1011
  885MOL0     H16798  -1.803   1.753   4.834  0.0062 -0.0059  1.3245
  885MOL0     H16799  -1.638   1.811   4.809 -0.7209  0.0894  1.3517
  885MOL0     H16800  -1.780   1.827   4.599 -1.1553 -0.3406  1.7862
  885MOL0     H16801  -1.824   1.660   4.616 -0.7932  0.4151 -0.4727
  885MOL0     H16802  -1.300   1.087   5.274  2.1819 -0.5589  0.4971
  885MOL0     H16803  -1.099   0.961   5.274 -1.5302  3.9218  2.0433
  885MOL0     H16804  -0.979   0.409   5.088 -0.5854  1.3834 -2.1806
  885MOL0     H16805  -0.777   0.264   5.067 -0.8903 -0.0604 -0.8249
  885MOL0     H16806   1.071   0.066   5.627  0.2613  1.4222  1.0806
  885MOL0     H16807   1.278   0.095   5.541  3.9618 -1.8289 -2.7285
  885MOL0     H16808   1.758   0.265   5.773  3.2222 -0.9933  2.3021
  885MOL0     H16809   1.996   0.273   5.719 -0.1167 -0.2537  1.1718
  885MOL0     H16810   2.204   0.264   5.663  0.7015  0.0635  0.7319
  885MOL0     H16811   2.164   0.284   5.490 -1.8889 -0.2363  0.8267
  885MOL0     H16812   2.384   0.115   5.608  0.4474 -0.9169 -0.5294
  885MOL0     H16813   2.367   0.134   5.433  1.3380 -0.3083  0.0321
  885MOL0     H16814   2.414   0.352   5.650  0.1678  1.2093 -0.7416
  885MOL0     H16815   2.424   0.379   5.469  1.3047 -1.2332 -1.9101
  885MOL0     H16816   2.620   0.243   5.654  0.2713  0.7868  0.4223
  885MOL0     H16817   2.612   0.196   5.484 -0.9046 -2.0287  1.4347
  885MOL0     H16818   2.767   0.600   5.441  2.2191 -0.5108  3.2996
  885MOL0     H16819   1.958  -0.066   5.463  0.9504  1.1142  0.1619
  885MOL0     H16820   1.714  -0.083   5.528  0.4902 -1.1106  0.6948
  886MOL0     O16821   8.886  10.040   0.765 -0.0642  0.1730 -1.6361
  886MOL0     C16822   8.939   9.969   0.849 -0.5414  1.0335 -0.5978
  886MOL0     O16823   8.878   9.885   0.941 -0.2801  0.2539  0.2618
  886MOL0     C16824   8.746   9.862   0.947  0.5317 -0.9315  0.1604
  886MOL0     C16825   8.646   9.890   0.846  0.3272  0.6438  0.2914
  886MOL0     C16826   8.510   9.866   0.884 -0.8927  0.2889 -0.4936
  886MOL0     C16827   8.474   9.821   1.007  0.4392 -0.1491  0.2262
  886MOL0     O16828   8.343   9.805   1.052 -0.7222  0.4331  0.5817
  886MOL0     C16829   8.280   9.705   0.971  0.3798  0.0055 -0.6890
  886MOL0     C16830   8.135   9.698   1.002  0.3180 -0.3245 -0.2636
  886MOL0     C16831   8.051   9.800   0.928  0.1021 -0.5731 -0.0456
  886MOL0     C16832   7.910   9.774   0.968  0.9909 -0.6330  0.3650
  886MOL0     C16833   7.835   9.901   0.946 -0.4887 -0.0768 -0.5797
  886MOL0     C16834   7.682   9.865   0.974 -0.8255  0.1952  0.1546
  886MOL0     C16835   7.608   9.989   0.919 -0.8963  0.2666 -0.3933
  886MOL0     C16836   7.469   9.944   0.865  0.1052  0.1053  0.8144
  886MOL0     N16837   7.398  10.027   0.765  1.1698  0.0305  0.6079
  886MOL0     C16838   7.260  10.017   0.743  0.4802  0.0120 -0.1114
  886MOL0     C16839   7.224  10.131   0.685 -0.7556  0.0838 -0.5451
  886MOL0     C16840   7.090  10.165   0.624 -0.1378 -0.0244  0.1132
  886MOL0     C16841   7.017  10.269   0.693  1.4394 -0.1601  0.0645
  886MOL0     C16842   6.878  10.284   0.630  0.2159  0.0871 -0.2210
  886MOL0     C16843   6.785  10.166   0.660 -0.3200  0.2146  0.6458
  886MOL0     O16844   6.666  10.205   0.590 -0.8278  0.2237 -0.1226
  886MOL0     C16845   6.549  10.155   0.626  0.1883 -0.2482  0.7401
  886MOL0     C16846   6.529  10.023   0.662  0.4399  0.1090 -0.1324
  886MOL0     C16847   6.402   9.982   0.690  0.3316 -0.0329 -0.7834
  886MOL0     C16848   6.293  10.068   0.672 -0.4632  0.1006 -0.0370
  886MOL0     C16849   6.157  10.014   0.686  0.6534 -0.0132 -0.3000
  886MOL0     O16850   6.147   9.880   0.732  0.3578  0.1307  1.2874
  886MOL0     C16851   6.033   9.806   0.730  1.1097  0.0791 -0.9997
  886MOL0     C16852   5.922   9.827   0.808  0.1272  0.6583 -0.3446
  886MOL0     C16853   5.813   9.736   0.789  0.3664 -0.9186 -0.3949
  886MOL0     C16854   5.812   9.630   0.700 -0.1400 -1.3002 -0.3518
  886MOL0     O16855   5.686   9.574   0.685 -0.3609  0.3857 -0.2620
  886MOL0     C16856   5.677   9.477   0.583 -0.0390  0.4049 -0.8472
  886MOL0     C16857   5.525   9.443   0.560  0.2490  0.4543 -1.2828
  886MOL0     C16858   5.443   9.434   0.692  0.1630 -0.0990 -1.4297
  886MOL0     C16859   5.301   9.399   0.675  0.1500 -0.6135  0.1612
  886MOL0     C16860   5.240   9.394   0.808 -0.0465 -0.1460 -0.8912
  886MOL0     C16861   5.089   9.358   0.796 -0.3731  0.2662 -1.0132
  886MOL0     C16862   5.015   9.335   0.928 -0.2253 -0.4647  0.1342
  886MOL0     C16863   4.864   9.359   0.902 -0.4828 -0.1244  0.1452
  886MOL0    Cl16864   4.782   9.216   0.823  0.2402 -0.1265 -0.1222
  886MOL0     C16865   5.927   9.612   0.618  0.1003 -0.2426  0.0878
  886MOL0     C16866   6.036   9.708   0.631 -0.3138  1.2080 -0.2586
  886MOL0     O16867   6.059  10.091   0.672 -0.3396  0.1615  0.1923
  886MOL0     C16868   6.322  10.200   0.638  0.8092  0.5044 -0.7174
  886MOL0     C16869   6.449  10.250   0.619  0.0464 -0.2048 -0.0229
  886MOL0     N16870   7.342  10.209   0.669  0.0977  0.0372  0.4214
  886MOL0     N16871   7.443  10.149   0.718 -0.5011  0.5052  0.1304
  886MOL0     C16872   8.574   9.791   1.098 -0.5375 -0.0093  0.2896
  886MOL0     C16873   8.704   9.807   1.074 -0.9986 -0.1335  0.6640
  886MOL0     C16874   9.089   9.978   0.856 -0.4831  0.6279 -0.2886
  886MOL0     C16875   9.173  10.055   0.770 -0.8746  0.6582  0.3019
  886MOL0     C16876   9.314  10.044   0.791  0.6589 -0.3874 -0.2896
  886MOL0     C16877   9.377   9.963   0.888  0.4116  1.1117 -0.8732
  886MOL0     O16878   9.510   9.960   0.892  0.0695  0.5446  0.0153
  886MOL0     C16879   9.585   9.843   0.945  1.1099 -0.9589  0.5277
  886MOL0     C16880   9.716   9.840   0.866  0.8572  0.3463  0.6214
  886MOL0     C16881   9.700   9.799   0.720 -0.5385 -0.1683 -0.3363
  886MOL0     C16882   9.843   9.737   0.675 -0.4393  0.6964  0.8809
  886MOL0     C16883   9.961   9.813   0.693  1.6009  0.4659 -0.3988
  886MOL0     C16884  10.060   9.867   0.706 -1.1907  0.4249  0.8204
  886MOL0     C16885   9.297   9.889   0.961  1.2397  0.4635 -0.4566
  886MOL0     C16886   9.157   9.885   0.944 -0.5150  0.2191 -0.0070
  886MOL0     H16887   8.673   9.943   0.755 -0.1036  0.9597  0.3435
  886MOL0     H16888   8.430   9.896   0.818 -1.8059  1.7537  1.1729
  886MOL0     H16889   8.331   9.609   0.983 -0.6816 -0.4080  0.8190
  886MOL0     H16890   8.295   9.722   0.864  0.7735  2.7517 -0.2921
  886MOL0     H16891   8.114   9.686   1.109  0.3488 -1.5883 -0.3840
  886MOL0     H16892   8.104   9.606   0.952  2.0909 -0.4967 -1.1437
  886MOL0     H16893   8.057   9.782   0.820  0.3562 -2.9540  0.3038
  886MOL0     H16894   8.091   9.901   0.944 -0.7819 -0.1896 -0.2205
  886MOL0     H16895   7.874   9.692   0.905  2.2091 -0.9106  0.0050
  886MOL0     H16896   7.889   9.736   1.069 -1.0083  1.8352  0.9543
  886MOL0     H16897   7.851   9.931   0.842  0.7796  1.7454  0.1050
  886MOL0     H16898   7.856   9.988   1.009 -2.8170  2.0279 -2.5056
  886MOL0     H16899   7.652   9.843   1.076 -2.4233 -2.0190 -0.7259
  886MOL0     H16900   7.658   9.783   0.906 -3.5519  2.7011 -2.2173
  886MOL0     H16901   7.594  10.071   0.990 -1.5436  1.5346 -1.9111
  886MOL0     H16902   7.662  10.029   0.832  1.3432 -0.0729  0.7806
  886MOL0     H16903   7.405   9.927   0.952  1.3577 -2.7917  1.2658
  886MOL0     H16904   7.470   9.849   0.811 -0.4565 -1.4303  3.3468
  886MOL0     H16905   7.192   9.933   0.754  1.9966 -1.4662 -1.3892
  886MOL0     H16906   7.034  10.071   0.622 -0.9482  0.4221  1.0147
  886MOL0     H16907   7.106  10.196   0.520  1.1669  1.5421  0.7432
  886MOL0     H16908   7.074  10.361   0.676 -1.5077  1.5314 -1.4738
  886MOL0     H16909   6.990  10.241   0.796 -1.8027  0.9040 -0.4008
  886MOL0     H16910   6.836  10.375   0.674 -1.3707  0.8686 -3.1176
  886MOL0     H16911   6.883  10.294   0.522  1.4419 -2.9717 -0.5585
  886MOL0     H16912   6.773  10.174   0.769  3.6494  2.4615  1.1191
  886MOL0     H16913   6.835  10.071   0.638  2.7441  0.8982  3.6664
  886MOL0     H16914   6.601   9.943   0.673 -0.7193 -0.9372 -0.0166
  886MOL0     H16915   6.387   9.879   0.723  0.8380  0.6628  1.8821
  886MOL0     H16916   5.913   9.908   0.880 -0.2669  0.0204  0.3329
  886MOL0     H16917   5.724   9.742   0.851  2.0590  0.2234  2.0998
  886MOL0     H16918   5.733   9.390   0.618 -1.1250 -0.7298 -1.8487
  886MOL0     H16919   5.711   9.513   0.486  3.7981 -2.6836 -0.8780
  886MOL0     H16920   5.511   9.352   0.500 -1.2078 -0.2019 -0.0344
  886MOL0     H16921   5.487   9.520   0.493  2.0079  1.7277 -0.8767
  886MOL0     H16922   5.452   9.535   0.735 -0.6700 -0.2623 -0.8400
  886MOL0     H16923   5.485   9.364   0.765  0.4223  0.4639 -1.0298
  886MOL0     H16924   5.258   9.475   0.609 -1.6035 -1.0481  0.7468
  886MOL0     H16925   5.289   9.301   0.628  1.1097 -0.5973 -0.1330
  886MOL0     H16926   5.258   9.490   0.857  4.1723 -1.3235  0.3119
  886MOL0     H16927   5.290   9.318   0.868 -1.1435 -2.0181 -2.2386
  886MOL0     H16928   5.076   9.263   0.743  0.5285 -0.6390  0.3094
  886MOL0     H16929   5.035   9.441   0.750  0.4514  2.7338  2.0739
  886MOL0     H16930   5.023   9.236   0.973 -3.7104  0.4478  3.2779
  886MOL0     H16931   5.053   9.411   0.997 -4.0142  2.4100 -0.5637
  886MOL0     H16932   4.851   9.454   0.849 -0.8920 -1.0182 -1.4372
  886MOL0     H16933   4.823   9.371   1.002  1.0322 -2.2762  1.1078
  886MOL0     H16934   5.936   9.539   0.538 -0.8185 -0.1005 -0.1631
  886MOL0     H16935   6.129   9.695   0.576  0.2462 -0.5012  0.9911
  886MOL0     H16936   6.244  10.275   0.626  0.7035  0.4888 -0.1445
  886MOL0     H16937   6.475  10.351   0.588  3.3473 -0.4575  1.4620
  886MOL0     H16938   8.538   9.778   1.200 -0.0098  2.7886  0.9291
  886MOL0     H16939   8.778   9.792   1.152 -0.5217  3.6287  1.1089
  886MOL0     H16940   9.136  10.126   0.697 -0.1954  1.7413  0.9763
  886MOL0     H16941   9.372  10.095   0.714 -0.8345 -1.0704 -1.9487
  886MOL0     H16942   9.527   9.751   0.932  0.5573 -0.6305  0.5853
  886MOL0     H16943   9.614   9.859   1.049 -1.2476 -0.1979  1.1392
  886MOL0     H16944   9.760   9.939   0.882  1.4864  0.3569 -1.0264
  886MOL0     H16945   9.781   9.763   0.910  1.7946 -0.1427 -1.4976
  886MOL0     H16946   9.680   9.886   0.657 -1.6357  0.8596  1.3756
  886MOL0     H16947   9.624   9.722   0.706 -1.8172  1.4336 -2.8859
  886MOL0     H16948   9.863   9.636   0.712  0.4188 -0.3650 -2.1725
  886MOL0     H16949   9.838   9.727   0.566 -3.5738  0.4090  0.9560
  886MOL0     H16950  10.149   9.928   0.710 -1.0248  0.1209  1.9603
  886MOL0     H16951   9.337   9.834   1.045  2.2303  2.3660  0.3871
  886MOL0     H16952   9.110   9.812   1.009  0.3966  0.0612  0.4919
  887MOL0     O16953   3.921   0.309  10.859 -0.2084 -0.1990 -0.0036
  887MOL0     C16954   3.999   0.385  10.921  1.3925  0.7490  0.5077
  887MOL0     O16955   3.965   0.471  11.024  0.3372  0.2243  0.1197
  887MOL0     C16956   3.834   0.491  11.068 -0.1799 -0.5297  0.8124
  887MOL0     C16957   3.758   0.386  11.121  0.2582  1.0491  0.5217
  887MOL0     C16958   3.621   0.397  11.155  0.1097 -0.0449 -0.4372
  887MOL0     C16959   3.563   0.522  11.150 -0.2758  0.4066  0.7259
  887MOL0     O16960   3.427   0.529  11.159  0.4720 -0.0129  0.4766
  887MOL0     C16961   3.354   0.646  11.152 -0.5066  0.3953  0.2833
  887MOL0     C16962   3.210   0.633  11.179 -0.4228 -1.0283 -0.5242
  887MOL0     C16963   3.189   0.670  11.328  0.5897  0.7987 -0.3102
  887MOL0     C16964   3.038   0.647  11.363 -0.2655 -0.4171 -0.4281
  887MOL0     C16965   3.008   0.653  11.518 -0.3204  0.0068 -0.2116
  887MOL0     C16966   2.993   0.800  11.572  0.1110 -0.6162  0.4576
  887MOL0     C16967   2.937   0.805  11.714  0.4918  0.5725 -0.7171
  887MOL0     C16968   3.036   0.747  11.817  0.4068  0.4644  0.7016
  887MOL0     N16969   2.999   0.783  11.957  0.1017  0.3832 -0.4306
  887MOL0     C16970   2.954   0.899  12.013 -0.2572 -0.3228  0.0771
  887MOL0     C16971   2.948   0.887  12.148  0.5215 -0.1765  0.1987
  887MOL0     C16972   2.897   0.981  12.244  0.5038  0.5141 -0.0790
  887MOL0     C16973   2.740   0.965  12.280 -0.3622 -0.3525 -0.7824
  887MOL0     C16974   2.733   0.890  12.411  0.0350  0.4181 -0.6360
  887MOL0     C16975   2.586   0.891  12.443  0.0917 -0.5550  0.4450
  887MOL0     O16976   2.558   1.006  12.523 -0.1666  0.0011 -0.8097
  887MOL0     C16977   2.438   1.015  12.584 -0.2420 -0.1426 -0.0281
  887MOL0     C16978   2.429   1.126  12.666  0.4949  0.2829 -0.5626
  887MOL0     C16979   2.312   1.150  12.744  0.4995 -0.1310 -0.4027
  887MOL0     C16980   2.201   1.064  12.722 -0.3895  0.0431 -0.0023
  887MOL0     C16981   2.082   1.091  12.813 -0.0700 -0.5102  0.0300
  887MOL0     O16982   2.080   1.208  12.890 -0.2555  0.7684 -0.3813
  887MOL0     C16983   1.981   1.253  12.972  0.2487 -1.0654  0.2045
  887MOL0     C16984   1.845   1.204  12.998 -0.0405  0.3667  0.0927
  887MOL0     C16985   1.759   1.276  13.079  0.1446  0.9956  0.4634
  887MOL0     C16986   1.798   1.400  13.134  0.4293 -0.3768 -0.0905
  887MOL0     O16987   1.702   1.475  13.190  0.1575 -1.2950 -0.1321
  887MOL0     C16988   1.568   1.489  13.141  0.2092  0.4911  0.2180
  887MOL0     C16989   1.491   1.608  13.204  0.1567  0.3325 -0.5814
  887MOL0     C16990   1.378   1.670  13.114  0.3776  0.1521 -0.0923
  887MOL0     C16991   1.282   1.770  13.186  0.9768  0.2181 -0.7629
  887MOL0     C16992   1.172   1.823  13.093 -0.3569 -0.2507  0.3655
  887MOL0     C16993   1.107   1.950  13.138  0.1774 -0.0283 -0.8009
  887MOL0     C16994   0.981   1.992  13.061 -0.7474 -0.5494 -0.1793
  887MOL0     C16995   0.932   2.130  13.111  0.3954 -0.2927 -0.1718
  887MOL0    Cl16996   1.070   2.248  13.105  0.2314  0.1856 -0.5095
  887MOL0     C16997   1.929   1.447  13.119 -0.9269 -0.3569  0.1622
  887MOL0     C16998   2.012   1.377  13.043 -0.6977 -0.1928  0.5873
  887MOL0     O16999   1.992   1.018  12.806 -0.2394 -0.3812  0.1422
  887MOL0     C17000   2.213   0.959  12.635 -0.1769  0.3608  0.5249
  887MOL0     C17001   2.334   0.929  12.566  0.5273  0.4133  0.8352
  887MOL0     N17002   2.996   0.767  12.175 -0.1149  0.8303  0.2328
  887MOL0     N17003   3.017   0.698  12.065 -0.4850 -0.2676 -0.7462
  887MOL0     C17004   3.638   0.633  11.113 -0.8399 -0.4112 -0.2264
  887MOL0     C17005   3.772   0.618  11.064  0.8886 -0.0389 -0.3056
  887MOL0     C17006   4.143   0.386  10.881  0.6610  0.6626  0.3908
  887MOL0     C17007   4.223   0.495  10.911 -0.6254 -0.1038  0.4282
  887MOL0     C17008   4.357   0.485  10.892 -0.1050 -1.0391  0.6334
  887MOL0     C17009   4.413   0.383  10.817  0.1414 -0.1585  0.3218
  887MOL0     O17010   4.548   0.382  10.799 -0.0118 -0.0166 -0.1238
  887MOL0     C17011   4.582   0.336  10.665 -0.0210  1.0607  0.1786
  887MOL0     C17012   4.733   0.376  10.626 -1.3156 -1.0956 -0.5061
  887MOL0     C17013   4.763   0.529  10.603  0.3005 -0.0313 -0.2898
  887MOL0     C17014   4.893   0.559  10.513  0.1713 -0.6411 -0.7894
  887MOL0     C17015   5.002   0.525  10.610  0.3887  0.0008  0.4465
  887MOL0     C17016   5.101   0.502  10.677  0.2549  0.4290 -0.0172
  887MOL0     C17017   4.330   0.278  10.779  0.4598 -0.4248 -0.1965
  887MOL0     C17018   4.195   0.278  10.811 -0.7029  0.2209 -0.0021
  887MOL0     H17019   3.802   0.287  11.111  2.8643  2.2988 -1.8002
  887MOL0     H17020   3.570   0.312  11.199  2.0225 -0.3508  1.3355
  887MOL0     H17021   3.366   0.674  11.047  1.4907 -2.2376 -0.2871
  887MOL0     H17022   3.399   0.724  11.215 -0.7176  2.2302 -1.7387
  887MOL0     H17023   3.183   0.528  11.165 -1.6493 -0.8135  0.0447
  887MOL0     H17024   3.155   0.696  11.108 -1.1530  2.2771  2.6581
  887MOL0     H17025   3.226   0.768  11.358  0.1349  1.4028 -1.6481
  887MOL0     H17026   3.247   0.593  11.379 -0.8593  0.1953  0.4987
  887MOL0     H17027   2.986   0.728  11.310 -3.7968 -2.4804 -0.4554
  887MOL0     H17028   2.999   0.552  11.325 -0.7704 -0.4984  0.2821
  887MOL0     H17029   3.091   0.609  11.573 -2.0469  1.3447  3.8546
  887MOL0     H17030   2.918   0.600  11.550 -0.6794  2.2401  2.9145
  887MOL0     H17031   2.932   0.858  11.503  0.9997 -1.9051 -1.4858
  887MOL0     H17032   3.083   0.862  11.568 -0.9592  0.9438 -3.5359
  887MOL0     H17033   2.911   0.909  11.738 -0.0528  0.2812 -0.0038
  887MOL0     H17034   2.847   0.743  11.721  0.4598  0.8133  1.9733
  887MOL0     H17035   3.135   0.783  11.789  0.9161 -0.6455  1.0174
  887MOL0     H17036   3.049   0.639  11.816  3.9058  0.7184  2.3874
  887MOL0     H17037   2.915   0.983  11.956  3.1914  2.1603  1.0864
  887MOL0     H17038   2.911   1.084  12.209  0.1624  0.0169 -1.7355
  887MOL0     H17039   2.951   0.971  12.339  1.0088 -3.4025 -0.6258
  887MOL0     H17040   2.692   0.908  12.201  1.9958 -0.3863 -2.2940
  887MOL0     H17041   2.681   1.057  12.279 -0.8893 -0.6647 -2.6870
  887MOL0     H17042   2.759   0.784  12.402 -1.4674  0.0833 -1.4199
  887MOL0     H17043   2.790   0.946  12.486 -1.3555  0.4628  0.4390
  887MOL0     H17044   2.558   0.804  12.503 -1.6656 -0.7928 -0.6429
  887MOL0     H17045   2.530   0.882  12.349 -0.4089 -0.0604  0.6900
  887MOL0     H17046   2.516   1.191  12.673  0.2414  0.7671 -1.6500
  887MOL0     H17047   2.304   1.229  12.818  1.7263 -0.6959  0.3721
  887MOL0     H17048   1.814   1.114  12.945  3.3490 -1.6520  1.1974
  887MOL0     H17049   1.664   1.228  13.102  0.1795  0.2044 -0.9682
  887MOL0     H17050   1.510   1.397  13.151 -1.6093  1.1787 -2.6114
  887MOL0     H17051   1.571   1.509  13.033  0.9250  2.2340  0.5307
  887MOL0     H17052   1.566   1.685  13.224 -1.5126  1.9648 -0.3092
  887MOL0     H17053   1.443   1.589  13.301 -0.9855  0.7734 -1.0540
  887MOL0     H17054   1.311   1.588  13.086 -2.2120  0.8692  3.3422
  887MOL0     H17055   1.424   1.716  13.026  0.4246 -0.4127 -0.3624
  887MOL0     H17056   1.241   1.714  13.271 -0.6806  0.9077 -1.0692
  887MOL0     H17057   1.342   1.855  13.219  1.4285 -0.1548 -0.6206
  887MOL0     H17058   1.095   1.747  13.079  0.3175 -1.0893  1.1044
  887MOL0     H17059   1.215   1.838  12.994 -4.0833 -1.1070 -1.5596
  887MOL0     H17060   1.189   2.021  13.120  0.9609 -0.2985  1.3633
  887MOL0     H17061   1.080   1.932  13.243  0.3309 -1.6691 -1.0173
  887MOL0     H17062   1.022   2.022  12.964 -1.4323  0.7186 -0.1039
  887MOL0     H17063   0.908   1.911  13.051 -2.6805  0.8613  1.6274
  887MOL0     H17064   0.892   2.108  13.210 -1.5123  4.0087  0.2220
  887MOL0     H17065   0.853   2.173  13.049 -0.5209 -1.9521 -0.2018
  887MOL0     H17066   1.956   1.533  13.180 -0.6064 -0.6631  0.4544
  887MOL0     H17067   2.115   1.413  13.039 -0.4024 -0.9168  1.3329
  887MOL0     H17068   2.133   0.886  12.629 -0.4900  0.8152 -1.3670
  887MOL0     H17069   2.321   0.846  12.496 -0.4983 -0.2769  1.8014
  887MOL0     H17070   3.599   0.734  11.101  0.2129 -0.2571 -3.1215
  887MOL0     H17071   3.821   0.707  11.026  0.6317  1.0687  1.7982
  887MOL0     H17072   4.192   0.581  10.970  0.1712 -1.2805  2.6763
  887MOL0     H17073   4.431   0.556  10.927 -1.6404  1.2308 -0.4831
  887MOL0     H17074   4.517   0.383  10.591  0.1358  1.0729  0.0472
  887MOL0     H17075   4.564   0.228  10.655  1.1502  0.7492  1.2770
  887MOL0     H17076   4.794   0.329  10.703 -0.9310  1.4318  0.8365
  887MOL0     H17077   4.757   0.317  10.536  0.5553 -1.1807  0.0081
  887MOL0     H17078   4.774   0.571  10.704  1.0158 -1.5737  0.2934
  887MOL0     H17079   4.675   0.568  10.551  0.2824  2.6608  1.5181
  887MOL0     H17080   4.891   0.516  10.413 -0.5865 -2.8323  0.0957
  887MOL0     H17081   4.903   0.665  10.487 -3.9226 -0.7407 -3.5790
  887MOL0     H17082   5.189   0.495  10.738 -0.5081  1.2361  1.2218
  887MOL0     H17083   4.373   0.199  10.719 -2.0558 -1.4458 -0.7660
  887MOL0     H17084   4.139   0.188  10.785 -3.6350  1.6010  1.1812
  888MOL0     O17085   1.381   5.752   6.123 -0.6356 -0.2196 -0.2524
  888MOL0     C17086   1.385   5.768   6.003  0.3308 -0.2099 -0.4951
  888MOL0     O17087   1.291   5.721   5.921 -0.0888  0.9776  0.0837
  888MOL0     C17088   1.166   5.683   5.973  0.0981 -0.3922  0.6818
  888MOL0     C17089   1.152   5.557   6.034 -0.3066  0.9970 -0.6371
  888MOL0     C17090   1.038   5.519   6.106 -0.1644  0.1802 -0.3005
  888MOL0     C17091   0.930   5.604   6.093  0.9255 -0.2100  0.0351
  888MOL0     O17092   0.817   5.577   6.163  0.3214  0.5294  0.3030
  888MOL0     C17093   0.750   5.448   6.134 -0.0246  0.0902  0.2116
  888MOL0     C17094   0.655   5.459   6.018  0.7500  0.0725 -0.1976
  888MOL0     C17095   0.530   5.539   6.043  0.8459  0.7924  0.3064
  888MOL0     C17096   0.453   5.567   5.916 -0.5657 -0.3704 -0.2169
  888MOL0     C17097   0.336   5.663   5.934 -0.0959  0.6020 -1.1907
  888MOL0     C17098   0.252   5.640   6.064  0.6424  0.1566  0.5219
  888MOL0     C17099   0.120   5.722   6.069  0.3029  0.2452  0.0923
  888MOL0     C17100   0.102   5.765   6.214  1.1121  0.5716 -0.4358
  888MOL0     N17101  -0.024   5.836   6.224 -0.4061  0.0796  0.0082
  888MOL0     C17102  -0.040   5.960   6.169  0.0675  0.5882 -0.2254
  888MOL0     C17103  -0.174   5.980   6.158 -0.2752  0.8686 -0.0567
  888MOL0     C17104  -0.234   6.113   6.124 -0.2219 -0.0984  0.1649
  888MOL0     C17105  -0.343   6.111   6.012 -0.1852 -0.8006  0.8661
  888MOL0     C17106  -0.286   6.074   5.881  0.3783 -0.0692  0.0453
  888MOL0     C17107  -0.370   6.115   5.767  0.4676 -0.0819  0.0378
  888MOL0     O17108  -0.385   6.258   5.763  0.7049  0.1186 -0.3814
  888MOL0     C17109  -0.489   6.319   5.703  0.1504  0.9038  0.8979
  888MOL0     C17110  -0.496   6.450   5.709  0.2721 -0.3618 -0.0587
  888MOL0     C17111  -0.616   6.523   5.682  0.3271  0.2070  0.5960
  888MOL0     C17112  -0.724   6.457   5.626 -0.4200 -0.1739  0.0464
  888MOL0     C17113  -0.849   6.536   5.586 -0.5860  0.3934  0.4789
  888MOL0     O17114  -0.839   6.673   5.605  0.5825  0.1909 -0.0166
  888MOL0     C17115  -0.948   6.757   5.589  0.8297 -0.2602 -0.1430
  888MOL0     C17116  -1.062   6.753   5.669 -0.4188  0.3124 -0.0148
  888MOL0     C17117  -1.169   6.828   5.633  0.2295  0.0147  0.1606
  888MOL0     C17118  -1.160   6.928   5.532  0.3074  0.0015 -0.6255
  888MOL0     O17119  -1.260   7.017   5.518 -0.1127 -0.7287  0.8237
  888MOL0     C17120  -1.301   7.077   5.644 -0.3133  0.7215 -0.0262
  888MOL0     C17121  -1.346   7.212   5.607 -0.2672 -0.0555 -0.6723
  888MOL0     C17122  -1.464   7.261   5.680 -0.1898 -0.1455  0.2625
  888MOL0     C17123  -1.445   7.335   5.815 -0.3780 -0.5384 -0.2284
  888MOL0     C17124  -1.570   7.415   5.860 -0.3979 -0.0930  0.0998
  888MOL0     C17125  -1.597   7.531   5.765  0.0141 -0.3295  0.3529
  888MOL0     C17126  -1.661   7.658   5.828  1.4054 -0.7481  0.3664
  888MOL0     C17127  -1.726   7.758   5.724  1.6909  0.3181  0.1430
  888MOL0    Cl17128  -1.609   7.777   5.587  0.0877  0.0954 -0.1687
  888MOL0     C17129  -1.048   6.941   5.454 -0.4282 -0.1118 -0.0120
  888MOL0     C17130  -0.946   6.848   5.483  0.4180 -0.0684 -1.6036
  888MOL0     O17131  -0.951   6.473   5.539  0.6178 -0.1505 -0.0358
  888MOL0     C17132  -0.715   6.320   5.604 -0.8587 -0.2878 -0.4272
  888MOL0     C17133  -0.596   6.255   5.645 -0.6548  0.3811 -0.3651
  888MOL0     N17134  -0.239   5.857   6.189 -0.9150  0.4480 -0.3157
  888MOL0     N17135  -0.146   5.773   6.237 -0.3969 -0.2842  0.0764
  888MOL0     C17136   0.936   5.726   6.025  0.5383  0.1709 -0.8050
  888MOL0     C17137   1.054   5.762   5.968  0.2085 -0.3102  0.3169
  888MOL0     C17138   1.495   5.848   5.943 -0.5583 -0.3452  0.0617
  888MOL0     C17139   1.469   5.915   5.823  1.0611  0.3329 -0.6611
  888MOL0     C17140   1.563   6.011   5.778  0.3015  0.7456 -0.5122
  888MOL0     C17141   1.689   6.022   5.838 -0.0918 -0.0220  0.1954
  888MOL0     O17142   1.783   6.105   5.789 -0.1924 -0.7113 -0.3813
  888MOL0     C17143   1.767   6.245   5.821  0.2180  0.5868  0.2910
  888MOL0     C17144   1.674   6.313   5.716  0.1555  0.4522  1.6428
  888MOL0     C17145   1.708   6.462   5.705 -0.1239 -0.1093  0.1354
  888MOL0     C17146   1.621   6.547   5.619 -0.0876  0.5064  0.3785
  888MOL0     C17147   1.623   6.511   5.475 -1.1770  0.4369 -0.0741
  888MOL0     C17148   1.655   6.480   5.356 -0.6387  0.5234  0.2247
  888MOL0     C17149   1.715   5.948   5.947 -0.1014 -0.1380  0.1666
  888MOL0     C17150   1.619   5.868   6.009  0.6170  0.1101 -0.5914
  888MOL0     H17151   1.246   5.502   6.034 -0.0264  1.4371  0.8614
  888MOL0     H17152   1.031   5.432   6.169 -0.6456  1.3479  1.3287
  888MOL0     H17153   0.682   5.422   6.216 -2.2910  5.3215  0.3952
  888MOL0     H17154   0.827   5.371   6.127  0.6705  0.9218 -2.1115
  888MOL0     H17155   0.614   5.370   5.970  1.5257 -0.2640 -0.2493
  888MOL0     H17156   0.711   5.518   5.945 -1.4206  4.5330  1.3517
  888MOL0     H17157   0.552   5.644   6.065 -0.5373  1.7710 -2.5325
  888MOL0     H17158   0.466   5.498   6.122  0.0123  2.5128  0.5710
  888MOL0     H17159   0.518   5.606   5.838 -1.8372 -1.9151 -2.1420
  888MOL0     H17160   0.403   5.478   5.875 -2.6453  1.5704 -2.1328
  888MOL0     H17161   0.272   5.660   5.846 -1.1930 -2.7168 -0.3992
  888MOL0     H17162   0.381   5.761   5.952  3.0921 -0.5651 -2.2875
  888MOL0     H17163   0.307   5.652   6.158 -1.0389 -0.2928  1.6033
  888MOL0     H17164   0.227   5.533   6.068  1.5637 -0.0365  1.9512
  888MOL0     H17165   0.138   5.814   6.013  0.8676 -0.0597 -0.2339
  888MOL0     H17166   0.035   5.661   6.036 -0.2397  1.3653 -0.6436
  888MOL0     H17167   0.187   5.825   6.247 -0.3809  2.4877  0.0933
  888MOL0     H17168   0.095   5.678   6.280 -2.9517 -0.4807 -1.9389
  888MOL0     H17169   0.027   6.042   6.147 -0.6990  2.5974  3.8966
  888MOL0     H17170  -0.153   6.176   6.085  2.2014 -2.7896  0.4633
  888MOL0     H17171  -0.279   6.158   6.212  0.4861  0.0671  0.4514
  888MOL0     H17172  -0.399   6.205   6.009 -1.8947 -1.7767 -1.5157
  888MOL0     H17173  -0.418   6.036   6.038 -1.0713 -0.3253 -0.2256
  888MOL0     H17174  -0.199   6.140   5.872 -0.1309  0.9855  2.1209
  888MOL0     H17175  -0.264   5.967   5.874  1.3770  0.0713  0.7360
  888MOL0     H17176  -0.473   6.077   5.773  0.9332 -1.6450 -1.0366
  888MOL0     H17177  -0.317   6.068   5.683  8.3312 -0.2257  4.1482
  888MOL0     H17178  -0.410   6.493   5.759 -0.9801  1.0741  0.9542
  888MOL0     H17179  -0.616   6.631   5.686  1.8453  0.4411 -2.6207
  888MOL0     H17180  -1.064   6.688   5.755  1.2380  1.3152  0.8232
  888MOL0     H17181  -1.261   6.833   5.691 -0.1875 -0.7592 -0.4214
  888MOL0     H17182  -1.229   7.077   5.726 -2.2901 -2.8281  1.9786
  888MOL0     H17183  -1.390   7.015   5.657 -0.4522 -0.3798 -4.6112
  888MOL0     H17184  -1.380   7.213   5.503  1.8152  0.4844 -1.3947
  888MOL0     H17185  -1.268   7.285   5.629 -0.6067 -0.1309  0.8843
  888MOL0     H17186  -1.535   7.178   5.682  1.4382 -1.6590 -1.4062
  888MOL0     H17187  -1.495   7.336   5.607 -0.7211 -2.6422 -2.2466
  888MOL0     H17188  -1.423   7.257   5.888  0.6974  0.4261  0.4913
  888MOL0     H17189  -1.356   7.398   5.822 -1.5427  1.1515  0.2073
  888MOL0     H17190  -1.541   7.461   5.955  2.4991  1.7552 -1.5152
  888MOL0     H17191  -1.655   7.346   5.863  0.6829 -1.5889 -1.6398
  888MOL0     H17192  -1.656   7.498   5.679  0.5226 -0.7520  0.1617
  888MOL0     H17193  -1.509   7.578   5.722 -0.4502  1.5601  1.3633
  888MOL0     H17194  -1.738   7.623   5.898 -0.0971 -0.7861 -1.2174
  888MOL0     H17195  -1.588   7.703   5.895  2.1006 -3.2670  1.4227
  888MOL0     H17196  -1.735   7.857   5.770 -1.8854  1.0496 -1.7641
  888MOL0     H17197  -1.826   7.735   5.686  0.8676  1.8220  1.2918
  888MOL0     H17198  -1.040   7.013   5.373  3.0779 -1.2947 -0.9144
  888MOL0     H17199  -0.860   6.860   5.418 -0.6430  0.7866 -2.9005
  888MOL0     H17200  -0.794   6.266   5.553  0.4372 -2.3116 -0.3633
  888MOL0     H17201  -0.600   6.149   5.624 -1.1468 -0.0924  1.8295
  888MOL0     H17202   0.841   5.777   6.012  2.0815  3.2829 -0.6066
  888MOL0     H17203   1.066   5.851   5.907  5.0539 -1.7410 -1.2606
  888MOL0     H17204   1.370   5.916   5.778  0.1886  0.8637  1.1633
  888MOL0     H17205   1.546   6.071   5.689  3.4926  1.7978 -0.5402
  888MOL0     H17206   1.865   6.292   5.814  0.8422 -0.7786 -0.4246
  888MOL0     H17207   1.731   6.278   5.920  1.7095  3.3814  0.0197
  888MOL0     H17208   1.693   6.269   5.617  0.1166  2.6097  0.6136
  888MOL0     H17209   1.571   6.289   5.741  0.0851  1.1380  2.0146
  888MOL0     H17210   1.814   6.478   5.681 -0.5445 -0.9925 -2.6792
  888MOL0     H17211   1.690   6.496   5.808  1.5634  0.7259  0.1901
  888MOL0     H17212   1.519   6.534   5.655  0.7550 -2.6664  2.0023
  888MOL0     H17213   1.636   6.654   5.632  0.9098  0.8500 -2.8053
  888MOL0     H17214   1.689   6.478   5.254  1.3413 -1.1714  0.8424
  888MOL0     H17215   1.816   5.942   5.988 -0.1467 -0.5025  0.2277
  888MOL0     H17216   1.639   5.817   6.103 -0.2020  2.4851  0.9737
  889MOL0     O17217   1.052   7.957   9.012 -0.7459 -0.3818 -0.0754
  889MOL0     C17218   1.080   7.936   9.130  0.0944 -0.9704 -0.0065
  889MOL0     O17219   0.996   7.940   9.241  1.3526 -0.0407  0.2654
  889MOL0     C17220   0.863   7.946   9.218 -0.4312 -0.2196 -0.4396
  889MOL0     C17221   0.788   7.834   9.191 -0.6690  0.3021  0.1507
  889MOL0     C17222   0.655   7.842   9.157  0.2476 -0.8390 -0.5805
  889MOL0     C17223   0.586   7.966   9.159  0.4393  1.1908 -0.1103
  889MOL0     O17224   0.450   7.958   9.150  0.1864  0.8320 -0.1003
  889MOL0     C17225   0.378   8.073   9.194  0.8426 -0.0005  0.2678
  889MOL0     C17226   0.234   8.029   9.222 -0.1230  0.6096 -0.0369
  889MOL0     C17227   0.214   7.940   9.348  0.3901 -0.3819 -0.2357
  889MOL0     C17228   0.063   7.902   9.362  0.6024  0.9849 -0.4693
  889MOL0     C17229  -0.008   8.007   9.447  0.0727  0.0044 -0.1022
  889MOL0     C17230  -0.162   8.002   9.455 -0.1084 -0.0684  0.5576
  889MOL0     C17231  -0.217   7.885   9.540  0.1323  0.7694 -0.2797
  889MOL0     C17232  -0.238   7.751   9.457  0.4519 -0.0628 -0.7219
  889MOL0     N17233  -0.320   7.651   9.522 -0.3122  0.0766  0.1576
  889MOL0     C17234  -0.378   7.663   9.652 -0.5773  0.2058  0.6390
  889MOL0     C17235  -0.425   7.543   9.677  0.1401  0.3716 -0.0556
  889MOL0     C17236  -0.510   7.507   9.803 -0.0263 -0.0057 -0.1175
  889MOL0     C17237  -0.507   7.358   9.833  0.3867 -0.5372 -0.6238
  889MOL0     C17238  -0.569   7.313   9.971  0.0848 -0.7735  0.1788
  889MOL0     C17239  -0.557   7.169  10.000  0.3804  0.6051  0.0901
  889MOL0     O17240  -0.632   7.091   9.902  0.6978 -0.1533  0.4859
  889MOL0     C17241  -0.761   7.059   9.939  0.6399 -0.4353  0.9292
  889MOL0     C17242  -0.835   7.124  10.039  1.1217  0.3252  0.0461
  889MOL0     C17243  -0.969   7.078  10.063 -0.5497  0.1929  0.0273
  889MOL0     C17244  -1.019   6.963   9.997 -0.6690 -0.1198  0.5471
  889MOL0     C17245  -1.158   6.939  10.020 -0.0767 -0.3043 -0.2242
  889MOL0     O17246  -1.223   7.020  10.101 -0.0142  0.3023 -0.3091
  889MOL0     C17247  -1.359   7.018  10.117  0.4864 -0.6004  0.2305
  889MOL0     C17248  -1.449   7.022  10.009 -0.2298  0.2305 -0.1270
  889MOL0     C17249  -1.584   7.036  10.035 -0.6883 -0.1796  0.3809
  889MOL0     C17250  -1.636   7.053  10.159  0.7772  0.0013  0.3158
  889MOL0     O17251  -1.776   7.075  10.183 -0.4642  0.0447 -0.1628
  889MOL0     C17252  -1.860   7.117  10.073  0.5514  0.2763 -0.3632
  889MOL0     C17253  -2.004   7.129  10.138 -0.0334  0.0898  0.3773
  889MOL0     C17254  -2.096   7.200  10.040 -0.3632 -0.1601 -0.2286
  889MOL0     C17255  -2.229   7.249  10.078 -0.5522  0.2123 -0.2840
  889MOL0     C17256  -2.293   7.324   9.957 -0.4217 -0.1671  0.9901
  889MOL0     C17257  -2.419   7.405   9.990 -0.7321  0.2412  0.0681
  889MOL0     C17258  -2.539   7.313  10.030  0.7552  0.0409 -0.1358
  889MOL0     C17259  -2.582   7.204   9.935  0.0925 -0.3931  0.4365
  889MOL0    Cl17260  -2.613   7.278   9.770 -0.0646  0.2977 -0.0742
  889MOL0     C17261  -1.551   7.023  10.263  0.3034 -0.4139 -0.9436
  889MOL0     C17262  -1.417   7.010  10.242 -0.6093 -0.8664  0.0083
  889MOL0     O17263  -1.200   6.845   9.956  0.1956  0.1641 -0.5259
  889MOL0     C17264  -0.944   6.900   9.906  0.5187 -0.4656  0.2445
  889MOL0     C17265  -0.812   6.946   9.879 -0.3755 -0.4212  0.5352
  889MOL0     N17266  -0.400   7.461   9.574  0.5060 -0.6555 -0.7754
  889MOL0     N17267  -0.336   7.524   9.482  0.0113  0.2631  0.5640
  889MOL0     C17268   0.665   8.082   9.178 -0.0551 -0.5122 -0.0652
  889MOL0     C17269   0.802   8.075   9.219 -0.5639  0.5335  0.6259
  889MOL0     C17270   1.227   7.925   9.168 -0.2027 -0.3610  0.6491
  889MOL0     C17271   1.317   7.850   9.087  0.5224  0.1759  0.6164
  889MOL0     C17272   1.458   7.853   9.110  0.0490 -0.3812 -0.1421
  889MOL0     C17273   1.504   7.914   9.221 -0.7395 -0.2877  0.4082
  889MOL0     O17274   1.639   7.909   9.234 -0.2554 -0.1684  0.2578
  889MOL0     C17275   1.709   8.020   9.304 -0.1074 -0.5980  0.4734
  889MOL0     C17276   1.697   8.153   9.229 -0.0146  0.1992 -0.3600
  889MOL0     C17277   1.788   8.156   9.103  0.0219 -0.9398  0.2355
  889MOL0     C17278   1.937   8.154   9.148  0.3595  0.7118  0.5336
  889MOL0     C17279   2.037   8.159   9.032 -0.4932 -0.0174 -1.0056
  889MOL0     C17280   2.125   8.169   8.949  0.9838 -0.6733 -0.4955
  889MOL0     C17281   1.421   7.967   9.311 -0.0392  0.4132 -0.6580
  889MOL0     C17282   1.278   7.980   9.290 -1.0280  0.2212  0.1474
  889MOL0     H17283   0.834   7.735   9.191 -0.2067  0.4742 -2.0777
  889MOL0     H17284   0.608   7.745   9.142  0.5155 -0.7808 -1.9175
  889MOL0     H17285   0.377   8.139   9.106 -2.3445 -0.7655 -0.4029
  889MOL0     H17286   0.419   8.135   9.275 -0.9009  4.2639 -1.7649
  889MOL0     H17287   0.218   7.958   9.141  4.9580 -1.0797  0.0546
  889MOL0     H17288   0.173   8.120   9.227  0.0577  0.6653  2.8287
  889MOL0     H17289   0.246   7.999   9.435  0.7633  3.0125 -2.5044
  889MOL0     H17290   0.266   7.845   9.333  0.0540 -0.7550  0.8072
  889MOL0     H17291   0.012   7.903   9.266  0.5076  0.5032 -0.4238
  889MOL0     H17292   0.050   7.803   9.406 -0.9051  0.7723 -1.3073
  889MOL0     H17293   0.024   8.103   9.405 -1.2003  0.3246 -0.3760
  889MOL0     H17294   0.041   8.000   9.545  3.3880 -0.9473 -1.6927
  889MOL0     H17295  -0.207   8.005   9.356  2.5203  1.6204 -0.6910
  889MOL0     H17296  -0.191   8.097   9.501 -1.6088  0.4257 -1.2942
  889MOL0     H17297  -0.154   7.866   9.627 -1.5820 -2.4018  0.4337
  889MOL0     H17298  -0.320   7.921   9.552 -0.1144  0.4666 -1.3927
  889MOL0     H17299  -0.145   7.707   9.420  0.0789 -2.5284  1.0736
  889MOL0     H17300  -0.291   7.770   9.364 -0.4754  0.3936 -0.1173
  889MOL0     H17301  -0.370   7.751   9.716  0.2324  0.2847  0.4477
  889MOL0     H17302  -0.607   7.551   9.779  0.0723  0.0079 -0.4985
  889MOL0     H17303  -0.460   7.551   9.890  1.9431 -2.6123  0.1739
  889MOL0     H17304  -0.401   7.337   9.846  0.8725  2.2215  0.5809
  889MOL0     H17305  -0.552   7.297   9.754  1.2458 -1.1721 -0.6297
  889MOL0     H17306  -0.507   7.362  10.047  1.2913 -2.6955  0.5072
  889MOL0     H17307  -0.675   7.340   9.968 -0.0370 -1.3470 -0.8222
  889MOL0     H17308  -0.587   7.146  10.102  3.5502 -1.2083  0.7607
  889MOL0     H17309  -0.448   7.156   9.996  0.7407  3.3105 -0.3463
  889MOL0     H17310  -0.797   7.208  10.096  1.5646 -0.4783  0.9542
  889MOL0     H17311  -1.012   7.138  10.143  0.2188  1.9266 -0.8109
  889MOL0     H17312  -1.412   7.011   9.907  2.9069  1.5936  0.7379
  889MOL0     H17313  -1.645   7.044   9.945  1.1422  0.3433 -0.8847
  889MOL0     H17314  -1.864   7.040   9.996  1.3795  0.5727 -0.7216
  889MOL0     H17315  -1.822   7.212  10.034  0.0629  0.5271 -0.2418
  889MOL0     H17316  -1.996   7.188  10.230  1.2461 -1.8688  1.6037
  889MOL0     H17317  -2.043   7.029  10.154  0.4128 -0.0018  0.9020
  889MOL0     H17318  -2.101   7.149   9.943  1.0897  1.8162 -1.4524
  889MOL0     H17319  -2.045   7.291  10.005  0.1247 -0.0068  0.8600
  889MOL0     H17320  -2.304   7.173  10.100 -0.0151  0.2142  1.7219
  889MOL0     H17321  -2.213   7.320  10.160 -1.6626  0.7614 -0.5179
  889MOL0     H17322  -2.320   7.256   9.875  1.3897 -0.4932  0.6050
  889MOL0     H17323  -2.212   7.388   9.921  0.4940 -0.5492  2.3105
  889MOL0     H17324  -2.448   7.465   9.904  0.5841 -0.5233 -0.9424
  889MOL0     H17325  -2.391   7.474  10.070  2.5186  0.0950 -0.8068
  889MOL0     H17326  -2.522   7.268  10.128 -2.8113 -0.1005  0.5359
  889MOL0     H17327  -2.626   7.377  10.048  1.8064  0.7480  3.0271
  889MOL0     H17328  -2.681   7.176   9.972 -2.2998  4.9644 -1.0275
  889MOL0     H17329  -2.504   7.127   9.931 -0.4750 -0.9178 -1.5783
  889MOL0     H17330  -1.603   7.027  10.358  0.4032  0.2930 -0.9116
  889MOL0     H17331  -1.341   7.000  10.319 -2.2906  0.7334  2.0009
  889MOL0     H17332  -0.990   6.826   9.842 -0.5519 -0.0055  0.4594
  889MOL0     H17333  -0.750   6.898   9.803  0.4738  2.5101 -0.7730
  889MOL0     H17334   0.620   8.181   9.180 -3.2076 -1.8122  0.6778
  889MOL0     H17335   0.859   8.166   9.234  2.2394 -0.8722 -0.8373
  889MOL0     H17336   1.281   7.810   8.993  1.3600 -1.0918  0.8087
  889MOL0     H17337   1.527   7.815   9.035  0.4776  0.6924 -0.3132
  889MOL0     H17338   1.813   7.989   9.317 -0.1653  0.2346  4.2333
  889MOL0     H17339   1.675   8.041   9.406 -0.3128 -1.9717  0.7147
  889MOL0     H17340   1.591   8.155   9.202 -0.2432 -0.8282  0.4065
  889MOL0     H17341   1.720   8.219   9.313  2.0868 -1.1727  0.2194
  889MOL0     H17342   1.781   8.251   9.049 -1.9286 -1.8544 -1.2279
  889MOL0     H17343   1.769   8.070   9.039  0.6930 -0.7397 -0.2405
  889MOL0     H17344   1.963   8.247   9.201  0.8451  0.3776  0.8893
  889MOL0     H17345   1.962   8.060   9.197 -3.0983 -2.3460 -2.9121
  889MOL0     H17346   2.196   8.196   8.873 -1.2137  2.1335 -1.7350
  889MOL0     H17347   1.461   8.017   9.399  1.7599 -0.3508 -1.0019
  889MOL0     H17348   1.212   8.040   9.352  0.8579 -0.3246  2.8784
  890MOL0     O17349  10.248   5.005   5.327  0.1026 -0.1186  0.0330
  890MOL0     C17350  10.289   4.913   5.252  0.4348  0.6292 -0.6211
  890MOL0     O17351  10.215   4.798   5.215  0.1482 -0.1608 -0.2649
  890MOL0     C17352  10.086   4.787   5.269 -0.5585  0.1508 -0.4622
  890MOL0     C17353  10.065   4.693   5.370 -0.4754  0.2169  0.0229
  890MOL0     C17354   9.936   4.683   5.419 -0.3355  0.1502  0.6822
  890MOL0     C17355   9.831   4.757   5.374 -0.4008  0.5067  0.1039
  890MOL0     O17356   9.700   4.743   5.422  0.2786 -0.6020  0.7725
  890MOL0     C17357   9.684   4.706   5.559  0.3590 -1.3468  0.8729
  890MOL0     C17358   9.539   4.747   5.596 -0.0922 -0.4234 -0.7211
  890MOL0     C17359   9.523   4.894   5.613 -0.4260  0.2591  0.6221
  890MOL0     C17360   9.382   4.926   5.642 -0.4078  0.2787 -0.1590
  890MOL0     C17361   9.355   5.082   5.631 -0.3788  0.3695  0.0059
  890MOL0     C17362   9.213   5.121   5.671  0.2041  1.1168 -0.5454
  890MOL0     C17363   9.101   5.073   5.581 -0.1622  0.2090 -0.1579
  890MOL0     C17364   8.979   5.138   5.644  0.0716  0.2297  0.4975
  890MOL0     N17365   8.862   5.140   5.557 -0.4381  0.1695  0.2333
  890MOL0     C17366   8.799   5.037   5.499 -0.3897 -0.1350 -0.1084
  890MOL0     C17367   8.698   5.097   5.439 -0.0330  0.1877  0.4883
  890MOL0     C17368   8.598   5.043   5.333  0.0140 -0.2898 -0.2887
  890MOL0     C17369   8.513   4.923   5.372 -0.0768  0.4446  0.7681
  890MOL0     C17370   8.478   4.927   5.521  0.2926  0.6123 -0.9215
  890MOL0     C17371   8.412   5.057   5.574 -0.7810  0.4413  0.4227
  890MOL0     O17372   8.371   5.052   5.708  0.2610 -0.2783 -0.5782
  890MOL0     C17373   8.237   5.049   5.732  0.0539 -0.0071  0.3909
  890MOL0     C17374   8.184   5.099   5.853 -0.3063  0.5148 -0.0567
  890MOL0     C17375   8.044   5.110   5.889  0.6718 -0.3054  0.4910
  890MOL0     C17376   7.953   5.083   5.790  1.0551 -0.1891  1.2551
  890MOL0     C17377   7.811   5.112   5.807  0.6386  0.1607 -0.1227
  890MOL0     O17378   7.765   5.126   5.944 -0.6224 -0.0615  0.1663
  890MOL0     C17379   7.647   5.183   5.981 -0.6151  0.2114  0.0138
  890MOL0     C17380   7.532   5.180   5.906  0.4061  0.6956 -0.5840
  890MOL0     C17381   7.416   5.245   5.960  0.5314  0.7471  0.9799
  890MOL0     C17382   7.413   5.287   6.096 -0.2927  0.3659 -0.4493
  890MOL0     O17383   7.292   5.327   6.146 -0.2528  0.6060 -0.1997
  890MOL0     C17384   7.259   5.328   6.284 -0.0679  1.1480  0.0267
  890MOL0     C17385   7.113   5.321   6.309 -0.2344 -0.6469  0.1480
  890MOL0     C17386   7.055   5.184   6.288 -0.5221  0.1328  1.2614
  890MOL0     C17387   6.916   5.172   6.350  0.3366 -0.0722 -1.0158
  890MOL0     C17388   6.839   5.035   6.315 -0.2683 -0.3551 -0.9478
  890MOL0     C17389   6.698   5.020   6.373 -0.7217  0.0875 -0.0575
  890MOL0     C17390   6.622   4.906   6.305 -0.5750 -1.0715  0.0020
  890MOL0     C17391   6.502   4.878   6.380  1.0147 -1.2713 -0.5674
  890MOL0    Cl17392   6.395   5.017   6.395 -0.3202 -0.0696  0.3244
  890MOL0     C17393   7.533   5.275   6.172 -0.1398  0.7930 -0.2539
  890MOL0     C17394   7.648   5.220   6.116  0.3614  0.0724  0.1399
  890MOL0     O17395   7.735   5.112   5.707 -0.6110 -0.1201 -0.0084
  890MOL0     C17396   7.995   5.020   5.672  0.0518 -0.1652 -0.3355
  890MOL0     C17397   8.139   5.005   5.646  0.5446  0.0972 -0.3923
  890MOL0     N17398   8.696   5.232   5.473 -0.7360  0.0626  0.5996
  890MOL0     N17399   8.803   5.252   5.537  0.6610 -0.6655  0.3703
  890MOL0     C17400   9.851   4.851   5.276 -0.5366  0.4599  0.2545
  890MOL0     C17401   9.978   4.861   5.225 -0.9210 -0.7536  0.7720
  890MOL0     C17402  10.433   4.920   5.199 -1.9198 -0.3429 -0.8513
  890MOL0     C17403  10.471   4.856   5.084 -0.0960  0.6083 -0.1395
  890MOL0     C17404  10.599   4.891   5.030 -0.0215  0.5077 -0.2197
  890MOL0     C17405  10.687   4.979   5.093 -0.0039  0.5777 -0.1335
  890MOL0     O17406  10.818   4.992   5.048  0.6619  0.2382 -0.5566
  890MOL0     C17407  10.861   5.124   5.044  0.2844  1.0159  0.6739
  890MOL0     C17408  10.943   5.153   4.927 -0.0849 -0.0375  0.8276
  890MOL0     C17409  11.031   5.035   4.884 -0.6171 -0.4333 -0.2684
  890MOL0     C17410  11.166   5.092   4.828  0.0269  1.0418 -0.1178
  890MOL0     C17411  11.139   5.151   4.689  0.2956 -0.3733  0.0098
  890MOL0     C17412  11.113   5.203   4.579 -0.6291 -0.9005  0.8575
  890MOL0     C17413  10.648   5.036   5.219  0.0256 -0.2538 -0.1236
  890MOL0     C17414  10.526   5.016   5.266  0.7465 -0.2448 -1.0546
  890MOL0     H17415  10.143   4.629   5.410 -1.0378  0.1708  1.0923
  890MOL0     H17416   9.912   4.613   5.499 -1.2636 -0.2070  0.1135
  890MOL0     H17417   9.759   4.767   5.608 -0.9774  1.6119 -0.5171
  890MOL0     H17418   9.700   4.599   5.578  2.1739 -1.6497 -1.7665
  890MOL0     H17419   9.508   4.701   5.690  0.6440  1.0163  0.2636
  890MOL0     H17420   9.458   4.705   5.535 -1.5346  0.1684  0.7052
  890MOL0     H17421   9.544   4.943   5.517 -0.0911 -1.7825 -0.3914
  890MOL0     H17422   9.595   4.922   5.690  2.1240 -0.1306 -1.4716
  890MOL0     H17423   9.321   4.874   5.568 -0.1673 -1.3728  0.7743
  890MOL0     H17424   9.355   4.892   5.743 -0.0269 -1.5910 -0.6517
  890MOL0     H17425   9.362   5.110   5.526  0.9242  0.2646  0.0534
  890MOL0     H17426   9.428   5.128   5.699  0.3314  1.6952 -1.5895
  890MOL0     H17427   9.212   5.230   5.667 -3.1020  1.1695 -1.3910
  890MOL0     H17428   9.201   5.096   5.777 -3.4844 -2.1265 -1.4906
  890MOL0     H17429   9.113   5.120   5.482  1.0759 -1.8519 -1.0450
  890MOL0     H17430   9.083   4.966   5.568  0.2471  0.3012 -1.7404
  890MOL0     H17431   9.006   5.241   5.665 -1.0027  0.9108 -1.2864
  890MOL0     H17432   8.955   5.093   5.741  0.7297 -0.0062  0.5539
  890MOL0     H17433   8.831   4.934   5.488  2.2016  0.6689 -1.0699
  890MOL0     H17434   8.652   5.026   5.239 -2.1196 -1.2114 -1.4294
  890MOL0     H17435   8.535   5.126   5.299 -0.8254  0.3517  2.5228
  890MOL0     H17436   8.572   4.831   5.368  0.4806  0.5963  3.6667
  890MOL0     H17437   8.421   4.914   5.312 -1.1747  3.5376  1.8093
  890MOL0     H17438   8.410   4.843   5.539  2.2070 -0.6869  0.8874
  890MOL0     H17439   8.574   4.909   5.570  0.4193  1.6896 -0.7447
  890MOL0     H17440   8.336   5.071   5.496  1.4101  0.8597 -1.7473
  890MOL0     H17441   8.484   5.139   5.569  1.8254 -1.7529 -2.3411
  890MOL0     H17442   8.267   5.134   5.914  1.0693  1.0192 -2.1002
  890MOL0     H17443   8.011   5.163   5.978 -1.7193 -1.0441  0.1054
  890MOL0     H17444   7.522   5.151   5.802 -5.8229  0.1394 -0.2459
  890MOL0     H17445   7.324   5.246   5.903 -1.1207 -3.5601  3.1024
  890MOL0     H17446   7.297   5.417   6.335  2.4229  0.8364 -1.1672
  890MOL0     H17447   7.306   5.237   6.323  0.4220  0.8245 -1.2779
  890MOL0     H17448   7.068   5.397   6.245  2.6186 -0.2946 -1.6089
  890MOL0     H17449   7.096   5.359   6.410 -1.2503 -1.7342  0.4117
  890MOL0     H17450   7.124   5.107   6.326 -1.9135 -1.1111  1.3663
  890MOL0     H17451   7.056   5.171   6.180 -1.4581  1.6350  1.0525
  890MOL0     H17452   6.915   5.179   6.459 -1.2897  1.4527 -1.0908
  890MOL0     H17453   6.853   5.253   6.312 -1.9161 -1.5103 -0.5562
  890MOL0     H17454   6.910   4.964   6.359  0.5773  0.4339 -1.0131
  890MOL0     H17455   6.838   5.003   6.210 -2.7815 -0.7941 -0.8543
  890MOL0     H17456   6.629   5.103   6.351  0.5530  0.9958 -0.8082
  890MOL0     H17457   6.695   5.015   6.482 -4.7393  3.6654  0.2810
  890MOL0     H17458   6.603   4.943   6.204  1.2643 -1.7454 -0.6460
  890MOL0     H17459   6.677   4.811   6.296 -0.3691 -1.1954  2.0438
  890MOL0     H17460   6.514   4.832   6.478 -1.4385 -0.4375  0.1875
  890MOL0     H17461   6.439   4.805   6.328 -2.4959  0.5515  0.7564
  890MOL0     H17462   7.539   5.312   6.274 -0.2495 -0.9795  0.4219
  890MOL0     H17463   7.739   5.192   6.168  0.6934  0.0326 -0.4552
  890MOL0     H17464   7.924   4.988   5.595  1.6367 -0.8697 -1.5592
  890MOL0     H17465   8.168   4.948   5.558  3.6577 -1.1081  1.2192
  890MOL0     H17466   9.763   4.900   5.235  0.4683  2.0623 -0.0400
  890MOL0     H17467   9.986   4.939   5.149 -2.5691 -2.5615 -1.3686
  890MOL0     H17468  10.405   4.782   5.039  3.5725 -1.9979 -1.7691
  890MOL0     H17469  10.634   4.837   4.942  1.4171  1.3002 -0.1561
  890MOL0     H17470  10.930   5.128   5.129  1.7568  0.8838 -0.4780
  890MOL0     H17471  10.781   5.198   5.044  1.2264  2.2096 -2.5600
  890MOL0     H17472  10.871   5.171   4.846  1.1008  0.8709 -0.0426
  890MOL0     H17473  10.999   5.244   4.950 -0.4400 -0.0759  1.9404
  890MOL0     H17474  10.985   4.959   4.820 -0.4616 -1.2752  0.5896
  890MOL0     H17475  11.060   4.985   4.977  1.7626  1.7278  0.2466
  890MOL0     H17476  11.227   5.151   4.897  0.0835 -0.8086  1.4915
  890MOL0     H17477  11.236   5.010   4.810 -2.4558 -0.9020 -1.5802
  890MOL0     H17478  11.100   5.245   4.482 -0.3043  2.4765  2.1252
  890MOL0     H17479  10.720   5.094   5.275 -0.7244 -0.0899  0.6913
  890MOL0     H17480  10.492   5.064   5.357  0.1592  1.8317 -2.2772
  891MOL0     O17481   2.954   8.981   0.962  0.7734  0.0084  0.6974
  891MOL0     C17482   3.010   8.905   0.876  0.2887  0.2402  0.2535
  891MOL0     O17483   2.949   8.841   0.775 -0.6513  0.5522 -0.3432
  891MOL0     C17484   2.817   8.871   0.748 -0.9480 -0.4214 -0.7686
  891MOL0     C17485   2.712   8.917   0.829  0.0639  0.6547 -0.8306
  891MOL0     C17486   2.593   8.958   0.774 -0.4219 -0.4553 -0.2039
  891MOL0     C17487   2.570   8.938   0.639  0.1753 -0.1009 -0.6865
  891MOL0     O17488   2.448   8.984   0.594  0.2119  0.2845 -0.3213
  891MOL0     C17489   2.461   9.036   0.463 -0.0704  0.0742 -0.0521
  891MOL0     C17490   2.331   9.108   0.427 -0.3804  0.6604  1.0122
  891MOL0     C17491   2.314   9.242   0.492 -0.3024  0.6970 -0.4243
  891MOL0     C17492   2.164   9.270   0.493  0.2922  0.6270 -0.3826
  891MOL0     C17493   2.129   9.412   0.542 -0.1556  0.9852  0.8659
  891MOL0     C17494   1.987   9.425   0.606 -0.0434 -0.3402 -0.3808
  891MOL0     C17495   1.884   9.417   0.498  0.1938 -0.4345  0.7033
  891MOL0     C17496   1.749   9.451   0.549 -0.0620  0.0886 -0.3008
  891MOL0     N17497   1.650   9.413   0.450  0.2633 -0.2180  0.0728
  891MOL0     C17498   1.607   9.505   0.357 -0.3234  1.3472  0.0206
  891MOL0     C17499   1.496   9.439   0.302 -0.3738  0.4440 -0.5420
  891MOL0     C17500   1.413   9.497   0.193  0.3469  0.1674 -0.6578
  891MOL0     C17501   1.264   9.490   0.243 -0.8440  0.1391  0.9866
  891MOL0     C17502   1.173   9.495   0.123 -0.2148 -0.2947  1.1894
  891MOL0     C17503   1.037   9.551   0.168  0.0956  1.0126  0.0048
  891MOL0     O17504   0.972   9.440   0.239  0.4616  0.1065  0.3340
  891MOL0     C17505   0.843   9.466   0.277  0.5259 -0.6149 -0.4165
  891MOL0     C17506   0.762   9.361   0.310  0.5165  0.5045 -0.5674
  891MOL0     C17507   0.633   9.371   0.362 -0.0836 -1.3291  1.3731
  891MOL0     C17508   0.578   9.498   0.389 -0.3659 -0.5413  0.1137
  891MOL0     C17509   0.453   9.513   0.473 -0.7338 -0.2412  0.1166
  891MOL0     O17510   0.411   9.396   0.531 -0.6327  0.3436  0.0337
  891MOL0     C17511   0.288   9.393   0.596 -0.6860  0.5539 -0.2739
  891MOL0     C17512   0.234   9.496   0.680 -0.1829 -0.2927 -0.2313
  891MOL0     C17513   0.106   9.482   0.737  0.2571  0.7874  0.1484
  891MOL0     C17514   0.033   9.360   0.718  0.3218 -0.8132  0.1490
  891MOL0     O17515  -0.089   9.327   0.778 -0.1459  0.0146  0.9063
  891MOL0     C17516  -0.178   9.438   0.799 -0.3148 -0.8523 -0.1855
  891MOL0     C17517  -0.312   9.392   0.870 -0.2653  0.1253  0.9517
  891MOL0     C17518  -0.293   9.353   1.010  0.2770 -0.1195  0.7113
  891MOL0     C17519  -0.410   9.269   1.055 -0.1977 -0.3777 -0.2590
  891MOL0     C17520  -0.396   9.210   1.194 -0.0673 -0.0454 -0.7260
  891MOL0     C17521  -0.445   9.302   1.303  0.3103 -0.3778  0.1955
  891MOL0     C17522  -0.380   9.270   1.437  0.3887 -0.3376  0.1703
  891MOL0     C17523  -0.405   9.376   1.548 -0.8180 -0.2506  0.0537
  891MOL0    Cl17524  -0.566   9.369   1.626 -0.0089  0.0669  0.3663
  891MOL0     C17525   0.094   9.261   0.647  1.0335  0.1969 -0.3455
  891MOL0     C17526   0.217   9.268   0.583 -0.8685  0.8879  0.2796
  891MOL0     O17527   0.394   9.624   0.490 -0.6685 -0.3398  0.6957
  891MOL0     C17528   0.655   9.612   0.355 -0.2296 -0.9595 -0.4840
  891MOL0     C17529   0.785   9.600   0.296  0.6998  0.4541 -0.3901
  891MOL0     N17530   1.492   9.306   0.352 -0.1420 -0.2110  0.6592
  891MOL0     N17531   1.585   9.297   0.441 -0.3384  1.4343  0.2364
  891MOL0     C17532   2.667   8.879   0.554 -0.3826 -0.0819 -0.2759
  891MOL0     C17533   2.789   8.851   0.613 -0.0633  0.0061  0.2827
  891MOL0     C17534   3.153   8.861   0.898 -0.1255  0.0041  0.0600
  891MOL0     C17535   3.240   8.955   0.955 -0.0718 -0.0055 -0.2710
  891MOL0     C17536   3.382   8.945   0.956  0.5012  0.2380  0.4989
  891MOL0     C17537   3.442   8.840   0.889  0.4121  0.8284  0.0051
  891MOL0     O17538   3.583   8.817   0.882 -0.1280  0.0714 -0.2846
  891MOL0     C17539   3.634   8.791   0.754 -0.7167 -0.0758  0.4100
  891MOL0     C17540   3.770   8.855   0.754  0.4567  0.3374  0.1435
  891MOL0     C17541   3.787   9.009   0.725 -0.4863 -0.4334 -0.6164
  891MOL0     C17542   3.933   9.042   0.689 -0.2166  0.2303  0.7166
  891MOL0     C17543   4.033   9.000   0.797 -0.3790 -0.3863 -0.7154
  891MOL0     C17544   4.120   8.963   0.871 -0.1209 -0.1875 -0.3563
  891MOL0     C17545   3.357   8.748   0.818  0.0736 -1.2183  0.6672
  891MOL0     C17546   3.217   8.757   0.827 -0.9860  0.1087  0.0668
  891MOL0     H17547   2.721   8.928   0.937 -3.3057  5.6922 -0.6782
  891MOL0     H17548   2.522   9.008   0.838  0.7082  1.3232 -0.2808
  891MOL0     H17549   2.480   8.957   0.390 -1.1300 -0.1232 -0.1256
  891MOL0     H17550   2.545   9.106   0.470 -1.1085  1.2158  1.8294
  891MOL0     H17551   2.253   9.038   0.458  0.1240 -1.0822 -1.3200
  891MOL0     H17552   2.316   9.128   0.321 -2.1149  0.1496  1.1348
  891MOL0     H17553   2.364   9.317   0.429  0.3124 -2.1393 -3.6325
  891MOL0     H17554   2.367   9.240   0.588  1.9616  1.1126 -1.5827
  891MOL0     H17555   2.123   9.246   0.394  3.2172 -0.4304 -1.4672
  891MOL0     H17556   2.127   9.199   0.567  1.5262 -1.4780 -1.6337
  891MOL0     H17557   2.140   9.489   0.465 -2.8353 -0.4778 -1.1982
  891MOL0     H17558   2.200   9.419   0.624 -0.4179  0.7899  1.1102
  891MOL0     H17559   1.984   9.525   0.651 -2.0522 -0.2541 -0.6091
  891MOL0     H17560   1.975   9.348   0.683  0.6841 -1.6278 -1.5076
  891MOL0     H17561   1.907   9.484   0.414 -1.6777  2.6127  2.4354
  891MOL0     H17562   1.878   9.317   0.454  1.3256 -0.5320  0.7435
  891MOL0     H17563   1.743   9.553   0.587 -0.1469  0.1005 -0.3465
  891MOL0     H17564   1.738   9.392   0.641  1.4657 -3.2507 -2.1013
  891MOL0     H17565   1.662   9.596   0.338  0.1644  0.7141 -1.7468
  891MOL0     H17566   1.430   9.441   0.101 -1.5250 -0.6647 -0.5548
  891MOL0     H17567   1.448   9.600   0.180  2.9186 -0.1560  2.5061
  891MOL0     H17568   1.242   9.576   0.305 -1.3756  0.9684 -0.3116
  891MOL0     H17569   1.245   9.393   0.291 -1.7891 -0.1399  0.0928
  891MOL0     H17570   1.224   9.555   0.047 -0.1023 -0.3959  1.1842
  891MOL0     H17571   1.159   9.399   0.072  1.6324 -0.0859  0.2016
  891MOL0     H17572   0.987   9.570   0.073  3.3836 -1.7063 -2.5258
  891MOL0     H17573   1.048   9.643   0.226  1.3587  0.0652  1.3442
  891MOL0     H17574   0.788   9.256   0.298 -1.0553  0.1354 -1.0076
  891MOL0     H17575   0.591   9.273   0.383 -1.4726 -1.7606 -2.5482
  891MOL0     H17576   0.280   9.593   0.698  1.5343 -0.3735 -3.4314
  891MOL0     H17577   0.042   9.547   0.796 -0.6943 -0.8510  0.9863
  891MOL0     H17578  -0.194   9.496   0.708 -2.4388  0.1676  0.7746
  891MOL0     H17579  -0.135   9.513   0.866 -0.6250  1.3200 -2.2853
  891MOL0     H17580  -0.348   9.305   0.815  3.0021 -1.0408  0.4048
  891MOL0     H17581  -0.386   9.472   0.872 -1.4469 -0.8953 -0.1064
  891MOL0     H17582  -0.287   9.441   1.075  1.2256 -1.4034  2.4545
  891MOL0     H17583  -0.200   9.296   1.026 -0.4603 -2.2266 -1.7657
  891MOL0     H17584  -0.504   9.315   1.024 -0.6417 -1.0884  0.0233
  891MOL0     H17585  -0.406   9.177   0.996 -0.4997 -0.5410 -0.0258
  891MOL0     H17586  -0.293   9.186   1.222 -0.0371  2.6018  1.8938
  891MOL0     H17587  -0.455   9.119   1.208  0.8487 -0.5744 -0.1556
  891MOL0     H17588  -0.554   9.300   1.314  0.3496 -1.6230  0.4746
  891MOL0     H17589  -0.409   9.403   1.279  1.6852 -0.9412 -0.1923
  891MOL0     H17590  -0.429   9.177   1.468 -2.0134 -0.2120 -2.8102
  891MOL0     H17591  -0.272   9.254   1.429  0.0822 -1.6937 -2.1746
  891MOL0     H17592  -0.387   9.475   1.505 -0.5538 -0.4576 -0.3186
  891MOL0     H17593  -0.332   9.353   1.626 -0.3998 -1.2468 -0.6130
  891MOL0     H17594   0.036   9.169   0.647 -0.9309  1.3676  0.1091
  891MOL0     H17595   0.257   9.181   0.532 -0.5998 -0.1770  2.2066
  891MOL0     H17596   0.612   9.707   0.385 -1.4400 -0.9623 -2.0743
  891MOL0     H17597   0.832   9.696   0.275  2.8820  0.2179  2.7943
  891MOL0     H17598   2.653   8.857   0.448 -0.9816  2.1323 -0.6958
  891MOL0     H17599   2.864   8.819   0.541  1.1440  1.2672  0.9183
  891MOL0     H17600   3.189   9.039   1.001 -0.5979 -0.2995 -0.3117
  891MOL0     H17601   3.437   9.022   1.010 -0.2273  0.4625  0.9329
  891MOL0     H17602   3.569   8.831   0.675 -0.9979 -1.4153 -0.0598
  891MOL0     H17603   3.643   8.683   0.741 -1.2717 -0.0331 -0.4154
  891MOL0     H17604   3.808   8.831   0.853  0.6060  2.3457  0.6109
  891MOL0     H17605   3.823   8.791   0.683  0.4600 -2.5180  2.5558
  891MOL0     H17606   3.754   9.071   0.810 -0.5714  1.2744 -1.8375
  891MOL0     H17607   3.722   9.039   0.642 -1.9984  1.6816  1.1779
  891MOL0     H17608   3.956   9.002   0.590 -2.4296  3.0209 -1.0548
  891MOL0     H17609   3.943   9.150   0.674  0.8092 -0.0771 -1.0919
  891MOL0     H17610   4.201   8.932   0.934 -0.0961 -0.7869 -0.6800
  891MOL0     H17611   3.407   8.682   0.749  3.1425  3.1642 -1.7843
  891MOL0     H17612   3.155   8.687   0.772 -0.9909  0.9735 -1.0646
  892MOL0     O17613   9.992   7.559   1.980 -0.8638 -0.2155  0.2113
  892MOL0     C17614  10.061   7.664   1.981  0.3503 -0.6159 -0.1666
  892MOL0     O17615  10.012   7.782   2.021  0.1440 -0.3763 -0.6020
  892MOL0     C17616   9.887   7.803   2.082 -0.1773  0.3746  0.3722
  892MOL0     C17617   9.818   7.927   2.071 -0.2316 -0.0197  0.3338
  892MOL0     C17618   9.710   7.955   2.143  0.6797 -0.1752 -0.4512
  892MOL0     C17619   9.649   7.864   2.233 -0.0434  0.7887  0.6681
  892MOL0     O17620   9.538   7.908   2.307  0.7131  0.3469 -0.0132
  892MOL0     C17621   9.427   7.943   2.217 -0.4282  0.8584 -0.0116
  892MOL0     C17622   9.308   7.934   2.300 -0.8520  0.7382  0.1291
  892MOL0     C17623   9.292   8.054   2.393 -0.8065 -0.5616  0.3860
  892MOL0     C17624   9.186   8.021   2.494  0.0831 -0.2435  0.0436
  892MOL0     C17625   9.118   8.152   2.559 -0.0552 -0.3392  0.5135
  892MOL0     C17626   8.997   8.101   2.644  0.7766 -0.1087 -0.4679
  892MOL0     C17627   8.875   8.200   2.637  0.6485  0.3065 -0.0909
  892MOL0     C17628   8.782   8.182   2.514 -0.8058 -0.6499  0.8598
  892MOL0     N17629   8.710   8.058   2.528  0.3587 -0.2657  0.4094
  892MOL0     C17630   8.595   8.036   2.607 -0.3528 -0.8329  0.1145
  892MOL0     C17631   8.557   7.904   2.592 -0.1238  0.5488  0.4683
  892MOL0     C17632   8.441   7.834   2.664 -0.3408  0.3035  0.4257
  892MOL0     C17633   8.302   7.904   2.646  0.3390  0.6150 -0.5153
  892MOL0     C17634   8.194   7.838   2.733  0.5923  0.5599 -0.2661
  892MOL0     C17635   8.057   7.882   2.715 -1.0258 -0.2584 -0.1948
  892MOL0     O17636   7.972   7.812   2.797  0.3858 -0.2997 -0.6034
  892MOL0     C17637   7.840   7.831   2.766 -0.0785  0.0959 -0.8735
  892MOL0     C17638   7.791   7.945   2.704 -0.2748 -0.7289 -1.4714
  892MOL0     C17639   7.663   7.963   2.667 -0.3787  0.7959  0.6964
  892MOL0     C17640   7.565   7.883   2.720  0.2653  0.0901 -0.2109
  892MOL0     C17641   7.416   7.905   2.688  0.5618  0.1067 -0.3682
  892MOL0     O17642   7.336   7.813   2.763 -0.1198 -0.2003  0.7777
  892MOL0     C17643   7.200   7.830   2.738 -0.1683 -0.9355  0.0708
  892MOL0     C17644   7.138   7.949   2.763 -0.3488  0.4078  0.5359
  892MOL0     C17645   6.999   7.970   2.740 -0.3197 -0.1715  0.0586
  892MOL0     C17646   6.921   7.858   2.699 -0.4678  0.0845 -0.9193
  892MOL0     O17647   6.780   7.876   2.701  0.2948 -1.2743  0.4178
  892MOL0     C17648   6.716   7.836   2.575 -0.6893  0.5221 -0.3081
  892MOL0     C17649   6.564   7.829   2.586 -0.1757  0.2531  0.1212
  892MOL0     C17650   6.519   7.685   2.600  0.0065  0.3530  0.0753
  892MOL0     C17651   6.365   7.676   2.618 -0.1455 -0.1998  0.0796
  892MOL0     C17652   6.322   7.536   2.631  0.2350 -0.0208 -0.4949
  892MOL0     C17653   6.170   7.547   2.668 -0.6571  0.1735 -1.3347
  892MOL0     C17654   6.130   7.402   2.706  0.5826 -0.2590  0.4223
  892MOL0     C17655   6.052   7.342   2.588 -0.0942 -0.1009 -0.5171
  892MOL0    Cl17656   6.045   7.167   2.616  0.2866  0.3684  0.3586
  892MOL0     C17657   6.988   7.740   2.671  0.8431 -0.1241  0.1955
  892MOL0     C17658   7.122   7.724   2.694 -0.0298  0.5624 -0.6985
  892MOL0     O17659   7.367   7.975   2.595  0.9852  0.4756 -0.5368
  892MOL0     C17660   7.603   7.765   2.796  0.0481  0.0668  0.5330
  892MOL0     C17661   7.744   7.743   2.815  0.7311 -0.9337  0.5239
  892MOL0     N17662   8.653   7.851   2.503  0.4737  0.1151  0.3232
  892MOL0     N17663   8.733   7.942   2.461 -0.2210  0.0767  0.4290
  892MOL0     C17664   9.712   7.736   2.243 -0.0209 -0.1883 -0.2816
  892MOL0     C17665   9.827   7.704   2.171 -0.8764 -0.2319 -0.1701
  892MOL0     C17666  10.195   7.672   1.911  0.0453  0.1897  0.2223
  892MOL0     C17667  10.266   7.797   1.917 -0.1169 -0.6706 -0.7057
  892MOL0     C17668  10.382   7.824   1.848 -0.1343  0.5217  0.5171
  892MOL0     C17669  10.444   7.723   1.766 -0.2581 -0.3042 -0.0903
  892MOL0     O17670  10.555   7.749   1.680  0.3318  0.0792 -0.0484
  892MOL0     C17671  10.614   7.871   1.681  0.9726 -0.6189 -0.3398
  892MOL0     C17672  10.750   7.858   1.625  0.4763 -0.4563 -0.3561
  892MOL0     C17673  10.852   7.800   1.730 -0.5097  0.3448  1.1887
  892MOL0     C17674  10.979   7.730   1.672 -0.4456  0.1490  0.0922
  892MOL0     C17675  10.959   7.592   1.621  0.0856 -0.6098 -0.4773
  892MOL0     C17676  10.946   7.478   1.589 -0.1278  0.3110 -0.7663
  892MOL0     C17677  10.370   7.605   1.753 -1.0099 -0.4369 -0.3285
  892MOL0     C17678  10.260   7.575   1.834 -0.2582  1.1228 -0.1330
  892MOL0     H17679   9.862   8.004   2.008 -0.1334 -1.6954 -1.7610
  892MOL0     H17680   9.675   8.058   2.139  1.6653  0.1540 -1.1694
  892MOL0     H17681   9.423   7.879   2.128  1.0955 -0.0216  0.5195
  892MOL0     H17682   9.436   8.048   2.186  3.7415  1.0625  1.3368
  892MOL0     H17683   9.306   7.840   2.355  0.5393  1.4650  1.5063
  892MOL0     H17684   9.225   7.933   2.228  0.1390 -0.8344 -1.0529
  892MOL0     H17685   9.281   8.144   2.332  0.4606 -0.7809 -0.2085
  892MOL0     H17686   9.386   8.071   2.447 -2.0832  0.3062  2.4388
  892MOL0     H17687   9.100   7.970   2.451 -1.6524  2.3074  0.2843
  892MOL0     H17688   9.219   7.953   2.574 -1.6399  1.1153  2.0117
  892MOL0     H17689   9.084   8.221   2.481  0.6758 -0.6136 -0.0611
  892MOL0     H17690   9.190   8.206   2.620 -0.2943 -0.2789  0.7453
  892MOL0     H17691   9.027   8.084   2.748  0.8166  1.0867 -0.2785
  892MOL0     H17692   8.958   7.999   2.627  0.5523 -0.2936  0.9850
  892MOL0     H17693   8.809   8.192   2.724 -2.2178 -1.1019 -2.2303
  892MOL0     H17694   8.915   8.302   2.639 -3.7274  2.3146 -2.1050
  892MOL0     H17695   8.849   8.180   2.428 -2.0644  0.2272 -0.1834
  892MOL0     H17696   8.716   8.268   2.495 -0.7261 -1.0438 -1.5614
  892MOL0     H17697   8.537   8.102   2.670 -1.3952  0.4289 -2.0523
  892MOL0     H17698   8.471   7.818   2.768  0.8514  1.9505  0.3665
  892MOL0     H17699   8.433   7.729   2.634  0.8054  0.2061  0.3950
  892MOL0     H17700   8.270   7.890   2.542 -0.2088 -1.5706 -0.1004
  892MOL0     H17701   8.316   8.010   2.672 -1.0896  0.5943  0.4204
  892MOL0     H17702   8.190   7.732   2.707  4.7757  0.5015 -1.5518
  892MOL0     H17703   8.218   7.845   2.840 -3.9904 -0.8416  1.0884
  892MOL0     H17704   8.030   7.865   2.610 -1.3169 -1.7618  0.1045
  892MOL0     H17705   8.064   7.987   2.747 -2.1180 -0.7388  1.7029
  892MOL0     H17706   7.857   8.023   2.666  0.0506 -0.5059 -0.4717
  892MOL0     H17707   7.633   8.044   2.601 -0.1947  0.4342  0.1639
  892MOL0     H17708   7.191   8.021   2.825  1.3568 -1.0333  0.8539
  892MOL0     H17709   6.942   8.054   2.779 -0.9417 -1.4206  1.9662
  892MOL0     H17710   6.762   7.738   2.556  4.0433  2.6510 -1.3147
  892MOL0     H17711   6.743   7.899   2.490  1.5893 -1.2260 -0.9944
  892MOL0     H17712   6.513   7.866   2.497  1.0114 -1.5467 -1.3782
  892MOL0     H17713   6.527   7.895   2.666 -0.0085  0.7144 -0.1791
  892MOL0     H17714   6.572   7.658   2.691 -0.6440 -1.2274  0.0109
  892MOL0     H17715   6.553   7.625   2.515  0.0348  0.4214  0.0373
  892MOL0     H17716   6.342   7.726   2.712  1.6865 -1.6531  1.3713
  892MOL0     H17717   6.315   7.733   2.539 -0.8915  1.2746  1.5491
  892MOL0     H17718   6.386   7.489   2.705  1.3945  2.0548 -0.0878
  892MOL0     H17719   6.348   7.478   2.542 -0.1462  0.8480 -1.1961
  892MOL0     H17720   6.123   7.597   2.583 -1.5563 -1.7312 -2.0318
  892MOL0     H17721   6.168   7.612   2.755  0.0474 -0.7130 -0.6293
  892MOL0     H17722   6.222   7.346   2.722  1.1302  1.1583  2.7767
  892MOL0     H17723   6.069   7.388   2.796  2.7585 -2.6673  1.6404
  892MOL0     H17724   6.086   7.376   2.490 -0.6369  0.6877 -0.4434
  892MOL0     H17725   5.951   7.381   2.608 -0.1948  0.4604 -2.0065
  892MOL0     H17726   6.921   7.661   2.637 -1.1636  1.0385  1.2008
  892MOL0     H17727   7.175   7.631   2.675  1.6409  1.3931 -0.3128
  892MOL0     H17728   7.540   7.684   2.830  2.7642 -1.0299  3.3839
  892MOL0     H17729   7.785   7.652   2.856  1.2488 -0.4947  0.9941
  892MOL0     H17730   9.682   7.660   2.314  1.0079 -0.2113  0.1510
  892MOL0     H17731   9.850   7.598   2.180 -1.2697 -0.1665  2.3501
  892MOL0     H17732  10.224   7.880   1.974  2.7064  1.4532 -1.4784
  892MOL0     H17733  10.413   7.928   1.853  1.1763  0.3136 -2.0389
  892MOL0     H17734  10.615   7.911   1.783 -0.5178  1.5653 -1.1092
  892MOL0     H17735  10.550   7.942   1.628  0.0230 -0.9210  0.3823
  892MOL0     H17736  10.745   7.789   1.540  1.1294 -2.4192  1.1185
  892MOL0     H17737  10.771   7.955   1.579 -2.2791 -0.3583 -1.5751
  892MOL0     H17738  10.806   7.723   1.792  0.9025 -0.2495  1.5153
  892MOL0     H17739  10.878   7.879   1.802  3.0150 -0.8329  1.3554
  892MOL0     H17740  11.012   7.787   1.584 -2.8288  0.0872 -0.9101
  892MOL0     H17741  11.053   7.743   1.751 -0.1382  0.1121 -0.1852
  892MOL0     H17742  10.918   7.374   1.597  1.1576  0.0888  2.0497
  892MOL0     H17743  10.421   7.528   1.696  2.6144  0.9417  0.7781
  892MOL0     H17744  10.229   7.471   1.834 -1.4930  1.4728 -0.4336
  893MOL0     O17745   2.546   8.934  10.771 -0.1121  0.8637  0.1254
  893MOL0     C17746   2.546   8.856  10.859 -0.5189  1.2274 -0.3595
  893MOL0     O17747   2.433   8.783  10.898  0.0170 -0.8808  0.8513
  893MOL0     C17748   2.312   8.799  10.835 -0.6272  0.6747  0.1263
  893MOL0     C17749   2.289   8.826  10.703  0.1522 -0.2506 -0.5198
  893MOL0     C17750   2.161   8.845  10.653 -0.8500 -0.1108  0.1531
  893MOL0     C17751   2.056   8.822  10.738 -0.0102 -0.1727 -0.0331
  893MOL0     O17752   1.928   8.840  10.708  0.4280 -0.6226  0.2382
  893MOL0     C17753   1.886   8.837  10.572  0.9016 -0.0073  0.2234
  893MOL0     C17754   1.742   8.842  10.557  0.6923  0.0016  0.3215
  893MOL0     C17755   1.669   8.971  10.510 -0.4282 -0.2389 -0.3955
  893MOL0     C17756   1.668   9.083  10.620 -0.1445 -0.4352 -0.1267
  893MOL0     C17757   1.606   9.225  10.586 -0.1910 -0.2526  1.3158
  893MOL0     C17758   1.661   9.275  10.448 -0.6442  0.4180  0.0635
  893MOL0     C17759   1.808   9.299  10.442 -0.7896  0.4320  0.1756
  893MOL0     C17760   1.856   9.411  10.545 -0.3891  0.3565  0.6280
  893MOL0     N17761   1.909   9.361  10.669 -0.1762  0.1271 -0.7452
  893MOL0     C17762   2.007   9.263  10.684 -0.4999 -0.8792  0.5150
  893MOL0     C17763   2.030   9.247  10.814 -0.7362 -0.0181  0.6565
  893MOL0     C17764   2.122   9.150  10.884  0.8544 -0.4765  0.1902
  893MOL0     C17765   2.267   9.194  10.874 -0.4092  0.3873 -0.0856
  893MOL0     C17766   2.295   9.313  10.960  0.3938  0.3920  0.0528
  893MOL0     C17767   2.445   9.329  10.976 -1.1004 -0.1683 -0.1700
  893MOL0     O17768   2.500   9.236  11.072 -0.4533 -0.3160 -0.0291
  893MOL0     C17769   2.635   9.230  11.086  0.3253 -0.6127 -0.1471
  893MOL0     C17770   2.700   9.109  11.132  0.3026 -0.2312  0.6949
  893MOL0     C17771   2.837   9.103  11.158 -0.1822 -0.1148  0.0822
  893MOL0     C17772   2.915   9.215  11.161 -0.2605 -0.8963  0.0651
  893MOL0     C17773   3.056   9.208  11.201  0.7788  0.1450  0.3109
  893MOL0     O17774   3.116   9.330  11.190 -0.4080 -0.5027  0.3365
  893MOL0     C17775   3.248   9.350  11.241  0.0592 -0.4244  0.3230
  893MOL0     C17776   3.338   9.442  11.178  0.1669 -0.7273  0.4594
  893MOL0     C17777   3.469   9.465  11.226  0.1577  0.7431  0.3331
  893MOL0     C17778   3.526   9.395  11.320 -0.2880  0.2530 -0.9647
  893MOL0     O17779   3.662   9.393  11.352  0.5059 -0.1699  0.0609
  893MOL0     C17780   3.730   9.305  11.446 -0.4097  0.5770 -0.7310
  893MOL0     C17781   3.877   9.334  11.451  0.1797 -0.6543 -0.5356
  893MOL0     C17782   3.927   9.333  11.601  0.3818  0.5551  0.9237
  893MOL0     C17783   4.078   9.338  11.611  0.0549  0.9767 -0.0894
  893MOL0     C17784   4.122   9.278  11.745  1.1389  0.2123 -0.0292
  893MOL0     C17785   4.272   9.295  11.765  0.3751 -0.1086 -0.1171
  893MOL0     C17786   4.304   9.202  11.876 -0.1544  0.4416 -0.9677
  893MOL0     C17787   4.446   9.212  11.931  0.0696 -0.6971  0.2199
  893MOL0    Cl17788   4.482   9.072  12.038 -0.2535  0.2984  0.5958
  893MOL0     C17789   3.441   9.304  11.383  0.2480  0.6092 -0.3616
  893MOL0     C17790   3.303   9.294  11.361  0.0358  0.9709  0.3668
  893MOL0     O17791   3.108   9.099  11.224  0.1959 -0.3691 -0.4942
  893MOL0     C17792   2.851   9.347  11.119  0.2439  0.6372  0.6853
  893MOL0     C17793   2.716   9.350  11.084 -0.2680  0.6946 -0.4732
  893MOL0     N17794   1.943   9.335  10.873 -0.3916 -0.4040 -0.5502
  893MOL0     N17795   1.875   9.403  10.792 -0.6595 -0.1286  0.7400
  893MOL0     C17796   2.071   8.775  10.863  0.3466  0.0021 -0.3656
  893MOL0     C17797   2.201   8.766  10.914 -0.4614 -0.4926 -0.0649
  893MOL0     C17798   2.671   8.812  10.920  0.2304 -0.4795 -0.2201
  893MOL0     C17799   2.796   8.869  10.877  0.5581 -0.3141 -0.8291
  893MOL0     C17800   2.920   8.837  10.934 -0.4672  0.3822 -0.0808
  893MOL0     C17801   2.931   8.740  11.036  0.4671 -0.5008 -0.3573
  893MOL0     O17802   3.038   8.695  11.110  0.1258 -0.1272  0.2605
  893MOL0     C17803   3.169   8.748  11.077 -0.2199  0.0267  0.1429
  893MOL0     C17804   3.288   8.665  11.133 -0.3618  0.2255  0.3018
  893MOL0     C17805   3.290   8.655  11.285  0.1648 -0.1607  0.3899
  893MOL0     C17806   3.273   8.790  11.356  0.2798 -0.4216  0.8220
  893MOL0     C17807   3.399   8.872  11.343  0.4782  0.2913  0.8694
  893MOL0     C17808   3.495   8.932  11.314 -0.2064 -0.0584 -0.2147
  893MOL0     C17809   2.806   8.688  11.076 -0.5555  0.7578 -0.6353
  893MOL0     C17810   2.681   8.720  11.023 -1.0516  0.4833  0.6331
  893MOL0     H17811   2.366   8.823  10.627 -0.0716  1.6222 -0.8577
  893MOL0     H17812   2.141   8.883  10.553 -1.4784  1.6005  0.8886
  893MOL0     H17813   1.922   8.743  10.529 -0.4197 -0.3693 -0.1508
  893MOL0     H17814   1.927   8.922  10.517 -1.7968 -0.7106 -3.2413
  893MOL0     H17815   1.696   8.819  10.654 -1.0395 -0.5081 -0.5772
  893MOL0     H17816   1.720   8.764  10.483 -0.4678 -1.0119  1.6678
  893MOL0     H17817   1.567   8.937  10.495 -0.2150 -0.0512 -2.5248
  893MOL0     H17818   1.716   9.011  10.420  0.0965 -0.7681 -0.3625
  893MOL0     H17819   1.601   9.042  10.696 -1.1424  1.1056 -0.1234
  893MOL0     H17820   1.768   9.106  10.659 -0.1542 -2.2303  1.0398
  893MOL0     H17821   1.620   9.297  10.667  2.2029 -1.2752  1.9083
  893MOL0     H17822   1.498   9.214  10.573 -0.4800  2.3015  1.0280
  893MOL0     H17823   1.608   9.365  10.416 -0.5955  0.2997 -0.3501
  893MOL0     H17824   1.637   9.209  10.364 -1.9994  1.0871 -0.1085
  893MOL0     H17825   1.867   9.208  10.452  1.9926  1.7402 -2.7128
  893MOL0     H17826   1.825   9.332  10.340  0.3046 -1.6779 -0.3796
  893MOL0     H17827   1.788   9.496  10.560  0.0847  1.2207 -1.6886
  893MOL0     H17828   1.936   9.468  10.496  1.2491 -2.4426 -0.1588
  893MOL0     H17829   2.054   9.200  10.609  0.0536 -0.7589  0.7547
  893MOL0     H17830   2.101   9.047  10.853  1.2502 -0.2765 -0.7852
  893MOL0     H17831   2.090   9.164  10.987  1.1569  0.9192  0.1061
  893MOL0     H17832   2.297   9.200  10.769  0.1557 -1.1602 -0.0401
  893MOL0     H17833   2.333   9.116  10.913  0.8695  1.5898  0.2534
  893MOL0     H17834   2.248   9.404  10.921 -4.4093 -1.3288  1.0326
  893MOL0     H17835   2.254   9.307  11.062 -0.4711  0.1852 -0.2989
  893MOL0     H17836   2.459   9.432  11.009 -1.9320 -0.1359  0.1123
  893MOL0     H17837   2.500   9.326  10.881  1.5981  1.6975  1.2036
  893MOL0     H17838   2.633   9.024  11.145 -1.4176  0.8233 -0.6690
  893MOL0     H17839   2.871   9.001  11.167 -1.3125 -0.8164 -2.6524
  893MOL0     H17840   3.302   9.502  11.095 -2.0836  1.3057  2.7284
  893MOL0     H17841   3.538   9.529  11.172 -0.6878  0.6138 -0.9493
  893MOL0     H17842   3.712   9.198  11.431 -0.5186  0.5370 -0.3126
  893MOL0     H17843   3.683   9.314  11.544  2.8111 -0.8760  1.1165
  893MOL0     H17844   3.900   9.436  11.419  0.9627 -0.4976  0.4810
  893MOL0     H17845   3.935   9.263  11.391 -0.2768 -0.1488 -1.6126
  893MOL0     H17846   3.886   9.240  11.641  0.4321  1.5659  3.5418
  893MOL0     H17847   3.876   9.417  11.649  0.8911  3.4016 -3.0076
  893MOL0     H17848   4.124   9.285  11.528 -2.7206  2.1088 -2.5180
  893MOL0     H17849   4.100   9.445  11.614 -0.9380  1.1861  2.9502
  893MOL0     H17850   4.093   9.172  11.745  0.6705  0.1580 -4.4289
  893MOL0     H17851   4.073   9.328  11.829  1.8055  2.2604 -0.8052
  893MOL0     H17852   4.289   9.402  11.784 -0.7427  0.6080 -2.6589
  893MOL0     H17853   4.333   9.265  11.680 -0.0422 -2.3300  0.3198
  893MOL0     H17854   4.237   9.215  11.962 -0.7161  2.8055 -1.6896
  893MOL0     H17855   4.291   9.100  11.838  2.0194  0.3775 -1.6609
  893MOL0     H17856   4.453   9.301  11.994  0.5452 -2.6125  3.0681
  893MOL0     H17857   4.513   9.218  11.844  2.4743  3.1194  2.0643
  893MOL0     H17858   3.479   9.238  11.460  0.4655  0.3645 -0.6774
  893MOL0     H17859   3.241   9.234  11.428 -1.4684  2.4938  0.4128
  893MOL0     H17860   2.903   9.441  11.133 -1.2058  1.7810 -1.1619
  893MOL0     H17861   2.663   9.445  11.078 -1.3157  0.2779  1.3689
  893MOL0     H17862   1.982   8.779  10.924  1.5013  0.2799  1.3692
  893MOL0     H17863   2.233   8.748  11.016 -0.0022 -1.7677 -0.4246
  893MOL0     H17864   2.790   8.932  10.789 -0.1086 -1.9931 -2.0612
  893MOL0     H17865   3.016   8.879  10.903  0.5627  1.4691  3.9523
  893MOL0     H17866   3.166   8.850  11.116 -0.7092 -0.2387  0.8287
  893MOL0     H17867   3.185   8.752  10.969  1.8133  0.6163  0.4304
  893MOL0     H17868   3.281   8.562  11.098 -1.8424  0.4408 -0.1058
  893MOL0     H17869   3.386   8.702  11.100 -0.0029  0.2775  1.3885
  893MOL0     H17870   3.381   8.604  11.318  0.7707  1.0564  0.6584
  893MOL0     H17871   3.203   8.593  11.309  1.4523 -2.4095 -0.3696
  893MOL0     H17872   3.186   8.847  11.322 -1.4400 -2.6527  1.2624
  893MOL0     H17873   3.268   8.778  11.464  1.4044  2.5417  1.2947
  893MOL0     H17874   3.587   8.976  11.280  0.5474  0.7316  2.6235
  893MOL0     H17875   2.809   8.616  11.157 -2.2549 -0.4384 -1.5861
  893MOL0     H17876   2.598   8.660  11.061 -0.4259 -1.8165 -1.3731
  894MOL0     O17877   6.235   8.332   4.433  0.0767  0.3241  0.3083
  894MOL0     C17878   6.185   8.279   4.329 -0.0695 -0.0231 -0.3180
  894MOL0     O17879   6.217   8.158   4.265 -0.1226  0.0955  0.4435
  894MOL0     C17880   6.345   8.119   4.304  0.6106 -0.3844 -0.8536
  894MOL0     C17881   6.451   8.179   4.239 -0.0225 -0.7593 -0.3968
  894MOL0     C17882   6.582   8.143   4.273 -0.1589  0.0605  0.1872
  894MOL0     C17883   6.606   8.042   4.367 -0.4307 -0.3095  0.1424
  894MOL0     O17884   6.738   8.005   4.378 -0.3955 -0.1523 -0.5190
  894MOL0     C17885   6.787   7.923   4.491 -0.0343  1.0044  0.5879
  894MOL0     C17886   6.804   7.998   4.621  0.5642  0.0996 -0.4332
  894MOL0     C17887   6.938   8.074   4.618  0.4128  0.1270 -1.1696
  894MOL0     C17888   6.996   8.123   4.754  0.5273  0.3285  0.1634
  894MOL0     C17889   7.040   8.013   4.849  0.5810 -0.0835  0.1315
  894MOL0     C17890   7.056   8.080   4.984  0.3003  0.6305 -0.4742
  894MOL0     C17891   7.108   7.961   5.076  0.2851  0.0894  0.3944
  894MOL0     C17892   7.100   7.992   5.229  0.6914 -0.2197 -1.2019
  894MOL0     N17893   6.964   7.977   5.282  0.2017 -1.1109  0.3057
  894MOL0     C17894   6.872   8.078   5.319 -0.0526  0.1870 -0.0310
  894MOL0     C17895   6.756   8.010   5.346 -0.1093  1.0027  0.2741
  894MOL0     C17896   6.631   8.073   5.395  0.3351  0.0623  0.0911
  894MOL0     C17897   6.539   8.090   5.277  0.5344 -0.3278  0.1501
  894MOL0     C17898   6.400   8.134   5.327 -1.1797  0.5651  0.9392
  894MOL0     C17899   6.399   8.286   5.375 -0.0394  0.3278  0.7723
  894MOL0     O17900   6.483   8.372   5.302 -1.0307 -0.3607  0.2192
  894MOL0     C17901   6.444   8.444   5.192 -1.0795 -0.2054 -0.0103
  894MOL0     C17902   6.322   8.420   5.128 -0.0769  0.1790 -0.3023
  894MOL0     C17903   6.287   8.489   5.012 -0.0417  0.1846 -0.1516
  894MOL0     C17904   6.381   8.584   4.958 -0.0942  0.9929 -0.1381
  894MOL0     C17905   6.353   8.662   4.836 -0.7233  0.0989  0.3689
  894MOL0     O17906   6.224   8.689   4.816  0.6043  0.0733  0.1051
  894MOL0     C17907   6.168   8.748   4.707  0.0974  0.0725  0.2665
  894MOL0     C17908   6.058   8.825   4.724 -0.3164  0.1788 -1.1983
  894MOL0     C17909   5.993   8.886   4.620 -0.3750 -0.8978  0.5366
  894MOL0     C17910   6.042   8.867   4.489  0.8681 -0.1389 -0.2671
  894MOL0     O17911   5.957   8.924   4.395  0.3603  0.1476 -0.5316
  894MOL0     C17912   6.014   8.929   4.264 -1.3350  0.7082  1.1671
  894MOL0     C17913   5.913   8.989   4.168 -0.3353 -1.0242 -0.4515
  894MOL0     C17914   5.957   8.968   4.026  0.2719  0.0223 -0.1131
  894MOL0     C17915   5.857   9.007   3.906 -0.3168  0.4711  0.2080
  894MOL0     C17916   5.753   8.902   3.886  0.2347  0.3651 -0.4690
  894MOL0     C17917   5.683   8.911   3.750  0.0845 -0.2080  0.5615
  894MOL0     C17918   5.536   8.850   3.735  0.5307  0.4601  0.5409
  894MOL0     C17919   5.428   8.954   3.781 -0.0252 -0.4158  0.2965
  894MOL0    Cl17920   5.406   9.066   3.642  0.0479  0.2084 -0.0742
  894MOL0     C17921   6.161   8.792   4.466 -0.8038 -0.4897 -1.3276
  894MOL0     C17922   6.219   8.732   4.577 -1.1242 -0.1263 -0.6013
  894MOL0     O17923   6.439   8.698   4.763 -0.7195 -0.5425  0.1013
  894MOL0     C17924   6.502   8.605   5.024  0.0008  0.5136 -0.3612
  894MOL0     C17925   6.529   8.540   5.147  0.6644  0.2655 -0.1072
  894MOL0     N17926   6.789   7.876   5.348 -0.4317 -0.4869 -0.6421
  894MOL0     N17927   6.907   7.853   5.309  0.0702 -1.4552 -0.2733
  894MOL0     C17928   6.501   7.986   4.438 -0.2747 -0.1617  0.2926
  894MOL0     C17929   6.368   8.018   4.402 -0.2849  0.0510  0.4658
  894MOL0     C17930   6.067   8.340   4.271  0.2689  0.2029 -0.1966
  894MOL0     C17931   5.996   8.277   4.171  0.1528  0.3736  0.4610
  894MOL0     C17932   5.881   8.323   4.110  0.2517 -0.1006 -0.2159
  894MOL0     C17933   5.834   8.448   4.143  0.4394 -0.6155  0.3221
  894MOL0     O17934   5.720   8.483   4.085  0.0619 -0.2262  0.1549
  894MOL0     C17935   5.642   8.586   4.154  1.2270 -0.6221  0.3109
  894MOL0     C17936   5.500   8.588   4.094 -0.2626 -0.4461  0.5971
  894MOL0     C17937   5.421   8.701   4.166 -0.0934  0.0880 -0.0045
  894MOL0     C17938   5.272   8.702   4.132 -0.3960 -0.6682 -0.3351
  894MOL0     C17939   5.202   8.571   4.127  0.8621 -0.8413 -0.9059
  894MOL0     C17940   5.128   8.471   4.138  0.1139  0.1960 -0.4002
  894MOL0     C17941   5.900   8.522   4.245  1.0901 -0.1756 -0.1452
  894MOL0     C17942   6.017   8.468   4.302 -0.2762 -1.2316  0.6600
  894MOL0     H17943   6.433   8.261   4.170 -0.8833  1.4749  2.3010
  894MOL0     H17944   6.664   8.192   4.220  1.2225 -2.8742 -0.6309
  894MOL0     H17945   6.885   7.886   4.461  0.8311  3.1740  0.5816
  894MOL0     H17946   6.724   7.835   4.510 -2.2954  2.5599  0.7388
  894MOL0     H17947   6.811   7.928   4.704 -0.6482  1.0837  0.5478
  894MOL0     H17948   6.718   8.062   4.643 -1.2824 -2.4944  0.3458
  894MOL0     H17949   6.930   8.155   4.544 -0.4732  0.1191 -1.0944
  894MOL0     H17950   7.010   8.007   4.571 -0.8820 -1.0678 -1.5380
  894MOL0     H17951   7.084   8.186   4.741 -0.7762  2.0876 -0.4299
  894MOL0     H17952   6.919   8.194   4.785  0.8681  2.5032 -3.4420
  894MOL0     H17953   7.137   7.968   4.830  1.5247  1.1388  1.8011
  894MOL0     H17954   6.980   7.922   4.852  1.2166 -0.5098  3.4820
  894MOL0     H17955   6.955   8.100   5.022  0.7225 -2.3237  2.6691
  894MOL0     H17956   7.116   8.172   4.983  1.8368 -0.1854  2.6645
  894MOL0     H17957   7.041   7.877   5.054 -1.2700  1.3486  0.0937
  894MOL0     H17958   7.213   7.942   5.053  0.7538  0.9093  1.7572
  894MOL0     H17959   7.142   8.091   5.251 -1.3475  0.4260 -0.0530
  894MOL0     H17960   7.167   7.916   5.271  0.6395  0.1485 -0.4472
  894MOL0     H17961   6.875   8.185   5.301 -0.5764  0.1399 -0.4243
  894MOL0     H17962   6.660   8.167   5.444  3.6932 -1.1200  0.5838
  894MOL0     H17963   6.590   7.991   5.454 -1.3006 -0.6920 -1.9693
  894MOL0     H17964   6.529   7.992   5.228  4.3978 -1.4376  1.1908
  894MOL0     H17965   6.581   8.158   5.203 -2.3411 -1.2977 -2.5723
  894MOL0     H17966   6.329   8.114   5.246 -1.1890 -0.8552  1.2837
  894MOL0     H17967   6.370   8.068   5.409 -0.3263 -1.6825 -0.4733
  894MOL0     H17968   6.428   8.293   5.480  0.8762  1.5367  0.4632
  894MOL0     H17969   6.295   8.321   5.374  0.1216  0.9541  2.4597
  894MOL0     H17970   6.261   8.336   5.159  0.0784  0.1816  0.0143
  894MOL0     H17971   6.204   8.456   4.951  0.2042 -1.5742  0.4220
  894MOL0     H17972   6.008   8.843   4.819 -2.0497  3.0197 -2.5182
  894MOL0     H17973   5.898   8.933   4.642  0.2999  0.2298  1.0704
  894MOL0     H17974   6.045   8.830   4.228  3.6458  1.3584  2.9356
  894MOL0     H17975   6.094   9.003   4.259  0.0844 -0.8326 -1.4278
  894MOL0     H17976   5.896   9.093   4.197 -0.5292 -1.0267 -0.5545
  894MOL0     H17977   5.816   8.940   4.185 -0.4565 -0.6670 -0.0981
  894MOL0     H17978   5.986   8.862   4.024 -1.1960 -0.4964  2.4836
  894MOL0     H17979   6.043   9.033   4.007  0.3572 -0.6785 -2.6139
  894MOL0     H17980   5.805   9.100   3.930 -0.6679  0.2128  0.4577
  894MOL0     H17981   5.906   9.028   3.811 -0.9241 -1.3011 -0.5317
  894MOL0     H17982   5.678   8.911   3.965 -0.9176  0.5152 -1.5548
  894MOL0     H17983   5.798   8.802   3.883  1.4614  0.9222 -2.0338
  894MOL0     H17984   5.739   8.850   3.679  0.2262  1.6083 -0.9538
  894MOL0     H17985   5.693   9.013   3.711  1.8441  0.3842  2.3825
  894MOL0     H17986   5.518   8.824   3.630 -0.5250 -1.4434  1.1547
  894MOL0     H17987   5.517   8.759   3.792  1.8924 -1.1102 -1.3423
  894MOL0     H17988   5.456   9.003   3.875  1.0405 -1.2843  0.4498
  894MOL0     H17989   5.334   8.903   3.804 -0.0296  0.4728  2.4671
  894MOL0     H17990   6.210   8.776   4.371  3.7318 -1.6674  0.9141
  894MOL0     H17991   6.315   8.685   4.559  0.5040  2.0615  1.6676
  894MOL0     H17992   6.564   8.684   4.982 -1.8167  1.0380 -2.1831
  894MOL0     H17993   6.620   8.561   5.203  0.3668 -1.0313  0.9093
  894MOL0     H17994   6.522   7.912   4.514  0.6087 -1.6168 -1.2967
  894MOL0     H17995   6.282   7.973   4.451 -0.0331 -3.5286 -1.9839
  894MOL0     H17996   6.026   8.179   4.134  0.3692  2.0190 -4.3447
  894MOL0     H17997   5.826   8.254   4.047 -0.6566  0.0418  0.3992
  894MOL0     H17998   5.683   8.684   4.130 -0.5407  0.0025 -0.3249
  894MOL0     H17999   5.640   8.568   4.262 -0.9845 -1.8323  0.1190
  894MOL0     H18000   5.515   8.598   3.986 -0.8380  1.1740  0.6504
  894MOL0     H18001   5.453   8.491   4.114  0.6764 -1.3764 -1.4529
  894MOL0     H18002   5.454   8.796   4.122 -1.2775 -0.6655 -2.7215
  894MOL0     H18003   5.438   8.689   4.273 -0.6553 -3.5966 -0.1806
  894MOL0     H18004   5.224   8.764   4.208  1.8426  0.3418  0.3289
  894MOL0     H18005   5.251   8.755   4.038 -1.6785 -1.4855 -0.5414
  894MOL0     H18006   5.062   8.387   4.146  2.1130 -1.5048 -0.9167
  894MOL0     H18007   5.861   8.613   4.287 -2.5382 -1.1728 -1.0127
  894MOL0     H18008   6.065   8.522   4.383  0.3909  0.4991 -0.8254
  895MOL0     O18009   0.487   9.019   0.849  0.0847  0.0208  0.6755
  895MOL0     C18010   0.596   9.073   0.873  0.6929 -0.3731  0.1155
  895MOL0     O18011   0.690   9.101   0.781  0.4286 -0.3839  0.6485
  895MOL0     C18012   0.701   9.022   0.673  0.6983  0.3900 -0.3808
  895MOL0     C18013   0.811   8.930   0.667  0.5493 -0.8201  0.4921
  895MOL0     C18014   0.841   8.857   0.556  0.0228  0.2020  0.2380
  895MOL0     C18015   0.752   8.849   0.454  0.5496 -0.7342 -0.4965
  895MOL0     O18016   0.776   8.762   0.350  0.6104  0.4750 -0.3301
  895MOL0     C18017   0.827   8.634   0.383 -0.9620  0.4182 -0.4949
  895MOL0     C18018   0.808   8.540   0.260 -0.2572  0.2190 -0.2824
  895MOL0     C18019   0.669   8.556   0.200  0.1786 -0.5313  0.7425
  895MOL0     C18020   0.643   8.440   0.100 -0.2384 -0.1695 -0.0160
  895MOL0     C18021   0.493   8.445   0.050 -0.4359  0.1390 -0.5769
  895MOL0     C18022   0.484   8.322  -0.034 -0.2712  0.3192  0.4311
  895MOL0     C18023   0.343   8.327  -0.103  0.5296 -0.4064  0.0927
  895MOL0     C18024   0.219   8.333  -0.008 -0.1983 -0.3148 -0.3159
  895MOL0     N18025   0.099   8.282  -0.067 -0.1085  0.4680  1.1995
  895MOL0     C18026   0.016   8.355  -0.154  0.3293  0.0884  0.3278
  895MOL0     C18027  -0.054   8.256  -0.211 -0.4346  0.6888 -1.1333
  895MOL0     C18028  -0.167   8.269  -0.310 -0.0071  0.3678  0.3284
  895MOL0     C18029  -0.292   8.293  -0.234  0.0058  0.3809  0.3154
  895MOL0     C18030  -0.412   8.264  -0.335  0.5315 -1.0186 -0.3741
  895MOL0     C18031  -0.426   8.121  -0.387 -0.2026  0.3218  1.0578
  895MOL0     O18032  -0.445   8.026  -0.287  0.5745 -0.2050  0.3636
  895MOL0     C18033  -0.345   7.930  -0.281  0.3266 -0.5888 -0.1273
  895MOL0     C18034  -0.330   7.838  -0.378  0.3379  0.0750 -0.1959
  895MOL0     C18035  -0.236   7.735  -0.377 -0.2727 -0.5452  0.4428
  895MOL0     C18036  -0.136   7.739  -0.275  0.2748 -0.3682  0.3571
  895MOL0     C18037  -0.036   7.642  -0.279  0.0646 -0.0498  0.5119
  895MOL0     O18038  -0.077   7.510  -0.316 -0.9651 -0.4089 -0.1510
  895MOL0     C18039   0.020   7.408  -0.343  0.4761 -0.5886 -0.4930
  895MOL0     C18040   0.009   7.287  -0.272 -0.1283 -0.0250 -0.3769
  895MOL0     C18041   0.099   7.186  -0.278 -0.0225 -0.0427 -0.1755
  895MOL0     C18042   0.213   7.205  -0.362  0.8315 -0.0408 -0.5942
  895MOL0     O18043   0.317   7.111  -0.360  0.5205  0.0499 -0.6028
  895MOL0     C18044   0.278   6.969  -0.336 -0.0179 -1.1523 -1.3433
  895MOL0     C18045   0.400   6.887  -0.367 -0.7807  0.4780  0.4190
  895MOL0     C18046   0.516   6.904  -0.265 -0.1095  0.9284 -0.0670
  895MOL0     C18047   0.640   6.831  -0.309  0.6145  0.0611  0.0463
  895MOL0     C18048   0.764   6.880  -0.232  0.2715 -0.5101  0.8511
  895MOL0     C18049   0.772   6.834  -0.083  0.1536 -1.1340 -0.3157
  895MOL0     C18050   0.917   6.860  -0.029 -0.8533 -0.0399 -0.2582
  895MOL0     C18051   0.946   7.009  -0.019 -0.1075  0.0994  0.1299
  895MOL0    Cl18052   0.832   7.090   0.094  0.4482 -0.4380  0.0941
  895MOL0     C18053   0.225   7.319  -0.432  0.2223 -0.1673 -0.1924
  895MOL0     C18054   0.136   7.431  -0.420  0.2840  0.1128  0.3096
  895MOL0     O18055   0.080   7.675  -0.250  0.3306  0.0652  0.4328
  895MOL0     C18056  -0.151   7.827  -0.178  1.0651  0.2707 -0.6384
  895MOL0     C18057  -0.258   7.922  -0.178  0.1910 -0.1287  0.6339
  895MOL0     N18058  -0.017   8.128  -0.172  0.3483  0.3176  0.2253
  895MOL0     N18059   0.076   8.141  -0.086 -0.0679  0.7489 -0.3735
  895MOL0     C18060   0.637   8.929   0.463 -0.1110 -0.2821  0.3490
  895MOL0     C18061   0.609   9.021   0.562  0.1271 -0.1911 -0.2745
  895MOL0     C18062   0.636   9.096   1.018 -0.2361 -0.0303  0.0133
  895MOL0     C18063   0.543   9.066   1.117  0.0210 -0.5076 -0.1762
  895MOL0     C18064   0.576   9.073   1.254 -0.0035 -0.5576 -0.1024
  895MOL0     C18065   0.703   9.122   1.294 -0.1579 -0.8889  0.2239
  895MOL0     O18066   0.735   9.129   1.429  0.0738  0.5201  0.6419
  895MOL0     C18067   0.850   9.192   1.485 -0.4835 -1.1990  0.7763
  895MOL0     C18068   0.811   9.264   1.618  0.2892 -0.0295  0.5337
  895MOL0     C18069   0.722   9.384   1.608 -0.2346 -0.2120  0.2313
  895MOL0     C18070   0.578   9.349   1.597 -0.0339  0.1595  0.8855
  895MOL0     C18071   0.489   9.459   1.577  0.9068 -0.1344 -0.5507
  895MOL0     C18072   0.423   9.556   1.549  0.7390 -1.2216 -0.8632
  895MOL0     C18073   0.801   9.146   1.189 -0.2865  0.0903 -0.4134
  895MOL0     C18074   0.764   9.140   1.058  0.2725  0.0205  0.8140
  895MOL0     H18075   0.887   8.932   0.745  0.9894 -1.3331  0.0841
  895MOL0     H18076   0.940   8.812   0.543  0.4022  1.1513 -0.2390
  895MOL0     H18077   0.778   8.587   0.469  2.1614  0.5336  1.4973
  895MOL0     H18078   0.933   8.630   0.409 -0.2378 -3.0256 -3.2039
  895MOL0     H18079   0.824   8.437   0.293 -0.4045  0.4279  0.4612
  895MOL0     H18080   0.890   8.566   0.192  0.9436 -3.5902 -0.4935
  895MOL0     H18081   0.647   8.651   0.152 -0.7500 -2.0529 -2.1089
  895MOL0     H18082   0.595   8.546   0.280  0.3993  0.3852  1.0709
  895MOL0     H18083   0.710   8.448   0.014  1.2340 -0.8765  1.0123
  895MOL0     H18084   0.677   8.346   0.145  2.1840  1.0930  0.9276
  895MOL0     H18085   0.480   8.539  -0.005  0.6445  0.4024 -0.4078
  895MOL0     H18086   0.416   8.432   0.126  1.2269  1.1832  1.3947
  895MOL0     H18087   0.493   8.227   0.020 -0.3862  0.0647  0.0053
  895MOL0     H18088   0.560   8.310  -0.112  0.1683 -2.7551  1.2065
  895MOL0     H18089   0.334   8.422  -0.155  0.2935 -0.6243 -0.2683
  895MOL0     H18090   0.337   8.251  -0.181  1.0099 -0.2871 -0.0639
  895MOL0     H18091   0.201   8.437   0.022  1.2466 -0.0445 -0.3236
  895MOL0     H18092   0.241   8.275   0.082 -0.0381 -2.6043 -1.7537
  895MOL0     H18093   0.024   8.462  -0.169 -0.8231  0.0359 -0.8128
  895MOL0     H18094  -0.175   8.182  -0.377 -1.4840  1.5733 -1.1424
  895MOL0     H18095  -0.156   8.349  -0.384  0.9767 -2.0117 -2.3073
  895MOL0     H18096  -0.284   8.396  -0.198  2.1786  0.5037 -0.3754
  895MOL0     H18097  -0.301   8.225  -0.149 -0.5464 -0.9699 -0.7880
  895MOL0     H18098  -0.506   8.293  -0.285  0.3602 -0.9863 -0.7118
  895MOL0     H18099  -0.421   8.322  -0.427 -2.2182  1.1024  1.0519
  895MOL0     H18100  -0.340   8.086  -0.444 -0.4232  1.2981  0.0874
  895MOL0     H18101  -0.510   8.126  -0.458  1.0634 -0.4544 -0.5711
  895MOL0     H18102  -0.402   7.832  -0.459  1.7772  1.0090 -1.6027
  895MOL0     H18103  -0.229   7.652  -0.445  1.5010  0.0286 -0.1189
  895MOL0     H18104  -0.070   7.273  -0.198  0.3792 -0.2127  0.1383
  895MOL0     H18105   0.074   7.087  -0.242 -0.6076 -0.2515 -1.1213
  895MOL0     H18106   0.195   6.946  -0.404 -0.7504  2.4991 -1.9336
  895MOL0     H18107   0.253   6.940  -0.234 -0.6692  0.9772 -0.8438
  895MOL0     H18108   0.439   6.905  -0.468 -1.1495 -0.9767 -0.0212
  895MOL0     H18109   0.374   6.781  -0.374  1.2619 -0.0247 -0.3185
  895MOL0     H18110   0.478   6.872  -0.167 -0.6691  0.9745 -0.2666
  895MOL0     H18111   0.548   7.008  -0.249  1.7336  0.2944  0.6403
  895MOL0     H18112   0.627   6.722  -0.307  2.5064 -0.3121 -2.3798
  895MOL0     H18113   0.653   6.857  -0.415  2.6726 -0.2643  0.1842
  895MOL0     H18114   0.768   6.989  -0.236  0.3805 -0.5336  0.0154
  895MOL0     H18115   0.856   6.841  -0.277  0.0695  1.1804 -1.1746
  895MOL0     H18116   0.753   6.726  -0.080 -2.9615 -0.6762  0.8631
  895MOL0     H18117   0.698   6.871  -0.011  2.3135  0.9550  0.9542
  895MOL0     H18118   0.941   6.828   0.073  3.0489  2.8292 -0.0302
  895MOL0     H18119   0.993   6.823  -0.098 -1.4630 -2.0995  0.1153
  895MOL0     H18120   0.946   7.055  -0.119  1.8117 -0.3525 -0.1149
  895MOL0     H18121   1.049   7.026   0.015 -0.5766 -0.9025  2.1722
  895MOL0     H18122   0.324   7.333  -0.473  0.5508 -0.1933  0.5753
  895MOL0     H18123   0.166   7.520  -0.474  1.5430 -1.9098 -2.5839
  895MOL0     H18124  -0.081   7.820  -0.095 -0.8051 -2.0002  0.9135
  895MOL0     H18125  -0.250   7.997  -0.100  1.2557  0.7324 -0.2609
  895MOL0     H18126   0.569   8.930   0.378  0.9481  2.0781 -0.5728
  895MOL0     H18127   0.525   9.089   0.574  1.2376  1.3934 -1.0364
  895MOL0     H18128   0.441   9.034   1.096 -1.3683  0.2961  4.3376
  895MOL0     H18129   0.505   9.052   1.333 -1.5974  0.6334 -1.1457
  895MOL0     H18130   0.888   9.268   1.416 -1.6180  0.6988  2.1582
  895MOL0     H18131   0.931   9.122   1.509 -0.2499 -1.0035  0.5686
  895MOL0     H18132   0.781   9.188   1.691 -2.8687 -1.2994 -1.8452
  895MOL0     H18133   0.910   9.304   1.642 -0.9019  2.6388  1.3453
  895MOL0     H18134   0.744   9.438   1.515 -1.0780 -0.7303 -0.2843
  895MOL0     H18135   0.742   9.456   1.688 -2.5668  1.2401 -0.3762
  895MOL0     H18136   0.572   9.292   1.504  1.2874  1.5233 -0.0739
  895MOL0     H18137   0.551   9.289   1.684 -3.3270 -0.6372 -0.5611
  895MOL0     H18138   0.379   9.649   1.521  1.1779 -0.7047  0.1072
  895MOL0     H18139   0.894   9.198   1.206 -0.4000  0.3082 -0.4590
  895MOL0     H18140   0.833   9.158   0.975 -2.5490 -0.7298 -1.8908
  896MOL0     O18141   3.302   2.771  11.082  0.5975  0.5314  0.4215
  896MOL0     C18142   3.268   2.826  11.190 -0.1746 -0.0465  0.5967
  896MOL0     O18143   3.356   2.892  11.272  0.4535  0.0975  0.6851
  896MOL0     C18144   3.483   2.912  11.224 -0.4518 -0.1120  0.0618
  896MOL0     C18145   3.564   2.802  11.174 -0.6610 -1.7494  0.1410
  896MOL0     C18146   3.689   2.827  11.111 -1.3103  0.1759 -0.0851
  896MOL0     C18147   3.736   2.957  11.103 -0.3798  0.0449  0.2906
  896MOL0     O18148   3.862   2.961  11.050 -0.3298 -0.1894  0.0205
  896MOL0     C18149   3.902   3.086  10.997 -0.4342  0.2428 -0.1793
  896MOL0     C18150   4.036   3.075  10.931 -0.6840  0.2514  0.5452
  896MOL0     C18151   4.161   3.109  11.014  0.6601  0.7758  0.1383
  896MOL0     C18152   4.281   3.148  10.927  0.2099  0.2568  1.0634
  896MOL0     C18153   4.392   3.206  11.010  0.1624 -0.0495 -0.3383
  896MOL0     C18154   4.470   3.309  10.921  0.9512 -0.0150  0.1175
  896MOL0     C18155   4.585   3.373  10.997 -0.2426 -0.6462  0.6787
  896MOL0     C18156   4.598   3.517  10.944  0.2995 -0.9019 -0.2619
  896MOL0     N18157   4.609   3.542  10.797 -0.3578 -0.4145 -0.1515
  896MOL0     C18158   4.701   3.479  10.714  0.3259 -0.6176  0.7871
  896MOL0     C18159   4.680   3.538  10.590 -0.5373 -0.6364 -0.7321
  896MOL0     C18160   4.763   3.527  10.469  0.2493  0.1707  0.1458
  896MOL0     C18161   4.695   3.419  10.382 -0.6531 -1.0458 -0.3134
  896MOL0     C18162   4.758   3.279  10.407  0.3371 -0.2651 -0.3426
  896MOL0     C18163   4.663   3.173  10.447 -0.7303 -0.1765 -0.3122
  896MOL0     O18164   4.608   3.200  10.575  0.5279 -0.0526 -0.0581
  896MOL0     C18165   4.476   3.155  10.572  0.4846 -0.2677 -0.0423
  896MOL0     C18166   4.372   3.248  10.564  0.4538 -0.3850  0.4517
  896MOL0     C18167   4.240   3.205  10.567 -0.3480  0.1388 -0.3825
  896MOL0     C18168   4.211   3.069  10.573  0.2391  0.0343  0.4176
  896MOL0     C18169   4.074   3.020  10.587  0.8991  0.1110 -0.3932
  896MOL0     O18170   4.052   2.889  10.592  0.1553  0.1910  0.5819
  896MOL0     C18171   3.933   2.829  10.622  0.6786  0.5817  0.6960
  896MOL0     C18172   3.920   2.688  10.595 -0.9306 -0.2021 -0.2187
  896MOL0     C18173   3.793   2.628  10.606 -0.1595  0.4655 -1.0100
  896MOL0     C18174   3.676   2.684  10.666 -0.3926  0.3287  0.2545
  896MOL0     O18175   3.563   2.608  10.693 -0.1899  0.0534 -0.7772
  896MOL0     C18176   3.480   2.655  10.801  0.1433  1.1447  0.3804
  896MOL0     C18177   3.388   2.541  10.836 -0.5006  0.1091 -0.1293
  896MOL0     C18178   3.260   2.552  10.760  0.3581  0.8464 -0.2571
  896MOL0     C18179   3.186   2.415  10.786 -0.0937 -0.2602  1.0239
  896MOL0     C18180   3.047   2.402  10.712  0.2888  0.6066  0.1139
  896MOL0     C18181   2.942   2.516  10.736  0.4150 -1.2162 -0.3533
  896MOL0     C18182   2.888   2.524  10.890 -0.1161  1.0055  0.5625
  896MOL0     C18183   2.736   2.526  10.889  0.7399 -0.2110  0.1618
  896MOL0    Cl18184   2.664   2.525  11.050 -0.3498  0.2590  0.1427
  896MOL0     C18185   3.694   2.819  10.715 -0.0424  0.7337  0.3930
  896MOL0     C18186   3.821   2.887  10.698 -0.5930  0.1793 -0.1633
  896MOL0     O18187   3.991   3.108  10.594  0.2895 -0.6684  0.5350
  896MOL0     C18188   4.316   2.977  10.589 -0.3265  0.6996  0.0099
  896MOL0     C18189   4.454   3.020  10.603  1.1633  0.2251 -1.1827
  896MOL0     N18190   4.570   3.615  10.600 -0.2462  1.0243  0.2648
  896MOL0     N18191   4.521   3.620  10.723 -0.2328  0.0604  0.9151
  896MOL0     C18192   3.662   3.064  11.154  0.3979 -0.2239  0.2836
  896MOL0     C18193   3.532   3.038  11.218 -0.3523  0.8669 -0.0744
  896MOL0     C18194   3.134   2.795  11.246 -0.5339  0.0899 -0.3051
  896MOL0     C18195   3.065   2.678  11.220 -2.0573  0.1171 -0.2329
  896MOL0     C18196   2.953   2.657  11.297  0.3565  1.0121  0.6472
  896MOL0     C18197   2.893   2.746  11.390 -0.7418  0.1167  0.5033
  896MOL0     O18198   2.773   2.727  11.454  0.2964 -0.1660 -0.3592
  896MOL0     C18199   2.670   2.748  11.359 -0.0329  0.2676  0.2184
  896MOL0     C18200   2.539   2.784  11.429  0.5182  0.4246 -0.1852
  896MOL0     C18201   2.477   2.652  11.483  0.1835 -0.2312 -0.5384
  896MOL0     C18202   2.336   2.692  11.529  0.1775  1.2770 -0.8288
  896MOL0     C18203   2.249   2.577  11.572  0.4363 -0.5452  0.4257
  896MOL0     C18204   2.179   2.489  11.605 -0.1139 -0.3545  0.0230
  896MOL0     C18205   2.963   2.867  11.409 -0.5200 -0.3007 -1.2559
  896MOL0     C18206   3.087   2.886  11.346 -0.2010 -0.4151 -1.2515
  896MOL0     H18207   3.526   2.700  11.176 -1.7021 -1.4292 -1.2468
  896MOL0     H18208   3.732   2.741  11.062 -2.2434  0.6096 -1.7422
  896MOL0     H18209   3.899   3.161  11.077  0.0465 -0.9693  1.0050
  896MOL0     H18210   3.832   3.125  10.922 -0.2834  2.5463  0.7749
  896MOL0     H18211   4.039   3.145  10.846  0.6731  1.2885  1.4043
  896MOL0     H18212   4.049   2.982  10.875  1.5677  2.6141 -3.2754
  896MOL0     H18213   4.202   3.019  11.061 -3.0100 -0.8488  0.5102
  896MOL0     H18214   4.137   3.181  11.093  2.3859  0.5998  0.8907
  896MOL0     H18215   4.322   3.058  10.880 -2.3144  0.3917 -1.5973
  896MOL0     H18216   4.252   3.218  10.849  1.3427 -0.3546  0.0564
  896MOL0     H18217   4.455   3.127  11.052 -0.2974 -1.0280 -1.4447
  896MOL0     H18218   4.338   3.259  11.089  1.1447  0.9468 -0.3164
  896MOL0     H18219   4.399   3.379  10.875  2.6406  1.2498 -0.6944
  896MOL0     H18220   4.506   3.252  10.835 -3.5272 -0.8966 -1.4627
  896MOL0     H18221   4.565   3.358  11.104 -1.9495 -1.5459  0.2567
  896MOL0     H18222   4.681   3.326  10.970  0.8650  1.2641  1.1206
  896MOL0     H18223   4.696   3.549  10.981 -0.0199 -0.9754  0.6747
  896MOL0     H18224   4.521   3.590  10.970 -0.7901 -2.2921  0.4978
  896MOL0     H18225   4.782   3.408  10.728  1.0135 -0.5645 -2.3037
  896MOL0     H18226   4.864   3.504  10.503 -1.2220 -4.4544  2.3002
  896MOL0     H18227   4.746   3.624  10.423  0.5191  0.6663  1.0665
  896MOL0     H18228   4.704   3.450  10.277 -0.6674  2.5363  0.6050
  896MOL0     H18229   4.591   3.408  10.414 -0.2185  0.2788  1.7570
  896MOL0     H18230   4.807   3.254  10.313  0.6706  0.3463 -0.3341
  896MOL0     H18231   4.836   3.292  10.482 -1.5410  1.6435  1.4300
  896MOL0     H18232   4.713   3.077  10.461  0.2690  0.5019  0.9367
  896MOL0     H18233   4.584   3.162  10.372 -0.1834 -0.5897 -0.8386
  896MOL0     H18234   4.407   3.350  10.555  4.5092 -1.3716  2.4749
  896MOL0     H18235   4.167   3.285  10.572  0.6840  1.1814 -1.3759
  896MOL0     H18236   4.006   2.640  10.550  0.5797  1.5452  0.6317
  896MOL0     H18237   3.802   2.521  10.590  0.6079  0.1083  1.4380
  896MOL0     H18238   3.412   2.738  10.778 -0.6359  0.2183 -0.7877
  896MOL0     H18239   3.555   2.674  10.878  1.7882 -1.8317 -0.3173
  896MOL0     H18240   3.351   2.543  10.939 -2.8027 -0.4743 -0.8998
  896MOL0     H18241   3.448   2.450  10.823 -1.2077 -0.5583  1.0962
  896MOL0     H18242   3.285   2.554  10.653  3.4995  0.1907  0.3772
  896MOL0     H18243   3.201   2.632  10.806 -1.7276 -0.0309 -1.2474
  896MOL0     H18244   3.253   2.333  10.755 -0.1786  0.2444 -0.5538
  896MOL0     H18245   3.164   2.403  10.893  0.0040 -1.6677  0.9105
  896MOL0     H18246   3.009   2.304  10.740  2.8607 -0.5031 -0.0233
  896MOL0     H18247   3.060   2.391  10.604  2.5162 -1.5368  0.5089
  896MOL0     H18248   2.858   2.491  10.671  0.6211  1.2635 -1.7188
  896MOL0     H18249   2.984   2.614  10.710 -1.7494 -0.1964 -0.2119
  896MOL0     H18250   2.921   2.431  10.936 -0.1017  0.6329 -0.1937
  896MOL0     H18251   2.942   2.600  10.949  0.3204  0.0919  1.3720
  896MOL0     H18252   2.714   2.436  10.830  2.4007 -0.4537 -0.1406
  896MOL0     H18253   2.701   2.612  10.832 -4.5285 -1.8178  0.4031
  896MOL0     H18254   3.619   2.875  10.771 -1.4689  0.4713 -1.1749
  896MOL0     H18255   3.848   2.974  10.756  1.4430 -0.2807 -0.3377
  896MOL0     H18256   4.302   2.870  10.591 -0.6823  0.7512  0.8778
  896MOL0     H18257   4.543   2.963  10.628  1.5964  1.9893  1.7267
  896MOL0     H18258   3.702   3.165  11.146  0.9684 -0.4861 -0.2622
  896MOL0     H18259   3.477   3.126  11.250  0.1017  0.3447  2.2775
  896MOL0     H18260   3.109   2.604  11.153  0.1481 -1.0872  2.3428
  896MOL0     H18261   2.902   2.562  11.280  0.5392  1.2573 -1.5493
  896MOL0     H18262   2.653   2.653  11.307 -0.1791  0.5509 -0.2627
  896MOL0     H18263   2.694   2.825  11.285 -0.5135 -0.9142 -1.2282
  896MOL0     H18264   2.549   2.849  11.516 -0.5363  0.1392  0.1673
  896MOL0     H18265   2.484   2.837  11.351  1.0877 -1.0087 -1.6046
  896MOL0     H18266   2.533   2.605  11.565 -2.5735 -3.0380 -0.0830
  896MOL0     H18267   2.469   2.578  11.403 -1.4793 -0.4807 -0.1805
  896MOL0     H18268   2.346   2.776  11.599  3.2163  0.1925  0.2118
  896MOL0     H18269   2.292   2.732  11.437 -1.4657 -1.1278 -1.1592
  896MOL0     H18270   2.111   2.412  11.634  0.4297 -0.6448  0.5506
  896MOL0     H18271   2.916   2.948  11.464 -0.3357 -0.1937 -1.2578
  896MOL0     H18272   3.139   2.971  11.389  1.2536 -2.7024  1.9884
  897MOL0     O18273   3.807   4.777   9.359  0.6968  0.0392  0.4660
  897MOL0     C18274   3.905   4.715   9.327  0.2225  0.1033  0.6803
  897MOL0     O18275   3.915   4.586   9.293  0.7044  0.2105  0.1714
  897MOL0     C18276   3.797   4.520   9.273 -0.1112 -0.1276 -0.1917
  897MOL0     C18277   3.698   4.515   9.377 -0.7758 -0.5665 -0.5228
  897MOL0     C18278   3.585   4.436   9.351 -0.1212 -0.3066  0.3909
  897MOL0     C18279   3.565   4.370   9.227 -0.1459  0.7513 -0.3101
  897MOL0     O18280   3.468   4.281   9.201  0.6516 -0.6892  0.5534
  897MOL0     C18281   3.336   4.313   9.252 -0.5005 -0.0170 -0.1790
  897MOL0     C18282   3.215   4.272   9.169  0.3060 -0.1772  0.4535
  897MOL0     C18283   3.239   4.122   9.141 -0.2368  0.2454  0.4851
  897MOL0     C18284   3.119   4.066   9.057  0.1462 -0.1185 -0.1940
  897MOL0     C18285   2.990   4.032   9.138 -0.2623 -0.6491 -0.5318
  897MOL0     C18286   2.998   3.923   9.239  0.0896  0.1208 -0.2937
  897MOL0     C18287   2.876   3.835   9.242 -0.3416 -0.3126 -0.1246
  897MOL0     C18288   2.862   3.782   9.391  1.1225 -0.2918  0.0016
  897MOL0     N18289   2.734   3.704   9.405  1.2108  0.2078 -0.9909
  897MOL0     C18290   2.614   3.757   9.448 -1.0032  0.4827  0.5536
  897MOL0     C18291   2.530   3.654   9.460 -0.8920 -0.6972  0.3774
  897MOL0     C18292   2.384   3.661   9.479 -0.4125  0.7342 -0.2573
  897MOL0     C18293   2.361   3.697   9.628 -0.0766 -0.6022 -0.0311
  897MOL0     C18294   2.224   3.657   9.684 -0.2595 -0.3929  0.0776
  897MOL0     C18295   2.223   3.693   9.831 -0.6866 -0.0580  1.0661
  897MOL0     O18296   2.094   3.723   9.874 -0.0317 -0.5225 -0.0714
  897MOL0     C18297   1.991   3.633   9.887  0.3265 -0.6473 -0.6392
  897MOL0     C18298   1.988   3.496   9.845 -0.1416  0.0008 -0.5743
  897MOL0     C18299   1.871   3.409   9.872 -0.9691 -0.5056  0.5849
  897MOL0     C18300   1.763   3.463   9.939 -0.3034 -0.3640  0.9493
  897MOL0     C18301   1.651   3.381   9.984  1.1334  0.7983  0.6467
  897MOL0     O18302   1.643   3.260   9.927 -0.5088  0.7683 -0.2879
  897MOL0     C18303   1.550   3.164   9.956  0.0893 -0.4952  0.9009
  897MOL0     C18304   1.547   3.084  10.071 -0.3113 -0.1795 -0.0978
  897MOL0     C18305   1.446   2.997  10.088  0.5711 -0.2856  0.0948
  897MOL0     C18306   1.333   2.993  10.005 -1.3513 -0.3794 -0.8737
  897MOL0     O18307   1.228   2.911  10.053  0.5469  0.2881  0.2018
  897MOL0     C18308   1.089   2.904  10.010 -0.0293 -0.6600  0.9476
  897MOL0     C18309   1.007   3.019  10.054 -0.4507 -0.5331 -0.8430
  897MOL0     C18310   0.894   3.051   9.961  0.0055  0.0565  0.8785
  897MOL0     C18311   0.779   2.953   9.975 -0.2324 -0.3761 -0.4595
  897MOL0     C18312   0.649   2.976   9.880 -0.3563 -0.0081  0.7953
  897MOL0     C18313   0.525   2.917   9.933 -0.0220 -0.2540 -0.0307
  897MOL0     C18314   0.409   2.920   9.846  0.3981 -0.3247 -0.2307
  897MOL0     C18315   0.293   2.845   9.921  0.2958 -0.0011  0.6333
  897MOL0    Cl18316   0.146   2.853   9.827 -0.2031 -0.2578  0.4748
  897MOL0     C18317   1.334   3.068   9.889 -0.0251  0.0056 -0.2328
  897MOL0     C18318   1.443   3.155   9.859 -1.6001 -0.5437 -0.6544
  897MOL0     O18319   1.572   3.430  10.069  0.5765 -0.1459  0.1807
  897MOL0     C18320   1.765   3.604   9.976 -0.8952  0.6575 -0.2340
  897MOL0     C18321   1.886   3.685   9.956 -0.3113  0.2171  0.4056
  897MOL0     N18322   2.598   3.537   9.421  0.3794  0.1022  0.0497
  897MOL0     N18323   2.717   3.567   9.404  0.1237  0.2717 -0.1859
  897MOL0     C18324   3.664   4.383   9.129 -0.0087 -0.1415 -1.0189
  897MOL0     C18325   3.780   4.465   9.143  0.5578 -0.4930  0.4470
  897MOL0     C18326   4.025   4.800   9.312  0.3580  0.8823  0.8755
  897MOL0     C18327   4.050   4.896   9.409 -0.0574 -0.0368  0.3550
  897MOL0     C18328   4.168   4.981   9.401  0.4063  0.0783  0.6719
  897MOL0     C18329   4.250   4.975   9.290 -0.8021  0.2845  0.5319
  897MOL0     O18330   4.370   5.038   9.273 -0.6720  0.3509  0.2118
  897MOL0     C18331   4.465   5.024   9.389  0.1505 -0.5111 -1.1394
  897MOL0     C18332   4.473   5.160   9.464  0.2497 -0.2518 -0.1638
  897MOL0     C18333   4.596   5.249   9.425 -0.0702 -0.4967 -0.0715
  897MOL0     C18334   4.584   5.304   9.281 -0.3905  0.5765  0.1483
  897MOL0     C18335   4.608   5.209   9.179  0.9287 -0.2653  0.3687
  897MOL0     C18336   4.615   5.129   9.089  0.8778  0.3841  0.9458
  897MOL0     C18337   4.231   4.866   9.204 -0.9435 -0.3009 -0.2171
  897MOL0     C18338   4.115   4.778   9.207 -0.1533  0.3140  0.3314
  897MOL0     H18339   3.712   4.562   9.474  0.8783  0.2817 -1.1370
  897MOL0     H18340   3.515   4.420   9.432 -1.9657 -0.9400 -1.2358
  897MOL0     H18341   3.328   4.418   9.283 -0.3984  1.0086 -3.3012
  897MOL0     H18342   3.335   4.258   9.347 -0.0586  0.7251  0.2692
  897MOL0     H18343   3.220   4.323   9.073 -0.1699 -0.1164  0.4579
  897MOL0     H18344   3.116   4.284   9.215  0.3607 -0.2430  0.5925
  897MOL0     H18345   3.253   4.063   9.232  3.1451 -0.8406 -0.5879
  897MOL0     H18346   3.326   4.111   9.076  1.5568  0.3137  2.7625
  897MOL0     H18347   3.101   4.138   8.977 -1.2273 -0.4047 -0.1736
  897MOL0     H18348   3.142   3.969   9.011  0.2707 -0.6081  0.8610
  897MOL0     H18349   2.906   4.023   9.069 -0.9620  0.0564  0.2030
  897MOL0     H18350   2.950   4.120   9.190 -1.0198  0.0567 -2.2267
  897MOL0     H18351   3.040   3.951   9.336 -0.6851 -3.3648  1.1727
  897MOL0     H18352   3.063   3.848   9.195 -0.0045 -0.0196 -0.1910
  897MOL0     H18353   2.784   3.886   9.212  1.7592  3.1200 -1.2665
  897MOL0     H18354   2.891   3.751   9.174  0.3172 -0.6394  0.4062
  897MOL0     H18355   2.855   3.865   9.462 -1.1553 -0.4069 -0.0340
  897MOL0     H18356   2.944   3.712   9.409  1.0220 -0.5155 -0.4010
  897MOL0     H18357   2.592   3.862   9.463  1.3976  1.3726 -1.3913
  897MOL0     H18358   2.335   3.565   9.457  0.1919  1.1202 -3.7004
  897MOL0     H18359   2.344   3.737   9.412  0.9882 -0.0461 -2.0252
  897MOL0     H18360   2.371   3.806   9.631  1.0280 -0.6857 -0.4749
  897MOL0     H18361   2.436   3.645   9.688 -0.7251  0.4672  1.8157
  897MOL0     H18362   2.139   3.695   9.626 -1.6913 -1.2817  1.4953
  897MOL0     H18363   2.222   3.548   9.672 -0.1053 -0.5945  1.6321
  897MOL0     H18364   2.282   3.785   9.843 -3.0319  2.1901 -2.6028
  897MOL0     H18365   2.287   3.618   9.878 -1.2533  0.4208  2.6838
  897MOL0     H18366   2.072   3.453   9.792  0.1214 -1.4836  0.9433
  897MOL0     H18367   1.870   3.312   9.823 -0.9741 -1.2583  2.0329
  897MOL0     H18368   1.633   3.082  10.138 -0.2266  2.1303 -0.0563
  897MOL0     H18369   1.445   2.927  10.171 -2.0787 -0.8659 -0.3353
  897MOL0     H18370   1.037   2.812  10.037 -1.3009 -0.0201  0.7294
  897MOL0     H18371   1.085   2.896   9.901 -0.0578  0.6826  0.8227
  897MOL0     H18372   1.071   3.108  10.057 -1.7245  0.3977 -0.2201
  897MOL0     H18373   0.971   2.990  10.153 -0.5812  0.2038 -0.6667
  897MOL0     H18374   0.935   3.055   9.859 -4.5613  0.9261 -1.1907
  897MOL0     H18375   0.856   3.150   9.986 -1.4857 -0.6611  1.5934
  897MOL0     H18376   0.819   2.855   9.949  1.3397 -0.1738  1.0062
  897MOL0     H18377   0.752   2.961  10.081  1.0074 -1.4806 -0.0325
  897MOL0     H18378   0.674   2.930   9.784  1.3314 -1.9363  2.0637
  897MOL0     H18379   0.635   3.083   9.862 -1.1846 -0.1584  0.5053
  897MOL0     H18380   0.505   2.955  10.034 -1.5866 -3.5135  1.0165
  897MOL0     H18381   0.548   2.811   9.946 -0.1282 -0.1909  0.7201
  897MOL0     H18382   0.375   3.024   9.837 -0.9701 -0.5966  1.2188
  897MOL0     H18383   0.430   2.873   9.750 -2.0693  1.5593 -1.8262
  897MOL0     H18384   0.264   2.871  10.023  0.0889 -0.3090  0.6518
  897MOL0     H18385   0.322   2.740   9.934  1.2650  0.2485  0.6237
  897MOL0     H18386   1.244   3.061   9.829 -0.9377 -1.6091  1.2380
  897MOL0     H18387   1.441   3.221   9.773  1.2979  0.7619  0.1826
  897MOL0     H18388   1.678   3.646  10.025 -1.1982 -0.5326  0.2796
  897MOL0     H18389   1.879   3.788   9.987  0.8968  0.6650 -0.7370
  897MOL0     H18390   3.653   4.328   9.036  0.7383 -2.5662  0.2702
  897MOL0     H18391   3.848   4.468   9.058 -2.3930 -1.4122 -2.1137
  897MOL0     H18392   3.970   4.915   9.480 -1.6421 -0.4072 -1.2465
  897MOL0     H18393   4.188   5.055   9.479  1.4135 -0.0994  0.5947
  897MOL0     H18394   4.564   4.997   9.351  1.5226  3.2460 -0.7038
  897MOL0     H18395   4.431   4.945   9.456 -0.9336  1.0222  0.1842
  897MOL0     H18396   4.389   5.229   9.452  0.5010  0.0309 -0.3323
  897MOL0     H18397   4.480   5.124   9.567 -0.2309 -0.5916 -0.2455
  897MOL0     H18398   4.687   5.194   9.451  1.1715  0.4402 -2.1884
  897MOL0     H18399   4.597   5.337   9.491  2.2281 -0.8882  0.5055
  897MOL0     H18400   4.494   5.357   9.250  1.2346  2.3319 -1.8975
  897MOL0     H18401   4.666   5.376   9.271 -1.2773  1.9450  2.1417
  897MOL0     H18402   4.625   5.061   9.007 -1.3846  1.5002 -0.3866
  897MOL0     H18403   4.298   4.845   9.121  3.2878  0.6357  2.6384
  897MOL0     H18404   4.105   4.704   9.128  0.9889 -0.6599  1.0711
  898MOL0     O18405   6.589  11.104  10.127  0.6519  0.8608 -0.6848
  898MOL0     C18406   6.606  11.141  10.011  0.1357  0.6646 -0.1263
  898MOL0     O18407   6.508  11.184   9.924  0.3167  0.3818  0.6057
  898MOL0     C18408   6.379  11.169   9.965 -0.6617  0.1281 -0.3031
  898MOL0     C18409   6.330  11.053  10.038 -0.1390  0.7256  0.1694
  898MOL0     C18410   6.190  11.042  10.063 -0.4495 -0.7074 -0.4119
  898MOL0     C18411   6.103  11.141  10.042 -0.3073 -0.4002 -0.0812
  898MOL0     O18412   5.983  11.103  10.083  0.0690  0.1551  0.2806
  898MOL0     C18413   5.870  11.181  10.051  0.8847  0.3273  0.4879
  898MOL0     C18414   5.761  11.088  10.106 -0.8990  0.0701 -0.2359
  898MOL0     C18415   5.627  11.150  10.070 -0.6495 -0.2008  1.0337
  898MOL0     C18416   5.517  11.067  10.126  0.2495 -0.4407  1.1248
  898MOL0     C18417   5.379  11.121  10.082 -0.5707  0.0140  0.4385
  898MOL0     C18418   5.264  11.046  10.149 -0.6591 -0.0555 -0.3822
  898MOL0     C18419   5.129  11.099  10.085 -0.2585 -0.6512 -0.2833
  898MOL0     C18420   5.005  11.021  10.146  0.1699 -0.8071 -0.8392
  898MOL0     N18421   4.869  11.078  10.112 -0.4392 -0.2396  0.3023
  898MOL0     C18422   4.783  11.012  10.031  0.2013 -0.5751 -0.0807
  898MOL0     C18423   4.662  11.080  10.053 -0.3315  0.2414 -0.5023
  898MOL0     C18424   4.535  11.052   9.978  0.0656  0.5809 -0.5661
  898MOL0     C18425   4.433  10.999  10.076 -0.4807 -0.5368  0.2110
  898MOL0     C18426   4.289  11.034  10.036  0.9428 -0.5323  0.7181
  898MOL0     C18427   4.190  10.974  10.114  0.6358  0.1709 -0.8525
  898MOL0     O18428   4.059  11.004  10.058  0.4831 -0.5009 -0.1135
  898MOL0     C18429   3.943  10.944  10.105 -0.2182  0.6854 -0.9260
  898MOL0     C18430   3.824  11.004  10.081  0.6975  0.0437 -0.1565
  898MOL0     C18431   3.713  10.946  10.129  0.1744 -0.4728  0.0941
  898MOL0     C18432   3.704  10.828  10.197  0.3182  0.4096  0.0090
  898MOL0     C18433   3.575  10.771  10.249 -0.3819 -0.0599  0.4280
  898MOL0     O18434   3.460  10.801  10.179  0.9983 -0.2386 -0.3496
  898MOL0     C18435   3.345  10.732  10.217  0.4799  0.5858  0.8558
  898MOL0     C18436   3.237  10.784  10.285  0.1190  0.0972 -0.5069
  898MOL0     C18437   3.125  10.715  10.324  0.4699  0.2284 -0.0438
  898MOL0     C18438   3.098  10.593  10.261  0.2910  0.3628 -0.4738
  898MOL0     O18439   2.971  10.534  10.268 -0.0583  0.3851  0.1453
  898MOL0     C18440   2.846  10.604  10.264 -0.1450  0.1325 -0.7050
  898MOL0     C18441   2.746  10.500  10.218 -0.4029 -0.1411 -0.0344
  898MOL0     C18442   2.610  10.558  10.219  0.3488  0.0452 -1.2057
  898MOL0     C18443   2.504  10.462  10.153  1.0582 -0.4405 -0.0080
  898MOL0     C18444   2.360  10.518  10.162  0.3266  0.6443  0.3101
  898MOL0     C18445   2.258  10.403  10.153 -0.4272  0.6028 -0.2625
  898MOL0     C18446   2.120  10.460  10.184 -0.5357  0.8306 -0.3647
  898MOL0     C18447   2.003  10.402  10.105 -0.4805  0.0414 -1.5159
  898MOL0    Cl18448   1.863  10.489  10.153  0.5430  0.0269  0.4523
  898MOL0     C18449   3.205  10.533  10.200  0.6998  1.0308 -0.6782
  898MOL0     C18450   3.322  10.601  10.181 -0.0927 -0.3304  0.1518
  898MOL0     O18451   3.575  10.714  10.359 -0.5704 -0.0755 -0.3817
  898MOL0     C18452   3.826  10.765  10.218  0.0465 -0.3010  0.6246
  898MOL0     C18453   3.948  10.823  10.175  0.3197  0.2711 -0.2134
  898MOL0     N18454   4.685  11.174  10.157  0.0394 -0.3127 -0.0926
  898MOL0     N18455   4.807  11.171  10.181  0.6710  0.3593 -0.5094
  898MOL0     C18456   6.154  11.256   9.973  0.8107 -0.8238  1.7211
  898MOL0     C18457   6.294  11.271   9.938 -0.3035  0.1729 -0.3799
  898MOL0     C18458   6.748  11.122   9.961 -0.0428 -0.6756 -0.7620
  898MOL0     C18459   6.853  11.089  10.043  0.5958  0.1068  0.1930
  898MOL0     C18460   6.989  11.071  10.003  0.1410 -0.2636  0.4337
  898MOL0     C18461   7.013  11.072   9.864 -0.1713  0.3944  0.6411
  898MOL0     O18462   7.142  11.064   9.815 -1.1562 -0.0439  0.1507
  898MOL0     C18463   7.175  11.062   9.678 -0.0858 -0.2087  0.5757
  898MOL0     C18464   7.322  11.054   9.657  0.3361 -0.7159  0.5525
  898MOL0     C18465   7.395  11.186   9.715 -0.8571 -0.1001 -0.0098
  898MOL0     C18466   7.549  11.203   9.692 -0.6216 -0.7967 -0.0214
  898MOL0     C18467   7.580  11.197   9.553 -0.1852  0.5721  0.5072
  898MOL0     C18468   7.614  11.228   9.439  0.9615  1.0535 -0.8577
  898MOL0     C18469   6.905  11.104   9.770  0.1317  0.1331  0.0756
  898MOL0     C18470   6.774  11.138   9.825  0.7905 -0.3865 -1.1037
  898MOL0     H18471   6.367  10.951  10.046  0.5821  1.1321  2.8987
  898MOL0     H18472   6.141  10.950  10.093 -1.8783 -0.3414 -1.5350
  898MOL0     H18473   5.868  11.198   9.943 -0.0931  5.3648  1.0456
  898MOL0     H18474   5.874  11.278  10.102 -0.8736  0.4721  0.4057
  898MOL0     H18475   5.756  11.091  10.215 -0.9827  0.4131 -0.2479
  898MOL0     H18476   5.783  10.984  10.079  2.0368 -0.0540  2.1988
  898MOL0     H18477   5.617  11.151   9.961  1.9058 -3.6216  0.6045
  898MOL0     H18478   5.610  11.252  10.105 -0.9455 -0.7342  2.5057
  898MOL0     H18479   5.517  10.968  10.079 -3.4437 -0.0675  0.0095
  898MOL0     H18480   5.524  11.063  10.235  2.3102 -0.6699  1.0340
  898MOL0     H18481   5.362  11.102   9.975 -1.8118 -3.2384  1.1040
  898MOL0     H18482   5.378  11.229  10.098  3.2757  0.6157 -2.1471
  898MOL0     H18483   5.253  11.063  10.256  0.6389  0.8127 -0.3717
  898MOL0     H18484   5.277  10.938  10.132  1.4747  0.3593 -1.7898
  898MOL0     H18485   5.113  11.207  10.098 -2.2678 -0.8834 -0.4225
  898MOL0     H18486   5.135  11.073   9.979  0.4211 -2.5888  0.1989
  898MOL0     H18487   5.010  11.016  10.256  1.2386 -0.8121 -0.8749
  898MOL0     H18488   5.013  10.924  10.096 -0.7467  0.1996 -3.0553
  898MOL0     H18489   4.804  10.921   9.976 -1.8619 -0.6640 -0.8019
  898MOL0     H18490   4.550  10.981   9.896  2.2041  0.9159 -0.5177
  898MOL0     H18491   4.511  11.152   9.940  1.5741  0.0278 -3.2235
  898MOL0     H18492   4.463  11.023  10.178  0.2810 -2.4069  0.4708
  898MOL0     H18493   4.441  10.890  10.080 -1.8549 -0.6146  2.4057
  898MOL0     H18494   4.268  11.140  10.048  0.1859 -0.7475  1.3648
  898MOL0     H18495   4.272  11.009   9.931 -0.3044  2.3275  0.1696
  898MOL0     H18496   4.193  11.012  10.217  0.0218  0.6090 -0.9923
  898MOL0     H18497   4.207  10.866  10.110 -1.5501 -0.2244 -0.8118
  898MOL0     H18498   3.798  11.101  10.041 -0.8052 -0.4752 -0.5030
  898MOL0     H18499   3.624  11.006  10.117  1.8384  2.1451  0.0634
  898MOL0     H18500   3.241  10.886  10.323 -1.4644  1.4441 -3.5610
  898MOL0     H18501   3.046  10.768  10.376  0.0148  0.0367 -0.5301
  898MOL0     H18502   2.842  10.691  10.198  0.4095  0.7220  0.0078
  898MOL0     H18503   2.811  10.649  10.358 -0.0306  2.1971 -1.5974
  898MOL0     H18504   2.744  10.417  10.289  3.7299 -0.2325  0.2293
  898MOL0     H18505   2.792  10.459  10.128  4.6929  0.6320  1.8695
  898MOL0     H18506   2.595  10.659  10.180 -0.6876  0.5408  0.3704
  898MOL0     H18507   2.572  10.567  10.321  0.2468 -3.5718 -0.8221
  898MOL0     H18508   2.527  10.437  10.049 -1.0728  0.6392 -0.8109
  898MOL0     H18509   2.503  10.364  10.203 -3.0113 -0.6142 -0.0280
  898MOL0     H18510   2.350  10.586  10.077  1.0671  1.9038  1.1912
  898MOL0     H18511   2.339  10.578  10.251 -3.0417 -0.4243  0.3633
  898MOL0     H18512   2.274  10.315  10.216  2.3052  1.6916  0.7180
  898MOL0     H18513   2.249  10.373  10.048 -1.3107  1.0145 -0.3200
  898MOL0     H18514   2.109  10.439  10.291  0.3163 -4.4824 -1.0262
  898MOL0     H18515   2.118  10.566  10.159 -1.9208  0.8778 -0.1630
  898MOL0     H18516   2.001  10.294  10.122  0.0552  0.3267  0.6504
  898MOL0     H18517   2.016  10.415   9.997 -0.6703  2.2046 -1.3384
  898MOL0     H18518   3.198  10.429  10.171  1.5175  1.1584 -1.3835
  898MOL0     H18519   3.398  10.544  10.129  0.6581 -0.3965  1.2687
  898MOL0     H18520   3.835  10.667  10.263  2.1554 -0.4245  0.0456
  898MOL0     H18521   4.042  10.771  10.192 -0.8221 -1.9192 -0.2359
  898MOL0     H18522   6.084  11.337   9.951  0.5913 -0.8822  2.1880
  898MOL0     H18523   6.345  11.353   9.889 -0.1998  1.8338  2.2971
  898MOL0     H18524   6.842  11.074  10.150  1.5060 -2.0435  0.0372
  898MOL0     H18525   7.068  11.044  10.073 -0.5589  0.0834  1.3796
  898MOL0     H18526   7.146  11.159   9.636 -1.8999 -1.1529 -0.4703
  898MOL0     H18527   7.120  10.987   9.619 -0.3901  1.4489 -1.3656
  898MOL0     H18528   7.360  10.966   9.710 -0.2900 -1.3966 -0.1099
  898MOL0     H18529   7.342  11.050   9.550 -0.2694  1.2708  0.3331
  898MOL0     H18530   7.371  11.181   9.822 -1.4778  2.2598  0.0031
  898MOL0     H18531   7.343  11.272   9.672  1.2866  0.8989 -0.7675
  898MOL0     H18532   7.580  11.301   9.728 -0.0394  0.6669 -4.0456
  898MOL0     H18533   7.597  11.121   9.746 -1.6429 -1.1712  0.3535
  898MOL0     H18534   7.623  11.253   9.336 -1.6706 -0.7721 -1.6591
  898MOL0     H18535   6.925  11.113   9.663  0.4270  2.7268  0.2675
  898MOL0     H18536   6.695  11.165   9.755  0.2514  0.3484 -0.2335
  899MOL0     O18537   7.966   2.425   9.295  0.7428  0.5221  0.0829
  899MOL0     C18538   8.033   2.485   9.208 -0.7425  0.0817 -0.8351
  899MOL0     O18539   7.980   2.577   9.120  0.3762  0.3573  0.2816
  899MOL0     C18540   7.846   2.573   9.113  0.1452  0.1679  0.6003
  899MOL0     C18541   7.784   2.511   9.004 -0.0972  0.6758 -0.7084
  899MOL0     C18542   7.643   2.502   8.990  0.0500  0.5401 -0.2397
  899MOL0     C18543   7.569   2.548   9.095  0.3178 -0.0183  0.0285
  899MOL0     O18544   7.435   2.530   9.105 -0.4949  0.2280 -0.1671
  899MOL0     C18545   7.363   2.474   8.997  0.5577  0.3199  0.8118
  899MOL0     C18546   7.213   2.473   9.036  0.1548  0.1490 -0.2044
  899MOL0     C18547   7.174   2.377   9.140 -0.3449  0.3792  0.2282
  899MOL0     C18548   7.030   2.373   9.201 -0.4422 -0.5327 -0.5594
  899MOL0     C18549   7.015   2.277   9.312  0.2017  0.0652 -0.2462
  899MOL0     C18550   6.870   2.279   9.365 -0.1251  0.8411 -0.3069
  899MOL0     C18551   6.837   2.161   9.472 -0.4477 -0.3505 -0.5797
  899MOL0     C18552   6.832   2.182   9.620  1.0247 -1.0604  0.7681
  899MOL0     N18553   6.952   2.216   9.691 -0.4564  0.0261 -0.4102
  899MOL0     C18554   7.013   2.343   9.675 -0.2098 -0.1547  0.9733
  899MOL0     C18555   7.148   2.326   9.697  0.7525 -0.6286  0.5990
  899MOL0     C18556   7.253   2.424   9.702 -0.1175 -0.1649  0.2905
  899MOL0     C18557   7.351   2.411   9.584 -0.3515 -0.1813  0.7340
  899MOL0     C18558   7.437   2.283   9.595 -0.2464 -0.6802  0.7531
  899MOL0     C18559   7.543   2.274   9.487  0.5049 -0.4111 -0.0376
  899MOL0     O18560   7.570   2.131   9.467  0.0505 -0.5985  0.0885
  899MOL0     C18561   7.669   2.082   9.384  0.6286  0.0440 -0.5678
  899MOL0     C18562   7.764   2.161   9.307 -0.0345 -0.7997 -0.5365
  899MOL0     C18563   7.851   2.098   9.210  0.3637  0.1742  0.9285
  899MOL0     C18564   7.868   1.956   9.219  0.6653 -0.4787 -0.0668
  899MOL0     C18565   7.961   1.885   9.133  0.9465 -0.0708  0.4863
  899MOL0     O18566   8.052   1.951   9.058 -0.1786  0.0987  0.3471
  899MOL0     C18567   8.154   1.876   9.012  0.1853 -1.0975 -0.2980
  899MOL0     C18568   8.213   1.778   9.088 -0.9809  0.7800  0.3167
  899MOL0     C18569   8.333   1.711   9.040  0.7954 -0.3069 -0.1092
  899MOL0     C18570   8.384   1.740   8.914  0.3832 -0.3862 -0.3675
  899MOL0     O18571   8.499   1.684   8.872  0.3575 -0.6516  0.0886
  899MOL0     C18572   8.505   1.642   8.741 -0.0758  0.2834  0.5767
  899MOL0     C18573   8.601   1.523   8.709  0.2874  0.1803 -0.2156
  899MOL0     C18574   8.753   1.565   8.745 -0.1544  0.4355 -0.0326
  899MOL0     C18575   8.845   1.437   8.771  0.4661  0.3522 -0.0462
  899MOL0     C18576   8.994   1.482   8.796  1.1122 -0.2801  0.2272
  899MOL0     C18577   9.085   1.373   8.847 -0.0613  0.4805  0.1504
  899MOL0     C18578   9.221   1.422   8.873  0.1579 -0.9017  0.5440
  899MOL0     C18579   9.301   1.333   8.973  0.2112 -0.1355 -0.1897
  899MOL0    Cl18580   9.420   1.416   9.062  0.6627  0.3390 -0.4414
  899MOL0     C18581   8.331   1.849   8.839  0.0150  0.2984  0.1590
  899MOL0     C18582   8.214   1.911   8.893 -0.1925  0.2653 -0.3671
  899MOL0     O18583   7.938   1.766   9.131  0.0525  0.1107 -0.1727
  899MOL0     C18584   7.773   1.877   9.301  0.1220 -0.0709 -0.0465
  899MOL0     C18585   7.673   1.942   9.376 -0.1421 -0.2020 -0.4802
  899MOL0     N18586   7.163   2.190   9.728  0.2493 -0.1167  0.1165
  899MOL0     N18587   7.050   2.123   9.730 -0.2107  0.5579  1.1404
  899MOL0     C18588   7.624   2.607   9.209 -0.9437 -0.5751  0.4000
  899MOL0     C18589   7.765   2.626   9.209  0.2930 -0.0335 -0.1173
  899MOL0     C18590   8.174   2.439   9.183 -0.2048  0.2145  0.3152
  899MOL0     C18591   8.251   2.368   9.283 -0.4533  0.1604  0.2162
  899MOL0     C18592   8.384   2.319   9.263 -0.5146 -0.7016 -0.1241
  899MOL0     C18593   8.440   2.339   9.133  0.3177 -0.5848  0.0421
  899MOL0     O18594   8.574   2.300   9.115  0.8129  0.1876  0.1946
  899MOL0     C18595   8.658   2.373   9.029  0.4560 -0.2095 -0.1432
  899MOL0     C18596   8.772   2.455   9.108  0.3745  0.7841 -0.5287
  899MOL0     C18597   8.717   2.584   9.171 -0.0497 -0.8535 -0.6698
  899MOL0     C18598   8.805   2.660   9.271 -0.1709  0.7547  0.1266
  899MOL0     C18599   8.737   2.790   9.291  0.6265 -0.3375 -0.6720
  899MOL0     C18600   8.670   2.897   9.301 -0.0609 -0.0448 -0.2850
  899MOL0     C18601   8.363   2.408   9.032 -0.1808 -0.5583 -0.6089
  899MOL0     C18602   8.235   2.450   9.059  0.1533 -0.0948  0.2002
  899MOL0     H18603   7.843   2.490   8.916 -1.8517  0.4358 -1.8580
  899MOL0     H18604   7.604   2.452   8.902 -0.4676  3.8567 -2.0652
  899MOL0     H18605   7.397   2.374   8.969 -1.2482  0.8112 -4.1637
  899MOL0     H18606   7.371   2.521   8.899 -0.0997 -0.0978  0.5528
  899MOL0     H18607   7.152   2.474   8.946 -0.5669 -1.3934  0.2464
  899MOL0     H18608   7.197   2.576   9.070 -0.0839 -0.3193  1.1534
  899MOL0     H18609   7.246   2.384   9.222  1.2431 -1.8748 -0.8636
  899MOL0     H18610   7.192   2.276   9.102  0.9616  0.4508  0.6126
  899MOL0     H18611   7.002   2.476   9.228 -1.9122 -0.5858 -1.7345
  899MOL0     H18612   6.957   2.349   9.123  1.0063 -3.3548 -1.1823
  899MOL0     H18613   7.076   2.295   9.401  0.2453 -1.2118  0.0014
  899MOL0     H18614   7.031   2.176   9.274  2.4237  0.7993 -1.4391
  899MOL0     H18615   6.810   2.262   9.275 -0.3705 -0.4959  0.0892
  899MOL0     H18616   6.852   2.377   9.410 -0.7960  0.5379  0.0933
  899MOL0     H18617   6.735   2.126   9.449 -0.7808 -1.3755  2.1186
  899MOL0     H18618   6.902   2.079   9.442  0.6265 -0.7247  2.4496
  899MOL0     H18619   6.801   2.086   9.664  1.6043 -2.0816 -0.9367
  899MOL0     H18620   6.756   2.258   9.637  0.6931 -0.7003 -1.8360
  899MOL0     H18621   6.959   2.434   9.650 -0.0009 -0.8018 -2.4036
  899MOL0     H18622   7.298   2.398   9.798 -0.2684  0.5084  0.5453
  899MOL0     H18623   7.211   2.525   9.697  0.3404  0.0755  1.2020
  899MOL0     H18624   7.420   2.496   9.579 -0.2426 -0.3440 -1.7293
  899MOL0     H18625   7.290   2.406   9.493 -0.0712 -0.3741  0.5544
  899MOL0     H18626   7.481   2.298   9.694 -0.9404  0.2596  0.9287
  899MOL0     H18627   7.375   2.194   9.605  0.0874 -0.6750  3.6626
  899MOL0     H18628   7.636   2.321   9.522  1.5430 -1.7955 -0.8288
  899MOL0     H18629   7.512   2.324   9.395 -1.9395  0.9234  1.3997
  899MOL0     H18630   7.771   2.268   9.328 -1.2214 -0.6607 -0.7714
  899MOL0     H18631   7.916   2.159   9.148  0.9185 -1.1860  0.1327
  899MOL0     H18632   8.184   1.764   9.192  2.1693  4.6650  2.0226
  899MOL0     H18633   8.389   1.643   9.104  0.7209 -1.1135 -0.8769
  899MOL0     H18634   8.546   1.723   8.680  0.7698  1.7191  2.9101
  899MOL0     H18635   8.406   1.610   8.708  1.0304 -2.3707 -0.5260
  899MOL0     H18636   8.584   1.502   8.603 -0.7513  1.9192 -0.4228
  899MOL0     H18637   8.582   1.439   8.777 -0.7345  0.5990  0.0317
  899MOL0     H18638   8.753   1.635   8.830  0.8961  0.1162  0.2458
  899MOL0     H18639   8.797   1.618   8.660 -1.4300 -1.8217 -2.2206
  899MOL0     H18640   8.805   1.379   8.855  2.6029 -0.3219  0.5580
  899MOL0     H18641   8.830   1.377   8.681  1.0071  3.8536 -2.7007
  899MOL0     H18642   8.976   1.553   8.877 -1.8454  2.0778 -2.2335
  899MOL0     H18643   9.039   1.538   8.713  4.0686  0.2023  2.0274
  899MOL0     H18644   9.098   1.299   8.767 -1.9946  2.2075 -1.8934
  899MOL0     H18645   9.042   1.330   8.938 -0.1902 -1.7332 -0.8917
  899MOL0     H18646   9.270   1.430   8.775 -2.0981  0.3261 -0.5429
  899MOL0     H18647   9.214   1.522   8.916 -0.8373  0.9603 -3.4624
  899MOL0     H18648   9.354   1.257   8.915  2.2030  1.0606 -0.0151
  899MOL0     H18649   9.230   1.291   9.046 -3.2735  0.0264 -3.1695
  899MOL0     H18650   8.379   1.894   8.752 -0.5118  3.3426  1.3449
  899MOL0     H18651   8.172   2.000   8.847  0.6372  0.3787 -0.9229
  899MOL0     H18652   7.768   1.769   9.306  3.7126 -0.3370  0.2234
  899MOL0     H18653   7.608   1.888   9.444  0.5972  0.2939  0.6558
  899MOL0     H18654   7.550   2.631   9.285  0.8484 -5.4072  4.1928
  899MOL0     H18655   7.809   2.663   9.301 -2.1920 -3.6662  2.8523
  899MOL0     H18656   8.211   2.348   9.382  0.2700  1.4165  0.7889
  899MOL0     H18657   8.426   2.258   9.341  2.7970 -0.8227 -1.8349
  899MOL0     H18658   8.600   2.443   8.969  0.1799  1.1043  1.5625
  899MOL0     H18659   8.708   2.300   8.965  2.2190 -1.9440  2.9582
  899MOL0     H18660   8.807   2.396   9.193 -0.3538  1.1342  0.0230
  899MOL0     H18661   8.849   2.473   9.032 -1.6327 -0.8059 -3.1670
  899MOL0     H18662   8.630   2.551   9.228  1.0389 -2.9542 -0.1186
  899MOL0     H18663   8.681   2.664   9.106 -0.1092  0.7315  1.2306
  899MOL0     H18664   8.817   2.604   9.364  0.7009 -0.2845 -0.5779
  899MOL0     H18665   8.908   2.679   9.238  0.2828 -3.8084 -1.7586
  899MOL0     H18666   8.607   2.981   9.316 -2.0488 -1.3371 -1.0460
  899MOL0     H18667   8.401   2.423   8.931 -1.1695  1.8853 -0.6823
  899MOL0     H18668   8.182   2.496   8.976 -0.2529  0.5725  0.8128
  900MOL0     O18669   9.895   2.472   7.020 -0.5263  1.0537  0.2439
  900MOL0     C18670   9.989   2.477   7.096  0.1999 -0.1888 -0.1029
  900MOL0     O18671   9.983   2.463   7.232  0.3749 -0.8621 -0.2483
  900MOL0     C18672   9.866   2.490   7.305  0.5835  0.4573  0.9271
  900MOL0     C18673   9.747   2.555   7.251  0.5833 -0.6353  0.1219
  900MOL0     C18674   9.630   2.563   7.331 -0.5519 -0.5910  0.7440
  900MOL0     C18675   9.620   2.503   7.451  0.1169  0.7444  0.3366
  900MOL0     O18676   9.510   2.490   7.536 -0.2956  0.7007  0.5949
  900MOL0     C18677   9.428   2.602   7.538 -0.3538  0.1879  0.4474
  900MOL0     C18678   9.322   2.567   7.639 -0.4405  0.4453  0.0904
  900MOL0     C18679   9.206   2.681   7.632 -0.5804 -0.9787  0.4665
  900MOL0     C18680   9.136   2.689   7.769  0.0620  0.2883  0.3631
  900MOL0     C18681   9.027   2.800   7.778 -0.8030  0.4684  0.1570
  900MOL0     C18682   8.905   2.789   7.683  0.2654 -0.1781  0.4332
  900MOL0     C18683   8.818   2.915   7.688 -0.1227 -0.8337  0.0270
  900MOL0     C18684   8.688   2.888   7.607 -0.5807 -0.1788  0.4973
  900MOL0     N18685   8.596   2.998   7.622  0.3502 -0.5155 -0.1768
  900MOL0     C18686   8.513   3.037   7.519  1.2532 -0.5925 -0.8426
  900MOL0     C18687   8.460   3.147   7.552 -0.0012  0.3638  0.1925
  900MOL0     C18688   8.361   3.214   7.464 -1.1040  0.2142 -0.6209
  900MOL0     C18689   8.231   3.135   7.450  0.7206 -0.9401  0.1065
  900MOL0     C18690   8.193   3.136   7.297 -0.3064  0.5353  0.9975
  900MOL0     C18691   8.046   3.104   7.279  0.2392  0.2672 -0.3039
  900MOL0     O18692   8.013   2.973   7.326  0.2073 -0.1881 -0.2923
  900MOL0     C18693   7.894   2.920   7.289  0.5187 -1.0414 -0.6292
  900MOL0     C18694   7.770   2.989   7.299 -0.7188 -0.8041 -0.5555
  900MOL0     C18695   7.643   2.927   7.271 -0.3405  0.4117 -0.2401
  900MOL0     C18696   7.639   2.800   7.219  0.4270  0.0335  0.4666
  900MOL0     C18697   7.510   2.735   7.164 -0.5437  0.2937 -0.3653
  900MOL0     O18698   7.398   2.806   7.168 -0.2431 -0.4640  0.2502
  900MOL0     C18699   7.276   2.757   7.123  0.1343 -1.4486 -0.2531
  900MOL0     C18700   7.170   2.840   7.172 -0.8259 -0.4827  0.7415
  900MOL0     C18701   7.037   2.824   7.126 -1.0051 -0.0075  0.2850
  900MOL0     C18702   7.007   2.708   7.050 -0.7675  0.5058 -0.1617
  900MOL0     O18703   6.876   2.673   7.033 -0.7854 -0.1542 -0.0203
  900MOL0     C18704   6.803   2.760   6.952  0.0957 -0.9573  0.0125
  900MOL0     C18705   6.660   2.691   6.934  0.1704 -0.0986  0.6392
  900MOL0     C18706   6.568   2.713   7.051  0.3038 -0.1733 -0.8193
  900MOL0     C18707   6.425   2.690   7.002 -0.0555  0.0584  0.7253
  900MOL0     C18708   6.317   2.701   7.105  0.2710  0.0283  0.0919
  900MOL0     C18709   6.170   2.704   7.039  0.1468  0.6858 -0.2274
  900MOL0     C18710   6.079   2.693   7.163 -0.3686 -0.3708  0.0430
  900MOL0     C18711   5.942   2.761   7.148  0.2274  0.0404  0.0918
  900MOL0    Cl18712   5.830   2.697   7.018  0.0062  0.1961 -0.3421
  900MOL0     C18713   7.105   2.616   7.021 -0.3745  0.0688  0.2780
  900MOL0     C18714   7.234   2.641   7.052 -0.5964  0.5873  0.5494
  900MOL0     O18715   7.522   2.622   7.113  0.5163  0.9694 -0.9735
  900MOL0     C18716   7.768   2.736   7.209 -0.3952 -0.0345 -0.2661
  900MOL0     C18717   7.890   2.792   7.238  0.1942  0.2151 -0.5965
  900MOL0     N18718   8.503   3.185   7.676 -0.7967  0.0040 -0.5915
  900MOL0     N18719   8.592   3.099   7.716 -0.5464  0.0557 -0.0479
  900MOL0     C18720   9.735   2.452   7.505 -0.9219  0.7479  0.6209
  900MOL0     C18721   9.855   2.439   7.433 -0.2200  0.7897  0.1567
  900MOL0     C18722  10.118   2.520   7.046  0.2422  0.2656 -0.4318
  900MOL0     C18723  10.142   2.527   6.908  0.1479 -0.0221  0.6657
  900MOL0     C18724  10.268   2.579   6.862 -0.0420 -0.1639 -0.6493
  900MOL0     C18725  10.374   2.595   6.952  0.7848  0.5119  0.3028
  900MOL0     O18726  10.496   2.627   6.915 -0.1108  0.5746 -0.0525
  900MOL0     C18727  10.501   2.766   6.874 -0.6753  1.2643  0.4403
  900MOL0     C18728  10.635   2.800   6.808  1.1974  0.0556  0.3328
  900MOL0     C18729  10.758   2.792   6.902 -0.0779 -0.1308  0.5032
  900MOL0     C18730  10.742   2.887   7.020  0.5549  0.8251  0.0609
  900MOL0     C18731  10.877   2.901   7.078 -0.0190 -0.2902  0.0044
  900MOL0     C18732  10.984   2.916   7.137  0.2214  0.2718  0.3048
  900MOL0     C18733  10.348   2.576   7.099  0.3945  0.8273  0.1967
  900MOL0     C18734  10.220   2.556   7.140 -0.3071 -0.5065 -0.8563
  900MOL0     H18735   9.732   2.604   7.155 -0.2771 -0.9806  0.0672
  900MOL0     H18736   9.539   2.604   7.290 -1.4292 -4.0018 -1.0977
  900MOL0     H18737   9.390   2.609   7.436  2.5422 -0.2251 -0.7652
  900MOL0     H18738   9.490   2.687   7.565  0.3493 -0.3832  0.6746
  900MOL0     H18739   9.373   2.568   7.736 -0.5549  2.1719  0.1627
  900MOL0     H18740   9.276   2.469   7.624  0.5246 -0.1270  0.7919
  900MOL0     H18741   9.136   2.679   7.548 -3.7644 -0.0819  2.8924
  900MOL0     H18742   9.256   2.777   7.617 -3.0977  0.3145 -0.1197
  900MOL0     H18743   9.093   2.594   7.802  3.8729 -0.5212  3.9652
  900MOL0     H18744   9.211   2.717   7.844  2.2678  0.3060 -1.7405
  900MOL0     H18745   9.076   2.897   7.766  0.4075  0.2580  2.7897
  900MOL0     H18746   8.991   2.800   7.881  1.0783 -2.8958  1.0031
  900MOL0     H18747   8.840   2.705   7.711 -0.8432  0.1816 -0.9295
  900MOL0     H18748   8.933   2.771   7.579  1.1285 -2.1630  0.9640
  900MOL0     H18749   8.795   2.945   7.791  1.2291 -2.2987  0.7997
  900MOL0     H18750   8.879   2.996   7.645 -1.0768 -1.0491 -1.7926
  900MOL0     H18751   8.639   2.794   7.635 -0.6531 -0.3960 -0.3510
  900MOL0     H18752   8.704   2.869   7.501 -1.8307  0.6008  0.1333
  900MOL0     H18753   8.490   2.972   7.435  0.7801 -0.5395 -0.7560
  900MOL0     H18754   8.393   3.252   7.366  0.0342  1.1239  0.0776
  900MOL0     H18755   8.341   3.305   7.520  1.3761  1.4551 -1.5977
  900MOL0     H18756   8.159   3.189   7.512  2.8857  1.9539  0.3187
  900MOL0     H18757   8.246   3.040   7.502 -0.7535 -1.1669  0.1620
  900MOL0     H18758   8.217   3.238   7.263 -2.3362  0.6176 -0.3334
  900MOL0     H18759   8.260   3.067   7.247  0.3193  1.6080  0.3113
  900MOL0     H18760   8.024   3.104   7.172 -1.9982  3.0745  0.0486
  900MOL0     H18761   7.979   3.170   7.335  0.2212 -2.0783  2.6879
  900MOL0     H18762   7.768   3.090   7.339  1.5243 -0.5100 -1.0293
  900MOL0     H18763   7.553   2.984   7.288 -1.0182 -0.7118  0.0557
  900MOL0     H18764   7.190   2.915   7.248  1.0011  0.0738 -0.2389
  900MOL0     H18765   6.970   2.893   7.176  1.4369  0.3762  3.3779
  900MOL0     H18766   6.855   2.764   6.855  1.5272  0.0836  0.7981
  900MOL0     H18767   6.800   2.862   6.991  1.8658 -0.5888 -0.6899
  900MOL0     H18768   6.667   2.584   6.910 -1.0535  0.4166 -2.5460
  900MOL0     H18769   6.609   2.735   6.848  0.0481  0.3085  0.9156
  900MOL0     H18770   6.584   2.819   7.071  1.1373 -0.2514 -1.0487
  900MOL0     H18771   6.599   2.645   7.131  1.3725  0.2027 -0.9087
  900MOL0     H18772   6.408   2.768   6.928  1.8126  0.8018  1.0222
  900MOL0     H18773   6.397   2.597   6.951 -0.0840 -0.7895  2.2121
  900MOL0     H18774   6.320   2.800   7.152  0.6339  1.7801 -3.3249
  900MOL0     H18775   6.324   2.617   7.175 -1.9368 -1.0055 -0.8531
  900MOL0     H18776   6.168   2.625   6.964  0.3437  0.5078 -0.0471
  900MOL0     H18777   6.153   2.798   6.986  1.3451  0.0607 -1.8073
  900MOL0     H18778   6.061   2.588   7.187  1.3845 -0.7022  0.0477
  900MOL0     H18779   6.134   2.732   7.249 -0.0015  0.4372 -0.5400
  900MOL0     H18780   5.963   2.867   7.130  1.3233  0.2199  2.1244
  900MOL0     H18781   5.889   2.762   7.244 -3.8234 -0.4425 -1.8960
  900MOL0     H18782   7.071   2.526   6.970 -0.2933  0.2337 -0.0702
  900MOL0     H18783   7.300   2.561   7.021 -2.1779 -1.6638  2.7178
  900MOL0     H18784   7.757   2.638   7.163 -2.7372 -0.5295  1.2115
  900MOL0     H18785   7.977   2.732   7.211 -1.5504 -2.6373 -0.3045
  900MOL0     H18786   9.731   2.406   7.603  2.5720 -0.4515  0.3322
  900MOL0     H18787   9.931   2.377   7.479 -1.8223 -1.6350 -0.2475
  900MOL0     H18788  10.072   2.498   6.831  0.0951  1.2191  0.2171
  900MOL0     H18789  10.289   2.590   6.756  0.0442 -0.5225 -0.6712
  900MOL0     H18790  10.471   2.840   6.948 -0.1530  1.9895 -0.0596
  900MOL0     H18791  10.429   2.787   6.794  0.7916  1.6391 -0.8502
  900MOL0     H18792  10.657   2.731   6.726  3.9359 -2.9842  3.2766
  900MOL0     H18793  10.617   2.900   6.768 -3.7974 -1.5356 -2.1935
  900MOL0     H18794  10.845   2.818   6.840 -0.2068  1.6176  1.0140
  900MOL0     H18795  10.778   2.691   6.939  1.4488  0.6819  1.9811
  900MOL0     H18796  10.693   2.981   6.995 -0.4585  0.0281 -1.0830
  900MOL0     H18797  10.685   2.837   7.099  0.0132 -1.9463 -1.9118
  900MOL0     H18798  11.084   2.933   7.169  0.5307 -0.0705 -0.4580
  900MOL0     H18799  10.420   2.577   7.180  0.0260  0.6206  0.5286
  900MOL0     H18800  10.216   2.555   7.249  0.1411  1.0209 -0.8010
  901MOL0     O18801  10.976   4.905   8.013  0.1738 -0.2105  0.2614
  901MOL0     C18802  10.997   4.856   8.121 -0.7260  0.0338 -0.5872
  901MOL0     O18803  10.899   4.812   8.220 -0.1943  0.4334  0.1930
  901MOL0     C18804  10.767   4.829   8.210 -0.3303 -0.5591  0.5479
  901MOL0     C18805  10.694   4.819   8.329 -0.9873  0.2956 -0.6715
  901MOL0     C18806  10.549   4.826   8.324  0.2068  0.3099 -0.1761
  901MOL0     C18807  10.486   4.828   8.199  0.7305  0.7137  1.1985
  901MOL0     O18808  10.353   4.836   8.193 -0.1596 -0.6089  0.0246
  901MOL0     C18809  10.290   4.810   8.067 -0.1759  0.2080  0.3935
  901MOL0     C18810  10.145   4.834   8.076  0.2440 -0.4774 -0.4422
  901MOL0     C18811  10.074   4.719   8.155 -0.4745 -0.0444  0.3453
  901MOL0     C18812   9.931   4.703   8.126 -0.0614 -0.4159  0.2164
  901MOL0     C18813   9.899   4.558   8.118 -0.0338 -0.4248  0.6242
  901MOL0     C18814   9.761   4.539   8.058 -0.6889 -0.0596 -0.3244
  901MOL0     C18815   9.640   4.575   8.149 -0.6073 -0.2777 -0.3898
  901MOL0     C18816   9.497   4.578   8.094  0.1307 -0.1192 -0.8711
  901MOL0     N18817   9.417   4.642   8.199 -0.1616 -0.3818 -0.6674
  901MOL0     C18818   9.412   4.614   8.339 -0.1719  0.6244 -0.0263
  901MOL0     C18819   9.300   4.661   8.381  0.1862 -0.2955 -0.1079
  901MOL0     C18820   9.245   4.654   8.527 -0.0965  0.3972  0.8849
  901MOL0     C18821   9.096   4.663   8.540 -0.3539 -0.6711 -0.4344
  901MOL0     C18822   9.048   4.589   8.666 -0.0795  0.1513  0.1737
  901MOL0     C18823   8.893   4.613   8.674 -0.5908 -0.8337 -0.9703
  901MOL0     O18824   8.864   4.751   8.706  0.1011  0.0595  0.2578
  901MOL0     C18825   8.737   4.781   8.753 -0.5589 -0.6631 -0.8007
  901MOL0     C18826   8.634   4.689   8.780 -0.3551 -0.1482 -0.7057
  901MOL0     C18827   8.510   4.734   8.822  0.9339 -0.4956 -1.0994
  901MOL0     C18828   8.480   4.869   8.840 -0.7171 -1.2989 -0.0959
  901MOL0     C18829   8.337   4.913   8.886  0.7752  0.6562  0.0915
  901MOL0     O18830   8.253   4.808   8.896  0.4455  0.0507 -0.3762
  901MOL0     C18831   8.135   4.822   8.961 -0.8134 -0.4746  0.8055
  901MOL0     C18832   8.013   4.815   8.894 -0.2662  0.3264 -0.6387
  901MOL0     C18833   7.887   4.819   8.959  0.5698  0.1324 -0.3287
  901MOL0     C18834   7.889   4.843   9.092  0.3947  0.2522 -0.8754
  901MOL0     O18835   7.762   4.853   9.151 -0.5314 -0.5505  0.4910
  901MOL0     C18836   7.744   4.821   9.288  0.0738  0.2355  0.0635
  901MOL0     C18837   7.598   4.825   9.327  0.2086 -0.3378  0.8429
  901MOL0     C18838   7.526   4.697   9.280 -0.7135  0.3633  0.1423
  901MOL0     C18839   7.378   4.710   9.298  0.0241  0.2903 -0.6300
  901MOL0     C18840   7.301   4.582   9.250 -1.6945 -0.8286  0.0879
  901MOL0     C18841   7.158   4.575   9.314 -0.5773  0.1179 -0.3871
  901MOL0     C18842   7.093   4.442   9.284  0.0305 -0.3581  0.1941
  901MOL0     C18843   6.947   4.430   9.331 -0.0291  0.2499 -0.4629
  901MOL0    Cl18844   6.829   4.544   9.258  0.1428 -0.1828 -0.2377
  901MOL0     C18845   8.015   4.868   9.160  1.2909  0.0081  0.3583
  901MOL0     C18846   8.133   4.849   9.098  0.1525 -0.2272 -0.1944
  901MOL0     O18847   8.305   5.028   8.913  0.0201 -0.2579 -0.4011
  901MOL0     C18848   8.583   4.960   8.812 -0.4098  0.4314 -0.4256
  901MOL0     C18849   8.707   4.915   8.774 -0.4758 -0.5090  0.0774
  901MOL0     N18850   9.231   4.722   8.279 -0.1008  0.6007  0.3488
  901MOL0     N18851   9.306   4.709   8.173  0.5447  0.3358  0.2874
  901MOL0     C18852  10.565   4.837   8.083 -0.2455 -0.1168  0.2429
  901MOL0     C18853  10.704   4.821   8.089 -0.3805 -0.0013  0.0989
  901MOL0     C18854  11.142   4.850   8.161  0.7353 -0.6055  0.4724
  901MOL0     C18855  11.180   4.760   8.263 -1.0325  0.7297 -0.2687
  901MOL0     C18856  11.312   4.741   8.299 -0.4202 -1.3401  0.2279
  901MOL0     C18857  11.412   4.814   8.241  0.5439  0.4875 -0.4808
  901MOL0     O18858  11.547   4.785   8.259 -0.2364  0.4108  0.1265
  901MOL0     C18859  11.599   4.732   8.385 -0.0478 -0.0067 -0.0301
  901MOL0     C18860  11.745   4.771   8.380 -0.2631  0.2230  0.1067
  901MOL0     C18861  11.840   4.693   8.481 -0.6129 -0.4905  0.1862
  901MOL0     C18862  11.801   4.720   8.622  0.3160  0.8424 -0.1659
  901MOL0     C18863  11.917   4.699   8.702 -0.2934 -0.0616 -0.0519
  901MOL0     C18864  11.998   4.689   8.783 -0.8554 -0.0029 -0.0697
  901MOL0     C18865  11.375   4.908   8.146 -0.8752  0.3278  0.5233
  901MOL0     C18866  11.242   4.922   8.100  0.1588 -0.8806  0.3802
  901MOL0     H18867  10.744   4.805   8.424  0.8735 -1.4495 -1.8297
  901MOL0     H18868  10.499   4.839   8.419 -0.0370  2.2651 -0.5400
  901MOL0     H18869  10.306   4.711   8.022  0.6612  1.0141 -1.1448
  901MOL0     H18870  10.335   4.876   7.992  0.0714 -3.4027 -2.9674
  901MOL0     H18871  10.097   4.838   7.977  1.7759 -0.0931 -1.1882
  901MOL0     H18872  10.127   4.925   8.132  2.9329 -0.6319  0.8211
  901MOL0     H18873  10.092   4.718   8.263  2.9808 -0.0913 -0.1221
  901MOL0     H18874  10.124   4.626   8.124 -0.6468 -0.2198  0.5894
  901MOL0     H18875   9.864   4.754   8.195 -1.4183 -2.3288  0.4102
  901MOL0     H18876   9.893   4.742   8.031 -3.6193 -1.9621  0.8623
  901MOL0     H18877   9.916   4.496   8.206 -0.8540  0.5543  1.4996
  901MOL0     H18878   9.974   4.517   8.049  0.6861 -0.8440  1.6280
  901MOL0     H18879   9.759   4.433   8.029 -2.1180  0.2011 -1.3079
  901MOL0     H18880   9.758   4.600   7.967  2.3099  1.6083  0.5909
  901MOL0     H18881   9.646   4.517   8.241  2.4606  0.6840  0.1223
  901MOL0     H18882   9.670   4.675   8.182  0.1058 -0.5803 -0.1047
  901MOL0     H18883   9.466   4.474   8.076  0.5371 -0.6439  1.1428
  901MOL0     H18884   9.496   4.639   8.004 -0.0188  1.0130 -0.1189
  901MOL0     H18885   9.477   4.565   8.410 -0.9740  2.4557  2.0637
  901MOL0     H18886   9.295   4.731   8.586 -1.3028  2.0460 -0.1863
  901MOL0     H18887   9.285   4.563   8.573  1.0561  1.9161  3.1108
  901MOL0     H18888   9.059   4.606   8.455  0.5322 -3.0139  0.6596
  901MOL0     H18889   9.073   4.770   8.544 -1.3990 -0.9053  2.8390
  901MOL0     H18890   9.071   4.484   8.652  0.7302  0.4866 -1.1718
  901MOL0     H18891   9.095   4.621   8.759 -3.3351 -0.1051  2.0935
  901MOL0     H18892   8.856   4.553   8.758  0.1203 -1.0273 -0.7930
  901MOL0     H18893   8.833   4.583   8.588 -1.3759  0.8693 -1.0735
  901MOL0     H18894   8.652   4.584   8.762 -2.6088 -0.4347 -1.7229
  901MOL0     H18895   8.439   4.655   8.843 -1.5345  1.4525 -1.5399
  901MOL0     H18896   8.002   4.801   8.787 -1.6668  3.4198 -1.0142
  901MOL0     H18897   7.791   4.813   8.909  0.7151 -3.7106 -0.4594
  901MOL0     H18898   7.793   4.889   9.358 -0.8448  1.6636 -0.6305
  901MOL0     H18899   7.788   4.724   9.314 -2.7730 -1.3335 -0.5010
  901MOL0     H18900   7.555   4.918   9.287  0.1167 -1.0099 -0.7028
  901MOL0     H18901   7.599   4.833   9.436  0.2345 -1.2677  0.9191
  901MOL0     H18902   7.567   4.613   9.336 -4.3600 -0.8327  1.2735
  901MOL0     H18903   7.542   4.672   9.175  0.1841  0.9048  0.1375
  901MOL0     H18904   7.372   4.731   9.405  3.5628 -0.6272 -0.1185
  901MOL0     H18905   7.346   4.795   9.236  1.0768 -0.7460 -2.6936
  901MOL0     H18906   7.358   4.496   9.287 -1.2091 -0.6741 -0.2898
  901MOL0     H18907   7.299   4.565   9.142 -2.0712 -2.5363  0.3415
  901MOL0     H18908   7.102   4.658   9.270 -2.7074  0.5494  2.7974
  901MOL0     H18909   7.152   4.591   9.422  0.4570 -1.5775 -0.0438
  901MOL0     H18910   7.099   4.416   9.178  1.2283 -1.0973  0.4296
  901MOL0     H18911   7.155   4.367   9.332 -1.4638 -0.0673  2.7797
  901MOL0     H18912   6.953   4.444   9.439 -0.1484 -0.8552 -0.3051
  901MOL0     H18913   6.927   4.325   9.307  0.5658 -0.1174  0.5788
  901MOL0     H18914   8.022   4.882   9.267  1.6894 -2.5098  0.7297
  901MOL0     H18915   8.225   4.870   9.150 -1.1612 -0.1569  2.2476
  901MOL0     H18916   8.554   5.064   8.827  0.5016  0.3902  2.1329
  901MOL0     H18917   8.779   4.990   8.745 -0.3962  0.4862  2.6032
  901MOL0     H18918  10.530   4.848   7.981  0.0010  0.3451  0.2055
  901MOL0     H18919  10.750   4.810   7.992  0.2370 -0.9162  0.4811
  901MOL0     H18920  11.114   4.689   8.312  0.0856  1.0854  1.8337
  901MOL0     H18921  11.346   4.675   8.379  1.6308 -0.2120  0.3469
  901MOL0     H18922  11.583   4.624   8.389 -2.2659  0.2866  0.0925
  901MOL0     H18923  11.547   4.774   8.472  0.4309  0.4680  0.0312
  901MOL0     H18924  11.779   4.747   8.279  1.7806 -4.1149  1.5589
  901MOL0     H18925  11.752   4.877   8.405  0.4910 -0.3838  2.8502
  901MOL0     H18926  11.945   4.720   8.466 -0.8477 -0.5907 -2.0503
  901MOL0     H18927  11.833   4.587   8.456 -0.1326 -0.5397  0.2516
  901MOL0     H18928  11.774   4.826   8.632  4.2594  2.2740 -2.3486
  901MOL0     H18929  11.717   4.658   8.653  1.1756 -0.7700 -0.9638
  901MOL0     H18930  12.077   4.672   8.853 -2.6648 -2.4282  1.5838
  901MOL0     H18931  11.452   4.965   8.096 -0.2563  1.4155  2.5947
  901MOL0     H18932  11.221   4.984   8.013  0.2402 -0.2426  0.8094
  902MOL0     O18933   5.803   8.999   8.902  0.1272  0.1167 -0.1057
  902MOL0     C18934   5.865   9.021   9.006  0.1279 -0.3872 -0.4455
  902MOL0     O18935   5.807   9.008   9.131  0.1077 -0.3853 -0.4056
  902MOL0     C18936   5.687   9.072   9.166 -0.3196 -0.3113 -0.0276
  902MOL0     C18937   5.622   9.157   9.078 -0.2754 -0.0722 -0.9958
  902MOL0     C18938   5.510   9.230   9.114  0.5312 -0.4814 -0.2064
  902MOL0     C18939   5.442   9.207   9.236  0.4618 -1.1878  0.1311
  902MOL0     O18940   5.337   9.288   9.268 -0.4087 -0.2598  0.1884
  902MOL0     C18941   5.224   9.208   9.302 -0.4620  1.1453 -0.0726
  902MOL0     C18942   5.112   9.313   9.320  0.6427 -0.1439 -0.0899
  902MOL0     C18943   5.126   9.374   9.457  0.4273  0.0103  0.1030
  902MOL0     C18944   5.013   9.482   9.482 -0.7597 -1.3322  0.0544
  902MOL0     C18945   4.874   9.433   9.499  0.4736  0.2318 -0.1012
  902MOL0     C18946   4.861   9.341   9.623 -0.0703  0.3832  0.4880
  902MOL0     C18947   4.721   9.305   9.667  0.1767  0.5187  0.4631
  902MOL0     C18948   4.648   9.202   9.575  0.5007 -0.4207  0.0124
  902MOL0     N18949   4.521   9.148   9.635 -0.4773  0.2901  0.1092
  902MOL0     C18950   4.401   9.201   9.649  0.9064 -0.3644 -0.3769
  902MOL0     C18951   4.322   9.106   9.715 -0.4538 -0.2121 -0.0994
  902MOL0     C18952   4.185   9.137   9.765  0.4124  1.2720  0.1746
  902MOL0     C18953   4.086   9.044   9.693 -0.6425 -0.5166 -0.1168
  902MOL0     C18954   4.071   9.104   9.559  0.1023 -0.1441 -0.1512
  902MOL0     C18955   3.935   9.077   9.492  0.4061 -0.6427 -0.6263
  902MOL0     O18956   3.836   9.151   9.578 -0.0427 -0.1862  0.0289
  902MOL0     C18957   3.702   9.144   9.548  0.1816 -0.4389 -0.1900
  902MOL0     C18958   3.614   9.190   9.645 -0.2247  0.1185 -0.0504
  902MOL0     C18959   3.475   9.181   9.641  0.4696  0.9996  0.3820
  902MOL0     C18960   3.426   9.108   9.527 -0.1471 -0.3081  0.3207
  902MOL0     C18961   3.278   9.100   9.512  0.3034  1.0412  0.5007
  902MOL0     O18962   3.236   8.998   9.419 -0.1841  1.4846  0.3660
  902MOL0     C18963   3.103   8.962   9.415 -0.3986  0.3387  0.9255
  902MOL0     C18964   3.064   8.886   9.300  1.2354  0.5155  0.8917
  902MOL0     C18965   2.931   8.840   9.286  0.6591 -0.0265  0.0617
  902MOL0     C18966   2.835   8.858   9.388 -1.2313 -0.7473  0.4101
  902MOL0     O18967   2.712   8.800   9.373  0.2381 -0.4463 -0.1971
  902MOL0     C18968   2.616   8.879   9.308 -0.0834 -0.5413  0.3745
  902MOL0     C18969   2.479   8.819   9.329 -0.0207 -0.2451  0.5822
  902MOL0     C18970   2.436   8.806   9.479 -0.3955 -0.5000 -0.3506
  902MOL0     C18971   2.290   8.766   9.470 -0.3518  0.7996 -0.5561
  902MOL0     C18972   2.271   8.668   9.586 -0.1975 -0.3013  0.1897
  902MOL0     C18973   2.126   8.609   9.604 -0.7859 -0.1747  0.0644
  902MOL0     C18974   2.102   8.521   9.729 -0.3014 -0.0792 -0.0816
  902MOL0     C18975   2.119   8.363   9.707  0.1435  0.2596  1.0665
  902MOL0    Cl18976   2.020   8.307   9.576  0.1384  0.6797  0.2899
  902MOL0     C18977   2.876   8.929   9.497 -0.5452  0.0926 -0.8508
  902MOL0     C18978   3.011   8.971   9.518  0.0706 -0.4161  0.1336
  902MOL0     O18979   3.202   9.173   9.571  0.3398 -0.6624  0.1625
  902MOL0     C18980   3.517   9.073   9.424  0.1679  0.0711 -0.1829
  902MOL0     C18981   3.655   9.084   9.433  0.5993  0.4491  0.4125
  902MOL0     N18982   4.403   8.995   9.738 -0.5932  0.1093 -0.7163
  902MOL0     N18983   4.528   9.027   9.689  0.1772  0.4798  0.4701
  902MOL0     C18984   5.503   9.117   9.323  0.3086 -0.4685  0.4671
  902MOL0     C18985   5.624   9.053   9.290  0.7163 -0.7697  0.7252
  902MOL0     C18986   6.008   9.029   8.995 -0.2899 -0.1899  0.3567
  902MOL0     C18987   6.097   9.009   9.104 -0.2814 -0.5130  0.3921
  902MOL0     C18988   6.231   9.001   9.091 -0.3031 -0.2621 -0.0934
  902MOL0     C18989   6.287   9.022   8.967 -0.8280 -0.1565  0.2923
  902MOL0     O18990   6.419   9.025   8.938 -0.1441  0.2084 -0.2098
  902MOL0     C18991   6.503   8.920   8.990 -0.8016 -0.6572 -0.6672
  902MOL0     C18992   6.573   8.970   9.115 -0.4160 -0.5460  0.0843
  902MOL0     C18993   6.671   9.089   9.097 -0.3241 -0.4705 -0.0234
  902MOL0     C18994   6.617   9.228   9.112  0.7444 -0.6459 -0.1406
  902MOL0     C18995   6.534   9.250   9.232  0.3341  0.3400 -0.1670
  902MOL0     C18996   6.464   9.241   9.338  0.3583 -0.7349 -0.2724
  902MOL0     C18997   6.207   9.042   8.857 -0.5515 -0.0711  0.5209
  902MOL0     C18998   6.068   9.046   8.870  1.4651 -0.2214 -0.1841
  902MOL0     H18999   5.662   9.195   8.985  0.6938  1.0411 -0.1685
  902MOL0     H19000   5.478   9.314   9.053  0.7165 -0.2683 -0.0111
  902MOL0     H19001   5.254   9.158   9.395 -1.6940  0.3868 -0.0715
  902MOL0     H19002   5.206   9.140   9.219  2.1482 -1.2690  1.1735
  902MOL0     H19003   5.019   9.255   9.318  0.2454  0.4088  1.1740
  902MOL0     H19004   5.114   9.389   9.242 -3.9540  2.0560  1.5542
  902MOL0     H19005   5.219   9.429   9.473  0.6136 -0.5266  0.9102
  902MOL0     H19006   5.141   9.291   9.526 -1.3265 -0.5160 -0.1160
  902MOL0     H19007   5.047   9.545   9.565  1.6733  0.6686 -2.2966
  902MOL0     H19008   5.023   9.545   9.393  3.0884  0.0437  1.2446
  902MOL0     H19009   4.845   9.365   9.418 -0.3452 -2.0021  1.9262
  902MOL0     H19010   4.797   9.510   9.498  2.1780  2.0127 -1.6421
  902MOL0     H19011   4.902   9.401   9.704 -0.2388  1.7752 -0.4207
  902MOL0     H19012   4.923   9.254   9.603 -0.9927  0.0911 -1.3279
  902MOL0     H19013   4.729   9.252   9.763 -0.4689  0.7337  0.6356
  902MOL0     H19014   4.661   9.395   9.678 -1.2381  0.3106 -3.7479
  902MOL0     H19015   4.718   9.122   9.551  0.1351 -0.6596 -0.2635
  902MOL0     H19016   4.622   9.256   9.484  0.7868  2.5783  1.5638
  902MOL0     H19017   4.373   9.302   9.621  1.7366 -0.5208 -1.8776
  902MOL0     H19018   4.155   9.239   9.740 -3.4232  0.5238  1.1098
  902MOL0     H19019   4.169   9.132   9.873 -2.5651 -1.0641 -0.2285
  902MOL0     H19020   3.993   9.056   9.749 -0.4125  1.7378 -0.1241
  902MOL0     H19021   4.103   8.936   9.696  2.0958 -0.2619 -2.4108
  902MOL0     H19022   4.091   9.211   9.560  1.5949 -0.4029  0.0990
  902MOL0     H19023   4.153   9.066   9.497  2.1607  1.6175  1.3307
  902MOL0     H19024   3.917   8.969   9.492  0.2983 -0.6281 -0.3943
  902MOL0     H19025   3.935   9.124   9.394 -1.0865 -1.9142 -1.2743
  902MOL0     H19026   3.658   9.236   9.734  0.0499  2.9942 -1.5667
  902MOL0     H19027   3.416   9.229   9.719  0.8821  3.8401 -0.9326
  902MOL0     H19028   3.138   8.874   9.221 -0.1166 -3.4552  0.0120
  902MOL0     H19029   2.910   8.801   9.187  0.2691  1.4431 -0.4651
  902MOL0     H19030   2.647   8.884   9.203  0.5476  0.7536  0.6041
  902MOL0     H19031   2.609   8.976   9.359 -2.6333 -0.6679  0.3981
  902MOL0     H19032   2.465   8.726   9.274 -0.3368  0.7992 -1.1920
  902MOL0     H19033   2.414   8.887   9.272  2.0024  0.5877 -0.8526
  902MOL0     H19034   2.439   8.905   9.526  1.2847  0.7404 -2.8007
  902MOL0     H19035   2.502   8.740   9.534 -1.3819 -0.9392  0.3288
  902MOL0     H19036   2.226   8.853   9.491 -1.4046 -0.5464  2.3543
  902MOL0     H19037   2.258   8.724   9.374  0.3704  3.3580 -2.0328
  902MOL0     H19038   2.288   8.722   9.679  0.0918  1.4684 -0.8357
  902MOL0     H19039   2.344   8.587   9.582 -1.1482 -1.5232  4.0205
  902MOL0     H19040   2.102   8.549   9.516  2.6177 -0.4372 -0.8380
  902MOL0     H19041   2.063   8.698   9.615  0.0747  0.3724  0.7285
  902MOL0     H19042   2.151   8.557   9.820  2.3592 -0.8080 -1.1249
  902MOL0     H19043   1.996   8.537   9.752 -0.9510  2.7431 -4.0150
  902MOL0     H19044   2.092   8.311   9.800 -2.4152  0.4194  0.4599
  902MOL0     H19045   2.224   8.349   9.677  0.2130  1.3958  0.7446
  902MOL0     H19046   2.809   8.941   9.582  2.7366 -0.2970  2.0325
  902MOL0     H19047   3.033   9.024   9.610 -0.5299 -1.5966  0.9878
  902MOL0     H19048   3.482   9.022   9.336  1.4067 -4.1360  1.5408
  902MOL0     H19049   3.721   9.046   9.357 -0.8496  0.3167 -0.8294
  902MOL0     H19050   5.459   9.106   9.421 -0.3516  2.5846  0.5981
  902MOL0     H19051   5.673   8.994   9.367 -0.2951 -1.1466  1.0957
  902MOL0     H19052   6.045   8.983   9.196  1.7501 -2.9988  0.9267
  902MOL0     H19053   6.281   8.986   9.187 -3.9039 -0.3100  1.9469
  902MOL0     H19054   6.567   8.885   8.909 -0.0164  1.8132 -1.2096
  902MOL0     H19055   6.431   8.844   9.022  0.3961 -1.2990  0.6587
  902MOL0     H19056   6.494   8.988   9.188 -0.3951  3.1902 -0.6040
  902MOL0     H19057   6.628   8.886   9.158 -0.8026 -1.1213 -0.5196
  902MOL0     H19058   6.716   9.081   8.997 -0.8599 -2.3858 -0.1383
  902MOL0     H19059   6.753   9.081   9.168  1.3377  2.5259 -1.3709
  902MOL0     H19060   6.706   9.292   9.106 -0.5653  1.2106 -0.5168
  902MOL0     H19061   6.550   9.250   9.028  0.2355 -2.2690 -0.1885
  902MOL0     H19062   6.405   9.218   9.424  1.3910 -1.0807  0.3644
  902MOL0     H19063   6.264   9.068   8.768  0.7016 -0.4610  1.1825
  902MOL0     H19064   6.014   9.051   8.776 -1.2430 -0.3139  1.2718
  903MOL0     O19065   4.834  10.730   0.658 -0.8667  0.0250  0.2527
  903MOL0     C19066   4.949  10.689   0.682  0.1463 -0.3590 -0.4036
  903MOL0     O19067   4.995  10.557   0.679 -0.0888  0.0857 -0.2272
  903MOL0     C19068   4.893  10.476   0.636 -0.2401  0.1573 -0.0394
  903MOL0     C19069   4.886  10.420   0.505 -0.0277  0.2257  0.2639
  903MOL0     C19070   4.778  10.335   0.456 -0.8221  0.1083 -0.1318
  903MOL0     C19071   4.706  10.272   0.548  0.4815  0.0563 -0.2278
  903MOL0     O19072   4.601  10.184   0.521  0.1033 -0.3987  0.1461
  903MOL0     C19073   4.561  10.168   0.381 -0.5462 -1.2478 -0.3459
  903MOL0     C19074   4.458  10.071   0.365  0.8134  0.3050 -0.9814
  903MOL0     C19075   4.332  10.140   0.305 -1.6974  0.9973  0.0357
  903MOL0     C19076   4.217  10.042   0.294  0.9091  0.9146  1.4153
  903MOL0     C19077   4.098  10.116   0.226 -0.7656 -0.9935  0.0380
  903MOL0     C19078   3.981  10.015   0.214 -0.5202  0.0424 -0.5064
  903MOL0     C19079   3.878  10.076   0.126 -0.0120  0.3432 -0.9109
  903MOL0     C19080   3.908  10.046  -0.029  0.9135 -0.4076  0.2791
  903MOL0     N19081   3.867  10.162  -0.108  0.3726 -0.0863 -0.1308
  903MOL0     C19082   3.947  10.275  -0.124 -0.4043 -0.5735 -0.5410
  903MOL0     C19083   3.878  10.353  -0.203  0.0455  0.0414 -0.2157
  903MOL0     C19084   3.917  10.490  -0.263  0.4846 -0.6009 -0.3847
  903MOL0     C19085   4.065  10.516  -0.273 -0.0361 -0.0785 -0.1772
  903MOL0     C19086   4.088  10.622  -0.373 -0.2903  0.0682 -0.3737
  903MOL0     C19087   4.238  10.640  -0.394  0.2887 -0.2489  0.6091
  903MOL0     O19088   4.326  10.651  -0.277 -0.6012  0.1760 -0.0787
  903MOL0     C19089   4.449  10.712  -0.304 -0.2865 -1.1413 -0.1463
  903MOL0     C19090   4.532  10.763  -0.200  0.6941 -1.0464 -0.9800
  903MOL0     C19091   4.661  10.816  -0.208  0.2237  0.3227  0.3632
  903MOL0     C19092   4.709  10.820  -0.344  0.2373  0.2893  0.3714
  903MOL0     C19093   4.836  10.880  -0.381  0.3216  0.7128  0.3217
  903MOL0     O19094   4.923  10.913  -0.273  0.3284  0.4074  0.3116
  903MOL0     C19095   5.052  10.970  -0.285  0.1270  0.2649  0.3329
  903MOL0     C19096   5.109  11.000  -0.164  0.3001 -0.1866 -1.3222
  903MOL0     C19097   5.238  11.050  -0.153 -0.0393  0.3920 -0.3928
  903MOL0     C19098   5.323  11.057  -0.264  0.0761  0.9815  0.2216
  903MOL0     O19099   5.449  11.116  -0.276  0.5887  0.2346  0.6665
  903MOL0     C19100   5.512  11.171  -0.161  0.6133  0.0088 -0.1386
  903MOL0     C19101   5.665  11.186  -0.174  0.0510 -0.1205 -0.2993
  903MOL0     C19102   5.732  11.238  -0.042  1.2290  0.6497 -0.6443
  903MOL0     C19103   5.879  11.259  -0.057  0.3181 -1.0615  0.6221
  903MOL0     C19104   5.953  11.310   0.075 -0.6308  0.1649 -0.0773
  903MOL0     C19105   5.946  11.461   0.092 -0.0351 -0.0826 -0.8809
  903MOL0     C19106   5.996  11.530   0.226  0.3231 -0.3393 -0.0443
  903MOL0     C19107   6.143  11.540   0.228  0.1476  0.0372 -0.7915
  903MOL0    Cl19108   6.192  11.623   0.382 -0.2002  0.5087 -0.2970
  903MOL0     C19109   5.261  11.018  -0.386  0.1031 -0.3299 -0.3297
  903MOL0     C19110   5.130  10.979  -0.403  0.3434 -0.2430 -0.4654
  903MOL0     O19111   4.865  10.880  -0.498  0.2712 -1.0665  0.3791
  903MOL0     C19112   4.627  10.767  -0.453  1.2119 -0.3884  0.0367
  903MOL0     C19113   4.508  10.710  -0.436 -0.0800 -0.3569 -0.0823
  903MOL0     N19114   3.764  10.284  -0.243 -0.5075  0.1915  0.4909
  903MOL0     N19115   3.753  10.172  -0.178 -0.2979  0.2046  0.4683
  903MOL0     C19116   4.726  10.294   0.686  0.3931  0.0471 -0.9528
  903MOL0     C19117   4.814  10.398   0.727  0.3233 -0.3305 -0.4704
  903MOL0     C19118   5.061  10.788   0.669  0.1469  0.1410 -0.0133
  903MOL0     C19119   5.178  10.771   0.745 -0.6426  0.0147  0.8677
  903MOL0     C19120   5.292  10.852   0.738 -0.5872 -0.4733  0.1454
  903MOL0     C19121   5.285  10.960   0.652 -0.3091  0.3014 -0.2956
  903MOL0     O19122   5.391  11.045   0.656  0.4251 -0.1384  0.5818
  903MOL0     C19123   5.380  11.166   0.725 -0.6915 -0.5269  0.0975
  903MOL0     C19124   5.444  11.160   0.866  0.3958  0.4864  0.3054
  903MOL0     C19125   5.580  11.090   0.891 -1.0566 -0.1501  0.3318
  903MOL0     C19126   5.698  11.168   0.833 -0.7648 -0.4709 -0.1624
  903MOL0     C19127   5.737  11.278   0.926 -0.1729  0.6783  0.2594
  903MOL0     C19128   5.751  11.370   1.003 -0.0592  0.5241  0.1358
  903MOL0     C19129   5.169  10.983   0.578  0.6774 -0.5543 -0.4137
  903MOL0     C19130   5.053  10.907   0.591 -0.2106  0.3932  0.2354
  903MOL0     H19131   4.956  10.463   0.434  2.1037  0.0148  2.1127
  903MOL0     H19132   4.755  10.315   0.351 -1.2278 -1.1747  0.1824
  903MOL0     H19133   4.641  10.133   0.315 -0.8409  0.4749 -1.6925
  903MOL0     H19134   4.531  10.265   0.339  2.5501  0.1255  0.3104
  903MOL0     H19135   4.434  10.025   0.462  2.0895  0.6037 -0.5153
  903MOL0     H19136   4.484  10.000   0.286 -0.5150 -0.9419 -0.3426
  903MOL0     H19137   4.364  10.175   0.207 -0.2432  1.0558  0.5034
  903MOL0     H19138   4.313  10.225   0.371 -1.0275 -0.9541  2.9760
  903MOL0     H19139   4.245   9.960   0.227 -0.8695  0.0495  1.6947
  903MOL0     H19140   4.187  10.000   0.390 -1.6253 -0.0490  0.2764
  903MOL0     H19141   4.139  10.139   0.127 -0.3611 -3.4902 -0.4374
  903MOL0     H19142   4.064  10.208   0.276  1.2855  0.2501 -0.7101
  903MOL0     H19143   3.929  10.000   0.309 -0.9515 -4.2259 -1.2183
  903MOL0     H19144   4.009   9.916   0.177 -0.1395  0.1001 -0.3725
  903MOL0     H19145   3.775  10.044   0.145 -1.5368  3.1694 -3.4898
  903MOL0     H19146   3.875  10.184   0.143 -0.3490 -0.1716  3.7598
  903MOL0     H19147   3.862   9.952  -0.063  2.6036 -1.3114  0.3673
  903MOL0     H19148   4.015  10.036  -0.049  0.8929  3.5987 -3.2766
  903MOL0     H19149   4.039  10.307  -0.077 -0.6270 -1.6990  0.7368
  903MOL0     H19150   3.867  10.557  -0.193  1.0311  1.1148 -1.5703
  903MOL0     H19151   3.877  10.519  -0.360  1.9579  0.6181 -0.6664
  903MOL0     H19152   4.117  10.433  -0.321 -0.9795  0.2693 -1.8790
  903MOL0     H19153   4.097  10.540  -0.171 -4.0425 -0.7908  1.4133
  903MOL0     H19154   4.043  10.605  -0.471  0.0387 -1.7783 -0.2376
  903MOL0     H19155   4.057  10.721  -0.339 -1.9707 -0.5708  0.0598
  903MOL0     H19156   4.250  10.725  -0.461 -2.6020 -0.0323  0.2360
  903MOL0     H19157   4.267  10.553  -0.455 -0.3385  0.0480 -0.1359
  903MOL0     H19158   4.483  10.761  -0.103 -1.0744 -1.0126 -1.8451
  903MOL0     H19159   4.708  10.868  -0.125  1.1082 -0.8504  0.6342
  903MOL0     H19160   5.052  10.985  -0.073  0.5390  1.5135 -0.8488
  903MOL0     H19161   5.261  11.077  -0.051 -1.8800  2.5120 -0.4678
  903MOL0     H19162   5.493  11.101  -0.079  0.1008 -0.2933 -0.5095
  903MOL0     H19163   5.472  11.269  -0.134  0.5267  0.6797 -2.4672
  903MOL0     H19164   5.693  11.251  -0.258 -3.0833  1.0268 -0.5800
  903MOL0     H19165   5.709  11.086  -0.181 -1.1542 -0.6544 -0.4989
  903MOL0     H19166   5.705  11.186   0.050  2.6810  3.3773  1.5007
  903MOL0     H19167   5.694  11.340  -0.030 -1.1582 -0.2769  0.1575
  903MOL0     H19168   5.930  11.164  -0.075 -0.0543 -1.6300  2.4356
  903MOL0     H19169   5.895  11.327  -0.141 -0.9957 -0.5014  0.8134
  903MOL0     H19170   6.059  11.284   0.065 -0.4655  0.4258  0.8825
  903MOL0     H19171   5.920  11.265   0.169  0.1020  0.2370  0.2238
  903MOL0     H19172   5.838  11.478   0.096 -0.0732 -0.1767 -1.4493
  903MOL0     H19173   5.974  11.512  -0.001 -1.8120 -0.3152 -1.5751
  903MOL0     H19174   5.954  11.631   0.218 -1.5660 -1.2381 -3.5338
  903MOL0     H19175   5.956  11.489   0.319 -1.2232 -2.0201 -1.3765
  903MOL0     H19176   6.192  11.573   0.136  1.9367 -1.7783 -0.5691
  903MOL0     H19177   6.181  11.437   0.235 -1.7676 -0.7865 -1.6973
  903MOL0     H19178   5.329  11.007  -0.470  1.1481 -0.5298  0.5028
  903MOL0     H19179   5.098  10.958  -0.504  0.9548 -0.0377 -0.7109
  903MOL0     H19180   4.667  10.782  -0.553  1.6896 -1.4662  0.0502
  903MOL0     H19181   4.444  10.666  -0.512  1.3235 -0.7460 -1.0802
  903MOL0     H19182   4.676  10.246   0.770  1.2005  1.2389  0.2349
  903MOL0     H19183   4.819  10.419   0.833 -1.2572 -1.3259 -0.1602
  903MOL0     H19184   5.198  10.687   0.810 -0.2958 -0.4952  0.1263
  903MOL0     H19185   5.379  10.838   0.801  0.3107  0.6768 -0.8062
  903MOL0     H19186   5.277  11.202   0.735 -0.7573 -0.1132 -1.7389
  903MOL0     H19187   5.429  11.244   0.666 -1.6917  0.4818  0.5471
  903MOL0     H19188   5.453  11.262   0.903 -1.7532  1.8879 -2.6824
  903MOL0     H19189   5.369  11.105   0.924  0.4525  3.1242  3.1671
  903MOL0     H19190   5.581  10.990   0.846 -3.5093 -0.4559  0.8382
  903MOL0     H19191   5.602  11.077   0.997  1.9447  1.6540  0.0471
  903MOL0     H19192   5.788  11.107   0.825  1.1605  2.3097 -1.1740
  903MOL0     H19193   5.681  11.201   0.730  3.8328 -0.0033 -0.9711
  903MOL0     H19194   5.768  11.459   1.061  1.6823 -0.0468  0.5570
  903MOL0     H19195   5.155  11.071   0.516  3.7501  0.7858  0.5760
  903MOL0     H19196   4.959  10.938   0.546 -1.4894 -0.2128  2.3445
  904MOL0     O19197   1.273   7.115   5.447  0.7041 -0.5235  0.4039
  904MOL0     C19198   1.323   7.012   5.487 -0.9507  0.0341  1.2061
  904MOL0     O19199   1.454   6.991   5.538  1.1895 -0.4330  0.4879
  904MOL0     C19200   1.535   7.102   5.546  0.3176 -0.2653  0.4478
  904MOL0     C19201   1.525   7.209   5.635 -1.2687  0.0705 -0.4969
  904MOL0     C19202   1.623   7.307   5.654  0.2543 -0.2331  0.9073
  904MOL0     C19203   1.729   7.311   5.562 -0.4764  0.2152 -0.8546
  904MOL0     O19204   1.830   7.393   5.592 -0.0599  0.1882  1.2855
  904MOL0     C19205   1.913   7.452   5.492 -0.4953 -0.1340  0.3429
  904MOL0     C19206   1.874   7.597   5.464 -0.0058 -0.3033  0.4976
  904MOL0     C19207   1.726   7.606   5.408 -0.6356  0.2636  0.3777
  904MOL0     C19208   1.675   7.746   5.397 -0.1209  0.2987  1.1696
  904MOL0     C19209   1.525   7.745   5.359 -0.7855 -0.4374  0.1378
  904MOL0     C19210   1.431   7.707   5.479  0.3361  0.1511 -0.7746
  904MOL0     C19211   1.285   7.723   5.433  0.3314  0.1090  0.3379
  904MOL0     C19212   1.224   7.598   5.369  0.5509  0.7466  0.1419
  904MOL0     N19213   1.102   7.650   5.305  0.0905  0.0727  0.6156
  904MOL0     C19214   0.988   7.676   5.374 -0.4290 -0.4162  0.3008
  904MOL0     C19215   0.899   7.724   5.274  0.7007  0.4407 -1.8599
  904MOL0     C19216   0.762   7.780   5.290 -0.0248  0.2839 -0.3801
  904MOL0     C19217   0.660   7.704   5.182 -0.2897 -1.2611 -0.2574
  904MOL0     C19218   0.519   7.694   5.238  0.1348 -0.1946  0.4281
  904MOL0     C19219   0.451   7.830   5.247 -0.7101  0.3848  0.2822
  904MOL0     O19220   0.407   7.876   5.117 -0.5320 -0.4051 -0.7403
  904MOL0     C19221   0.337   7.999   5.109 -0.1331  0.3765 -0.8468
  904MOL0     C19222   0.308   8.080   5.219  0.2503  0.0941 -0.7051
  904MOL0     C19223   0.248   8.206   5.208  1.0202  0.2960  0.4974
  904MOL0     C19224   0.202   8.249   5.076 -0.8672 -0.0579 -0.1893
  904MOL0     C19225   0.149   8.381   5.062  0.1943 -0.8702 -0.1100
  904MOL0     O19226   0.116   8.426   4.931 -0.5345 -0.0386 -0.3970
  904MOL0     C19227   0.043   8.540   4.920  0.6953 -0.1832  0.1968
  904MOL0     C19228  -0.082   8.524   4.857  0.3680  0.2919 -0.3667
  904MOL0     C19229  -0.154   8.638   4.829  0.7445 -0.0459 -0.1419
  904MOL0     C19230  -0.116   8.762   4.875  0.4527 -0.7494  0.1484
  904MOL0     O19231  -0.196   8.868   4.837  0.2073  0.0234  0.7239
  904MOL0     C19232  -0.302   8.905   4.922  0.1042 -0.8326  0.1132
  904MOL0     C19233  -0.434   8.850   4.868 -0.2729 -0.1829 -0.3094
  904MOL0     C19234  -0.561   8.897   4.946 -0.5960 -0.3239  1.0298
  904MOL0     C19235  -0.588   9.056   4.932 -0.0798 -0.0225  0.8346
  904MOL0     C19236  -0.713   9.089   5.020 -0.6259 -0.5682  0.6887
  904MOL0     C19237  -0.750   9.240   4.989 -0.3004 -0.2572 -0.3861
  904MOL0     C19238  -0.863   9.241   4.888  0.1139 -0.7552 -0.0066
  904MOL0     C19239  -0.929   9.378   4.864 -0.8558  0.5554 -0.0267
  904MOL0    Cl19240  -0.987   9.444   5.026  0.2437 -0.1005 -0.2566
  904MOL0     C19241   0.003   8.781   4.943  0.1985 -1.2796 -0.4983
  904MOL0     C19242   0.093   8.670   4.956  0.5853  0.0174  0.9737
  904MOL0     O19243   0.122   8.444   5.169 -0.1306  0.1209  0.1707
  904MOL0     C19244   0.210   8.156   4.971 -0.0646 -0.3564 -0.2826
  904MOL0     C19245   0.276   8.041   4.991  0.2570 -0.1035 -0.4995
  904MOL0     N19246   0.954   7.708   5.151 -0.0814 -0.2965  0.0206
  904MOL0     N19247   1.086   7.675   5.170  0.5600  0.1385  0.3036
  904MOL0     C19248   1.740   7.215   5.466 -0.2256  0.4688  0.2129
  904MOL0     C19249   1.646   7.110   5.456  0.4415 -0.0584  0.0478
  904MOL0     C19250   1.250   6.888   5.484 -0.5506 -0.1883 -0.1472
  904MOL0     C19251   1.112   6.880   5.477  0.2113 -0.7387  0.4868
  904MOL0     C19252   1.039   6.765   5.483  1.0483  0.4367 -0.0696
  904MOL0     C19253   1.101   6.645   5.528  0.4088 -0.5435 -0.1501
  904MOL0     O19254   1.042   6.524   5.555 -0.5811 -0.0558 -1.2554
  904MOL0     C19255   0.931   6.483   5.488  1.0188  1.1049  0.1875
  904MOL0     C19256   0.935   6.330   5.486  0.0046 -0.1969 -0.3690
  904MOL0     C19257   0.824   6.262   5.396 -0.2746  0.4383 -0.8608
  904MOL0     C19258   0.717   6.353   5.358 -0.5640 -0.7054  0.0236
  904MOL0     C19259   0.605   6.278   5.295 -0.2754  0.8593  0.2821
  904MOL0     C19260   0.514   6.210   5.255 -0.7882 -0.4003  0.3709
  904MOL0     C19261   1.238   6.646   5.534  0.8451  0.2747  0.9031
  904MOL0     C19262   1.306   6.766   5.504 -0.2528 -0.3545  0.6135
  904MOL0     H19263   1.436   7.193   5.694 -2.0422 -0.8263 -1.8545
  904MOL0     H19264   1.620   7.375   5.738  0.2770  0.0079  0.7117
  904MOL0     H19265   1.918   7.391   5.400  1.0185  0.0104  0.3009
  904MOL0     H19266   2.013   7.447   5.537 -0.2230 -0.7018 -0.3020
  904MOL0     H19267   1.958   7.636   5.406 -0.0406 -0.6510  0.2124
  904MOL0     H19268   1.880   7.649   5.560  0.6160 -1.2327  0.9856
  904MOL0     H19269   1.665   7.554   5.482  0.0614  1.0661  1.5409
  904MOL0     H19270   1.706   7.557   5.312 -3.1598  1.4493  0.2084
  904MOL0     H19271   1.687   7.788   5.497  3.1086  1.8586  0.2719
  904MOL0     H19272   1.741   7.800   5.328  0.8536 -1.3623  0.7635
  904MOL0     H19273   1.505   7.669   5.284  2.8933 -3.6978  2.0776
  904MOL0     H19274   1.501   7.841   5.312  0.3520 -2.0170 -4.0530
  904MOL0     H19275   1.458   7.768   5.566 -0.3642 -0.9628  0.2517
  904MOL0     H19276   1.444   7.603   5.511  1.6513  0.2454 -0.9363
  904MOL0     H19277   1.220   7.747   5.517 -1.9133 -1.0657 -0.9575
  904MOL0     H19278   1.263   7.810   5.370  0.1236  0.2610  0.6198
  904MOL0     H19279   1.195   7.528   5.448 -1.6939  0.8134 -0.5304
  904MOL0     H19280   1.269   7.556   5.279 -1.0759  0.0469 -0.3913
  904MOL0     H19281   0.974   7.666   5.481 -2.0091  1.7180  0.3589
  904MOL0     H19282   0.768   7.889   5.282  1.5715  0.2387 -0.2363
  904MOL0     H19283   0.731   7.762   5.393  1.7410 -2.2841 -0.2114
  904MOL0     H19284   0.696   7.604   5.154  0.7710 -0.2557 -2.8286
  904MOL0     H19285   0.657   7.764   5.090 -0.8325 -1.4042 -0.3332
  904MOL0     H19286   0.457   7.631   5.173 -0.7739  2.9654 -2.0570
  904MOL0     H19287   0.515   7.653   5.339 -1.8574  2.4226  1.5399
  904MOL0     H19288   0.507   7.904   5.304  0.2759 -0.9811  1.1591
  904MOL0     H19289   0.357   7.817   5.303 -1.6743  2.7642 -0.6569
  904MOL0     H19290   0.345   8.047   5.316 -1.4951  1.7637  0.5919
  904MOL0     H19291   0.245   8.269   5.296  1.5372 -0.5446  1.1341
  904MOL0     H19292  -0.117   8.423   4.837 -1.2069  0.3500  1.7763
  904MOL0     H19293  -0.252   8.617   4.787  0.8735 -2.8529  0.7599
  904MOL0     H19294  -0.311   9.014   4.932 -3.4653 -0.6981 -2.4951
  904MOL0     H19295  -0.281   8.874   5.025 -0.5399 -1.1214  0.1623
  904MOL0     H19296  -0.439   8.742   4.876  0.0692 -0.0986  1.3388
  904MOL0     H19297  -0.452   8.884   4.766 -2.4653  0.2183  0.1628
  904MOL0     H19298  -0.554   8.857   5.048  1.0820 -1.4265  0.5202
  904MOL0     H19299  -0.649   8.844   4.908  0.5500 -0.3628 -1.8191
  904MOL0     H19300  -0.502   9.119   4.957  0.9416 -0.0315 -2.1429
  904MOL0     H19301  -0.613   9.066   4.826 -0.4514 -0.7333  0.8446
  904MOL0     H19302  -0.687   9.077   5.126  2.2733 -3.4025 -0.1747
  904MOL0     H19303  -0.798   9.022   5.001 -1.4522  0.9672 -1.3797
  904MOL0     H19304  -0.673   9.302   4.940 -1.5678 -0.3065 -2.5468
  904MOL0     H19305  -0.776   9.295   5.080 -1.0897  1.6155 -1.6730
  904MOL0     H19306  -0.837   9.192   4.794 -0.3776  0.3491 -0.7417
  904MOL0     H19307  -0.944   9.182   4.930  0.4902 -1.5201 -0.3285
  904MOL0     H19308  -1.016   9.356   4.802 -2.0306  2.7667  0.7005
  904MOL0     H19309  -0.872   9.451   4.806 -0.9095  1.8365  1.4513
  904MOL0     H19310   0.036   8.880   4.973 -1.0916 -0.8970 -0.2842
  904MOL0     H19311   0.193   8.691   4.993 -0.0721  0.6352  2.4658
  904MOL0     H19312   0.173   8.181   4.872  1.5093 -2.6947 -1.5622
  904MOL0     H19313   0.291   7.966   4.914 -1.0803 -1.6845  0.7184
  904MOL0     H19314   1.833   7.215   5.409 -0.4588 -3.2529 -0.4062
  904MOL0     H19315   1.682   7.028   5.395 -0.8920 -1.0022  0.4950
  904MOL0     H19316   1.053   6.971   5.486 -1.8609 -1.5197 -3.0985
  904MOL0     H19317   0.932   6.763   5.464  1.5552  0.2280 -3.6492
  904MOL0     H19318   0.927   6.523   5.386 -0.4349  0.6136  0.0230
  904MOL0     H19319   0.839   6.513   5.541 -0.0416  0.8579 -1.4402
  904MOL0     H19320   1.035   6.303   5.453 -0.0250 -0.6327 -0.1031
  904MOL0     H19321   0.923   6.302   5.591 -0.5214 -1.2860 -0.7041
  904MOL0     H19322   0.780   6.175   5.447  0.8297  1.5819  2.3278
  904MOL0     H19323   0.874   6.209   5.314  0.4302 -0.1524 -0.0832
  904MOL0     H19324   0.673   6.396   5.449 -2.3733  0.8167 -1.4787
  904MOL0     H19325   0.758   6.430   5.292 -0.4428  0.0858  0.9990
  904MOL0     H19326   0.428   6.153   5.228 -1.0345 -0.3939  1.1214
  904MOL0     H19327   1.290   6.553   5.555 -2.6831 -1.8951  0.8710
  904MOL0     H19328   1.413   6.753   5.512 -0.4822 -2.0633  1.2904
  905MOL0     O19329  10.710   0.823   9.017  0.2800  0.2111  0.4265
  905MOL0     C19330  10.659   0.933   9.018 -0.0305  0.7702 -0.3081
  905MOL0     O19331  10.527   0.971   9.017 -0.4043 -0.1793  0.3811
  905MOL0     C19332  10.435   0.874   9.008  0.5490 -0.5921  0.1973
  905MOL0     C19333  10.372   0.859   8.879  0.7865 -0.4047 -0.8600
  905MOL0     C19334  10.250   0.793   8.866 -0.2714 -0.7856 -0.5861
  905MOL0     C19335  10.205   0.710   8.967 -0.9699 -0.7515 -0.5315
  905MOL0     O19336  10.111   0.612   8.948  0.7229  0.4680 -0.5323
  905MOL0     C19337  10.122   0.519   8.831 -0.2909 -1.0967 -0.2734
  905MOL0     C19338  10.034   0.404   8.838 -0.7949  0.1339 -0.1631
  905MOL0     C19339   9.898   0.427   8.889 -0.4015 -0.4190 -0.0481
  905MOL0     C19340   9.794   0.324   8.860  0.1736 -0.0244  0.5104
  905MOL0     C19341   9.665   0.366   8.916 -0.3663  0.4030  0.3013
  905MOL0     C19342   9.573   0.241   8.913  0.8498  0.1640  0.1654
  905MOL0     C19343   9.424   0.276   8.937 -0.6368  0.7784  0.5117
  905MOL0     C19344   9.359   0.137   8.934  0.1346 -0.0210 -1.1368
  905MOL0     N19345   9.214   0.170   8.946  1.0075 -0.8535  0.5241
  905MOL0     C19346   9.125   0.150   8.843  0.3411  0.1087 -0.9147
  905MOL0     C19347   9.001   0.191   8.892 -0.4079  0.8409  0.1364
  905MOL0     C19348   8.876   0.186   8.815  0.2390  0.5153  0.0767
  905MOL0     C19349   8.812   0.037   8.837 -0.3529 -1.1616 -0.4566
  905MOL0     C19350   8.708   0.007   8.732  0.2148 -0.6772  0.2549
  905MOL0     C19351   8.562   0.064   8.761 -0.4457  0.3059  1.1999
  905MOL0     O19352   8.482   0.051   8.643 -0.5351  0.5895 -1.1020
  905MOL0     C19353   8.346   0.052   8.660  0.1542  0.9073 -0.2415
  905MOL0     C19354   8.278   0.119   8.764 -0.6092 -0.6962  0.7144
  905MOL0     C19355   8.135   0.120   8.769 -0.9525  0.2269 -0.7562
  905MOL0     C19356   8.066   0.061   8.664 -0.4173  0.1205  0.2698
  905MOL0     C19357   7.916   0.063   8.663 -0.5695  0.2332 -0.4563
  905MOL0     O19358   7.859   0.192   8.690  0.9813  0.7197 -0.1231
  905MOL0     C19359   7.726   0.193   8.680 -0.3414 -1.1199 -0.9729
  905MOL0     C19360   7.676   0.228   8.559  0.1004  0.1070 -0.3460
  905MOL0     C19361   7.534   0.238   8.553  0.7362 -0.1118  0.1878
  905MOL0     C19362   7.440   0.187   8.646  0.0298 -1.1400 -0.1717
  905MOL0     O19363   7.301   0.177   8.639 -1.5516 -0.2047 -0.2178
  905MOL0     C19364   7.223   0.230   8.531  0.2049 -0.3019  0.0663
  905MOL0     C19365   7.073   0.198   8.530  0.2159 -0.1151 -0.1952
  905MOL0     C19366   6.994   0.249   8.414 -0.1699 -0.2530 -0.2222
  905MOL0     C19367   6.847   0.231   8.421 -0.2881 -0.2377  0.4676
  905MOL0     C19368   6.787   0.309   8.306 -0.6236 -0.3988  0.0260
  905MOL0     C19369   6.633   0.292   8.285  0.3870  0.1731  0.6557
  905MOL0     C19370   6.548   0.333   8.408  0.3991  1.1158  0.2553
  905MOL0     C19371   6.403   0.340   8.393 -0.1607 -0.0130  1.0146
  905MOL0    Cl19372   6.342   0.176   8.333 -0.1452 -0.0980  0.2115
  905MOL0     C19373   7.500   0.139   8.761 -0.9235 -0.0976 -0.5765
  905MOL0     C19374   7.637   0.155   8.779  1.1311 -0.2201  0.6563
  905MOL0     O19375   7.849  -0.040   8.645 -0.2327  0.4901 -0.0526
  905MOL0     C19376   8.132  -0.001   8.558  0.4696  1.0686 -0.5319
  905MOL0     C19377   8.272  -0.013   8.558 -0.0083  1.1523 -0.0639
  905MOL0     N19378   9.033   0.253   9.016  0.8390 -0.4931 -0.4324
  905MOL0     N19379   9.157   0.240   9.050  0.2946 -0.5265  0.2163
  905MOL0     C19380  10.270   0.724   9.095 -0.1190 -0.0141 -0.5070
  905MOL0     C19381  10.387   0.796   9.115  0.3541 -0.3398 -0.0564
  905MOL0     C19382  10.758   1.032   9.002 -0.6175  0.2396  0.6233
  905MOL0     C19383  10.880   1.010   8.927  0.4535  0.0789 -0.5955
  905MOL0     C19384  10.977   1.108   8.903  0.5561  0.1914  0.4118
  905MOL0     C19385  10.949   1.241   8.933 -0.1063 -1.3442  1.2811
  905MOL0     O19386  11.043   1.340   8.902  0.3652 -0.9002  0.0373
  905MOL0     C19387  11.010   1.446   8.816 -0.3649  1.1468 -0.3218
  905MOL0     C19388  11.129   1.529   8.781  0.2979  0.2678 -0.4530
  905MOL0     C19389  11.244   1.433   8.745 -0.1415 -0.5652  0.2577
  905MOL0     C19390  11.358   1.529   8.725 -0.2257 -0.2659 -1.1005
  905MOL0     C19391  11.457   1.460   8.636 -0.5924 -0.6679 -0.1489
  905MOL0     C19392  11.531   1.422   8.551 -0.2863  0.0966  0.0072
  905MOL0     C19393  10.834   1.266   9.003  0.9500  0.0202  1.1196
  905MOL0     C19394  10.741   1.169   9.041  0.3376 -1.1381  0.0893
  905MOL0     H19395  10.409   0.921   8.797  2.6593 -0.4381 -0.1042
  905MOL0     H19396  10.194   0.794   8.773  0.4468  1.2430 -1.0398
  905MOL0     H19397  10.226   0.493   8.809 -0.1982 -0.2269 -0.9103
  905MOL0     H19398  10.093   0.573   8.741  0.6096 -2.1039 -1.1966
  905MOL0     H19399  10.077   0.330   8.906  0.1706  0.6111 -0.2447
  905MOL0     H19400  10.020   0.359   8.739  0.5822 -0.0020 -0.3204
  905MOL0     H19401   9.858   0.518   8.842 -1.0300  0.0452  1.3231
  905MOL0     H19402   9.898   0.434   8.998 -3.2041  2.2449 -0.0579
  905MOL0     H19403   9.777   0.305   8.754  1.2632 -2.2652  0.6800
  905MOL0     H19404   9.823   0.224   8.895 -2.4580 -0.4154  1.8856
  905MOL0     H19405   9.625   0.448   8.856 -0.2691 -0.1031 -0.4642
  905MOL0     H19406   9.680   0.405   9.018 -1.1744  0.6557  0.3266
  905MOL0     H19407   9.594   0.176   8.998 -1.2918 -0.3276  0.3793
  905MOL0     H19408   9.578   0.182   8.821 -2.7268 -2.7883  1.6357
  905MOL0     H19409   9.407   0.331   9.030 -2.5460 -0.0150  0.6882
  905MOL0     H19410   9.387   0.332   8.851  1.2099 -1.2731 -1.7680
  905MOL0     H19411   9.378   0.068   9.017  0.6698 -0.2372 -1.4377
  905MOL0     H19412   9.393   0.078   8.849 -0.0216  0.4085 -1.4983
  905MOL0     H19413   9.129   0.103   8.746  2.5437 -1.8580  0.0347
  905MOL0     H19414   8.902   0.203   8.710 -1.8214  3.6354 -0.0789
  905MOL0     H19415   8.809   0.265   8.852 -2.3091 -1.2831 -0.4159
  905MOL0     H19416   8.761   0.026   8.933  0.6838 -1.6998  0.0414
  905MOL0     H19417   8.894  -0.036   8.838  0.9736  0.2955 -0.1351
  905MOL0     H19418   8.742   0.042   8.634  1.7148  0.4904  1.1448
  905MOL0     H19419   8.686  -0.097   8.709  1.5175 -0.8756 -0.1604
  905MOL0     H19420   8.557   0.167   8.797  1.8347  1.4342 -1.3464
  905MOL0     H19421   8.516   0.003   8.839 -2.6051  1.0158  0.5745
  905MOL0     H19422   8.330   0.165   8.848 -0.4368 -2.4621  1.6326
  905MOL0     H19423   8.094   0.176   8.852  3.2351  1.1958  0.9314
  905MOL0     H19424   7.734   0.259   8.473  0.7412  2.0680  0.7304
  905MOL0     H19425   7.500   0.293   8.467 -0.9163 -1.8965 -0.3738
  905MOL0     H19426   7.264   0.187   8.439 -0.8947  0.0779 -0.6264
  905MOL0     H19427   7.239   0.337   8.514 -0.5835 -0.4500 -1.9326
  905MOL0     H19428   7.029   0.244   8.619 -3.0579 -1.0070 -1.2301
  905MOL0     H19429   7.069   0.089   8.523  0.5032 -0.0858 -0.8265
  905MOL0     H19430   7.036   0.202   8.325 -3.6278  2.1945 -3.4817
  905MOL0     H19431   7.002   0.357   8.401 -0.8528  0.1157  1.9772
  905MOL0     H19432   6.835   0.123   8.410  1.6860 -0.7047  2.2624
  905MOL0     H19433   6.805   0.265   8.516  0.4614 -1.8174  1.4084
  905MOL0     H19434   6.836   0.296   8.209  2.5145  1.5225  1.1845
  905MOL0     H19435   6.799   0.417   8.320  1.2011 -0.5146 -0.4117
  905MOL0     H19436   6.611   0.190   8.255  0.5609  0.9132 -2.3469
  905MOL0     H19437   6.604   0.344   8.193  2.1223 -1.2370 -0.7703
  905MOL0     H19438   6.564   0.253   8.481  1.6038 -0.0083 -1.1762
  905MOL0     H19439   6.589   0.431   8.437  0.4088  2.0345 -2.5394
  905MOL0     H19440   6.386   0.413   8.314  1.6958  0.5675  1.0950
  905MOL0     H19441   6.341   0.370   8.478 -3.1573  1.8400 -1.5966
  905MOL0     H19442   7.433   0.104   8.839  2.0186 -1.8794  1.3542
  905MOL0     H19443   7.672   0.132   8.879 -0.1363  0.0338  1.1812
  905MOL0     H19444   8.075  -0.048   8.479 -1.9930  1.5703  0.8283
  905MOL0     H19445   8.327  -0.067   8.481  1.3518  1.6846  0.5027
  905MOL0     H19446  10.248   0.667   9.185 -1.5500  3.1357  1.3170
  905MOL0     H19447  10.446   0.787   9.207  1.8765  5.0367 -0.1977
  905MOL0     H19448  10.899   0.913   8.883  1.0546  1.2788 -3.1476
  905MOL0     H19449  11.073   1.069   8.870  0.2261  1.2646 -2.0252
  905MOL0     H19450  10.941   1.514   8.867  0.9326  1.3612  1.1951
  905MOL0     H19451  10.969   1.402   8.724  1.9710 -1.2243 -0.3549
  905MOL0     H19452  11.103   1.579   8.687 -0.1504 -2.1320 -1.6936
  905MOL0     H19453  11.162   1.593   8.864  3.8216 -3.7074  1.5807
  905MOL0     H19454  11.213   1.390   8.649  0.2858  1.2591 -0.7458
  905MOL0     H19455  11.265   1.359   8.822  0.3067 -1.3715 -0.6177
  905MOL0     H19456  11.326   1.621   8.675  2.0902 -0.0989 -2.3760
  905MOL0     H19457  11.400   1.565   8.819 -3.5703  1.5203 -0.1373
  905MOL0     H19458  11.598   1.369   8.487  0.6517  0.4834  0.6423
  905MOL0     H19459  10.819   1.366   9.042  1.2899  0.2851  0.5786
  905MOL0     H19460  10.655   1.198   9.101 -0.2106 -3.4118  0.4683
  906MOL0     O19461  10.146   6.068   1.010  0.2649  0.1534 -0.2158
  906MOL0     C19462  10.150   6.188   1.037  0.0319 -0.0923 -0.4193
  906MOL0     O19463  10.047   6.278   1.031  0.6902 -0.1889  0.4721
  906MOL0     C19464   9.918   6.240   1.001  0.4993  0.3314  0.2297
  906MOL0     C19465   9.853   6.112   1.026  0.6681  0.2370 -0.2245
  906MOL0     C19466   9.717   6.080   0.977 -0.9273 -0.9552 -1.2830
  906MOL0     C19467   9.647   6.185   0.929 -0.4693 -0.6166  0.3449
  906MOL0     O19468   9.514   6.169   0.894  0.1411  0.0149  0.1339
  906MOL0     C19469   9.444   6.049   0.918  0.3241  0.0178 -0.3240
  906MOL0     C19470   9.300   6.078   0.884 -0.5036 -0.1848  1.0785
  906MOL0     C19471   9.223   5.950   0.864  0.4783 -0.5002  0.0679
  906MOL0     C19472   9.073   5.976   0.839  0.1222  0.1278 -0.0870
  906MOL0     C19473   8.990   5.850   0.806 -0.1091  0.4260  0.6495
  906MOL0     C19474   8.847   5.887   0.757  0.0444 -0.1264 -0.0047
  906MOL0     C19475   8.778   5.769   0.674 -0.0082 -0.0898 -0.5591
  906MOL0     C19476   8.767   5.633   0.746 -0.9214  0.5374  0.0505
  906MOL0     N19477   8.650   5.629   0.828  0.3282 -0.2967 -0.4790
  906MOL0     C19478   8.525   5.637   0.776 -0.0511 -0.0550  0.1337
  906MOL0     C19479   8.447   5.633   0.888  0.1974  0.2287  1.1698
  906MOL0     C19480   8.299   5.645   0.876  0.0595  0.4600 -0.1938
  906MOL0     C19481   8.256   5.789   0.917  0.0308 -0.0642  0.2439
  906MOL0     C19482   8.267   5.809   1.067 -0.3264  0.5358  0.1195
  906MOL0     C19483   8.195   5.697   1.156 -0.6535 -0.0860  1.0281
  906MOL0     O19484   8.068   5.664   1.111  0.7167  0.6580  0.3633
  906MOL0     C19485   7.966   5.759   1.126 -0.4418  0.0456  0.0336
  906MOL0     C19486   7.957   5.866   1.220 -0.2483  0.4181  1.2285
  906MOL0     C19487   7.857   5.961   1.217  0.2336  0.5321  0.0565
  906MOL0     C19488   7.759   5.958   1.113 -0.5177 -0.3707 -0.5531
  906MOL0     C19489   7.652   6.057   1.088 -0.2889 -0.5479  0.0069
  906MOL0     O19490   7.654   6.166   1.171 -0.0961 -0.4590 -0.5334
  906MOL0     C19491   7.546   6.254   1.165 -0.6302  0.1663  0.5193
  906MOL0     C19492   7.534   6.357   1.069 -0.1605 -0.7183 -0.8337
  906MOL0     C19493   7.438   6.457   1.070 -0.4854 -0.7008  0.4135
  906MOL0     C19494   7.349   6.458   1.175 -0.5571 -0.4519 -0.8162
  906MOL0     O19495   7.247   6.543   1.186  1.2502 -0.9926  0.0488
  906MOL0     C19496   7.155   6.548   1.078  0.5008  1.1054  1.0491
  906MOL0     C19497   7.018   6.560   1.133  0.6989 -0.9663 -0.0304
  906MOL0     C19498   6.904   6.557   1.023  0.0808  0.3889 -0.7034
  906MOL0     C19499   6.759   6.550   1.068 -0.1822  0.1749 -0.7160
  906MOL0     C19500   6.664   6.516   0.951  0.6056 -0.2623  0.1250
  906MOL0     C19501   6.518   6.529   1.000 -0.3251  0.2627 -0.6058
  906MOL0     C19502   6.430   6.531   0.870  0.4054 -1.0300 -0.1943
  906MOL0     C19503   6.282   6.545   0.907 -0.1433  0.3437 -0.4089
  906MOL0    Cl19504   6.245   6.718   0.949  0.0431 -0.3177 -0.0390
  906MOL0     C19505   7.377   6.368   1.285  0.5459 -0.0961 -0.6699
  906MOL0     C19506   7.470   6.263   1.272  0.2126  0.4807 -0.2440
  906MOL0     O19507   7.562   6.028   1.013  0.4435 -0.2503  0.5851
  906MOL0     C19508   7.767   5.853   1.021 -0.1776 -0.5894  0.5381
  906MOL0     C19509   7.872   5.757   1.027  0.8079  0.4595 -0.8158
  906MOL0     N19510   8.517   5.622   1.003 -0.0535 -1.0732  0.1546
  906MOL0     N19511   8.639   5.620   0.961  1.0417  0.7845 -0.1580
  906MOL0     C19512   9.707   6.310   0.911 -0.1949  0.1173  0.2687
  906MOL0     C19513   9.838   6.335   0.940 -0.1122  0.1065 -0.4626
  906MOL0     C19514  10.284   6.244   1.062  0.1628  0.8374  0.1590
  906MOL0     C19515  10.312   6.369   1.023 -0.2142  0.1565  0.1133
  906MOL0     C19516  10.440   6.421   1.034 -0.0962 -0.3762 -0.1551
  906MOL0     C19517  10.546   6.342   1.094  0.8018  0.2705 -0.4475
  906MOL0     O19518  10.668   6.390   1.117  0.0630  0.2538 -0.5906
  906MOL0     C19519  10.699   6.523   1.078 -0.0134 -0.2636  0.2910
  906MOL0     C19520  10.846   6.559   1.105  0.3474 -1.2317  0.2227
  906MOL0     C19521  10.947   6.454   1.077  0.8229 -0.5295  0.4682
  906MOL0     C19522  11.094   6.501   1.109 -0.4477 -0.3390  1.0316
  906MOL0     C19523  11.109   6.580   1.227 -0.4097 -0.3229  0.0227
  906MOL0     C19524  11.113   6.642   1.337  1.2746  0.2078  0.3058
  906MOL0     C19525  10.517   6.211   1.119  0.6650  0.0741  0.0913
  906MOL0     C19526  10.393   6.160   1.105  0.2328 -0.0523  0.2053
  906MOL0     H19527   9.898   6.027   1.076  0.5999 -1.7840 -3.3349
  906MOL0     H19528   9.657   5.993   1.002 -0.7091 -0.2017  2.4798
  906MOL0     H19529   9.441   6.021   1.023 -0.5635 -1.0724 -0.6199
  906MOL0     H19530   9.486   5.965   0.861  0.9128  0.6631 -0.8613
  906MOL0     H19531   9.288   6.146   0.799 -0.8355  0.6743  1.7951
  906MOL0     H19532   9.254   6.138   0.963  0.2453  0.8833  0.7327
  906MOL0     H19533   9.243   5.875   0.942  0.5501 -0.0544  0.4866
  906MOL0     H19534   9.262   5.914   0.768 -0.1518 -1.1493  0.0435
  906MOL0     H19535   9.034   6.012   0.934 -0.2894 -0.8993  0.1429
  906MOL0     H19536   9.055   6.053   0.763 -1.3795  1.7912  1.8333
  906MOL0     H19537   8.978   5.784   0.892  1.3312 -0.1250  0.4665
  906MOL0     H19538   9.044   5.795   0.728 -0.9135  0.2347  0.2285
  906MOL0     H19539   8.857   5.972   0.688 -0.2066  0.2160  0.3802
  906MOL0     H19540   8.783   5.912   0.842 -0.7597 -2.4565  0.1454
  906MOL0     H19541   8.680   5.808   0.645  0.6285  3.3548  1.3739
  906MOL0     H19542   8.840   5.751   0.586  0.2194 -0.6775 -0.2842
  906MOL0     H19543   8.857   5.615   0.806 -2.0992 -0.1688  1.6708
  906MOL0     H19544   8.766   5.556   0.669  1.4240  0.5119 -0.0198
  906MOL0     H19545   8.499   5.646   0.671  0.5918 -0.3157 -0.0529
  906MOL0     H19546   8.257   5.562   0.934  0.5004  1.6582  1.9863
  906MOL0     H19547   8.283   5.624   0.770 -0.2846 -2.0692  0.3005
  906MOL0     H19548   8.151   5.799   0.886 -0.0015  1.2103  0.7262
  906MOL0     H19549   8.310   5.861   0.855 -0.0924 -1.2635 -1.3301
  906MOL0     H19550   8.376   5.810   1.082  0.0271  1.3225 -2.1754
  906MOL0     H19551   8.224   5.908   1.087 -0.1017  0.7745 -0.5665
  906MOL0     H19552   8.186   5.738   1.257  0.1742  3.0068 -0.0280
  906MOL0     H19553   8.250   5.603   1.144  2.6573  1.9134 -0.5845
  906MOL0     H19554   8.026   5.891   1.299 -0.2079 -1.1535  1.7158
  906MOL0     H19555   7.862   6.038   1.294  1.1120 -1.0555  1.6574
  906MOL0     H19556   7.618   6.344   1.002 -0.1279 -3.9175 -0.2997
  906MOL0     H19557   7.424   6.528   0.989 -1.1994 -1.5849 -0.2400
  906MOL0     H19558   7.159   6.461   1.012 -0.1558 -0.0321  2.4541
  906MOL0     H19559   7.179   6.633   1.013  0.1197 -0.0026 -0.5783
  906MOL0     H19560   7.014   6.656   1.186  2.3766 -0.9508  0.1194
  906MOL0     H19561   6.984   6.480   1.200 -0.7412 -0.8896 -0.6355
  906MOL0     H19562   6.906   6.459   0.973  1.4181 -0.9462  1.8006
  906MOL0     H19563   6.915   6.633   0.945  0.7279  3.6834  2.3747
  906MOL0     H19564   6.755   6.470   1.143 -1.1392  1.2413  0.4058
  906MOL0     H19565   6.724   6.644   1.111 -1.9060 -1.1852  1.0334
  906MOL0     H19566   6.687   6.421   0.903 -0.3190  0.1625 -1.2263
  906MOL0     H19567   6.693   6.585   0.872  1.6872 -1.5672 -0.6459
  906MOL0     H19568   6.496   6.620   1.055 -1.7507 -0.7785  0.6257
  906MOL0     H19569   6.497   6.435   1.052  0.4008 -0.7367 -2.0363
  906MOL0     H19570   6.458   6.611   0.801 -0.0093  0.3005  1.1151
  906MOL0     H19571   6.439   6.434   0.821  0.3058 -2.1846  1.9372
  906MOL0     H19572   6.252   6.475   0.985  2.5764 -0.1190  0.3304
  906MOL0     H19573   6.231   6.519   0.814  0.5129 -2.9711  0.0513
  906MOL0     H19574   7.297   6.362   1.358  1.8416  1.5502  1.0002
  906MOL0     H19575   7.468   6.182   1.343 -1.7006  0.9501  0.2884
  906MOL0     H19576   7.694   5.837   0.942 -1.1455 -0.6078  1.4227
  906MOL0     H19577   7.873   5.682   0.948 -3.3866 -2.8209  1.8225
  906MOL0     H19578   9.639   6.389   0.880  1.7121  2.1490  0.9217
  906MOL0     H19579   9.864   6.440   0.928 -2.3143  0.7845  0.0913
  906MOL0     H19580  10.234   6.434   0.984  0.9677  1.1742 -0.6175
  906MOL0     H19581  10.465   6.521   0.998 -1.5041  0.3754  0.8496
  906MOL0     H19582  10.637   6.581   1.148 -2.4471 -3.8117  1.3500
  906MOL0     H19583  10.668   6.551   0.977 -0.6694  1.0604  0.8267
  906MOL0     H19584  10.863   6.648   1.044 -0.4870 -0.5068  1.0200
  906MOL0     H19585  10.847   6.589   1.210  0.3182  2.4898 -0.6849
  906MOL0     H19586  10.955   6.423   0.973 -0.1615  2.1117 -0.4783
  906MOL0     H19587  10.918   6.366   1.135  0.1113 -0.4979  0.1758
  906MOL0     H19588  11.166   6.421   1.124 -0.3203 -0.2136  1.0971
  906MOL0     H19589  11.130   6.560   1.024  0.3635 -1.6389  0.4507
  906MOL0     H19590  11.121   6.700   1.426  4.0217 -2.6163  2.1301
  906MOL0     H19591  10.603   6.155   1.156  1.1426  1.3363  0.9888
  906MOL0     H19592  10.382   6.054   1.122  0.9852 -0.1697  0.0353
  907MOL0     O19593   5.330   4.412   3.046 -0.0415  0.6608  0.0583
  907MOL0     C19594   5.396   4.358   3.136 -0.9175  0.2270  0.7176
  907MOL0     O19595   5.355   4.290   3.248 -0.1252  0.3133  0.3681
  907MOL0     C19596   5.225   4.253   3.266  0.2418  0.2530 -0.7071
  907MOL0     C19597   5.187   4.122   3.293 -0.6549 -0.1249  0.0863
  907MOL0     C19598   5.061   4.089   3.334 -0.1887  0.7181  0.2213
  907MOL0     C19599   4.964   4.187   3.347  0.0912 -0.6281 -0.8661
  907MOL0     O19600   4.838   4.149   3.393 -0.2299  0.1550 -0.1922
  907MOL0     C19601   4.837   4.059   3.503  0.3110  0.0800 -0.0939
  907MOL0     C19602   4.715   4.091   3.582  0.4024  0.4935  0.1666
  907MOL0     C19603   4.577   4.056   3.524 -0.0458  0.8594  0.2118
  907MOL0     C19604   4.463   4.134   3.589 -0.2165  0.1923  0.6219
  907MOL0     C19605   4.332   4.120   3.511  0.1005  0.7309  0.6917
  907MOL0     C19606   4.294   3.974   3.480 -0.0193  0.1451 -0.2136
  907MOL0     C19607   4.143   3.952   3.470  0.3306 -0.1472  0.4070
  907MOL0     C19608   4.103   3.801   3.476 -0.0433 -0.1277  0.5091
  907MOL0     N19609   3.957   3.783   3.485 -0.3062  0.9942 -1.4997
  907MOL0     C19610   3.885   3.738   3.601 -0.3255  0.0713  0.5310
  907MOL0     C19611   3.760   3.722   3.560 -0.3154 -1.0608 -0.8715
  907MOL0     C19612   3.651   3.667   3.655 -0.2875 -0.5063  0.4554
  907MOL0     C19613   3.515   3.739   3.620  0.4863 -0.0992 -0.9630
  907MOL0     C19614   3.408   3.699   3.725 -0.7278  0.3066  0.9288
  907MOL0     C19615   3.270   3.729   3.665  0.1801  0.0200 -0.7027
  907MOL0     O19616   3.172   3.692   3.764  0.4576 -0.2438  0.7973
  907MOL0     C19617   3.049   3.673   3.710 -0.5848 -0.7784  0.4194
  907MOL0     C19618   3.015   3.557   3.648  0.0861 -0.0117 -0.0702
  907MOL0     C19619   2.883   3.534   3.603  0.5468 -0.1864  0.3488
  907MOL0     C19620   2.789   3.638   3.624 -0.0170 -0.0502 -1.1030
  907MOL0     C19621   2.641   3.614   3.614 -0.0475  0.4530 -0.7558
  907MOL0     O19622   2.562   3.714   3.667  0.4910  0.8290  0.1597
  907MOL0     C19623   2.429   3.704   3.649 -0.5558 -0.5343  0.2662
  907MOL0     C19624   2.345   3.687   3.758 -0.9556  0.2650  0.2834
  907MOL0     C19625   2.209   3.685   3.738 -0.2421  0.3223  1.1377
  907MOL0     C19626   2.150   3.704   3.610 -0.2871  0.5551 -0.2624
  907MOL0     O19627   2.016   3.671   3.580 -0.0390  0.3590 -0.2470
  907MOL0     C19628   1.919   3.639   3.689  0.5170  0.5897  0.1581
  907MOL0     C19629   1.779   3.649   3.636 -0.5351 -0.9170 -0.5114
  907MOL0     C19630   1.747   3.630   3.487 -0.4455 -0.4350 -0.0550
  907MOL0     C19631   1.596   3.615   3.462 -0.0845 -0.4879 -0.9927
  907MOL0     C19632   1.564   3.551   3.326 -0.4516  1.0289  0.2136
  907MOL0     C19633   1.414   3.569   3.301 -0.0195 -0.1511  0.2888
  907MOL0     C19634   1.385   3.508   3.169 -0.1342  0.2498 -0.5666
  907MOL0     C19635   1.239   3.527   3.133  0.3843  0.0956 -0.2543
  907MOL0    Cl19636   1.219   3.517   2.956  0.4588 -0.0934 -0.0920
  907MOL0     C19637   2.236   3.728   3.505 -1.0051 -0.0032 -0.6624
  907MOL0     C19638   2.377   3.718   3.521  0.1896 -0.2358 -0.2540
  907MOL0     O19639   2.605   3.519   3.543 -0.2989 -0.0464  0.7182
  907MOL0     C19640   2.836   3.764   3.667  0.1785  1.1501  0.0367
  907MOL0     C19641   2.965   3.783   3.711 -0.4099  1.3867 -0.7985
  907MOL0     N19642   3.753   3.769   3.424  0.6765  0.4903 -0.4532
  907MOL0     N19643   3.865   3.792   3.379  0.2221 -0.3006  0.7615
  907MOL0     C19644   4.990   4.309   3.288  0.6423 -0.1428  0.0535
  907MOL0     C19645   5.116   4.343   3.242 -0.1520  0.0070 -0.5150
  907MOL0     C19646   5.545   4.342   3.112 -0.0858 -1.2731 -0.6808
  907MOL0     C19647   5.609   4.458   3.062  0.2715  0.3556  0.5113
  907MOL0     C19648   5.749   4.455   3.042  0.9152  0.9254  0.0177
  907MOL0     C19649   5.823   4.343   3.078  0.3571 -0.2764  0.0138
  907MOL0     O19650   5.958   4.353   3.071 -0.1626  1.0601  0.3256
  907MOL0     C19651   6.041   4.225   3.094  0.3069 -0.4520 -0.8527
  907MOL0     C19652   6.177   4.281   3.077  0.1325  0.2778  0.4687
  907MOL0     C19653   6.270   4.173   3.137  0.1125  0.4648  0.1050
  907MOL0     C19654   6.415   4.207   3.105  1.1124 -0.0120  0.1529
  907MOL0     C19655   6.467   4.317   3.186  0.1414 -0.1432 -0.9175
  907MOL0     C19656   6.533   4.396   3.255 -1.0181 -0.4346 -0.3626
  907MOL0     C19657   5.757   4.233   3.127 -0.1828 -0.7476 -0.2951
  907MOL0     C19658   5.621   4.232   3.148 -0.8417 -0.2683  0.3438
  907MOL0     H19659   5.263   4.046   3.275 -1.2326 -0.4745 -0.9404
  907MOL0     H19660   5.029   3.988   3.359 -4.5832  1.3033 -1.9671
  907MOL0     H19661   4.921   4.071   3.573 -1.2449 -0.9800  2.0658
  907MOL0     H19662   4.840   3.955   3.468 -2.2184  0.2472 -0.9838
  907MOL0     H19663   4.721   4.199   3.594 -0.4300  0.6092 -0.3467
  907MOL0     H19664   4.716   4.045   3.682 -3.2576 -1.4715 -0.4819
  907MOL0     H19665   4.557   3.949   3.536 -0.7911  1.1829  2.2812
  907MOL0     H19666   4.581   4.074   3.416  2.5044 -3.2951 -0.6394
  907MOL0     H19667   4.454   4.102   3.693  3.4444 -0.0794  0.9756
  907MOL0     H19668   4.488   4.240   3.581  1.4495 -0.1524  0.8754
  907MOL0     H19669   4.359   4.163   3.414 -2.1625 -0.2489 -0.4522
  907MOL0     H19670   4.252   4.182   3.551 -2.0504 -1.2998 -0.1792
  907MOL0     H19671   4.317   3.913   3.567 -1.6640 -1.6062 -0.9383
  907MOL0     H19672   4.350   3.942   3.391  1.7371 -1.2097  1.3104
  907MOL0     H19673   4.097   4.007   3.552  2.2033  0.9070  0.7946
  907MOL0     H19674   4.094   3.988   3.379  0.1005  2.4094  1.4668
  907MOL0     H19675   4.141   3.751   3.566  0.5110 -1.8317 -0.6183
  907MOL0     H19676   4.136   3.740   3.391  1.1476 -0.3140  1.0712
  907MOL0     H19677   3.920   3.692   3.692  1.3466  0.6644  0.2363
  907MOL0     H19678   3.680   3.683   3.759  0.4726 -0.3858  0.2360
  907MOL0     H19679   3.624   3.562   3.641 -0.5712 -0.9162  3.5340
  907MOL0     H19680   3.484   3.714   3.519 -2.2843  0.4857 -0.3207
  907MOL0     H19681   3.531   3.846   3.638  0.8943 -0.4078  0.7324
  907MOL0     H19682   3.408   3.591   3.743 -3.2245  0.0148 -0.3282
  907MOL0     H19683   3.430   3.749   3.819  3.1168 -1.1521  1.0105
  907MOL0     H19684   3.252   3.678   3.569  0.8198  3.1746 -2.6565
  907MOL0     H19685   3.270   3.832   3.630 -1.4918  0.0117 -0.8382
  907MOL0     H19686   3.095   3.485   3.634 -0.7380 -1.0356  0.3324
  907MOL0     H19687   2.864   3.441   3.550  0.8622  1.5565 -3.0461
  907MOL0     H19688   2.386   3.672   3.858 -0.8526  2.3273  0.6071
  907MOL0     H19689   2.143   3.655   3.819 -1.8944 -3.3639 -1.3352
  907MOL0     H19690   1.934   3.701   3.778  0.6052 -0.7244  1.0829
  907MOL0     H19691   1.928   3.533   3.714  0.3347 -0.3079 -3.1156
  907MOL0     H19692   1.734   3.746   3.663  1.4087  0.2138 -1.1011
  907MOL0     H19693   1.726   3.578   3.699  1.3279 -0.4923  1.6788
  907MOL0     H19694   1.804   3.550   3.438  4.3349  2.1314  0.8214
  907MOL0     H19695   1.774   3.721   3.433  1.3560 -2.1418 -2.2650
  907MOL0     H19696   1.544   3.562   3.542 -1.0260  0.1755 -1.1448
  907MOL0     H19697   1.556   3.715   3.481  2.0378 -0.1691  2.8119
  907MOL0     H19698   1.584   3.443   3.331  1.1867  1.3062  0.1474
  907MOL0     H19699   1.623   3.591   3.243 -1.9991 -2.7738 -3.0627
  907MOL0     H19700   1.401   3.678   3.310  2.2942  0.0431  2.3852
  907MOL0     H19701   1.353   3.515   3.374 -0.8739  1.8146  1.1062
  907MOL0     H19702   1.448   3.540   3.085  0.5587 -3.6516 -1.7345
  907MOL0     H19703   1.412   3.402   3.175  2.0201  0.7002 -1.3862
  907MOL0     H19704   1.216   3.630   3.161  1.1420 -0.1160  1.2296
  907MOL0     H19705   1.170   3.459   3.183  0.6521  0.3294  0.4372
  907MOL0     H19706   2.189   3.742   3.408 -1.4098 -1.2367 -0.6511
  907MOL0     H19707   2.443   3.742   3.437 -0.9875  1.5952 -0.7034
  907MOL0     H19708   2.760   3.841   3.669 -0.2390  0.7374  2.3783
  907MOL0     H19709   2.993   3.879   3.754 -2.1935  0.7149  2.0409
  907MOL0     H19710   4.897   4.365   3.280 -2.3348 -4.6264 -0.6792
  907MOL0     H19711   5.121   4.432   3.180  1.3479  1.3294  1.3804
  907MOL0     H19712   5.555   4.547   3.030  0.0026 -0.8498 -2.8941
  907MOL0     H19713   5.808   4.540   3.009  1.1464  0.9445  0.4742
  907MOL0     H19714   6.014   4.147   3.022 -0.9209 -1.5898  0.7809
  907MOL0     H19715   6.031   4.205   3.201 -0.0353  3.1796 -0.0791
  907MOL0     H19716   6.209   4.295   2.973  0.7381 -0.0136  0.6155
  907MOL0     H19717   6.187   4.375   3.132  1.5132  0.0724  0.6010
  907MOL0     H19718   6.233   4.082   3.089  0.4037  1.4088 -2.0173
  907MOL0     H19719   6.264   4.150   3.244 -1.4069  0.6211  0.0752
  907MOL0     H19720   6.477   4.122   3.135  0.1538  0.2761  3.4231
  907MOL0     H19721   6.430   4.234   3.001  1.6070 -2.4960 -0.4895
  907MOL0     H19722   6.592   4.467   3.310  2.4140 -2.6469 -0.8883
  907MOL0     H19723   5.791   4.130   3.134  0.4694 -0.4676  0.8107
  907MOL0     H19724   5.583   4.140   3.190  1.0279 -0.2848  2.1649
  908MOL0     O19725  10.740   4.155   0.002  0.0293 -0.3896 -0.3218
  908MOL0     C19726  10.756   4.048   0.066 -0.2485  0.4123 -0.4237
  908MOL0     O19727  10.659   3.980   0.146  0.4010 -0.2727  0.0101
  908MOL0     C19728  10.524   4.031   0.150 -0.4224  0.3395 -0.5634
  908MOL0     C19729  10.456   4.001   0.264  0.0381  0.4568 -0.1135
  908MOL0     C19730  10.317   4.020   0.279 -0.5624 -0.3181  0.2460
  908MOL0     C19731  10.257   4.100   0.185 -0.2597  0.0383 -0.0880
  908MOL0     O19732  10.127   4.118   0.207  0.0533 -1.0865 -0.4701
  908MOL0     C19733  10.039   4.065   0.107 -0.1789 -0.0001  0.2330
  908MOL0     C19734   9.992   4.177   0.025 -0.1241  0.1568 -0.2761
  908MOL0     C19735   9.883   4.268   0.068  0.8470  0.3945 -0.0586
  908MOL0     C19736   9.830   4.362  -0.036 -0.3635  0.4995 -0.3401
  908MOL0     C19737   9.698   4.413   0.016  0.1900  0.1438 -0.7793
  908MOL0     C19738   9.641   4.510  -0.091  0.5992  0.1318  0.8416
  908MOL0     C19739   9.488   4.543  -0.052 -0.1206  0.4486 -0.3094
  908MOL0     C19740   9.424   4.641  -0.148  1.0769 -0.0612  0.5600
  908MOL0     N19741   9.275   4.652  -0.129  0.3999 -0.7891 -0.6872
  908MOL0     C19742   9.197   4.767  -0.155  0.1329  0.0889  0.0458
  908MOL0     C19743   9.066   4.712  -0.137  0.2363 -0.2958 -0.3285
  908MOL0     C19744   8.935   4.795  -0.123  0.4115 -0.5421  0.6725
  908MOL0     C19745   8.814   4.704  -0.130  0.2313  0.8079  0.0526
  908MOL0     C19746   8.681   4.770  -0.088 -0.5215 -0.3446 -0.2848
  908MOL0     C19747   8.572   4.667  -0.075  0.0849  0.1770 -0.9779
  908MOL0     O19748   8.560   4.591  -0.197  0.3531  0.2779  0.6260
  908MOL0     C19749   8.431   4.586  -0.262 -0.1349  0.2006 -0.4694
  908MOL0     C19750   8.304   4.621  -0.205 -0.8262 -1.0437 -0.0393
  908MOL0     C19751   8.189   4.622  -0.282  0.0183  0.4540  0.0590
  908MOL0     C19752   8.194   4.573  -0.416  0.1795 -0.0665 -0.4357
  908MOL0     C19753   8.075   4.565  -0.499  0.7678  0.4705  0.2344
  908MOL0     O19754   8.086   4.552  -0.638 -0.1743  0.0343 -0.9428
  908MOL0     C19755   7.965   4.532  -0.707  0.5356 -0.5579  0.7479
  908MOL0     C19756   7.965   4.421  -0.798  0.8157 -0.0424 -0.6792
  908MOL0     C19757   7.857   4.411  -0.886  0.1650  0.8569  0.1608
  908MOL0     C19758   7.752   4.501  -0.887 -1.2119 -0.1756  0.1295
  908MOL0     O19759   7.644   4.496  -0.969  0.2535  0.3593 -0.2906
  908MOL0     C19760   7.646   4.401  -1.084  0.6793 -0.3189  0.2146
  908MOL0     C19761   7.523   4.402  -1.168 -0.1751  0.8572  0.4497
  908MOL0     C19762   7.391   4.402  -1.098  0.8075  0.2468 -1.1398
  908MOL0     C19763   7.280   4.360  -1.181 -0.3294 -0.3917  0.1597
  908MOL0     C19764   7.139   4.357  -1.114 -0.9402  0.0056  0.0159
  908MOL0     C19765   7.045   4.304  -1.231 -0.6217  0.1085  0.2235
  908MOL0     C19766   6.900   4.297  -1.200 -0.3701  0.4385  0.5783
  908MOL0     C19767   6.824   4.426  -1.242 -0.6977  1.0300 -0.3836
  908MOL0    Cl19768   6.645   4.399  -1.262  0.0477  0.0459 -0.3151
  908MOL0     C19769   7.753   4.613  -0.802  1.0267  0.4177 -0.5813
  908MOL0     C19770   7.858   4.626  -0.708 -0.0483  0.0463 -0.7267
  908MOL0     O19771   7.963   4.571  -0.435  0.2495 -0.0817 -0.0498
  908MOL0     C19772   8.318   4.528  -0.469 -0.1244 -0.0563 -0.1386
  908MOL0     C19773   8.432   4.535  -0.389  1.0879  0.3662  0.7490
  908MOL0     N19774   9.067   4.582  -0.088 -0.8507 -0.5395  0.4037
  908MOL0     N19775   9.192   4.542  -0.096 -0.0487  0.5148 -0.5545
  908MOL0     C19776  10.326   4.154   0.075  0.3276 -0.6583 -0.6362
  908MOL0     C19777  10.457   4.110   0.058  0.2878 -0.2128 -0.9405
  908MOL0     C19778  10.884   3.996   0.041 -0.1042  0.5634 -0.5179
  908MOL0     C19779  10.891   3.859   0.044 -0.0367  0.7357 -0.0360
  908MOL0     C19780  11.015   3.787   0.010  0.3205 -0.2211  0.5093
  908MOL0     C19781  11.123   3.852  -0.024 -0.4666  0.4256 -0.2943
  908MOL0     O19782  11.237   3.788  -0.073  0.2601  0.0597 -0.1344
  908MOL0     C19783  11.306   3.720   0.039 -0.5777  0.3929 -0.0129
  908MOL0     C19784  11.403   3.820   0.105 -0.5083 -0.1478  0.5824
  908MOL0     C19785  11.466   3.749   0.231 -0.2815  0.2044  0.3413
  908MOL0     C19786  11.604   3.676   0.210  0.0280 -0.0836  0.0233
  908MOL0     C19787  11.582   3.551   0.143 -0.5755  0.1335  0.6648
  908MOL0     C19788  11.567   3.450   0.082 -0.7924  0.3997  0.5904
  908MOL0     C19789  11.118   3.995  -0.031  0.3681 -0.5312  0.5665
  908MOL0     C19790  10.996   4.066   0.001 -0.2193 -0.1722 -0.3815
  908MOL0     H19791  10.516   3.937   0.329 -0.0518 -0.1352 -0.6070
  908MOL0     H19792  10.281   3.992   0.377  2.2183  1.8946  2.0872
  908MOL0     H19793   9.966   4.002   0.158  2.2365 -4.7598 -1.5209
  908MOL0     H19794  10.089   3.983   0.054  0.4766  0.5066  0.0505
  908MOL0     H19795   9.958   4.145  -0.074 -0.5497  0.3705 -0.1991
  908MOL0     H19796  10.080   4.238   0.002 -0.3908  0.3104 -0.9174
  908MOL0     H19797   9.906   4.331   0.154 -3.9709  1.6270  0.6474
  908MOL0     H19798   9.798   4.209   0.105  1.9159  0.3439  2.4944
  908MOL0     H19799   9.910   4.435  -0.056  1.8689 -1.3923  1.1073
  908MOL0     H19800   9.813   4.302  -0.125  2.3400 -2.9742  1.2526
  908MOL0     H19801   9.713   4.457   0.115  1.5471 -1.9703  0.0078
  908MOL0     H19802   9.626   4.332   0.029  2.1906 -1.3046  2.4430
  908MOL0     H19803   9.635   4.462  -0.190 -2.0786 -0.4383  1.1918
  908MOL0     H19804   9.699   4.602  -0.102  3.2144 -1.6536 -1.8919
  908MOL0     H19805   9.432   4.450  -0.052  0.0834  0.1941  3.0908
  908MOL0     H19806   9.498   4.589   0.047  0.9239 -2.2570  0.9238
  908MOL0     H19807   9.443   4.624  -0.254  0.1405  4.2245 -0.5149
  908MOL0     H19808   9.471   4.736  -0.121  2.1088 -1.0427  2.4693
  908MOL0     H19809   9.226   4.866  -0.190  1.6134 -0.1781  0.4245
  908MOL0     H19810   8.926   4.865  -0.207  1.5061 -0.0552  0.9465
  908MOL0     H19811   8.937   4.848  -0.027 -1.3325  3.9886 -1.4691
  908MOL0     H19812   8.833   4.630  -0.052 -0.7143 -0.5990 -0.9976
  908MOL0     H19813   8.813   4.654  -0.228  1.4236 -0.1519  0.5093
  908MOL0     H19814   8.687   4.817   0.011 -0.0862 -1.1777  0.1014
  908MOL0     H19815   8.641   4.834  -0.167  0.5957 -1.4180 -1.7767
  908MOL0     H19816   8.482   4.724  -0.051 -0.8183 -0.9600 -1.5952
  908MOL0     H19817   8.584   4.594   0.006 -2.4718 -1.8783 -2.3298
  908MOL0     H19818   8.301   4.648  -0.100 -1.4077  0.7820 -0.4964
  908MOL0     H19819   8.094   4.663  -0.251 -1.1400 -0.8371 -1.6037
  908MOL0     H19820   8.044   4.347  -0.792 -1.2343 -2.2996 -0.1158
  908MOL0     H19821   7.857   4.326  -0.954 -3.6893  1.5511 -0.9246
  908MOL0     H19822   7.663   4.299  -1.050  2.7732 -0.4202 -0.9574
  908MOL0     H19823   7.730   4.436  -1.145 -1.9657 -0.2571 -3.7235
  908MOL0     H19824   7.529   4.306  -1.220  0.6712  0.9790  0.2951
  908MOL0     H19825   7.536   4.484  -1.240  2.0801  1.3694  1.3525
  908MOL0     H19826   7.378   4.505  -1.063 -0.5153 -0.6344  1.1779
  908MOL0     H19827   7.394   4.337  -1.010 -0.3027  3.0390  1.1356
  908MOL0     H19828   7.266   4.432  -1.262 -1.9556 -0.2526  0.5361
  908MOL0     H19829   7.301   4.264  -1.229  0.7920 -0.2365  0.3063
  908MOL0     H19830   7.113   4.456  -1.077 -0.8553  0.3662 -0.8831
  908MOL0     H19831   7.142   4.281  -1.035  3.6309 -0.9702 -0.8015
  908MOL0     H19832   7.076   4.201  -1.250 -2.3225 -0.1810 -1.2980
  908MOL0     H19833   7.050   4.363  -1.323 -1.3336  1.0071  0.7444
  908MOL0     H19834   6.856   4.224  -1.269 -1.0030  0.9460  0.4333
  908MOL0     H19835   6.877   4.255  -1.102 -2.4105 -1.4030 -0.5805
  908MOL0     H19836   6.859   4.454  -1.342  1.8943  1.1565  0.4983
  908MOL0     H19837   6.837   4.507  -1.170  2.9992  0.5610 -0.3266
  908MOL0     H19838   7.676   4.687  -0.820 -2.0962 -2.7304 -1.4153
  908MOL0     H19839   7.859   4.710  -0.639  2.9069 -0.5186  0.0553
  908MOL0     H19840   8.315   4.501  -0.574 -4.8716  1.8805 -0.7554
  908MOL0     H19841   8.530   4.498  -0.420 -0.8625 -7.5333  1.9624
  908MOL0     H19842  10.282   4.232   0.014 -1.3483  0.4941  1.9065
  908MOL0     H19843  10.521   4.147  -0.022  2.3149 -0.7195  0.3738
  908MOL0     H19844  10.811   3.790   0.068 -1.0395  2.3542  1.4820
  908MOL0     H19845  11.018   3.679   0.013  2.1109 -0.1985  0.8088
  908MOL0     H19846  11.363   3.635   0.000 -1.5591  0.0396 -0.7287
  908MOL0     H19847  11.244   3.676   0.117  1.3939  1.3083  2.1871
  908MOL0     H19848  11.483   3.837   0.033  0.1566 -1.1859  1.0479
  908MOL0     H19849  11.340   3.906   0.128 -3.5478 -2.0885  0.0897
  908MOL0     H19850  11.392   3.683   0.279 -1.7324  1.1423 -0.5200
  908MOL0     H19851  11.497   3.833   0.294 -0.3904  0.5367 -0.0397
  908MOL0     H19852  11.656   3.739   0.137  1.8170 -1.5871 -0.0530
  908MOL0     H19853  11.657   3.665   0.304 -2.1139  0.1747  1.3276
  908MOL0     H19854  11.549   3.353   0.042  0.8472 -0.0485  0.8467
  908MOL0     H19855  11.200   4.054  -0.071 -0.5735  1.3361  1.2671
  908MOL0     H19856  10.991   4.172  -0.025 -1.5410  0.5971  2.5278
  909MOL0     O19857   8.565   0.402   9.111  0.2673  0.1898 -0.1229
  909MOL0     C19858   8.550   0.451   9.224 -0.6056 -0.1273 -0.6634
  909MOL0     O19859   8.437   0.501   9.273 -0.2171  0.7887 -0.2217
  909MOL0     C19860   8.319   0.491   9.203  0.1559  0.5840 -0.3008
  909MOL0     C19861   8.306   0.497   9.066  0.4529 -0.5532 -0.0037
  909MOL0     C19862   8.182   0.479   9.006  0.7149 -0.1881 -0.1966
  909MOL0     C19863   8.068   0.482   9.082 -0.0300 -0.0689 -0.0223
  909MOL0     O19864   7.947   0.501   9.034 -0.5815 -0.4881 -0.2247
  909MOL0     C19865   7.931   0.593   8.927 -0.2422 -0.2739 -0.0623
  909MOL0     C19866   7.787   0.649   8.927 -0.2167  0.0006 -0.5974
  909MOL0     C19867   7.675   0.562   8.988 -0.0111 -0.0310  0.5566
  909MOL0     C19868   7.530   0.621   8.979  0.2124  0.4864 -0.4626
  909MOL0     C19869   7.415   0.550   9.047 -0.5281  0.8378  0.0490
  909MOL0     C19870   7.411   0.411   8.996 -0.2517  0.0764 -1.1725
  909MOL0     C19871   7.280   0.347   9.036 -0.3959 -0.9201  0.3136
  909MOL0     C19872   7.162   0.377   8.935 -0.1647  0.0492 -0.0700
  909MOL0     N19873   7.055   0.281   8.957 -0.0360 -0.1329  0.5307
  909MOL0     C19874   7.056   0.147   8.930  0.1149  0.7452 -0.0066
  909MOL0     C19875   6.940   0.096   8.985  0.2133  0.4525  0.6795
  909MOL0     C19876   6.890  -0.049   8.961 -0.6443  0.4815  0.7336
  909MOL0     C19877   6.940  -0.133   8.831 -0.1026  0.3812  0.0125
  909MOL0     C19878   6.867  -0.274   8.814 -0.6363  0.4656  0.7177
  909MOL0     C19879   6.881  -0.324   8.671 -0.0299  0.8823 -0.0821
  909MOL0     O19880   6.837  -0.461   8.656 -0.3971 -0.9395  0.1377
  909MOL0     C19881   6.708  -0.493   8.688 -0.4142 -0.9530 -0.2619
  909MOL0     C19882   6.595  -0.419   8.641 -0.2417 -0.9886  0.3786
  909MOL0     C19883   6.464  -0.465   8.683 -0.6544 -0.2844 -0.3715
  909MOL0     C19884   6.450  -0.568   8.770 -0.9805 -0.3765  0.2855
  909MOL0     C19885   6.317  -0.604   8.813  0.4517  0.0012 -0.1390
  909MOL0     O19886   6.212  -0.530   8.768 -0.6236  0.0961  0.1004
  909MOL0     C19887   6.084  -0.533   8.813  0.9354 -0.6059  0.6455
  909MOL0     C19888   6.039  -0.586   8.936  0.2916 -0.1065  0.4281
  909MOL0     C19889   5.909  -0.566   8.978  0.6591 -0.2307  0.5157
  909MOL0     C19890   5.819  -0.496   8.900 -0.6767  0.5383 -0.5249
  909MOL0     O19891   5.686  -0.491   8.939  0.1880 -0.0190 -0.6172
  909MOL0     C19892   5.604  -0.395   8.875 -0.3576 -0.2890  0.1449
  909MOL0     C19893   5.456  -0.397   8.936  0.0179 -0.6748  0.0833
  909MOL0     C19894   5.363  -0.505   8.883  0.2821 -0.4612  0.2638
  909MOL0     C19895   5.400  -0.651   8.919  1.1160  0.4096  0.5538
  909MOL0     C19896   5.285  -0.756   8.878  0.3506 -0.5285  0.2631
  909MOL0     C19897   5.285  -0.773   8.720 -0.0294  0.1760  0.0685
  909MOL0     C19898   5.219  -0.902   8.677 -1.1622 -0.2621  0.3680
  909MOL0     C19899   5.213  -0.907   8.526  0.1035  0.5981  0.2928
  909MOL0    Cl19900   5.142  -1.062   8.463 -0.4402 -0.3508 -0.2913
  909MOL0     C19901   5.856  -0.451   8.773 -0.8588 -0.1246 -0.5922
  909MOL0     C19902   5.990  -0.464   8.732  0.1867  0.5841 -0.1647
  909MOL0     O19903   6.305  -0.696   8.894 -0.3553  0.2379  0.4274
  909MOL0     C19904   6.562  -0.637   8.821  0.9896  0.1699 -0.5729
  909MOL0     C19905   6.685  -0.601   8.781 -0.5151  0.0201 -0.3213
  909MOL0     N19906   6.872   0.208   9.043  0.1590 -0.2139  0.3372
  909MOL0     N19907   6.943   0.317   9.022 -0.0797  0.3108  0.1710
  909MOL0     C19908   8.077   0.491   9.218 -0.2392 -0.8563 -0.6211
  909MOL0     C19909   8.205   0.498   9.276 -1.0750 -0.3109 -0.8256
  909MOL0     C19910   8.672   0.430   9.309 -0.3068 -0.0376  0.4813
  909MOL0     C19911   8.673   0.460   9.445  0.1941  0.6669 -0.0631
  909MOL0     C19912   8.791   0.444   9.528 -0.0912  0.4949 -0.3806
  909MOL0     C19913   8.903   0.385   9.476 -0.2125 -0.3151 -0.0611
  909MOL0     O19914   9.017   0.352   9.543  0.5106  0.2675 -0.0863
  909MOL0     C19915   9.048   0.415   9.673 -0.1182  0.1600  0.2382
  909MOL0     C19916   9.184   0.362   9.732  0.7636  0.4550 -0.6542
  909MOL0     C19917   9.299   0.368   9.645 -0.0496 -0.8744  0.3191
  909MOL0     C19918   9.365   0.504   9.623 -0.2090  0.2620  0.1343
  909MOL0     C19919   9.452   0.520   9.735 -0.0597  0.2925 -0.0385
  909MOL0     C19920   9.512   0.535   9.835  0.3682  0.8753 -1.2036
  909MOL0     C19921   8.893   0.347   9.342 -0.2413 -0.2237 -1.0772
  909MOL0     C19922   8.788   0.376   9.257  0.3354  0.6867  0.1236
  909MOL0     H19923   8.384   0.497   8.990 -0.7642  2.1244 -1.4297
  909MOL0     H19924   8.179   0.475   8.898 -3.6573  2.5770 -0.3984
  909MOL0     H19925   7.936   0.528   8.839  1.0677 -4.3059  2.6938
  909MOL0     H19926   8.003   0.672   8.947  0.8355 -1.0310 -0.7795
  909MOL0     H19927   7.752   0.687   8.830  0.1030  3.5943  0.5413
  909MOL0     H19928   7.785   0.744   8.982 -1.5282 -0.4076  0.1137
  909MOL0     H19929   7.699   0.534   9.091 -3.4249 -2.1549  0.9191
  909MOL0     H19930   7.660   0.466   8.938 -1.8312  0.0553  0.8941
  909MOL0     H19931   7.523   0.722   9.022  2.7084  0.0622  1.1611
  909MOL0     H19932   7.508   0.633   8.872  1.7165 -1.0878 -1.0009
  909MOL0     H19933   7.324   0.609   9.028 -0.2601  2.4401  3.1210
  909MOL0     H19934   7.430   0.549   9.155  1.0527 -2.3205 -0.1034
  909MOL0     H19935   7.491   0.347   9.034 -0.7778 -0.3074 -0.7027
  909MOL0     H19936   7.414   0.410   8.886  0.0141 -2.2623 -1.2040
  909MOL0     H19937   7.309   0.242   9.037 -0.2442 -0.8815  0.1219
  909MOL0     H19938   7.255   0.379   9.138 -0.8506 -1.3425  0.3326
  909MOL0     H19939   7.187   0.354   8.831 -1.0716  1.8043 -0.7310
  909MOL0     H19940   7.120   0.478   8.944 -0.3334 -0.1107  0.9979
  909MOL0     H19941   7.125   0.090   8.869  0.0328 -1.6765  1.9944
  909MOL0     H19942   6.781  -0.047   8.971 -1.0715 -2.7384 -1.7063
  909MOL0     H19943   6.940  -0.103   9.041  2.3597  0.4430 -1.0473
  909MOL0     H19944   7.049  -0.146   8.837 -0.0223  1.3846  1.2964
  909MOL0     H19945   6.923  -0.075   8.740  2.1226 -0.9478 -1.3557
  909MOL0     H19946   6.898  -0.341   8.895  0.5862  1.3874  1.0311
  909MOL0     H19947   6.759  -0.258   8.826 -1.7842 -3.3199 -2.2413
  909MOL0     H19948   6.987  -0.324   8.644 -0.0822 -1.4469 -0.4689
  909MOL0     H19949   6.833  -0.256   8.600 -0.5712 -0.7660 -1.3538
  909MOL0     H19950   6.615  -0.337   8.572  1.2573 -2.0739 -0.5351
  909MOL0     H19951   6.378  -0.401   8.665  0.6220  1.1012 -1.9944
  909MOL0     H19952   6.104  -0.640   9.005 -1.8939 -0.6068  2.2432
  909MOL0     H19953   5.864  -0.599   9.071 -0.9951  0.7709  0.1099
  909MOL0     H19954   5.594  -0.417   8.768  2.9197  0.9552 -0.5233
  909MOL0     H19955   5.640  -0.292   8.878 -1.0882 -0.0399  2.0123
  909MOL0     H19956   5.408  -0.301   8.913  0.2512 -1.5008 -5.1789
  909MOL0     H19957   5.472  -0.420   9.041 -4.0798  1.6975  1.4694
  909MOL0     H19958   5.337  -0.492   8.777  0.9780  0.9262  0.2382
  909MOL0     H19959   5.267  -0.485   8.933  0.1555  0.7892 -0.4272
  909MOL0     H19960   5.486  -0.686   8.860 -0.3572  0.7633 -1.9772
  909MOL0     H19961   5.423  -0.656   9.025 -1.3008  3.1004  1.3223
  909MOL0     H19962   5.184  -0.725   8.908  0.4883 -0.6391  0.8477
  909MOL0     H19963   5.303  -0.854   8.924  1.3252  0.4350  2.0640
  909MOL0     H19964   5.387  -0.780   8.681  1.1250  3.7329  2.0326
  909MOL0     H19965   5.236  -0.687   8.673  1.5072  1.0616  0.0287
  909MOL0     H19966   5.279  -0.989   8.701 -3.1067 -1.8029 -0.0589
  909MOL0     H19967   5.117  -0.906   8.716 -2.1215 -0.0599 -1.9650
  909MOL0     H19968   5.314  -0.906   8.485  1.2280  0.9286  2.9060
  909MOL0     H19969   5.142  -0.834   8.484 -0.0877 -0.3194 -1.0593
  909MOL0     H19970   5.794  -0.411   8.693  0.5516 -0.1188 -1.7362
  909MOL0     H19971   6.022  -0.412   8.643 -2.5375 -0.6039 -1.9798
  909MOL0     H19972   6.544  -0.712   8.897 -1.3577  1.7743  0.5966
  909MOL0     H19973   6.781  -0.645   8.806 -0.7927 -2.1181 -2.5913
  909MOL0     H19974   7.990   0.509   9.280  0.5352 -2.6666  1.0647
  909MOL0     H19975   8.225   0.495   9.383  2.2348 -1.9177 -1.3349
  909MOL0     H19976   8.579   0.495   9.488  1.9757  3.4399  1.9816
  909MOL0     H19977   8.783   0.483   9.629  1.2541  0.5154 -0.2680
  909MOL0     H19978   8.964   0.400   9.741 -0.8475  0.0294 -0.6651
  909MOL0     H19979   9.045   0.521   9.645 -1.1745 -0.1568 -0.9596
  909MOL0     H19980   9.204   0.407   9.829  0.4117  2.5971 -1.5165
  909MOL0     H19981   9.176   0.256   9.757 -1.1121  0.6560 -0.2735
  909MOL0     H19982   9.273   0.332   9.546 -2.4702 -1.2863  1.0529
  909MOL0     H19983   9.380   0.301   9.676  0.1749 -0.4453  0.6877
  909MOL0     H19984   9.422   0.515   9.531 -0.1749 -0.1484  0.1055
  909MOL0     H19985   9.291   0.582   9.608  1.0343  0.8464 -3.9676
  909MOL0     H19986   9.558   0.541   9.931 -2.9719 -2.1571  0.8687
  909MOL0     H19987   8.978   0.289   9.306 -0.2046 -2.8500  2.7210
  909MOL0     H19988   8.787   0.341   9.155  0.6751  1.6810 -0.2294
  910MOL0     O19989   9.938   6.460   5.891 -1.2414 -0.1335 -0.0871
  910MOL0     C19990  10.012   6.383   5.826 -0.5588  0.5463 -0.8217
  910MOL0     O19991   9.999   6.362   5.693  0.0552 -0.4347  0.2133
  910MOL0     C19992   9.903   6.436   5.635  0.7105 -0.1937  0.4735
  910MOL0     C19993   9.944   6.542   5.556 -0.1828  0.1159 -0.0800
  910MOL0     C19994   9.844   6.619   5.490  0.4171 -0.1809  0.3890
  910MOL0     C19995   9.706   6.596   5.512  0.5690 -0.1834 -0.0580
  910MOL0     O19996   9.610   6.670   5.439  0.5304  0.9898 -0.0216
  910MOL0     C19997   9.612   6.811   5.430  0.0272  0.2589  0.0538
  910MOL0     C19998   9.553   6.866   5.556 -0.3416  0.1802  0.0803
  910MOL0     C19999   9.524   7.018   5.550  0.2313 -0.7658 -0.0057
  910MOL0     C20000   9.476   7.090   5.676 -0.1071  0.2151  0.0276
  910MOL0     C20001   9.358   7.006   5.744  0.1002 -0.4198 -0.3061
  910MOL0     C20002   9.256   7.088   5.816  1.0692 -0.1986  0.0510
  910MOL0     C20003   9.175   7.007   5.918 -0.7371  0.4268  0.9712
  910MOL0     C20004   9.070   7.091   5.992 -1.2074 -0.3812 -0.9131
  910MOL0     N20005   8.948   7.017   6.012  0.0968  0.0182  0.0644
  910MOL0     C20006   8.913   6.951   6.125  0.2053  0.5701 -0.4975
  910MOL0     C20007   8.787   6.899   6.101 -0.1540  0.3929  0.6098
  910MOL0     C20008   8.713   6.809   6.206  0.8881  0.0721 -0.0248
  910MOL0     C20009   8.569   6.862   6.229  0.8868  0.7262 -0.1165
  910MOL0     C20010   8.503   6.766   6.333  0.6202 -1.0078 -0.2605
  910MOL0     C20011   8.356   6.811   6.349 -0.5526  0.4531 -0.7557
  910MOL0     O20012   8.296   6.702   6.415  0.1617 -0.3388  0.3142
  910MOL0     C20013   8.161   6.718   6.421  0.2137  0.5259 -0.3160
  910MOL0     C20014   8.084   6.820   6.372  0.8178 -0.9169 -0.0933
  910MOL0     C20015   7.939   6.818   6.381  0.0320 -0.5353  0.0710
  910MOL0     C20016   7.877   6.708   6.454 -0.9157  0.4502  0.5909
  910MOL0     C20017   7.730   6.705   6.486 -0.6757 -0.3792  0.3215
  910MOL0     O20018   7.649   6.800   6.443  0.0182 -0.9699  0.1706
  910MOL0     C20019   7.513   6.798   6.466  0.3104  0.0427 -0.5835
  910MOL0     C20020   7.444   6.922   6.474 -1.1759  1.1284  0.0088
  910MOL0     C20021   7.308   6.925   6.503 -0.8696  0.5720 -0.0637
  910MOL0     C20022   7.229   6.812   6.501  0.7079  0.3046  0.1433
  910MOL0     O20023   7.094   6.830   6.492 -0.4169  0.2327 -0.5438
  910MOL0     C20024   7.035   6.776   6.604 -0.4864 -0.9353 -0.4591
  910MOL0     C20025   6.894   6.839   6.622  0.5733  0.6360  0.1572
  910MOL0     C20026   6.786   6.773   6.520 -0.4848 -0.7442  0.2399
  910MOL0     C20027   6.643   6.835   6.529  0.0388 -0.0131  0.7807
  910MOL0     C20028   6.586   6.845   6.376  0.5079 -0.0117 -0.5375
  910MOL0     C20029   6.443   6.906   6.375 -0.4829  0.6961 -0.0158
  910MOL0     C20030   6.447   7.061   6.394  0.2727 -0.0960 -0.5821
  910MOL0     C20031   6.304   7.100   6.429  0.6478  0.2002  0.7791
  910MOL0    Cl20032   6.191   7.087   6.292 -0.4623 -0.0157  0.3201
  910MOL0     C20033   7.291   6.687   6.478 -0.0124 -0.4703 -0.9130
  910MOL0     C20034   7.425   6.682   6.471  0.8396 -0.1049 -0.6164
  910MOL0     O20035   7.704   6.612   6.552  0.0842  0.2536 -0.0435
  910MOL0     C20036   7.959   6.597   6.495 -0.3291  0.0613  0.5806
  910MOL0     C20037   8.100   6.606   6.471  0.3824  0.2307 -0.9861
  910MOL0     N20038   8.756   6.925   5.967  0.0821  0.3600  0.2102
  910MOL0     N20039   8.853   6.989   5.917 -1.3663  0.1667 -0.0203
  910MOL0     C20040   9.666   6.486   5.600  0.6983 -0.5139  1.0714
  910MOL0     C20041   9.764   6.410   5.660 -0.1902  0.4546 -0.4202
  910MOL0     C20042  10.123   6.309   5.887 -0.2526  0.5770  0.1176
  910MOL0     C20043  10.229   6.248   5.812  0.9869  0.3467 -0.1583
  910MOL0     C20044  10.326   6.166   5.874 -0.6806 -0.1904 -0.0569
  910MOL0     C20045  10.334   6.142   6.007 -0.4342  0.0978 -0.0661
  910MOL0     O20046  10.449   6.068   6.050 -0.0149 -0.4271  0.7155
  910MOL0     C20047  10.458   6.029   6.188 -0.9309  0.3265 -0.1107
  910MOL0     C20048  10.574   5.934   6.211 -0.2927 -0.7014 -0.3182
  910MOL0     C20049  10.544   5.796   6.157  0.0763  0.0215 -0.0300
  910MOL0     C20050  10.679   5.721   6.156  0.5788  0.8519 -0.0463
  910MOL0     C20051  10.645   5.579   6.125  0.1632 -0.4980  0.2766
  910MOL0     C20052  10.605   5.474   6.088 -0.7226  0.7264  0.7665
  910MOL0     C20053  10.231   6.200   6.079 -0.3337  0.5365 -0.1908
  910MOL0     C20054  10.129   6.281   6.023 -0.7264 -0.5327  0.8557
  910MOL0     H20055  10.051   6.549   5.537 -0.0949  0.3307  0.4560
  910MOL0     H20056   9.877   6.688   5.412  0.6447 -0.4342  0.2623
  910MOL0     H20057   9.550   6.829   5.342 -0.9415 -1.3607  0.3769
  910MOL0     H20058   9.716   6.842   5.409  1.2288 -2.1948  1.9263
  910MOL0     H20059   9.619   6.829   5.635  1.5823 -2.6227 -2.6032
  910MOL0     H20060   9.463   6.805   5.570 -0.9686  0.5738 -1.9139
  910MOL0     H20061   9.445   7.035   5.476 -2.4664 -0.1370  2.7468
  910MOL0     H20062   9.613   7.070   5.515 -0.6784  1.1393  0.3480
  910MOL0     H20063   9.550   7.100   5.756 -0.9464  2.6583  0.5921
  910MOL0     H20064   9.442   7.191   5.651  2.5515  0.9798 -0.8435
  910MOL0     H20065   9.409   6.934   5.809  0.9022  0.8153  0.4561
  910MOL0     H20066   9.306   6.948   5.667  2.2884 -2.6209 -0.2728
  910MOL0     H20067   9.183   7.119   5.740 -0.7420  0.3426  1.9280
  910MOL0     H20068   9.294   7.184   5.851 -0.5237  0.0210  1.3409
  910MOL0     H20069   9.123   6.926   5.866 -0.7041  1.2232 -0.3482
  910MOL0     H20070   9.239   6.968   5.998 -1.3940  1.0828  1.8401
  910MOL0     H20071   9.033   7.178   5.937 -1.9950 -0.3257 -0.3193
  910MOL0     H20072   9.120   7.127   6.082 -0.9476  0.0441 -1.2259
  910MOL0     H20073   8.974   6.955   6.215 -0.5346  0.2031  0.0308
  910MOL0     H20074   8.775   6.802   6.296 -2.5617  0.9846  2.6356
  910MOL0     H20075   8.704   6.705   6.172 -0.3117  0.7048 -1.7604
  910MOL0     H20076   8.506   6.868   6.140 -1.0453  2.2019  1.2496
  910MOL0     H20077   8.562   6.963   6.272 -0.1092  1.0672 -1.0337
  910MOL0     H20078   8.497   6.670   6.282 -0.8762 -1.3312  0.4662
  910MOL0     H20079   8.561   6.778   6.425  0.3011  1.0921 -0.2819
  910MOL0     H20080   8.312   6.822   6.249 -0.1940 -0.3129 -1.0060
  910MOL0     H20081   8.344   6.905   6.403 -0.2082  0.0079  0.1052
  910MOL0     H20082   8.119   6.908   6.318  0.1628  0.1618  1.1740
  910MOL0     H20083   7.884   6.900   6.336 -0.4401  0.1746  1.8535
  910MOL0     H20084   7.505   7.010   6.459  0.5549  0.2965  1.8051
  910MOL0     H20085   7.272   7.023   6.533 -0.0040  0.8786  0.0037
  910MOL0     H20086   7.109   6.796   6.682 -1.9672 -3.3817  1.7326
  910MOL0     H20087   7.030   6.667   6.594  2.1714 -1.0734 -0.8201
  910MOL0     H20088   6.902   6.948   6.610 -0.3670  0.6229 -0.7591
  910MOL0     H20089   6.866   6.834   6.728 -1.6608  1.2631 -0.3390
  910MOL0     H20090   6.789   6.665   6.538 -1.8777 -0.4746  2.4376
  910MOL0     H20091   6.823   6.790   6.419 -0.7370  0.4816  0.3372
  910MOL0     H20092   6.570   6.773   6.581 -1.0042  0.9039  0.4381
  910MOL0     H20093   6.646   6.930   6.582 -0.7785 -1.2597  3.1888
  910MOL0     H20094   6.590   6.749   6.325  3.4747  0.2841 -1.0514
  910MOL0     H20095   6.655   6.899   6.311  1.2835 -0.1539  0.1543
  910MOL0     H20096   6.381   6.847   6.443  0.2932  0.7915  0.7752
  910MOL0     H20097   6.410   6.879   6.274 -0.8505 -1.7745  0.6834
  910MOL0     H20098   6.504   7.086   6.484 -2.7902  0.2291  1.3965
  910MOL0     H20099   6.483   7.114   6.305  2.6096  0.0971  0.3968
  910MOL0     H20100   6.305   7.203   6.463  0.3323  0.6416 -0.4929
  910MOL0     H20101   6.270   7.021   6.497  0.6959 -0.2899  0.2498
  910MOL0     H20102   7.234   6.597   6.457  2.4832 -2.1616 -0.8948
  910MOL0     H20103   7.467   6.582   6.467 -1.9356 -1.3739 -0.3488
  910MOL0     H20104   7.913   6.507   6.535 -0.6887  0.2758  0.6545
  910MOL0     H20105   8.166   6.532   6.513  0.7104  0.9144 -0.2822
  910MOL0     H20106   9.562   6.464   5.621 -0.4667  1.3669 -2.0202
  910MOL0     H20107   9.734   6.325   5.721  1.6591 -0.2251 -0.3842
  910MOL0     H20108  10.224   6.258   5.704  1.6628 -3.1485 -0.6185
  910MOL0     H20109  10.409   6.134   5.811 -0.5562  0.5313 -0.2823
  910MOL0     H20110  10.367   5.983   6.227 -2.1152 -0.0744 -3.0484
  910MOL0     H20111  10.471   6.114   6.255  4.6326  0.9157 -1.4358
  910MOL0     H20112  10.667   5.971   6.167 -1.0979 -0.7105 -2.1130
  910MOL0     H20113  10.587   5.932   6.319 -0.6420  4.2129  0.0438
  910MOL0     H20114  10.508   5.807   6.054 -0.2281 -3.9941 -0.5073
  910MOL0     H20115  10.473   5.750   6.225  1.4036 -3.6584 -0.8876
  910MOL0     H20116  10.732   5.763   6.070 -3.2921  0.7070 -2.8026
  910MOL0     H20117  10.724   5.727   6.255 -1.1504  1.2701  0.7463
  910MOL0     H20118  10.561   5.384   6.049 -2.4623  2.6816 -2.2164
  910MOL0     H20119  10.223   6.188   6.186 -1.3149  0.6445 -0.2413
  910MOL0     H20120  10.045   6.316   6.083  0.2684 -0.2765  2.1643
  911MOL0     O20121   4.101   4.354   8.360  0.0277 -0.2269 -0.4118
  911MOL0     C20122   4.104   4.377   8.485  0.3289 -0.6159  0.8468
  911MOL0     O20123   4.177   4.468   8.538  0.1254 -0.2441  0.0575
  911MOL0     C20124   4.301   4.506   8.489  0.0943  1.1811  0.0871
  911MOL0     C20125   4.371   4.610   8.554 -1.2343 -0.3109  0.0434
  911MOL0     C20126   4.486   4.662   8.498  0.3692  0.4148  0.4112
  911MOL0     C20127   4.540   4.624   8.367 -0.3689  0.8679 -0.2248
  911MOL0     O20128   4.649   4.673   8.304 -0.3437  0.0105 -0.1170
  911MOL0     C20129   4.737   4.765   8.366  0.2477  0.0561  0.2413
  911MOL0     C20130   4.775   4.871   8.259 -0.3645 -0.0961 -0.0068
  911MOL0     C20131   4.836   4.817   8.127  0.1956  0.8232  0.1663
  911MOL0     C20132   4.920   4.916   8.037  0.9674  0.5692  0.3613
  911MOL0     C20133   5.009   4.836   7.932  0.2311  0.2180  0.7014
  911MOL0     C20134   5.071   4.939   7.838 -0.3642 -0.0858 -0.1140
  911MOL0     C20135   5.130   4.878   7.718 -0.5651 -0.4833  0.2329
  911MOL0     C20136   5.056   4.766   7.643  0.4230  0.0744  0.0130
  911MOL0     N20137   4.935   4.816   7.570 -0.2485 -1.1125 -0.7271
  911MOL0     C20138   4.808   4.758   7.590  0.4476 -0.8620  1.0065
  911MOL0     C20139   4.727   4.828   7.503 -0.7632 -0.1696 -0.0659
  911MOL0     C20140   4.578   4.812   7.480 -1.1684 -0.9611 -0.3869
  911MOL0     C20141   4.527   4.897   7.364 -0.3695 -1.0202  0.8010
  911MOL0     C20142   4.377   4.882   7.347  0.4523  1.0921 -0.6962
  911MOL0     C20143   4.331   4.928   7.203  0.3763 -0.2729  0.0545
  911MOL0     O20144   4.207   4.884   7.148  0.0625 -0.0182  0.3845
  911MOL0     C20145   4.086   4.946   7.192 -0.0520  1.2206  0.3885
  911MOL0     C20146   3.990   4.975   7.102  0.1696  0.0032  0.3664
  911MOL0     C20147   3.858   5.013   7.141  1.1177  0.9151 -0.4260
  911MOL0     C20148   3.837   5.052   7.277 -0.0064 -0.5813  0.6048
  911MOL0     C20149   3.714   5.117   7.326  0.8469  0.5157 -0.0726
  911MOL0     O20150   3.709   5.166   7.456 -0.7717 -0.1638 -0.0758
  911MOL0     C20151   3.588   5.192   7.522  0.6577 -0.3013 -0.3400
  911MOL0     C20152   3.522   5.319   7.514  0.5095  0.0246  0.3397
  911MOL0     C20153   3.418   5.342   7.607  0.7538  0.0293 -0.8492
  911MOL0     C20154   3.364   5.239   7.685  0.1160 -0.3573 -0.1326
  911MOL0     O20155   3.247   5.267   7.755  0.2010 -0.0883  0.0902
  911MOL0     C20156   3.256   5.281   7.897 -0.5049  0.0580  0.0716
  911MOL0     C20157   3.148   5.380   7.929  0.1563  0.0005 -0.5397
  911MOL0     C20158   3.191   5.524   7.896  0.7266  0.1784  0.0815
  911MOL0     C20159   3.080   5.620   7.927 -0.1957 -0.0979 -0.5194
  911MOL0     C20160   2.968   5.607   7.827 -0.5469  0.4681  0.6969
  911MOL0     C20161   2.903   5.732   7.776  0.4951 -0.4968 -0.2204
  911MOL0     C20162   2.861   5.842   7.885 -0.5141  0.7435 -0.2870
  911MOL0     C20163   2.732   5.917   7.849  0.0848 -0.4676 -0.5098
  911MOL0    Cl20164   2.589   5.815   7.865 -0.0115 -0.3341  0.1715
  911MOL0     C20165   3.420   5.117   7.686 -0.0680  0.3646  0.6966
  911MOL0     C20166   3.529   5.091   7.599  0.0969 -0.3392 -0.8802
  911MOL0     O20167   3.611   5.102   7.257  0.4453  0.1125 -0.1319
  911MOL0     C20168   3.929   5.017   7.375  0.5250  0.0783  0.4963
  911MOL0     C20169   4.053   4.961   7.330 -0.4486 -0.9313  0.3533
  911MOL0     N20170   4.809   4.931   7.442 -0.5264  0.2263  0.2475
  911MOL0     N20171   4.935   4.916   7.474  0.3179  0.0358 -0.5000
  911MOL0     C20172   4.473   4.511   8.319 -0.4576 -0.0235 -0.4181
  911MOL0     C20173   4.366   4.450   8.384  0.0078 -0.1195 -0.1234
  911MOL0     C20174   3.998   4.331   8.573  0.5345 -0.2182  0.1728
  911MOL0     C20175   3.954   4.390   8.686 -0.7979 -0.2914 -1.1652
  911MOL0     C20176   3.845   4.355   8.761  0.3015  0.2910  0.5920
  911MOL0     C20177   3.777   4.236   8.722 -0.0768  0.4899  0.6134
  911MOL0     O20178   3.677   4.192   8.796 -0.2631 -0.1584  0.9450
  911MOL0     C20179   3.590   4.091   8.739 -0.6476 -0.6011 -0.3748
  911MOL0     C20180   3.458   4.075   8.817  0.3877  0.0197 -0.2807
  911MOL0     C20181   3.461   3.955   8.909  0.6479  0.4729 -0.2198
  911MOL0     C20182   3.559   3.961   9.019  0.0317  0.3167 -0.1355
  911MOL0     C20183   3.540   3.833   9.095 -0.2622 -0.1587  0.1597
  911MOL0     C20184   3.544   3.728   9.163  0.7804  0.1723 -0.5612
  911MOL0     C20185   3.825   4.163   8.598  0.8127  0.3379 -0.7698
  911MOL0     C20186   3.928   4.214   8.525 -1.1918 -0.0816  0.3880
  911MOL0     H20187   4.346   4.646   8.653  2.9115  0.7148  0.9189
  911MOL0     H20188   4.540   4.734   8.558  3.5427 -1.7076  0.3287
  911MOL0     H20189   4.828   4.715   8.401 -0.0438 -0.1771  0.6652
  911MOL0     H20190   4.700   4.817   8.455  0.0908 -1.1661  0.9118
  911MOL0     H20191   4.849   4.938   8.303  0.6775 -0.5588 -1.0023
  911MOL0     H20192   4.691   4.937   8.234 -0.6954  0.7098  2.8573
  911MOL0     H20193   4.755   4.763   8.077  1.1723 -1.8340  1.2529
  911MOL0     H20194   4.915   4.744   8.151 -2.6743 -1.7602  2.6555
  911MOL0     H20195   4.844   4.985   8.000  0.4260  0.0672  0.5172
  911MOL0     H20196   4.978   4.977   8.107 -0.7178  2.4008  0.2177
  911MOL0     H20197   4.938   4.771   7.881  0.2457 -1.3769  2.5954
  911MOL0     H20198   5.080   4.770   7.983 -2.4352 -5.1035 -1.6830
  911MOL0     H20199   5.148   5.000   7.886 -1.0921  0.2214  0.6687
  911MOL0     H20200   4.993   5.003   7.796  1.1717  0.6413 -2.0975
  911MOL0     H20201   5.142   4.958   7.644  2.9080 -2.2311 -1.3334
  911MOL0     H20202   5.234   4.853   7.738 -0.0506 -0.0725 -1.7158
  911MOL0     H20203   5.021   4.687   7.710 -1.1175  2.1207  1.7750
  911MOL0     H20204   5.137   4.723   7.584  1.9928  2.3655  0.3687
  911MOL0     H20205   4.776   4.672   7.647 -0.8002  0.0886  1.7844
  911MOL0     H20206   4.550   4.856   7.576 -3.6019 -2.0939 -0.5185
  911MOL0     H20207   4.539   4.711   7.469 -1.5618 -0.7368 -1.1060
  911MOL0     H20208   4.574   4.875   7.267 -0.7892  1.0564  0.0582
  911MOL0     H20209   4.549   5.003   7.379  1.1432 -0.6202 -3.0183
  911MOL0     H20210   4.351   4.776   7.355  2.1176  0.7710  0.8192
  911MOL0     H20211   4.328   4.930   7.432  1.0828 -1.1501  1.0094
  911MOL0     H20212   4.405   4.887   7.133 -1.7262 -1.8810 -1.3416
  911MOL0     H20213   4.319   5.037   7.200 -2.6492 -0.5400 -3.1926
  911MOL0     H20214   4.010   4.967   6.996 -1.3069 -0.5818  0.1023
  911MOL0     H20215   3.785   5.028   7.062  2.9225 -0.0496 -2.3805
  911MOL0     H20216   3.550   5.400   7.447 -0.1448 -0.2901 -0.3284
  911MOL0     H20217   3.367   5.438   7.607  1.2042  0.3056  1.2641
  911MOL0     H20218   3.353   5.318   7.933  0.0323  0.5914 -1.8453
  911MOL0     H20219   3.241   5.188   7.952  2.7860 -0.2352  0.6880
  911MOL0     H20220   3.113   5.364   8.032  0.8960 -2.7774 -0.6209
  911MOL0     H20221   3.053   5.360   7.879  0.4940 -2.5513 -0.3383
  911MOL0     H20222   3.214   5.537   7.790  0.5469  0.4126  0.0701
  911MOL0     H20223   3.273   5.546   7.964  0.4894 -1.3497  0.9032
  911MOL0     H20224   3.037   5.603   8.026  0.0868  2.6030  0.1491
  911MOL0     H20225   3.124   5.720   7.933 -1.4187  0.6340 -2.8426
  911MOL0     H20226   2.898   5.529   7.856 -0.3525 -0.5149 -1.2727
  911MOL0     H20227   3.011   5.566   7.735 -0.4644  3.0465 -0.5074
  911MOL0     H20228   2.808   5.695   7.735  1.0979 -2.3726 -0.0163
  911MOL0     H20229   2.961   5.773   7.693  2.2622 -1.7745  0.3381
  911MOL0     H20230   2.853   5.788   7.979 -0.0974  0.5221 -0.3747
  911MOL0     H20231   2.938   5.919   7.900 -1.4294  2.0732 -2.0854
  911MOL0     H20232   2.744   5.960   7.749  2.3326  0.9798  0.3255
  911MOL0     H20233   2.714   6.003   7.912 -0.8535  0.2505 -1.7077
  911MOL0     H20234   3.381   5.035   7.745  1.2083 -0.1110  0.9045
  911MOL0     H20235   3.585   4.997   7.602  1.7998  0.6536  2.1855
  911MOL0     H20236   3.909   5.014   7.482  0.5730 -0.5080  0.4897
  911MOL0     H20237   4.125   4.914   7.396  1.0431 -0.2920 -0.7427
  911MOL0     H20238   4.528   4.467   8.236 -0.4115  0.7665 -0.8270
  911MOL0     H20239   4.333   4.363   8.328 -1.1670 -2.3219  3.6457
  911MOL0     H20240   4.009   4.474   8.726  0.8702 -2.6538  1.9494
  911MOL0     H20241   3.823   4.412   8.851  0.0605  1.6936 -0.3384
  911MOL0     H20242   3.651   4.000   8.745  1.9294  1.0792  1.7049
  911MOL0     H20243   3.563   4.113   8.636  0.0314 -1.9197 -0.8653
  911MOL0     H20244   3.436   4.165   8.876 -0.4827  0.3968 -1.1469
  911MOL0     H20245   3.385   4.061   8.736 -0.5730  3.9630 -0.3257
  911MOL0     H20246   3.483   3.861   8.858 -1.1542  1.5151 -3.1925
  911MOL0     H20247   3.359   3.932   8.941  0.9334 -0.7224 -0.1372
  911MOL0     H20248   3.665   3.967   8.993  0.9643 -2.5750  2.3999
  911MOL0     H20249   3.542   4.046   9.086  0.6169  0.2733  0.0736
  911MOL0     H20250   3.557   3.650   9.235 -1.6781  0.3515  0.1618
  911MOL0     H20251   3.774   4.072   8.569  1.7073  0.0379 -1.4541
  911MOL0     H20252   3.961   4.153   8.441  0.5667  2.7639 -1.1437
  912MOL0     O20253   8.027   3.538   4.946 -0.1016 -0.8189  0.1306
  912MOL0     C20254   8.025   3.640   4.879 -0.3315 -0.2064 -0.5383
  912MOL0     O20255   7.935   3.737   4.894  0.6459 -0.6299  0.2118
  912MOL0     C20256   7.821   3.696   4.954  0.9813  1.1686  0.3729
  912MOL0     C20257   7.736   3.588   4.918 -0.2078 -0.4948 -0.4189
  912MOL0     C20258   7.622   3.545   4.985 -0.1326  0.3273 -0.7436
  912MOL0     C20259   7.582   3.622   5.094  1.0309 -0.5695 -1.0650
  912MOL0     O20260   7.472   3.598   5.166 -0.2444 -0.4308  0.7408
  912MOL0     C20261   7.366   3.699   5.177  0.1030  0.1526 -0.8689
  912MOL0     C20262   7.309   3.685   5.320  0.0320  0.1381  1.5397
  912MOL0     C20263   7.221   3.555   5.335  0.1083  0.6373 -0.4946
  912MOL0     C20264   7.127   3.570   5.455  0.2247 -0.0673  0.4323
  912MOL0     C20265   7.053   3.450   5.490 -0.4127 -0.2388  0.1700
  912MOL0     C20266   6.947   3.473   5.600  0.1665  0.5035  0.6742
  912MOL0     C20267   6.890   3.335   5.643 -0.4635 -0.3603 -0.4987
  912MOL0     C20268   6.803   3.362   5.765  0.6504  1.1325 -0.5276
  912MOL0     N20269   6.777   3.236   5.845  0.5958  0.1702 -0.6263
  912MOL0     C20270   6.668   3.149   5.847  0.6684 -0.4794 -0.0171
  912MOL0     C20271   6.690   3.069   5.955  0.0282  1.3943 -0.1146
  912MOL0     C20272   6.589   2.968   6.005  0.3476  0.0937 -0.2412
  912MOL0     C20273   6.470   3.051   6.048 -0.1934 -0.1424 -0.4974
  912MOL0     C20274   6.358   2.969   6.108  0.0143 -0.3640 -0.2458
  912MOL0     C20275   6.238   3.057   6.159  0.6120 -0.3923 -0.7087
  912MOL0     O20276   6.141   2.980   6.229  0.0491  0.8391  0.1006
  912MOL0     C20277   6.016   3.026   6.238  0.2312 -0.1492 -0.1313
  912MOL0     C20278   5.978   3.158   6.229  0.2936 -0.2976 -0.0910
  912MOL0     C20279   5.839   3.195   6.235  0.6535  0.0207 -0.3022
  912MOL0     C20280   5.743   3.099   6.262 -0.2056  0.0394 -1.0302
  912MOL0     C20281   5.609   3.131   6.288  0.7023  0.3370  0.0476
  912MOL0     O20282   5.516   3.035   6.304  0.2205 -0.3404  0.0808
  912MOL0     C20283   5.388   3.079   6.323 -0.0631  0.5962 -0.5941
  912MOL0     C20284   5.292   3.043   6.234  0.2319  0.1376 -0.5068
  912MOL0     C20285   5.162   3.067   6.268 -0.5497 -0.0103  0.6230
  912MOL0     C20286   5.119   3.129   6.388  0.3780 -1.1220 -0.2573
  912MOL0     O20287   4.989   3.169   6.417 -0.4216  0.3253 -0.2630
  912MOL0     C20288   4.943   3.147   6.555  0.0908 -0.1069  0.6197
  912MOL0     C20289   4.791   3.147   6.536 -0.2023  0.7713  0.2067
  912MOL0     C20290   4.723   3.045   6.447 -0.4158 -1.4421 -0.1729
  912MOL0     C20291   4.751   2.914   6.515 -0.3782 -0.4442  0.2962
  912MOL0     C20292   4.660   2.805   6.455  0.0152  0.6317  0.1361
  912MOL0     C20293   4.510   2.802   6.478 -0.0601  0.6424 -0.5509
  912MOL0     C20294   4.480   2.774   6.629  0.8022 -0.0670 -0.0278
  912MOL0     C20295   4.346   2.694   6.640 -0.6736 -0.8891  0.1183
  912MOL0    Cl20296   4.321   2.638   6.807  0.1299  0.0943 -0.3192
  912MOL0     C20297   5.223   3.154   6.486  0.0320  0.5234 -0.5180
  912MOL0     C20298   5.360   3.138   6.448 -0.2466 -0.7206  0.1164
  912MOL0     O20299   5.583   3.248   6.300 -0.5269 -0.4479  0.9029
  912MOL0     C20300   5.787   2.974   6.282  0.1855  0.4977 -0.2235
  912MOL0     C20301   5.918   2.934   6.266  0.2539 -0.2141 -0.5177
  912MOL0     N20302   6.819   3.083   6.003 -0.7522 -0.2846  0.2888
  912MOL0     N20303   6.863   3.183   5.934 -0.3514  0.0685 -0.1315
  912MOL0     C20304   7.663   3.730   5.138 -0.1558  0.0250  0.4608
  912MOL0     C20305   7.778   3.762   5.065  0.2915 -0.1242 -0.4754
  912MOL0     C20306   8.129   3.659   4.773 -0.5292  0.2076 -0.7810
  912MOL0     C20307   8.125   3.765   4.690  0.2158  0.0337  0.3869
  912MOL0     C20308   8.218   3.775   4.588  1.4235  0.6033  0.5502
  912MOL0     C20309   8.319   3.681   4.575 -1.2015 -0.2982 -0.6246
  912MOL0     O20310   8.421   3.704   4.482 -0.4686 -0.0322 -0.2610
  912MOL0     C20311   8.504   3.819   4.503 -0.0586 -0.8618  0.2113
  912MOL0     C20312   8.625   3.834   4.413 -0.2291 -0.8013 -0.6212
  912MOL0     C20313   8.743   3.747   4.446  0.5076 -0.2464 -0.0487
  912MOL0     C20314   8.859   3.739   4.349 -0.9524  0.0047  0.9391
  912MOL0     C20315   8.956   3.847   4.378  0.5404  0.4424 -0.4947
  912MOL0     C20316   9.050   3.925   4.406  0.1286  1.1019  0.7633
  912MOL0     C20317   8.325   3.568   4.655 -0.1677  0.1578  0.3761
  912MOL0     C20318   8.232   3.558   4.758 -0.5494 -0.5056  0.4199
  912MOL0     H20319   7.752   3.530   4.828  3.4252 -0.9004  0.3286
  912MOL0     H20320   7.552   3.468   4.955  1.1270 -1.1942  0.1161
  912MOL0     H20321   7.296   3.666   5.100  0.6593 -0.4171 -1.1382
  912MOL0     H20322   7.392   3.804   5.158 -0.6105  0.8872  1.7545
  912MOL0     H20323   7.237   3.767   5.329 -0.6886 -0.0920 -1.3221
  912MOL0     H20324   7.390   3.697   5.394  2.3723  1.7540 -1.0497
  912MOL0     H20325   7.273   3.461   5.317 -0.8533 -0.5352  2.2943
  912MOL0     H20326   7.155   3.556   5.247 -2.6710  0.2896  1.4540
  912MOL0     H20327   7.182   3.607   5.542  2.7771 -0.0014 -1.1198
  912MOL0     H20328   7.059   3.651   5.427  0.5627  1.1627  2.9213
  912MOL0     H20329   7.121   3.367   5.512  1.2973  1.7270  3.1038
  912MOL0     H20330   7.006   3.403   5.404  1.1840 -1.6862  0.0269
  912MOL0     H20331   6.871   3.545   5.570 -0.8847 -0.1560  1.6703
  912MOL0     H20332   7.000   3.514   5.686  0.6927  3.0866 -0.7765
  912MOL0     H20333   6.843   3.286   5.557  0.7290 -1.3481 -0.6192
  912MOL0     H20334   6.973   3.268   5.668 -1.1467 -1.0312  0.0241
  912MOL0     H20335   6.707   3.404   5.733  1.2147  4.0900  1.2193
  912MOL0     H20336   6.852   3.429   5.836 -0.6584  0.0398  1.5086
  912MOL0     H20337   6.575   3.154   5.792  2.5917 -2.8005 -3.9206
  912MOL0     H20338   6.629   2.916   6.093 -0.8495  0.9792  0.8699
  912MOL0     H20339   6.561   2.903   5.921  3.7779 -1.4368 -0.3355
  912MOL0     H20340   6.437   3.112   5.964 -1.3070 -0.9842 -0.6840
  912MOL0     H20341   6.503   3.108   6.135 -0.1320  0.0636 -0.6562
  912MOL0     H20342   6.311   2.902   6.036 -0.2972 -0.2725 -0.1315
  912MOL0     H20343   6.400   2.908   6.189 -2.4665 -0.4091  1.1083
  912MOL0     H20344   6.191   3.106   6.073 -0.1554 -0.9379 -0.6132
  912MOL0     H20345   6.287   3.129   6.225  1.5904 -1.2986 -0.4180
  912MOL0     H20346   6.043   3.244   6.213 -3.1858  2.3316 -1.5008
  912MOL0     H20347   5.816   3.299   6.216 -2.1537 -0.2055  1.3731
  912MOL0     H20348   5.313   2.993   6.139 -3.0158  0.4454 -1.5027
  912MOL0     H20349   5.080   3.050   6.199 -0.9205  1.6702  0.6116
  912MOL0     H20350   4.982   3.233   6.611 -0.5980  0.7332 -0.1565
  912MOL0     H20351   4.978   3.049   6.588 -0.1525 -0.5993 -0.5378
  912MOL0     H20352   4.758   3.246   6.502  1.0933  1.3454  0.5630
  912MOL0     H20353   4.743   3.136   6.633 -0.4071 -0.4819 -0.0197
  912MOL0     H20354   4.761   3.061   6.346 -2.9273 -0.0261 -0.9661
  912MOL0     H20355   4.619   3.076   6.437  0.2386  1.0126 -0.1950
  912MOL0     H20356   4.857   2.891   6.502 -0.2997 -0.5314  1.0328
  912MOL0     H20357   4.738   2.914   6.623  2.0213 -0.5440  0.6337
  912MOL0     H20358   4.702   2.710   6.491 -0.6322  0.7929  1.3660
  912MOL0     H20359   4.675   2.800   6.347  0.8230 -1.4912  0.2837
  912MOL0     H20360   4.464   2.721   6.421  0.2349 -1.1955  1.6445
  912MOL0     H20361   4.458   2.892   6.445 -2.4849 -0.9606 -1.4672
  912MOL0     H20362   4.561   2.720   6.678  1.1535  0.4139 -0.0660
  912MOL0     H20363   4.474   2.871   6.679 -0.4384 -0.0013 -0.2739
  912MOL0     H20364   4.351   2.610   6.570  2.3465 -1.4342  0.8505
  912MOL0     H20365   4.271   2.768   6.610  0.4136  0.8057  1.3914
  912MOL0     H20366   5.200   3.213   6.574  2.5788 -1.1217  1.3815
  912MOL0     H20367   5.443   3.156   6.516 -2.1323  0.7814  2.1719
  912MOL0     H20368   5.726   2.894   6.323  1.7216 -0.8041 -0.3928
  912MOL0     H20369   5.949   2.839   6.308  2.0470 -0.2534 -1.8084
  912MOL0     H20370   7.644   3.797   5.221 -1.8543  2.3191 -1.6514
  912MOL0     H20371   7.832   3.854   5.088 -0.7875  0.3339  0.3006
  912MOL0     H20372   8.043   3.836   4.696 -1.5778 -1.7843 -1.1153
  912MOL0     H20373   8.207   3.857   4.518  0.2088 -0.8041 -0.9707
  912MOL0     H20374   8.536   3.816   4.608 -0.7816 -1.2718  0.4291
  912MOL0     H20375   8.459   3.917   4.487 -2.1294 -1.9372 -0.9295
  912MOL0     H20376   8.592   3.816   4.310 -1.0161 -0.8372 -0.3716
  912MOL0     H20377   8.645   3.941   4.421  0.5090 -1.0408  1.4748
  912MOL0     H20378   8.714   3.644   4.466  1.5126 -0.3978  0.7012
  912MOL0     H20379   8.773   3.787   4.544 -0.2365 -2.7473  1.2948
  912MOL0     H20380   8.931   3.661   4.374  0.7681  0.4569 -2.1110
  912MOL0     H20381   8.837   3.715   4.244 -1.0537  0.7043  0.7905
  912MOL0     H20382   9.137   3.975   4.443  0.0637  1.2372  0.7328
  912MOL0     H20383   8.402   3.494   4.640 -0.8507 -0.2518 -1.4502
  912MOL0     H20384   8.235   3.468   4.818  0.0140 -0.9420 -0.2408
  913MOL0     O20385  10.034   8.095   1.817 -0.1092 -0.0291 -0.2902
  913MOL0     C20386  10.070   8.065   1.703  0.0305  0.4021  0.1432
  913MOL0     O20387   9.996   8.006   1.606 -0.3094 -0.2054 -0.3204
  913MOL0     C20388   9.860   8.004   1.633  0.2625 -0.4374 -0.4106
  913MOL0     C20389   9.771   8.103   1.596  0.4954  0.2611 -0.2243
  913MOL0     C20390   9.637   8.106   1.634 -0.1368 -0.0237  0.7806
  913MOL0     C20391   9.587   8.017   1.727 -0.3332 -0.3895  0.2587
  913MOL0     O20392   9.451   8.019   1.765 -0.4681 -0.4379  0.2523
  913MOL0     C20393   9.405   7.900   1.822  0.1677  0.5461 -0.0149
  913MOL0     C20394   9.260   7.937   1.844  0.6285  0.1298  0.8336
  913MOL0     C20395   9.198   7.818   1.919 -0.0136  0.6157  0.1584
  913MOL0     C20396   9.043   7.810   1.890 -0.0067  0.3097  0.6094
  913MOL0     C20397   8.980   7.712   1.994  0.4599 -0.0244 -0.0408
  913MOL0     C20398   8.828   7.701   1.976 -0.3175 -0.1809 -0.4662
  913MOL0     C20399   8.776   7.594   2.077  0.3922  0.1769 -0.4804
  913MOL0     C20400   8.622   7.620   2.082  0.3416 -0.2572  0.3101
  913MOL0     N20401   8.547   7.527   2.157  0.7762 -0.0269  0.2517
  913MOL0     C20402   8.473   7.550   2.269  0.5864 -0.1789  0.2484
  913MOL0     C20403   8.428   7.425   2.304 -0.4325  0.1742 -0.1001
  913MOL0     C20404   8.363   7.396   2.441  0.3870 -1.1435 -1.1502
  913MOL0     C20405   8.253   7.288   2.414 -0.3152 -1.1871  0.1617
  913MOL0     C20406   8.218   7.226   2.553  0.7942  0.3968  0.0765
  913MOL0     C20407   8.111   7.117   2.562 -0.3502 -0.9074 -0.0715
  913MOL0     O20408   7.987   7.177   2.530  1.0351  0.1551  0.3725
  913MOL0     C20409   7.864   7.120   2.556  0.6405 -0.4813  0.3834
  913MOL0     C20410   7.842   7.000   2.631 -0.2587 -0.8656  0.5561
  913MOL0     C20411   7.710   6.964   2.639  0.3222 -0.1671 -0.3772
  913MOL0     C20412   7.601   7.046   2.592  0.4016 -0.1334  0.4471
  913MOL0     C20413   7.463   7.005   2.633 -0.1275  0.1671 -0.9458
  913MOL0     O20414   7.388   7.105   2.680  0.0986  0.2819 -0.4124
  913MOL0     C20415   7.270   7.088   2.746 -0.1571 -0.2606 -0.6026
  913MOL0     C20416   7.149   7.133   2.683  0.1844  0.1126  0.5547
  913MOL0     C20417   7.017   7.120   2.743  1.2169  0.7403  0.0250
  913MOL0     C20418   7.008   7.073   2.878  0.2722 -0.8309  0.5507
  913MOL0     O20419   6.892   7.062   2.953  0.0011  0.2307 -0.2458
  913MOL0     C20420   6.771   7.136   2.904 -0.7419  0.2650 -0.7601
  913MOL0     C20421   6.654   7.124   3.000  0.4581 -0.2213  0.3042
  913MOL0     C20422   6.535   7.206   2.951 -0.3871 -0.7358 -0.1118
  913MOL0     C20423   6.420   7.172   3.048  0.2747 -0.3431  0.6543
  913MOL0     C20424   6.291   7.232   3.011  0.2760  0.2014  0.6335
  913MOL0     C20425   6.183   7.147   3.082 -0.1874  0.4566  0.4774
  913MOL0     C20426   6.165   7.183   3.229 -0.4880  0.7153  0.0511
  913MOL0     C20427   6.236   7.086   3.330  0.1321  0.5765 -0.8404
  913MOL0    Cl20428   6.220   6.909   3.297  0.4205  0.0431 -0.2593
  913MOL0     C20429   7.129   7.032   2.941  0.5919 -0.8844  0.1960
  913MOL0     C20430   7.254   7.036   2.872  0.5797  0.4179 -0.0756
  913MOL0     O20431   7.430   6.891   2.627 -1.0493  0.6896  0.5399
  913MOL0     C20432   7.626   7.156   2.521  0.0679 -0.1509 -1.1119
  913MOL0     C20433   7.758   7.200   2.504 -0.1119 -0.2996  0.0910
  913MOL0     N20434   8.453   7.341   2.203 -0.0210  0.1556  0.5113
  913MOL0     N20435   8.533   7.393   2.125 -0.7486 -0.7398  0.0123
  913MOL0     C20436   9.681   7.925   1.782  0.2010  0.1662  0.6568
  913MOL0     C20437   9.818   7.916   1.734 -0.7868 -0.4920  0.6450
  913MOL0     C20438  10.211   8.107   1.674  0.1919  0.0236  0.1000
  913MOL0     C20439  10.267   8.068   1.550 -0.3129  1.1709  0.4639
  913MOL0     C20440  10.395   8.105   1.512  0.3801 -0.6441 -0.4863
  913MOL0     C20441  10.469   8.186   1.596 -0.5264  0.4413  0.2754
  913MOL0     O20442  10.603   8.213   1.568  0.4691 -0.1345  0.0662
  913MOL0     C20443  10.623   8.293   1.449 -0.3886  0.2715  0.4636
  913MOL0     C20444  10.704   8.207   1.343 -0.1988 -0.3015  0.6269
  913MOL0     C20445  10.740   8.290   1.212 -0.3952 -0.6120  0.0325
  913MOL0     C20446  10.629   8.376   1.162  0.9219  0.5571  0.3310
  913MOL0     C20447  10.510   8.294   1.141 -0.3443  0.0081  0.3460
  913MOL0     C20448  10.416   8.224   1.132  1.2264 -0.4406  0.7944
  913MOL0     C20449  10.416   8.225   1.719 -0.4323  0.3608  0.6319
  913MOL0     C20450  10.281   8.194   1.756 -0.6995 -0.5347  0.5538
  913MOL0     H20451   9.801   8.187   1.533  0.9992 -1.4555 -2.3999
  913MOL0     H20452   9.569   8.189   1.617  1.0073  1.0334  1.2633
  913MOL0     H20453   9.450   7.872   1.917  0.4378  0.6394 -0.1148
  913MOL0     H20454   9.414   7.821   1.747  2.2601  1.0898 -0.3985
  913MOL0     H20455   9.201   7.962   1.755  2.3037  0.2029 -0.3166
  913MOL0     H20456   9.246   8.026   1.906 -4.2346 -1.6277  2.7869
  913MOL0     H20457   9.221   7.813   2.026 -2.2738 -1.5991  0.6134
  913MOL0     H20458   9.245   7.722   1.895  0.4464 -0.3867  4.2551
  913MOL0     H20459   9.001   7.910   1.904  1.4820  0.6375  3.4902
  913MOL0     H20460   9.020   7.775   1.789 -1.1435 -0.6028  1.1467
  913MOL0     H20461   8.980   7.757   2.094 -3.2968  0.2268 -0.0310
  913MOL0     H20462   9.024   7.612   1.987 -2.3344 -1.4144  1.0523
  913MOL0     H20463   8.818   7.675   1.871  3.2660 -0.1415 -0.9555
  913MOL0     H20464   8.781   7.797   2.002 -0.3629  0.1946 -1.8729
  913MOL0     H20465   8.804   7.493   2.047 -0.0224 -0.4255  1.0815
  913MOL0     H20466   8.824   7.614   2.174  1.2764  1.5477 -1.1645
  913MOL0     H20467   8.575   7.619   1.983  0.6865  2.6704  0.0179
  913MOL0     H20468   8.603   7.719   2.124  0.6763 -0.3932  0.7856
  913MOL0     H20469   8.474   7.644   2.324 -3.3034  2.1278 -3.0215
  913MOL0     H20470   8.312   7.481   2.486 -2.6683 -1.8136 -3.0562
  913MOL0     H20471   8.444   7.362   2.507 -0.3126 -0.4423  0.1036
  913MOL0     H20472   8.296   7.222   2.338  1.4579 -1.4821  1.3602
  913MOL0     H20473   8.162   7.332   2.372 -0.1972 -2.2424 -1.2629
  913MOL0     H20474   8.302   7.171   2.596 -2.7774 -3.6695  2.7598
  913MOL0     H20475   8.194   7.301   2.630  4.1519  1.6602  0.0692
  913MOL0     H20476   8.096   7.063   2.656  2.1636  0.1896  1.0568
  913MOL0     H20477   8.140   7.040   2.489  1.5968 -0.1327 -0.1686
  913MOL0     H20478   7.922   6.938   2.669  1.8523  1.4262  0.0809
  913MOL0     H20479   7.682   6.869   2.683 -1.8544 -0.6009 -2.4671
  913MOL0     H20480   7.151   7.173   2.582  1.4958  0.5124  0.7234
  913MOL0     H20481   6.929   7.153   2.688  1.2317  0.6452 -0.0563
  913MOL0     H20482   6.740   7.108   2.803  2.8678 -1.4359 -1.5394
  913MOL0     H20483   6.803   7.240   2.894  2.3993 -0.5929 -0.5806
  913MOL0     H20484   6.682   7.167   3.097  2.0892  1.6135 -0.8994
  913MOL0     H20485   6.636   7.017   3.013 -1.8344  0.1037  0.2904
  913MOL0     H20486   6.504   7.191   2.847  1.0289  1.0357 -0.8343
  913MOL0     H20487   6.565   7.310   2.963 -0.4409 -0.5487 -1.4524
  913MOL0     H20488   6.401   7.066   3.029 -1.1595  0.3331 -2.2769
  913MOL0     H20489   6.442   7.208   3.149  0.0788  1.4732  0.0785
  913MOL0     H20490   6.275   7.219   2.904 -1.5831 -2.6644  1.1325
  913MOL0     H20491   6.277   7.338   3.035  0.2832 -0.0215  1.7074
  913MOL0     H20492   6.198   7.039   3.079 -4.1575 -0.2343  0.2158
  913MOL0     H20493   6.096   7.171   3.021  0.7486 -1.9454 -2.0044
  913MOL0     H20494   6.196   7.287   3.241 -0.2778  0.8146 -1.2075
  913MOL0     H20495   6.062   7.178   3.266 -0.6802  2.4450 -0.1757
  913MOL0     H20496   6.192   7.103   3.429  0.9099 -0.3054 -0.3180
  913MOL0     H20497   6.344   7.107   3.330  0.2495  0.1054 -2.5373
  913MOL0     H20498   7.117   6.996   3.043 -1.9842  0.6005  0.5295
  913MOL0     H20499   7.339   6.988   2.921  1.0644  2.3135  1.0142
  913MOL0     H20500   7.548   7.222   2.485  1.1488  1.4076 -0.6566
  913MOL0     H20501   7.777   7.301   2.470  2.2405  0.1719  2.4306
  913MOL0     H20502   9.635   7.868   1.863 -1.8094  0.0340 -0.5124
  913MOL0     H20503   9.899   7.863   1.783  1.4084  1.9804 -0.1285
  913MOL0     H20504  10.211   8.013   1.475 -2.0677  0.9593  1.8461
  913MOL0     H20505  10.419   8.070   1.412 -0.8833 -0.7481 -0.7700
  913MOL0     H20506  10.678   8.383   1.478  1.1161  0.7267 -3.2896
  913MOL0     H20507  10.529   8.319   1.401 -1.4327 -1.4798  1.4446
  913MOL0     H20508  10.802   8.173   1.379  1.8203 -2.1124 -5.3757
  913MOL0     H20509  10.652   8.115   1.313  0.8485 -0.3375 -1.2667
  913MOL0     H20510  10.768   8.217   1.135 -0.6588  1.9913 -2.6953
  913MOL0     H20511  10.819   8.362   1.235 -1.6931  0.7873  0.2685
  913MOL0     H20512  10.615   8.462   1.228  0.9180  2.4059 -1.9467
  913MOL0     H20513  10.656   8.421   1.066  1.5757  1.8458  1.0830
  913MOL0     H20514  10.323   8.171   1.122  0.1956  1.4800 -0.7138
  913MOL0     H20515  10.465   8.290   1.790  0.9939 -3.0436  3.0409
  913MOL0     H20516  10.228   8.237   1.840 -1.0512 -0.1398  0.1340
  914MOL0     O20517   7.656   7.799  10.128  0.3289  0.3244  0.0363
  914MOL0     C20518   7.688   7.736  10.034  0.7745  0.9126  0.0065
  914MOL0     O20519   7.626   7.750   9.909  0.5593  0.0998 -0.0487
  914MOL0     C20520   7.511   7.813   9.897 -0.5297  0.3441  0.2696
  914MOL0     C20521   7.528   7.942   9.835  0.2111 -0.2105  0.3806
  914MOL0     C20522   7.414   8.023   9.818  0.0315 -0.1278 -0.1658
  914MOL0     C20523   7.288   7.973   9.844 -0.3222  1.0245 -0.3333
  914MOL0     O20524   7.174   8.047   9.834  0.7378 -0.1346 -0.0873
  914MOL0     C20525   7.174   8.179   9.780  1.2510 -0.3176 -0.3433
  914MOL0     C20526   7.042   8.255   9.811  0.7260  0.1150  0.1518
  914MOL0     C20527   6.928   8.155   9.821  0.8475 -0.8478 -0.2245
  914MOL0     C20528   6.798   8.233   9.834  0.8320 -1.1526  0.4524
  914MOL0     C20529   6.688   8.151   9.907  0.5127 -0.4469 -0.1919
  914MOL0     C20530   6.553   8.226   9.909  0.5848 -0.6698  0.7375
  914MOL0     C20531   6.480   8.205   9.773  0.0417  0.4228 -0.0051
  914MOL0     C20532   6.430   8.342   9.713 -0.8057 -1.1374  0.4670
  914MOL0     N20533   6.302   8.392   9.754  1.1506  0.7057  0.0087
  914MOL0     C20534   6.246   8.387   9.879  1.0798 -0.0477 -1.2405
  914MOL0     C20535   6.123   8.444   9.856 -0.0784 -0.2634  0.2292
  914MOL0     C20536   6.024   8.460   9.967 -0.2368 -0.0051 -0.1692
  914MOL0     C20537   5.913   8.544   9.937  0.9926 -0.9567  0.6629
  914MOL0     C20538   5.808   8.549  10.048  0.2542  0.0711 -0.0817
  914MOL0     C20539   5.671   8.502   9.988  0.3370 -0.0389  0.0132
  914MOL0     O20540   5.570   8.529  10.088  0.5145  0.9760 -0.0276
  914MOL0     C20541   5.441   8.528  10.051  0.7101  0.1823 -0.4467
  914MOL0     C20542   5.391   8.555   9.921 -0.6270  0.6694 -0.1578
  914MOL0     C20543   5.256   8.547   9.888  0.4346 -0.2926 -0.0496
  914MOL0     C20544   5.156   8.530   9.984 -0.0263 -0.5292 -0.3165
  914MOL0     C20545   5.012   8.530   9.958 -0.0771 -0.4775  0.5546
  914MOL0     O20546   4.930   8.540  10.066  0.3592 -0.5794  0.2365
  914MOL0     C20547   4.794   8.541  10.067  0.4102  0.5109  0.1301
  914MOL0     C20548   4.729   8.525  10.192 -0.1110  0.6878 -0.9936
  914MOL0     C20549   4.589   8.500  10.204  0.3058  0.6640 -0.4605
  914MOL0     C20550   4.506   8.492  10.094 -0.2806  0.1198 -0.5681
  914MOL0     O20551   4.375   8.465  10.094  0.3639  0.8321 -0.7901
  914MOL0     C20552   4.297   8.465  10.216 -0.7384  0.0883 -0.7387
  914MOL0     C20553   4.147   8.435  10.193 -0.1976 -0.1509 -0.1018
  914MOL0     C20554   4.056   8.436  10.310  0.1480  0.2819  0.0994
  914MOL0     C20555   3.924   8.373  10.263  0.7184  0.4514 -0.4910
  914MOL0     C20556   3.825   8.403  10.378  0.0958  0.7369 -0.2003
  914MOL0     C20557   3.686   8.345  10.346 -0.5773 -0.6171 -0.2001
  914MOL0     C20558   3.576   8.395  10.445 -0.4610  0.2920  0.6128
  914MOL0     C20559   3.453   8.308  10.460  0.4884  0.8490 -0.5827
  914MOL0    Cl20560   3.395   8.256  10.294  0.0398  0.0561  0.0867
  914MOL0     C20561   4.575   8.525   9.975  0.9132  0.7372  1.0324
  914MOL0     C20562   4.709   8.542   9.956 -0.6032  0.3812  0.5958
  914MOL0     O20563   4.980   8.540   9.842  0.3876 -0.7024 -1.0476
  914MOL0     C20564   5.203   8.519  10.120 -0.4651  0.0993 -0.0497
  914MOL0     C20565   5.336   8.514  10.146  0.2587 -0.7095 -0.2364
  914MOL0     N20566   6.101   8.472   9.724 -0.1364  0.4585 -0.2344
  914MOL0     N20567   6.208   8.439   9.664 -0.1997 -0.5499  0.2481
  914MOL0     C20568   7.270   7.839   9.889 -0.1857  0.3681  0.8012
  914MOL0     C20569   7.386   7.767   9.925 -0.8155 -0.3052  0.1958
  914MOL0     C20570   7.812   7.671  10.033  0.5689 -1.0775 -0.9370
  914MOL0     C20571   7.886   7.654  10.159  0.2191 -0.1270  0.6835
  914MOL0     C20572   8.008   7.580  10.153  0.5052 -0.4096 -0.1019
  914MOL0     C20573   8.057   7.534  10.038 -0.3590 -0.4076 -0.5396
  914MOL0     O20574   8.182   7.477  10.049 -0.1111 -0.3053 -0.0770
  914MOL0     C20575   8.183   7.334  10.034  0.0207  0.4964  0.8087
  914MOL0     C20576   8.309   7.277   9.960 -1.3319  0.0943  0.5914
  914MOL0     C20577   8.298   7.308   9.813 -0.5185  0.4930  0.0210
  914MOL0     C20578   8.240   7.203   9.722  0.5015 -0.1558  0.3699
  914MOL0     C20579   8.093   7.187   9.725 -0.1034 -0.3469 -0.4553
  914MOL0     C20580   7.967   7.188   9.714 -0.2082 -0.0027 -0.4562
  914MOL0     C20581   7.986   7.551   9.919 -0.1107  0.3261 -0.1830
  914MOL0     C20582   7.854   7.620   9.916 -0.3366  0.3545  0.6900
  914MOL0     H20583   7.627   7.977   9.808  0.5531 -1.0643  0.4719
  914MOL0     H20584   7.418   8.131   9.802  1.6763 -0.2484 -0.8032
  914MOL0     H20585   7.178   8.168   9.671 -0.3504 -1.1707 -0.3483
  914MOL0     H20586   7.255   8.237   9.823  1.2895 -0.7658  0.1877
  914MOL0     H20587   7.013   8.329   9.736  0.4611  0.1066  0.2465
  914MOL0     H20588   7.065   8.297   9.909 -0.9706 -2.4502  1.7770
  914MOL0     H20589   6.941   8.091   9.908 -1.3192 -0.3619  0.5014
  914MOL0     H20590   6.923   8.094   9.730 -0.9991 -2.3088  0.8081
  914MOL0     H20591   6.815   8.328   9.885  2.3744 -0.2324 -1.5826
  914MOL0     H20592   6.758   8.257   9.735 -0.9053 -0.7257  1.2244
  914MOL0     H20593   6.716   8.142  10.012  1.4618  3.2902  0.0196
  914MOL0     H20594   6.681   8.050   9.864 -1.0821 -1.3738  2.0488
  914MOL0     H20595   6.575   8.333   9.924  1.0029 -0.5258 -0.7589
  914MOL0     H20596   6.490   8.191   9.991  0.1119 -0.9003  0.2724
  914MOL0     H20597   6.540   8.149   9.701  1.0043  0.9441  0.3644
  914MOL0     H20598   6.394   8.140   9.789 -1.8350  2.7223 -0.2411
  914MOL0     H20599   6.425   8.340   9.604  0.9963  2.3071  0.1752
  914MOL0     H20600   6.507   8.418   9.728 -0.6565 -0.5707 -2.5725
  914MOL0     H20601   6.282   8.359   9.978 -2.9874  1.6769  0.9590
  914MOL0     H20602   6.084   8.489  10.054  0.5458  0.6869 -0.9186
  914MOL0     H20603   5.986   8.359   9.985 -0.5875 -0.1387 -1.5510
  914MOL0     H20604   5.872   8.501   9.845  0.8535 -0.3726  0.4486
  914MOL0     H20605   5.947   8.645   9.912 -4.3318  0.7709 -1.1699
  914MOL0     H20606   5.836   8.482  10.131 -0.9722  1.6477  1.6893
  914MOL0     H20607   5.798   8.649  10.090  0.8442  0.7211 -1.4367
  914MOL0     H20608   5.667   8.393   9.990 -1.4097 -0.0006  0.1491
  914MOL0     H20609   5.654   8.534   9.885  2.9503  0.9800 -0.1664
  914MOL0     H20610   5.457   8.578   9.839 -0.0741 -0.3610 -0.0173
  914MOL0     H20611   5.224   8.573   9.787 -1.0835  1.8102  0.8956
  914MOL0     H20612   4.795   8.514  10.277 -0.1491  0.7318 -0.9571
  914MOL0     H20613   4.543   8.493  10.302  1.8339  3.4949  0.5992
  914MOL0     H20614   4.305   8.560  10.269 -0.8050  1.0574 -2.3875
  914MOL0     H20615   4.342   8.395  10.286 -1.3584 -1.3946 -1.7787
  914MOL0     H20616   4.140   8.340  10.138 -0.9338 -0.6671  0.8634
  914MOL0     H20617   4.125   8.516  10.123  1.8095  1.5133  1.0689
  914MOL0     H20618   4.039   8.543  10.322 -1.4902 -0.0070  0.4902
  914MOL0     H20619   4.111   8.392  10.394 -0.3628 -0.0873  0.2439
  914MOL0     H20620   3.892   8.423  10.171 -1.3745  0.9082  0.4244
  914MOL0     H20621   3.920   8.266  10.239 -0.6592  0.3009  0.2941
  914MOL0     H20622   3.819   8.512  10.376 -0.6843  0.6913 -1.0309
  914MOL0     H20623   3.871   8.367  10.470  0.2418 -2.4425 -1.3763
  914MOL0     H20624   3.704   8.237  10.348  0.4754 -0.4463  0.0693
  914MOL0     H20625   3.648   8.371  10.247 -1.4248 -0.1288  0.2410
  914MOL0     H20626   3.619   8.410  10.545 -0.3252  2.1718  0.2906
  914MOL0     H20627   3.541   8.489  10.402  2.4044  0.6971 -1.0753
  914MOL0     H20628   3.369   8.361  10.506 -1.0521 -1.5524 -0.4778
  914MOL0     H20629   3.473   8.222  10.524 -1.8102  0.5650 -0.1452
  914MOL0     H20630   4.497   8.532   9.899  0.4670 -1.3015  1.2310
  914MOL0     H20631   4.733   8.548   9.850 -2.1847  2.0040  0.2980
  914MOL0     H20632   5.130   8.516  10.200  0.5848  1.2922  1.0158
  914MOL0     H20633   5.359   8.494  10.250  0.7367  0.7745 -0.0359
  914MOL0     H20634   7.175   7.796   9.918 -1.9982  2.0504 -2.1743
  914MOL0     H20635   7.379   7.676   9.984 -2.9526  0.4466  1.2148
  914MOL0     H20636   7.850   7.685  10.257  2.3131  0.1558  1.4026
  914MOL0     H20637   8.062   7.562  10.245 -0.5957 -0.0909  0.6264
  914MOL0     H20638   8.097   7.291   9.982  2.1301 -3.5541  0.3126
  914MOL0     H20639   8.178   7.288  10.133 -0.6376 -3.3752 -0.8571
  914MOL0     H20640   8.402   7.324   9.993 -0.7411  0.0260 -0.8966
  914MOL0     H20641   8.322   7.170   9.977 -1.6879  0.2980  2.3354
  914MOL0     H20642   8.400   7.330   9.779  0.3403 -2.1821  0.6279
  914MOL0     H20643   8.241   7.401   9.799 -1.5887  0.1007  1.5552
  914MOL0     H20644   8.273   7.234   9.623 -0.7751  0.0860 -0.0019
  914MOL0     H20645   8.286   7.111   9.758  0.4808  0.4909  2.1765
  914MOL0     H20646   7.861   7.193   9.701 -0.1648  3.0441 -0.4381
  914MOL0     H20647   8.036   7.506   9.834 -3.6502 -4.5961 -0.1366
  914MOL0     H20648   7.806   7.632   9.819 -3.3733  1.6651  2.2301
  915MOL0     O20649   1.578   6.160   5.053  0.1714 -0.0949 -0.2370
  915MOL0     C20650   1.585   6.117   5.169 -0.6024 -0.6256  0.4235
  915MOL0     O20651   1.493   6.135   5.261  0.4010 -0.2512  0.4615
  915MOL0     C20652   1.385   6.209   5.223 -1.0282 -0.4660  0.4965
  915MOL0     C20653   1.302   6.165   5.119  0.7171  0.0285 -0.0247
  915MOL0     C20654   1.188   6.240   5.082  0.3162  0.5608 -0.4655
  915MOL0     C20655   1.157   6.360   5.151 -0.1515  0.5553 -1.2215
  915MOL0     O20656   1.040   6.434   5.130  0.7035 -0.3484  0.0070
  915MOL0     C20657   1.000   6.460   4.992 -0.2002  0.2895  0.0813
  915MOL0     C20658   0.907   6.575   4.972  0.4820 -0.2056 -0.0532
  915MOL0     C20659   0.975   6.692   4.886  0.1434  0.2291  0.1428
  915MOL0     C20660   1.091   6.757   4.967  0.1910  0.4806 -0.0450
  915MOL0     C20661   1.039   6.846   5.084  0.1965  0.1489  0.5033
  915MOL0     C20662   0.980   6.985   5.037  0.4340  0.1450  0.2573
  915MOL0     C20663   0.933   7.070   5.154 -0.4748  0.1560  0.3350
  915MOL0     C20664   0.937   7.218   5.140  0.8310 -1.3502  0.2341
  915MOL0     N20665   0.838   7.269   5.038  0.2015  0.9962 -0.4883
  915MOL0     C20666   0.855   7.389   4.973  0.3868  0.0915  0.1149
  915MOL0     C20667   0.743   7.408   4.908 -0.1546  1.5543  0.8523
  915MOL0     C20668   0.722   7.514   4.809  0.3841 -0.7612  0.9463
  915MOL0     C20669   0.641   7.473   4.684  0.0581  0.1792 -1.5074
  915MOL0     C20670   0.725   7.413   4.570 -0.4937  0.3922 -0.5979
  915MOL0     C20671   0.750   7.271   4.611  0.1419 -0.0650  0.0040
  915MOL0     O20672   0.859   7.231   4.529  0.1740 -0.1623  0.0211
  915MOL0     C20673   0.899   7.101   4.511  0.4692  1.2147  0.7831
  915MOL0     C20674   0.855   6.997   4.587 -0.1597  0.0583  0.5845
  915MOL0     C20675   0.897   6.862   4.562 -0.3315  0.3194  0.5088
  915MOL0     C20676   0.991   6.829   4.462  0.8185 -0.4953 -0.3865
  915MOL0     C20677   1.020   6.684   4.438  0.2069 -0.7652  0.6799
  915MOL0     O20678   0.982   6.597   4.526  0.7342  0.4961 -0.5019
  915MOL0     C20679   1.007   6.463   4.527  0.6017 -0.0261 -0.9047
  915MOL0     C20680   0.930   6.396   4.620  0.3937 -0.0671  0.6792
  915MOL0     C20681   0.946   6.256   4.636  0.2404  0.7521 -0.1889
  915MOL0     C20682   1.049   6.189   4.561  0.4336  0.4810 -0.2228
  915MOL0     O20683   1.080   6.054   4.575  0.4203  0.2741 -0.0993
  915MOL0     C20684   0.975   5.965   4.623  0.3036 -0.6358 -0.0633
  915MOL0     C20685   0.993   5.814   4.628 -0.2293  0.5565 -0.0549
  915MOL0     C20686   1.141   5.775   4.649  0.1630 -0.3379 -0.4291
  915MOL0     C20687   1.144   5.621   4.658  0.1339 -0.9669 -0.3871
  915MOL0     C20688   1.288   5.573   4.685  1.0554  0.1660  0.1756
  915MOL0     C20689   1.276   5.418   4.709 -0.5266  0.0347 -0.2243
  915MOL0     C20690   1.396   5.334   4.648 -0.3045  0.5105 -0.5731
  915MOL0     C20691   1.529   5.404   4.669  0.6629 -0.3181  0.0840
  915MOL0    Cl20692   1.539   5.430   4.846  0.0849  0.0535  0.2556
  915MOL0     C20693   1.121   6.263   4.464 -0.9325  0.3288  0.6831
  915MOL0     C20694   1.094   6.400   4.443  0.0431  0.0118 -0.2645
  915MOL0     O20695   1.064   6.660   4.330 -1.0057  0.1532  0.2274
  915MOL0     C20696   1.048   6.942   4.385  0.3892 -0.1926  0.4091
  915MOL0     C20697   0.996   7.069   4.416  0.3328  0.0765 -0.1173
  915MOL0     N20698   0.642   7.325   4.955 -0.2875 -0.7294  0.5779
  915MOL0     N20699   0.702   7.236   5.030 -0.3103 -0.4049  0.2275
  915MOL0     C20700   1.238   6.403   5.255  0.8265  0.0937 -0.9532
  915MOL0     C20701   1.352   6.329   5.285 -0.2381 -0.0454  0.1440
  915MOL0     C20702   1.706   6.067   5.226 -0.3970 -0.0068 -0.2335
  915MOL0     C20703   1.704   5.994   5.346 -0.3784  1.2479  0.3284
  915MOL0     C20704   1.830   5.958   5.405  0.5935 -0.1579  0.2376
  915MOL0     C20705   1.948   5.973   5.335  0.8950 -0.2562 -0.1149
  915MOL0     O20706   2.058   5.933   5.409 -0.2129  0.8865 -0.2010
  915MOL0     C20707   2.188   5.948   5.347  0.7646  0.1816 -0.1561
  915MOL0     C20708   2.315   5.917   5.421 -1.0485 -0.0030 -0.3223
  915MOL0     C20709   2.351   6.009   5.543  0.6183 -0.1195  0.3090
  915MOL0     C20710   2.450   6.119   5.520 -0.5478 -0.4082 -0.5974
  915MOL0     C20711   2.400   6.225   5.432 -0.1791  0.0687  0.5124
  915MOL0     C20712   2.344   6.303   5.363 -0.6202 -0.1924  0.0195
  915MOL0     C20713   1.952   6.033   5.207  0.3558 -0.4320  0.2368
  915MOL0     C20714   1.829   6.079   5.151 -0.1703 -0.0155  0.5618
  915MOL0     H20715   1.326   6.076   5.061  1.0893 -0.1195  0.3566
  915MOL0     H20716   1.121   6.196   5.010 -0.7004 -0.4628  1.0321
  915MOL0     H20717   0.948   6.373   4.952 -2.8933  1.3944  0.9144
  915MOL0     H20718   1.095   6.467   4.940  0.6183  0.6315  1.5536
  915MOL0     H20719   0.865   6.614   5.065  0.7261  1.6069 -0.6675
  915MOL0     H20720   0.819   6.547   4.912  0.4232 -0.0712 -0.0298
  915MOL0     H20721   0.896   6.765   4.867  0.2513  0.3353  0.1001
  915MOL0     H20722   1.013   6.654   4.790 -0.0576 -2.4190  1.0377
  915MOL0     H20723   1.156   6.681   5.011  0.4792  1.9983  2.3209
  915MOL0     H20724   1.153   6.821   4.902  0.6721  1.1728  1.0667
  915MOL0     H20725   1.126   6.865   5.148  1.5168 -1.6355 -0.6471
  915MOL0     H20726   0.959   6.800   5.143  1.4102 -1.4622  0.9757
  915MOL0     H20727   0.899   6.956   4.969 -0.4626 -0.5761  1.5887
  915MOL0     H20728   1.060   7.034   4.981  1.2660  1.0412  2.1433
  915MOL0     H20729   0.832   7.037   5.181  0.6303 -3.0215  1.0169
  915MOL0     H20730   0.991   7.051   5.244 -0.0429 -0.1141  0.0034
  915MOL0     H20731   1.033   7.251   5.100  0.0467  0.9087  0.0736
  915MOL0     H20732   0.915   7.261   5.238  1.9222 -0.6918  0.1998
  915MOL0     H20733   0.937   7.460   4.967 -2.5096  3.6748 -0.8402
  915MOL0     H20734   0.806   7.579   4.783 -0.0215 -1.5640 -3.1231
  915MOL0     H20735   0.651   7.576   4.864 -3.4799 -3.3666 -0.6778
  915MOL0     H20736   0.582   7.558   4.648 -3.1383 -1.5867 -0.8376
  915MOL0     H20737   0.557   7.412   4.717 -1.0147  2.7523  0.9705
  915MOL0     H20738   0.665   7.407   4.479  0.2282 -0.1443 -1.0575
  915MOL0     H20739   0.810   7.482   4.559  1.7933 -1.7614  1.9182
  915MOL0     H20740   0.659   7.219   4.581 -0.5130  2.3314 -2.5439
  915MOL0     H20741   0.777   7.261   4.717  1.8340 -0.5128 -0.4263
  915MOL0     H20742   0.785   7.026   4.665 -1.4823  4.6378 -1.8927
  915MOL0     H20743   0.851   6.782   4.619 -0.4075 -1.7122 -2.2390
  915MOL0     H20744   0.853   6.444   4.680 -0.9088 -1.6981  0.3836
  915MOL0     H20745   0.905   6.203   4.721  0.9878 -3.3116 -2.1182
  915MOL0     H20746   0.907   5.969   4.537  1.0255 -3.7492 -0.8856
  915MOL0     H20747   0.935   6.000   4.719 -1.8204 -0.1045 -1.0711
  915MOL0     H20748   0.955   5.774   4.534  3.6353  1.0175 -1.9901
  915MOL0     H20749   0.939   5.773   4.715  0.7234  1.6495  1.0939
  915MOL0     H20750   1.181   5.818   4.741  1.1255 -0.1207 -0.9304
  915MOL0     H20751   1.207   5.802   4.567  2.9723  0.1188  1.8238
  915MOL0     H20752   1.071   5.582   4.729  0.0457 -0.9381 -0.4617
  915MOL0     H20753   1.112   5.597   4.556 -1.5350 -0.8696  0.0866
  915MOL0     H20754   1.323   5.620   4.778 -0.7855  0.5255  0.7311
  915MOL0     H20755   1.347   5.603   4.598  1.4994  0.1470  0.4726
  915MOL0     H20756   1.184   5.371   4.674  0.4301 -0.5166 -2.1515
  915MOL0     H20757   1.290   5.401   4.816 -1.3690  0.3233 -0.0603
  915MOL0     H20758   1.393   5.234   4.693 -3.3441  1.3091  1.3281
  915MOL0     H20759   1.370   5.318   4.544 -1.2611 -0.4763 -0.1929
  915MOL0     H20760   1.522   5.503   4.624 -1.7796 -0.3551  0.2469
  915MOL0     H20761   1.616   5.344   4.643  0.7897 -1.2623  2.3865
  915MOL0     H20762   1.190   6.215   4.395 -3.5185 -1.3113 -0.9502
  915MOL0     H20763   1.163   6.442   4.370  0.8220 -2.1977 -0.8951
  915MOL0     H20764   1.125   6.930   4.309  0.5002 -1.1590  0.6533
  915MOL0     H20765   1.017   7.152   4.350  1.0768 -1.2747 -1.6600
  915MOL0     H20766   1.200   6.478   5.324  1.1368  0.9704 -1.7227
  915MOL0     H20767   1.427   6.364   5.355  0.1826  0.6919 -0.6582
  915MOL0     H20768   1.616   5.980   5.408  0.4239  4.1302  2.3337
  915MOL0     H20769   1.833   5.918   5.506 -2.5031 -0.2443  0.3751
  915MOL0     H20770   2.189   6.056   5.332  0.8755  0.3853  1.2097
  915MOL0     H20771   2.193   5.895   5.252  0.8131  0.6071 -0.3927
  915MOL0     H20772   2.297   5.820   5.468 -1.7118  1.2550  2.1834
  915MOL0     H20773   2.401   5.909   5.354 -0.9060  2.2477 -0.4623
  915MOL0     H20774   2.388   5.941   5.620 -0.5235 -0.5606  0.4950
  915MOL0     H20775   2.253   6.043   5.579  0.6480  0.9650 -0.5714
  915MOL0     H20776   2.467   6.163   5.619 -0.8490 -0.3981 -0.5489
  915MOL0     H20777   2.538   6.076   5.472 -0.5936 -3.7545  1.9663
  915MOL0     H20778   2.284   6.364   5.300  0.2829 -1.2895 -1.9948
  915MOL0     H20779   2.043   6.050   5.152 -1.0085 -3.2267 -3.2657
  915MOL0     H20780   1.828   6.110   5.047 -0.1871  0.5721  0.7322
  916MOL0     O20781  10.971   3.422   4.022  0.1535 -0.7623 -0.1071
  916MOL0     C20782  11.008   3.364   3.919  0.5791 -0.9980  1.0504
  916MOL0     O20783  10.929   3.340   3.811 -0.3542  0.3705  0.4446
  916MOL0     C20784  10.787   3.366   3.817 -0.3605 -0.5016 -0.0488
  916MOL0     C20785  10.728   3.426   3.707  0.4583 -0.9053  0.2199
  916MOL0     C20786  10.593   3.463   3.702 -0.0512 -1.0874  0.7121
  916MOL0     C20787  10.515   3.440   3.813  0.2005  0.3442 -0.6935
  916MOL0     O20788  10.378   3.448   3.823  0.3814 -0.6353 -0.7451
  916MOL0     C20789  10.298   3.511   3.719  0.5802  0.5655  1.2541
  916MOL0     C20790  10.151   3.490   3.772 -0.2663 -0.3883 -0.9134
  916MOL0     C20791  10.087   3.618   3.818  0.7547 -0.6224 -0.2808
  916MOL0     C20792   9.997   3.682   3.707 -0.6530  0.1907  1.2097
  916MOL0     C20793   9.929   3.811   3.739  0.5892  0.4333 -0.2510
  916MOL0     C20794  10.026   3.924   3.756 -0.1398 -0.0836  0.2948
  916MOL0     C20795   9.954   4.050   3.812 -0.4694  0.1299  0.2249
  916MOL0     C20796   9.859   4.110   3.708 -0.5850  0.1592 -0.4118
  916MOL0     N20797   9.903   4.146   3.578 -0.3032  0.5599 -0.7402
  916MOL0     C20798  10.032   4.200   3.546 -0.0077 -0.6668 -0.4719
  916MOL0     C20799  10.020   4.226   3.413  0.0210 -0.0246  0.4096
  916MOL0     C20800  10.138   4.269   3.328  0.4009  0.0509  0.6728
  916MOL0     C20801  10.157   4.417   3.292 -0.2645 -0.5789 -0.4618
  916MOL0     C20802  10.203   4.491   3.414 -1.1815 -0.2529 -0.0862
  916MOL0     C20803  10.225   4.637   3.377 -0.5589  0.8013  0.3686
  916MOL0     O20804  10.352   4.665   3.323  0.3173 -0.6991  0.4810
  916MOL0     C20805  10.474   4.655   3.390 -0.1493  0.7714 -0.2102
  916MOL0     C20806  10.492   4.703   3.520  0.8414  0.4436 -0.0360
  916MOL0     C20807  10.613   4.700   3.589 -0.1315 -0.3163  0.5995
  916MOL0     C20808  10.724   4.658   3.517 -0.0672 -0.4358 -0.1143
  916MOL0     C20809  10.856   4.665   3.581 -0.7385 -0.1394  0.5853
  916MOL0     O20810  10.953   4.583   3.538  0.8183 -0.5148  0.3012
  916MOL0     C20811  11.079   4.610   3.585  0.0567 -0.1231  0.7284
  916MOL0     C20812  11.134   4.520   3.684 -0.2906 -0.9896 -0.2795
  916MOL0     C20813  11.272   4.525   3.707  0.1894 -0.6650 -0.7271
  916MOL0     C20814  11.358   4.612   3.634 -0.3645  1.0486 -1.6849
  916MOL0     O20815  11.490   4.624   3.668 -0.8585  0.0268 -0.0319
  916MOL0     C20816  11.555   4.528   3.745  0.4017  0.3120 -0.5398
  916MOL0     C20817  11.697   4.550   3.719 -0.5204 -0.0961  0.2517
  916MOL0     C20818  11.786   4.464   3.815  0.9829  0.0685  0.6824
  916MOL0     C20819  11.931   4.479   3.792  0.4888  0.0854 -0.0206
  916MOL0     C20820  12.001   4.357   3.841 -1.2281  0.9110 -0.4685
  916MOL0     C20821  12.151   4.352   3.817  0.1505 -0.8302  0.5299
  916MOL0     C20822  12.224   4.246   3.902 -0.2057 -0.0757 -0.1852
  916MOL0     C20823  12.351   4.203   3.840 -0.0267 -0.4866  0.4724
  916MOL0    Cl20824  12.457   4.342   3.818  0.0773 -0.2704 -0.3071
  916MOL0     C20825  11.301   4.704   3.556 -0.4072 -1.1198 -0.4607
  916MOL0     C20826  11.169   4.702   3.531  0.4067 -0.9104  0.4863
  916MOL0     O20827  10.876   4.740   3.673  1.3069  0.3628  0.6953
  916MOL0     C20828  10.711   4.625   3.381 -0.0329  0.2972  0.7412
  916MOL0     C20829  10.584   4.632   3.314  0.0584 -0.1263 -0.9864
  916MOL0     N20830   9.886   4.200   3.377  0.2106  0.6040 -0.3351
  916MOL0     N20831   9.813   4.161   3.479 -0.6152 -0.0354 -0.3800
  916MOL0     C20832  10.575   3.374   3.931  0.1525 -0.4315 -0.3560
  916MOL0     C20833  10.708   3.337   3.924  0.6954 -0.0399  0.1126
  916MOL0     C20834  11.156   3.348   3.906 -0.5727 -0.3982 -0.4332
  916MOL0     C20835  11.216   3.272   3.807  0.4477 -0.5143  1.0607
  916MOL0     C20836  11.351   3.251   3.808 -0.7856 -0.4400  0.1724
  916MOL0     C20837  11.437   3.306   3.903  0.0586 -0.4520 -0.2927
  916MOL0     O20838  11.570   3.294   3.913  0.5084 -0.2136  0.0135
  916MOL0     C20839  11.641   3.252   3.795 -0.3161  0.8152 -0.4397
  916MOL0     C20840  11.781   3.190   3.837  0.5952 -1.4487 -0.1351
  916MOL0     C20841  11.863   3.134   3.716  0.6174 -0.2807  0.5788
  916MOL0     C20842  12.012   3.134   3.739  0.0187 -0.2778 -0.6419
  916MOL0     C20843  12.088   3.077   3.628  0.4086 -0.0381  1.0367
  916MOL0     C20844  12.140   3.034   3.529 -0.1562  0.1932  0.0420
  916MOL0     C20845  11.371   3.387   4.000 -0.2776 -0.5414 -0.2885
  916MOL0     C20846  11.240   3.408   4.000 -0.1012  0.3747  0.4454
  916MOL0     H20847  10.796   3.442   3.625  1.2854  0.2693  1.0997
  916MOL0     H20848  10.539   3.496   3.613 -1.1907 -0.4152  1.6241
  916MOL0     H20849  10.314   3.446   3.632  0.0045 -0.8622  2.1812
  916MOL0     H20850  10.323   3.613   3.688 -0.6137  0.3999 -0.3454
  916MOL0     H20851  10.157   3.428   3.862 -0.6741 -0.1019 -0.6842
  916MOL0     H20852  10.084   3.438   3.703 -0.1016 -2.0288  0.0981
  916MOL0     H20853  10.165   3.692   3.840 -1.5760  2.0035 -0.3087
  916MOL0     H20854  10.027   3.584   3.903  0.1838 -2.2256 -1.2794
  916MOL0     H20855  10.055   3.697   3.615  1.6508 -1.9859  2.1816
  916MOL0     H20856   9.914   3.612   3.692 -0.8595  0.3621  1.5437
  916MOL0     H20857   9.879   3.788   3.834  0.9484  0.6409 -0.0084
  916MOL0     H20858   9.848   3.830   3.669 -1.7579 -0.3059  2.0848
  916MOL0     H20859  10.073   3.953   3.662  1.3629  1.0862  1.3540
  916MOL0     H20860  10.104   3.896   3.828 -0.7278  0.0939  1.0178
  916MOL0     H20861   9.900   4.034   3.906 -0.6317 -1.8356 -0.1673
  916MOL0     H20862  10.034   4.119   3.840 -0.1173 -1.1509  2.6569
  916MOL0     H20863   9.814   4.196   3.758 -0.0325 -0.3644  1.0485
  916MOL0     H20864   9.776   4.041   3.693  1.7700 -3.2815  1.0640
  916MOL0     H20865  10.123   4.205   3.605 -0.7238 -1.4655  0.7429
  916MOL0     H20866  10.123   4.210   3.237 -2.9546 -1.5003  2.0655
  916MOL0     H20867  10.226   4.235   3.384  0.3988 -0.4446  0.3714
  916MOL0     H20868  10.064   4.469   3.268  0.2486  1.2914  1.3621
  916MOL0     H20869  10.228   4.431   3.210  0.7761  0.8321  0.6273
  916MOL0     H20870  10.129   4.490   3.493 -0.8709  0.3208  0.2153
  916MOL0     H20871  10.302   4.458   3.449 -1.6038 -2.6632 -0.9218
  916MOL0     H20872  10.219   4.697   3.468 -1.1383 -0.9117  1.5236
  916MOL0     H20873  10.148   4.666   3.305  1.1305  2.1385 -0.9782
  916MOL0     H20874  10.407   4.737   3.579  0.7445 -0.4163  0.3457
  916MOL0     H20875  10.628   4.743   3.687  1.7500 -2.6495  1.4343
  916MOL0     H20876  11.073   4.441   3.727  2.1998 -2.7388  0.2051
  916MOL0     H20877  11.322   4.468   3.785 -0.5606  0.7436  0.8756
  916MOL0     H20878  11.541   4.425   3.709 -1.1085  0.1788  0.3391
  916MOL0     H20879  11.532   4.540   3.851  1.4735  0.6719 -0.3350
  916MOL0     H20880  11.720   4.655   3.740 -0.9648 -0.5088  3.1281
  916MOL0     H20881  11.718   4.535   3.612 -3.2038  2.4152 -0.7661
  916MOL0     H20882  11.751   4.362   3.801  1.0025  0.1712 -0.1474
  916MOL0     H20883  11.759   4.496   3.916 -1.6218 -2.5544  0.9419
  916MOL0     H20884  11.946   4.483   3.684 -1.5393 -0.3690 -0.3468
  916MOL0     H20885  11.973   4.572   3.833  1.2534 -1.4896  3.0254
  916MOL0     H20886  11.953   4.273   3.788 -1.1951 -1.1945  2.5978
  916MOL0     H20887  11.993   4.348   3.949  0.5490 -0.9280 -0.4299
  916MOL0     H20888  12.193   4.449   3.844  0.2315 -0.9239  0.7487
  916MOL0     H20889  12.162   4.339   3.709  0.1521 -0.0696  0.4369
  916MOL0     H20890  12.245   4.291   3.999 -1.5902  1.2489 -0.4694
  916MOL0     H20891  12.159   4.162   3.928  0.8300  0.0550  3.2722
  916MOL0     H20892  12.337   4.140   3.752 -0.9950  1.1696 -0.5996
  916MOL0     H20893  12.397   4.143   3.920  1.5385 -0.6509 -0.5037
  916MOL0     H20894  11.369   4.778   3.516  0.2007 -0.2168  2.0233
  916MOL0     H20895  11.132   4.771   3.456  0.0485 -1.0610  0.5196
  916MOL0     H20896  10.803   4.605   3.327 -1.2148  3.5392 -2.9283
  916MOL0     H20897  10.585   4.628   3.206 -1.1204  1.9633 -1.1204
  916MOL0     H20898  10.510   3.334   4.009 -1.0350 -0.1069 -1.1575
  916MOL0     H20899  10.727   3.276   4.011 -2.6603  0.8727  1.6475
  916MOL0     H20900  11.145   3.230   3.737  0.9242  0.4984 -0.0615
  916MOL0     H20901  11.391   3.186   3.730 -0.4473 -1.8963  1.5127
  916MOL0     H20902  11.670   3.326   3.721  1.0518 -0.2536 -1.0162
  916MOL0     H20903  11.593   3.170   3.741  2.2353 -2.3346  1.6785
  916MOL0     H20904  11.829   3.255   3.911 -2.7658 -0.3809  1.2911
  916MOL0     H20905  11.762   3.096   3.890 -2.5696  0.1222  1.8298
  916MOL0     H20906  11.835   3.195   3.629 -0.7140 -1.5957  0.0623
  916MOL0     H20907  11.836   3.030   3.700 -0.4021 -0.6220  3.7852
  916MOL0     H20908  12.042   3.238   3.755 -2.6883  0.3738  0.8022
  916MOL0     H20909  12.040   3.083   3.831 -2.0562  0.5845  0.5430
  916MOL0     H20910  12.186   3.007   3.437  0.0547 -1.1061  0.5091
  916MOL0     H20911  11.434   3.434   4.075 -0.8617  1.2227 -0.8412
  916MOL0     H20912  11.210   3.457   4.092  2.9167 -0.9353  2.2886
  917MOL0     O20913  11.054   7.875   9.880 -0.3793 -0.8057 -0.4092
  917MOL0     C20914  11.023   7.945   9.973 -0.3313 -0.2750 -0.5876
  917MOL0     O20915  10.907   7.974  10.011 -0.1564  0.2531  0.2076
  917MOL0     C20916  10.806   7.893   9.982  0.1438 -0.9754  0.8031
  917MOL0     C20917  10.760   7.787  10.060 -0.9647 -0.5831  0.6150
  917MOL0     C20918  10.639   7.727  10.034 -0.9001  0.4892  0.0463
  917MOL0     C20919  10.564   7.759   9.915 -0.0510 -0.3004  0.2948
  917MOL0     O20920  10.442   7.702   9.877  0.4125  0.1900 -0.3002
  917MOL0     C20921  10.358   7.668   9.989  0.4841  0.0063  0.0283
  917MOL0     C20922  10.214   7.648   9.959 -0.2311  0.3497 -0.0603
  917MOL0     C20923  10.136   7.781   9.942 -0.2680  1.2341 -0.2935
  917MOL0     C20924   9.988   7.759   9.929  0.5996 -0.3821  0.4540
  917MOL0     C20925   9.923   7.891   9.925  0.7731 -0.1741 -0.2069
  917MOL0     C20926   9.772   7.876   9.893 -0.1967 -0.5435  0.0600
  917MOL0     C20927   9.698   8.002   9.868 -0.1090  0.5207 -0.3747
  917MOL0     C20928   9.761   8.082   9.756  0.2062 -0.0221 -0.5672
  917MOL0     N20929   9.686   8.186   9.697 -0.3159  0.1683 -1.1858
  917MOL0     C20930   9.660   8.194   9.564 -0.2201  0.7589  0.8937
  917MOL0     C20931   9.586   8.301   9.551 -0.0209 -0.1056 -0.7628
  917MOL0     C20932   9.540   8.357   9.419 -0.2757  0.5670 -0.1624
  917MOL0     C20933   9.391   8.394   9.436 -0.1043 -1.1470 -0.2996
  917MOL0     C20934   9.358   8.531   9.503 -0.1262 -0.1502  0.3558
  917MOL0     C20935   9.212   8.559   9.502  0.2067 -0.3822  0.6078
  917MOL0     O20936   9.194   8.671   9.587  0.2198  0.3022 -0.2335
  917MOL0     C20937   9.076   8.725   9.610 -0.2917  0.3244 -0.4082
  917MOL0     C20938   9.070   8.842   9.682  0.2171 -0.0391  0.5284
  917MOL0     C20939   8.938   8.900   9.699 -0.1762 -0.1914 -0.4668
  917MOL0     C20940   8.819   8.849   9.637  0.1638  0.1565 -0.3429
  917MOL0     C20941   8.679   8.903   9.646 -0.7253 -0.5525 -1.6085
  917MOL0     O20942   8.580   8.842   9.572 -0.4005  0.0974  0.1944
  917MOL0     C20943   8.461   8.903   9.562  0.0359 -0.2020 -0.4410
  917MOL0     C20944   8.378   8.918   9.667 -0.2097 -0.2111  0.2741
  917MOL0     C20945   8.247   8.974   9.648  0.3577 -0.2508  0.1527
  917MOL0     C20946   8.207   9.017   9.519  0.7876 -0.0451  0.4738
  917MOL0     O20947   8.081   9.070   9.502 -0.6135  0.0117  0.3334
  917MOL0     C20948   8.086   9.198   9.434  0.6071  0.2862 -0.5440
  917MOL0     C20949   8.136   9.316   9.529  0.0169 -0.2261 -0.6160
  917MOL0     C20950   8.038   9.357   9.641 -0.4493  0.3774 -0.2184
  917MOL0     C20951   7.925   9.432   9.584  0.0260 -0.6169  0.2846
  917MOL0     C20952   7.843   9.498   9.702 -0.1764  0.0303 -0.0737
  917MOL0     C20953   7.708   9.557   9.657 -0.5172 -0.0346 -0.5865
  917MOL0     C20954   7.728   9.668   9.555 -0.5105 -0.2866 -0.2607
  917MOL0     C20955   7.612   9.768   9.554 -0.2589  0.2211 -0.1335
  917MOL0    Cl20956   7.460   9.722   9.453  0.3243 -0.2081  0.1718
  917MOL0     C20957   8.289   8.983   9.415 -1.2078  0.6188 -1.0037
  917MOL0     C20958   8.415   8.927   9.434 -0.4412  0.3811  0.2298
  917MOL0     O20959   8.662   8.986   9.736 -0.5803  0.9724 -0.5420
  917MOL0     C20960   8.827   8.730   9.571 -0.1797  0.1695 -0.5458
  917MOL0     C20961   8.955   8.678   9.553 -0.0307 -1.3903 -0.1178
  917MOL0     N20962   9.590   8.370   9.669  0.1739  0.0202 -0.0049
  917MOL0     N20963   9.645   8.300   9.761  0.0906 -0.8258 -0.4477
  917MOL0     C20964  10.629   7.850   9.834 -0.6200 -0.5014  0.1407
  917MOL0     C20965  10.749   7.917   9.860 -0.2060  0.2853 -0.2540
  917MOL0     C20966  11.144   7.995  10.044 -0.4030 -0.5715 -1.1684
  917MOL0     C20967  11.134   8.088  10.150  0.7537 -0.0094  0.1845
  917MOL0     C20968  11.250   8.138  10.224 -1.3828 -0.4266  0.1203
  917MOL0     C20969  11.380   8.108  10.178  0.1295  0.6493 -0.3921
  917MOL0     O20970  11.487   8.170  10.242 -0.4100 -0.5058  0.1676
  917MOL0     C20971  11.616   8.101  10.229  0.4809 -0.3666 -0.0858
  917MOL0     C20972  11.620   7.968  10.305 -0.7454  1.4185  0.5056
  917MOL0     C20973  11.755   7.889  10.283  0.9584  0.0292  0.0851
  917MOL0     C20974  11.776   7.840  10.140  0.4029  0.6325  0.3922
  917MOL0     C20975  11.658   7.759  10.091  0.4790  0.0120  0.4919
  917MOL0     C20976  11.571   7.681  10.058 -0.3120  0.2435  0.1657
  917MOL0     C20977  11.387   8.014  10.077 -0.0953  0.1759 -0.6353
  917MOL0     C20978  11.276   7.962  10.009  0.6961  0.3318  0.3973
  917MOL0     H20979  10.828   7.758  10.140  1.0792  1.0922 -0.3988
  917MOL0     H20980  10.600   7.644  10.092  2.7397 -1.8830 -0.5423
  917MOL0     H20981  10.360   7.743  10.069 -1.4106  2.1517 -1.7788
  917MOL0     H20982  10.404   7.577  10.030  0.6038 -0.1014 -0.3449
  917MOL0     H20983  10.161   7.594  10.038 -0.3706  1.5103  0.6641
  917MOL0     H20984  10.200   7.588   9.868 -1.5267  2.7880 -1.5934
  917MOL0     H20985  10.172   7.845   9.861  3.9418 -1.3921 -0.8531
  917MOL0     H20986  10.163   7.838  10.031  0.0800 -1.3458  1.3628
  917MOL0     H20987   9.980   7.705   9.834  0.3053  1.5876 -0.6888
  917MOL0     H20988   9.945   7.697  10.008  1.2837  1.3399  2.2632
  917MOL0     H20989   9.965   7.945   9.840 -1.3404  1.2463 -0.4419
  917MOL0     H20990   9.938   7.951  10.015 -3.1709  1.7645 -0.6469
  917MOL0     H20991   9.722   7.807   9.963 -2.6224 -0.6895 -1.7000
  917MOL0     H20992   9.771   7.814   9.803  0.7842 -2.7582  1.4556
  917MOL0     H20993   9.596   7.970   9.845  1.0088 -1.7813 -2.5174
  917MOL0     H20994   9.687   8.060   9.960 -0.5043 -0.8198  0.4522
  917MOL0     H20995   9.780   8.010   9.677  1.0228  0.3727 -0.7328
  917MOL0     H20996   9.858   8.118   9.792  0.4590  0.0566 -1.3171
  917MOL0     H20997   9.693   8.123   9.488 -1.8030  1.1036 -0.1668
  917MOL0     H20998   9.556   8.280   9.343  2.3877 -0.7929  1.6295
  917MOL0     H20999   9.595   8.448   9.393  1.5559 -0.1569  0.9902
  917MOL0     H21000   9.328   8.320   9.485 -1.9481 -0.7420 -1.9432
  917MOL0     H21001   9.345   8.399   9.337  1.2445 -0.7644 -0.9405
  917MOL0     H21002   9.391   8.532   9.607  2.2332 -2.5647 -0.2486
  917MOL0     H21003   9.416   8.610   9.453  2.2561 -1.7574  0.3911
  917MOL0     H21004   9.156   8.466   9.517  1.5787 -1.7473 -1.8905
  917MOL0     H21005   9.182   8.592   9.402 -0.9376  2.1615  1.7281
  917MOL0     H21006   9.159   8.882   9.728  0.9223 -0.7319 -0.2104
  917MOL0     H21007   8.925   8.990   9.758 -2.3046 -0.9648  0.3147
  917MOL0     H21008   8.411   8.873   9.759  0.5570  0.3272  0.2701
  917MOL0     H21009   8.185   8.990   9.735 -1.3393 -2.6905 -0.5211
  917MOL0     H21010   7.984   9.226   9.408  0.5723 -0.0098 -0.7310
  917MOL0     H21011   8.143   9.194   9.341  0.8290  0.4066 -0.4136
  917MOL0     H21012   8.140   9.407   9.469 -3.5276  1.4287  1.3338
  917MOL0     H21013   8.233   9.288   9.571 -0.4082 -0.1105  0.4799
  917MOL0     H21014   8.091   9.423   9.710 -1.0111 -3.0129  3.8109
  917MOL0     H21015   8.020   9.262   9.691 -0.8952 -0.2573 -1.5309
  917MOL0     H21016   7.961   9.512   9.520 -2.4980  0.5653  0.2181
  917MOL0     H21017   7.868   9.372   9.512  0.7669 -0.9988  0.0051
  917MOL0     H21018   7.897   9.575   9.759  2.7197 -2.2386  0.4902
  917MOL0     H21019   7.830   9.421   9.779 -4.0711  2.2568  1.8296
  917MOL0     H21020   7.668   9.602   9.748  2.1548 -1.6231  1.5030
  917MOL0     H21021   7.635   9.480   9.633 -1.6813  0.8099  0.1260
  917MOL0     H21022   7.822   9.723   9.564 -0.7219  0.4521 -2.1849
  917MOL0     H21023   7.746   9.611   9.464  2.4015 -0.4124  0.3093
  917MOL0     H21024   7.656   9.848   9.493 -0.4547 -0.3770 -1.0796
  917MOL0     H21025   7.587   9.803   9.654  0.3836  0.4520 -0.0451
  917MOL0     H21026   8.266   9.004   9.311  0.5744 -0.6279 -1.7110
  917MOL0     H21027   8.481   8.890   9.357 -0.6503  1.4782 -0.4919
  917MOL0     H21028   8.744   8.690   9.514 -0.3584 -2.1679  1.2289
  917MOL0     H21029   8.943   8.591   9.490  2.1552  0.6948 -3.8216
  917MOL0     H21030  10.598   7.869   9.732  1.6885 -0.5912 -0.6417
  917MOL0     H21031  10.788   7.987   9.787 -2.5837  2.5844  0.5389
  917MOL0     H21032  11.041   8.125  10.192 -0.0567 -1.1322 -0.5464
  917MOL0     H21033  11.236   8.206  10.307 -0.4826  0.0375 -0.0932
  917MOL0     H21034  11.696   8.164  10.270 -1.2111  1.2677  0.8116
  917MOL0     H21035  11.649   8.082  10.127  3.3651 -2.7739  1.1159
  917MOL0     H21036  11.618   7.981  10.413  3.3823  0.9862  0.7585
  917MOL0     H21037  11.530   7.908  10.285 -0.7609  0.8031  2.2771
  917MOL0     H21038  11.766   7.800  10.346  1.0237  1.0880  1.6423
  917MOL0     H21039  11.836   7.953  10.322  0.8649  0.3984 -0.3201
  917MOL0     H21040  11.800   7.914  10.062  0.3112 -1.3217 -1.6025
  917MOL0     H21041  11.860   7.774  10.114 -1.9618 -3.3444  1.9968
  917MOL0     H21042  11.512   7.599  10.024  0.3215 -0.1388 -0.0254
  917MOL0     H21043  11.481   7.982  10.035 -1.7262 -3.9837 -1.5939
  917MOL0     H21044  11.303   7.900   9.925  0.5490  0.3191  0.3589
  918MOL0     O21045   1.274   0.459   6.397  0.1437  0.2308 -0.3478
  918MOL0     C21046   1.327   0.435   6.510 -0.1106  0.8396  0.6597
  918MOL0     O21047   1.263   0.387   6.620 -0.2930 -1.0891 -0.7043
  918MOL0     C21048   1.137   0.353   6.611  0.7995  0.5865 -0.2646
  918MOL0     C21049   1.106   0.232   6.555  0.6985 -0.3551 -0.1438
  918MOL0     C21050   0.973   0.200   6.531  0.9096 -0.4538 -0.3947
  918MOL0     C21051   0.868   0.294   6.554  0.5965 -0.1886 -0.0399
  918MOL0     O21052   0.736   0.256   6.526 -0.6686  0.1355  0.4174
  918MOL0     C21053   0.644   0.259   6.633 -1.1195 -0.0860 -0.3993
  918MOL0     C21054   0.575   0.122   6.655  0.0449 -0.4192  0.1051
  918MOL0     C21055   0.454   0.126   6.749  0.5669 -0.0638  0.1932
  918MOL0     C21056   0.349   0.245   6.736 -0.2075 -0.5026  0.3284
  918MOL0     C21057   0.202   0.210   6.758 -0.4904 -0.4799 -0.1338
  918MOL0     C21058   0.105   0.323   6.799 -0.5768  0.4255  0.1451
  918MOL0     C21059  -0.030   0.272   6.849  0.9227  0.1138  0.6988
  918MOL0     C21060  -0.016   0.199   6.981  0.2287 -1.0312 -0.2540
  918MOL0     N21061  -0.132   0.133   7.030  0.4427  0.3945 -0.7350
  918MOL0     C21062  -0.188   0.161   7.153  0.6884  0.8738  0.6342
  918MOL0     C21063  -0.280   0.062   7.165  0.7609  0.0820  0.0456
  918MOL0     C21064  -0.357   0.047   7.293  0.7277  0.2344  0.7750
  918MOL0     C21065  -0.491   0.111   7.272  0.4099  0.2453  1.3223
  918MOL0     C21066  -0.581   0.010   7.215  0.1355  0.2978  1.0731
  918MOL0     C21067  -0.717   0.060   7.168  0.2017  0.0084  0.1478
  918MOL0     O21068  -0.776   0.128   7.278 -0.1275  0.7002  0.2946
  918MOL0     C21069  -0.891   0.202   7.246 -0.4022 -0.1536 -0.1946
  918MOL0     C21070  -1.004   0.144   7.190  0.0834  0.5867 -0.1470
  918MOL0     C21071  -1.120   0.213   7.154 -0.0038  0.1130  0.7273
  918MOL0     C21072  -1.115   0.355   7.152  0.1148  0.5021  0.4908
  918MOL0     C21073  -1.221   0.429   7.091  1.0061 -0.0565 -0.0694
  918MOL0     O21074  -1.342   0.370   7.060  0.2083  0.6259 -0.5480
  918MOL0     C21075  -1.455   0.430   7.014  0.4337 -0.6077  0.2333
  918MOL0     C21076  -1.570   0.350   7.023 -0.4255  0.2024  1.1835
  918MOL0     C21077  -1.692   0.394   6.970  0.2473 -0.3593 -0.5815
  918MOL0     C21078  -1.688   0.513   6.886 -0.0066 -0.3408 -0.4671
  918MOL0     O21079  -1.792   0.561   6.817 -0.1613 -0.3213  0.0130
  918MOL0     C21080  -1.919   0.493   6.839 -0.0382 -0.3135 -0.2175
  918MOL0     C21081  -2.023   0.538   6.739 -0.7585  0.2595  0.0557
  918MOL0     C21082  -2.103   0.664   6.766  0.0249  0.3322 -0.0277
  918MOL0     C21083  -2.231   0.679   6.680 -0.0299 -0.4497  0.6299
  918MOL0     C21084  -2.299   0.815   6.695  0.4342  0.2332  0.5870
  918MOL0     C21085  -2.450   0.795   6.721  0.7915  0.7278  0.2118
  918MOL0     C21086  -2.517   0.923   6.716 -0.7064 -0.1215 -0.3663
  918MOL0     C21087  -2.510   1.004   6.842  0.2144 -0.7271  0.4198
  918MOL0    Cl21088  -2.660   0.964   6.926  0.0492 -0.3042  0.2723
  918MOL0     C21089  -1.580   0.604   6.887 -0.6993 -0.1449  0.1309
  918MOL0     C21090  -1.457   0.552   6.950 -0.0102 -1.1913  0.2733
  918MOL0     O21091  -1.204   0.557   7.096 -0.2113  0.1701  0.4553
  918MOL0     C21092  -1.000   0.417   7.210  0.8027 -0.0541 -0.1931
  918MOL0     C21093  -0.889   0.344   7.256 -0.0316  0.3480  1.0878
  918MOL0     N21094  -0.289  -0.022   7.050  0.4194 -0.4869 -0.2654
  918MOL0     N21095  -0.195   0.028   6.969  0.6794  0.4692  0.0348
  918MOL0     C21096   0.901   0.417   6.606 -0.5281 -0.8498  0.4519
  918MOL0     C21097   1.033   0.447   6.630  0.4626 -0.0841 -0.2698
  918MOL0     C21098   1.475   0.455   6.523 -0.2185  0.1496  0.3494
  918MOL0     C21099   1.557   0.449   6.408  0.4485 -0.5052 -0.0640
  918MOL0     C21100   1.694   0.466   6.419 -0.1188 -0.3954  0.2541
  918MOL0     C21101   1.743   0.490   6.550  0.0404 -0.3047  0.0104
  918MOL0     O21102   1.870   0.519   6.562  0.1371 -0.0225  0.2965
  918MOL0     C21103   1.954   0.419   6.619  0.1913  0.0953  0.0315
  918MOL0     C21104   2.107   0.448   6.596 -0.0628 -0.3875  0.4746
  918MOL0     C21105   2.172   0.499   6.724 -0.0637  0.8892  0.0862
  918MOL0     C21106   2.142   0.652   6.748  0.0413  0.8296 -0.7411
  918MOL0     C21107   2.208   0.749   6.666 -0.1055  0.9510 -0.2531
  918MOL0     C21108   2.276   0.816   6.600 -0.1224 -0.3601  0.6599
  918MOL0     C21109   1.664   0.505   6.658  0.3347 -0.7912 -0.9220
  918MOL0     C21110   1.530   0.482   6.641 -0.4519  0.5560 -0.4834
  918MOL0     H21111   1.171   0.150   6.526 -0.0236 -0.9375 -0.1467
  918MOL0     H21112   0.941   0.104   6.493 -3.4754  0.5144  0.2210
  918MOL0     H21113   0.578   0.343   6.610 -0.6858  0.7345  1.2292
  918MOL0     H21114   0.697   0.303   6.718  0.7375  1.1325 -2.0850
  918MOL0     H21115   0.652   0.054   6.691 -1.0829 -1.2690  0.9760
  918MOL0     H21116   0.536   0.093   6.558  3.3618  0.1961 -1.5620
  918MOL0     H21117   0.491   0.124   6.852  0.9593 -0.3249  0.0469
  918MOL0     H21118   0.400   0.033   6.730  1.0990 -0.9649  2.7115
  918MOL0     H21119   0.377   0.316   6.814 -2.5773  0.3245  0.5044
  918MOL0     H21120   0.347   0.299   6.641 -1.3659  0.6259  0.9698
  918MOL0     H21121   0.203   0.132   6.834  0.2532 -0.0094  0.3476
  918MOL0     H21122   0.160   0.169   6.665 -1.9489 -2.7895  1.4544
  918MOL0     H21123   0.098   0.395   6.717  1.9623  1.3974  0.6794
  918MOL0     H21124   0.150   0.366   6.889  3.5449 -3.4187  0.3051
  918MOL0     H21125  -0.093   0.360   6.868 -1.3598 -1.5124  0.9872
  918MOL0     H21126  -0.081   0.222   6.766 -0.9215 -0.2019  1.9665
  918MOL0     H21127   0.006   0.281   7.049 -0.1028 -1.6449  0.6132
  918MOL0     H21128   0.066   0.126   6.984  3.8772  2.7178  2.1762
  918MOL0     H21129  -0.162   0.224   7.237 -1.7917  0.2880  1.9598
  918MOL0     H21130  -0.303   0.083   7.382  1.2209 -0.4051  0.7423
  918MOL0     H21131  -0.379  -0.058   7.311 -2.3698  0.7494  0.5236
  918MOL0     H21132  -0.485   0.198   7.206 -0.8020 -0.8113 -0.2599
  918MOL0     H21133  -0.533   0.144   7.368 -0.7442 -3.4270  2.2508
  918MOL0     H21134  -0.538  -0.047   7.132 -1.2699 -1.7567  1.6459
  918MOL0     H21135  -0.598  -0.074   7.284  1.8701 -0.7553  0.2915
  918MOL0     H21136  -0.779  -0.024   7.135  1.2359 -0.9306  0.5424
  918MOL0     H21137  -0.694   0.125   7.082  1.7103  0.4701  0.8619
  918MOL0     H21138  -1.011   0.036   7.185 -2.3474  0.7180 -1.0998
  918MOL0     H21139  -1.190   0.140   7.115  2.1832 -1.4051 -0.5752
  918MOL0     H21140  -1.570   0.253   7.072  1.7873 -0.7938 -0.6284
  918MOL0     H21141  -1.779   0.332   6.985 -0.4494  0.4132 -1.3346
  918MOL0     H21142  -1.949   0.514   6.942  1.4179  1.3921 -0.0893
  918MOL0     H21143  -1.902   0.386   6.830 -0.0421 -0.6332  2.6679
  918MOL0     H21144  -2.090   0.452   6.727  2.6634 -2.3223 -2.6784
  918MOL0     H21145  -1.964   0.547   6.648  1.2091  0.7553  1.3341
  918MOL0     H21146  -2.042   0.753   6.746 -1.1922  0.9620 -1.1157
  918MOL0     H21147  -2.139   0.664   6.870 -1.7350 -0.8920 -0.5853
  918MOL0     H21148  -2.215   0.645   6.578 -1.3471  0.2854  0.1486
  918MOL0     H21149  -2.304   0.606   6.718 -1.6223  2.7628  4.5586
  918MOL0     H21150  -2.291   0.879   6.607 -1.4872 -0.5427 -0.2152
  918MOL0     H21151  -2.259   0.866   6.782  0.5821  1.7593 -0.3440
  918MOL0     H21152  -2.473   0.740   6.814  1.4685  0.0056 -0.0365
  918MOL0     H21153  -2.492   0.742   6.634 -0.2799  2.8922 -0.6473
  918MOL0     H21154  -2.473   0.995   6.647  1.1581  2.5137  3.1950
  918MOL0     H21155  -2.623   0.902   6.696 -1.4442  0.5519  2.4093
  918MOL0     H21156  -2.503   1.109   6.811 -0.7635 -0.4855  0.9720
  918MOL0     H21157  -2.418   0.982   6.896  0.8282  0.3292 -0.1629
  918MOL0     H21158  -1.579   0.701   6.839 -1.7113 -1.0737 -1.9181
  918MOL0     H21159  -1.368   0.612   6.938 -0.6108 -0.8601 -4.4164
  918MOL0     H21160  -1.000   0.525   7.221  2.3439 -0.2491  2.4741
  918MOL0     H21161  -0.798   0.393   7.288 -0.2786  2.2623 -0.8832
  918MOL0     H21162   0.822   0.490   6.622  1.8527  2.2001 -0.7705
  918MOL0     H21163   1.069   0.547   6.651 -0.3648  0.3509 -0.8391
  918MOL0     H21164   1.501   0.426   6.318  0.6495 -0.8109 -0.1102
  918MOL0     H21165   1.753   0.469   6.328 -1.5306  0.2328 -0.6769
  918MOL0     H21166   1.931   0.326   6.566  0.4264  0.7777 -1.3364
  918MOL0     H21167   1.930   0.420   6.725 -0.1367  2.8620  0.0046
  918MOL0     H21168   2.147   0.352   6.564 -2.4113 -0.5888 -2.2551
  918MOL0     H21169   2.121   0.513   6.509 -1.0596 -0.2080  0.4326
  918MOL0     H21170   2.277   0.482   6.697 -0.5224 -3.0981  0.2579
  918MOL0     H21171   2.151   0.437   6.811 -0.1352 -1.8459 -1.7448
  918MOL0     H21172   2.033   0.657   6.734 -0.2342 -0.5240  0.6900
  918MOL0     H21173   2.175   0.661   6.852  0.1880  2.4064 -0.8996
  918MOL0     H21174   2.335   0.891   6.552  1.9684 -1.9926  0.5399
  918MOL0     H21175   1.706   0.543   6.751  2.6590 -1.4622 -1.6112
  918MOL0     H21176   1.466   0.482   6.729  0.4341 -0.0621  0.1767
  919MOL0     O21177   0.484  10.460   9.791 -0.1840  0.4617  0.2365
  919MOL0     C21178   0.568  10.454   9.698  0.7307  0.3657 -0.3919
  919MOL0     O21179   0.545  10.478   9.569  0.7187 -0.7349  0.3431
  919MOL0     C21180   0.426  10.526   9.523  0.7168 -0.0422  0.6687
  919MOL0     C21181   0.342  10.459   9.434  0.6692  0.1601 -0.1362
  919MOL0     C21182   0.207  10.503   9.415  0.5718 -0.0418  0.1912
  919MOL0     C21183   0.162  10.618   9.475 -0.0497  0.5400 -1.2000
  919MOL0     O21184   0.028  10.650   9.450 -1.2985  0.1843  0.3839
  919MOL0     C21185   0.011  10.772   9.375 -0.7648  0.4962 -0.0140
  919MOL0     C21186  -0.126  10.772   9.308 -0.1557 -1.1667 -0.3415
  919MOL0     C21187  -0.143  10.655   9.208  0.4162 -0.5158 -0.0903
  919MOL0     C21188  -0.036  10.651   9.101  0.3540  0.2572  0.3708
  919MOL0     C21189  -0.073  10.562   8.972 -0.0694  0.2156 -1.3008
  919MOL0     C21190   0.034  10.584   8.867  0.1173 -0.0949 -0.5566
  919MOL0     C21191   0.052  10.456   8.771  1.2923  0.1681  0.5167
  919MOL0     C21192   0.143  10.492   8.648  0.0716 -0.6114 -0.7276
  919MOL0     N21193   0.147  10.393   8.545 -0.0529 -0.0677 -0.8191
  919MOL0     C21194   0.137  10.259   8.562 -0.3130  0.2844 -0.2464
  919MOL0     C21195   0.168  10.210   8.433  0.4015  0.1708 -0.4137
  919MOL0     C21196   0.169  10.062   8.377 -0.1072  0.8505 -0.1505
  919MOL0     C21197   0.039  10.014   8.315  0.3217 -0.0893 -0.4675
  919MOL0     C21198   0.058   9.867   8.285  0.1213  0.1075 -0.4691
  919MOL0     C21199  -0.067   9.784   8.286  0.6245 -0.0386 -0.0610
  919MOL0     O21200  -0.166   9.864   8.213  0.2992  1.2736 -0.4864
  919MOL0     C21201  -0.289   9.817   8.182 -0.3097 -0.1566  0.2798
  919MOL0     C21202  -0.365   9.743   8.279 -1.1898  0.2149 -0.0887
  919MOL0     C21203  -0.498   9.706   8.243 -0.2022 -0.2070  0.1869
  919MOL0     C21204  -0.556   9.733   8.123 -0.9783 -0.3461  0.0403
  919MOL0     C21205  -0.691   9.683   8.093 -0.8216 -0.2732 -0.6294
  919MOL0     O21206  -0.734   9.655   7.968 -0.7561 -0.1842  0.5626
  919MOL0     C21207  -0.859   9.599   7.942 -0.3395 -0.4185  0.4222
  919MOL0     C21208  -0.911   9.488   8.016 -0.3952  0.0957  1.0792
  919MOL0     C21209  -1.040   9.439   7.991  0.2089  1.3303  0.3884
  919MOL0     C21210  -1.106   9.488   7.876 -0.1811  0.1870  0.3747
  919MOL0     O21211  -1.242   9.465   7.850 -1.6782  0.6273 -0.5107
  919MOL0     C21212  -1.324   9.478   7.966  0.6707  0.6587  0.2048
  919MOL0     C21213  -1.444   9.379   7.968  0.0780 -0.2843  0.0862
  919MOL0     C21214  -1.549   9.425   7.861  0.7571  0.0059 -1.0236
  919MOL0     C21215  -1.641   9.305   7.839 -0.0467  0.0326 -0.0244
  919MOL0     C21216  -1.767   9.342   7.759 -0.3840  0.4036  0.3507
  919MOL0     C21217  -1.888   9.239   7.760 -0.0863  0.4148  0.5699
  919MOL0     C21218  -2.021   9.300   7.700  0.1850  1.0301 -1.0117
  919MOL0     C21219  -2.145   9.212   7.736 -0.6435 -0.0130  0.2030
  919MOL0    Cl21220  -2.125   9.056   7.666 -0.0720  0.0707  0.3988
  919MOL0     C21221  -1.050   9.586   7.794  0.1168 -0.6103 -0.1711
  919MOL0     C21222  -0.932   9.640   7.836 -0.0961  0.9389  1.2120
  919MOL0     O21223  -0.762   9.672   8.192 -0.6170  0.5325  0.2882
  919MOL0     C21224  -0.481   9.803   8.031  0.2960 -0.2108  0.3676
  919MOL0     C21225  -0.356   9.850   8.059  0.0193  0.2673  0.1752
  919MOL0     N21226   0.179  10.325   8.350  0.3060 -0.0446 -0.2417
  919MOL0     N21227   0.166  10.433   8.421 -0.6268  0.5259  0.0059
  919MOL0     C21228   0.256  10.696   9.550  0.0909 -0.0092 -1.4372
  919MOL0     C21229   0.380  10.648   9.569 -0.8943 -0.6684  0.1789
  919MOL0     C21230   0.690  10.389   9.730 -1.0325  0.1558 -0.0682
  919MOL0     C21231   0.803  10.385   9.637  0.3245 -0.2502  0.1170
  919MOL0     C21232   0.924  10.333   9.680 -0.6482  0.4223 -0.6385
  919MOL0     C21233   0.949  10.298   9.813  0.1668  1.1136 -0.6271
  919MOL0     O21234   1.079  10.257   9.848 -0.3414 -0.5154  1.2439
  919MOL0     C21235   1.110  10.157   9.949  0.0672 -0.3369  0.2618
  919MOL0     C21236   1.053  10.021   9.907  0.6609  0.4141 -0.0935
  919MOL0     C21237   1.107   9.958   9.780  0.0896  0.6521 -0.1214
  919MOL0     C21238   1.189  10.040   9.675 -1.1518  0.3692 -0.4903
  919MOL0     C21239   1.251   9.945   9.579 -0.2141 -0.0926  0.1041
  919MOL0     C21240   1.290   9.868   9.492 -0.2746  0.3444  0.2114
  919MOL0     C21241   0.840  10.300   9.902  0.0898  0.5874  0.1565
  919MOL0     C21242   0.712  10.342   9.862  0.1880 -0.4530  0.3544
  919MOL0     H21243   0.371  10.371   9.376 -0.4834  0.5797 -1.4057
  919MOL0     H21244   0.153  10.449   9.338 -1.1615  0.6499  0.8726
  919MOL0     H21245   0.081  10.777   9.291 -0.5086  0.5688  0.2033
  919MOL0     H21246   0.023  10.865   9.430 -1.8559  1.3459 -1.1536
  919MOL0     H21247  -0.125  10.871   9.261  2.6377  0.1390  2.1184
  919MOL0     H21248  -0.209  10.783   9.378  3.5464  3.4823  4.1066
  919MOL0     H21249  -0.245  10.659   9.171 -0.1999 -0.3538  1.5491
  919MOL0     H21250  -0.135  10.558   9.257  0.8250 -1.0571 -1.1949
  919MOL0     H21251  -0.011  10.752   9.066  2.8113 -0.4684 -0.1952
  919MOL0     H21252   0.058  10.610   9.139 -0.6768 -1.4036  1.2424
  919MOL0     H21253  -0.170  10.604   8.942 -0.4248  1.7994  1.6525
  919MOL0     H21254  -0.080  10.455   8.993  0.1180  0.6630  1.4401
  919MOL0     H21255   0.134  10.608   8.905  2.2506 -1.7340 -4.4752
  919MOL0     H21256   0.014  10.670   8.803  1.0005 -0.2985 -1.1255
  919MOL0     H21257   0.087  10.376   8.836 -0.0925 -1.2406 -0.3983
  919MOL0     H21258  -0.041  10.429   8.721  2.3704 -2.4331 -0.2685
  919MOL0     H21259   0.246  10.507   8.684 -1.3560  2.0005  2.8972
  919MOL0     H21260   0.124  10.590   8.604  2.3895  1.2731  2.0293
  919MOL0     H21261   0.118  10.210   8.657 -1.2262  1.1798  0.0495
  919MOL0     H21262   0.185   9.990   8.457 -3.3117 -1.2459 -1.1555
  919MOL0     H21263   0.245  10.057   8.299  0.1884  1.1732  0.1174
  919MOL0     H21264   0.001  10.082   8.237 -0.3753 -0.1752 -0.2093
  919MOL0     H21265  -0.036  10.020   8.395  0.9681 -3.2680  0.4936
  919MOL0     H21266   0.098   9.867   8.183 -0.0025 -1.5843 -0.5362
  919MOL0     H21267   0.116   9.824   8.367 -3.0420 -0.3813  1.7152
  919MOL0     H21268  -0.096   9.765   8.390  4.7264 -2.6386  0.8510
  919MOL0     H21269  -0.065   9.683   8.245 -1.2516  0.9263 -2.8420
  919MOL0     H21270  -0.323   9.727   8.378 -2.3847  1.7916  0.7283
  919MOL0     H21271  -0.563   9.639   8.299 -1.3241  0.2481 -0.5418
  919MOL0     H21272  -0.852   9.434   8.090 -0.9229 -2.3588 -0.2030
  919MOL0     H21273  -1.081   9.354   8.044  0.9124  0.4191 -0.4914
  919MOL0     H21274  -1.366   9.579   7.972  0.3889  0.7693 -2.5098
  919MOL0     H21275  -1.272   9.455   8.059  1.3576 -0.3886 -0.4136
  919MOL0     H21276  -1.483   9.371   8.070 -1.2967  3.2089 -0.0250
  919MOL0     H21277  -1.396   9.285   7.939  0.2995 -0.4005  0.8008
  919MOL0     H21278  -1.489   9.461   7.778  3.6602 -1.0857  0.4588
  919MOL0     H21279  -1.612   9.507   7.898 -1.3309 -0.3724 -3.4246
  919MOL0     H21280  -1.593   9.219   7.792 -1.2095 -1.3994  1.2833
  919MOL0     H21281  -1.670   9.269   7.938 -2.7885  0.0465 -0.7414
  919MOL0     H21282  -1.736   9.369   7.658  4.1748 -0.9186  1.1866
  919MOL0     H21283  -1.803   9.434   7.807 -1.2490  2.7663 -4.2889
  919MOL0     H21284  -1.897   9.190   7.858 -1.4624 -3.2601 -1.1831
  919MOL0     H21285  -1.866   9.156   7.693  0.4028  1.1825 -0.2343
  919MOL0     H21286  -2.058   9.393   7.744  0.0026  1.3188 -1.7755
  919MOL0     H21287  -2.014   9.304   7.591  1.8136 -1.3137 -1.0650
  919MOL0     H21288  -2.239   9.252   7.695 -1.4434  0.4850  2.3787
  919MOL0     H21289  -2.156   9.198   7.844 -0.0706 -3.0915 -0.0481
  919MOL0     H21290  -1.108   9.629   7.713 -1.4451 -2.3922 -0.0726
  919MOL0     H21291  -0.881   9.715   7.776  0.7178  1.0652  2.0482
  919MOL0     H21292  -0.520   9.827   7.932  0.8446  0.3225  0.2746
  919MOL0     H21293  -0.309   9.901   7.975  0.2595 -0.4569 -0.1376
  919MOL0     H21294   0.223  10.791   9.590  0.2305 -0.3814 -0.4143
  919MOL0     H21295   0.455  10.708   9.620  0.6280 -0.4539 -2.1484
  919MOL0     H21296   0.805  10.407   9.531  2.4854  1.4110  0.4371
  919MOL0     H21297   1.013  10.333   9.617  0.5388  1.2443  0.9520
  919MOL0     H21298   1.059  10.193  10.039  1.2359  1.5277  0.2320
  919MOL0     H21299   1.218  10.147   9.961  0.3149 -0.4840 -1.8320
  919MOL0     H21300   1.077   9.960   9.995  0.1659 -0.8020 -0.7810
  919MOL0     H21301   0.944  10.024   9.903  0.5563 -1.3472  0.5704
  919MOL0     H21302   1.015   9.927   9.729  0.4353 -2.0328  0.7425
  919MOL0     H21303   1.164   9.868   9.807 -1.2392 -0.5174 -1.0618
  919MOL0     H21304   1.122  10.103   9.616 -0.4573  0.3298 -1.3539
  919MOL0     H21305   1.266  10.093   9.731 -2.1053 -0.6664  1.9393
  919MOL0     H21306   1.323   9.795   9.421 -3.8753 -0.7844 -0.5373
  919MOL0     H21307   0.854  10.264  10.004  1.9005  0.7270 -0.0047
  919MOL0     H21308   0.637  10.347   9.940  0.4656 -1.0565  0.6655
  920MOL0     O21309   6.969   5.665   7.694  1.0273 -0.2059 -0.3617
  920MOL0     C21310   7.003   5.775   7.736  0.0399  0.0019  0.5454
  920MOL0     O21311   6.922   5.866   7.793 -0.0424  0.0433 -0.2466
  920MOL0     C21312   6.789   5.856   7.805 -0.4202 -0.1587  0.1625
  920MOL0     C21313   6.719   5.946   7.895 -0.0377 -0.8335  0.7390
  920MOL0     C21314   6.586   5.958   7.900  0.5724  0.0485  0.1290
  920MOL0     C21315   6.507   5.881   7.827  0.0978  0.4428  1.2167
  920MOL0     O21316   6.366   5.892   7.839 -0.1209  0.0287 -0.5909
  920MOL0     C21317   6.286   5.840   7.731 -0.1936  0.8548  0.0484
  920MOL0     C21318   6.138   5.872   7.754 -0.7741  0.1503 -0.1629
  920MOL0     C21319   6.094   5.807   7.889  1.0489 -0.3011  1.2401
  920MOL0     C21320   5.939   5.819   7.897  0.4452  0.4116  0.1122
  920MOL0     C21321   5.882   5.761   8.026 -0.4575  0.3541 -0.7803
  920MOL0     C21322   5.730   5.753   8.029  0.8867  0.4396 -0.1908
  920MOL0     C21323   5.666   5.891   8.009 -0.6025 -0.3984  0.2473
  920MOL0     C21324   5.530   5.890   7.945  0.5091  1.6305 -0.2553
  920MOL0     N21325   5.438   5.782   8.005 -0.3156  0.0230  0.2337
  920MOL0     C21326   5.441   5.640   7.974  0.6210 -1.0292 -0.3884
  920MOL0     C21327   5.352   5.585   8.066 -0.6352  0.2874  0.2421
  920MOL0     C21328   5.327   5.440   8.078 -0.1433 -0.2738 -0.1076
  920MOL0     C21329   5.198   5.404   8.010 -1.2829 -0.3783  0.9197
  920MOL0     C21330   5.071   5.486   8.048  0.4624 -0.2135  0.6813
  920MOL0     C21331   5.009   5.440   8.184  0.7169  0.4471 -0.1489
  920MOL0     O21332   4.870   5.481   8.177 -0.6060 -0.4866  0.2527
  920MOL0     C21333   4.795   5.424   8.269  0.3028 -0.0210 -0.4825
  920MOL0     C21334   4.762   5.293   8.251  0.2566 -0.2625  0.3406
  920MOL0     C21335   4.684   5.222   8.343 -0.2596  0.2664  0.3844
  920MOL0     C21336   4.633   5.286   8.454 -0.2991  0.5400 -0.3392
  920MOL0     C21337   4.543   5.222   8.551 -0.2625  0.1313 -0.0595
  920MOL0     O21338   4.506   5.099   8.529  0.4250  0.6015  0.2520
  920MOL0     C21339   4.420   5.039   8.620 -0.1632  0.4169 -0.0211
  920MOL0     C21340   4.291   5.010   8.579  0.6257  0.7066  0.0026
  920MOL0     C21341   4.197   4.969   8.668  0.3632  0.9487 -0.2683
  920MOL0     C21342   4.229   4.926   8.800  0.3370 -0.6034 -0.5394
  920MOL0     O21343   4.136   4.878   8.890 -0.6793  0.0771  0.0689
  920MOL0     C21344   4.027   4.975   8.918 -1.4398  0.1213 -0.1670
  920MOL0     C21345   3.894   4.909   8.958  0.2396  0.0951 -0.6744
  920MOL0     C21346   3.847   4.790   8.879  1.4212  0.3513 -0.3732
  920MOL0     C21347   3.704   4.734   8.926 -0.9786  0.0483 -0.3964
  920MOL0     C21348   3.589   4.832   8.892 -0.5486 -0.6610  0.3971
  920MOL0     C21349   3.455   4.761   8.872 -0.4341 -0.1719  0.4384
  920MOL0     C21350   3.408   4.734   9.018 -0.4448  0.3531  0.6388
  920MOL0     C21351   3.280   4.663   9.024  0.1295  0.4811  0.2452
  920MOL0    Cl21352   3.138   4.735   8.934  0.2936 -0.0210  0.4291
  920MOL0     C21353   4.364   4.947   8.842  0.0654 -0.2982  0.9047
  920MOL0     C21354   4.453   5.013   8.745 -0.6664 -0.5292 -0.6574
  920MOL0     O21355   4.492   5.294   8.633  0.0028  0.0172 -0.0768
  920MOL0     C21356   4.656   5.429   8.465 -0.5586 -0.0690 -0.8311
  920MOL0     C21357   4.742   5.499   8.374 -0.0206  0.1439  0.1947
  920MOL0     N21358   5.293   5.694   8.138 -0.5795  0.5801  0.7277
  920MOL0     N21359   5.341   5.807   8.097  0.3146  0.6940  0.0016
  920MOL0     C21360   6.568   5.798   7.725 -0.6682 -0.6864 -0.2189
  920MOL0     C21361   6.703   5.789   7.714  0.8094  0.3482  0.3189
  920MOL0     C21362   7.146   5.802   7.721 -0.5849  0.4192 -0.5560
  920MOL0     C21363   7.217   5.899   7.797  0.3475  0.4219 -0.1555
  920MOL0     C21364   7.350   5.906   7.787  0.1344  0.9011  0.4509
  920MOL0     C21365   7.432   5.838   7.691  0.2915 -0.4526  0.0487
  920MOL0     O21366   7.561   5.869   7.702 -0.5028  0.2000 -0.3062
  920MOL0     C21367   7.616   5.840   7.577 -0.1101  0.7172 -0.6593
  920MOL0     C21368   7.755   5.882   7.590 -0.9376 -0.1188 -0.4965
  920MOL0     C21369   7.837   5.843   7.464 -0.0439 -0.3837 -0.3890
  920MOL0     C21370   7.980   5.907   7.457  0.1442 -0.0205 -0.4833
  920MOL0     C21371   7.982   6.060   7.450  0.1446 -0.0443 -0.1820
  920MOL0     C21372   7.993   6.182   7.444 -0.4902 -1.1433  0.4373
  920MOL0     C21373   7.365   5.736   7.623  0.0046 -0.3546 -0.3387
  920MOL0     C21374   7.222   5.722   7.633  0.1054  0.3712 -0.1258
  920MOL0     H21375   6.767   6.005   7.973  0.6022 -0.3237 -0.0303
  920MOL0     H21376   6.545   6.024   7.976  0.1058 -0.5859  0.4391
  920MOL0     H21377   6.294   5.732   7.717 -0.1133  0.8799 -0.1145
  920MOL0     H21378   6.305   5.889   7.635 -4.7974  1.0153 -1.0090
  920MOL0     H21379   6.091   5.821   7.669  0.1620  0.5141 -0.9296
  920MOL0     H21380   6.127   5.981   7.758  0.2723  0.2291  1.7632
  920MOL0     H21381   6.134   5.850   7.981 -0.6034  0.8329  1.4676
  920MOL0     H21382   6.118   5.701   7.877  2.4748  0.1962 -1.0229
  920MOL0     H21383   5.904   5.922   7.882 -3.9431 -0.6737  1.5346
  920MOL0     H21384   5.899   5.762   7.812  2.4614 -0.5612 -0.2509
  920MOL0     H21385   5.921   5.821   8.109  3.9875 -2.6018 -0.3830
  920MOL0     H21386   5.932   5.664   8.035  2.3428  1.7926  0.4232
  920MOL0     H21387   5.693   5.707   8.122  2.8826  1.1649  1.0363
  920MOL0     H21388   5.702   5.697   7.939 -0.1625  1.7095 -0.6706
  920MOL0     H21389   5.649   5.932   8.108 -1.4272 -1.4868  0.5759
  920MOL0     H21390   5.726   5.965   7.955  0.8627 -0.4567  1.7126
  920MOL0     H21391   5.545   5.875   7.838 -0.9332 -0.0733 -0.2556
  920MOL0     H21392   5.482   5.989   7.944 -1.8308  0.5580  0.0358
  920MOL0     H21393   5.498   5.579   7.905 -1.4612 -3.0454 -0.4634
  920MOL0     H21394   5.316   5.422   8.186 -1.7323  1.3199  0.0405
  920MOL0     H21395   5.406   5.377   8.038 -0.8085 -0.2290 -1.5404
  920MOL0     H21396   5.177   5.300   8.035 -0.8023 -1.3523 -2.2101
  920MOL0     H21397   5.223   5.413   7.903  2.8029  1.5121  1.8050
  920MOL0     H21398   5.090   5.593   8.041  2.7173 -0.4840  1.8868
  920MOL0     H21399   4.991   5.472   7.974 -0.6483  1.1432  1.5560
  920MOL0     H21400   5.053   5.476   8.278  0.9340 -2.5309  1.0104
  920MOL0     H21401   5.015   5.331   8.197 -1.4084  0.4750  1.9040
  920MOL0     H21402   4.808   5.245   8.166 -0.8545 -2.7068  1.0243
  920MOL0     H21403   4.670   5.115   8.333 -1.0919  0.4395 -0.4218
  920MOL0     H21404   4.270   5.036   8.476  1.1611  2.9561  0.4084
  920MOL0     H21405   4.098   4.942   8.632  0.7267 -2.5955  1.0368
  920MOL0     H21406   4.000   5.038   8.833 -1.5692  1.3448  0.7454
  920MOL0     H21407   4.062   5.047   8.993 -0.0061 -2.1114  1.4340
  920MOL0     H21408   3.813   4.983   8.949 -0.2790 -0.4287 -0.4144
  920MOL0     H21409   3.902   4.886   9.064  0.1980 -1.5129 -0.9961
  920MOL0     H21410   3.922   4.710   8.880  1.0532  0.0016  0.2484
  920MOL0     H21411   3.836   4.816   8.774  2.6025 -0.1480 -0.6334
  920MOL0     H21412   3.684   4.638   8.877 -1.9722  0.2494 -0.4049
  920MOL0     H21413   3.704   4.712   9.033  2.0472  0.3460 -0.2455
  920MOL0     H21414   3.615   4.884   8.799  2.8428 -1.6000  0.6773
  920MOL0     H21415   3.575   4.908   8.969 -2.0403  1.2482 -1.6295
  920MOL0     H21416   3.474   4.667   8.820 -0.4507 -0.3362  0.7324
  920MOL0     H21417   3.387   4.830   8.821 -1.5764 -0.5101  1.4641
  920MOL0     H21418   3.482   4.663   9.057 -0.4965 -0.3013 -0.4298
  920MOL0     H21419   3.400   4.826   9.076  0.1482  0.4545  0.5729
  920MOL0     H21420   3.254   4.675   9.130 -0.3411  0.0256  0.1901
  920MOL0     H21421   3.288   4.558   8.995  1.1194  1.2072 -2.4244
  920MOL0     H21422   4.397   4.905   8.937  3.2844 -1.3895 -0.5511
  920MOL0     H21423   4.552   5.037   8.780 -1.4360  0.8985  0.6541
  920MOL0     H21424   4.614   5.491   8.544 -3.2028  2.1279 -3.7018
  920MOL0     H21425   4.761   5.605   8.390  1.0898  0.2796 -1.7812
  920MOL0     H21426   6.517   5.731   7.656 -0.5484 -0.4619 -0.5299
  920MOL0     H21427   6.746   5.730   7.634 -0.3130  3.1815 -2.5716
  920MOL0     H21428   7.156   5.960   7.863  0.7647 -0.0942  0.7288
  920MOL0     H21429   7.412   5.978   7.840  0.4775  0.6658  0.3722
  920MOL0     H21430   7.559   5.891   7.499 -0.2537 -1.1650 -1.8628
  920MOL0     H21431   7.613   5.731   7.565  1.5540  0.2344  2.3774
  920MOL0     H21432   7.749   5.991   7.598 -0.3535 -0.1190 -0.0383
  920MOL0     H21433   7.817   5.835   7.667 -0.5602 -0.3993 -0.9669
  920MOL0     H21434   7.792   5.885   7.374  4.5267  3.2360 -1.3578
  920MOL0     H21435   7.842   5.734   7.466  0.0535 -0.5089  4.3395
  920MOL0     H21436   8.045   5.878   7.540  4.3694  1.3452 -3.0170
  920MOL0     H21437   8.033   5.868   7.369  0.4713 -1.5334  0.3567
  920MOL0     H21438   7.980   6.289   7.443 -1.4813 -1.2198  1.8178
  920MOL0     H21439   7.416   5.683   7.543 -2.1153  1.3331 -3.0063
  920MOL0     H21440   7.181   5.647   7.567  2.7276 -2.3601  1.1306
  921MOL0     O21441   1.324   5.017  11.156 -0.2903  0.0543  0.3177
  921MOL0     C21442   1.274   5.108  11.213  0.3158 -0.7260 -0.0214
  921MOL0     O21443   1.149   5.156  11.175 -0.5135 -0.2365 -0.0914
  921MOL0     C21444   1.062   5.089  11.094 -0.5107 -0.2005  0.2333
  921MOL0     C21445   1.062   4.951  11.064 -1.4558  1.1158 -0.1784
  921MOL0     C21446   0.963   4.885  10.995  0.1958  0.7285  0.7883
  921MOL0     C21447   0.844   4.960  10.968 -0.1788  0.0428 -0.2378
  921MOL0     O21448   0.720   4.914  10.924 -0.4411  0.0563  0.6967
  921MOL0     C21449   0.700   4.772  10.876 -0.6897  0.4763  0.4464
  921MOL0     C21450   0.662   4.683  11.001 -0.5265  0.6502 -0.4483
  921MOL0     C21451   0.575   4.754  11.108  0.4053  0.1689  0.3813
  921MOL0     C21452   0.454   4.817  11.052  0.1278 -0.0448  0.2303
  921MOL0     C21453   0.382   4.889  11.165  0.0210 -0.4311  0.2350
  921MOL0     C21454   0.253   4.963  11.133  0.2803 -0.3730 -0.8722
  921MOL0     C21455   0.155   4.880  11.064  0.1667  0.6900 -0.6436
  921MOL0     C21456   0.021   4.958  11.057  0.0725 -0.0116  0.3573
  921MOL0     N21457  -0.049   4.963  11.187  0.1655 -0.6613 -0.2211
  921MOL0     C21458  -0.108   4.855  11.252  0.1974  0.6183 -0.5237
  921MOL0     C21459  -0.193   4.909  11.348 -0.1083 -0.2597  1.2037
  921MOL0     C21460  -0.293   4.848  11.442  1.1839  0.8591 -0.1961
  921MOL0     C21461  -0.279   4.869  11.595  0.5965  0.6411 -0.2658
  921MOL0     C21462  -0.291   5.008  11.651  1.0844 -0.0134  0.1766
  921MOL0     C21463  -0.418   5.099  11.614 -0.2053  0.2723  0.1989
  921MOL0     O21464  -0.519   5.047  11.698 -0.2345  0.2317 -0.0071
  921MOL0     C21465  -0.643   5.093  11.670  0.5115 -0.5166  0.3224
  921MOL0     C21466  -0.676   5.228  11.660  0.0737  0.6372  0.7686
  921MOL0     C21467  -0.814   5.261  11.635  1.3011  0.5639 -0.8418
  921MOL0     C21468  -0.908   5.162  11.604 -0.6892  0.7593  0.9853
  921MOL0     C21469  -1.047   5.191  11.565  0.3697 -0.0345  0.9231
  921MOL0     O21470  -1.080   5.322  11.573 -0.7861  0.1913  0.3536
  921MOL0     C21471  -1.202   5.370  11.544 -0.2989 -0.9869  0.5005
  921MOL0     C21472  -1.295   5.322  11.454  0.4852  1.1969 -0.4293
  921MOL0     C21473  -1.416   5.377  11.441 -0.3896  0.6819 -0.0130
  921MOL0     C21474  -1.456   5.503  11.509 -0.9161  0.8796  0.0754
  921MOL0     O21475  -1.586   5.548  11.524  0.5209 -0.3781 -0.0749
  921MOL0     C21476  -1.693   5.477  11.467  0.7294 -0.1435  0.0359
  921MOL0     C21477  -1.821   5.500  11.560 -0.1531  0.6947  0.0164
  921MOL0     C21478  -1.936   5.449  11.471  0.4647  0.2050  0.4154
  921MOL0     C21479  -2.076   5.474  11.529  0.2736  0.4347 -0.8695
  921MOL0     C21480  -2.187   5.467  11.433  0.2367 -0.8277 -0.3903
  921MOL0     C21481  -2.209   5.323  11.378 -0.2386  1.0377 -0.0464
  921MOL0     C21482  -2.344   5.305  11.314  0.4217  0.5417  0.0597
  921MOL0     C21483  -2.373   5.150  11.287  0.2539 -0.6639  0.2481
  921MOL0    Cl21484  -2.424   5.051  11.415  0.4803 -0.5176  0.2345
  921MOL0     C21485  -1.361   5.559  11.592 -0.6088  0.0549  0.2040
  921MOL0     C21486  -1.236   5.489  11.601 -0.2051 -0.5818 -0.8507
  921MOL0     O21487  -1.127   5.100  11.533 -0.9975  0.3362  0.3082
  921MOL0     C21488  -0.875   5.032  11.623  0.2613 -0.9907  0.1036
  921MOL0     C21489  -0.749   5.000  11.663 -0.3303  0.4081  1.0747
  921MOL0     N21490  -0.167   5.049  11.340  0.6312  0.5714 -0.4318
  921MOL0     N21491  -0.091   5.086  11.240 -0.0872 -0.2042 -0.0887
  921MOL0     C21492   0.839   5.098  11.003  0.1101  0.5914  0.3097
  921MOL0     C21493   0.950   5.157  11.061 -0.4371  0.3246 -1.1238
  921MOL0     C21494   1.364   5.184  11.312 -1.2106 -0.5088 -0.1126
  921MOL0     C21495   1.508   5.156  11.307 -0.1921 -0.0106 -0.4601
  921MOL0     C21496   1.588   5.231  11.394  0.4350  0.0542  0.5364
  921MOL0     C21497   1.538   5.319  11.488  0.7656  0.1220 -0.1565
  921MOL0     O21498   1.619   5.400  11.557 -0.0796  0.7079  0.0376
  921MOL0     C21499   1.596   5.446  11.688  0.9909  0.5153 -0.2996
  921MOL0     C21500   1.558   5.334  11.791 -0.2490 -0.5837  0.0719
  921MOL0     C21501   1.473   5.383  11.914  1.1436 -0.0669 -0.5218
  921MOL0     C21502   1.556   5.487  12.000  0.0631  0.6140 -0.1649
  921MOL0     C21503   1.683   5.438  12.056  0.4813  0.7531 -0.0664
  921MOL0     C21504   1.772   5.379  12.111 -0.1809  0.2238  0.4936
  921MOL0     C21505   1.402   5.346  11.485  0.5581 -0.0568 -0.3032
  921MOL0     C21506   1.318   5.283  11.397 -0.4637 -0.0282 -0.3091
  921MOL0     H21507   1.136   4.879  11.097 -1.7950 -1.2249 -3.8843
  921MOL0     H21508   0.960   4.778  10.978 -1.2981  0.8711 -0.0188
  921MOL0     H21509   0.780   4.721  10.823 -2.1609 -1.8435  0.2971
  921MOL0     H21510   0.617   4.766  10.805  0.3117  0.9449 -0.7983
  921MOL0     H21511   0.740   4.634  11.060 -1.2333 -1.6987 -1.3666
  921MOL0     H21512   0.614   4.591  10.967  3.2353 -1.7896  0.2107
  921MOL0     H21513   0.631   4.835  11.154 -0.7522  2.1852 -1.5463
  921MOL0     H21514   0.553   4.683  11.189  2.1773  0.1768  0.9142
  921MOL0     H21515   0.476   4.890  10.973  1.0482 -0.2334  0.2913
  921MOL0     H21516   0.383   4.740  11.021  1.4196 -2.7843  3.4250
  921MOL0     H21517   0.457   4.959  11.205  0.6819 -0.8036 -0.3362
  921MOL0     H21518   0.375   4.817  11.247  0.2310 -1.2923 -0.4873
  921MOL0     H21519   0.264   5.061  11.086 -0.7199  0.6603  0.9004
  921MOL0     H21520   0.217   4.991  11.233  1.4645 -1.7998  0.0040
  921MOL0     H21521   0.175   4.872  10.957 -0.4219  0.9943 -0.7847
  921MOL0     H21522   0.148   4.782  11.112  2.1322  1.3287  1.0802
  921MOL0     H21523  -0.043   4.900  10.990  0.9560 -1.7797  0.9566
  921MOL0     H21524   0.043   5.053  11.008  0.0810  0.5521  1.4236
  921MOL0     H21525  -0.097   4.750  11.226  0.9138  0.5085  0.1927
  921MOL0     H21526  -0.284   4.739  11.441 -1.0418  0.4154  4.0081
  921MOL0     H21527  -0.394   4.872  11.406  1.1041  3.1495  1.3767
  921MOL0     H21528  -0.192   4.816  11.634 -1.1188 -3.5884 -1.5870
  921MOL0     H21529  -0.355   4.805  11.640  1.0413  0.4579  0.2219
  921MOL0     H21530  -0.286   5.016  11.760 -0.8905 -0.3380  0.3253
  921MOL0     H21531  -0.208   5.077  11.631  0.9796  1.1365  3.2369
  921MOL0     H21532  -0.463   5.098  11.514  0.4199  1.9447 -0.1253
  921MOL0     H21533  -0.391   5.202  11.638  1.6044 -0.9275  4.0736
  921MOL0     H21534  -0.618   5.319  11.669 -0.2862  0.7036  3.0185
  921MOL0     H21535  -0.844   5.365  11.623 -0.1746 -0.1315 -4.4993
  921MOL0     H21536  -1.283   5.234  11.392 -2.8287  0.8663 -0.7942
  921MOL0     H21537  -1.489   5.327  11.378 -0.1035  1.2472 -0.7934
  921MOL0     H21538  -1.676   5.370  11.456  1.1333 -0.0992  0.2134
  921MOL0     H21539  -1.712   5.508  11.364  0.4774 -1.9692 -0.4998
  921MOL0     H21540  -1.823   5.606  11.589  0.6326  0.8843 -0.5659
  921MOL0     H21541  -1.802   5.445  11.652  1.6191  0.9352 -0.1564
  921MOL0     H21542  -1.937   5.339  11.468 -1.3994  0.1966 -0.2221
  921MOL0     H21543  -1.932   5.490  11.370  2.0911 -0.9989 -0.0592
  921MOL0     H21544  -2.101   5.412  11.615 -1.6032 -0.0116 -1.6781
  921MOL0     H21545  -2.082   5.574  11.572  2.4575  0.8076 -1.3150
  921MOL0     H21546  -2.173   5.536  11.349  0.7795  2.0619  1.9450
  921MOL0     H21547  -2.275   5.495  11.491  0.6764 -0.6363  0.1842
  921MOL0     H21548  -2.192   5.250  11.458 -1.8456  1.5052  0.7423
  921MOL0     H21549  -2.128   5.293  11.310 -0.7922 -2.1911  0.5390
  921MOL0     H21550  -2.420   5.335  11.386 -0.0643 -2.3836  0.9279
  921MOL0     H21551  -2.359   5.367  11.225  0.9715  1.0332  0.3067
  921MOL0     H21552  -2.290   5.100  11.236  1.5134  1.1755  0.3747
  921MOL0     H21553  -2.471   5.161  11.240 -0.8869 -2.6908  2.0050
  921MOL0     H21554  -1.379   5.647  11.652  0.9911  1.5737 -1.4236
  921MOL0     H21555  -1.169   5.529  11.677 -1.2057  1.2510 -0.8439
  921MOL0     H21556  -0.947   4.954  11.600 -5.0437  3.8352 -2.2406
  921MOL0     H21557  -0.736   4.894  11.681 -0.2592 -0.2509 -2.2997
  921MOL0     H21558   0.745   5.144  10.974 -1.1870 -1.4289  1.0305
  921MOL0     H21559   0.937   5.262  11.084  0.0414 -0.2534  2.3300
  921MOL0     H21560   1.559   5.083  11.245  0.3955  1.5623 -1.9103
  921MOL0     H21561   1.693   5.227  11.366  0.7754  0.6282  1.6671
  921MOL0     H21562   1.509   5.511  11.682 -0.4559 -1.3116  0.1243
  921MOL0     H21563   1.671   5.517  11.723  1.1861 -1.1956  3.1697
  921MOL0     H21564   1.499   5.257  11.740 -2.7588  2.6556 -2.3505
  921MOL0     H21565   1.653   5.293  11.826  0.9087  1.3172 -0.7144
  921MOL0     H21566   1.448   5.296  11.975  2.0509  1.6229  2.4808
  921MOL0     H21567   1.376   5.424  11.884  0.5479  0.5386  1.9917
  921MOL0     H21568   1.590   5.579  11.951 -4.5468  1.6138 -2.0062
  921MOL0     H21569   1.489   5.506  12.084 -2.7177 -2.4880 -1.4536
  921MOL0     H21570   1.845   5.341  12.179  1.5328 -1.2585 -2.0145
  921MOL0     H21571   1.353   5.422  11.545  0.4826  0.4110 -0.9484
  921MOL0     H21572   1.213   5.310  11.396 -0.1975  1.3156  1.5177
  922MOL0     O21573   6.002   5.372   1.283 -0.3111  0.1881  0.2890
  922MOL0     C21574   6.078   5.288   1.227  0.4814  0.3227 -1.0273
  922MOL0     O21575   6.036   5.192   1.133 -0.2921 -0.2070  0.2938
  922MOL0     C21576   5.915   5.212   1.076  0.5045  0.0923 -0.9166
  922MOL0     C21577   5.831   5.104   1.091  0.3911 -0.3219 -0.3367
  922MOL0     C21578   5.705   5.113   1.038 -0.1965  0.0066 -0.3633
  922MOL0     C21579   5.660   5.222   0.957 -1.3646  0.2567  0.6592
  922MOL0     O21580   5.537   5.209   0.900  0.6138  0.0410 -0.2218
  922MOL0     C21581   5.423   5.175   0.989 -0.3315  0.7532  1.6714
  922MOL0     C21582   5.303   5.138   0.906  0.4446 -0.7706 -0.2789
  922MOL0     C21583   5.235   5.266   0.850 -0.9194 -0.9819 -0.2828
  922MOL0     C21584   5.112   5.254   0.762 -0.3712  0.0721  0.1206
  922MOL0     C21585   5.051   5.390   0.718 -0.0346  0.2543 -0.1845
  922MOL0     C21586   4.904   5.371   0.687  0.9283  0.4722 -0.6225
  922MOL0     C21587   4.847   5.500   0.631  0.9132  0.0035  0.5743
  922MOL0     C21588   4.820   5.617   0.733 -0.6212 -0.5644 -0.3253
  922MOL0     N21589   4.729   5.722   0.677 -0.8539  0.3195  0.4297
  922MOL0     C21590   4.599   5.703   0.647  0.2868 -0.5050 -0.3499
  922MOL0     C21591   4.555   5.830   0.634  0.8128 -0.2569  0.5167
  922MOL0     C21592   4.413   5.885   0.610  1.0456  0.3085 -0.3209
  922MOL0     C21593   4.335   5.870   0.739  0.3272 -0.6306 -0.3470
  922MOL0     C21594   4.239   5.978   0.757 -0.0790  0.9140  0.0401
  922MOL0     C21595   4.164   5.954   0.894  0.4963  0.0776 -0.3356
  922MOL0     O21596   4.081   6.056   0.943 -0.1727  0.1427 -0.4344
  922MOL0     C21597   3.968   6.081   0.869  0.4840  0.8275 -0.6810
  922MOL0     C21598   3.901   6.001   0.772 -0.1855 -0.3785 -0.3451
  922MOL0     C21599   3.792   6.048   0.696  0.0828 -1.3932  0.2587
  922MOL0     C21600   3.725   6.175   0.736 -0.1248  0.8493 -0.1947
  922MOL0     C21601   3.611   6.235   0.661  0.3004  0.2624  0.8371
  922MOL0     O21602   3.550   6.355   0.698 -0.4606 -0.3172 -0.3276
  922MOL0     C21603   3.435   6.379   0.634  0.3209  0.5287  0.0813
  922MOL0     C21604   3.321   6.403   0.720  0.0977  0.6081  0.0813
  922MOL0     C21605   3.197   6.434   0.666 -0.0010  0.6202  0.1343
  922MOL0     C21606   3.176   6.446   0.526  0.2614 -0.1048 -1.1300
  922MOL0     O21607   3.055   6.497   0.489  0.6721 -0.1014  0.5215
  922MOL0     C21608   3.011   6.472   0.357  1.0388 -0.4250 -1.0648
  922MOL0     C21609   2.988   6.620   0.299 -0.4843  0.4645 -0.0640
  922MOL0     C21610   2.928   6.616   0.162  0.4629 -0.6962  0.3888
  922MOL0     C21611   2.780   6.660   0.180 -0.1553  0.3852 -0.4096
  922MOL0     C21612   2.698   6.640   0.042  0.3908  0.0838  0.4442
  922MOL0     C21613   2.552   6.693   0.048 -0.2605  0.9999  0.0111
  922MOL0     C21614   2.505   6.705  -0.092  0.4611  0.2198  0.6851
  922MOL0     C21615   2.366   6.763  -0.105  0.8317 -0.4159  0.4105
  922MOL0    Cl21616   2.325   6.801  -0.273 -0.0264  0.5455  0.1321
  922MOL0     C21617   3.288   6.424   0.448 -0.1618 -0.2841 -0.5950
  922MOL0     C21618   3.417   6.390   0.489 -0.1584  0.2621 -0.3464
  922MOL0     O21619   3.578   6.173   0.559  0.3590 -0.1151 -0.3244
  922MOL0     C21620   3.784   6.240   0.843 -1.1858  0.2162 -0.0765
  922MOL0     C21621   3.904   6.198   0.908  0.9900 -0.0548 -0.3751
  922MOL0     N21622   4.662   5.918   0.647 -0.7758 -0.7573  0.0389
  922MOL0     N21623   4.765   5.849   0.685 -0.6302 -0.5384  0.1913
  922MOL0     C21624   5.761   5.324   0.935  0.9645  1.4336  0.6402
  922MOL0     C21625   5.884   5.312   0.995  0.0789 -0.4661  0.9434
  922MOL0     C21626   6.217   5.273   1.283  0.6355  0.4089  0.6923
  922MOL0     C21627   6.292   5.154   1.260 -0.6780  0.3777 -1.0849
  922MOL0     C21628   6.428   5.149   1.314  0.5455  0.4924 -0.1243
  922MOL0     C21629   6.481   5.251   1.389 -0.2685 -0.2318 -0.2335
  922MOL0     O21630   6.611   5.257   1.434 -0.1432 -0.4582 -0.3575
  922MOL0     C21631   6.698   5.150   1.413 -0.8605  0.0888  0.5961
  922MOL0     C21632   6.845   5.175   1.463 -0.0135 -0.1205 -0.7510
  922MOL0     C21633   6.920   5.047   1.476  0.0510  0.0973 -0.9859
  922MOL0     C21634   7.054   5.075   1.554 -0.6432  0.4001 -0.0945
  922MOL0     C21635   7.156   5.123   1.457 -0.0941  0.0060 -0.1659
  922MOL0     C21636   7.248   5.159   1.385 -0.1330  0.7385  0.3895
  922MOL0     C21637   6.405   5.367   1.403  0.6589 -0.1500 -0.2787
  922MOL0     C21638   6.278   5.378   1.341 -0.3650 -1.1707  0.3932
  922MOL0     H21639   5.852   5.017   1.152  0.3019  0.9689  1.6601
  922MOL0     H21640   5.644   5.029   1.069  1.3932 -0.6824  1.0934
  922MOL0     H21641   5.407   5.255   1.061 -0.1326  0.0870  2.4750
  922MOL0     H21642   5.446   5.085   1.046  4.0370  2.6157  3.2417
  922MOL0     H21643   5.229   5.088   0.971  1.0774 -1.0496  0.2420
  922MOL0     H21644   5.340   5.066   0.833  0.1014  0.4568 -1.7090
  922MOL0     H21645   5.313   5.311   0.789 -1.4713  1.3219  0.6122
  922MOL0     H21646   5.203   5.329   0.934 -1.4711 -0.6716 -0.7195
  922MOL0     H21647   5.131   5.194   0.673 -1.3781 -0.0765 -0.0137
  922MOL0     H21648   5.035   5.198   0.817 -0.8479 -1.3256 -1.8919
  922MOL0     H21649   5.108   5.421   0.630 -1.5792  0.7426 -1.0452
  922MOL0     H21650   5.049   5.470   0.794 -3.1448 -1.7316  2.0457
  922MOL0     H21651   4.842   5.342   0.772 -0.7852 -0.4482 -2.1100
  922MOL0     H21652   4.891   5.284   0.621  1.6531 -1.2843  1.4286
  922MOL0     H21653   4.908   5.530   0.546 -1.3188 -1.3310 -1.6161
  922MOL0     H21654   4.752   5.477   0.582  1.6969 -2.1386 -0.0538
  922MOL0     H21655   4.917   5.661   0.758 -1.0447  1.7698 -2.4287
  922MOL0     H21656   4.764   5.589   0.823 -0.0970 -1.7298 -0.3461
  922MOL0     H21657   4.537   5.615   0.660  2.2712 -1.8041  1.0180
  922MOL0     H21658   4.363   5.830   0.530 -0.9583  0.2421  0.9213
  922MOL0     H21659   4.422   5.991   0.586 -0.4917  0.7708  0.9333
  922MOL0     H21660   4.397   5.871   0.829  2.9758 -1.4689 -2.0235
  922MOL0     H21661   4.282   5.774   0.747  0.3109 -0.5440  0.8112
  922MOL0     H21662   4.290   6.073   0.772  0.1091  1.3091 -2.5890
  922MOL0     H21663   4.170   6.001   0.675  2.6684  3.6487 -1.7000
  922MOL0     H21664   4.240   5.946   0.972  0.6738  3.3858 -0.0318
  922MOL0     H21665   4.108   5.860   0.891  2.2004 -0.9672 -2.6798
  922MOL0     H21666   3.957   5.912   0.746  2.5809  0.8130  1.1058
  922MOL0     H21667   3.760   5.996   0.606  1.0137  2.1800 -2.3456
  922MOL0     H21668   3.334   6.384   0.826  0.0593  3.2522  0.6264
  922MOL0     H21669   3.119   6.474   0.731 -1.0200  0.1988 -0.7983
  922MOL0     H21670   2.921   6.411   0.370  2.0368 -1.4862  1.8600
  922MOL0     H21671   3.079   6.402   0.308  0.0729 -0.8266 -1.8633
  922MOL0     H21672   3.080   6.678   0.289  0.1924 -0.5055  0.3730
  922MOL0     H21673   2.930   6.671   0.376 -0.8805 -0.8248  0.5327
  922MOL0     H21674   2.944   6.515   0.123  1.9849 -0.7723  1.1462
  922MOL0     H21675   2.985   6.684   0.100  1.0080 -2.0498 -0.6487
  922MOL0     H21676   2.716   6.623   0.261  1.0789  2.9835  1.9178
  922MOL0     H21677   2.799   6.767   0.188  3.5562 -0.0999 -0.8923
  922MOL0     H21678   2.700   6.533   0.022  0.9091  0.2238 -0.2791
  922MOL0     H21679   2.743   6.691  -0.044  0.3504 -2.2178 -1.0317
  922MOL0     H21680   2.559   6.793   0.092  1.7536  0.6514  0.5742
  922MOL0     H21681   2.482   6.627   0.100  1.9799 -0.8099  0.8397
  922MOL0     H21682   2.571   6.769  -0.151 -0.9446 -0.3822 -1.6756
  922MOL0     H21683   2.501   6.606  -0.140  1.0488  1.9382 -3.2667
  922MOL0     H21684   2.353   6.855  -0.048 -2.7421  0.5678 -1.6727
  922MOL0     H21685   2.296   6.693  -0.059  0.8053  0.8465  2.4093
  922MOL0     H21686   3.279   6.428   0.340  0.4796  0.9967 -0.6292
  922MOL0     H21687   3.489   6.380   0.409  0.4240 -1.1883  0.3124
  922MOL0     H21688   3.740   6.329   0.888  0.2180  0.3701  1.0861
  922MOL0     H21689   3.943   6.262   0.986 -2.1727  2.6599 -0.7491
  922MOL0     H21690   5.726   5.398   0.864  0.5081 -1.0623 -1.9184
  922MOL0     H21691   5.963   5.379   0.961  2.6612 -4.1443 -1.1032
  922MOL0     H21692   6.251   5.066   1.212  0.1523  0.7860 -2.6106
  922MOL0     H21693   6.478   5.054   1.294  0.6961 -0.0556  2.4819
  922MOL0     H21694   6.697   5.130   1.305  1.9404  0.3782  0.4496
  922MOL0     H21695   6.672   5.057   1.464  0.8446 -1.5891 -1.4069
  922MOL0     H21696   6.907   5.239   1.400  0.5780 -0.6325 -0.6978
  922MOL0     H21697   6.832   5.217   1.564 -2.9716 -0.7309 -0.7875
  922MOL0     H21698   6.948   5.000   1.381  6.8126 -0.7886  0.9521
  922MOL0     H21699   6.867   4.968   1.530 -1.8252 -0.5376 -3.5491
  922MOL0     H21700   7.062   5.148   1.635  2.2329  0.1618 -0.0422
  922MOL0     H21701   7.090   4.976   1.582 -0.4776 -0.2208 -2.2902
  922MOL0     H21702   7.338   5.175   1.329 -0.9967 -0.7793 -1.5731
  922MOL0     H21703   6.453   5.447   1.457  0.4943 -0.1611 -0.1148
  922MOL0     H21704   6.233   5.475   1.358  0.7898 -0.1557 -1.9460
  923MOL0     O21705   3.179   6.264   0.091 -0.3686  0.7689  0.3210
  923MOL0     C21706   3.262   6.298   0.002 -0.0088  0.3492  0.5074
  923MOL0     O21707   3.239   6.336  -0.127 -0.4819 -0.0446  0.0743
  923MOL0     C21708   3.112   6.373  -0.164  0.2401  0.0342 -0.3526
  923MOL0     C21709   3.070   6.500  -0.175  0.4678 -0.0631 -0.5732
  923MOL0     C21710   2.937   6.526  -0.221 -0.9729 -0.7800 -0.3664
  923MOL0     C21711   2.846   6.433  -0.266  0.3000  0.3262 -0.0066
  923MOL0     O21712   2.730   6.478  -0.324  0.0157  0.2933  0.1965
  923MOL0     C21713   2.612   6.397  -0.318 -0.1163 -0.4991 -0.2929
  923MOL0     C21714   2.508   6.480  -0.388  0.1997 -0.0605 -0.7561
  923MOL0     C21715   2.367   6.418  -0.376 -0.2145 -0.3023  0.1605
  923MOL0     C21716   2.369   6.282  -0.443 -0.4722 -0.5442 -0.8446
  923MOL0     C21717   2.232   6.213  -0.434 -0.0814 -0.6966 -0.0278
  923MOL0     C21718   2.230   6.070  -0.484 -0.2286  0.9963  0.3341
  923MOL0     C21719   2.089   6.016  -0.452 -0.2479 -0.3696 -0.1762
  923MOL0     C21720   1.977   6.084  -0.535 -0.0397 -0.2257  0.6218
  923MOL0     N21721   1.852   6.014  -0.503 -0.7544  0.1687  0.2897
  923MOL0     C21722   1.729   6.082  -0.469  0.7042  0.6902  0.4264
  923MOL0     C21723   1.637   5.985  -0.443 -0.3358  0.0805 -0.3896
  923MOL0     C21724   1.493   6.008  -0.398  0.0997  0.4572  0.3420
  923MOL0     C21725   1.393   5.977  -0.509  0.1573  0.0547  0.4935
  923MOL0     C21726   1.416   6.023  -0.654  0.3420 -0.0068 -0.3648
  923MOL0     C21727   1.302   5.988  -0.751  0.1402 -0.7137  0.1306
  923MOL0     O21728   1.264   5.851  -0.727 -0.1882  0.1209  0.8228
  923MOL0     C21729   1.170   5.793  -0.811  0.2334  0.1797  0.2953
  923MOL0     C21730   1.145   5.659  -0.799 -0.0487  0.4817 -0.2764
  923MOL0     C21731   1.066   5.592  -0.895 -1.1642  0.2296 -0.8005
  923MOL0     C21732   0.993   5.665  -0.989 -0.2048  0.4693  0.1394
  923MOL0     C21733   0.886   5.597  -1.067  0.0956  0.6558 -0.2040
  923MOL0     O21734   0.881   5.465  -1.031  0.8793 -0.1191  0.2688
  923MOL0     C21735   0.752   5.415  -1.049 -0.4943 -0.0798 -0.2201
  923MOL0     C21736   0.725   5.348  -1.176 -0.2650  0.4535 -0.7858
  923MOL0     C21737   0.594   5.308  -1.200 -0.1056 -0.3172  0.2671
  923MOL0     C21738   0.488   5.321  -1.105 -0.4726 -0.3165 -0.4509
  923MOL0     O21739   0.358   5.299  -1.126  0.1595 -0.3984  0.4791
  923MOL0     C21740   0.307   5.270  -1.255 -0.2845 -0.3139 -0.6141
  923MOL0     C21741   0.156   5.271  -1.263  0.7020  0.0557  0.2495
  923MOL0     C21742   0.092   5.310  -1.131 -0.4612  0.5084 -0.5330
  923MOL0     C21743  -0.063   5.322  -1.140 -0.3570 -0.6624  1.2109
  923MOL0     C21744  -0.131   5.356  -1.004 -0.0146 -0.3426  0.8843
  923MOL0     C21745  -0.263   5.427  -0.994  0.4875  0.1876 -0.1538
  923MOL0     C21746  -0.361   5.354  -1.095 -0.5179  0.3256  0.1315
  923MOL0     C21747  -0.495   5.419  -1.104  0.6657  0.1303 -0.1438
  923MOL0    Cl21748  -0.602   5.334  -0.991  0.3899 -0.3154  0.2409
  923MOL0     C21749   0.527   5.372  -0.981  0.2756  0.7010 -0.8866
  923MOL0     C21750   0.658   5.416  -0.955  0.0407 -0.3694  0.2583
  923MOL0     O21751   0.825   5.651  -1.156  0.2988 -0.0169 -0.3342
  923MOL0     C21752   1.001   5.808  -0.989  0.3719  0.6016  0.6117
  923MOL0     C21753   1.090   5.872  -0.898  0.5046 -0.3462  0.0439
  923MOL0     N21754   1.694   5.866  -0.472  0.1655  0.6589  0.3641
  923MOL0     N21755   1.822   5.875  -0.499 -0.0636  0.2937  0.3508
  923MOL0     C21756   2.892   6.301  -0.246 -0.1135  0.0829  0.4828
  923MOL0     C21757   3.020   6.275  -0.189  0.5871  0.5211  0.5961
  923MOL0     C21758   3.405   6.270   0.043  1.0137 -0.0381  0.3917
  923MOL0     C21759   3.526   6.310  -0.031  0.9706 -1.0583  0.4230
  923MOL0     C21760   3.658   6.285   0.014 -0.7653 -0.3118 -0.2711
  923MOL0     C21761   3.679   6.217   0.134 -0.4273  0.5294 -0.0379
  923MOL0     O21762   3.807   6.218   0.175 -0.9232  0.0677 -0.7111
  923MOL0     C21763   3.842   6.241   0.311  0.9417  0.5298  0.0521
  923MOL0     C21764   3.993   6.259   0.305 -0.3517 -0.0706 -0.1789
  923MOL0     C21765   4.055   6.234   0.440  0.5355 -0.1612 -0.0511
  923MOL0     C21766   4.211   6.212   0.435  0.1345  0.1411  0.0997
  923MOL0     C21767   4.278   6.320   0.367  0.0534 -1.0211 -0.4936
  923MOL0     C21768   4.340   6.398   0.305 -1.2517  0.4868  0.1917
  923MOL0     C21769   3.566   6.171   0.208  0.2779 -0.7092 -0.2532
  923MOL0     C21770   3.431   6.196   0.161 -0.1401 -0.2626  0.0600
  923MOL0     H21771   3.126   6.586  -0.139 -2.2689  2.6249 -2.2699
  923MOL0     H21772   2.913   6.632  -0.229 -0.2612 -0.7842 -4.0712
  923MOL0     H21773   2.583   6.373  -0.216  0.5585 -0.3663 -0.0645
  923MOL0     H21774   2.627   6.307  -0.379  2.3249  0.9325 -1.9984
  923MOL0     H21775   2.536   6.485  -0.494 -1.0581  0.9371 -1.0681
  923MOL0     H21776   2.512   6.578  -0.341 -0.7763 -1.0802  1.6182
  923MOL0     H21777   2.290   6.484  -0.417  1.5170  2.4987  1.1241
  923MOL0     H21778   2.340   6.398  -0.272  2.0380  0.6077  1.0008
  923MOL0     H21779   2.411   6.298  -0.543 -0.7721 -1.2962 -1.0991
  923MOL0     H21780   2.433   6.221  -0.379  0.3337  1.9408  0.8700
  923MOL0     H21781   2.165   6.273  -0.498 -2.2518  1.7756  4.1357
  923MOL0     H21782   2.201   6.209  -0.329  1.5023 -0.0178  0.4868
  923MOL0     H21783   2.306   6.018  -0.425  0.4582  1.2972 -0.2670
  923MOL0     H21784   2.253   6.065  -0.591 -0.5344  4.8138 -0.0544
  923MOL0     H21785   2.100   5.911  -0.480  0.4788 -0.2651 -0.3111
  923MOL0     H21786   2.062   6.012  -0.346  0.1517 -1.0352 -0.0947
  923MOL0     H21787   1.994   6.083  -0.643 -1.0769  0.5809  0.4309
  923MOL0     H21788   1.972   6.191  -0.512 -1.5503  0.0317 -0.7018
  923MOL0     H21789   1.707   6.188  -0.478 -0.2204  0.4164 -0.7070
  923MOL0     H21790   1.486   6.114  -0.371 -0.9410  0.9066 -1.5311
  923MOL0     H21791   1.486   5.941  -0.312 -1.6042 -1.9335 -1.5164
  923MOL0     H21792   1.301   6.031  -0.485 -0.8899 -0.6643 -1.6499
  923MOL0     H21793   1.383   5.869  -0.499  1.2248 -0.2981 -1.6427
  923MOL0     H21794   1.412   6.132  -0.662  2.3835  0.0172 -1.7897
  923MOL0     H21795   1.511   5.987  -0.695 -1.4078 -2.7734 -2.3677
  923MOL0     H21796   1.321   6.005  -0.858  1.0852  1.3060  0.5702
  923MOL0     H21797   1.220   6.054  -0.723  0.6227 -0.0888  0.0872
  923MOL0     H21798   1.198   5.598  -0.727 -2.4970  1.0187  2.1346
  923MOL0     H21799   1.057   5.484  -0.901 -0.0703  0.0814 -0.0429
  923MOL0     H21800   0.806   5.343  -1.247 -1.0259 -0.2467 -1.6254
  923MOL0     H21801   0.585   5.264  -1.299 -2.8975 -0.4254  0.4803
  923MOL0     H21802   0.347   5.170  -1.275  3.1540  0.7240  0.4001
  923MOL0     H21803   0.330   5.343  -1.333 -1.3907  1.0209  0.2553
  923MOL0     H21804   0.113   5.172  -1.281  1.9559 -0.4519 -0.0123
  923MOL0     H21805   0.120   5.343  -1.337 -3.4886 -2.2318 -0.2939
  923MOL0     H21806   0.136   5.408  -1.110 -0.1572  0.2248  0.1810
  923MOL0     H21807   0.106   5.232  -1.056 -3.4720  0.5890  0.2108
  923MOL0     H21808  -0.090   5.392  -1.220  2.0912  1.3687  2.0095
  923MOL0     H21809  -0.092   5.224  -1.178 -0.9803 -0.1098  0.2254
  923MOL0     H21810  -0.061   5.421  -0.951 -0.5134  1.7783 -0.9050
  923MOL0     H21811  -0.127   5.265  -0.944 -0.1857 -1.6475 -1.0125
  923MOL0     H21812  -0.264   5.533  -1.022 -0.4425  0.2890  0.2282
  923MOL0     H21813  -0.305   5.426  -0.893 -0.7217  0.2289 -0.6391
  923MOL0     H21814  -0.321   5.358  -1.196 -1.1173  0.5871 -0.0980
  923MOL0     H21815  -0.375   5.248  -1.071  0.3427 -0.4654 -2.5237
  923MOL0     H21816  -0.537   5.427  -1.205  4.3636 -1.3163 -2.0225
  923MOL0     H21817  -0.491   5.524  -1.075 -2.4859  0.5749 -0.9940
  923MOL0     H21818   0.447   5.375  -0.907  1.2621 -3.3031  0.6058
  923MOL0     H21819   0.679   5.460  -0.858  0.2276  0.5309 -0.1811
  923MOL0     H21820   0.953   5.860  -1.071  3.2230  1.8747 -0.3600
  923MOL0     H21821   1.101   5.979  -0.910  3.1019 -0.7570 -2.1918
  923MOL0     H21822   2.835   6.212  -0.272 -0.3373  0.5425 -0.6007
  923MOL0     H21823   3.052   6.173  -0.172 -0.2669  0.6035  3.2286
  923MOL0     H21824   3.515   6.375  -0.117 -1.2282 -0.9439  0.7498
  923MOL0     H21825   3.743   6.322  -0.042 -0.5955 -0.9963 -0.4737
  923MOL0     H21826   3.807   6.156   0.371 -2.0888  1.6436  0.0558
  923MOL0     H21827   3.788   6.328   0.349 -2.0402 -0.4826 -1.5547
  923MOL0     H21828   4.040   6.188   0.237 -0.2213 -1.6114  1.4282
  923MOL0     H21829   4.019   6.363   0.283 -2.1372  1.3334  3.4076
  923MOL0     H21830   4.011   6.144   0.484 -1.3632  0.4524 -0.6338
  923MOL0     H21831   4.031   6.312   0.512 -3.1622 -1.7016  0.5699
  923MOL0     H21832   4.253   6.195   0.534 -2.6742  0.4743  1.4760
  923MOL0     H21833   4.244   6.120   0.387  2.4449  0.6202  0.6472
  923MOL0     H21834   4.406   6.463   0.250 -1.3449  0.5167  0.1172
  923MOL0     H21835   3.579   6.139   0.311  0.6726  1.3623  0.3910
  923MOL0     H21836   3.342   6.176   0.221 -0.7744 -0.9620 -1.0700
  924MOL0     O21837   7.060   1.397  10.542 -0.1678  0.3103  0.4225
  924MOL0     C21838   7.034   1.510  10.579 -0.1416  0.5438  0.4280
  924MOL0     O21839   6.907   1.550  10.618 -0.6133 -0.0999  0.1203
  924MOL0     C21840   6.818   1.447  10.623  0.4715  0.8189 -1.0187
  924MOL0     C21841   6.727   1.439  10.514  0.5386 -0.1121 -0.1511
  924MOL0     C21842   6.648   1.315  10.508  0.4885  0.2487 -0.0438
  924MOL0     C21843   6.646   1.214  10.599 -0.6030 -0.0304 -0.1567
  924MOL0     O21844   6.576   1.098  10.588 -0.3828 -0.1456  0.3481
  924MOL0     C21845   6.580   1.037  10.464  0.2916 -0.2876  0.3494
  924MOL0     C21846   6.507   0.903  10.461 -0.2567 -0.2262 -0.0006
  924MOL0     C21847   6.350   0.920  10.469  0.1341 -0.0808  0.7852
  924MOL0     C21848   6.282   0.785  10.439  0.3042  0.0457 -0.0201
  924MOL0     C21849   6.156   0.759  10.505  0.1258  0.3152 -0.0979
  924MOL0     C21850   6.036   0.854  10.459 -0.1787 -1.0724 -0.4208
  924MOL0     C21851   5.981   0.838  10.313  0.0307 -0.3243  0.0426
  924MOL0     C21852   5.914   0.711  10.282 -0.5460 -0.5303 -0.5570
  924MOL0     N21853   5.792   0.693  10.350  0.2088 -0.1603  0.2960
  924MOL0     C21854   5.774   0.608  10.451 -0.5806 -0.5676 -1.0913
  924MOL0     C21855   5.642   0.624  10.489 -1.1512  0.2610  0.1443
  924MOL0     C21856   5.591   0.547  10.606  0.4828  0.3391 -0.0403
  924MOL0     C21857   5.645   0.582  10.750 -0.1749  0.1559  0.8437
  924MOL0     C21858   5.599   0.720  10.802 -0.5184 -0.6708  0.0913
  924MOL0     C21859   5.593   0.712  10.963 -0.9133 -0.1573 -0.1437
  924MOL0     O21860   5.476   0.627  10.992  0.6038 -0.4970 -0.3782
  924MOL0     C21861   5.353   0.691  11.012  0.0181  0.8696 -0.1259
  924MOL0     C21862   5.317   0.828  11.003 -0.0371  0.4645  0.2987
  924MOL0     C21863   5.188   0.862  11.030 -0.3288 -1.0846 -0.0653
  924MOL0     C21864   5.085   0.761  11.041  0.7617 -0.4310  0.2405
  924MOL0     C21865   4.947   0.808  11.063 -1.0669  0.2404  0.8366
  924MOL0     O21866   4.853   0.719  11.078 -0.0751 -0.0262 -0.9087
  924MOL0     C21867   4.715   0.747  11.074 -0.7653  0.1796 -0.4438
  924MOL0     C21868   4.638   0.655  11.148  0.2421  0.1467 -0.3286
  924MOL0     C21869   4.498   0.677  11.168  0.3598 -0.2495 -1.1011
  924MOL0     C21870   4.437   0.788  11.114  0.6686  0.0699 -0.1574
  924MOL0     O21871   4.301   0.812  11.118 -0.2975 -0.1268  0.5634
  924MOL0     C21872   4.222   0.744  11.220 -0.0374 -0.5965  1.4580
  924MOL0     C21873   4.092   0.821  11.225 -0.3135  0.3681  0.0240
  924MOL0     C21874   4.019   0.832  11.363 -0.2009 -0.6413 -0.1683
  924MOL0     C21875   3.885   0.888  11.336 -0.3882  0.4838 -0.4871
  924MOL0     C21876   3.797   0.886  11.461  1.0543  0.7064 -0.4398
  924MOL0     C21877   3.656   0.948  11.420  0.5484  0.2266  0.3319
  924MOL0     C21878   3.564   0.933  11.543 -0.3217  0.2452  0.0555
  924MOL0     C21879   3.501   0.796  11.564  0.5969 -0.1390  0.0338
  924MOL0    Cl21880   3.378   0.814  11.688 -0.0025  0.2826 -0.3183
  924MOL0     C21881   4.513   0.877  11.043 -0.0904 -0.3584  0.9461
  924MOL0     C21882   4.650   0.862  11.017 -0.4787  0.9263 -0.0889
  924MOL0     O21883   4.931   0.930  11.071  0.2871 -0.2097  0.4353
  924MOL0     C21884   5.118   0.625  11.033 -0.5915 -0.5337 -0.3071
  924MOL0     C21885   5.248   0.592  11.019 -0.1324 -0.8787 -0.2057
  924MOL0     N21886   5.582   0.716  10.407  0.3285 -0.3235 -0.9387
  924MOL0     N21887   5.671   0.751  10.315  0.3097 -0.0507  0.1824
  924MOL0     C21888   6.724   1.239  10.712  0.0512 -1.4487 -0.3556
  924MOL0     C21889   6.810   1.348  10.726 -0.7625  0.8838 -0.3821
  924MOL0     C21890   7.133   1.621  10.570 -0.0833  0.2265  0.7539
  924MOL0     C21891   7.113   1.733  10.636 -0.0405 -0.5291 -0.4263
  924MOL0     C21892   7.207   1.833  10.646  0.2716  0.6625 -0.0948
  924MOL0     C21893   7.328   1.822  10.576 -0.1499  0.9883  0.1296
  924MOL0     O21894   7.418   1.925  10.556 -0.9092  0.1029  0.2279
  924MOL0     C21895   7.393   2.064  10.591  0.0365 -0.3362  0.0295
  924MOL0     C21896   7.500   2.160  10.527 -0.5880  0.2588 -0.0124
  924MOL0     C21897   7.638   2.122  10.586 -0.2412 -0.7175 -0.1518
  924MOL0     C21898   7.745   2.228  10.536  0.1860  1.0836  1.2072
  924MOL0     C21899   7.773   2.204  10.393 -0.0604  0.0864 -0.2647
  924MOL0     C21900   7.821   2.198  10.282 -0.1938 -0.4151 -0.1136
  924MOL0     C21901   7.343   1.707  10.497  0.0930 -0.2982  0.3028
  924MOL0     C21902   7.250   1.607  10.498 -0.9107 -0.3209  0.2671
  924MOL0     H21903   6.726   1.515  10.436 -1.2989  1.7370  1.5605
  924MOL0     H21904   6.588   1.310  10.418  1.7317  1.0934 -0.9598
  924MOL0     H21905   6.685   1.015  10.445 -0.1892 -3.8990  1.0171
  924MOL0     H21906   6.545   1.112  10.392  3.4576  0.1895 -0.8629
  924MOL0     H21907   6.548   0.849  10.546  1.8042  2.3678  0.8039
  924MOL0     H21908   6.543   0.868  10.363 -1.6762  1.0517 -1.0385
  924MOL0     H21909   6.312   0.991  10.395 -0.8957 -1.1988  0.2016
  924MOL0     H21910   6.315   0.954  10.567 -3.5008  5.7824 -1.9678
  924MOL0     H21911   6.267   0.788  10.330  0.8169  4.8059 -0.1712
  924MOL0     H21912   6.344   0.702  10.472  2.9270  2.2305  0.8934
  924MOL0     H21913   6.164   0.774  10.613  2.5791  1.3974 -0.3700
  924MOL0     H21914   6.128   0.656  10.481  0.4060 -0.0481  1.0793
  924MOL0     H21915   6.073   0.956  10.473 -0.7491 -0.5758 -2.2043
  924MOL0     H21916   5.945   0.848  10.521 -0.6694 -0.5309 -1.0653
  924MOL0     H21917   5.905   0.915  10.302 -0.6595 -0.8272  1.2077
  924MOL0     H21918   6.065   0.857  10.244 -0.1412 -1.7614 -0.6142
  924MOL0     H21919   5.980   0.628  10.310 -0.3791  0.1838  1.3135
  924MOL0     H21920   5.892   0.712  10.175 -0.3215  0.5827 -0.6049
  924MOL0     H21921   5.853   0.542  10.486 -1.5078 -2.9882 -3.2654
  924MOL0     H21922   5.631   0.446  10.592 -0.1172  0.1853 -0.7398
  924MOL0     H21923   5.482   0.543  10.609  0.1454 -3.8254 -4.6360
  924MOL0     H21924   5.753   0.593  10.738 -0.4083  0.1190 -1.9717
  924MOL0     H21925   5.621   0.503  10.822  2.5654  0.2382  1.9592
  924MOL0     H21926   5.668   0.800  10.772  0.8870 -1.0475  2.1192
  924MOL0     H21927   5.497   0.741  10.770 -0.8423 -0.7563  1.0503
  924MOL0     H21928   5.590   0.805  11.020 -2.0881 -0.0481 -0.3534
  924MOL0     H21929   5.683   0.657  10.993  0.0578  2.4041  2.0126
  924MOL0     H21930   5.397   0.901  11.000 -0.9796  1.8811  4.0014
  924MOL0     H21931   5.165   0.968  11.031  0.7021 -0.8483 -0.4873
  924MOL0     H21932   4.685   0.568  11.191  1.1187  0.2910 -0.9785
  924MOL0     H21933   4.441   0.604  11.225  2.2055 -0.6205  0.3398
  924MOL0     H21934   4.270   0.750  11.318  0.0502 -0.1926  1.3921
  924MOL0     H21935   4.207   0.641  11.186 -0.7541  0.0353 -0.2856
  924MOL0     H21936   4.018   0.776  11.157 -2.3245  2.5922  0.5839
  924MOL0     H21937   4.107   0.917  11.175  0.9368 -0.4734 -1.3025
  924MOL0     H21938   4.074   0.896  11.433 -0.2058  0.3120 -1.0148
  924MOL0     H21939   4.020   0.730  11.404  0.7799 -0.9313 -0.8655
  924MOL0     H21940   3.892   0.989  11.293  2.1495 -0.5990 -2.9175
  924MOL0     H21941   3.832   0.825  11.265 -1.6321 -0.1838  0.9924
  924MOL0     H21942   3.826   0.934  11.555 -0.0728 -0.3946  0.5159
  924MOL0     H21943   3.775   0.779  11.473 -1.1099  0.9194 -1.9289
  924MOL0     H21944   3.610   0.902  11.332  0.3730 -0.9209  0.9979
  924MOL0     H21945   3.668   1.056  11.406 -0.4847  0.6672  2.4517
  924MOL0     H21946   3.623   0.943  11.634  1.0581 -1.7933 -0.5391
  924MOL0     H21947   3.479   1.002  11.530 -0.9376 -0.6184 -0.6547
  924MOL0     H21948   3.574   0.719  11.591  0.3716  0.3237  2.1884
  924MOL0     H21949   3.443   0.756  11.481 -0.7904 -1.9010  1.7627
  924MOL0     H21950   4.480   0.976  11.014  1.0594 -0.2296 -0.0044
  924MOL0     H21951   4.699   0.946  10.969  2.7218  0.3808  1.9270
  924MOL0     H21952   5.050   0.545  11.058 -0.7534 -0.5368 -0.7434
  924MOL0     H21953   5.274   0.487  11.030  1.6357 -0.7465 -2.4293
  924MOL0     H21954   6.729   1.165  10.791  0.1783  0.1803  1.2187
  924MOL0     H21955   6.878   1.365  10.809 -0.8630  1.3472 -0.3907
  924MOL0     H21956   7.027   1.749  10.700  0.0133 -0.5058 -0.3587
  924MOL0     H21957   7.181   1.926  10.695  0.3785  0.6664 -0.0435
  924MOL0     H21958   7.401   2.075  10.699 -2.3279  1.6060  0.0902
  924MOL0     H21959   7.294   2.098  10.558 -1.0958 -2.8374  0.6640
  924MOL0     H21960   7.501   2.128  10.422  2.9914 -0.9356  0.2271
  924MOL0     H21961   7.461   2.262  10.534 -1.8871 -0.2912  1.1229
  924MOL0     H21962   7.661   2.022  10.548  1.9737  0.7598 -3.0715
  924MOL0     H21963   7.641   2.123  10.695  2.3919 -1.6279 -0.1392
  924MOL0     H21964   7.704   2.328  10.556 -0.1304  0.9795  1.0934
  924MOL0     H21965   7.835   2.209  10.594  1.3770  1.6719 -0.3737
  924MOL0     H21966   7.865   2.188  10.185  0.1430 -3.2020  0.2480
  924MOL0     H21967   7.429   1.699  10.431 -1.2869 -1.4912 -1.4314
  924MOL0     H21968   7.257   1.521  10.431 -0.0919 -0.3513  0.3793
  925MOL0     O21969   1.482   1.944   2.200  0.2087  0.4396  0.0079
  925MOL0     C21970   1.520   1.855   2.273  0.8247  0.9010 -0.2249
  925MOL0     O21971   1.445   1.802   2.374 -0.3580 -0.0459 -0.6805
  925MOL0     C21972   1.331   1.867   2.407  0.3019 -1.3425  0.4339
  925MOL0     C21973   1.229   1.879   2.315  0.1018 -0.2116  0.0066
  925MOL0     C21974   1.116   1.951   2.350 -0.2956 -0.2124 -0.1916
  925MOL0     C21975   1.099   1.994   2.477  0.2217 -0.6952 -0.0622
  925MOL0     O21976   0.978   2.064   2.492 -0.1910 -1.1069 -0.2846
  925MOL0     C21977   0.936   2.090   2.624 -0.2444  0.7778  0.3024
  925MOL0     C21978   0.976   2.226   2.672 -0.1568  0.8850 -0.0857
  925MOL0     C21979   0.934   2.249   2.814  0.1187  0.3358 -0.2529
  925MOL0     C21980   0.957   2.396   2.855  0.3763 -0.0014  0.3639
  925MOL0     C21981   0.843   2.497   2.826  1.2268 -0.1307 -1.1389
  925MOL0     C21982   0.890   2.643   2.834  0.0052 -0.0869 -0.4444
  925MOL0     C21983   0.764   2.731   2.837  0.2941  0.2576  0.1409
  925MOL0     C21984   0.803   2.869   2.851  0.1202 -0.0059 -0.1886
  925MOL0     N21985   0.686   2.952   2.871 -0.6052  0.0027 -0.2636
  925MOL0     C21986   0.650   3.019   2.985 -0.0932  0.3954  0.4251
  925MOL0     C21987   0.558   3.102   2.944 -0.1837  0.3127 -0.7084
  925MOL0     C21988   0.502   3.213   3.018 -0.5622  0.2356  0.1943
  925MOL0     C21989   0.434   3.319   2.933 -0.3365 -0.0016  0.2045
  925MOL0     C21990   0.419   3.456   3.000 -0.3111 -0.3580  0.3929
  925MOL0     C21991   0.360   3.572   2.917  0.8975  0.2830 -0.8889
  925MOL0     O21992   0.244   3.519   2.852 -0.4558 -0.1398  0.7339
  925MOL0     C21993   0.130   3.526   2.925 -0.1014 -0.2532 -0.0389
  925MOL0     C21994   0.069   3.404   2.962 -0.5924  0.3148 -0.3844
  925MOL0     C21995  -0.046   3.407   3.036 -0.3219  0.3667 -0.8964
  925MOL0     C21996  -0.113   3.533   3.072  0.4403  1.4174  0.1428
  925MOL0     C21997  -0.244   3.535   3.152 -0.0363 -0.0307  0.4905
  925MOL0     O21998  -0.311   3.656   3.173  0.8506  0.3775 -0.1598
  925MOL0     C21999  -0.427   3.677   3.240  0.2399  0.8753  0.9527
  925MOL0     C22000  -0.532   3.576   3.244  0.5735  0.7990 -0.6417
  925MOL0     C22001  -0.650   3.596   3.322  0.4208  0.3940 -0.7827
  925MOL0     C22002  -0.661   3.717   3.397 -0.2010 -0.5744  0.5828
  925MOL0     O22003  -0.780   3.730   3.460  0.0587  0.0808  0.3992
  925MOL0     C22004  -0.827   3.869   3.458  0.1178 -0.0622 -0.9006
  925MOL0     C22005  -0.979   3.868   3.468  0.2134  0.0288 -0.2490
  925MOL0     C22006  -1.057   3.847   3.337  0.4930  0.0548  0.8247
  925MOL0     C22007  -1.206   3.866   3.349  0.0246  0.8561  0.1129
  925MOL0     C22008  -1.271   3.912   3.224 -0.3089  1.2163  0.8997
  925MOL0     C22009  -1.257   3.800   3.115 -0.1746 -0.6252  0.4171
  925MOL0     C22010  -1.359   3.816   3.004  0.0680 -0.0799  0.3087
  925MOL0     C22011  -1.331   3.707   2.898  0.0782  0.3994 -0.9917
  925MOL0    Cl22012  -1.204   3.758   2.794  0.2202  0.2733  0.1447
  925MOL0     C22013  -0.557   3.815   3.399  0.5080  0.2561  0.8893
  925MOL0     C22014  -0.444   3.796   3.316  0.0281 -1.3445 -0.5628
  925MOL0     O22015  -0.274   3.432   3.210 -0.0978  0.3088  0.4560
  925MOL0     C22016  -0.046   3.648   3.034 -0.1757 -0.0845  0.4343
  925MOL0     C22017   0.067   3.647   2.954 -1.0213  0.0380  0.8472
  925MOL0     N22018   0.532   3.069   2.816  0.0895  0.4755  0.3565
  925MOL0     N22019   0.610   2.983   2.766  0.3146 -0.2748 -0.2300
  925MOL0     C22020   1.197   1.986   2.575  0.4246 -1.0531  0.1561
  925MOL0     C22021   1.308   1.905   2.540  0.1726 -0.6612  0.4604
  925MOL0     C22022   1.641   1.787   2.234  1.1973 -0.1560  0.4979
  925MOL0     C22023   1.663   1.655   2.279  0.0658 -0.4245 -0.2328
  925MOL0     C22024   1.777   1.585   2.250 -0.6558  0.5656  0.1837
  925MOL0     C22025   1.882   1.649   2.178 -0.0003 -0.1344  0.0159
  925MOL0     O22026   1.992   1.573   2.170 -0.3464 -0.5918 -0.3396
  925MOL0     C22027   2.113   1.631   2.121  0.1845  0.4640 -0.4839
  925MOL0     C22028   2.225   1.525   2.142 -0.4854 -0.2728 -1.3690
  925MOL0     C22029   2.362   1.570   2.080 -0.4299  0.8047 -0.5131
  925MOL0     C22030   2.369   1.550   1.928  0.4985 -0.1934 -0.0674
  925MOL0     C22031   2.350   1.409   1.878 -0.2235 -0.3452 -0.0094
  925MOL0     C22032   2.336   1.297   1.829  0.0543  0.0753  0.0318
  925MOL0     C22033   1.856   1.778   2.116 -0.2990 -0.0865 -0.0115
  925MOL0     C22034   1.735   1.843   2.149 -0.0763  0.4151  0.2751
  925MOL0     H22035   1.244   1.843   2.214  0.4892 -3.5535  1.1046
  925MOL0     H22036   1.042   1.965   2.271  0.0933  1.6237 -0.2730
  925MOL0     H22037   0.965   2.008   2.691  1.8698 -2.4065 -4.0322
  925MOL0     H22038   0.827   2.090   2.628 -0.3058 -2.4650  1.9311
  925MOL0     H22039   0.932   2.299   2.604 -0.6648  0.7138  0.0571
  925MOL0     H22040   1.084   2.242   2.666  0.3770 -1.6536  1.3431
  925MOL0     H22041   0.994   2.182   2.878 -0.3591 -0.6631 -0.8216
  925MOL0     H22042   0.831   2.228   2.844  0.8589  1.4410  3.6468
  925MOL0     H22043   0.969   2.400   2.963 -2.3047  4.3116  0.7373
  925MOL0     H22044   1.053   2.423   2.810  1.1796 -0.3342  1.8289
  925MOL0     H22045   0.763   2.473   2.896 -0.2066  2.0913 -1.8966
  925MOL0     H22046   0.803   2.480   2.725  0.7679  1.2308 -1.2136
  925MOL0     H22047   0.964   2.668   2.757  0.0882  1.8993  0.2316
  925MOL0     H22048   0.934   2.648   2.934 -0.5042 -0.5978 -0.1905
  925MOL0     H22049   0.703   2.724   2.747  0.4974  0.2636  0.0024
  925MOL0     H22050   0.701   2.697   2.920 -0.0312 -1.8349 -0.8849
  925MOL0     H22051   0.857   2.896   2.759  0.4029  1.5929  0.4066
  925MOL0     H22052   0.875   2.874   2.933 -1.0009 -3.2954  1.1361
  925MOL0     H22053   0.674   3.026   3.090 -2.7239 -0.9745  1.1956
  925MOL0     H22054   0.574   3.257   3.087 -0.3060 -0.0124  0.0886
  925MOL0     H22055   0.423   3.167   3.078 -0.7367 -0.9550 -0.8857
  925MOL0     H22056   0.334   3.282   2.909 -1.1351  1.2233  1.4922
  925MOL0     H22057   0.497   3.326   2.843 -0.3765 -0.1838  0.1613
  925MOL0     H22058   0.347   3.445   3.081 -0.4682 -2.0018  0.0661
  925MOL0     H22059   0.511   3.492   3.048  0.1863  0.7466 -1.2888
  925MOL0     H22060   0.435   3.601   2.843  0.3853 -0.0028 -1.5275
  925MOL0     H22061   0.337   3.658   2.981  0.4268 -1.9318  2.1753
  925MOL0     H22062   0.123   3.313   2.942 -1.2982 -0.5383  1.3563
  925MOL0     H22063  -0.101   3.316   3.060 -1.6906  1.4550  0.2204
  925MOL0     H22064  -0.524   3.481   3.192 -1.0756  0.9873 -1.2872
  925MOL0     H22065  -0.724   3.517   3.315  1.1346 -0.5215  1.2331
  925MOL0     H22066  -0.806   3.905   3.357 -0.5269  2.0007 -0.3525
  925MOL0     H22067  -0.783   3.934   3.534  2.6541 -3.7794  1.0964
  925MOL0     H22068  -1.011   3.968   3.497  1.1716  0.5664 -0.9774
  925MOL0     H22069  -1.003   3.800   3.550 -0.8028  1.8737  1.0261
  925MOL0     H22070  -1.047   3.744   3.301 -0.2723 -0.2085  1.3165
  925MOL0     H22071  -1.023   3.927   3.270  0.2872  1.5230  2.4031
  925MOL0     H22072  -1.255   3.772   3.377 -0.1879  0.8575 -0.2512
  925MOL0     H22073  -1.229   3.941   3.426 -0.8130  0.7058  0.0194
  925MOL0     H22074  -1.241   4.013   3.197 -0.2691  1.0759  0.3990
  925MOL0     H22075  -1.378   3.911   3.246 -0.7635  0.9621 -1.1077
  925MOL0     H22076  -1.266   3.702   3.162  0.1373 -3.5752 -4.8896
  925MOL0     H22077  -1.153   3.811   3.082 -0.4468 -0.1492 -0.3163
  925MOL0     H22078  -1.461   3.817   3.042 -0.8829 -0.6393 -2.0563
  925MOL0     H22079  -1.341   3.914   2.960  1.8855 -0.1074  0.8933
  925MOL0     H22080  -1.414   3.704   2.827  1.8440  1.0877 -3.2084
  925MOL0     H22081  -1.312   3.610   2.945  0.9264  1.1535  0.2633
  925MOL0     H22082  -0.551   3.909   3.452  1.9568  1.1443 -0.7716
  925MOL0     H22083  -0.364   3.870   3.321 -0.4827 -0.6261 -2.2835
  925MOL0     H22084  -0.087   3.748   3.044  2.8637  1.5209 -1.7624
  925MOL0     H22085   0.115   3.735   2.912  0.0030 -0.6646  0.4836
  925MOL0     H22086   1.191   2.029   2.675  0.2670 -1.9782  0.5570
  925MOL0     H22087   1.380   1.885   2.619  0.8426  0.8158  0.2681
  925MOL0     H22088   1.593   1.615   2.353  1.3120 -0.3102  1.0383
  925MOL0     H22089   1.801   1.485   2.285 -0.2459  0.4145 -0.5110
  925MOL0     H22090   2.137   1.721   2.178 -0.2830  0.9176 -0.9951
  925MOL0     H22091   2.101   1.659   2.016  0.7412 -1.3586 -1.0625
  925MOL0     H22092   2.231   1.511   2.250  2.2985  0.4422 -1.3628
  925MOL0     H22093   2.176   1.436   2.102 -6.5029  1.9588 -0.0848
  925MOL0     H22094   2.443   1.515   2.129 -1.1177  1.0305  0.9301
  925MOL0     H22095   2.371   1.677   2.102 -3.0221  1.0311 -0.1739
  925MOL0     H22096   2.289   1.600   1.873  1.3071 -1.1062 -2.1406
  925MOL0     H22097   2.461   1.594   1.889  0.4855 -1.3961 -1.5002
  925MOL0     H22098   2.307   1.208   1.776 -1.8886  0.3399  0.5637
  925MOL0     H22099   1.935   1.818   2.053  1.4511 -1.8859  0.9266
  925MOL0     H22100   1.718   1.942   2.108  2.4756  0.0142 -1.9933
  926MOL0     O22101   2.570   1.747   5.558 -0.3056 -0.6886 -0.3965
  926MOL0     C22102   2.566   1.706   5.678  0.2401  0.0931 -0.3206
  926MOL0     O22103   2.460   1.703   5.763 -0.7686  0.3543  0.0302
  926MOL0     C22104   2.337   1.730   5.711  0.3719 -0.0651  0.0053
  926MOL0     C22105   2.289   1.859   5.714  0.2607 -0.8970 -0.0684
  926MOL0     C22106   2.166   1.885   5.656 -0.1743 -0.5953  0.2428
  926MOL0     C22107   2.095   1.773   5.589  0.1582 -0.7773 -0.2782
  926MOL0     O22108   1.978   1.800   5.523  0.0113  0.1905 -0.2931
  926MOL0     C22109   1.872   1.860   5.588  1.3233  0.7305 -0.8462
  926MOL0     C22110   1.808   1.774   5.700 -0.0470  0.5180  0.2936
  926MOL0     C22111   1.770   1.626   5.667  0.8279 -0.3298  0.7137
  926MOL0     C22112   1.678   1.564   5.777 -0.3100  0.3965 -0.0100
  926MOL0     C22113   1.541   1.624   5.812 -0.3773 -0.4105  0.7917
  926MOL0     C22114   1.440   1.620   5.690 -0.4662 -0.5615  0.0699
  926MOL0     C22115   1.307   1.702   5.711  0.5135 -0.4163 -0.5269
  926MOL0     C22116   1.223   1.682   5.842 -0.4692 -0.1668  0.1268
  926MOL0     N22117   1.092   1.748   5.852  0.2601  0.4026  0.4020
  926MOL0     C22118   1.070   1.882   5.834 -0.4086  0.2003 -0.1208
  926MOL0     C22119   0.940   1.897   5.856 -0.1676  0.0877  0.2534
  926MOL0     C22120   0.841   2.008   5.849 -0.1307 -1.4274 -0.1961
  926MOL0     C22121   0.810   2.059   5.991 -0.4426 -0.7611 -0.0080
  926MOL0     C22122   0.690   2.156   5.998  0.0408  0.1490  0.4867
  926MOL0     C22123   0.553   2.089   5.988 -0.3625  0.0419 -0.0787
  926MOL0     O22124   0.452   2.193   5.983  0.0659  0.1806  0.7295
  926MOL0     C22125   0.321   2.159   5.952  0.3803  0.6284 -0.2256
  926MOL0     C22126   0.262   2.038   5.934  0.5902  0.5777 -0.0414
  926MOL0     C22127   0.134   2.022   5.882  1.5998 -0.9367  1.6253
  926MOL0     C22128   0.056   2.142   5.861  0.3013 -0.2805 -0.1647
  926MOL0     C22129  -0.078   2.135   5.819 -0.0180 -0.1076  0.2668
  926MOL0     O22130  -0.139   2.250   5.778 -0.3990 -0.3211 -0.6227
  926MOL0     C22131  -0.276   2.245   5.767  0.8981 -0.0695  0.5121
  926MOL0     C22132  -0.351   2.331   5.852 -0.1370 -0.0190 -0.8665
  926MOL0     C22133  -0.488   2.352   5.852 -0.5409 -0.8937  0.9950
  926MOL0     C22134  -0.555   2.288   5.745  0.0112 -0.8367  0.1300
  926MOL0     O22135  -0.693   2.306   5.733 -0.5571  0.5357 -0.1591
  926MOL0     C22136  -0.760   2.424   5.772  0.6352 -0.5691  0.1736
  926MOL0     C22137  -0.904   2.419   5.735 -0.6295  0.0119  0.5527
  926MOL0     C22138  -0.933   2.418   5.587  0.3375  0.5074 -0.2957
  926MOL0     C22139  -1.082   2.380   5.557 -0.1042  0.2941  0.2686
  926MOL0     C22140  -1.102   2.372   5.411 -0.1473 -0.7664 -0.3235
  926MOL0     C22141  -1.239   2.300   5.375  1.0380  1.1002 -0.5173
  926MOL0     C22142  -1.260   2.282   5.227 -0.5498  0.7586  0.9262
  926MOL0     C22143  -1.409   2.245   5.205 -0.4580 -0.1115  0.5626
  926MOL0    Cl22144  -1.532   2.364   5.256  0.6094  0.3314 -0.1075
  926MOL0     C22145  -0.485   2.199   5.656 -0.3027 -0.2752  0.3662
  926MOL0     C22146  -0.350   2.166   5.678  0.3656 -0.1190  0.2904
  926MOL0     O22147  -0.126   2.022   5.829 -0.1006  0.0920  0.5234
  926MOL0     C22148   0.119   2.267   5.876 -0.6321  0.1611 -0.1684
  926MOL0     C22149   0.250   2.274   5.924 -0.0203 -0.3008 -0.4191
  926MOL0     N22150   0.882   1.780   5.890  0.5947  0.3731 -0.3561
  926MOL0     N22151   0.973   1.693   5.894  0.4697 -0.0390  0.0425
  926MOL0     C22152   2.142   1.645   5.588 -0.7283 -0.3790  0.2526
  926MOL0     C22153   2.272   1.625   5.648 -0.6104  1.0878 -0.0611
  926MOL0     C22154   2.687   1.642   5.745  0.4295 -1.2623  0.1923
  926MOL0     C22155   2.685   1.615   5.884  0.1292 -0.3357 -0.8565
  926MOL0     C22156   2.786   1.548   5.953 -0.5653  0.4606 -0.0826
  926MOL0     C22157   2.898   1.520   5.876 -0.9999  0.2732  0.1952
  926MOL0     O22158   3.004   1.458   5.941  0.6105 -0.7357 -0.3437
  926MOL0     C22159   3.062   1.349   5.862  0.1058 -0.9459 -0.2624
  926MOL0     C22160   3.110   1.235   5.955  0.0867 -0.0254 -0.2543
  926MOL0     C22161   3.233   1.154   5.899 -0.1672 -0.5557  0.1537
  926MOL0     C22162   3.206   1.016   5.843  0.0981  0.4311 -0.4629
  926MOL0     C22163   3.150   0.930   5.952  1.0463 -0.1036  0.1691
  926MOL0     C22164   3.092   0.877   6.043 -0.3359 -0.1506 -0.0590
  926MOL0     C22165   2.909   1.548   5.740  0.4826 -0.4755  1.3482
  926MOL0     C22166   2.802   1.617   5.668 -0.9173 -0.3283 -0.6547
  926MOL0     H22167   2.351   1.927   5.771 -0.5542  2.1930 -2.5866
  926MOL0     H22168   2.126   1.985   5.648 -0.2359 -0.7592 -3.1436
  926MOL0     H22169   1.793   1.877   5.514 -0.7959  0.0427  1.1092
  926MOL0     H22170   1.883   1.959   5.635 -0.8352  0.2955  0.7438
  926MOL0     H22171   1.719   1.827   5.737 -1.6273 -0.1664 -2.2691
  926MOL0     H22172   1.880   1.767   5.782 -0.2835  1.4293  0.5971
  926MOL0     H22173   1.865   1.573   5.669  0.3194 -1.2431  2.6936
  926MOL0     H22174   1.730   1.621   5.565  5.6288  2.8323 -1.7062
  926MOL0     H22175   1.661   1.459   5.753  1.6121  0.0415  0.0687
  926MOL0     H22176   1.727   1.562   5.874  0.1175 -0.2044 -0.2314
  926MOL0     H22177   1.550   1.722   5.860  1.3270 -0.3828  0.4836
  926MOL0     H22178   1.502   1.557   5.889  2.8166 -0.6815  2.3693
  926MOL0     H22179   1.415   1.515   5.673 -1.1848 -0.2984 -0.5555
  926MOL0     H22180   1.492   1.665   5.605  1.0844 -1.1342  0.6738
  926MOL0     H22181   1.344   1.805   5.709  0.7702 -0.4959  0.0441
  926MOL0     H22182   1.237   1.698   5.626 -2.4806 -1.0809  1.7800
  926MOL0     H22183   1.276   1.726   5.927 -2.3649  0.9198  0.8139
  926MOL0     H22184   1.211   1.575   5.861 -1.4305 -0.1739 -0.4699
  926MOL0     H22185   1.145   1.956   5.809 -1.3841  0.0300 -4.3455
  926MOL0     H22186   0.753   1.963   5.803  0.8744 -1.9008 -1.7236
  926MOL0     H22187   0.879   2.094   5.793 -0.7942 -0.4596  0.7907
  926MOL0     H22188   0.896   2.114   6.029 -0.9937  0.1935 -0.1308
  926MOL0     H22189   0.788   1.978   6.061  0.6232 -0.8020  0.2898
  926MOL0     H22190   0.704   2.214   6.090 -1.8891  2.2844 -0.4418
  926MOL0     H22191   0.708   2.230   5.919  1.8694 -0.6670  0.1105
  926MOL0     H22192   0.541   2.033   6.081 -1.1036 -1.8561 -1.2653
  926MOL0     H22193   0.560   2.022   5.902 -0.7617 -2.4397  1.7190
  926MOL0     H22194   0.330   1.954   5.950 -1.0092 -0.5811  1.0659
  926MOL0     H22195   0.095   1.923   5.857  3.1007 -1.4812  1.3212
  926MOL0     H22196  -0.285   2.379   5.925  1.4980  0.3402 -2.5104
  926MOL0     H22197  -0.545   2.425   5.908 -0.9122 -0.7099  0.3867
  926MOL0     H22198  -0.703   2.510   5.738  1.8126 -0.8876  1.2431
  926MOL0     H22199  -0.751   2.431   5.881 -0.0032 -1.5269  0.3039
  926MOL0     H22200  -0.959   2.505   5.774  1.2177  0.6032  1.9728
  926MOL0     H22201  -0.941   2.327   5.782  3.0442 -2.0811 -0.2793
  926MOL0     H22202  -0.866   2.343   5.543 -0.6668  1.9969 -4.8579
  926MOL0     H22203  -0.899   2.510   5.537  1.2192  1.4245  1.8585
  926MOL0     H22204  -1.105   2.285   5.605  1.2765  1.2874  3.1147
  926MOL0     H22205  -1.158   2.446   5.600 -0.9835  0.8957 -2.0751
  926MOL0     H22206  -1.027   2.310   5.362  0.3416 -0.0849 -0.4427
  926MOL0     H22207  -1.113   2.475   5.376  0.6610 -0.0176  1.5044
  926MOL0     H22208  -1.319   2.358   5.422 -0.8056 -0.9988 -0.8716
  926MOL0     H22209  -1.248   2.207   5.432 -1.2824  1.5087 -0.1026
  926MOL0     H22210  -1.227   2.367   5.166  3.1298 -0.9228  0.3005
  926MOL0     H22211  -1.192   2.203   5.195 -2.1104 -1.0589  1.9232
  926MOL0     H22212  -1.437   2.158   5.265 -2.3174  1.0466  1.4805
  926MOL0     H22213  -1.426   2.226   5.098 -2.3977 -0.3078  0.8728
  926MOL0     H22214  -0.542   2.153   5.576 -1.7315 -0.2056  1.3119
  926MOL0     H22215  -0.311   2.092   5.609 -0.0296 -0.3736  0.3413
  926MOL0     H22216   0.067   2.361   5.860  0.8221  0.8866 -0.8802
  926MOL0     H22217   0.303   2.369   5.926 -1.1660  0.3455  0.2655
  926MOL0     H22218   2.084   1.572   5.533 -3.8604 -0.2393  3.0503
  926MOL0     H22219   2.310   1.524   5.642 -1.7806  0.5182  1.4171
  926MOL0     H22220   2.597   1.642   5.942 -1.1755 -0.8920 -2.4994
  926MOL0     H22221   2.775   1.534   6.060  1.5059  1.3721  0.3072
  926MOL0     H22222   3.143   1.389   5.801 -1.3086  0.5096 -1.2718
  926MOL0     H22223   2.997   1.299   5.789  2.4254 -1.1667 -2.2750
  926MOL0     H22224   3.143   1.282   6.048  0.1316 -0.9299  0.2029
  926MOL0     H22225   3.027   1.165   5.968 -1.7230  1.6079 -2.2983
  926MOL0     H22226   3.307   1.145   5.979 -0.0544  1.1744  0.3019
  926MOL0     H22227   3.287   1.208   5.820  0.8720 -1.7859 -0.0055
  926MOL0     H22228   3.126   1.027   5.769  1.2460  2.1767 -1.5475
  926MOL0     H22229   3.300   0.976   5.804  1.2916 -0.4550  2.9455
  926MOL0     H22230   3.042   0.825   6.122 -1.0481 -0.7398 -0.8844
  926MOL0     H22231   2.997   1.538   5.677  1.6417  0.0881  2.8169
  926MOL0     H22232   2.799   1.625   5.560 -1.0703  3.1497 -0.5195
  927MOL0     O22233  11.249   3.730  10.867 -0.7896 -0.6077  0.2312
  927MOL0     C22234  11.315   3.829  10.904  0.3513  0.4412  0.6198
  927MOL0     O22235  11.274   3.961  10.906 -0.0642  0.0621  0.1112
  927MOL0     C22236  11.148   3.998  10.870  0.0277  0.1173  0.3720
  927MOL0     C22237  11.032   3.939  10.930  0.4843  0.9984  0.2065
  927MOL0     C22238  10.908   3.985  10.894  0.2762 -0.1945 -0.9352
  927MOL0     C22239  10.901   4.105  10.829  0.3426  0.1063 -0.6825
  927MOL0     O22240  10.782   4.170  10.799  0.2850 -0.2782  0.3193
  927MOL0     C22241  10.655   4.104  10.843  0.2113  0.0443  0.0768
  927MOL0     C22242  10.547   4.191  10.779  0.2956  0.2193  0.4370
  927MOL0     C22243  10.408   4.138  10.772 -0.5216 -1.0141 -0.1565
  927MOL0     C22244  10.344   4.132  10.910  0.3557 -0.0259 -0.4659
  927MOL0     C22245  10.198   4.096  10.906 -0.1449 -0.4625 -0.1112
  927MOL0     C22246  10.100   4.164  10.798  0.2087  0.5546  0.1274
  927MOL0     C22247   9.953   4.172  10.832  0.3341  0.0215 -1.1797
  927MOL0     C22248   9.880   4.294  10.774 -0.9753 -1.0265  0.3749
  927MOL0     N22249   9.733   4.280  10.788 -0.2477 -0.3002  0.1943
  927MOL0     C22250   9.629   4.335  10.718  0.1682 -0.0340  0.8829
  927MOL0     C22251   9.516   4.308  10.797  0.0489  0.7107  0.3215
  927MOL0     C22252   9.361   4.306  10.778 -0.6226 -0.5045 -0.3665
  927MOL0     C22253   9.339   4.431  10.704  0.5861 -0.5534 -0.6941
  927MOL0     C22254   9.197   4.482  10.695  0.3096 -1.0799  0.8001
  927MOL0     C22255   9.142   4.537  10.825 -0.7509 -0.8639  0.1530
  927MOL0     O22256   9.015   4.598  10.817  0.2004 -1.0503 -0.0198
  927MOL0     C22257   8.916   4.527  10.752  0.9425  0.1867 -0.3547
  927MOL0     C22258   8.855   4.574  10.633  0.1287  0.2977 -0.6608
  927MOL0     C22259   8.750   4.501  10.577 -0.2618 -1.4659 -0.9399
  927MOL0     C22260   8.693   4.396  10.647 -0.7162 -0.4513  0.4415
  927MOL0     C22261   8.564   4.344  10.601 -0.1709  0.3804 -0.6300
  927MOL0     O22262   8.507   4.255  10.677  0.0668 -0.1311  0.2714
  927MOL0     C22263   8.384   4.204  10.660  0.5448 -0.6206 -0.4515
  927MOL0     C22264   8.326   4.174  10.537 -0.1127  0.4111  0.1179
  927MOL0     C22265   8.203   4.107  10.528 -0.5156 -0.7015  0.0976
  927MOL0     C22266   8.129   4.074  10.638 -0.9111  0.5123 -0.0620
  927MOL0     O22267   8.008   4.002  10.617 -0.6944 -0.2048  0.6143
  927MOL0     C22268   7.946   3.908  10.706  0.4889  0.6537  0.2239
  927MOL0     C22269   7.789   3.942  10.695 -0.9926  0.7515  0.4883
  927MOL0     C22270   7.708   3.829  10.748  0.8580  0.0895 -0.0412
  927MOL0     C22271   7.553   3.871  10.743  0.3183 -0.7021 -0.0484
  927MOL0     C22272   7.447   3.765  10.793  1.0436  0.1092 -0.4496
  927MOL0     C22273   7.315   3.805  10.737  0.2234  0.1503  0.5242
  927MOL0     C22274   7.208   3.711  10.797  0.8536 -0.6714 -0.0188
  927MOL0     C22275   7.080   3.714  10.699  0.8454 -0.3786 -0.3785
  927MOL0    Cl22276   7.005   3.875  10.726 -0.3246 -0.1965  0.1188
  927MOL0     C22277   8.175   4.110  10.765  0.4784  0.1541 -0.2312
  927MOL0     C22278   8.301   4.178  10.769  1.0029  0.0676  0.0340
  927MOL0     O22279   8.524   4.378  10.497  0.2334 -0.0031  0.1265
  927MOL0     C22280   8.753   4.346  10.768 -0.5702 -0.2775  0.2623
  927MOL0     C22281   8.864   4.412  10.815 -0.1728  0.5805  0.0172
  927MOL0     N22282   9.552   4.233  10.911  0.3543 -0.5415  0.6568
  927MOL0     N22283   9.685   4.223  10.904 -0.3301 -0.8815 -0.1416
  927MOL0     C22284  11.014   4.176  10.784 -0.0686  1.0650  1.0565
  927MOL0     C22285  11.142   4.114  10.788 -0.2708  0.5941 -0.3254
  927MOL0     C22286  11.458   3.818  10.949 -0.9125  0.1907 -0.8887
  927MOL0     C22287  11.544   3.925  10.972  0.6764 -0.3507  0.0565
  927MOL0     C22288  11.675   3.912  11.014 -0.0078  0.0738 -0.0836
  927MOL0     C22289  11.735   3.789  11.046  0.7934  0.9355 -0.2114
  927MOL0     O22290  11.864   3.790  11.093 -0.0222 -0.2789 -0.1353
  927MOL0     C22291  11.922   3.665  11.128 -0.4217  0.2058  0.6416
  927MOL0     C22292  11.995   3.616  11.003 -0.5745  0.3509 -0.3571
  927MOL0     C22293  12.137   3.667  11.006 -0.0473 -1.0131  0.0036
  927MOL0     C22294  12.214   3.606  10.888  1.5038 -0.6638 -0.0429
  927MOL0     C22295  12.356   3.624  10.908 -0.6523  0.3113  0.1804
  927MOL0     C22296  12.473   3.640  10.915  0.8161 -0.5914  0.0729
  927MOL0     C22297  11.652   3.674  11.022 -0.1505 -0.6321 -0.1659
  927MOL0     C22298  11.526   3.690  10.968  0.2211 -0.2941 -0.0270
  927MOL0     H22299  11.032   3.856  11.000 -2.3689  0.4309 -0.3375
  927MOL0     H22300  10.824   3.926  10.930  0.6364  0.4419  1.0796
  927MOL0     H22301  10.639   4.113  10.951 -0.1732  0.3964 -0.0066
  927MOL0     H22302  10.642   4.000  10.812 -1.1169  0.2781 -0.1838
  927MOL0     H22303  10.577   4.201  10.675  0.3552  0.2579  0.4577
  927MOL0     H22304  10.550   4.293  10.821  0.2268  1.6438 -2.7585
  927MOL0     H22305  10.422   4.041  10.724  1.2120 -2.0199  2.1293
  927MOL0     H22306  10.344   4.193  10.703 -0.7819 -1.6549 -0.4241
  927MOL0     H22307  10.397   4.054  10.964 -0.5724 -0.5163 -0.2308
  927MOL0     H22308  10.371   4.221  10.966  1.9976 -1.0667  0.4746
  927MOL0     H22309  10.150   4.131  10.998 -0.8176  1.7587 -1.2423
  927MOL0     H22310  10.188   3.988  10.901  1.3922 -0.6197 -0.1200
  927MOL0     H22311  10.118   4.119  10.700  1.0400 -0.1892  0.6112
  927MOL0     H22312  10.130   4.269  10.793  1.1524  0.2649 -0.5347
  927MOL0     H22313   9.905   4.076  10.809 -1.4521  0.3621  0.7833
  927MOL0     H22314   9.937   4.184  10.939  1.1797 -1.3475 -0.8802
  927MOL0     H22315   9.905   4.299  10.667  0.5198 -3.0579  0.5831
  927MOL0     H22316   9.919   4.380  10.829 -0.0242 -0.7869 -0.6154
  927MOL0     H22317   9.631   4.381  10.620  2.8203 -0.3627  0.7152
  927MOL0     H22318   9.317   4.319  10.877  0.4874  1.0659 -0.0428
  927MOL0     H22319   9.312   4.220  10.732  0.2277 -1.2623  0.1047
  927MOL0     H22320   9.378   4.422  10.602 -1.7675 -1.8921 -1.5465
  927MOL0     H22321   9.398   4.507  10.757 -0.1728 -1.0901  0.9736
  927MOL0     H22322   9.199   4.562  10.621  1.6382 -1.7949  0.0345
  927MOL0     H22323   9.121   4.409  10.668  1.6652 -1.9593 -0.8475
  927MOL0     H22324   9.205   4.616  10.867  0.1512 -1.9928  0.9720
  927MOL0     H22325   9.139   4.450  10.890  0.3437 -0.4811  0.7464
  927MOL0     H22326   8.895   4.669  10.598 -0.5161  1.3150  1.1715
  927MOL0     H22327   8.703   4.535  10.485  1.4940 -2.7251 -2.3784
  927MOL0     H22328   8.387   4.184  10.447 -0.1890 -3.0653 -0.4373
  927MOL0     H22329   8.172   4.072  10.431 -0.6721  2.9631 -1.3484
  927MOL0     H22330   7.969   3.904  10.812 -0.2391 -3.2128  0.4122
  927MOL0     H22331   7.965   3.805  10.671  0.0102  0.2363  1.1614
  927MOL0     H22332   7.763   3.967  10.592 -1.3249  0.1256  0.4191
  927MOL0     H22333   7.759   4.033  10.749 -1.5703  0.4113  0.7429
  927MOL0     H22334   7.729   3.806  10.853  0.1192 -0.0124  0.0941
  927MOL0     H22335   7.729   3.739  10.691 -2.8578  0.1240 -1.7681
  927MOL0     H22336   7.535   3.969  10.788  0.6054 -0.7727  0.2267
  927MOL0     H22337   7.526   3.883  10.638 -0.5250 -2.4200 -0.0738
  927MOL0     H22338   7.445   3.770  10.903 -3.1889  0.8133 -0.3987
  927MOL0     H22339   7.459   3.661  10.762  0.7069 -0.3862  0.9571
  927MOL0     H22340   7.321   3.810  10.628  1.1240 -0.6500  0.5214
  927MOL0     H22341   7.292   3.907  10.768  0.5761  0.3689  0.0767
  927MOL0     H22342   7.248   3.609  10.791  2.4330 -0.2418  2.1419
  927MOL0     H22343   7.180   3.725  10.902 -0.4702 -2.4442 -0.0794
  927MOL0     H22344   7.000   3.649  10.737 -1.0564  2.7302  1.3374
  927MOL0     H22345   7.104   3.678  10.599  0.0432  0.9158 -1.0534
  927MOL0     H22346   8.107   4.110  10.849  2.5388  1.7363  1.5716
  927MOL0     H22347   8.341   4.208  10.866 -0.7744 -0.2618  0.9111
  927MOL0     H22348   8.720   4.254  10.815 -2.2329 -1.2752 -2.6049
  927MOL0     H22349   8.915   4.397  10.910  1.0424 -0.1783 -0.7328
  927MOL0     H22350  11.007   4.267  10.724 -0.3897 -1.4036 -3.0485
  927MOL0     H22351  11.226   4.162  10.737  0.2985 -2.5592 -2.6200
  927MOL0     H22352  11.523   4.027  10.944  2.3843 -0.4013 -1.5721
  927MOL0     H22353  11.740   3.998  11.007  1.1396 -0.7260  0.4308
  927MOL0     H22354  11.849   3.598  11.174  0.1217 -1.0996 -0.3498
  927MOL0     H22355  11.991   3.685  11.211  2.8186 -1.4546 -1.4588
  927MOL0     H22356  11.993   3.507  10.999  0.1803  0.2537  1.0479
  927MOL0     H22357  11.942   3.641  10.911  0.2979 -2.1011 -1.6063
  927MOL0     H22358  12.187   3.660  11.103 -0.1959 -0.1602  0.1411
  927MOL0     H22359  12.135   3.774  10.985 -0.7725 -0.8441  0.8940
  927MOL0     H22360  12.184   3.501  10.877  1.4253 -0.5772 -0.7013
  927MOL0     H22361  12.182   3.664  10.800 -2.8839 -0.3949  1.5037
  927MOL0     H22362  12.577   3.649  10.939  0.9412 -1.1607 -0.2410
  927MOL0     H22363  11.692   3.576  11.046 -2.6153 -1.3348  1.4655
  927MOL0     H22364  11.467   3.601  10.946 -0.0841 -0.1573  0.2181
  928MOL0     O22365   1.390  10.240   7.212 -1.5903 -0.0653  0.2384
  928MOL0     C22366   1.418  10.131   7.168 -0.5026  0.8466  0.1074
  928MOL0     O22367   1.344  10.057   7.082  0.5749 -0.5078 -0.1534
  928MOL0     C22368   1.244  10.120   7.011  0.7912 -0.5058  1.1642
  928MOL0     C22369   1.265  10.245   6.946  0.7564  0.1453  0.3104
  928MOL0     C22370   1.159  10.309   6.879 -0.0320  0.0234 -0.3044
  928MOL0     C22371   1.033  10.234   6.866 -0.4205 -1.3324  0.8438
  928MOL0     O22372   0.930  10.289   6.793  1.4387 -0.5039  0.8203
  928MOL0     C22373   0.807  10.216   6.778  0.7101  0.8240  0.3603
  928MOL0     C22374   0.700  10.300   6.722  0.6735  0.1866  0.3289
  928MOL0     C22375   0.568  10.225   6.700 -0.8467  0.3409 -0.0656
  928MOL0     C22376   0.469  10.331   6.654 -0.1220 -0.7102  0.0575
  928MOL0     C22377   0.333  10.278   6.617 -0.2097  0.0119 -0.6908
  928MOL0     C22378   0.226  10.386   6.580  0.3674  0.3110  0.3468
  928MOL0     C22379   0.258  10.480   6.465 -0.7365 -0.2832 -0.2504
  928MOL0     C22380   0.154  10.592   6.453 -0.7055 -0.2597 -0.0963
  928MOL0     N22381   0.036  10.540   6.372 -0.2565 -0.0084  0.2011
  928MOL0     C22382   0.025  10.544   6.234 -0.4391 -0.2258  0.7544
  928MOL0     C22383  -0.082  10.469   6.196 -0.7014  0.5670 -0.6844
  928MOL0     C22384  -0.132  10.471   6.059  0.3212 -0.5172  1.1585
  928MOL0     C22385  -0.270  10.531   6.063  0.5568 -1.0697  0.7611
  928MOL0     C22386  -0.320  10.583   5.931 -0.7741 -0.0760  0.1567
  928MOL0     C22387  -0.463  10.618   5.932  0.0866 -1.1566 -0.3791
  928MOL0     O22388  -0.506  10.665   5.798 -0.2921  0.0766 -0.2452
  928MOL0     C22389  -0.638  10.667   5.770  0.8046 -1.3635 -0.4544
  928MOL0     C22390  -0.674  10.643   5.640 -0.2175  0.6633  1.8529
  928MOL0     C22391  -0.812  10.650   5.611  0.4474  0.8850  0.2547
  928MOL0     C22392  -0.905  10.700   5.695  0.0472 -1.2177  0.7517
  928MOL0     C22393  -1.049  10.700   5.649  0.4424 -0.3845 -0.0900
  928MOL0     O22394  -1.150  10.707   5.744  0.1268 -0.5081 -0.0343
  928MOL0     C22395  -1.287  10.685   5.713 -0.1192 -0.2645  0.7281
  928MOL0     C22396  -1.374  10.699   5.826 -0.3447  0.3971  0.4075
  928MOL0     C22397  -1.508  10.677   5.826 -0.3238 -0.3720  0.3059
  928MOL0     C22398  -1.561  10.631   5.707  0.4845 -0.2209 -0.2637
  928MOL0     O22399  -1.690  10.584   5.717 -0.3839  0.6361  0.2472
  928MOL0     C22400  -1.759  10.553   5.596 -0.2481 -0.1620  0.2388
  928MOL0     C22401  -1.896  10.501   5.634  0.2484  0.7808 -0.2096
  928MOL0     C22402  -1.966  10.541   5.763 -0.7251 -0.4035 -0.7864
  928MOL0     C22403  -2.094  10.463   5.780  0.3898  0.1375 -0.1163
  928MOL0     C22404  -2.152  10.478   5.918  0.0191  0.5451 -0.1667
  928MOL0     C22405  -2.300  10.444   5.927 -0.0766 -0.1271  0.4685
  928MOL0     C22406  -2.345  10.459   6.075  0.3502  0.2237  0.3350
  928MOL0     C22407  -2.489  10.490   6.071 -0.0361  0.5686  0.3199
  928MOL0    Cl22408  -2.549  10.529   6.236  0.1202 -0.4620 -0.7198
  928MOL0     C22409  -1.475  10.614   5.595 -0.0857  0.0461  0.8337
  928MOL0     C22410  -1.340  10.648   5.596 -0.0395  0.1656 -0.1908
  928MOL0     O22411  -1.069  10.701   5.531  0.6533 -0.0165 -0.7122
  928MOL0     C22412  -0.871  10.739   5.819 -0.3447 -0.5281 -0.4015
  928MOL0     C22413  -0.737  10.722   5.865 -0.0477  0.0014  0.3256
  928MOL0     N22414  -0.141  10.418   6.311 -0.6338 -0.2059  0.3103
  928MOL0     N22415  -0.064  10.462   6.416  0.2450  1.3336  0.0576
  928MOL0     C22416   1.024  10.104   6.918  1.4482  0.5682  0.2096
  928MOL0     C22417   1.127  10.049   6.987  0.9370 -0.0285 -0.5490
  928MOL0     C22418   1.545  10.071   7.222 -0.6730  0.3987  0.2740
  928MOL0     C22419   1.624  10.141   7.313 -0.3474 -0.0600  0.3714
  928MOL0     C22420   1.729  10.073   7.381  0.0879  0.4578  0.4957
  928MOL0     C22421   1.764   9.940   7.339  0.1422 -0.4808 -0.1917
  928MOL0     O22422   1.870   9.865   7.388  0.4612  0.5170  0.1476
  928MOL0     C22423   1.960   9.906   7.487  0.5085  0.4974 -0.1407
  928MOL0     C22424   2.027   9.775   7.531 -0.9041  0.4938  0.7350
  928MOL0     C22425   2.180   9.796   7.554 -0.7451 -0.9413  0.2571
  928MOL0     C22426   2.256   9.671   7.574  0.1013  0.0887 -0.1053
  928MOL0     C22427   2.283   9.608   7.443 -0.0243  0.5177  0.1046
  928MOL0     C22428   2.301   9.548   7.340 -0.0216  0.1872  1.5172
  928MOL0     C22429   1.677   9.874   7.254 -0.3682  0.4188 -0.5864
  928MOL0     C22430   1.575   9.934   7.192  1.0463  0.1168 -0.2270
  928MOL0     H22431   1.363  10.292   6.951  1.8892 -2.1388  2.2428
  928MOL0     H22432   1.168  10.407   6.835  0.5947 -0.2890 -0.9006
  928MOL0     H22433   0.772  10.177   6.874 -1.1188 -3.9728 -1.9395
  928MOL0     H22434   0.817  10.123   6.721 -0.6416  1.2748 -0.6810
  928MOL0     H22435   0.725  10.340   6.623  1.0772 -1.3334 -0.2177
  928MOL0     H22436   0.678  10.385   6.787  3.4907  2.4277 -1.4046
  928MOL0     H22437   0.535  10.171   6.789 -2.2346  0.4005 -0.5153
  928MOL0     H22438   0.566  10.158   6.614 -0.8458  3.0510 -2.3086
  928MOL0     H22439   0.462  10.413   6.727  0.4328  2.6756 -3.3891
  928MOL0     H22440   0.515  10.374   6.565  3.1157 -3.3130  0.2952
  928MOL0     H22441   0.286  10.220   6.697  0.4305 -0.9985 -1.0334
  928MOL0     H22442   0.339  10.203   6.538  0.2738 -1.6948  0.9020
  928MOL0     H22443   0.193  10.439   6.670  2.4789  0.3643  1.1485
  928MOL0     H22444   0.140  10.327   6.546  1.3208  0.2781 -2.2551
  928MOL0     H22445   0.355  10.529   6.481 -0.8425 -0.1057 -0.1448
  928MOL0     H22446   0.251  10.430   6.368 -1.0562  0.1687 -0.4611
  928MOL0     H22447   0.201  10.670   6.393  1.6278 -0.1388  1.7779
  928MOL0     H22448   0.131  10.638   6.550  0.4680  2.6729 -1.0806
  928MOL0     H22449   0.090  10.607   6.175  0.3130  0.8991  2.6893
  928MOL0     H22450  -0.150  10.370   6.020 -1.2456  0.0648  0.2431
  928MOL0     H22451  -0.069  10.530   5.992 -2.2865  1.1618  0.0057
  928MOL0     H22452  -0.281  10.610   6.139 -1.1143 -3.1416  2.7924
  928MOL0     H22453  -0.338  10.450   6.090 -1.8288 -0.6245 -3.1282
  928MOL0     H22454  -0.264  10.669   5.893  2.3521 -2.4199 -0.9162
  928MOL0     H22455  -0.303  10.507   5.854 -1.7312 -1.4554  1.2569
  928MOL0     H22456  -0.481  10.701   6.000 -0.5351 -2.9691  1.7761
  928MOL0     H22457  -0.528  10.532   5.949  0.5325 -1.1419  1.5552
  928MOL0     H22458  -0.596  10.619   5.569 -2.1299 -1.0403  0.1757
  928MOL0     H22459  -0.839  10.618   5.511  5.0509 -0.5918 -0.8022
  928MOL0     H22460  -1.333  10.712   5.926  1.0505 -1.8165  0.1943
  928MOL0     H22461  -1.569  10.678   5.916  3.2014  0.3051  2.8870
  928MOL0     H22462  -1.708  10.483   5.529  0.9337 -0.7952  1.7429
  928MOL0     H22463  -1.777  10.651   5.550 -2.3795 -0.7623 -0.3460
  928MOL0     H22464  -1.882  10.393   5.635  1.6496  0.9353 -0.5744
  928MOL0     H22465  -1.965  10.531   5.554  1.3747  0.9829 -1.1455
  928MOL0     H22466  -1.983  10.649   5.771 -2.1669 -0.6575 -0.0460
  928MOL0     H22467  -1.896  10.513   5.843 -1.4214 -0.6167 -0.2364
  928MOL0     H22468  -2.163  10.510   5.709 -2.5260 -6.2119 -2.3112
  928MOL0     H22469  -2.078  10.359   5.750 -1.5550  0.3704 -2.2421
  928MOL0     H22470  -2.126  10.579   5.950  0.8856 -0.2252  1.7065
  928MOL0     H22471  -2.097  10.404   5.976  1.0296  1.6514  0.3264
  928MOL0     H22472  -2.315  10.343   5.887 -0.4594 -0.0851  0.5014
  928MOL0     H22473  -2.350  10.522   5.870  1.2880 -1.7747 -3.3360
  928MOL0     H22474  -2.346  10.365   6.130 -3.1713 -0.4906 -0.7004
  928MOL0     H22475  -2.299  10.546   6.124 -1.4359  0.1704  2.2235
  928MOL0     H22476  -2.543  10.398   6.048  1.3477  0.0433 -1.0119
  928MOL0     H22477  -2.514  10.568   5.998  1.1456  1.0681  0.4157
  928MOL0     H22478  -1.514  10.575   5.502  0.8428 -1.7833  1.1535
  928MOL0     H22479  -1.279  10.623   5.510  0.1927 -1.3843  0.3917
  928MOL0     H22480  -0.945  10.781   5.886 -0.1562 -1.8803  0.6802
  928MOL0     H22481  -0.712  10.755   5.965  2.9932 -1.9797  0.3665
  928MOL0     H22482   0.938  10.039   6.907 -0.1665  2.1207  2.5761
  928MOL0     H22483   1.123   9.946   7.021 -2.2748  0.5201  1.1497
  928MOL0     H22484   1.599  10.242   7.342 -1.7984 -0.4931  0.6731
  928MOL0     H22485   1.793  10.110   7.461 -0.4574  1.7249  0.3665
  928MOL0     H22486   1.915   9.955   7.574  0.1108  0.2857 -0.2235
  928MOL0     H22487   2.034   9.970   7.438  2.8737 -2.7381 -1.0918
  928MOL0     H22488   1.980   9.738   7.623  0.8194  1.3475  2.0018
  928MOL0     H22489   2.022   9.705   7.448  0.8841  0.9685  0.1837
  928MOL0     H22490   2.188   9.849   7.649  0.9341 -1.5561  0.4936
  928MOL0     H22491   2.225   9.858   7.476 -0.0555 -1.4041  0.2752
  928MOL0     H22492   2.351   9.694   7.624 -0.0656  2.0349 -0.6190
  928MOL0     H22493   2.202   9.603   7.641  2.3902  0.1631  1.9761
  928MOL0     H22494   2.327   9.502   7.247  2.2021  2.2797  0.9868
  928MOL0     H22495   1.679   9.766   7.250 -2.0727  0.1113  2.7289
  928MOL0     H22496   1.501   9.876   7.139  0.5791  1.1713 -0.7392
  929MOL0     O22497  10.704   8.677  11.270  0.2264 -0.0644 -0.2410
  929MOL0     C22498  10.659   8.603  11.359  0.1109 -0.1657 -0.5508
  929MOL0     O22499  10.534   8.605  11.419 -0.1977  0.1456 -0.5773
  929MOL0     C22500  10.453   8.715  11.396  0.7063 -0.7978  0.3200
  929MOL0     C22501  10.399   8.738  11.267  0.3226 -0.5958 -0.3589
  929MOL0     C22502  10.294   8.823  11.239  0.4878 -0.3371 -0.8800
  929MOL0     C22503  10.238   8.897  11.346  0.4406  0.0746  0.4728
  929MOL0     O22504  10.153   8.998  11.319  0.3279 -1.0914 -0.9215
  929MOL0     C22505  10.033   9.015  11.403  0.5823 -0.3611 -0.3080
  929MOL0     C22506   9.967   9.155  11.393  0.5263  0.5501  0.1404
  929MOL0     C22507   9.815   9.132  11.384  0.4782 -0.0995  0.1421
  929MOL0     C22508   9.730   9.253  11.381 -0.1137  0.5093  0.0030
  929MOL0     C22509   9.586   9.224  11.381 -0.0519 -0.3124  0.2061
  929MOL0     C22510   9.489   9.356  11.385  0.3741  0.3878 -0.2318
  929MOL0     C22511   9.332   9.321  11.390 -0.3654 -1.4409 -0.1809
  929MOL0     C22512   9.255   9.451  11.387 -1.0032  0.6513 -0.1538
  929MOL0     N22513   9.122   9.416  11.437 -0.5501 -0.1804 -0.7194
  929MOL0     C22514   9.039   9.321  11.375  0.5348  0.6133  0.0044
  929MOL0     C22515   8.925   9.333  11.439  0.3596 -0.5227 -0.2972
  929MOL0     C22516   8.796   9.260  11.410 -0.5402  0.1739 -0.1023
  929MOL0     C22517   8.716   9.300  11.291 -0.1612  0.0635 -0.1706
  929MOL0     C22518   8.662   9.444  11.299  0.1828  0.9309 -0.9146
  929MOL0     C22519   8.628   9.519  11.177  0.1554 -0.3838  1.5740
  929MOL0     O22520   8.623   9.432  11.062 -0.3248 -0.0373 -0.3257
  929MOL0     C22521   8.500   9.376  11.029 -0.3260 -0.3193  0.4077
  929MOL0     C22522   8.387   9.365  11.114 -0.2268  0.2809  0.2314
  929MOL0     C22523   8.269   9.317  11.072  0.3663  0.5742 -0.5655
  929MOL0     C22524   8.258   9.273  10.941 -0.9544 -0.4398  0.4653
  929MOL0     C22525   8.128   9.222  10.884  0.1312 -0.3654  0.6871
  929MOL0     O22526   8.009   9.255  10.950 -0.0103  0.9560 -0.1876
  929MOL0     C22527   7.884   9.217  10.895  0.0128 -0.0250 -0.2449
  929MOL0     C22528   7.776   9.244  10.985 -0.1652  0.6140 -0.3991
  929MOL0     C22529   7.644   9.220  10.949 -0.2572  0.4121  0.0050
  929MOL0     C22530   7.613   9.162  10.825 -0.5230  0.8820 -0.8415
  929MOL0     O22531   7.484   9.140  10.781  0.0441  0.1884 -0.0797
  929MOL0     C22532   7.388   9.104  10.882  0.0733  1.2780 -0.1128
  929MOL0     C22533   7.254   9.098  10.808  0.3672  0.0788 -0.4640
  929MOL0     C22534   7.236   8.958  10.743 -0.0654 -0.6044  0.2337
  929MOL0     C22535   7.093   8.933  10.698  0.2133 -0.8734 -0.0066
  929MOL0     C22536   7.034   9.052  10.633  0.8109  0.7099 -0.3580
  929MOL0     C22537   6.898   9.020  10.564 -0.9051 -0.3501  0.0498
  929MOL0     C22538   6.926   8.971  10.419  0.1715  0.3691  0.4035
  929MOL0     C22539   6.789   8.980  10.332 -0.1306 -0.5879 -1.0150
  929MOL0    Cl22540   6.658   8.920  10.433  0.0301  0.5020  0.3045
  929MOL0     C22541   7.717   9.128  10.732  0.2399 -0.0449 -0.0024
  929MOL0     C22542   7.851   9.167  10.765 -0.3309  0.1465 -0.4465
  929MOL0     O22543   8.136   9.159  10.776  0.0562 -0.2394  0.4843
  929MOL0     C22544   8.373   9.272  10.855  0.3671  0.1608 -0.7100
  929MOL0     C22545   8.487   9.333  10.897 -0.3902  0.2287 -0.3956
  929MOL0     N22546   8.950   9.419  11.542 -0.1590 -0.3455  0.8358
  929MOL0     N22547   9.063   9.466  11.545 -0.7466 -0.1833  0.4842
  929MOL0     C22548  10.300   8.890  11.478  0.3675  0.0132  0.5917
  929MOL0     C22549  10.409   8.799  11.497 -0.2408 -0.2574  0.3899
  929MOL0     C22550  10.760   8.491  11.395 -0.1961 -0.0294 -1.2521
  929MOL0     C22551  10.875   8.471  11.333 -0.8534  1.0196  0.5035
  929MOL0     C22552  10.982   8.393  11.382 -0.7159  0.4126  0.3910
  929MOL0     C22553  10.947   8.306  11.485 -1.1360  0.0684  0.6866
  929MOL0     O22554  11.019   8.199  11.527 -0.1396 -0.1902 -0.4177
  929MOL0     C22555  11.135   8.149  11.467 -0.6405 -0.5411  0.3603
  929MOL0     C22556  11.148   8.003  11.516  0.3750  0.0501  0.0918
  929MOL0     C22557  11.176   7.999  11.668 -0.8510  0.4925 -0.6602
  929MOL0     C22558  11.209   7.862  11.719  0.5712 -0.2358  0.4557
  929MOL0     C22559  11.178   7.861  11.860  0.0304 -0.3959  1.0742
  929MOL0     C22560  11.188   7.882  11.977 -0.4766  0.2171  0.4306
  929MOL0     C22561  10.830   8.317  11.559 -0.4949  0.4677 -0.2733
  929MOL0     C22562  10.732   8.411  11.512 -0.3030  0.3769  0.8501
  929MOL0     H22563  10.428   8.669  11.189 -1.7539 -0.1687 -1.6026
  929MOL0     H22564  10.243   8.845  11.145  0.5801  2.3523 -0.3752
  929MOL0     H22565  10.059   9.016  11.509 -3.3600 -1.8102  0.8546
  929MOL0     H22566   9.974   8.930  11.367  2.8290 -1.5022 -1.5422
  929MOL0     H22567   9.989   9.198  11.295 -1.3481 -2.5506 -1.8322
  929MOL0     H22568  10.009   9.223  11.467  0.5537  3.5385 -2.4273
  929MOL0     H22569   9.783   9.074  11.472 -0.4387  2.4839  1.6331
  929MOL0     H22570   9.789   9.066  11.301 -4.0148 -1.9769  2.6425
  929MOL0     H22571   9.753   9.306  11.473 -1.1346  0.9241  0.0357
  929MOL0     H22572   9.755   9.312  11.293 -2.3580  1.1788 -0.2542
  929MOL0     H22573   9.561   9.151  11.459 -1.5337  0.9020  0.9406
  929MOL0     H22574   9.557   9.177  11.287  1.4081  2.7454 -1.9541
  929MOL0     H22575   9.503   9.399  11.285  3.3027  1.2944  0.4895
  929MOL0     H22576   9.523   9.426  11.461 -4.8634  1.0629  1.9247
  929MOL0     H22577   9.315   9.272  11.294 -1.0939 -1.7492  0.0970
  929MOL0     H22578   9.302   9.264  11.478 -0.5007  0.5364  1.1275
  929MOL0     H22579   9.259   9.492  11.285 -0.2025 -1.9685 -1.2706
  929MOL0     H22580   9.298   9.531  11.449  0.5288  1.9011 -2.6697
  929MOL0     H22581   9.050   9.262  11.284 -1.8101  0.8723 -0.5030
  929MOL0     H22582   8.736   9.284  11.499  0.5043  2.6898  0.0102
  929MOL0     H22583   8.824   9.155  11.402 -0.9037 -0.1819  2.4369
  929MOL0     H22584   8.635   9.228  11.279  1.4812 -1.6040 -2.0538
  929MOL0     H22585   8.773   9.283  11.199 -3.0174 -2.5951 -1.6585
  929MOL0     H22586   8.566   9.433  11.350  0.7164 -1.8328 -0.3727
  929MOL0     H22587   8.725   9.502  11.367 -1.5352  0.6425  1.0334
  929MOL0     H22588   8.693   9.602  11.150 -0.5789 -0.8996 -2.4798
  929MOL0     H22589   8.533   9.570  11.197  1.5184  2.2982  1.5760
  929MOL0     H22590   8.385   9.416  11.210 -4.0995  0.0184  0.4177
  929MOL0     H22591   8.188   9.302  11.142 -0.6600  2.9296 -1.1457
  929MOL0     H22592   7.798   9.282  11.084  1.4574 -2.8383  0.7567
  929MOL0     H22593   7.565   9.247  11.019 -1.7790 -0.5323 -1.2522
  929MOL0     H22594   7.391   9.164  10.973  3.2305 -0.3389  1.0487
  929MOL0     H22595   7.412   9.010  10.933 -0.1187  0.3459 -1.6816
  929MOL0     H22596   7.247   9.165  10.721 -2.4255 -0.8947 -1.0913
  929MOL0     H22597   7.182   9.129  10.884 -0.7430  0.1982 -1.5282
  929MOL0     H22598   7.279   8.883  10.811  2.3340  3.1008  3.1915
  929MOL0     H22599   7.297   8.957  10.652  1.6096  0.7642  1.2772
  929MOL0     H22600   7.092   8.847  10.630 -2.4340 -0.8243 -0.1624
  929MOL0     H22601   7.034   8.905  10.786 -3.7068  4.0000 -0.6083
  929MOL0     H22602   7.108   9.091  10.563  1.4052  1.5163  0.6937
  929MOL0     H22603   7.013   9.133  10.703  0.2367 -0.1362  0.4771
  929MOL0     H22604   6.841   9.113  10.569  1.3160  1.0468  0.9979
  929MOL0     H22605   6.848   8.938  10.616  0.1176  0.1478  1.9230
  929MOL0     H22606   7.001   9.034  10.371  0.0002 -0.2596 -0.7286
  929MOL0     H22607   6.954   8.865  10.425  0.5118  0.5319  2.4204
  929MOL0     H22608   6.796   8.927  10.237 -2.1173 -1.0839 -0.9209
  929MOL0     H22609   6.763   9.085  10.314 -1.8063 -0.7450  0.2380
  929MOL0     H22610   7.703   9.087  10.632 -1.4477 -0.6448  0.4570
  929MOL0     H22611   7.927   9.159  10.687 -1.3163  0.7626 -1.4834
  929MOL0     H22612   8.369   9.242  10.750 -1.0893  3.2473 -1.6516
  929MOL0     H22613   8.581   9.320  10.844  2.0769 -1.2349  3.8187
  929MOL0     H22614  10.288   8.954  11.565  1.0938  1.1933 -0.1487
  929MOL0     H22615  10.455   8.794  11.595  0.2629 -0.5068  0.1473
  929MOL0     H22616  10.896   8.523  11.240  1.6396  0.8432  0.9008
  929MOL0     H22617  11.075   8.376  11.329 -0.7722  0.0694  0.3988
  929MOL0     H22618  11.226   8.207  11.486 -0.7008 -0.1799 -0.4444
  929MOL0     H22619  11.114   8.142  11.360 -1.3491 -3.3087  0.5952
  929MOL0     H22620  11.058   7.949  11.484 -0.6572  1.2811  0.8095
  929MOL0     H22621  11.232   7.952  11.469 -0.6721 -2.6848  0.9525
  929MOL0     H22622  11.084   8.029  11.717  0.1652  1.5206  0.6811
  929MOL0     H22623  11.255   8.070  11.693  2.0068 -3.1230  1.6529
  929MOL0     H22624  11.139   7.788  11.679 -2.6308  1.5386  2.3211
  929MOL0     H22625  11.308   7.826  11.690 -0.5152 -4.4352  1.2229
  929MOL0     H22626  11.186   7.904  12.082  0.0803  1.0321  0.2846
  929MOL0     H22627  10.806   8.244  11.636 -1.6299  2.7799  1.7389
  929MOL0     H22628  10.639   8.429  11.565  1.0110 -0.8831  3.8045
  930MOL0     O22629   2.762   5.457   5.308  0.0983 -0.7745 -0.1185
  930MOL0     C22630   2.832   5.361   5.335 -0.3700 -0.7199 -0.0483
  930MOL0     O22631   2.787   5.236   5.369 -0.0384 -0.2814 -0.3691
  930MOL0     C22632   2.651   5.232   5.391  0.5772  0.1242  0.2025
  930MOL0     C22633   2.562   5.164   5.297 -0.5729 -0.7091  0.3639
  930MOL0     C22634   2.423   5.163   5.315 -0.3288  0.6511  0.0027
  930MOL0     C22635   2.362   5.232   5.420  0.2995 -0.4140 -1.1299
  930MOL0     O22636   2.223   5.244   5.432 -0.2848  0.8583 -0.4380
  930MOL0     C22637   2.146   5.135   5.380 -0.3740 -0.2414 -0.0954
  930MOL0     C22638   2.013   5.127   5.448  0.8928 -0.0538  0.2527
  930MOL0     C22639   1.919   5.042   5.354  0.2799 -0.7872 -0.8662
  930MOL0     C22640   1.767   5.039   5.400 -0.7673  0.0300  0.0413
  930MOL0     C22641   1.682   4.966   5.289  0.3973  0.5944  0.3354
  930MOL0     C22642   1.696   5.038   5.147 -0.1088  0.5041 -0.6983
  930MOL0     C22643   1.647   5.182   5.129 -0.1217  0.0627 -0.0373
  930MOL0     C22644   1.515   5.222   5.202 -0.0344 -0.3244 -0.0992
  930MOL0     N22645   1.396   5.148   5.154  0.8345  0.0145  0.4746
  930MOL0     C22646   1.354   5.126   5.026 -0.0115 -0.0771  0.3364
  930MOL0     C22647   1.260   5.027   5.027  0.8075 -0.0628 -0.0822
  930MOL0     C22648   1.219   4.953   4.901  0.8404 -0.2291  0.3205
  930MOL0     C22649   1.072   4.981   4.872  0.2374  0.5610  0.0607
  930MOL0     C22650   1.063   5.128   4.827  0.2348  0.2493 -0.5918
  930MOL0     C22651   0.922   5.144   4.750 -0.0196 -0.6235 -1.5071
  930MOL0     O22652   0.915   5.089   4.614  0.1958 -0.1118  0.0513
  930MOL0     C22653   0.789   5.082   4.556 -0.1116 -0.7375 -0.4578
  930MOL0     C22654   0.656   5.051   4.611  0.3506  0.1661  0.0315
  930MOL0     C22655   0.551   5.059   4.515 -0.0476 -0.6879  0.1056
  930MOL0     C22656   0.568   5.078   4.377 -0.0405 -0.2750 -0.7497
  930MOL0     C22657   0.453   5.087   4.283  0.3072  0.5440  0.1099
  930MOL0     O22658   0.333   5.120   4.337  0.4501 -0.0521  0.4682
  930MOL0     C22659   0.208   5.097   4.287  0.0778 -1.0406 -0.9175
  930MOL0     C22660   0.103   5.053   4.368  0.2596  0.1265 -0.2515
  930MOL0     C22661  -0.026   5.027   4.324 -0.5799 -1.3542 -0.5788
  930MOL0     C22662  -0.060   5.061   4.188 -0.3499 -0.7162  0.2126
  930MOL0     O22663  -0.192   5.070   4.139  0.1732  0.0655 -0.2605
  930MOL0     C22664  -0.300   5.035   4.232  0.1784 -0.6343  0.1912
  930MOL0     C22665  -0.439   5.064   4.158  0.1965 -0.1688  0.9053
  930MOL0     C22666  -0.492   5.202   4.209 -0.1121  0.5722  0.1394
  930MOL0     C22667  -0.608   5.238   4.114 -0.3200  0.1522  0.1227
  930MOL0     C22668  -0.682   5.358   4.161 -0.8530  0.5883 -0.6124
  930MOL0     C22669  -0.617   5.494   4.105  0.2171 -0.6606 -0.0344
  930MOL0     C22670  -0.670   5.613   4.192 -0.1562  0.4705 -0.3788
  930MOL0     C22671  -0.667   5.746   4.125  0.3555  0.2802  0.4916
  930MOL0    Cl22672  -0.837   5.790   4.058 -0.0636  0.7241 -0.4653
  930MOL0     C22673   0.046   5.114   4.106  0.4338  0.1625 -0.5238
  930MOL0     C22674   0.178   5.133   4.159  0.1055  0.4322  0.4908
  930MOL0     O22675   0.471   5.072   4.163 -1.1436  0.5348 -0.2421
  930MOL0     C22676   0.695   5.089   4.329 -0.1774  0.1280  1.0489
  930MOL0     C22677   0.801   5.089   4.421 -0.0881 -0.0605  0.0948
  930MOL0     N22678   1.239   5.002   5.165 -0.3972  0.2432  0.3230
  930MOL0     N22679   1.319   5.065   5.235  0.1574 -0.1268 -0.1325
  930MOL0     C22680   2.446   5.301   5.506 -0.8063 -0.1092 -0.0406
  930MOL0     C22681   2.585   5.297   5.495 -0.7162 -1.1094  0.7195
  930MOL0     C22682   2.977   5.360   5.336 -0.3580 -0.0544  0.0710
  930MOL0     C22683   3.058   5.249   5.359  0.8091  0.3803  0.0840
  930MOL0     C22684   3.199   5.257   5.345  0.0568  0.0913  0.1919
  930MOL0     C22685   3.257   5.382   5.310  0.0083  0.2809 -0.3832
  930MOL0     O22686   3.391   5.402   5.310  0.7513 -0.0688 -0.5695
  930MOL0     C22687   3.481   5.300   5.275 -0.6244 -0.5192  0.3900
  930MOL0     C22688   3.622   5.349   5.272  0.2081 -0.7567  0.6116
  930MOL0     C22689   3.672   5.421   5.403 -0.4012  0.1283 -0.0492
  930MOL0     C22690   3.805   5.480   5.398  0.1422  0.3775  0.9675
  930MOL0     C22691   3.847   5.559   5.505  0.2555 -0.4139  0.9111
  930MOL0     C22692   3.891   5.634   5.593 -0.4165  0.1782  0.8613
  930MOL0     C22693   3.173   5.494   5.298 -0.1541 -0.9350  0.6333
  930MOL0     C22694   3.035   5.485   5.307  0.3793  0.9156 -0.3638
  930MOL0     H22695   2.604   5.115   5.210 -0.8176  0.4009 -0.3993
  930MOL0     H22696   2.359   5.110   5.246 -0.5353  0.6426  0.2008
  930MOL0     H22697   2.195   5.037   5.379 -0.5021 -0.3066 -0.0931
  930MOL0     H22698   2.131   5.174   5.279  2.6055  0.1798 -0.4563
  930MOL0     H22699   1.983   5.232   5.455 -1.0162 -0.4642 -0.9999
  930MOL0     H22700   2.022   5.079   5.546 -1.6454  2.3970  1.8297
  930MOL0     H22701   1.957   4.940   5.343  0.3842 -0.6396 -2.0776
  930MOL0     H22702   1.924   5.103   5.263  1.8679 -1.9803 -1.6206
  930MOL0     H22703   1.756   4.980   5.492 -1.2599 -2.3351 -1.4418
  930MOL0     H22704   1.732   5.139   5.429  0.0390 -0.2390  2.1397
  930MOL0     H22705   1.575   4.972   5.310  0.3297 -2.4359  1.2347
  930MOL0     H22706   1.705   4.860   5.282  0.7142  0.6338  0.6981
  930MOL0     H22707   1.624   4.989   5.080 -0.6444  0.8299 -0.3748
  930MOL0     H22708   1.792   5.024   5.097  0.8409 -2.6612  1.6942
  930MOL0     H22709   1.729   5.241   5.170  1.4450 -1.4813 -0.7613
  930MOL0     H22710   1.644   5.197   5.021  0.2019  1.4909  0.1415
  930MOL0     H22711   1.510   5.330   5.187  3.8144  0.5643  3.1659
  930MOL0     H22712   1.514   5.201   5.309 -1.8782  1.8094  0.3734
  930MOL0     H22713   1.407   5.168   4.941 -0.4040  2.6074  1.3339
  930MOL0     H22714   1.243   4.847   4.918  1.1420  0.1415  2.5756
  930MOL0     H22715   1.279   4.988   4.817  2.3254 -0.4473  1.2456
  930MOL0     H22716   1.016   4.957   4.963  1.3758  0.9063  0.8620
  930MOL0     H22717   1.034   4.915   4.793  0.3890  0.7923 -0.2088
  930MOL0     H22718   1.065   5.178   4.924  0.4379  2.5891 -1.7501
  930MOL0     H22719   1.150   5.152   4.765  0.3608 -1.3580 -1.0959
  930MOL0     H22720   0.889   5.247   4.733 -4.1163 -1.2228  1.3294
  930MOL0     H22721   0.847   5.093   4.812 -0.4721  2.9444  1.1989
  930MOL0     H22722   0.636   5.037   4.717 -1.6723  2.1910 -0.0036
  930MOL0     H22723   0.451   5.044   4.555 -0.4291 -1.1696 -1.0069
  930MOL0     H22724   0.124   5.031   4.472  0.5153 -0.6916 -0.4693
  930MOL0     H22725  -0.098   4.999   4.400 -1.0001 -2.1597 -1.2543
  930MOL0     H22726  -0.287   5.096   4.322 -1.9014 -2.6338  1.9787
  930MOL0     H22727  -0.301   4.927   4.247 -0.0658 -0.9638 -1.8816
  930MOL0     H22728  -0.512   4.984   4.173 -1.2074  0.2762 -2.5769
  930MOL0     H22729  -0.427   5.051   4.050  1.6816 -1.5204  1.1972
  930MOL0     H22730  -0.417   5.280   4.218 -1.2742  1.9924 -1.7637
  930MOL0     H22731  -0.528   5.183   4.311  2.8482  0.0917  1.1978
  930MOL0     H22732  -0.568   5.269   4.017  0.4529 -2.2468 -0.3906
  930MOL0     H22733  -0.683   5.161   4.096 -0.6312  0.8409 -1.7654
  930MOL0     H22734  -0.663   5.358   4.268  2.0109  1.0327 -1.0407
  930MOL0     H22735  -0.788   5.361   4.133 -0.9313  5.5742 -0.6485
  930MOL0     H22736  -0.648   5.511   4.001 -4.9156 -0.3133  1.2548
  930MOL0     H22737  -0.509   5.491   4.121 -0.0155 -0.3115  1.8603
  930MOL0     H22738  -0.771   5.603   4.233 -0.2705 -1.1723 -0.9882
  930MOL0     H22739  -0.607   5.612   4.282 -1.4837  0.9173  0.6041
  930MOL0     H22740  -0.597   5.754   4.040  0.5537 -0.2951  0.5943
  930MOL0     H22741  -0.642   5.829   4.192 -0.6625  1.7452 -0.8718
  930MOL0     H22742   0.024   5.161   4.011  1.6502  0.2147 -0.7977
  930MOL0     H22743   0.259   5.180   4.105 -1.0813 -1.2379 -3.0780
  930MOL0     H22744   0.724   5.112   4.227 -1.3024 -1.0190  0.4405
  930MOL0     H22745   0.896   5.115   4.376 -0.8301  0.7029 -1.0766
  930MOL0     H22746   2.401   5.358   5.586  1.4949 -0.2566  1.4481
  930MOL0     H22747   2.646   5.352   5.566 -1.0332  3.8370 -2.4113
  930MOL0     H22748   3.011   5.151   5.366  0.3583  0.4860 -1.2365
  930MOL0     H22749   3.260   5.168   5.350 -1.2706 -0.8400  0.6888
  930MOL0     H22750   3.466   5.245   5.181 -1.5852 -2.1756  1.4587
  930MOL0     H22751   3.475   5.221   5.351 -3.7044 -1.4732 -0.6727
  930MOL0     H22752   3.681   5.258   5.259 -2.5768 -2.2692 -3.2268
  930MOL0     H22753   3.626   5.407   5.180 -3.3281 -2.5536 -0.8420
  930MOL0     H22754   3.685   5.347   5.483  0.0362  3.9387  3.7568
  930MOL0     H22755   3.606   5.503   5.433  0.2032  1.2287 -1.6050
  930MOL0     H22756   3.882   5.405   5.381 -0.7686 -0.3844  0.0268
  930MOL0     H22757   3.804   5.541   5.308  0.4019  0.1195  0.7891
  930MOL0     H22758   3.927   5.702   5.668 -1.1695  0.5875  0.8607
  930MOL0     H22759   3.228   5.586   5.280  0.4507 -1.0375  1.8814
  930MOL0     H22760   2.966   5.568   5.295 -0.1246  0.5130 -0.2987
  931MOL0     O22761  10.466   9.648   7.201  1.2765  0.0143 -0.4765
  931MOL0     C22762  10.444   9.698   7.318 -0.1690  0.2274  0.1381
  931MOL0     O22763  10.322   9.742   7.358  0.3897  0.0770 -0.0433
  931MOL0     C22764  10.205   9.704   7.292 -0.2171  0.2305  0.8409
  931MOL0     C22765  10.154   9.791   7.194  0.1948 -0.8760 -0.5768
  931MOL0     C22766  10.055   9.748   7.111 -0.5711 -0.1600  0.4826
  931MOL0     C22767   9.997   9.621   7.124 -0.8080  0.4144 -0.0728
  931MOL0     O22768   9.896   9.580   7.036 -0.0027  0.3366 -0.2499
  931MOL0     C22769   9.813   9.465   7.080  0.9969  0.4194  0.6199
  931MOL0     C22770   9.690   9.472   7.000 -0.0128 -0.0492  0.0469
  931MOL0     C22771   9.628   9.605   6.991 -0.6683  0.1560  0.8291
  931MOL0     C22772   9.504   9.600   6.902  0.2065  0.4070 -0.8288
  931MOL0     C22773   9.378   9.537   6.965  0.6232 -0.5310  0.1376
  931MOL0     C22774   9.260   9.590   6.876  0.8926 -0.1552  0.5961
  931MOL0     C22775   9.116   9.563   6.937  0.0490  0.3084 -0.3877
  931MOL0     C22776   8.999   9.633   6.859 -0.4225 -0.0452  0.1735
  931MOL0     N22777   8.871   9.571   6.898 -0.3080 -0.0670  0.3038
  931MOL0     C22778   8.807   9.585   7.019  0.3063 -0.4677  0.0100
  931MOL0     C22779   8.693   9.516   7.004  1.1595 -0.0117 -0.1510
  931MOL0     C22780   8.580   9.515   7.111  0.3927 -0.0766 -0.3613
  931MOL0     C22781   8.477   9.622   7.065  0.0261  0.8008 -0.2980
  931MOL0     C22782   8.357   9.629   7.165  0.1398 -0.1837 -0.4964
  931MOL0     C22783   8.243   9.717   7.118 -0.4184 -0.0121 -0.6740
  931MOL0     O22784   8.128   9.712   7.202  0.2417 -0.0693 -0.0677
  931MOL0     C22785   7.998   9.733   7.154 -0.3489  0.5136 -0.2475
  931MOL0     C22786   7.978   9.783   7.024  0.4310  0.1468 -0.2162
  931MOL0     C22787   7.837   9.785   6.986 -0.2438 -0.3606  0.1129
  931MOL0     C22788   7.732   9.729   7.061  0.5318  0.6980 -0.3073
  931MOL0     C22789   7.589   9.739   7.022 -0.2635  0.0988  0.1885
  931MOL0     O22790   7.564   9.846   6.957 -0.2375  0.0777  0.0910
  931MOL0     C22791   7.430   9.868   6.930 -0.3835 -0.3904  0.0473
  931MOL0     C22792   7.372   9.841   6.807 -0.4849  0.6602 -0.4810
  931MOL0     C22793   7.230   9.845   6.786 -0.1957  0.4694  0.1139
  931MOL0     C22794   7.149   9.876   6.894  0.0408  0.6563 -0.6678
  931MOL0     O22795   7.015   9.882   6.895  0.1636  0.6254 -0.3976
  931MOL0     C22796   6.946   9.892   6.775 -0.0241  0.6467  0.4994
  931MOL0     C22797   6.830   9.994   6.799 -0.9988  0.5039 -0.5959
  931MOL0     C22798   6.716   9.923   6.877  0.4199 -0.5998 -0.2401
  931MOL0     C22799   6.743   9.914   7.030 -0.3626  0.0637  0.4126
  931MOL0     C22800   6.628   9.841   7.093 -0.1730  0.0160 -0.0590
  931MOL0     C22801   6.643   9.822   7.247 -0.0892  0.9636  0.0227
  931MOL0     C22802   6.533   9.737   7.307  0.0829  0.3903  0.0226
  931MOL0     C22803   6.392   9.785   7.279  0.0765  0.3450  0.4433
  931MOL0    Cl22804   6.349   9.926   7.376 -0.4974  0.0044  0.1420
  931MOL0     C22805   7.205   9.914   7.016  0.0649 -0.4473  0.2773
  931MOL0     C22806   7.343   9.917   7.033 -0.2938 -0.4803  0.1832
  931MOL0     O22807   7.509   9.656   7.068 -0.4189  0.0575 -0.4551
  931MOL0     C22808   7.763   9.679   7.188 -0.5685  0.0770 -0.5092
  931MOL0     C22809   7.893   9.689   7.240  0.4356  0.6642 -0.1234
  931MOL0     N22810   8.683   9.471   6.872 -0.4676 -0.1803  0.4136
  931MOL0     N22811   8.796   9.505   6.810  0.7169 -0.2978 -0.2567
  931MOL0     C22812  10.048   9.537   7.226 -0.7613  0.3850 -0.2176
  931MOL0     C22813  10.149   9.579   7.312  0.3246 -0.7187 -0.5518
  931MOL0     C22814  10.567   9.722   7.396 -0.3311  0.6439 -0.3165
  931MOL0     C22815  10.692   9.681   7.346  0.0590 -0.2650  0.9686
  931MOL0     C22816  10.803   9.718   7.420  0.2128  1.1803  0.9953
  931MOL0     C22817  10.797   9.794   7.538 -0.0203 -0.3867 -0.4304
  931MOL0     O22818  10.916   9.829   7.605  1.0753 -0.2002  0.2687
  931MOL0     C22819  11.039   9.757   7.590  0.0475  0.8287  0.9266
  931MOL0     C22820  11.136   9.770   7.704 -0.1907 -0.6827  0.0138
  931MOL0     C22821  11.167   9.917   7.745 -0.3881 -0.0048 -0.1930
  931MOL0     C22822  11.253   9.915   7.868  0.4507 -0.3733  0.4029
  931MOL0     C22823  11.292  10.056   7.900 -0.2955  0.8120 -1.2838
  931MOL0     C22824  11.347  10.158   7.918  0.3942 -0.1957 -0.4350
  931MOL0     C22825  10.673   9.842   7.584  0.0653 -0.3974 -0.5550
  931MOL0     C22826  10.556   9.798   7.516 -1.5672 -0.6226 -0.5719
  931MOL0     H22827  10.187   9.895   7.196  3.3785 -1.7995  1.6387
  931MOL0     H22828  10.008   9.820   7.045 -1.7129 -0.4551  0.9582
  931MOL0     H22829   9.782   9.471   7.184 -0.8738 -1.7584  0.2614
  931MOL0     H22830   9.859   9.370   7.053  1.7545  1.3783 -1.7856
  931MOL0     H22831   9.611   9.404   7.036  0.3157 -0.9470 -0.8700
  931MOL0     H22832   9.719   9.443   6.899 -1.4454  1.2611 -0.7791
  931MOL0     H22833   9.691   9.688   6.955 -1.4926 -0.6820 -3.0840
  931MOL0     H22834   9.601   9.646   7.088 -1.9423 -0.1986  0.6452
  931MOL0     H22835   9.476   9.702   6.874 -0.9338  0.6108  0.9094
  931MOL0     H22836   9.523   9.546   6.808 -1.8456  1.9958 -2.2542
  931MOL0     H22837   9.366   9.588   7.061  0.5759 -1.1517  0.4702
  931MOL0     H22838   9.373   9.428   6.969 -1.3970 -0.4734 -0.1539
  931MOL0     H22839   9.249   9.556   6.773 -0.9604  2.7756 -0.3202
  931MOL0     H22840   9.267   9.699   6.864 -1.3590 -0.1732 -1.9261
  931MOL0     H22841   9.099   9.455   6.948  0.2195  0.2028 -1.1092
  931MOL0     H22842   9.125   9.596   7.041  0.6181  0.3335 -0.4410
  931MOL0     H22843   9.006   9.620   6.751 -1.4717 -1.6666  0.2695
  931MOL0     H22844   9.006   9.741   6.875 -3.7768  0.4215 -0.6232
  931MOL0     H22845   8.843   9.627   7.112  3.8136 -2.3370 -0.3240
  931MOL0     H22846   8.619   9.539   7.210  1.0076 -0.0249 -0.6127
  931MOL0     H22847   8.524   9.421   7.109 -0.5084  0.4059  0.8691
  931MOL0     H22848   8.433   9.588   6.972  1.0247 -2.0964  0.1982
  931MOL0     H22849   8.520   9.723   7.066  0.8376  0.5175 -2.4787
  931MOL0     H22850   8.319   9.528   7.183 -0.8637 -0.1084 -2.0010
  931MOL0     H22851   8.385   9.671   7.262  1.0862  1.5603 -1.4760
  931MOL0     H22852   8.221   9.682   7.017 -1.8658  1.1074 -0.7712
  931MOL0     H22853   8.271   9.823   7.110  0.0121  0.0362  1.0364
  931MOL0     H22854   8.054   9.820   6.955  1.0753 -2.6057 -1.0882
  931MOL0     H22855   7.816   9.831   6.890  0.1692 -0.3269  0.0364
  931MOL0     H22856   7.435   9.812   6.724 -0.3532  1.9911 -0.8807
  931MOL0     H22857   7.184   9.809   6.694  1.8233 -0.2214 -0.6761
  931MOL0     H22858   6.908   9.794   6.742  0.0017  0.7831  0.0486
  931MOL0     H22859   7.006   9.928   6.691  0.7101 -1.9275 -0.1958
  931MOL0     H22860   6.796  10.044   6.708  3.6883  2.7557 -1.4379
  931MOL0     H22861   6.862  10.082   6.855 -1.4420  0.3600 -0.1082
  931MOL0     H22862   6.684   9.824   6.843 -2.8827 -0.0492  0.9093
  931MOL0     H22863   6.624   9.979   6.857  0.9389  0.7431  0.9654
  931MOL0     H22864   6.833   9.856   7.051  0.6695  1.4709  0.0678
  931MOL0     H22865   6.762  10.015   7.068  1.6366  0.6235 -1.8455
  931MOL0     H22866   6.622   9.742   7.047  5.7689 -1.0839  0.6939
  931MOL0     H22867   6.538   9.901   7.077 -0.2287  0.5690  1.9736
  931MOL0     H22868   6.648   9.914   7.305  0.5341  1.4353 -0.7556
  931MOL0     H22869   6.739   9.769   7.252 -0.7697 -0.1961  1.2640
  931MOL0     H22870   6.544   9.639   7.261 -1.2346  1.5358 -3.0030
  931MOL0     H22871   6.548   9.738   7.415 -1.1183 -2.7551  0.3193
  931MOL0     H22872   6.317   9.707   7.298 -1.3627  1.3862 -0.7184
  931MOL0     H22873   6.376   9.794   7.172 -0.1121 -1.8274  0.2380
  931MOL0     H22874   7.135   9.944   7.093  0.4394  0.2142  0.3632
  931MOL0     H22875   7.388   9.943   7.128 -0.0729  0.6512 -0.2176
  931MOL0     H22876   7.684   9.640   7.251 -0.3882  0.7699  0.1600
  931MOL0     H22877   7.915   9.658   7.341 -0.1305  1.5688  0.2897
  931MOL0     H22878  10.014   9.436   7.248 -2.3421  1.0096  0.2989
  931MOL0     H22879  10.194   9.519   7.391  2.2758  0.4580 -0.7105
  931MOL0     H22880  10.700   9.618   7.257  0.6996 -0.6180  1.2691
  931MOL0     H22881  10.896   9.688   7.374  0.2597 -3.0612  3.3193
  931MOL0     H22882  11.094   9.784   7.500 -0.5999 -0.1320  0.2191
  931MOL0     H22883  11.010   9.652   7.598 -3.7324  1.8156  2.0466
  931MOL0     H22884  11.097   9.715   7.790  2.2859  0.4761  2.0036
  931MOL0     H22885  11.233   9.726   7.680  1.4516  1.9082  1.4213
  931MOL0     H22886  11.070   9.966   7.758 -0.9715 -0.9108 -0.8791
  931MOL0     H22887  11.224   9.962   7.663  4.6301 -4.3914  0.3330
  931MOL0     H22888  11.204   9.855   7.945 -1.3248 -3.2879 -2.6810
  931MOL0     H22889  11.340   9.852   7.844 -1.5277 -3.3290  0.5190
  931MOL0     H22890  11.412  10.243   7.918 -0.1547  0.2726  1.4581
  931MOL0     H22891  10.658   9.899   7.674  2.0019 -0.2337 -0.2895
  931MOL0     H22892  10.458   9.820   7.557 -0.5824  0.4921  1.3006
  932MOL0     O22893   9.632   8.452  10.924 -0.1923 -0.4952 -0.0322
  932MOL0     C22894   9.637   8.339  10.886  0.3034 -0.2263  0.5704
  932MOL0     O22895   9.533   8.257  10.894  0.2234  0.5021  0.2066
  932MOL0     C22896   9.425   8.309  10.964 -0.0981  0.9146 -0.1206
  932MOL0     C22897   9.433   8.347  11.095  0.4187  0.2644  0.0679
  932MOL0     C22898   9.322   8.403  11.155  0.5828 -0.3863  0.2967
  932MOL0     C22899   9.199   8.420  11.091 -0.8209  0.0945  0.6318
  932MOL0     O22900   9.092   8.481  11.149  0.1007  0.2470 -0.4454
  932MOL0     C22901   9.050   8.418  11.271 -0.4874  0.5003 -0.2911
  932MOL0     C22902   8.895   8.427  11.287  0.0365  0.4786 -0.3464
  932MOL0     C22903   8.820   8.381  11.162  0.1961  0.3173  0.0172
  932MOL0     C22904   8.676   8.396  11.180  1.0223  0.8150 -0.0489
  932MOL0     C22905   8.589   8.313  11.085 -0.1844  0.1181 -0.1761
  932MOL0     C22906   8.496   8.214  11.167 -0.1951  0.1755 -0.5093
  932MOL0     C22907   8.406   8.133  11.078 -0.5426  0.4061  0.3476
  932MOL0     C22908   8.335   8.022  11.149  0.2934  0.0831 -0.1340
  932MOL0     N22909   8.251   7.940  11.051 -0.3572 -0.0766  0.0906
  932MOL0     C22910   8.114   7.952  11.033  0.5225 -0.2819  0.7474
  932MOL0     C22911   8.083   7.874  10.923  0.1206  0.6158  0.2436
  932MOL0     C22912   7.947   7.837  10.872 -0.1888  0.5871  0.4732
  932MOL0     C22913   7.948   7.695  10.818  0.2124  0.3637 -0.6028
  932MOL0     C22914   7.992   7.582  10.925 -1.1286 -0.4018  0.3276
  932MOL0     C22915   7.965   7.440  10.861 -0.2347 -0.4482  0.3936
  932MOL0     O22916   7.837   7.440  10.801 -0.1860  0.2812  0.0628
  932MOL0     C22917   7.729   7.387  10.869  1.1627  1.5841 -0.1328
  932MOL0     C22918   7.716   7.344  10.999  0.6795 -0.8364  0.3384
  932MOL0     C22919   7.607   7.256  11.033 -0.2956 -0.3119 -0.8825
  932MOL0     C22920   7.507   7.229  10.939 -1.0790 -0.2908 -0.7133
  932MOL0     C22921   7.387   7.161  10.982 -0.3229  0.3779  0.3729
  932MOL0     O22922   7.297   7.118  10.886 -0.2841  0.7128 -0.0368
  932MOL0     C22923   7.172   7.083  10.917  0.5142  0.5226 -0.4131
  932MOL0     C22924   7.092   7.159  11.004  0.0133  0.6382 -0.1667
  932MOL0     C22925   6.961   7.114  11.036 -0.2631  0.6837  0.4731
  932MOL0     C22926   6.907   7.002  10.975  0.1071  0.2054  0.6532
  932MOL0     O22927   6.777   6.974  11.012  0.7099  0.5362  0.5400
  932MOL0     C22928   6.695   6.878  10.937  0.8030  0.2057  0.1244
  932MOL0     C22929   6.552   6.875  11.004  0.2462 -0.1923 -0.3214
  932MOL0     C22930   6.465   6.774  10.937 -0.1576 -0.0723 -0.2473
  932MOL0     C22931   6.315   6.811  10.969 -0.6307  0.0646 -1.1289
  932MOL0     C22932   6.212   6.737  10.887  0.1301 -0.3640  0.7614
  932MOL0     C22933   6.065   6.784  10.882 -1.1122  0.1799  0.9824
  932MOL0     C22934   6.045   6.920  10.816  0.1185  1.0383  0.3081
  932MOL0     C22935   5.898   6.932  10.764  0.2424 -0.4221 -0.1472
  932MOL0    Cl22936   5.844   6.804  10.645 -0.2578 -0.5050 -0.1019
  932MOL0     C22937   6.986   6.923  10.890 -0.3021 -0.2986  0.1401
  932MOL0     C22938   7.121   6.962  10.870  0.0618 -0.8669  0.1318
  932MOL0     O22939   7.370   7.158  11.101  0.4019  0.6675 -0.4900
  932MOL0     C22940   7.516   7.271  10.809 -0.2286 -0.0198  0.7463
  932MOL0     C22941   7.627   7.349  10.773  0.0009  0.2897  0.2474
  932MOL0     N22942   8.204   7.833  10.866 -0.1114  0.3660 -0.5574
  932MOL0     N22943   8.299   7.868  10.947  0.4910  0.7096  0.6234
  932MOL0     C22944   9.195   8.390  10.945 -0.7008  0.0970  0.1564
  932MOL0     C22945   9.306   8.328  10.896 -0.2997 -0.5586  0.5550
  932MOL0     C22946   9.760   8.279  10.840 -0.6030 -0.2185 -0.2911
  932MOL0     C22947   9.769   8.157  10.770 -0.1224 -0.1651 -0.8777
  932MOL0     C22948   9.885   8.093  10.725 -0.3377 -0.3583 -0.1878
  932MOL0     C22949  10.007   8.160  10.747 -0.3072 -0.5959  0.1602
  932MOL0     O22950  10.115   8.103  10.693 -1.2540 -0.0154  0.3940
  932MOL0     C22951  10.246   8.124  10.745  0.5448  0.0838  0.6267
  932MOL0     C22952  10.317   7.990  10.761  0.7196  0.3230  0.0691
  932MOL0     C22953  10.465   8.006  10.778 -0.4622  1.0996 -0.0030
  932MOL0     C22954  10.519   7.892  10.860  0.9866 -0.1436 -0.1205
  932MOL0     C22955  10.536   7.774  10.780 -0.3591  0.8342 -0.1265
  932MOL0     C22956  10.550   7.669  10.728 -0.2087  0.3563 -0.1355
  932MOL0     C22957  10.008   8.285  10.805 -0.1938 -0.0556 -0.4046
  932MOL0     C22958   9.887   8.348  10.844  0.2516  0.4652 -0.4168
  932MOL0     H22959   9.525   8.337  11.151  0.7344  2.7905  0.1468
  932MOL0     H22960   9.334   8.427  11.261  0.8593  0.4046  0.0971
  932MOL0     H22961   9.113   8.468  11.345  0.9143 -0.2907 -0.9229
  932MOL0     H22962   9.084   8.315  11.280  0.4189  0.7341 -0.9428
  932MOL0     H22963   8.875   8.534  11.299  0.4713  0.7374 -1.7682
  932MOL0     H22964   8.863   8.371  11.376 -0.3765 -2.4079 -2.1843
  932MOL0     H22965   8.849   8.275  11.162 -0.4068  0.1111  1.9417
  932MOL0     H22966   8.856   8.428  11.070  0.7514  2.7151  1.3886
  932MOL0     H22967   8.661   8.365  11.283 -2.5116 -0.0652 -0.6846
  932MOL0     H22968   8.644   8.500  11.164 -0.0195  0.0352 -4.1761
  932MOL0     H22969   8.663   8.265  11.020 -0.6550  1.0631 -1.4416
  932MOL0     H22970   8.530   8.376  11.018 -2.0247 -0.9762  0.3396
  932MOL0     H22971   8.431   8.269  11.236  0.2386 -2.1866  1.9452
  932MOL0     H22972   8.566   8.145  11.216 -0.7157  0.5010  0.7440
  932MOL0     H22973   8.341   8.206  11.028 -3.3910 -2.5265 -0.5631
  932MOL0     H22974   8.471   8.086  11.004  2.4155  2.8091  1.2035
  932MOL0     H22975   8.268   8.069  11.222 -2.6513 -0.8469 -2.0396
  932MOL0     H22976   8.410   7.958  11.196 -0.0751 -1.5865 -1.7266
  932MOL0     H22977   8.051   8.009  11.100 -0.5432 -0.9822  0.3737
  932MOL0     H22978   7.912   7.902  10.791 -2.1676 -1.5496 -0.5355
  932MOL0     H22979   7.874   7.845  10.954  0.8312 -0.0556  1.4696
  932MOL0     H22980   8.018   7.688  10.734 -0.2316 -1.1706 -0.8835
  932MOL0     H22981   7.842   7.672  10.803 -0.4651 -1.7474  4.9270
  932MOL0     H22982   8.100   7.590  10.941 -0.6189 -0.6754 -2.5598
  932MOL0     H22983   7.940   7.599  11.020  1.8275 -0.3281  2.0482
  932MOL0     H22984   7.967   7.361  10.937 -1.3739  0.0995  1.0175
  932MOL0     H22985   8.045   7.429  10.788  0.5707  0.3497  1.1213
  932MOL0     H22986   7.794   7.379  11.066 -0.1522  0.3138  0.7373
  932MOL0     H22987   7.596   7.238  11.139 -0.2009 -1.0310 -0.9909
  932MOL0     H22988   7.124   7.253  11.048 -1.4388  0.4948  1.2990
  932MOL0     H22989   6.904   7.169  11.110  1.3150 -1.0122  3.0970
  932MOL0     H22990   6.740   6.779  10.943  1.7213  0.6741  1.6771
  932MOL0     H22991   6.690   6.917  10.835  0.8523  3.1898  1.1407
  932MOL0     H22992   6.516   6.977  10.990  1.2788  0.0883 -1.0974
  932MOL0     H22993   6.560   6.843  11.108 -0.7106 -0.9835 -0.4705
  932MOL0     H22994   6.480   6.680  10.992  0.1123  1.0072  1.6114
  932MOL0     H22995   6.480   6.773  10.829  0.3068  0.8107 -0.2012
  932MOL0     H22996   6.291   6.777  11.070 -1.8253  2.0170 -0.6986
  932MOL0     H22997   6.312   6.920  10.965  3.5803  0.5719  2.3899
  932MOL0     H22998   6.217   6.636  10.928  1.4968  0.0894  1.7977
  932MOL0     H22999   6.248   6.721  10.785  1.5905  0.8049  1.0514
  932MOL0     H23000   6.029   6.773  10.985  0.0672 -1.0804  1.2773
  932MOL0     H23001   6.025   6.706  10.817  0.9632 -0.2176  0.1360
  932MOL0     H23002   6.068   6.982  10.904  2.0111  1.8660 -0.7272
  932MOL0     H23003   6.117   6.943  10.737 -1.3998 -0.0696 -1.4706
  932MOL0     H23004   5.898   7.032  10.718 -1.4380  0.9898  2.6263
  932MOL0     H23005   5.833   6.934  10.852  0.3135  0.5623 -0.1053
  932MOL0     H23006   6.952   6.829  10.847 -0.4808  1.3253 -3.6781
  932MOL0     H23007   7.188   6.915  10.798  0.9704  0.5943 -0.0264
  932MOL0     H23008   7.443   7.254  10.731  0.4249  3.0613 -0.6717
  932MOL0     H23009   7.628   7.388  10.672  1.8633  2.9844  1.1804
  932MOL0     H23010   9.100   8.406  10.895 -0.3021  2.2497  0.0086
  932MOL0     H23011   9.305   8.305  10.790  0.1359  1.4870  0.0632
  932MOL0     H23012   9.670   8.118  10.751 -0.7575  1.5158 -1.1632
  932MOL0     H23013   9.878   7.997  10.674 -2.6435  0.0467 -0.7589
  932MOL0     H23014  10.239   8.161  10.848 -0.1854 -0.3616  0.7520
  932MOL0     H23015  10.297   8.203  10.690 -1.1854  1.5594  1.0714
  932MOL0     H23016  10.275   7.951  10.854 -0.1271  0.0570 -0.4236
  932MOL0     H23017  10.304   7.924  10.676  2.7318 -0.3056  0.1912
  932MOL0     H23018  10.491   8.101  10.826  0.2705  0.9785 -0.1473
  932MOL0     H23019  10.519   7.998  10.683  1.3024 -4.5519  1.0939
  932MOL0     H23020  10.612   7.923  10.908  0.3360 -1.9017  2.4507
  932MOL0     H23021  10.445   7.870  10.938 -0.5523 -0.1653 -1.5074
  932MOL0     H23022  10.578   7.577  10.681 -1.9276  0.2677 -1.0630
  932MOL0     H23023  10.105   8.327  10.828  0.1283 -1.1032  0.1806
  932MOL0     H23024   9.905   8.443  10.893 -1.5946  0.1358  1.0172
  933MOL0     O23025   4.500  10.919   7.236 -0.3567 -0.1675  0.2936
  933MOL0     C23026   4.551  11.018   7.280  0.6631  0.2369 -0.1353
  933MOL0     O23027   4.484  11.131   7.317  0.2241  0.0913 -0.0396
  933MOL0     C23028   4.346  11.138   7.311 -0.1144 -0.1632 -0.7077
  933MOL0     C23029   4.282  11.105   7.189 -1.0249 -0.4266 -0.2972
  933MOL0     C23030   4.151  11.115   7.175 -0.4403 -0.3578 -0.1184
  933MOL0     C23031   4.075  11.170   7.279  1.1088 -0.3270  0.2870
  933MOL0     O23032   3.938  11.192   7.253 -0.4821 -0.1115  0.2566
  933MOL0     C23033   3.858  11.079   7.258 -0.0684  0.1336 -0.1320
  933MOL0     C23034   3.716  11.108   7.216 -0.0745 -0.3219 -0.3561
  933MOL0     C23035   3.670  11.089   7.060 -0.2976  0.2837  0.4009
  933MOL0     C23036   3.753  11.187   6.977 -0.2197 -0.1614 -0.3176
  933MOL0     C23037   3.720  11.186   6.829  0.2862 -0.4095 -0.3881
  933MOL0     C23038   3.816  11.275   6.756  0.4877 -0.0991 -0.0206
  933MOL0     C23039   3.775  11.308   6.604 -0.1703  0.3696 -0.0330
  933MOL0     C23040   3.645  11.387   6.596  0.0025  0.7049 -0.8950
  933MOL0     N23041   3.573  11.392   6.462  0.0480  0.2466 -0.0427
  933MOL0     C23042   3.466  11.310   6.424 -0.3289 -1.0715  0.5453
  933MOL0     C23043   3.440  11.361   6.306 -0.8040 -0.5406  1.0290
  933MOL0     C23044   3.317  11.339   6.227  0.7420  0.4010  0.2784
  933MOL0     C23045   3.352  11.314   6.073 -0.1267 -0.7621 -0.0587
  933MOL0     C23046   3.250  11.241   5.984  1.2582  0.0571 -0.3056
  933MOL0     C23047   3.135  11.329   5.945  0.1978 -0.3866 -0.3474
  933MOL0     O23048   3.046  11.362   6.056 -0.0471 -0.2814 -0.3457
  933MOL0     C23049   2.921  11.310   6.036 -0.4694 -0.0709  0.3623
  933MOL0     C23050   2.875  11.207   6.121 -0.2018  0.5130  0.6662
  933MOL0     C23051   2.743  11.172   6.114 -0.2716 -0.3215 -0.0433
  933MOL0     C23052   2.645  11.244   6.035  0.4420 -0.1135 -0.1482
  933MOL0     C23053   2.502  11.190   6.029 -0.2280 -0.7000 -0.8102
  933MOL0     O23054   2.421  11.238   5.929 -0.2396 -0.3323 -0.1561
  933MOL0     C23055   2.297  11.184   5.931  0.7953  0.3440  0.7002
  933MOL0     C23056   2.264  11.045   5.912 -0.1403 -0.3520  0.1230
  933MOL0     C23057   2.132  11.006   5.913  0.3408 -0.3494 -0.0816
  933MOL0     C23058   2.035  11.098   5.948  0.5175  0.2539  1.3360
  933MOL0     O23059   1.900  11.071   5.944 -0.6787 -0.2300 -0.2871
  933MOL0     C23060   1.862  10.970   6.041  0.1533 -0.6876  0.6505
  933MOL0     C23061   1.706  10.981   6.047  0.4695  1.5103 -0.3721
  933MOL0     C23062   1.666  10.908   6.176  1.2445  0.6333 -0.1203
  933MOL0     C23063   1.519  10.929   6.206  0.2011  0.1641 -0.0257
  933MOL0     C23064   1.474  10.817   6.307 -0.7346 -0.0109  0.0642
  933MOL0     C23065   1.352  10.849   6.394  0.9546 -0.4840  0.2506
  933MOL0     C23066   1.237  10.897   6.311 -0.2164 -0.9835  0.2586
  933MOL0     C23067   1.102  10.896   6.376  0.1125  0.0799 -0.6149
  933MOL0    Cl23068   1.059  11.043   6.457  0.3817  0.4434 -0.3255
  933MOL0     C23069   2.066  11.235   5.966  0.3743  0.1151  0.4811
  933MOL0     C23070   2.197  11.283   5.951  0.0748 -0.2925 -0.5035
  933MOL0     O23071   2.471  11.101   6.108 -0.2003 -0.7069  0.0651
  933MOL0     C23072   2.690  11.352   5.957  0.1104  0.3782 -0.5826
  933MOL0     C23073   2.828  11.375   5.954 -0.0603 -0.3648  0.1640
  933MOL0     N23074   3.537  11.459   6.265  0.1843  0.6932 -0.1489
  933MOL0     N23075   3.623  11.460   6.364 -0.5929  0.8157 -0.2846
  933MOL0     C23076   4.135  11.216   7.397  0.4836 -0.6836 -0.3877
  933MOL0     C23077   4.271  11.190   7.416 -0.4005  0.8363  0.1581
  933MOL0     C23078   4.694  11.018   7.306 -0.4178  0.9030 -0.3896
  933MOL0     C23079   4.775  10.912   7.272  0.1388 -0.2420  1.0852
  933MOL0     C23080   4.909  10.917   7.302  0.2730  0.8153  0.4790
  933MOL0     C23081   4.969  11.024   7.355  0.2540 -0.9392  0.2263
  933MOL0     O23082   5.104  11.038   7.386 -0.4890  0.6565 -0.0575
  933MOL0     C23083   5.195  10.962   7.304 -0.0647 -0.1782  0.0292
  933MOL0     C23084   5.334  11.031   7.283 -0.0130 -0.6900  0.3108
  933MOL0     C23085   5.446  10.951   7.358 -0.2409 -0.0943  0.3604
  933MOL0     C23086   5.585  11.003   7.325  0.4009  0.0921  0.4148
  933MOL0     C23087   5.678  10.926   7.395  0.2804 -0.4370 -0.3007
  933MOL0     C23088   5.748  10.861   7.471  0.3491  0.1862 -0.2279
  933MOL0     C23089   4.885  11.130   7.395  0.5100  0.3735 -0.2743
  933MOL0     C23090   4.753  11.127   7.369  0.1826  0.1114 -0.0247
  933MOL0     H23091   4.330  11.058   7.104  1.0832  2.9880 -1.2054
  933MOL0     H23092   4.108  11.081   7.081  1.7692 -1.9343 -0.6450
  933MOL0     H23093   3.871  11.057   7.364 -1.8627  0.5075  0.2012
  933MOL0     H23094   3.890  11.009   7.180  0.3563  0.6096 -0.3965
  933MOL0     H23095   3.694  11.210   7.248  0.4787 -0.5482  0.7932
  933MOL0     H23096   3.646  11.040   7.266 -1.2959  0.1776 -1.3492
  933MOL0     H23097   3.564  11.116   7.054 -0.5509 -0.6437  0.5018
  933MOL0     H23098   3.685  10.986   7.025  2.3109  0.7305 -0.0041
  933MOL0     H23099   3.732  11.290   7.010  0.0899  0.3189 -1.5620
  933MOL0     H23100   3.860  11.163   6.982 -0.0495  0.8167  1.2604
  933MOL0     H23101   3.615  11.214   6.815  0.6880  0.5650 -1.5878
  933MOL0     H23102   3.746  11.084   6.797 -0.3709 -0.5157 -0.5946
  933MOL0     H23103   3.916  11.230   6.763 -0.6922 -3.6313 -2.8753
  933MOL0     H23104   3.812  11.371   6.808 -1.6959 -0.0043 -0.2845
  933MOL0     H23105   3.853  11.377   6.571 -1.9866  1.3728 -2.4743
  933MOL0     H23106   3.766  11.222   6.537 -0.8175  1.6561 -1.6348
  933MOL0     H23107   3.654  11.489   6.634  1.0034  1.0092 -1.9045
  933MOL0     H23108   3.575  11.335   6.662  1.1036 -1.3095 -1.2181
  933MOL0     H23109   3.396  11.256   6.485 -2.0711 -0.0453 -0.4642
  933MOL0     H23110   3.250  11.425   6.221  0.8170  0.3453 -3.2865
  933MOL0     H23111   3.261  11.252   6.262 -1.8069  2.1403  0.8034
  933MOL0     H23112   3.447  11.262   6.089  1.0364  1.5745  1.0672
  933MOL0     H23113   3.387  11.410   6.036  0.9034 -1.0351  0.1809
  933MOL0     H23114   3.285  11.211   5.885  0.9431 -0.8279 -0.1552
  933MOL0     H23115   3.218  11.144   6.022  0.3643 -0.2395 -1.7613
  933MOL0     H23116   3.087  11.280   5.860 -0.9642 -2.9598  1.6680
  933MOL0     H23117   3.179  11.423   5.911 -1.0966  0.1778 -0.5064
  933MOL0     H23118   2.955  11.150   6.167  1.4411  1.0805 -1.3248
  933MOL0     H23119   2.703  11.086   6.167  0.2166 -2.2081 -2.5314
  933MOL0     H23120   2.345  10.975   5.892 -0.0044  0.1748 -1.2807
  933MOL0     H23121   2.111  10.910   5.865  2.3598 -0.7475 -0.2494
  933MOL0     H23122   1.911  10.991   6.137 -1.9429 -1.3863  1.9400
  933MOL0     H23123   1.901  10.875   6.004  0.4064 -0.7808  1.1348
  933MOL0     H23124   1.656  10.944   5.957 -1.7936  0.4846  1.2061
  933MOL0     H23125   1.683  11.087   6.059  3.5434  2.0683  1.8498
  933MOL0     H23126   1.722  10.944   6.262 -1.3337 -0.8021  2.3321
  933MOL0     H23127   1.679  10.800   6.166 -0.9267  0.3060  0.0873
  933MOL0     H23128   1.516  11.029   6.250 -0.9788 -1.0361  2.8263
  933MOL0     H23129   1.451  10.934   6.120 -1.8298  0.9348  1.5526
  933MOL0     H23130   1.559  10.795   6.372 -1.2621  0.2554  0.8597
  933MOL0     H23131   1.453  10.723   6.254 -1.4379  0.3990 -0.4000
  933MOL0     H23132   1.364  10.932   6.464 -0.9643  0.8408 -0.9059
  933MOL0     H23133   1.337  10.759   6.453  1.8767 -0.4666  0.5295
  933MOL0     H23134   1.248  11.001   6.279 -3.6315 -0.3894  0.6003
  933MOL0     H23135   1.240  10.832   6.223  0.3373 -0.8562  0.1818
  933MOL0     H23136   1.106  10.826   6.459  0.6026  2.5424  1.5507
  933MOL0     H23137   1.023  10.879   6.302  0.1332 -1.3184 -0.3505
  933MOL0     H23138   1.992  11.312   5.987 -1.2589 -0.8971 -1.1746
  933MOL0     H23139   2.231  11.385   5.963  0.3802 -0.5341  0.9058
  933MOL0     H23140   2.616  11.406   5.899 -0.9027 -0.0136  0.3169
  933MOL0     H23141   2.854  11.463   5.895  0.6824 -1.7116 -1.5933
  933MOL0     H23142   4.082  11.264   7.478  2.4199 -1.0465  1.1682
  933MOL0     H23143   4.316  11.225   7.508 -0.1966 -0.1130  0.4296
  933MOL0     H23144   4.736  10.817   7.236 -0.9354  0.6914 -0.3174
  933MOL0     H23145   4.968  10.835   7.262  1.9028  0.4460  3.3564
  933MOL0     H23146   5.166  10.947   7.199  0.5613  0.5944 -0.2677
  933MOL0     H23147   5.223  10.868   7.353  2.4999  0.7775  0.5195
  933MOL0     H23148   5.347  11.048   7.175 -2.9084  1.1930  0.1357
  933MOL0     H23149   5.329  11.129   7.332  0.6958 -0.5767  0.1745
  933MOL0     H23150   5.438  10.844   7.338 -1.1225 -0.0207  0.2603
  933MOL0     H23151   5.416  10.981   7.459 -1.2105  0.8776 -0.1881
  933MOL0     H23152   5.614  10.983   7.221  0.7842  3.6508 -0.3113
  933MOL0     H23153   5.599  11.109   7.350  0.2448  0.3536 -0.5832
  933MOL0     H23154   5.811  10.807   7.539 -1.7024 -1.4193  0.5158
  933MOL0     H23155   4.924  11.224   7.434 -1.1834  1.0728 -0.1402
  933MOL0     H23156   4.699  11.214   7.407 -1.1103 -0.3223 -0.8144
  934MOL0     O23157   1.453   4.135   7.378  0.6493 -0.9910 -0.5619
  934MOL0     C23158   1.344   4.081   7.394  0.2552 -0.3847  0.4929
  934MOL0     O23159   1.250   4.066   7.295 -0.1948 -0.4899  0.3088
  934MOL0     C23160   1.274   4.148   7.184 -0.2253  0.1858 -0.7963
  934MOL0     C23161   1.224   4.275   7.172  0.5370  0.2417 -0.2888
  934MOL0     C23162   1.224   4.334   7.049 -0.5337  0.4529 -0.3215
  934MOL0     C23163   1.309   4.277   6.948 -0.6286 -0.0687 -0.4595
  934MOL0     O23164   1.343   4.350   6.832 -0.1973  0.3153 -0.5637
  934MOL0     C23165   1.473   4.400   6.813 -0.2744  0.0148 -0.0888
  934MOL0     C23166   1.502   4.408   6.666  0.6997  0.9270  0.7850
  934MOL0     C23167   1.504   4.260   6.628 -0.0533 -0.2878  0.2849
  934MOL0     C23168   1.550   4.248   6.486 -0.3515  0.0471  0.3989
  934MOL0     C23169   1.597   4.097   6.447  0.6549  0.2543 -0.8085
  934MOL0     C23170   1.473   3.990   6.458 -0.5492 -0.4769 -0.3057
  934MOL0     C23171   1.378   4.029   6.352  0.1994  0.0750  0.4751
  934MOL0     C23172   1.288   3.924   6.283 -1.0222 -0.2700 -0.4253
  934MOL0     N23173   1.161   3.922   6.346  0.9993  0.2846 -0.5247
  934MOL0     C23174   1.067   4.027   6.365  0.1940  0.2003  0.3449
  934MOL0     C23175   0.972   3.975   6.448 -0.0301  0.2258 -0.3339
  934MOL0     C23176   0.846   4.049   6.484 -0.1737  0.2145 -0.1152
  934MOL0     C23177   0.748   3.950   6.555  1.1331  0.2272  1.1173
  934MOL0     C23178   0.606   4.017   6.561  0.3877 -0.3415 -0.3611
  934MOL0     C23179   0.510   3.926   6.628  0.4635  0.0843 -0.3947
  934MOL0     O23180   0.399   4.007   6.659  0.3347 -0.3533  0.3869
  934MOL0     C23181   0.277   3.943   6.665  1.0687 -0.5638  0.2802
  934MOL0     C23182   0.165   4.023   6.654  0.5362  0.6547 -0.6476
  934MOL0     C23183   0.038   3.968   6.648  0.1725 -0.6827  0.6591
  934MOL0     C23184   0.016   3.828   6.674  0.9367  0.2323 -0.8606
  934MOL0     C23185  -0.121   3.776   6.689 -0.2703  0.2944 -0.2073
  934MOL0     O23186  -0.222   3.844   6.624 -0.3383  0.3387  0.4075
  934MOL0     C23187  -0.352   3.812   6.643  0.4708  0.0782 -0.3288
  934MOL0     C23188  -0.433   3.765   6.536 -0.0873 -0.0755  0.1090
  934MOL0     C23189  -0.562   3.707   6.553 -0.0602 -0.2506  0.1967
  934MOL0     C23190  -0.612   3.700   6.684 -0.4980  0.2083  1.1070
  934MOL0     O23191  -0.733   3.637   6.712  0.3355  0.0090 -0.2113
  934MOL0     C23192  -0.822   3.626   6.599 -0.2354 -0.3971  0.3366
  934MOL0     C23193  -0.962   3.585   6.657 -0.1433 -0.4380  0.2678
  934MOL0     C23194  -1.046   3.505   6.548  0.4999 -0.0953 -0.8859
  934MOL0     C23195  -1.169   3.433   6.599 -0.1664  0.6396 -0.6848
  934MOL0     C23196  -1.236   3.355   6.490 -0.1118 -0.0928 -0.2801
  934MOL0     C23197  -1.362   3.278   6.528  0.3913  0.3205  0.3034
  934MOL0     C23198  -1.429   3.233   6.405  0.1572  0.7169  0.0011
  934MOL0     C23199  -1.574   3.191   6.424  0.1195 -0.6147  0.3841
  934MOL0    Cl23200  -1.582   3.091   6.567 -0.1454 -0.0208  0.1466
  934MOL0     C23201  -0.538   3.759   6.791  0.0034 -0.3548  0.4333
  934MOL0     C23202  -0.407   3.808   6.777 -0.3401  0.3285 -0.1575
  934MOL0     O23203  -0.131   3.671   6.756  0.3980 -0.0373 -0.6564
  934MOL0     C23204   0.130   3.751   6.702 -0.2512  0.1776 -0.6963
  934MOL0     C23205   0.259   3.807   6.688  0.2456  0.0322 -0.2686
  934MOL0     N23206   1.010   3.842   6.484  0.0851  0.9197 -0.1319
  934MOL0     N23207   1.125   3.820   6.430 -0.6022 -0.0149  0.2630
  934MOL0     C23208   1.389   4.166   6.978  0.9124 -0.8113 -0.9802
  934MOL0     C23209   1.364   4.094   7.087  0.7603  0.5599  0.3776
  934MOL0     C23210   1.296   4.038   7.530 -0.5552 -0.1053  0.9105
  934MOL0     C23211   1.168   3.984   7.564  0.2151 -0.1545 -0.2722
  934MOL0     C23212   1.139   3.941   7.694 -0.2355  0.0552  0.2168
  934MOL0     C23213   1.229   3.966   7.798  0.2952  0.0660 -0.4171
  934MOL0     O23214   1.202   3.943   7.936 -0.2325 -0.0505  0.1962
  934MOL0     C23215   1.068   3.912   7.969  0.1811  1.1679 -0.3253
  934MOL0     C23216   1.046   3.932   8.116 -0.6403  0.0211  0.3548
  934MOL0     C23217   1.137   3.838   8.201  0.8425  0.6380 -0.3031
  934MOL0     C23218   1.224   3.915   8.294 -0.3124 -0.3107  0.3216
  934MOL0     C23219   1.163   4.003   8.391 -1.1084  0.5602  0.1013
  934MOL0     C23220   1.121   4.074   8.481 -0.2565  0.3031 -0.2469
  934MOL0     C23221   1.359   4.010   7.775  0.4133  0.5331 -0.6295
  934MOL0     C23222   1.383   4.046   7.643  0.1880 -0.1246 -0.3084
  934MOL0     H23223   1.173   4.322   7.256 -4.0007 -3.0352 -0.7804
  934MOL0     H23224   1.182   4.431   7.023  0.0137  1.1263  1.1612
  934MOL0     H23225   1.543   4.326   6.853 -1.4584 -2.4344 -2.2013
  934MOL0     H23226   1.470   4.500   6.858  0.2907  0.4340 -0.9725
  934MOL0     H23227   1.600   4.455   6.664  0.1441  2.1292 -0.9113
  934MOL0     H23228   1.422   4.458   6.610  0.5240 -1.5947 -1.3763
  934MOL0     H23229   1.408   4.210   6.643  0.4183 -2.6187 -3.1901
  934MOL0     H23230   1.571   4.201   6.691 -0.4356 -2.7813 -1.4917
  934MOL0     H23231   1.478   4.286   6.412 -0.2841 -2.4053 -1.0270
  934MOL0     H23232   1.643   4.306   6.488 -0.5067  0.3100  0.1303
  934MOL0     H23233   1.671   4.058   6.517 -0.8255 -1.8841 -0.3298
  934MOL0     H23234   1.640   4.084   6.347  2.5558 -1.9651  0.1920
  934MOL0     H23235   1.433   3.988   6.560 -2.7051  1.3368 -1.0500
  934MOL0     H23236   1.512   3.891   6.432  2.4035  0.8058 -1.1784
  934MOL0     H23237   1.313   4.106   6.394  1.3873 -0.0805  2.7959
  934MOL0     H23238   1.440   4.065   6.270  0.8101 -3.9216 -1.0518
  934MOL0     H23239   1.326   3.821   6.280 -0.7955 -0.2096  0.3407
  934MOL0     H23240   1.276   3.962   6.181  0.1943  0.2434 -0.3997
  934MOL0     H23241   1.058   4.124   6.318  1.8655  0.1135 -0.2199
  934MOL0     H23242   0.807   4.109   6.401  0.9281  0.5843 -0.3945
  934MOL0     H23243   0.880   4.110   6.567 -0.3954 -0.6393  0.6179
  934MOL0     H23244   0.784   3.934   6.657  2.2905  0.3933  0.7484
  934MOL0     H23245   0.747   3.858   6.496  2.2120  1.6199 -1.1958
  934MOL0     H23246   0.619   4.106   6.624 -1.1442 -0.1321 -0.2809
  934MOL0     H23247   0.568   4.047   6.462 -0.9217 -0.3273  0.1197
  934MOL0     H23248   0.555   3.883   6.718 -2.4310 -0.0638  1.0796
  934MOL0     H23249   0.483   3.840   6.567 -0.0747 -0.2713  0.3358
  934MOL0     H23250   0.172   4.129   6.633  0.9278  0.4218 -1.8008
  934MOL0     H23251  -0.050   4.025   6.619  0.7919 -1.2363 -2.8049
  934MOL0     H23252  -0.382   3.752   6.441  1.2676  0.7849  0.6815
  934MOL0     H23253  -0.612   3.668   6.465  0.8440 -3.1817  0.8746
  934MOL0     H23254  -0.785   3.537   6.546  0.7651  0.2204 -0.0267
  934MOL0     H23255  -0.836   3.712   6.533 -3.7312 -0.5888  0.6584
  934MOL0     H23256  -1.014   3.675   6.691 -0.0173 -1.3209  3.0184
  934MOL0     H23257  -0.945   3.520   6.743 -1.5043 -3.0670 -1.3047
  934MOL0     H23258  -0.985   3.424   6.508 -0.8897 -1.5189 -0.2260
  934MOL0     H23259  -1.066   3.586   6.478  1.4886  2.5761  1.7097
  934MOL0     H23260  -1.141   3.359   6.674 -1.2032  1.6550  0.7584
  934MOL0     H23261  -1.233   3.505   6.651 -2.4529 -1.7470  0.0338
  934MOL0     H23262  -1.161   3.281   6.459  0.9886  0.6726  0.4825
  934MOL0     H23263  -1.253   3.424   6.407 -2.9398  2.4331  2.1299
  934MOL0     H23264  -1.428   3.336   6.594 -0.4852  0.8728 -1.0055
  934MOL0     H23265  -1.335   3.192   6.590  1.0999  0.4515  0.1853
  934MOL0     H23266  -1.433   3.304   6.322 -0.4192 -1.1413 -1.6271
  934MOL0     H23267  -1.366   3.149   6.375  3.6327  2.5909  1.4386
  934MOL0     H23268  -1.596   3.131   6.335  4.2655  1.4452 -2.3587
  934MOL0     H23269  -1.645   3.274   6.422  1.4507  0.5537 -1.8381
  934MOL0     H23270  -0.575   3.767   6.893 -2.4334  3.1738 -0.5397
  934MOL0     H23271  -0.342   3.848   6.854 -1.8173 -2.2270  2.6126
  934MOL0     H23272   0.120   3.645   6.720  2.8608 -0.3014 -1.1158
  934MOL0     H23273   0.340   3.739   6.710 -0.5543 -0.9420 -0.2226
  934MOL0     H23274   1.462   4.134   6.905  0.5594 -1.9456 -0.8547
  934MOL0     H23275   1.420   4.001   7.097 -1.0744 -0.4528  2.0808
  934MOL0     H23276   1.092   3.967   7.488 -3.4877  3.7340  2.0544
  934MOL0     H23277   1.041   3.898   7.708 -0.3318  0.2185  0.0522
  934MOL0     H23278   1.036   3.811   7.943 -1.1582  1.6053 -0.4536
  934MOL0     H23279   1.011   3.987   7.913 -1.0636  2.2551  2.2324
  934MOL0     H23280   1.075   4.035   8.137  3.0623 -1.0347  1.0838
  934MOL0     H23281   0.944   3.912   8.149 -0.2162 -1.0281  1.0917
  934MOL0     H23282   1.203   3.774   8.141  0.9341  1.4480 -1.0866
  934MOL0     H23283   1.068   3.774   8.257 -0.3598  2.2002  0.0366
  934MOL0     H23284   1.283   3.843   8.351 -1.7607 -0.3071  1.9086
  934MOL0     H23285   1.293   3.976   8.235 -0.3169 -0.8703 -0.2758
  934MOL0     H23286   1.076   4.135   8.557  0.8215 -0.4627  1.0466
  934MOL0     H23287   1.432   4.016   7.855  0.9407 -3.8960 -0.5142
  934MOL0     H23288   1.485   4.071   7.614 -0.6553  0.3309 -3.2028
  935MOL0     O23289   3.214   3.820  11.180  0.4253  0.5518 -0.3414
  935MOL0     C23290   3.312   3.747  11.168  0.2882  0.6434 -0.2120
  935MOL0     O23291   3.321   3.619  11.205  0.6112 -0.0125  0.3841
  935MOL0     C23292   3.213   3.541  11.242  0.1336  0.3947 -0.0855
  935MOL0     C23293   3.250   3.417  11.296 -0.5361 -0.7892 -0.1109
  935MOL0     C23294   3.145   3.333  11.347  0.0318 -0.5233 -0.4981
  935MOL0     C23295   3.015   3.365  11.328  0.1854  0.6899 -0.0411
  935MOL0     O23296   2.935   3.265  11.370 -0.2603  0.2906 -0.7618
  935MOL0     C23297   2.795   3.262  11.345 -0.0742  0.8090 -1.0427
  935MOL0     C23298   2.726   3.213  11.469 -0.3667 -0.8956  0.7254
  935MOL0     C23299   2.573   3.178  11.432  0.7965  0.5147 -0.0403
  935MOL0     C23300   2.477   3.170  11.555 -0.8232 -0.2380  0.3719
  935MOL0     C23301   2.328   3.163  11.506 -0.1418  0.4939 -0.1383
  935MOL0     C23302   2.238   3.125  11.633 -1.0550 -0.3855  0.6506
  935MOL0     C23303   2.088   3.145  11.606  0.2346  0.2102  0.2072
  935MOL0     C23304   2.004   3.147  11.745 -0.7998 -0.5567  0.5812
  935MOL0     N23305   1.861   3.114  11.712  0.2258  0.1057 -0.0004
  935MOL0     C23306   1.771   3.207  11.673 -0.8933  0.2879 -0.1392
  935MOL0     C23307   1.656   3.146  11.675 -0.5253 -0.3671  0.3104
  935MOL0     C23308   1.523   3.211  11.645 -0.9925  0.0296  0.4769
  935MOL0     C23309   1.451   3.292  11.755  0.3969  1.1265 -0.0046
  935MOL0     C23310   1.542   3.390  11.829 -0.2600  0.4958 -0.1354
  935MOL0     C23311   1.468   3.484  11.921 -0.1563 -0.3052  0.0878
  935MOL0     O23312   1.386   3.570  11.832 -0.2822  0.0952 -0.2276
  935MOL0     C23313   1.297   3.665  11.870  0.0788 -0.4710 -0.2338
  935MOL0     C23314   1.255   3.686  12.008 -0.6111  0.3449  0.4519
  935MOL0     C23315   1.155   3.792  12.028 -1.6351  0.3469 -0.0636
  935MOL0     C23316   1.100   3.874  11.925  0.0793  0.9799 -0.1905
  935MOL0     C23317   0.999   3.981  11.946 -0.4225  0.5210 -0.7521
  935MOL0     O23318   0.947   4.039  11.835  0.8590 -0.5610  0.7711
  935MOL0     C23319   0.898   4.165  11.856  0.7600 -0.4527 -0.4970
  935MOL0     C23320   0.977   4.275  11.828  0.6046  0.7161  0.3483
  935MOL0     C23321   0.945   4.408  11.856  0.5219  0.9659 -0.3850
  935MOL0     C23322   0.820   4.424  11.913  1.1023 -0.0684 -0.5551
  935MOL0     O23323   0.778   4.558  11.918  0.2806  0.6842  0.8107
  935MOL0     C23324   0.671   4.601  12.011  0.0039 -0.4806  0.5060
  935MOL0     C23325   0.662   4.748  11.983  0.1906  0.0868 -0.7064
  935MOL0     C23326   0.527   4.793  12.054 -0.0248 -0.4279 -0.3776
  935MOL0     C23327   0.526   4.942  12.062 -0.7239 -0.4571 -0.0531
  935MOL0     C23328   0.410   4.994  12.153 -0.5869 -0.0569 -0.2600
  935MOL0     C23329   0.413   5.152  12.146  0.0962  0.6839  0.1030
  935MOL0     C23330   0.323   5.215  12.258 -0.7224 -0.2311 -0.1499
  935MOL0     C23331   0.174   5.191  12.229 -0.8684  0.4897 -0.2893
  935MOL0    Cl23332   0.124   5.028  12.281  0.3090  0.4045 -0.3762
  935MOL0     C23333   0.730   4.316  11.940 -0.1370 -0.0053 -0.8158
  935MOL0     C23334   0.773   4.188  11.908 -0.6480  0.0056 -0.5575
  935MOL0     O23335   0.971   4.009  12.059 -0.3539 -0.2532 -0.4303
  935MOL0     C23336   1.155   3.853  11.793 -0.8464 -0.1288  0.5077
  935MOL0     C23337   1.238   3.743  11.772 -1.6852 -0.2739 -0.5867
  935MOL0     N23338   1.674   3.011  11.715  0.8572  0.0554 -1.2485
  935MOL0     N23339   1.805   2.991  11.719  0.2396 -0.2183  0.4864
  935MOL0     C23340   2.979   3.474  11.246  0.2739 -0.3669  0.8112
  935MOL0     C23341   3.084   3.563  11.196  0.4698 -0.0516  0.2836
  935MOL0     C23342   3.429   3.816  11.101 -0.1931  0.5207  0.1991
  935MOL0     C23343   3.441   3.956  11.095 -0.1521 -0.4030  0.6676
  935MOL0     C23344   3.556   4.009  11.028  0.6634  0.6335 -0.1793
  935MOL0     C23345   3.656   3.926  10.972  0.0649 -0.2317 -0.1690
  935MOL0     O23346   3.767   3.992  10.915 -0.3057 -0.5404 -0.7470
  935MOL0     C23347   3.848   3.919  10.824  0.3357  0.3114  0.1676
  935MOL0     C23348   3.941   4.009  10.752 -0.0207  0.0706 -1.1512
  935MOL0     C23349   3.873   4.113  10.667  0.0442  0.0087  0.0465
  935MOL0     C23350   3.952   4.225  10.612 -0.6775  0.0571 -0.4501
  935MOL0     C23351   4.060   4.165  10.537 -0.6456 -0.4021  0.6304
  935MOL0     C23352   4.151   4.117  10.464 -0.0554 -1.0648 -0.0341
  935MOL0     C23353   3.645   3.788  10.983 -0.3258 -1.2492  0.2565
  935MOL0     C23354   3.525   3.737  11.040  0.1995 -0.2419  0.1537
  935MOL0     H23355   3.357   3.400  11.295 -0.5565 -0.9650  0.4421
  935MOL0     H23356   3.153   3.234  11.389 -2.7784 -1.9454 -2.9826
  935MOL0     H23357   2.788   3.201  11.255 -0.7196  3.1407 -2.6794
  935MOL0     H23358   2.756   3.360  11.315 -0.2920  0.6649 -1.2287
  935MOL0     H23359   2.740   3.291  11.545 -1.0938 -0.4610  0.4152
  935MOL0     H23360   2.759   3.116  11.508 -0.8689 -1.4282 -0.1611
  935MOL0     H23361   2.565   3.095  11.362  1.4976  0.2665  0.1595
  935MOL0     H23362   2.549   3.271  11.379 -2.7735  0.2465  0.8438
  935MOL0     H23363   2.505   3.080  11.610  2.5215  1.1024  1.0519
  935MOL0     H23364   2.508   3.254  11.618  1.1578  1.2152 -2.3442
  935MOL0     H23365   2.315   3.097  11.419  1.0768 -0.5207  0.4125
  935MOL0     H23366   2.299   3.263  11.472  0.3021  0.3589 -0.9269
  935MOL0     H23367   2.273   3.207  11.696 -1.6167 -0.5228  1.1533
  935MOL0     H23368   2.254   3.025  11.676 -0.2600  0.1470  1.6571
  935MOL0     H23369   2.080   3.241  11.555 -1.1205  0.7016  1.2891
  935MOL0     H23370   2.056   3.062  11.543 -0.0279  1.1806 -0.9635
  935MOL0     H23371   2.012   3.246  11.791 -3.0518  0.4775 -1.0615
  935MOL0     H23372   2.046   3.070  11.810 -1.9446 -1.6319  0.0960
  935MOL0     H23373   1.790   3.309  11.642  1.6718 -1.0081 -3.4370
  935MOL0     H23374   1.453   3.144  11.594 -0.8607  1.3995 -1.6373
  935MOL0     H23375   1.544   3.278  11.560 -0.6706 -0.7424 -0.0656
  935MOL0     H23376   1.403   3.217  11.819 -1.6530  1.5299 -1.0003
  935MOL0     H23377   1.370   3.351  11.712 -0.5514  1.8547  2.6025
  935MOL0     H23378   1.616   3.330  11.883 -1.6908  1.3852  3.0010
  935MOL0     H23379   1.582   3.455  11.750  0.7461  1.3875  1.0752
  935MOL0     H23380   1.535   3.541  11.986 -1.7339  2.0414 -0.1931
  935MOL0     H23381   1.408   3.422  11.988  0.3237 -2.1119 -1.0862
  935MOL0     H23382   1.291   3.619  12.086  1.1537 -0.2379 -0.7894
  935MOL0     H23383   1.123   3.824  12.127 -2.1219 -0.5816  0.0845
  935MOL0     H23384   1.075   4.246  11.791  0.0569 -2.6219  1.1745
  935MOL0     H23385   1.008   4.496  11.854  2.5192 -0.1281  3.9945
  935MOL0     H23386   0.697   4.584  12.116  1.4254  2.8659  0.8249
  935MOL0     H23387   0.577   4.553  11.982 -0.1742 -0.1875  0.5917
  935MOL0     H23388   0.665   4.776  11.877  2.4279  0.9035 -0.4703
  935MOL0     H23389   0.753   4.798  12.015  0.6720 -1.2671  0.1224
  935MOL0     H23390   0.507   4.747  12.151  1.7869 -1.2734 -0.3612
  935MOL0     H23391   0.443   4.764  11.989  0.0720  0.9254 -1.1315
  935MOL0     H23392   0.624   4.968  12.105 -1.1884 -0.9735  1.3564
  935MOL0     H23393   0.520   4.983  11.961  1.1980 -2.1387 -0.9273
  935MOL0     H23394   0.430   4.961  12.255  2.7409  1.4462 -0.2857
  935MOL0     H23395   0.317   4.955  12.110  0.4253 -0.1368 -2.5611
  935MOL0     H23396   0.388   5.190  12.047 -0.6569  1.8925  0.7309
  935MOL0     H23397   0.513   5.190  12.170 -0.7276  2.4968  0.8901
  935MOL0     H23398   0.353   5.174  12.355 -1.1214  0.5173  0.2974
  935MOL0     H23399   0.358   5.319  12.262 -0.7203 -0.1844 -1.0314
  935MOL0     H23400   0.159   5.197  12.121  0.2661  0.6904 -0.4446
  935MOL0     H23401   0.118   5.268  12.283 -0.4764  1.0430 -0.6641
  935MOL0     H23402   0.636   4.319  11.993  0.1077  1.0863 -0.4241
  935MOL0     H23403   0.728   4.095  11.941  2.4353 -1.4361 -0.0753
  935MOL0     H23404   1.127   3.919  11.711  0.5451 -0.8387 -0.5899
  935MOL0     H23405   1.277   3.725  11.672  2.1542 -1.3144  0.9166
  935MOL0     H23406   2.875   3.492  11.218  0.9057 -1.2944 -2.6747
  935MOL0     H23407   3.050   3.637  11.124 -2.3635  1.1387  2.6277
  935MOL0     H23408   3.362   4.015  11.140  0.4245  0.8004  0.1399
  935MOL0     H23409   3.573   4.116  11.016 -0.8361  0.8101 -1.0180
  935MOL0     H23410   3.784   3.863  10.756 -0.5885  1.1786  0.2954
  935MOL0     H23411   3.898   3.845  10.887  0.7547 -1.1853 -1.8030
  935MOL0     H23412   3.999   4.050  10.835 -2.2889 -3.2961  2.4934
  935MOL0     H23413   3.999   3.945  10.684 -1.6994 -2.6011 -0.2253
  935MOL0     H23414   3.794   4.166  10.721 -1.2513  0.6832 -2.3441
  935MOL0     H23415   3.826   4.065  10.580 -0.8940  1.3257 -0.2044
  935MOL0     H23416   3.900   4.295  10.546  1.2240  1.1016 -0.9378
  935MOL0     H23417   3.993   4.283  10.695 -0.2456  0.6737 -1.0793
  935MOL0     H23418   4.245   4.083  10.425  0.5518 -0.8249  1.1721
  935MOL0     H23419   3.727   3.725  10.953 -1.3942 -1.9364 -1.3432
  935MOL0     H23420   3.525   3.629  11.047  3.1514 -0.2453  1.5078
  936MOL0     O23421   8.022   9.944   2.328  0.2469 -0.0317 -0.2469
  936MOL0     C23422   8.098   9.854   2.285 -0.3750  0.0815 -0.2600
  936MOL0     O23423   8.057   9.729   2.241  0.0484  0.6778 -0.0479
  936MOL0     C23424   7.927   9.709   2.223 -0.4700 -0.6448 -0.5633
  936MOL0     C23425   7.855   9.632   2.318  0.1230 -0.5723  0.1810
  936MOL0     C23426   7.715   9.625   2.307  0.5882 -0.4153  0.0726
  936MOL0     C23427   7.645   9.684   2.199  0.1317 -0.6790 -0.0453
  936MOL0     O23428   7.508   9.696   2.184 -0.8054 -0.5694 -0.9839
  936MOL0     C23429   7.415   9.607   2.243 -0.0074 -0.3085  1.2781
  936MOL0     C23430   7.286   9.615   2.155  0.1431  0.4628  0.0408
  936MOL0     C23431   7.247   9.766   2.131 -0.0427 -0.3016  0.4145
  936MOL0     C23432   7.128   9.784   2.023 -0.7150  0.0702 -1.3146
  936MOL0     C23433   7.000   9.740   2.085 -0.1971 -0.4086 -0.2046
  936MOL0     C23434   6.888   9.781   1.987 -0.1911 -0.8982  0.5612
  936MOL0     C23435   6.754   9.724   2.026 -0.1861  0.1878 -0.9825
  936MOL0     C23436   6.651   9.756   1.917 -0.1899 -0.3813 -1.1606
  936MOL0     N23437   6.520   9.690   1.922  0.1077 -0.4322  0.1554
  936MOL0     C23438   6.401   9.755   1.938 -0.2103  0.0350  0.4172
  936MOL0     C23439   6.304   9.678   1.889  0.4336 -0.0155 -0.2086
  936MOL0     C23440   6.160   9.721   1.886 -0.3474  0.3814  0.4437
  936MOL0     C23441   6.085   9.689   2.016 -0.7313  0.0634 -0.6784
  936MOL0     C23442   6.074   9.535   2.024 -0.7582  0.3984  0.5065
  936MOL0     C23443   5.969   9.503   2.127  0.5010  0.4338 -0.3478
  936MOL0     O23444   5.840   9.537   2.074  0.2481 -0.5553 -0.1786
  936MOL0     C23445   5.732   9.469   2.118 -0.6414  0.6882 -0.5826
  936MOL0     C23446   5.728   9.374   2.226 -0.0353  0.3114  0.6638
  936MOL0     C23447   5.601   9.319   2.262  0.2064 -0.1544 -0.4576
  936MOL0     C23448   5.482   9.363   2.211 -0.2138 -0.4893  0.0642
  936MOL0     C23449   5.351   9.303   2.251  0.7424  0.2416  1.1384
  936MOL0     O23450   5.360   9.203   2.341 -0.3815 -0.5546 -0.3156
  936MOL0     C23451   5.237   9.156   2.392 -1.1041  0.1670  0.2654
  936MOL0     C23452   5.192   9.027   2.366 -0.3996  0.3240  0.3254
  936MOL0     C23453   5.070   8.983   2.407  0.4742  0.6408  0.0490
  936MOL0     C23454   4.995   9.056   2.488 -0.0620  0.1416 -0.4275
  936MOL0     O23455   4.869   8.996   2.516  0.2234 -0.4738 -0.5959
  936MOL0     C23456   4.796   9.051   2.632  0.2458 -0.3900 -0.5134
  936MOL0     C23457   4.663   8.979   2.652  0.0557 -0.0749 -0.2190
  936MOL0     C23458   4.670   8.829   2.678 -1.2568  0.3877 -0.3940
  936MOL0     C23459   4.540   8.761   2.653 -0.4091  0.8587  0.8465
  936MOL0     C23460   4.557   8.604   2.661 -0.4613  0.2061  1.0370
  936MOL0     C23461   4.470   8.537   2.550  0.0973 -0.4674  0.3244
  936MOL0     C23462   4.511   8.381   2.558 -0.4354  0.2624  0.3062
  936MOL0     C23463   4.445   8.299   2.443 -0.1551 -0.2870 -0.9587
  936MOL0    Cl23464   4.495   8.126   2.478  0.1568  0.4403  0.5070
  936MOL0     C23465   5.041   9.185   2.525 -0.2644  0.3251 -0.1974
  936MOL0     C23466   5.160   9.231   2.476  0.4253 -0.1285  0.3043
  936MOL0     O23467   5.251   9.332   2.194  0.5164  0.2294 -0.1993
  936MOL0     C23468   5.487   9.437   2.093  0.6289 -0.1210  0.7791
  936MOL0     C23469   5.612   9.486   2.046  0.7872  0.6284  0.8307
  936MOL0     N23470   6.369   9.559   1.840 -0.2052 -0.8384 -0.1277
  936MOL0     N23471   6.500   9.571   1.868 -0.3300 -0.5817  0.3192
  936MOL0     C23472   7.719   9.761   2.109 -0.2989  0.3358  0.6689
  936MOL0     C23473   7.856   9.766   2.118 -0.3545 -0.7397 -0.7760
  936MOL0     C23474   8.245   9.884   2.277 -0.0420 -0.8408  0.4055
  936MOL0     C23475   8.339   9.783   2.283 -0.7274  0.5610  0.5678
  936MOL0     C23476   8.477   9.820   2.257  0.5889 -0.2213 -0.0474
  936MOL0     C23477   8.508   9.951   2.238 -0.5761 -0.5936  0.2893
  936MOL0     O23478   8.647   9.983   2.234 -0.2901  0.4551 -0.1029
  936MOL0     C23479   8.754   9.905   2.175 -0.7508  0.1589  0.2909
  936MOL0     C23480   8.892   9.988   2.181  0.9100 -0.6650  0.4448
  936MOL0     C23481   8.945   9.993   2.324  0.1375  0.4363  0.0388
  936MOL0     C23482   9.073  10.087   2.336  0.4330  0.2541  0.4485
  936MOL0     C23483   9.100  10.118   2.475 -0.0224 -0.4531  0.3325
  936MOL0     C23484   9.150  10.139   2.586 -0.1976  1.0473 -0.3975
  936MOL0     C23485   8.418  10.051   2.217  0.5480  0.0016 -0.1389
  936MOL0     C23486   8.281  10.013   2.225  0.0178  0.1298  0.2162
  936MOL0     H23487   7.905   9.571   2.393  0.8032 -0.0992  0.1235
  936MOL0     H23488   7.654   9.577   2.384  1.5640 -2.4610 -0.3554
  936MOL0     H23489   7.384   9.636   2.344 -0.4178 -0.8019  1.2981
  936MOL0     H23490   7.468   9.511   2.238  2.0918  0.8436 -1.2140
  936MOL0     H23491   7.203   9.559   2.199  0.1107 -1.2473 -2.0540
  936MOL0     H23492   7.310   9.575   2.056 -1.5702 -1.6004  0.3809
  936MOL0     H23493   7.330   9.821   2.086 -1.7629  1.2055 -1.0692
  936MOL0     H23494   7.215   9.799   2.230  0.1370  0.0673  0.3505
  936MOL0     H23495   7.123   9.889   1.994 -0.7228  0.3007 -0.5220
  936MOL0     H23496   7.141   9.727   1.931  1.1925  0.0332 -1.0577
  936MOL0     H23497   6.986   9.792   2.180 -0.8416  0.8046 -0.9456
  936MOL0     H23498   6.996   9.631   2.086  0.7373 -0.4991 -2.0657
  936MOL0     H23499   6.912   9.767   1.882 -1.2073 -1.4455  0.3925
  936MOL0     H23500   6.876   9.888   2.004  1.6711 -0.6149  0.2904
  936MOL0     H23501   6.756   9.616   2.045 -1.3600 -0.0798 -2.2473
  936MOL0     H23502   6.728   9.774   2.120 -2.1195 -1.4593 -0.5833
  936MOL0     H23503   6.699   9.726   1.823  2.8974  0.2419  0.1015
  936MOL0     H23504   6.637   9.863   1.900  4.4249  0.0771 -3.9772
  936MOL0     H23505   6.378   9.846   1.991 -1.0729 -0.2306  0.5235
  936MOL0     H23506   6.104   9.668   1.808 -0.6319 -1.8141  2.0327
  936MOL0     H23507   6.155   9.830   1.873 -1.5214  0.4214  1.0444
  936MOL0     H23508   5.983   9.731   2.013 -1.0022 -0.5877 -0.6976
  936MOL0     H23509   6.138   9.728   2.104 -0.2559  1.8213 -1.6941
  936MOL0     H23510   6.044   9.497   1.926 -2.1573  1.0895  0.6373
  936MOL0     H23511   6.175   9.500   2.047  1.5792  5.9887  0.3023
  936MOL0     H23512   5.992   9.559   2.218  1.0278 -1.2884  0.6169
  936MOL0     H23513   5.977   9.396   2.148 -2.1700  0.5461  1.7577
  936MOL0     H23514   5.814   9.334   2.279  0.0425  2.7208  2.5429
  936MOL0     H23515   5.605   9.244   2.340 -0.6619 -1.5947 -1.7381
  936MOL0     H23516   5.235   8.951   2.301  1.6184  1.5294  0.1664
  936MOL0     H23517   5.025   8.895   2.364  1.0286  0.0159  0.7279
  936MOL0     H23518   4.776   9.159   2.633  1.6966 -0.0953  1.2321
  936MOL0     H23519   4.858   9.026   2.718  0.9984  0.2595 -0.8598
  936MOL0     H23520   4.599   8.983   2.563  2.5224  2.1650 -2.0290
  936MOL0     H23521   4.601   9.029   2.727 -0.9884 -2.5022  0.6562
  936MOL0     H23522   4.702   8.810   2.781 -1.9180  2.1097  0.1725
  936MOL0     H23523   4.738   8.790   2.602 -0.6872 -0.6959  0.6433
  936MOL0     H23524   4.461   8.794   2.721 -0.8648 -2.5795  2.1813
  936MOL0     H23525   4.526   8.788   2.548  2.1345  1.3116  0.5566
  936MOL0     H23526   4.539   8.568   2.763  1.4909 -0.6751  1.1090
  936MOL0     H23527   4.662   8.578   2.649 -0.1262  2.3272 -1.5230
  936MOL0     H23528   4.494   8.576   2.451  0.6641  0.6823  0.8854
  936MOL0     H23529   4.363   8.542   2.574  0.4765 -0.5216  2.1843
  936MOL0     H23530   4.621   8.380   2.552 -0.3188  0.0399  2.1239
  936MOL0     H23531   4.485   8.327   2.649 -2.7458 -0.8319 -0.9261
  936MOL0     H23532   4.475   8.320   2.340  0.0330  1.5590 -0.5696
  936MOL0     H23533   4.338   8.322   2.446 -0.0171  0.4166 -1.2843
  936MOL0     H23534   4.986   9.241   2.601  0.1595  1.4708 -0.7048
  936MOL0     H23535   5.204   9.328   2.497  0.9552 -0.4361  0.6240
  936MOL0     H23536   5.394   9.463   2.043  0.9681 -0.1325  0.1312
  936MOL0     H23537   5.611   9.550   1.958 -2.1954 -0.9450 -0.4020
  936MOL0     H23538   7.678   9.825   2.032 -4.3668 -1.5514  0.9962
  936MOL0     H23539   7.914   9.827   2.050 -1.1252  2.0388  0.9057
  936MOL0     H23540   8.312   9.681   2.307 -1.3903  0.2572 -1.2678
  936MOL0     H23541   8.541   9.733   2.253  1.6086  0.5410 -3.1045
  936MOL0     H23542   8.724   9.888   2.071  2.0977  0.8260 -0.7219
  936MOL0     H23543   8.767   9.805   2.218 -0.6271 -0.5776 -1.3887
  936MOL0     H23544   8.964   9.941   2.114  0.2935 -0.9824 -0.0049
  936MOL0     H23545   8.884  10.084   2.131 -0.9479 -1.5152 -1.0116
  936MOL0     H23546   8.966   9.892   2.360  1.9120  1.0836  0.9582
  936MOL0     H23547   8.863  10.042   2.378 -0.5683  2.2092 -2.4698
  936MOL0     H23548   9.159  10.032   2.297 -0.1809 -0.7867  0.5374
  936MOL0     H23549   9.058  10.177   2.276  0.2366 -0.7076 -1.0124
  936MOL0     H23550   9.197  10.146   2.682  1.8702 -1.1205 -1.1536
  936MOL0     H23551   8.451  10.153   2.204  0.2262  0.6625  3.2304
  936MOL0     H23552   8.201  10.083   2.203  1.3740  1.8737  0.6253
  937MOL0     O23553   3.847   2.375   5.039  0.0331  0.5264  0.9445
  937MOL0     C23554   3.938   2.460   5.036  0.1031 -0.2136 -0.5054
  937MOL0     O23555   3.974   2.539   5.145  0.6172  0.0017 -0.2899
  937MOL0     C23556   3.897   2.537   5.260  0.3556  0.0522  0.2583
  937MOL0     C23557   3.959   2.573   5.378  0.6900  0.6009  0.1941
  937MOL0     C23558   3.888   2.565   5.500  1.2348 -0.5574  0.3101
  937MOL0     C23559   3.755   2.535   5.506  1.3312 -1.1414 -0.2352
  937MOL0     O23560   3.699   2.533   5.630 -0.5095 -0.3419  0.0845
  937MOL0     C23561   3.661   2.652   5.703  1.0039  0.5181  0.9226
  937MOL0     C23562   3.539   2.627   5.806 -0.7847  0.3012 -0.3810
  937MOL0     C23563   3.456   2.508   5.765 -0.2405 -0.7300 -1.0618
  937MOL0     C23564   3.342   2.485   5.866 -0.1479  0.1986  0.5009
  937MOL0     C23565   3.270   2.361   5.833  0.2964  0.6893 -0.6142
  937MOL0     C23566   3.132   2.358   5.893 -0.2399  0.3807  0.7037
  937MOL0     C23567   3.148   2.346   6.052  0.0364 -0.2366 -0.4260
  937MOL0     C23568   3.067   2.456   6.136 -0.1401  0.4885  0.6676
  937MOL0     N23569   2.924   2.463   6.108  0.3376 -0.3764 -0.3568
  937MOL0     C23570   2.864   2.539   6.018  0.6214  0.0819  0.6378
  937MOL0     C23571   2.731   2.509   6.017 -0.0824  0.6690  0.4890
  937MOL0     C23572   2.637   2.572   5.918  0.3939  0.2913 -1.1507
  937MOL0     C23573   2.490   2.527   5.945  0.6660  0.1600 -0.2694
  937MOL0     C23574   2.385   2.613   5.889  0.1528  0.2520  0.1860
  937MOL0     C23575   2.237   2.572   5.903  0.3347  0.9684 -0.3056
  937MOL0     O23576   2.186   2.605   6.026 -0.3618 -0.3060 -0.4999
  937MOL0     C23577   2.052   2.577   6.054 -0.6156 -0.1394 -0.4360
  937MOL0     C23578   1.952   2.543   5.960 -0.2690  0.4432 -0.8969
  937MOL0     C23579   1.824   2.508   6.004 -0.1077  0.0559 -0.1939
  937MOL0     C23580   1.782   2.534   6.139 -0.1078  0.6080  0.9916
  937MOL0     C23581   1.649   2.496   6.191  0.4884 -0.0503 -0.0519
  937MOL0     O23582   1.611   2.530   6.316  0.0814 -0.1032 -0.0912
  937MOL0     C23583   1.502   2.463   6.374 -0.2936  0.1753  0.1705
  937MOL0     C23584   1.377   2.518   6.357  0.7962  0.0629  0.6807
  937MOL0     C23585   1.268   2.446   6.411  0.2180 -0.0135  0.2382
  937MOL0     C23586   1.301   2.335   6.496  0.6541 -0.0411 -1.3000
  937MOL0     O23587   1.196   2.279   6.556  0.1630  0.7722 -0.2393
  937MOL0     C23588   1.206   2.159   6.639  0.2705  0.3173 -0.0917
  937MOL0     C23589   1.076   2.105   6.699  0.9233  0.7220 -0.0094
  937MOL0     C23590   0.999   2.196   6.800 -0.3198  0.0752  0.0582
  937MOL0     C23591   0.869   2.138   6.852  0.2015  0.4531 -0.4912
  937MOL0     C23592   0.825   2.210   6.985  0.1279 -0.7105  0.0814
  937MOL0     C23593   0.750   2.339   6.959  0.1870  1.1075  0.4989
  937MOL0     C23594   0.703   2.405   7.094 -0.0675  0.0800  0.1221
  937MOL0     C23595   0.599   2.517   7.069  0.2485 -0.3618  0.3118
  937MOL0    Cl23596   0.677   2.651   7.008 -0.2720 -0.3919  0.0103
  937MOL0     C23597   1.435   2.295   6.519  1.4932 -0.2544 -0.1179
  937MOL0     C23598   1.527   2.354   6.450  0.2292  0.3325  0.4394
  937MOL0     O23599   1.579   2.430   6.117 -0.2547  0.1654  0.0670
  937MOL0     C23600   1.875   2.576   6.235  0.9737 -0.5314  1.2261
  937MOL0     C23601   2.012   2.592   6.189  0.5983 -0.2931 -0.3352
  937MOL0     N23602   2.712   2.420   6.120 -0.3294 -0.6363 -0.1804
  937MOL0     N23603   2.830   2.389   6.169 -0.1313 -0.4493  0.1143
  937MOL0     C23604   3.686   2.520   5.386  1.1067 -0.9859 -0.8820
  937MOL0     C23605   3.754   2.528   5.263  0.7195 -0.5537 -0.9804
  937MOL0     C23606   4.012   2.486   4.911  0.2851  0.8160  0.3371
  937MOL0     C23607   3.938   2.534   4.804  0.2550 -0.0375 -0.3340
  937MOL0     C23608   4.000   2.556   4.686  0.6364  0.4771 -0.5818
  937MOL0     C23609   4.137   2.538   4.674 -0.4813 -0.9177 -0.0380
  937MOL0     O23610   4.186   2.575   4.551 -0.0857 -0.1985  0.0829
  937MOL0     C23611   4.326   2.575   4.526  0.2838  0.2562  1.2989
  937MOL0     C23612   4.367   2.437   4.481 -0.0314  0.5270  0.5435
  937MOL0     C23613   4.297   2.402   4.346  0.7633 -0.6137 -0.8228
  937MOL0     C23614   4.325   2.488   4.222  0.3240  0.8153 -0.3442
  937MOL0     C23615   4.468   2.491   4.201 -0.0813 -0.1492 -0.2877
  937MOL0     C23616   4.588   2.499   4.179 -0.7557 -0.0022  0.8269
  937MOL0     C23617   4.219   2.477   4.778  0.4334  0.1828 -0.0542
  937MOL0     C23618   4.149   2.451   4.894  0.0992  0.3060  0.1776
  937MOL0     H23619   4.066   2.589   5.385  0.7860  1.6765 -2.4346
  937MOL0     H23620   3.948   2.576   5.590 -0.4644  0.7363  1.3392
  937MOL0     H23621   3.612   2.719   5.631 -0.5436 -0.5768  0.8978
  937MOL0     H23622   3.749   2.690   5.755  1.5179 -2.3764  2.3670
  937MOL0     H23623   3.486   2.722   5.817 -0.4627  0.6426 -1.6417
  937MOL0     H23624   3.570   2.612   5.910 -1.4600  1.2128 -0.0336
  937MOL0     H23625   3.512   2.416   5.747  0.5298 -0.2681 -1.0947
  937MOL0     H23626   3.418   2.541   5.668 -2.2156  3.5639  0.9092
  937MOL0     H23627   3.380   2.477   5.968 -0.4886  0.1417  0.6240
  937MOL0     H23628   3.267   2.565   5.861 -0.6795 -0.2924  0.4819
  937MOL0     H23629   3.322   2.270   5.865 -0.8094  0.6917  1.3697
  937MOL0     H23630   3.234   2.362   5.730  0.5986  2.4477 -0.7257
  937MOL0     H23631   3.071   2.272   5.862 -2.2066  1.2761  1.9185
  937MOL0     H23632   3.082   2.451   5.867 -0.5089  0.3459  1.0945
  937MOL0     H23633   3.132   2.247   6.095 -0.7002  0.6954  1.5561
  937MOL0     H23634   3.252   2.353   6.085 -1.1584 -0.0092  3.8936
  937MOL0     H23635   3.103   2.558   6.121  0.0118  0.0976 -1.9577
  937MOL0     H23636   3.085   2.441   6.243  0.5139 -0.3759  0.4501
  937MOL0     H23637   2.906   2.609   5.947 -1.0323 -1.7327 -2.3379
  937MOL0     H23638   2.674   2.541   5.820  2.1469  0.9238 -0.7293
  937MOL0     H23639   2.639   2.682   5.922 -0.4378  0.2938 -0.4628
  937MOL0     H23640   2.474   2.531   6.053  0.9572  1.9809 -0.2501
  937MOL0     H23641   2.475   2.432   5.893  0.4265  0.3559 -0.5645
  937MOL0     H23642   2.385   2.708   5.944  0.1291  0.2162  0.2472
  937MOL0     H23643   2.394   2.625   5.780  1.3580  0.8615  0.3290
  937MOL0     H23644   2.221   2.467   5.880 -0.2636  0.8663  0.5243
  937MOL0     H23645   2.178   2.622   5.826 -1.3849 -1.9954 -1.0671
  937MOL0     H23646   1.968   2.524   5.855 -0.2663 -0.5068 -0.7337
  937MOL0     H23647   1.753   2.472   5.931  0.8253  1.7955 -2.0760
  937MOL0     H23648   1.366   2.604   6.291  2.5859 -1.1252 -1.2774
  937MOL0     H23649   1.163   2.466   6.393 -0.1345 -0.9796  1.1305
  937MOL0     H23650   1.274   2.182   6.722 -1.8940  0.7095  1.6767
  937MOL0     H23651   1.247   2.081   6.574  2.2299  2.9593 -2.1967
  937MOL0     H23652   1.096   2.002   6.730 -0.6268  0.3006 -0.2825
  937MOL0     H23653   1.006   2.094   6.615 -0.6414 -1.5026  1.4584
  937MOL0     H23654   0.970   2.290   6.753  1.1077 -0.1988 -1.4648
  937MOL0     H23655   1.067   2.218   6.883 -0.7732 -0.3107  0.5401
  937MOL0     H23656   0.790   2.147   6.776  1.5738 -0.2301 -2.0653
  937MOL0     H23657   0.887   2.035   6.885  0.8334  1.6113  3.2539
  937MOL0     H23658   0.912   2.225   7.050  0.6878  0.0660 -0.8141
  937MOL0     H23659   0.757   2.142   7.036 -0.9585  0.6423  0.4849
  937MOL0     H23660   0.662   2.314   6.901 -1.4378 -1.7372  3.8045
  937MOL0     H23661   0.815   2.413   6.911  2.3557  0.1349  1.7328
  937MOL0     H23662   0.661   2.324   7.153 -0.6056 -0.9795 -1.6322
  937MOL0     H23663   0.775   2.446   7.166 -0.9743 -0.0045  1.1037
  937MOL0     H23664   0.550   2.534   7.166 -1.9315 -3.3545 -0.1267
  937MOL0     H23665   0.510   2.489   7.012  0.8923 -1.0988 -0.3520
  937MOL0     H23666   1.468   2.212   6.580  0.2861 -0.3782  0.4091
  937MOL0     H23667   1.631   2.327   6.462  0.0082 -0.8777 -0.2018
  937MOL0     H23668   1.842   2.605   6.335 -0.2593  1.4151  0.3240
  937MOL0     H23669   2.088   2.621   6.261 -2.2127 -1.6366  3.5693
  937MOL0     H23670   3.579   2.507   5.395  0.6135  2.6845 -0.0387
  937MOL0     H23671   3.690   2.519   5.175  0.5169  4.7123 -1.6815
  937MOL0     H23672   3.829   2.539   4.808  0.2631 -0.5566  1.0039
  937MOL0     H23673   3.951   2.594   4.596 -1.0614 -2.1645 -0.9021
  937MOL0     H23674   4.390   2.610   4.608 -0.2332 -0.1497  1.8799
  937MOL0     H23675   4.325   2.645   4.442 -0.4907 -2.0188 -0.6904
  937MOL0     H23676   4.474   2.434   4.459 -0.4388  1.7268 -2.0063
  937MOL0     H23677   4.350   2.356   4.552  3.9206  0.9430  2.1847
  937MOL0     H23678   4.188   2.413   4.356  0.5092  1.2069 -4.1737
  937MOL0     H23679   4.320   2.297   4.325 -0.8794 -1.4226  1.1183
  937MOL0     H23680   4.281   2.427   4.142  4.0221 -3.2660  0.2958
  937MOL0     H23681   4.272   2.583   4.218 -2.6668 -0.6511  0.9901
  937MOL0     H23682   4.693   2.517   4.174 -0.7154 -0.4086  0.0058
  937MOL0     H23683   4.323   2.455   4.759 -0.3409 -2.0714 -2.1766
  937MOL0     H23684   4.211   2.412   4.974 -1.3899  0.1262  1.2909
  938MOL0     O23685   2.436   7.318   6.124  0.0769  0.1165 -0.4179
  938MOL0     C23686   2.489   7.266   6.222  0.4590  0.0019 -0.2642
  938MOL0     O23687   2.413   7.211   6.328  0.5957  0.6009  0.2578
  938MOL0     C23688   2.279   7.204   6.293 -1.0595 -0.2035 -0.8163
  938MOL0     C23689   2.182   7.281   6.367 -0.0934  0.3684 -0.1103
  938MOL0     C23690   2.050   7.264   6.336  0.1117 -0.6746 -0.1850
  938MOL0     C23691   2.003   7.174   6.240  0.1862  0.5654  0.9015
  938MOL0     O23692   1.868   7.141   6.220  0.1943  0.0051  0.4090
  938MOL0     C23693   1.770   7.230   6.282 -0.1009 -0.6829  0.9530
  938MOL0     C23694   1.631   7.199   6.236  1.3661 -0.2740  0.2338
  938MOL0     C23695   1.530   7.298   6.292  0.6083  0.4004 -0.5171
  938MOL0     C23696   1.394   7.251   6.257  0.6638  1.1775 -0.4312
  938MOL0     C23697   1.299   7.339   6.348 -0.6032 -0.6622 -0.5052
  938MOL0     C23698   1.160   7.278   6.351 -1.0388  0.1219 -0.1588
  938MOL0     C23699   1.037   7.361   6.397 -0.4538  1.4772 -0.7995
  938MOL0     C23700   1.008   7.477   6.301 -0.4570  1.2191 -0.0511
  938MOL0     N23701   0.927   7.587   6.352 -0.0243  0.4771  0.5380
  938MOL0     C23702   0.977   7.678   6.443 -0.5498 -0.1662 -0.6274
  938MOL0     C23703   0.865   7.753   6.466 -1.2857  0.7867 -0.3530
  938MOL0     C23704   0.867   7.866   6.560 -0.2658  0.2937 -0.0344
  938MOL0     C23705   0.748   7.970   6.557 -0.6759  0.1556  0.3832
  938MOL0     C23706   0.754   8.058   6.680  0.7589 -0.8824  0.2606
  938MOL0     C23707   0.656   8.176   6.670 -0.2214 -0.2411  0.4309
  938MOL0     O23708   0.601   8.210   6.800  0.2240  0.1088 -0.2416
  938MOL0     C23709   0.504   8.125   6.852  0.1770 -0.2822 -0.1183
  938MOL0     C23710   0.453   8.010   6.793  0.2480  0.7784 -0.0025
  938MOL0     C23711   0.366   7.931   6.870 -0.2927  0.2562  0.8003
  938MOL0     C23712   0.303   7.977   6.982 -0.1905  0.3573  0.9330
  938MOL0     C23713   0.206   7.881   7.048  0.0523 -0.0694 -0.4713
  938MOL0     O23714   0.147   7.781   6.984 -0.1140 -0.0778 -0.1714
  938MOL0     C23715   0.034   7.736   7.043  0.5848 -0.3295 -1.0780
  938MOL0     C23716   0.014   7.602   7.078  0.7060  0.0113  0.3057
  938MOL0     C23717  -0.108   7.550   7.128  0.7315 -0.1259  0.1959
  938MOL0     C23718  -0.216   7.632   7.142 -0.4122 -0.7528  0.0956
  938MOL0     O23719  -0.330   7.578   7.178  0.5055 -0.6081 -0.7090
  938MOL0     C23720  -0.412   7.658   7.271 -0.2719  0.4297 -0.3004
  938MOL0     C23721  -0.487   7.571   7.369  0.1209  0.0775  0.1717
  938MOL0     C23722  -0.618   7.526   7.301 -1.0149 -0.0449 -0.1835
  938MOL0     C23723  -0.695   7.422   7.396 -0.3997  0.0937  0.5210
  938MOL0     C23724  -0.845   7.413   7.367 -0.2601  0.1273 -1.0896
  938MOL0     C23725  -0.871   7.377   7.226 -0.4408  0.5875 -0.5092
  938MOL0     C23726  -1.018   7.324   7.205 -0.3064 -0.1500 -0.1394
  938MOL0     C23727  -1.051   7.198   7.286 -0.2590  0.4942  0.0998
  938MOL0    Cl23728  -1.233   7.157   7.278  0.5028 -0.4661  0.0330
  938MOL0     C23729  -0.204   7.765   7.110 -0.9529 -0.9137 -0.4174
  938MOL0     C23730  -0.080   7.819   7.067  0.8235 -0.0151  0.7896
  938MOL0     O23731   0.183   7.909   7.162 -0.4143  0.7666 -0.3101
  938MOL0     C23732   0.353   8.096   7.038  0.7263  0.8087  0.3315
  938MOL0     C23733   0.450   8.165   6.975 -0.1459 -0.4190  0.4692
  938MOL0     N23734   0.758   7.722   6.390  0.3024  0.0730 -0.1981
  938MOL0     N23735   0.796   7.615   6.329  0.0132  0.2001 -0.1981
  938MOL0     C23736   2.098   7.096   6.181 -0.1612  1.2842  0.6815
  938MOL0     C23737   2.238   7.108   6.201  0.1686 -0.0100 -0.3777
  938MOL0     C23738   2.636   7.279   6.233  0.0656 -0.6514  0.3799
  938MOL0     C23739   2.717   7.223   6.333  1.1337 -0.3671 -0.4749
  938MOL0     C23740   2.855   7.235   6.333  0.7708  0.0090 -0.3768
  938MOL0     C23741   2.922   7.298   6.222  0.8066  0.3166  0.7936
  938MOL0     O23742   3.052   7.302   6.198 -0.0233 -0.1790  0.5072
  938MOL0     C23743   3.142   7.292   6.312  0.0994 -0.3250 -0.1949
  938MOL0     C23744   3.286   7.320   6.270  0.9538  0.0706  0.2906
  938MOL0     C23745   3.383   7.326   6.385  0.6650  0.6735 -0.5978
  938MOL0     C23746   3.342   7.439   6.491 -0.6421  0.0751  0.5453
  938MOL0     C23747   3.450   7.471   6.592  0.1390  0.5666  0.2587
  938MOL0     C23748   3.544   7.474   6.666 -0.2570 -0.4899  0.4840
  938MOL0     C23749   2.837   7.357   6.128 -0.2354 -0.5873 -0.2191
  938MOL0     C23750   2.704   7.346   6.134 -0.3670 -0.4407 -0.3570
  938MOL0     H23751   2.230   7.349   6.435  0.7226 -0.1635 -0.1415
  938MOL0     H23752   1.978   7.323   6.392 -0.5408 -2.4938  0.9886
  938MOL0     H23753   1.791   7.336   6.263 -1.0996 -0.9237 -1.9743
  938MOL0     H23754   1.777   7.229   6.391 -1.0796  1.9126  1.1207
  938MOL0     H23755   1.609   7.104   6.286 -0.1885 -0.5171 -0.8147
  938MOL0     H23756   1.629   7.180   6.128 -1.2035 -2.6330  0.5947
  938MOL0     H23757   1.533   7.394   6.241 -1.0702 -0.5873 -2.6198
  938MOL0     H23758   1.549   7.297   6.400  3.5260 -1.1393 -0.9232
  938MOL0     H23759   1.367   7.265   6.152  3.5078  0.2270 -1.3805
  938MOL0     H23760   1.374   7.149   6.290 -0.0883  2.1216  2.3168
  938MOL0     H23761   1.292   7.443   6.315 -0.4282 -0.6829 -0.6103
  938MOL0     H23762   1.341   7.336   6.449 -0.7382 -0.3768 -0.4387
  938MOL0     H23763   1.169   7.188   6.412  0.1906  0.1423 -0.2799
  938MOL0     H23764   1.147   7.236   6.251  2.9587  3.0153 -2.1778
  938MOL0     H23765   0.947   7.300   6.386  1.2485 -0.8856 -2.9501
  938MOL0     H23766   1.053   7.402   6.497 -1.0504 -3.8461  1.8733
  938MOL0     H23767   0.956   7.430   6.218 -2.5879  0.4775  1.6201
  938MOL0     H23768   1.093   7.524   6.252  0.7747 -1.3412 -0.5461
  938MOL0     H23769   1.079   7.674   6.482 -1.3500  2.0423  2.0514
  938MOL0     H23770   0.961   7.920   6.543  0.1019 -0.2719  0.1978
  938MOL0     H23771   0.878   7.827   6.661 -0.9599  1.4677  0.5127
  938MOL0     H23772   0.658   7.910   6.546 -0.4525 -0.5476  2.1279
  938MOL0     H23773   0.746   8.023   6.462 -2.2355 -1.8456 -0.7803
  938MOL0     H23774   0.732   7.996   6.767  1.5434 -0.5766  0.6805
  938MOL0     H23775   0.856   8.096   6.690  1.4674 -1.3488 -3.5623
  938MOL0     H23776   0.584   8.168   6.588 -0.8615  0.3379  0.9196
  938MOL0     H23777   0.722   8.262   6.658 -2.4511  1.9645  2.6651
  938MOL0     H23778   0.495   7.975   6.700 -0.0041  1.7630 -0.4944
  938MOL0     H23779   0.347   7.834   6.825 -3.9905  0.3557  1.8487
  938MOL0     H23780   0.104   7.541   7.079  1.9244  1.7542  1.5353
  938MOL0     H23781  -0.133   7.449   7.159 -0.8585  0.4753  1.0243
  938MOL0     H23782  -0.484   7.724   7.223 -1.8252  0.2545  1.6735
  938MOL0     H23783  -0.346   7.710   7.341  1.8172 -4.0848  1.4521
  938MOL0     H23784  -0.521   7.631   7.454 -0.7233  0.9058 -0.7262
  938MOL0     H23785  -0.434   7.485   7.410  0.2637  0.0955  0.0260
  938MOL0     H23786  -0.614   7.494   7.197 -0.5647 -1.7905  0.3391
  938MOL0     H23787  -0.673   7.621   7.305  0.5069  0.8641  0.0816
  938MOL0     H23788  -0.650   7.323   7.386 -1.0112 -0.4683  2.7289
  938MOL0     H23789  -0.682   7.447   7.501  2.7230  0.7280  0.0823
  938MOL0     H23790  -0.885   7.513   7.389 -0.7132 -0.2212 -0.2513
  938MOL0     H23791  -0.887   7.342   7.439  0.7479  1.0780  0.5106
  938MOL0     H23792  -0.800   7.298   7.198  0.1638  1.8658 -2.8684
  938MOL0     H23793  -0.855   7.456   7.152 -0.8367  0.7421 -0.4338
  938MOL0     H23794  -1.082   7.408   7.235  1.3539  1.5437 -1.1031
  938MOL0     H23795  -1.049   7.303   7.102 -2.4366 -1.9671  0.7994
  938MOL0     H23796  -1.022   7.209   7.391  0.8782  1.5826 -0.3098
  938MOL0     H23797  -0.980   7.129   7.238  1.2889  3.1457 -1.6924
  938MOL0     H23798  -0.286   7.834   7.125 -3.9436 -4.5167  1.5093
  938MOL0     H23799  -0.077   7.926   7.049 -1.8506 -0.0684 -0.4540
  938MOL0     H23800   0.317   8.135   7.133  0.0510  2.4509 -0.5655
  938MOL0     H23801   0.493   8.255   7.016 -2.2942  0.1552  1.6131
  938MOL0     H23802   2.055   7.019   6.118  1.7061  0.0543  0.8394
  938MOL0     H23803   2.296   7.031   6.150 -2.2924 -2.1875 -0.1279
  938MOL0     H23804   2.657   7.164   6.402 -2.1031  0.5843 -2.2570
  938MOL0     H23805   2.907   7.179   6.409 -0.7482  1.9810  2.2888
  938MOL0     H23806   3.131   7.188   6.343 -1.0557 -1.1412 -3.0534
  938MOL0     H23807   3.109   7.358   6.393  1.0751  0.0954 -0.1213
  938MOL0     H23808   3.315   7.254   6.188  1.3835 -1.1373  1.3582
  938MOL0     H23809   3.291   7.420   6.228 -3.7961  0.9331  1.1178
  938MOL0     H23810   3.482   7.343   6.340  0.0951 -1.4542 -2.8675
  938MOL0     H23811   3.396   7.228   6.433  2.7446  1.2515  0.1657
  938MOL0     H23812   3.309   7.530   6.440 -0.7672 -0.6523 -0.7297
  938MOL0     H23813   3.262   7.396   6.552 -1.3827 -1.2467 -1.2560
  938MOL0     H23814   3.632   7.481   6.726 -0.2578  0.2896  0.4001
  938MOL0     H23815   2.896   7.396   6.045  1.7238 -3.4505 -0.3069
  938MOL0     H23816   2.647   7.411   6.068 -1.3118  1.4321  2.1557
  939MOL0     O23817   3.885   2.487   8.237 -1.3638  0.3908 -0.3546
  939MOL0     C23818   4.009   2.489   8.264 -0.4089 -0.1436  0.9139
  939MOL0     O23819   4.073   2.523   8.388 -0.1828 -0.2481  0.3280
  939MOL0     C23820   4.018   2.605   8.475  0.1422 -0.1896  0.2204
  939MOL0     C23821   4.102   2.712   8.521  0.0177  1.4267  0.3088
  939MOL0     C23822   4.050   2.810   8.601  0.5140 -0.6825  0.2514
  939MOL0     C23823   3.918   2.808   8.643 -0.5789  0.7019 -0.8117
  939MOL0     O23824   3.861   2.910   8.710 -0.1066 -0.0896  0.0833
  939MOL0     C23825   3.920   3.036   8.680  0.8546  0.3682 -0.0726
  939MOL0     C23826   3.845   3.147   8.739 -0.7001  0.7910 -0.3395
  939MOL0     C23827   3.703   3.174   8.675 -0.2635 -0.0171  0.3467
  939MOL0     C23828   3.661   3.319   8.723  0.6938  0.2405 -0.1065
  939MOL0     C23829   3.523   3.350   8.670  0.3125  0.7652 -0.2735
  939MOL0     C23830   3.417   3.268   8.752 -0.1327 -0.3939  0.0687
  939MOL0     C23831   3.294   3.242   8.671 -0.2062  0.1235  0.2225
  939MOL0     C23832   3.222   3.105   8.699 -0.6189  0.5466 -0.0497
  939MOL0     N23833   3.147   3.114   8.826 -0.4944  0.1850  0.2383
  939MOL0     C23834   3.031   3.192   8.842 -0.0407 -0.5116  0.3663
  939MOL0     C23835   2.997   3.174   8.971 -0.0490 -0.1787 -0.4646
  939MOL0     C23836   2.888   3.229   9.048 -0.6493 -0.5998 -0.6444
  939MOL0     C23837   2.932   3.264   9.194  0.6370 -0.3919 -0.7001
  939MOL0     C23838   2.883   3.159   9.298 -0.6016 -0.3141 -0.3018
  939MOL0     C23839   2.735   3.167   9.334 -0.2590  0.3106 -0.6729
  939MOL0     O23840   2.721   3.056   9.422 -0.9144  0.2737 -0.4945
  939MOL0     C23841   2.606   3.026   9.473  0.5738 -0.2714 -1.1456
  939MOL0     C23842   2.475   3.062   9.422 -1.6056  0.7693  0.4842
  939MOL0     C23843   2.354   3.024   9.480  0.6543 -0.1335 -0.4511
  939MOL0     C23844   2.356   2.917   9.579  0.4687 -0.2114  0.0001
  939MOL0     C23845   2.231   2.857   9.629  1.5424  0.0959  0.0355
  939MOL0     O23846   2.119   2.900   9.556 -1.3953  0.1490 -0.2728
  939MOL0     C23847   1.997   2.855   9.592  0.9989 -0.7195  0.4864
  939MOL0     C23848   1.914   2.932   9.680  0.1133  1.2338  0.0119
  939MOL0     C23849   1.780   2.889   9.702 -0.7132  0.6608 -0.4683
  939MOL0     C23850   1.725   2.770   9.639 -0.7555  0.6526 -0.1629
  939MOL0     O23851   1.595   2.722   9.651 -0.3116  0.2157  0.2955
  939MOL0     C23852   1.522   2.766   9.761 -0.8686  0.4765 -0.6103
  939MOL0     C23853   1.384   2.705   9.768  0.0632  0.4053  0.0926
  939MOL0     C23854   1.358   2.563   9.711 -0.4065  0.0442 -0.4116
  939MOL0     C23855   1.210   2.521   9.750 -0.2947  0.8789  0.7668
  939MOL0     C23856   1.101   2.604   9.681  0.4226  0.4387  0.1384
  939MOL0     C23857   0.971   2.542   9.716 -0.6086  0.0997  0.1468
  939MOL0     C23858   0.848   2.623   9.670  0.4533  0.0509  0.0131
  939MOL0     C23859   0.729   2.592   9.772 -0.4557 -0.3592 -0.4408
  939MOL0    Cl23860   0.580   2.607   9.689  0.0712  0.8088 -0.0715
  939MOL0     C23861   1.816   2.705   9.556 -0.2318  0.0613  0.2715
  939MOL0     C23862   1.944   2.746   9.530  0.1546  0.5671  0.9103
  939MOL0     O23863   2.232   2.781   9.735 -0.1764 -0.1068  0.4608
  939MOL0     C23864   2.479   2.878   9.632 -0.2436  0.6995  0.0206
  939MOL0     C23865   2.605   2.931   9.576 -0.7443  0.2827 -0.0316
  939MOL0     N23866   3.086   3.090   9.033 -0.4907  1.3824  0.5765
  939MOL0     N23867   3.172   3.049   8.944  0.3079  0.2567  0.0633
  939MOL0     C23868   3.833   2.709   8.587  0.2541 -0.1366 -0.5849
  939MOL0     C23869   3.878   2.611   8.509  0.2085 -0.1802  0.1964
  939MOL0     C23870   4.102   2.479   8.145  0.7767 -0.5073 -0.0635
  939MOL0     C23871   4.049   2.474   8.014  0.4612 -0.1013  0.0388
  939MOL0     C23872   4.135   2.472   7.907 -0.7631 -0.4406  0.3483
  939MOL0     C23873   4.273   2.482   7.919  0.1141 -0.0949  0.8770
  939MOL0     O23874   4.356   2.488   7.812 -0.4815 -0.1453 -0.5926
  939MOL0     C23875   4.423   2.611   7.807 -0.1595  0.1420  0.1683
  939MOL0     C23876   4.360   2.718   7.715 -0.4668 -0.3516  1.0143
  939MOL0     C23877   4.469   2.816   7.652  0.2968 -0.3698 -0.0888
  939MOL0     C23878   4.502   2.779   7.509 -0.1516 -0.6757  0.0894
  939MOL0     C23879   4.582   2.891   7.457 -0.0465  0.7713 -1.0374
  939MOL0     C23880   4.664   2.961   7.410  0.9365 -0.4138 -0.3554
  939MOL0     C23881   4.332   2.497   8.048  0.6616 -1.8710  1.3570
  939MOL0     C23882   4.240   2.486   8.158  0.7954  0.6093  0.3739
  939MOL0     H23883   4.203   2.729   8.486  0.2150  0.4994  0.4097
  939MOL0     H23884   4.112   2.892   8.636 -0.2255 -0.2787  0.6188
  939MOL0     H23885   3.921   3.055   8.573 -0.8288 -0.2243 -0.2258
  939MOL0     H23886   4.022   3.029   8.719  0.6853 -4.4950  0.0535
  939MOL0     H23887   3.915   3.230   8.725 -0.3175  0.2443 -1.9341
  939MOL0     H23888   3.828   3.133   8.846  0.9452 -1.8151 -0.3385
  939MOL0     H23889   3.630   3.094   8.687  0.2647 -0.4921  0.4139
  939MOL0     H23890   3.713   3.182   8.566 -0.0145 -2.5768  0.1287
  939MOL0     H23891   3.666   3.323   8.832 -3.4067 -0.6406  0.2559
  939MOL0     H23892   3.733   3.392   8.685  2.0729  0.9272  3.3769
  939MOL0     H23893   3.527   3.321   8.564 -4.9705  2.0645 -1.1346
  939MOL0     H23894   3.501   3.457   8.675  2.1110  1.1080  0.9584
  939MOL0     H23895   3.390   3.334   8.834 -0.5036  1.6537 -1.6276
  939MOL0     H23896   3.454   3.175   8.795 -1.1644 -1.4372 -1.1936
  939MOL0     H23897   3.232   3.331   8.684  1.7008  1.6162 -0.3796
  939MOL0     H23898   3.318   3.240   8.564  2.4808 -2.9363  0.7209
  939MOL0     H23899   3.304   3.033   8.704 -1.2831 -0.2196 -0.0025
  939MOL0     H23900   3.144   3.087   8.626  0.4015 -1.1603 -0.7834
  939MOL0     H23901   2.999   3.280   8.787  1.2078 -0.1055  0.2562
  939MOL0     H23902   2.816   3.147   9.060  1.7935 -3.1621 -2.2955
  939MOL0     H23903   2.844   3.313   8.993  1.6126  0.9285 -0.2477
  939MOL0     H23904   2.884   3.360   9.216 -0.5183 -0.6606 -1.9306
  939MOL0     H23905   3.038   3.272   9.221  0.1262 -1.5832  1.9874
  939MOL0     H23906   2.912   3.064   9.251 -0.0667  0.8003 -2.3412
  939MOL0     H23907   2.945   3.174   9.386 -0.8931 -2.4219  0.3292
  939MOL0     H23908   2.684   3.161   9.238  1.9818 -0.3701 -1.8868
  939MOL0     H23909   2.698   3.263   9.372 -4.1712  0.5102 -4.3266
  939MOL0     H23910   2.467   3.130   9.338  1.3055 -1.3218 -1.7174
  939MOL0     H23911   2.267   3.069   9.435  0.0204 -0.5038  0.3703
  939MOL0     H23912   1.955   3.021   9.726 -1.2887  1.4251  0.9690
  939MOL0     H23913   1.723   2.946   9.774  0.9569  2.5703 -0.5690
  939MOL0     H23914   1.512   2.874   9.744  1.5466  0.6607 -1.1814
  939MOL0     H23915   1.588   2.733   9.843  0.8520 -0.3622 -2.2604
  939MOL0     H23916   1.313   2.778   9.728  1.0152  0.4804 -1.5696
  939MOL0     H23917   1.359   2.683   9.872 -4.1637  0.3354 -0.7909
  939MOL0     H23918   1.432   2.506   9.768 -0.0448  1.0451  0.1439
  939MOL0     H23919   1.363   2.549   9.602 -2.7152  1.9393 -0.8505
  939MOL0     H23920   1.198   2.415   9.726 -1.7728  0.0875  4.2888
  939MOL0     H23921   1.194   2.522   9.859  1.4557 -0.9540  1.1015
  939MOL0     H23922   1.122   2.599   9.574 -3.4669 -0.4931 -0.7504
  939MOL0     H23923   1.113   2.707   9.716 -1.6849  0.6154  0.4829
  939MOL0     H23924   0.966   2.526   9.824  0.5328 -1.6166 -0.0152
  939MOL0     H23925   0.965   2.445   9.666  0.5482  0.4792 -0.7822
  939MOL0     H23926   0.868   2.730   9.686 -1.8602  0.3977  1.1300
  939MOL0     H23927   0.826   2.605   9.565  1.2673  0.1876 -0.1863
  939MOL0     H23928   0.730   2.659   9.859 -2.3006 -0.3068 -0.4297
  939MOL0     H23929   0.739   2.488   9.807  5.4120  0.8993  3.0025
  939MOL0     H23930   1.795   2.611   9.507 -0.1414  0.0831  0.1923
  939MOL0     H23931   2.006   2.680   9.470 -0.6916  0.9920 -0.4635
  939MOL0     H23932   2.493   2.807   9.713 -1.4057 -1.8890 -1.9247
  939MOL0     H23933   2.701   2.893   9.609 -1.6713  1.0039  4.0280
  939MOL0     H23934   3.731   2.709   8.624  0.2684 -1.1437 -0.5174
  939MOL0     H23935   3.799   2.542   8.479  0.5107 -1.4520  2.1774
  939MOL0     H23936   3.941   2.472   8.006  0.3195  2.6667  0.4018
  939MOL0     H23937   4.102   2.464   7.803  0.3772 -1.3870  0.0368
  939MOL0     H23938   4.513   2.591   7.748 -1.1576 -1.9940 -0.7698
  939MOL0     H23939   4.461   2.649   7.902  2.3628  0.6735 -0.9738
  939MOL0     H23940   4.307   2.664   7.636 -0.2659 -2.1098  2.0336
  939MOL0     H23941   4.289   2.776   7.775  0.1396  0.9405  0.5277
  939MOL0     H23942   4.554   2.825   7.720  0.4079 -1.1772 -0.1106
  939MOL0     H23943   4.419   2.913   7.655  1.1458  0.1145 -0.9252
  939MOL0     H23944   4.563   2.689   7.502  0.6919 -0.2107  1.0557
  939MOL0     H23945   4.406   2.761   7.461  0.1137 -0.9189 -0.3544
  939MOL0     H23946   4.723   3.044   7.376 -0.0099  0.3283 -0.2470
  939MOL0     H23947   4.439   2.510   8.060  0.5428  1.0902  0.0196
  939MOL0     H23948   4.282   2.471   8.257  3.1421 -1.2458 -0.7900
  940MOL0     O23949  10.368   9.040   7.811  0.5560 -0.1214 -0.0025
  940MOL0     C23950  10.380   8.995   7.927  0.3290 -0.2896  1.4627
  940MOL0     O23951  10.277   8.950   8.015 -0.4012 -0.3650  0.4354
  940MOL0     C23952  10.146   8.942   7.974  0.0040 -0.4175 -0.4858
  940MOL0     C23953  10.093   8.913   7.843  0.3678 -0.5457 -0.3761
  940MOL0     C23954   9.956   8.899   7.824  0.9105 -0.1188 -0.7429
  940MOL0     C23955   9.862   8.906   7.930 -0.1407  0.2018 -0.1842
  940MOL0     O23956   9.733   8.860   7.929 -0.2378  0.1888  0.3731
  940MOL0     C23957   9.670   8.812   7.814  0.0752  0.1274 -0.1334
  940MOL0     C23958   9.518   8.820   7.812  0.2125  0.6635  0.3186
  940MOL0     C23959   9.473   8.737   7.933 -0.1474  0.4872 -0.6929
  940MOL0     C23960   9.323   8.731   7.945  0.9659 -1.1328 -0.5672
  940MOL0     C23961   9.265   8.878   7.971  0.1498  0.7176 -0.3321
  940MOL0     C23962   9.110   8.883   8.009  0.2258 -0.0429  0.0087
  940MOL0     C23963   9.096   8.803   8.137  0.1544  1.0614  0.7138
  940MOL0     C23964   8.973   8.838   8.211 -0.0228 -0.3704 -0.1642
  940MOL0     N23965   8.851   8.840   8.135  0.0620  0.8251  0.0108
  940MOL0     C23966   8.793   8.932   8.053 -0.0833  0.3748 -0.3317
  940MOL0     C23967   8.673   8.882   8.013  0.3801 -0.5813 -0.1370
  940MOL0     C23968   8.583   8.963   7.919 -0.2495  1.5521 -0.6919
  940MOL0     C23969   8.455   8.888   7.873  0.4580 -0.0484  0.3406
  940MOL0     C23970   8.387   8.956   7.747  0.0719  0.4161 -0.3451
  940MOL0     C23971   8.338   9.096   7.784 -0.1600 -0.0429 -0.1138
  940MOL0     O23972   8.221   9.088   7.868 -0.4700 -0.0746  0.7155
  940MOL0     C23973   8.107   9.094   7.806  0.3361 -0.2085  0.5669
  940MOL0     C23974   8.044   9.212   7.766 -0.0846  0.0291  0.1453
  940MOL0     C23975   7.916   9.220   7.713  0.2305 -0.4998  1.1302
  940MOL0     C23976   7.843   9.103   7.694 -0.0512  0.7904 -0.3799
  940MOL0     C23977   7.710   9.102   7.631 -0.0916 -1.2546 -0.2957
  940MOL0     O23978   7.621   9.015   7.677  1.3143  0.1243  0.1874
  940MOL0     C23979   7.484   9.015   7.646 -0.1100  0.6996 -0.2974
  940MOL0     C23980   7.418   8.897   7.677 -0.9284 -0.1620  1.0257
  940MOL0     C23981   7.279   8.888   7.665 -0.0027 -0.7300 -0.1452
  940MOL0     C23982   7.213   9.002   7.623  0.2825 -0.4959 -0.0357
  940MOL0     O23983   7.080   8.983   7.594  0.8127 -0.1034 -0.0182
  940MOL0     C23984   7.021   9.093   7.515  0.1822 -0.2739  0.3289
  940MOL0     C23985   6.877   9.058   7.468  0.4422 -0.1231  1.1106
  940MOL0     C23986   6.870   8.976   7.338  0.1945  0.8517  0.5257
  940MOL0     C23987   6.739   8.978   7.277 -0.3182  1.2054 -0.1634
  940MOL0     C23988   6.626   8.890   7.359  0.1532 -0.3493  0.4960
  940MOL0     C23989   6.647   8.742   7.356  0.6362  0.4986  0.4614
  940MOL0     C23990   6.554   8.680   7.451  0.0484  1.1232 -0.8672
  940MOL0     C23991   6.451   8.582   7.377 -0.1599 -0.0554 -0.5045
  940MOL0    Cl23992   6.323   8.559   7.485 -0.0701  0.1906  0.3099
  940MOL0     C23993   7.278   9.122   7.598  0.3091 -0.4739  0.1709
  940MOL0     C23994   7.409   9.126   7.601  0.2821  0.7369 -0.4100
  940MOL0     O23995   7.695   9.184   7.544  1.2707  0.0178  0.4319
  940MOL0     C23996   7.904   8.982   7.731 -0.4086 -0.4652 -0.3053
  940MOL0     C23997   8.032   8.977   7.790 -0.1857  0.3016  0.5081
  940MOL0     N23998   8.639   8.765   8.070 -0.0448  0.0999 -0.4920
  940MOL0     N23999   8.752   8.735   8.135 -0.3306 -1.3167 -0.7225
  940MOL0     C24000   9.907   8.940   8.060  0.8540 -1.0875  0.3698
  940MOL0     C24001  10.043   8.968   8.071 -1.0315  0.0635 -0.1617
  940MOL0     C24002  10.517   8.977   7.953 -0.6397 -0.1628 -0.1802
  940MOL0     C24003  10.557   8.863   8.013 -0.0497 -0.0505 -0.7623
  940MOL0     C24004  10.689   8.851   8.048  0.0230 -0.7002  0.0286
  940MOL0     C24005  10.778   8.950   8.029 -0.1849 -0.0062  0.3252
  940MOL0     O24006  10.911   8.940   8.066 -0.0048 -0.5796  0.0876
  940MOL0     C24007  11.013   8.985   7.967  0.1163 -0.0309 -0.9163
  940MOL0     C24008  11.152   8.934   8.006 -0.6325 -0.3383  1.0565
  940MOL0     C24009  11.268   9.027   7.957 -0.5596  0.0935  0.4786
  940MOL0     C24010  11.403   8.942   7.961  0.4017 -0.4912 -0.2800
  940MOL0     C24011  11.526   9.028   7.968  0.6320  0.3923  0.1230
  940MOL0     C24012  11.623   9.102   7.988 -0.1220  0.3476 -0.2370
  940MOL0     C24013  10.732   9.071   7.972 -0.5613 -0.0854 -0.5813
  940MOL0     C24014  10.602   9.084   7.934 -1.3433 -0.1476  0.1922
  940MOL0     H24015  10.160   8.899   7.759  1.8809 -1.2026  0.8954
  940MOL0     H24016   9.930   8.857   7.727 -0.3156 -1.4511  0.1100
  940MOL0     H24017   9.702   8.709   7.801  2.6247  0.6165  1.5344
  940MOL0     H24018   9.705   8.870   7.728 -2.5917  0.8314 -0.8565
  940MOL0     H24019   9.483   8.765   7.724  0.2704 -1.4678  1.5520
  940MOL0     H24020   9.482   8.923   7.822  0.2501  0.7902 -0.7543
  940MOL0     H24021   9.516   8.767   8.029 -3.4281  1.9274  0.4833
  940MOL0     H24022   9.517   8.637   7.921  0.0435  0.2978  1.2032
  940MOL0     H24023   9.274   8.704   7.851 -2.3263  0.4977  0.5202
  940MOL0     H24024   9.292   8.657   8.018  0.8273  0.4483  1.0425
  940MOL0     H24025   9.280   8.950   7.890  2.6616  0.1160 -0.4907
  940MOL0     H24026   9.323   8.926   8.051  0.4410  1.8837 -1.2258
  940MOL0     H24027   9.049   8.852   7.923  1.7271  1.4404 -1.6934
  940MOL0     H24028   9.086   8.986   8.036 -1.8308 -0.3672 -0.4044
  940MOL0     H24029   9.083   8.696   8.118  1.9427  0.8485  0.5380
  940MOL0     H24030   9.180   8.818   8.206  0.5724  4.0863 -0.2881
  940MOL0     H24031   8.984   8.936   8.259 -0.7005 -0.6607  0.6130
  940MOL0     H24032   8.968   8.765   8.292  1.9643 -0.4892 -0.1012
  940MOL0     H24033   8.838   9.021   8.010  0.6359 -1.1540 -2.9719
  940MOL0     H24034   8.639   8.983   7.827 -0.0520 -1.9901 -1.5025
  940MOL0     H24035   8.566   9.060   7.965  3.4604  2.6847 -1.3993
  940MOL0     H24036   8.382   8.894   7.955 -0.1778  0.8020 -0.2663
  940MOL0     H24037   8.468   8.782   7.852 -4.1740 -0.5879 -0.9400
  940MOL0     H24038   8.465   8.958   7.670  1.8137 -0.2123  1.3034
  940MOL0     H24039   8.300   8.898   7.715  1.0627 -2.1273  1.2170
  940MOL0     H24040   8.327   9.143   7.685  0.9320  1.2963  0.3571
  940MOL0     H24041   8.419   9.140   7.843 -0.3308 -0.7403  0.6567
  940MOL0     H24042   8.098   9.305   7.780  0.3155 -0.3011  0.8108
  940MOL0     H24043   7.886   9.312   7.664  0.2481  0.9037  3.5971
  940MOL0     H24044   7.472   8.814   7.723  1.6205  0.2098 -1.0446
  940MOL0     H24045   7.225   8.799   7.694 -0.4491  0.1149  1.7681
  940MOL0     H24046   7.086   9.115   7.430 -0.7733  0.3433 -0.2638
  940MOL0     H24047   7.020   9.181   7.580  1.6592  2.3436 -2.9219
  940MOL0     H24048   6.824   9.151   7.446 -0.8442 -1.0767  0.0101
  940MOL0     H24049   6.834   9.013   7.558 -0.7827 -0.6315  0.2851
  940MOL0     H24050   6.900   8.872   7.354 -2.4363 -0.1471 -0.4277
  940MOL0     H24051   6.945   9.022   7.273  0.5351 -0.9218 -0.4005
  940MOL0     H24052   6.705   9.080   7.256  1.8792  1.2743 -4.2098
  940MOL0     H24053   6.740   8.933   7.177 -0.9661  0.8661 -0.0287
  940MOL0     H24054   6.528   8.912   7.317  0.5360  1.9961  0.6596
  940MOL0     H24055   6.638   8.938   7.457  2.4199 -0.2754  0.2510
  940MOL0     H24056   6.745   8.710   7.392  0.1933 -2.2463 -0.5545
  940MOL0     H24057   6.633   8.695   7.258  1.7696 -1.6535  1.2581
  940MOL0     H24058   6.599   8.615   7.526 -2.2631  1.5454  0.9708
  940MOL0     H24059   6.498   8.750   7.512  0.2938 -0.4517  1.2720
  940MOL0     H24060   6.497   8.489   7.341 -1.1796 -0.4734 -0.7409
  940MOL0     H24061   6.403   8.636   7.295  0.7502 -0.1585 -1.1199
  940MOL0     H24062   7.225   9.216   7.588 -1.3287 -1.4642 -0.9426
  940MOL0     H24063   7.466   9.208   7.560  0.0515  0.4132 -1.4164
  940MOL0     H24064   7.844   8.893   7.718 -0.9843 -0.0949 -0.2439
  940MOL0     H24065   8.075   8.884   7.824  0.6594 -0.7250 -2.9987
  940MOL0     H24066   9.844   8.943   8.149 -1.8766  0.7277 -1.4698
  940MOL0     H24067  10.056   9.003   8.173  0.7040  0.0836 -0.3701
  940MOL0     H24068  10.481   8.792   8.043 -1.5575  0.5752 -2.9509
  940MOL0     H24069  10.725   8.764   8.102 -1.0970 -0.2829  1.5258
  940MOL0     H24070  11.015   9.095   7.962 -1.8711  0.1177  0.2287
  940MOL0     H24071  11.006   8.948   7.865 -1.9424  1.6933 -1.4892
  940MOL0     H24072  11.163   8.953   8.113  1.6340 -1.3738  1.0604
  940MOL0     H24073  11.167   8.830   7.974  0.2185 -0.0516  0.5143
  940MOL0     H24074  11.264   9.121   8.013 -3.6247  1.6963 -2.1332
  940MOL0     H24075  11.266   9.051   7.851  1.0458  0.8981  0.6030
  940MOL0     H24076  11.411   8.884   8.053  0.4483 -1.6414 -0.9863
  940MOL0     H24077  11.407   8.876   7.874 -0.4529  1.0003 -1.5137
  940MOL0     H24078  11.707   9.167   8.001 -0.4527  0.8011 -0.3522
  940MOL0     H24079  10.807   9.146   7.951 -0.2809 -0.0700  0.3838
  940MOL0     H24080  10.561   9.173   7.887  1.5514  1.0020 -0.3997
  941MOL0     O24081   3.587   4.875   4.303  0.4121 -0.3209 -0.1753
  941MOL0     C24082   3.584   4.932   4.414  0.2998  0.0994  1.6842
  941MOL0     O24083   3.473   4.931   4.493  0.7023 -0.4854  0.0770
  941MOL0     C24084   3.357   4.913   4.429  0.5987 -0.0842 -1.0263
  941MOL0     C24085   3.311   4.986   4.316  0.4261  0.0317 -0.4515
  941MOL0     C24086   3.180   4.970   4.268 -0.8247  0.1845  1.0076
  941MOL0     C24087   3.095   4.867   4.321  1.0143  0.2010  0.5559
  941MOL0     O24088   2.972   4.830   4.278 -0.3145 -0.4581 -0.3397
  941MOL0     C24089   2.931   4.892   4.151 -0.1916 -0.2675 -0.0307
  941MOL0     C24090   2.788   4.859   4.097 -0.1776  0.0132  0.7169
  941MOL0     C24091   2.688   4.797   4.202 -1.2221 -0.6963  0.3997
  941MOL0     C24092   2.559   4.771   4.132 -0.6858  0.7499 -0.3975
  941MOL0     C24093   2.446   4.748   4.235  0.1361  0.1108  0.1594
  941MOL0     C24094   2.319   4.722   4.159 -0.2498 -1.2901  0.2334
  941MOL0     C24095   2.272   4.833   4.058 -0.4214  0.3340 -0.0535
  941MOL0     C24096   2.141   4.815   3.994 -0.4646 -0.5061  0.3208
  941MOL0     N24097   2.114   4.687   3.932  0.8008 -0.2671  0.0817
  941MOL0     C24098   2.199   4.653   3.827 -0.0109 -0.4740 -0.4456
  941MOL0     C24099   2.168   4.526   3.817  1.0498  0.1359 -0.1646
  941MOL0     C24100   2.232   4.427   3.723 -0.3990  0.1358 -0.3330
  941MOL0     C24101   2.179   4.453   3.571 -0.4113  0.1965  0.8218
  941MOL0     C24102   2.034   4.409   3.550  1.2470 -0.3863 -0.5951
  941MOL0     C24103   1.939   4.534   3.549 -0.4791 -0.2199 -0.0166
  941MOL0     O24104   1.920   4.574   3.415 -0.0327  0.0471  0.0363
  941MOL0     C24105   1.806   4.534   3.344  0.2878 -0.0070 -0.0277
  941MOL0     C24106   1.736   4.414   3.372 -0.6159  0.1234 -0.0117
  941MOL0     C24107   1.615   4.382   3.305 -0.3526  0.4190 -0.6596
  941MOL0     C24108   1.558   4.464   3.207  0.2835  0.3265 -0.0502
  941MOL0     C24109   1.428   4.440   3.151  0.9196 -0.0072  0.1682
  941MOL0     O24110   1.375   4.540   3.064 -0.6749 -0.2046 -0.8927
  941MOL0     C24111   1.249   4.532   3.016  1.0015 -0.0098 -0.1703
  941MOL0     C24112   1.217   4.512   2.880  0.3678  0.4871  0.5816
  941MOL0     C24113   1.091   4.547   2.827 -1.2937 -1.8189  0.4225
  941MOL0     C24114   0.993   4.585   2.916  0.1889  0.1608 -0.3161
  941MOL0     O24115   0.866   4.637   2.880 -0.4051 -0.0035 -0.1080
  941MOL0     C24116   0.824   4.623   2.748  0.4736 -0.0356 -0.0482
  941MOL0     C24117   0.686   4.698   2.740 -0.3809 -0.1106  0.8885
  941MOL0     C24118   0.626   4.709   2.604 -0.1456  0.2293 -0.0894
  941MOL0     C24119   0.474   4.719   2.614  0.1184 -0.5592 -0.2177
  941MOL0     C24120   0.433   4.875   2.643  0.2767 -0.6402  0.7839
  941MOL0     C24121   0.284   4.908   2.604 -1.2997  0.1204  0.6404
  941MOL0     C24122   0.194   4.897   2.726  0.1596  0.1543  0.1813
  941MOL0     C24123   0.051   4.945   2.687  0.0713 -0.2026 -0.7678
  941MOL0    Cl24124  -0.002   4.872   2.529 -0.1076  0.0849  0.3551
  941MOL0     C24125   1.023   4.581   3.059  0.4035 -0.2670  0.2156
  941MOL0     C24126   1.148   4.564   3.107  0.4136 -0.7280  0.0699
  941MOL0     O24127   1.372   4.337   3.182 -0.2918  0.6404  0.4027
  941MOL0     C24128   1.642   4.573   3.168 -0.2465 -0.5195  0.4425
  941MOL0     C24129   1.757   4.603   3.233  0.1510 -1.2899  0.2418
  941MOL0     N24130   2.068   4.494   3.907 -0.7685 -0.5479  0.6590
  941MOL0     N24131   2.041   4.592   3.981  0.3312  0.1634 -0.0751
  941MOL0     C24132   3.135   4.796   4.438 -0.6832  0.8659  0.0731
  941MOL0     C24133   3.264   4.819   4.489 -0.4505 -0.1671  0.2828
  941MOL0     C24134   3.699   5.027   4.456  0.7201  0.4917  0.0643
  941MOL0     C24135   3.825   5.010   4.405 -0.0655  0.0806  0.1908
  941MOL0     C24136   3.931   5.098   4.448  0.2506  0.2569  0.3649
  941MOL0     C24137   3.900   5.207   4.534  0.5926 -0.1423  0.1714
  941MOL0     O24138   3.988   5.304   4.574  0.0462 -0.3193 -0.2002
  941MOL0     C24139   4.119   5.317   4.515  0.3277 -0.6943 -0.8760
  941MOL0     C24140   4.203   5.419   4.595 -0.4748 -0.3239 -0.1793
  941MOL0     C24141   4.341   5.422   4.535  0.1458 -0.6742  0.3452
  941MOL0     C24142   4.417   5.525   4.615 -0.0733  0.3058  0.7085
  941MOL0     C24143   4.561   5.514   4.590  0.0564 -0.0328 -0.2353
  941MOL0     C24144   4.685   5.507   4.585  0.1699 -0.6738 -0.1951
  941MOL0     C24145   3.771   5.203   4.598  0.3436  0.5067  0.2752
  941MOL0     C24146   3.674   5.121   4.554  0.5145  0.2969 -0.8338
  941MOL0     H24147   3.373   5.052   4.256  0.6790  0.9283  0.7619
  941MOL0     H24148   3.143   5.024   4.181 -1.6563  0.7608  1.7075
  941MOL0     H24149   2.998   4.841   4.080 -0.5148  1.0444 -1.3376
  941MOL0     H24150   2.944   5.001   4.150 -0.0698 -0.2406  1.7286
  941MOL0     H24151   2.801   4.787   4.016  1.8185  0.6670  0.3978
  941MOL0     H24152   2.751   4.951   4.049  0.7143  0.2799  0.5182
  941MOL0     H24153   2.669   4.869   4.283  0.3951  2.4660 -1.8149
  941MOL0     H24154   2.714   4.701   4.248 -1.7808 -1.2536 -0.4365
  941MOL0     H24155   2.529   4.841   4.054  0.3040 -0.4266 -1.8810
  941MOL0     H24156   2.575   4.681   4.071 -1.5783  0.7244 -0.6006
  941MOL0     H24157   2.424   4.840   4.291  0.7141 -0.6122  1.6069
  941MOL0     H24158   2.471   4.674   4.311  1.2568  0.4505  0.1353
  941MOL0     H24159   2.242   4.700   4.233  1.9138 -3.0961  2.0860
  941MOL0     H24160   2.334   4.627   4.106 -0.2354 -1.3671  0.3774
  941MOL0     H24161   2.258   4.924   4.117 -1.8121 -1.8510  3.2964
  941MOL0     H24162   2.337   4.844   3.971  1.8732 -4.1333  0.8187
  941MOL0     H24163   2.129   4.881   3.908 -0.6754 -3.1808 -1.8703
  941MOL0     H24164   2.071   4.838   4.075  0.3711 -3.0656  1.9012
  941MOL0     H24165   2.264   4.720   3.773 -1.1988  2.0357  1.0340
  941MOL0     H24166   2.195   4.328   3.752 -0.7917 -0.1738 -1.8385
  941MOL0     H24167   2.341   4.423   3.731 -0.4566 -0.1386  0.4119
  941MOL0     H24168   2.234   4.394   3.497 -3.0156 -2.1243  0.5942
  941MOL0     H24169   2.195   4.556   3.536 -0.3299 -1.1331 -3.6548
  941MOL0     H24170   2.021   4.346   3.462 -4.2346 -1.3875  0.5593
  941MOL0     H24171   2.003   4.343   3.632 -2.4384  0.5176 -1.0739
  941MOL0     H24172   1.994   4.612   3.604  1.0699  2.0000 -4.2451
  941MOL0     H24173   1.843   4.510   3.594 -1.6011  3.4560 -0.1145
  941MOL0     H24174   1.781   4.345   3.442  1.9414  0.5483 -1.1193
  941MOL0     H24175   1.569   4.286   3.328  2.2347 -1.2507 -1.9918
  941MOL0     H24176   1.298   4.484   2.813 -1.3273 -1.5771 -0.7369
  941MOL0     H24177   1.073   4.542   2.720 -1.6366  1.2939  0.2610
  941MOL0     H24178   0.805   4.517   2.731 -1.7617  0.5448 -1.5360
  941MOL0     H24179   0.885   4.677   2.675  0.6659 -1.2574 -0.8094
  941MOL0     H24180   0.697   4.799   2.780  3.8759 -0.7025  1.6913
  941MOL0     H24181   0.628   4.639   2.812 -1.8586  1.8992  1.4626
  941MOL0     H24182   0.642   4.613   2.554 -2.2437  0.2614 -0.9231
  941MOL0     H24183   0.663   4.797   2.550 -2.9028  0.9780 -0.9468
  941MOL0     H24184   0.430   4.688   2.519  2.4590  0.0899 -1.5869
  941MOL0     H24185   0.425   4.667   2.698 -1.9995  2.5203  0.6303
  941MOL0     H24186   0.495   4.942   2.584 -2.4745 -0.2524 -1.8976
  941MOL0     H24187   0.454   4.904   2.747 -0.1457 -0.9784  0.9722
  941MOL0     H24188   0.261   4.850   2.514 -1.0429  3.2364 -1.6011
  941MOL0     H24189   0.284   5.015   2.579  2.0299  0.0548 -0.1088
  941MOL0     H24190   0.196   4.793   2.759 -0.6754  0.8359  2.6284
  941MOL0     H24191   0.217   4.961   2.813 -1.3634 -0.5518  1.1428
  941MOL0     H24192   0.062   5.054   2.678  3.7691 -0.3789 -0.2121
  941MOL0     H24193  -0.024   4.929   2.765 -1.5822  1.5829 -1.8950
  941MOL0     H24194   0.940   4.604   3.125 -0.0676  0.4580 -0.6130
  941MOL0     H24195   1.148   4.565   3.216  0.1331 -1.0734  0.0742
  941MOL0     H24196   1.608   4.632   3.084 -1.1225  1.4481  2.1001
  941MOL0     H24197   1.817   4.686   3.197 -1.6236  0.5236  1.2754
  941MOL0     H24198   3.078   4.721   4.491  1.9113 -3.2091 -2.3483
  941MOL0     H24199   3.303   4.767   4.576  2.3667 -1.0061 -1.3643
  941MOL0     H24200   3.836   4.942   4.322 -0.7497  0.4608 -0.2235
  941MOL0     H24201   4.031   5.086   4.406  0.6744  0.8602  1.1823
  941MOL0     H24202   4.112   5.347   4.410 -0.4769 -3.1191 -1.6021
  941MOL0     H24203   4.174   5.223   4.523  0.5820 -0.3694  2.3231
  941MOL0     H24204   4.158   5.519   4.593  2.6355  1.2115 -0.5946
  941MOL0     H24205   4.203   5.390   4.700 -0.8725 -1.6154 -0.5271
  941MOL0     H24206   4.328   5.446   4.429 -0.7071  1.8151  0.9568
  941MOL0     H24207   4.396   5.327   4.540  0.0371 -0.8865 -1.5555
  941MOL0     H24208   4.371   5.622   4.593 -0.3874  0.8597  3.4621
  941MOL0     H24209   4.399   5.508   4.722 -2.7279  2.1299  0.6657
  941MOL0     H24210   4.790   5.521   4.568 -0.2055  2.0887 -0.5753
  941MOL0     H24211   3.738   5.275   4.673 -0.4365 -0.5778  1.0039
  941MOL0     H24212   3.570   5.141   4.575  0.7152  0.7337 -0.2576
  942MOL0     O24213   8.807  10.514   1.085  0.3619  0.0627  0.4260
  942MOL0     C24214   8.873  10.454   0.998 -0.4769 -0.9862  0.0150
  942MOL0     O24215   8.838  10.341   0.939 -0.6077  0.8045 -0.8230
  942MOL0     C24216   8.704  10.309   0.942  0.3471 -0.4349 -0.8192
  942MOL0     C24217   8.625  10.362   0.838  0.5221 -0.2353 -0.7304
  942MOL0     C24218   8.488  10.329   0.822 -0.0756 -0.0244 -0.2176
  942MOL0     C24219   8.426  10.265   0.930 -0.4093  0.7201  0.4287
  942MOL0     O24220   8.290  10.251   0.923 -0.1373  0.2992 -0.1952
  942MOL0     C24221   8.214  10.222   1.040 -0.1607 -0.0444  0.1299
  942MOL0     C24222   8.062  10.205   1.008 -0.2142 -0.5208 -0.1679
  942MOL0     C24223   8.008  10.339   0.953  0.8835 -0.3688  0.8747
  942MOL0     C24224   7.859  10.309   0.927  0.5860 -0.1442 -0.5336
  942MOL0     C24225   7.782  10.442   0.876  0.0325  0.5383 -0.4120
  942MOL0     C24226   7.632  10.421   0.901 -0.0853  0.9154  0.2896
  942MOL0     C24227   7.553  10.531   0.827  0.0236 -0.0215  0.2208
  942MOL0     C24228   7.406  10.507   0.849 -0.0766  0.4535  0.6908
  942MOL0     N24229   7.367  10.568   0.978  0.0665 -0.0068 -0.4835
  942MOL0     C24230   7.315  10.491   1.080  0.1488 -0.2885 -0.2352
  942MOL0     C24231   7.305  10.583   1.182 -0.1468 -0.5559  0.1513
  942MOL0     C24232   7.253  10.542   1.316 -0.3012 -0.7505 -0.1986
  942MOL0     C24233   7.096  10.548   1.339  0.2883  0.3212  0.5190
  942MOL0     C24234   7.045  10.514   1.478 -0.1059 -0.6401 -0.5111
  942MOL0     C24235   6.892  10.481   1.466 -0.6252  0.0576 -0.6706
  942MOL0     O24236   6.810  10.598   1.473  1.2287  1.5137 -1.2352
  942MOL0     C24237   6.674  10.589   1.474  0.6379  0.7856  0.6831
  942MOL0     C24238   6.592  10.707   1.456  0.0800  0.7894 -0.2047
  942MOL0     C24239   6.455  10.702   1.460  0.3630 -0.2272 -0.6526
  942MOL0     C24240   6.387  10.585   1.489  0.9711  0.8490 -0.1328
  942MOL0     C24241   6.235  10.583   1.498 -0.5659 -0.0220 -0.7246
  942MOL0     O24242   6.183  10.459   1.509  0.3618  0.6052 -0.5687
  942MOL0     C24243   6.048  10.463   1.536  0.5162 -0.5045  0.3114
  942MOL0     C24244   5.963  10.425   1.434  0.0517 -0.2576  0.3036
  942MOL0     C24245   5.823  10.422   1.457  0.5999  0.2952 -0.5527
  942MOL0     C24246   5.768  10.460   1.580 -0.1982  1.0092 -0.1455
  942MOL0     O24247   5.632  10.475   1.607 -0.6064  0.6032 -0.4658
  942MOL0     C24248   5.587  10.427   1.741 -0.8577 -0.9539  0.1311
  942MOL0     C24249   5.442  10.384   1.722 -0.3657 -0.0305 -0.0944
  942MOL0     C24250   5.349  10.503   1.712 -0.3004 -0.9186  0.3801
  942MOL0     C24251   5.195  10.454   1.730 -0.6260 -0.3838 -0.3977
  942MOL0     C24252   5.094  10.536   1.644  0.0947 -0.3290 -0.3335
  942MOL0     C24253   4.958  10.470   1.656 -0.4977  0.0599  0.1514
  942MOL0     C24254   4.865  10.481   1.774 -0.0501  0.4063  0.0465
  942MOL0     C24255   4.901  10.386   1.891 -0.7957 -0.0783  0.5031
  942MOL0    Cl24256   4.778  10.403   2.023  0.2161  0.3135  0.0498
  942MOL0     C24257   5.856  10.504   1.676 -0.9060  0.0082  0.5196
  942MOL0     C24258   5.992  10.497   1.656  0.4883 -0.7644  1.1185
  942MOL0     O24259   6.170  10.687   1.487 -0.1409  0.5839  0.1884
  942MOL0     C24260   6.456  10.471   1.512 -0.8403  0.4220  0.3761
  942MOL0     C24261   6.598  10.468   1.503  0.5027  0.9803  0.6333
  942MOL0     N24262   7.346  10.712   1.137  0.3626 -0.3828 -0.0014
  942MOL0     N24263   7.392  10.691   1.022 -0.7283 -0.1404  0.7231
  942MOL0     C24264   8.503  10.227   1.042  0.2776 -0.6512  0.6422
  942MOL0     C24265   8.643  10.241   1.041  0.2749  0.4188  0.7328
  942MOL0     C24266   9.011  10.504   0.970 -0.6501  0.7186  0.1991
  942MOL0     C24267   9.087  10.445   0.875 -0.8841 -0.4047 -0.4137
  942MOL0     C24268   9.212  10.496   0.851 -0.4240  1.1699 -0.1590
  942MOL0     C24269   9.271  10.601   0.917 -0.0908 -0.5122  0.2456
  942MOL0     O24270   9.397  10.643   0.891 -0.4076 -0.6974 -0.4452
  942MOL0     C24271   9.491  10.576   0.974 -0.2629  0.3502 -0.7128
  942MOL0     C24272   9.631  10.627   0.966 -0.6056 -0.5236  0.2061
  942MOL0     C24273   9.686  10.629   0.823 -0.1248  0.2265 -0.2276
  942MOL0     C24274   9.834  10.663   0.817  0.1129 -0.2856  0.1578
  942MOL0     C24275   9.866  10.782   0.896 -0.5494 -0.5033 -0.1127
  942MOL0     C24276   9.880  10.888   0.955  0.3516 -0.7471  0.5494
  942MOL0     C24277   9.194  10.667   1.011 -1.0847  0.4500  0.2172
  942MOL0     C24278   9.065  10.616   1.036 -0.0272  0.8345 -0.1660
  942MOL0     H24279   8.678  10.428   0.770  1.7063 -2.3245 -1.9383
  942MOL0     H24280   8.417  10.370   0.751 -0.2016 -0.4869 -0.3680
  942MOL0     H24281   8.240  10.299   1.114  1.2666 -2.7474  2.6416
  942MOL0     H24282   8.239  10.127   1.087  0.3297 -1.2116 -2.3494
  942MOL0     H24283   8.016  10.188   1.105  2.0103 -1.8000  0.7401
  942MOL0     H24284   8.046  10.128   0.931  0.1754 -1.2935  0.5107
  942MOL0     H24285   8.053  10.368   0.858  1.1309 -0.8741  0.8334
  942MOL0     H24286   8.020  10.423   1.022  0.2777  0.8038 -0.4127
  942MOL0     H24287   7.856  10.228   0.853 -0.1832  1.3126 -2.1711
  942MOL0     H24288   7.822  10.280   1.026 -0.3359 -0.5918 -0.9871
  942MOL0     H24289   7.795  10.450   0.768 -1.1066 -1.0931 -0.7100
  942MOL0     H24290   7.803  10.534   0.930 -3.2002  0.6975  0.7535
  942MOL0     H24291   7.602  10.432   1.006  1.8441 -0.9882  1.1267
  942MOL0     H24292   7.611  10.317   0.874  2.3475 -0.1876  2.1664
  942MOL0     H24293   7.579  10.631   0.864  0.5391  0.0951 -0.4177
  942MOL0     H24294   7.582  10.522   0.721  0.3394 -3.4025  0.4845
  942MOL0     H24295   7.386  10.399   0.851 -0.6464  0.5548  0.6070
  942MOL0     H24296   7.352  10.545   0.763  0.6459 -2.0011 -0.9556
  942MOL0     H24297   7.299  10.384   1.091 -0.8854 -0.4545 -2.6797
  942MOL0     H24298   7.307  10.610   1.383 -0.0409 -0.4746 -0.6796
  942MOL0     H24299   7.272  10.438   1.345 -1.0629 -1.5037 -2.2271
  942MOL0     H24300   7.051  10.478   1.268 -0.8783  0.3958  1.1618
  942MOL0     H24301   7.075  10.650   1.306  0.6241  0.1632 -0.1924
  942MOL0     H24302   7.103  10.432   1.521 -0.2306  0.9753  3.1327
  942MOL0     H24303   7.064  10.597   1.547  0.5663 -1.6206  0.5303
  942MOL0     H24304   6.878  10.409   1.547  0.9313 -0.6534 -1.0053
  942MOL0     H24305   6.868  10.427   1.374 -0.8071  0.0411 -0.6138
  942MOL0     H24306   6.638  10.805   1.449 -0.0071  0.9605  1.3157
  942MOL0     H24307   6.403  10.797   1.452  3.1641  1.3109 -2.5046
  942MOL0     H24308   5.995  10.396   1.334 -3.7574 -4.3856 -0.0255
  942MOL0     H24309   5.758  10.389   1.377  0.1489  1.0993 -0.5275
  942MOL0     H24310   5.596  10.495   1.827  0.3279 -1.7520  0.6621
  942MOL0     H24311   5.654  10.346   1.771  1.6653  1.4461  1.4336
  942MOL0     H24312   5.419  10.322   1.809 -0.3718  1.1564  0.7776
  942MOL0     H24313   5.429  10.322   1.633 -2.6812 -1.4137  1.1132
  942MOL0     H24314   5.365  10.561   1.620  0.0906 -2.2457 -0.4200
  942MOL0     H24315   5.362  10.566   1.800 -1.1479 -0.6220  0.3071
  942MOL0     H24316   5.198  10.347   1.708  0.0850 -0.1522 -1.4609
  942MOL0     H24317   5.167  10.465   1.836 -3.8890  0.3865 -1.2235
  942MOL0     H24318   5.122  10.522   1.539 -1.1164 -4.1238 -0.2909
  942MOL0     H24319   5.087  10.643   1.666 -1.7877 -0.6601  0.9041
  942MOL0     H24320   4.976  10.365   1.635  0.6709 -0.3307  2.7229
  942MOL0     H24321   4.909  10.520   1.572 -0.8828 -0.4337  0.0802
  942MOL0     H24322   4.869  10.584   1.811  1.4780  0.9495 -1.4983
  942MOL0     H24323   4.768  10.453   1.731  0.4128 -0.5977 -0.3457
  942MOL0     H24324   4.998  10.411   1.935 -0.4052  1.7468 -1.2177
  942MOL0     H24325   4.896  10.284   1.851  0.9195  0.7235 -2.0357
  942MOL0     H24326   5.815  10.527   1.774  1.9342 -3.1952  2.7224
  942MOL0     H24327   6.052  10.530   1.740  1.7584 -0.6592  0.1918
  942MOL0     H24328   6.404  10.379   1.533  0.5774 -0.5189 -0.0487
  942MOL0     H24329   6.642  10.370   1.520 -0.8250 -0.0263 -1.3443
  942MOL0     H24330   8.457  10.167   1.120 -0.6852 -0.1807  0.4567
  942MOL0     H24331   8.707  10.208   1.123 -2.3697 -1.6308  2.1543
  942MOL0     H24332   9.056  10.357   0.819 -1.4861 -1.5058  1.5495
  942MOL0     H24333   9.267  10.443   0.774  0.9127  4.4450 -1.6002
  942MOL0     H24334   9.493  10.469   0.955  0.3441  0.0510  0.8870
  942MOL0     H24335   9.467  10.585   1.081 -2.6473 -2.2809 -0.9001
  942MOL0     H24336   9.627  10.727   1.011 -0.6452 -0.0286 -0.8819
  942MOL0     H24337   9.689  10.570   1.039  1.1757  0.9909  0.0391
  942MOL0     H24338   9.631  10.698   0.758  0.8249  1.3207  0.1117
  942MOL0     H24339   9.679  10.535   0.767  1.8439 -1.7481  2.6166
  942MOL0     H24340   9.888  10.578   0.860  0.5233  1.1525  2.6812
  942MOL0     H24341   9.869  10.666   0.713  3.3347 -1.7303  1.0550
  942MOL0     H24342   9.893  10.977   1.014  1.8817  2.0020 -3.5055
  942MOL0     H24343   9.229  10.760   1.055 -0.2474  0.5413 -0.6087
  942MOL0     H24344   9.000  10.658   1.112 -1.5364 -0.0443 -0.9260
  943MOL0     O24345   8.870   2.328   2.555  0.3999 -0.0696 -0.0936
  943MOL0     C24346   8.935   2.428   2.582 -0.5951 -0.1821 -0.4750
  943MOL0     O24347   8.897   2.532   2.655  0.1960 -1.2750  0.2644
  943MOL0     C24348   8.762   2.536   2.686 -0.4256  0.3366  0.3360
  943MOL0     C24349   8.656   2.539   2.593  0.3098 -0.5120 -0.1798
  943MOL0     C24350   8.514   2.540   2.635 -1.2786  0.6778 -0.2683
  943MOL0     C24351   8.483   2.553   2.769  0.2114  0.2303 -0.3949
  943MOL0     O24352   8.353   2.574   2.793  0.3339 -0.4054  0.2742
  943MOL0     C24353   8.310   2.520   2.919 -0.1994 -0.1401  0.6061
  943MOL0     C24354   8.163   2.550   2.950 -0.7610 -0.5242  0.1800
  943MOL0     C24355   8.068   2.514   2.837 -0.1861 -0.5629  1.1228
  943MOL0     C24356   7.925   2.560   2.879 -0.5221 -0.1706 -1.4440
  943MOL0     C24357   7.825   2.485   2.791  0.3028  0.2202 -0.5136
  943MOL0     C24358   7.687   2.524   2.829 -0.3293  1.2066  0.2893
  943MOL0     C24359   7.587   2.420   2.780  0.3757  0.3034  0.2616
  943MOL0     C24360   7.445   2.443   2.806 -0.4572 -1.0147 -0.0435
  943MOL0     N24361   7.378   2.392   2.926  0.9922 -0.3782 -0.0679
  943MOL0     C24362   7.263   2.314   2.929  0.1443  0.0807 -0.4630
  943MOL0     C24363   7.231   2.308   3.062 -0.7052 -0.7975 -0.1651
  943MOL0     C24364   7.097   2.267   3.122 -0.6868 -0.2030  0.7803
  943MOL0     C24365   6.969   2.328   3.064 -0.5375 -0.6170  0.0162
  943MOL0     C24366   6.856   2.257   3.138  0.2364  0.4206  0.6446
  943MOL0     C24367   6.719   2.314   3.090  0.0459  0.1616  0.4240
  943MOL0     O24368   6.688   2.445   3.146 -0.0427 -0.3879  0.4395
  943MOL0     C24369   6.567   2.511   3.125 -0.4355 -0.6906  0.9823
  943MOL0     C24370   6.545   2.632   3.196 -0.6564 -0.3621  0.5257
  943MOL0     C24371   6.427   2.704   3.187  0.2088  0.0181  0.5163
  943MOL0     C24372   6.330   2.662   3.093 -0.2393  0.9005  1.1051
  943MOL0     C24373   6.200   2.734   3.078 -0.1290 -0.3755 -0.2805
  943MOL0     O24374   6.119   2.688   2.972  0.3998 -0.1408 -0.6463
  943MOL0     C24375   5.986   2.729   2.962 -0.2000 -1.0045 -0.8064
  943MOL0     C24376   5.894   2.771   3.057  0.4871  0.9495 -0.7401
  943MOL0     C24377   5.758   2.792   3.029 -0.2528 -0.4209 -0.4110
  943MOL0     C24378   5.701   2.769   2.894 -0.3605 -0.0831 -0.3748
  943MOL0     O24379   5.570   2.784   2.873  0.1118  0.0233  1.0221
  943MOL0     C24380   5.489   2.691   2.944 -0.5977  0.1285 -0.3156
  943MOL0     C24381   5.357   2.664   2.878 -0.4202 -0.3444 -0.9225
  943MOL0     C24382   5.263   2.787   2.880 -0.0978 -0.9004  0.0409
  943MOL0     C24383   5.119   2.753   2.838 -0.7946  0.3147  0.1421
  943MOL0     C24384   5.039   2.889   2.865  0.0814 -0.2732 -0.2077
  943MOL0     C24385   4.896   2.877   2.811  0.7002  0.1393 -0.1446
  943MOL0     C24386   4.831   3.014   2.799  0.2875  0.2957  0.0679
  943MOL0     C24387   4.691   2.991   2.737  0.2708  0.0871  0.2607
  943MOL0    Cl24388   4.577   2.898   2.848  0.3200  0.0598  0.5793
  943MOL0     C24389   5.795   2.725   2.800 -0.3875  0.0660  0.4255
  943MOL0     C24390   5.934   2.721   2.832 -0.2570 -0.2567 -0.2783
  943MOL0     O24391   6.169   2.825   3.158  0.0895  0.3955  0.1565
  943MOL0     C24392   6.361   2.538   3.026  0.6373 -1.0787 -0.7308
  943MOL0     C24393   6.474   2.468   3.041  1.7843 -0.2239  0.5960
  943MOL0     N24394   7.335   2.369   3.134 -1.1620 -0.5275  0.3085
  943MOL0     N24395   7.421   2.431   3.055 -0.2847 -0.3354 -0.5066
  943MOL0     C24396   8.586   2.555   2.865  0.2551  0.2092 -0.1133
  943MOL0     C24397   8.721   2.539   2.822  0.1210 -0.9043 -0.0891
  943MOL0     C24398   9.080   2.437   2.545  0.1636  0.2056 -0.4709
  943MOL0     C24399   9.112   2.380   2.423  0.9958 -0.8081 -0.0290
  943MOL0     C24400   9.244   2.377   2.375  0.0025  0.0884  0.3801
  943MOL0     C24401   9.339   2.448   2.455 -0.3315 -0.5147 -0.6997
  943MOL0     O24402   9.473   2.464   2.426  0.1036 -0.4263 -0.8377
  943MOL0     C24403   9.509   2.459   2.291 -0.0001 -0.1103  0.0644
  943MOL0     C24404   9.649   2.507   2.266 -0.1382  0.0512  0.5880
  943MOL0     C24405   9.675   2.654   2.307 -0.2380  0.0912  0.4262
  943MOL0     C24406   9.559   2.747   2.331 -0.2838  0.2053  1.1465
  943MOL0     C24407   9.603   2.886   2.346  0.3896 -0.8693 -0.5665
  943MOL0     C24408   9.640   2.998   2.374 -0.3328  0.3794 -0.3562
  943MOL0     C24409   9.304   2.503   2.578 -0.3124  0.3254  0.3988
  943MOL0     C24410   9.178   2.506   2.626 -0.4896  0.9110  0.0261
  943MOL0     H24411   8.685   2.549   2.489 -0.4790  2.6987 -0.1998
  943MOL0     H24412   8.440   2.544   2.555 -2.2028  1.2618  0.6000
  943MOL0     H24413   8.370   2.564   2.999 -1.0224  0.9158  0.6691
  943MOL0     H24414   8.336   2.414   2.922 -0.9132 -0.4616 -2.0188
  943MOL0     H24415   8.155   2.654   2.982 -0.3859 -0.7154  0.9208
  943MOL0     H24416   8.142   2.495   3.042 -2.0407  0.8266  0.7422
  943MOL0     H24417   8.069   2.405   2.829 -0.6379 -0.4891 -0.1057
  943MOL0     H24418   8.104   2.547   2.739  1.3219 -0.5602  1.6393
  943MOL0     H24419   7.914   2.558   2.988 -2.5912  1.8513 -1.5354
  943MOL0     H24420   7.914   2.666   2.858  1.0274 -0.1138 -2.0622
  943MOL0     H24421   7.841   2.378   2.807 -1.9889 -0.1293 -0.2522
  943MOL0     H24422   7.840   2.501   2.684  3.0234  1.2568 -0.0783
  943MOL0     H24423   7.654   2.623   2.796  0.6592  1.5761  0.3769
  943MOL0     H24424   7.682   2.503   2.937 -0.9731 -0.6006 -0.0563
  943MOL0     H24425   7.591   2.421   2.671  2.4296  2.8893  0.2347
  943MOL0     H24426   7.619   2.319   2.807 -1.3901 -1.7447 -4.3251
  943MOL0     H24427   7.387   2.402   2.722 -1.4867 -0.5313  0.4167
  943MOL0     H24428   7.429   2.551   2.806 -0.4389 -1.0078 -0.7929
  943MOL0     H24429   7.213   2.272   2.843  1.1489 -1.4926 -0.3051
  943MOL0     H24430   7.101   2.289   3.229  1.9427  2.9696  0.2199
  943MOL0     H24431   7.089   2.161   3.099  0.2199 -0.3810  1.2235
  943MOL0     H24432   6.965   2.334   2.955  1.6579  2.2946 -0.0341
  943MOL0     H24433   6.960   2.433   3.094 -2.1016 -1.0831  1.3049
  943MOL0     H24434   6.863   2.149   3.120  1.0056  0.3190  1.4610
  943MOL0     H24435   6.866   2.267   3.247  2.1223  0.7478  0.4789
  943MOL0     H24436   6.637   2.247   3.115 -0.8849  0.0300 -2.6458
  943MOL0     H24437   6.712   2.318   2.981 -0.9569  0.0332  0.4799
  943MOL0     H24438   6.629   2.661   3.258  2.0316 -1.6351 -2.2790
  943MOL0     H24439   6.400   2.788   3.251 -0.5665  0.6417 -0.6045
  943MOL0     H24440   5.921   2.768   3.162 -0.9289  1.8812 -0.3132
  943MOL0     H24441   5.692   2.817   3.111 -1.3290  0.1506 -1.4129
  943MOL0     H24442   5.490   2.717   3.050 -0.7344 -3.4449  0.6966
  943MOL0     H24443   5.539   2.593   2.946  3.5447  2.0229 -1.1767
  943MOL0     H24444   5.318   2.583   2.940 -2.0095  1.3903  0.4450
  943MOL0     H24445   5.366   2.634   2.773 -1.0277 -2.6154 -0.3772
  943MOL0     H24446   5.304   2.873   2.827 -0.2715 -0.1493  1.0929
  943MOL0     H24447   5.266   2.812   2.986  0.8103 -1.4222  0.1498
  943MOL0     H24448   5.110   2.719   2.734  0.2381 -0.2291  0.2240
  943MOL0     H24449   5.096   2.679   2.915 -0.8686  0.9197  0.7151
  943MOL0     H24450   5.089   2.974   2.818 -0.2166  0.8332  1.3904
  943MOL0     H24451   5.049   2.925   2.968  1.4805  2.3846 -1.1798
  943MOL0     H24452   4.832   2.818   2.877 -3.0210  1.6765 -2.0631
  943MOL0     H24453   4.907   2.832   2.713  0.3893  1.5007 -0.8396
  943MOL0     H24454   4.821   3.058   2.898 -0.0345  3.4251 -1.2479
  943MOL0     H24455   4.884   3.088   2.739 -0.7970  0.4273 -0.7573
  943MOL0     H24456   4.695   2.938   2.641 -0.2336  1.0416 -0.3014
  943MOL0     H24457   4.650   3.088   2.710 -0.0562 -0.1183  0.0034
  943MOL0     H24458   5.774   2.677   2.705  1.5549 -0.3084  0.1387
  943MOL0     H24459   6.016   2.699   2.764  0.1900 -1.3835  0.5925
  943MOL0     H24460   6.285   2.502   2.958 -1.4354 -0.7879  1.3024
  943MOL0     H24461   6.483   2.383   2.974  0.0755  0.1963 -0.2356
  943MOL0     H24462   8.570   2.572   2.970  0.7367 -0.2024  0.0309
  943MOL0     H24463   8.806   2.540   2.889 -0.4663  0.8840  0.6707
  943MOL0     H24464   9.037   2.334   2.360 -1.7774  1.3394  1.4446
  943MOL0     H24465   9.260   2.325   2.281  1.7558 -0.6500  1.0399
  943MOL0     H24466   9.437   2.507   2.224  0.7494  1.7948  0.5776
  943MOL0     H24467   9.511   2.352   2.268  2.2132 -0.6329  2.2553
  943MOL0     H24468   9.715   2.438   2.321  0.0242  0.9624  1.5749
  943MOL0     H24469   9.670   2.493   2.160 -3.4929 -1.6467  0.0227
  943MOL0     H24470   9.736   2.696   2.227 -2.9083  2.0627 -0.7273
  943MOL0     H24471   9.745   2.657   2.392 -0.3290  0.1664  0.5002
  943MOL0     H24472   9.498   2.750   2.240  0.3149 -2.2752  0.5920
  943MOL0     H24473   9.498   2.719   2.417 -1.4061 -4.2400 -0.7912
  943MOL0     H24474   9.675   3.097   2.396  1.0939  0.3921 -2.4063
  943MOL0     H24475   9.384   2.540   2.642 -0.7721 -0.5047  1.4839
  943MOL0     H24476   9.135   2.543   2.719 -2.1397 -1.8148  0.4356
  944MOL0     O24477   3.511   4.241   7.993  0.8584 -0.2339  0.5310
  944MOL0     C24478   3.492   4.318   8.094  0.6077 -0.9511 -0.5600
  944MOL0     O24479   3.555   4.306   8.221  0.8808  0.7052  0.5903
  944MOL0     C24480   3.657   4.221   8.214 -0.2610  1.0462 -0.2770
  944MOL0     C24481   3.789   4.267   8.211  0.0998  0.5598  0.3982
  944MOL0     C24482   3.889   4.176   8.195 -0.9022  0.0360 -0.3363
  944MOL0     C24483   3.863   4.032   8.201  0.1552 -0.2163  0.2958
  944MOL0     O24484   3.961   3.939   8.190 -0.2355  0.1327 -0.5611
  944MOL0     C24485   4.099   3.970   8.194 -0.2914 -0.5943 -0.2141
  944MOL0     C24486   4.176   3.846   8.190  0.7384  0.0423 -0.0661
  944MOL0     C24487   4.326   3.882   8.169 -1.0519 -0.1709 -0.0582
  944MOL0     C24488   4.422   3.766   8.199 -0.1766 -0.4179  0.3901
  944MOL0     C24489   4.562   3.826   8.196 -0.2650  0.3756 -0.9394
  944MOL0     C24490   4.677   3.722   8.201  0.1228 -0.7316 -0.1170
  944MOL0     C24491   4.811   3.788   8.234 -0.4084  0.1746  1.1251
  944MOL0     C24492   4.916   3.681   8.279 -0.3183  0.1773 -0.2215
  944MOL0     N24493   5.028   3.745   8.347  0.6871 -0.9952 -0.0616
  944MOL0     C24494   4.988   3.833   8.453 -0.3083  0.3918 -0.4097
  944MOL0     C24495   5.088   3.927   8.459  1.3385 -0.0704 -0.8205
  944MOL0     C24496   5.086   4.029   8.570 -0.1419  0.2571 -0.1706
  944MOL0     C24497   5.027   4.159   8.530  0.0661  0.2432 -0.3030
  944MOL0     C24498   4.883   4.154   8.490  0.2303  0.2367 -0.1374
  944MOL0     C24499   4.790   4.103   8.598  0.5926 -0.1012 -0.5493
  944MOL0     O24500   4.661   4.141   8.545 -0.6004  0.0355  0.1462
  944MOL0     C24501   4.552   4.078   8.591 -0.3205 -0.4360  0.8672
  944MOL0     C24502   4.558   3.992   8.702  1.0166 -0.1391  0.2974
  944MOL0     C24503   4.441   3.924   8.735 -0.3222 -1.0768  0.3887
  944MOL0     C24504   4.328   3.925   8.650 -0.3144  0.2901  0.1672
  944MOL0     C24505   4.205   3.838   8.678  0.1683 -0.4832 -0.8376
  944MOL0     O24506   4.109   3.832   8.585 -0.2847 -0.2681  0.1910
  944MOL0     C24507   3.987   3.777   8.611 -0.4745 -0.7036  0.0728
  944MOL0     C24508   3.922   3.718   8.497 -0.0340 -0.0368  0.5390
  944MOL0     C24509   3.789   3.696   8.497 -0.2521  0.1052  0.5140
  944MOL0     C24510   3.712   3.712   8.613 -1.1328  0.0911 -0.1041
  944MOL0     O24511   3.584   3.668   8.637  0.1830 -0.5671  0.0420
  944MOL0     C24512   3.488   3.691   8.528 -0.4975 -0.5096  0.0518
  944MOL0     C24513   3.456   3.843   8.517 -1.0070 -0.2171  0.2674
  944MOL0     C24514   3.358   3.878   8.404 -0.2261  0.2204 -0.0868
  944MOL0     C24515   3.301   4.016   8.412  0.2047 -0.9720 -0.5506
  944MOL0     C24516   3.228   4.037   8.287  0.4387 -0.0192 -0.1547
  944MOL0     C24517   3.144   4.161   8.288  0.5553  0.4848 -0.1048
  944MOL0     C24518   3.061   4.196   8.152 -0.6094 -0.3639 -0.1181
  944MOL0     C24519   2.962   4.315   8.159  0.7874  0.4303 -0.3932
  944MOL0    Cl24520   2.876   4.366   8.002 -0.0423  0.4047  0.5086
  944MOL0     C24521   3.782   3.764   8.725  0.4814  0.6974  0.0791
  944MOL0     C24522   3.910   3.794   8.720 -0.2982 -0.1849 -0.3137
  944MOL0     O24523   4.201   3.780   8.788  0.3983 -0.0438  0.6858
  944MOL0     C24524   4.326   4.014   8.544  0.0562 -0.0661  0.5066
  944MOL0     C24525   4.436   4.091   8.511  0.4667 -0.3582  0.5985
  944MOL0     N24526   5.169   3.908   8.352  0.2365 -0.3812  0.2710
  944MOL0     N24527   5.137   3.805   8.277 -0.0153 -0.0292  0.2526
  944MOL0     C24528   3.731   3.985   8.210 -0.1028  0.1409 -0.5183
  944MOL0     C24529   3.631   4.082   8.216  0.3649 -0.2981  0.0477
  944MOL0     C24530   3.379   4.423   8.074 -0.1091  0.2453 -0.3772
  944MOL0     C24531   3.333   4.451   7.942  0.0294  1.0375 -0.3798
  944MOL0     C24532   3.227   4.534   7.929  0.9426 -0.4868 -0.9211
  944MOL0     C24533   3.166   4.593   8.040 -0.5055 -0.2873 -0.9296
  944MOL0     O24534   3.048   4.672   8.023 -0.1005  0.6528  0.6907
  944MOL0     C24535   2.973   4.694   7.900 -0.5553 -0.4656 -0.3641
  944MOL0     C24536   3.041   4.788   7.801 -0.1316 -1.3099  0.1525
  944MOL0     C24537   3.072   4.934   7.850 -0.0017  0.0659 -0.2103
  944MOL0     C24538   2.971   4.990   7.952 -0.1314 -1.1757  0.3220
  944MOL0     C24539   2.853   5.011   7.868  0.4041 -0.3759  0.1168
  944MOL0     C24540   2.748   5.015   7.800 -0.1672  0.0090  0.2924
  944MOL0     C24541   3.219   4.578   8.171 -0.0802 -0.5252  1.1310
  944MOL0     C24542   3.324   4.489   8.185 -0.6192 -0.4198  0.2350
  944MOL0     H24543   3.803   4.374   8.212  0.5141  0.5221 -0.5111
  944MOL0     H24544   3.984   4.229   8.193 -0.7199 -0.2865 -0.2640
  944MOL0     H24545   4.127   4.022   8.286  0.9768 -0.4521 -0.6725
  944MOL0     H24546   4.121   4.035   8.110 -1.2140  2.7347  1.9125
  944MOL0     H24547   4.147   3.771   8.115  1.4796 -2.5397  2.0776
  944MOL0     H24548   4.157   3.796   8.285 -0.7660 -2.4858 -1.5607
  944MOL0     H24549   4.351   3.961   8.240  2.5234  0.0509 -1.3301
  944MOL0     H24550   4.342   3.916   8.066 -0.9494  0.7889  0.2654
  944MOL0     H24551   4.411   3.728   8.301  0.0512  0.4250  0.7377
  944MOL0     H24552   4.418   3.689   8.122  1.6778 -1.9379  1.7018
  944MOL0     H24553   4.569   3.885   8.287 -2.2037  0.9934 -1.1445
  944MOL0     H24554   4.581   3.892   8.110 -1.0371 -1.3861 -2.5502
  944MOL0     H24555   4.677   3.662   8.109  2.1896  0.0325 -0.6624
  944MOL0     H24556   4.642   3.665   8.287 -0.3717  1.2352  1.0356
  944MOL0     H24557   4.864   3.825   8.146 -1.2643 -2.2097 -0.4948
  944MOL0     H24558   4.789   3.863   8.310 -0.4042  0.5778  0.7285
  944MOL0     H24559   4.954   3.615   8.201  2.2899 -0.2324  1.2684
  944MOL0     H24560   4.877   3.607   8.350 -1.2173  0.2767 -0.5992
  944MOL0     H24561   4.899   3.818   8.514 -0.6650 -0.3970 -1.1009
  944MOL0     H24562   5.193   4.033   8.595  0.3672 -0.1267 -2.0598
  944MOL0     H24563   5.033   4.001   8.661  2.4476 -2.0715  0.7743
  944MOL0     H24564   5.083   4.191   8.442  1.9909  1.3808  1.2576
  944MOL0     H24565   5.034   4.234   8.609  4.3594  1.6456 -1.6934
  944MOL0     H24566   4.845   4.253   8.461 -1.8893 -0.5617 -0.2630
  944MOL0     H24567   4.873   4.090   8.403  1.4949  0.1336 -0.2294
  944MOL0     H24568   4.805   4.152   8.695 -1.0852  1.7902 -1.1683
  944MOL0     H24569   4.803   3.997   8.619 -1.5378 -1.1357 -3.7699
  944MOL0     H24570   4.642   3.977   8.769  1.8906 -2.2307 -1.1448
  944MOL0     H24571   4.455   3.848   8.811  1.3676 -1.0624  0.1190
  944MOL0     H24572   4.001   3.706   8.424 -0.0130 -3.1080  0.9664
  944MOL0     H24573   3.752   3.644   8.409  1.9820 -3.2130  1.3439
  944MOL0     H24574   3.396   3.636   8.553 -0.0618 -0.5982  1.5741
  944MOL0     H24575   3.534   3.644   8.441  0.8389  0.5223  0.1860
  944MOL0     H24576   3.551   3.894   8.501 -0.4796 -1.8341 -2.2576
  944MOL0     H24577   3.424   3.876   8.617  2.9814 -0.2900  1.7565
  944MOL0     H24578   3.278   3.805   8.419 -0.0871 -0.1797 -1.2186
  944MOL0     H24579   3.418   3.865   8.313  1.5126  3.2603  0.4878
  944MOL0     H24580   3.231   4.026   8.495  0.4449  1.4183 -0.5667
  944MOL0     H24581   3.376   4.094   8.428 -0.7434  0.1113 -1.2085
  944MOL0     H24582   3.155   3.957   8.271  1.5752 -0.7671 -1.8735
  944MOL0     H24583   3.294   4.040   8.200  1.4622 -1.6596  0.5133
  944MOL0     H24584   3.208   4.249   8.304  1.6452 -0.6086  2.0156
  944MOL0     H24585   3.069   4.151   8.367  1.1379  0.7697  0.4943
  944MOL0     H24586   3.138   4.230   8.082 -1.1056  1.8337  0.3477
  944MOL0     H24587   3.016   4.110   8.101  0.6365 -0.1160 -1.7318
  944MOL0     H24588   3.021   4.405   8.179 -1.0877  1.7079 -0.3734
  944MOL0     H24589   2.884   4.295   8.233 -1.2286 -1.1602 -2.7754
  944MOL0     H24590   3.727   3.783   8.817  2.4420  2.9312  0.8938
  944MOL0     H24591   3.944   3.858   8.801 -1.6537  2.9030 -1.9732
  944MOL0     H24592   4.248   3.998   8.471  0.9824 -1.2056 -0.2835
  944MOL0     H24593   4.437   4.165   8.431 -0.3363 -0.9418  0.0427
  944MOL0     H24594   3.723   3.877   8.206  1.2969 -0.0109 -4.4887
  944MOL0     H24595   3.527   4.051   8.214  0.1970  0.2144  0.7289
  944MOL0     H24596   3.368   4.400   7.852 -1.7258  0.1772 -0.6058
  944MOL0     H24597   3.183   4.556   7.832 -0.7460  0.4653  0.0069
  944MOL0     H24598   2.873   4.726   7.930 -1.1201  1.0642 -3.4785
  944MOL0     H24599   2.951   4.598   7.852  0.2445 -0.6646 -0.3544
  944MOL0     H24600   3.130   4.742   7.756  0.6655 -2.0418  2.3397
  944MOL0     H24601   2.975   4.805   7.715  0.0095 -1.8033 -0.0619
  944MOL0     H24602   3.081   5.005   7.767  3.2314  1.1974  0.9439
  944MOL0     H24603   3.172   4.935   7.896 -1.3370 -0.6386  2.9940
  944MOL0     H24604   2.948   4.928   8.039  0.2834  0.9907  2.0632
  944MOL0     H24605   3.009   5.079   8.002 -0.1994  2.1773 -4.8461
  944MOL0     H24606   2.655   5.008   7.749 -2.1618 -0.5896  3.6988
  944MOL0     H24607   3.184   4.634   8.257  1.3843 -1.8567  2.6774
  944MOL0     H24608   3.369   4.480   8.283  1.7960 -0.3933 -0.7880
  945MOL0     O24609   6.411   9.026   3.414  0.5443  0.2665 -0.1768
  945MOL0     C24610   6.379   8.949   3.501 -0.6052 -0.0580 -0.6742
  945MOL0     O24611   6.251   8.900   3.539 -0.6283 -0.7656 -0.2628
  945MOL0     C24612   6.142   8.964   3.478 -0.5753 -0.2469 -0.7422
  945MOL0     C24613   6.082   9.083   3.539  0.3322  0.3682  0.7948
  945MOL0     C24614   5.970   9.139   3.468  0.7086 -0.3519 -0.2992
  945MOL0     C24615   5.918   9.089   3.342 -0.1515 -0.0309  0.4218
  945MOL0     O24616   5.804   9.124   3.283 -0.3077  0.6567  0.1794
  945MOL0     C24617   5.705   9.196   3.353  0.5889  0.1124  0.9773
  945MOL0     C24618   5.600   9.250   3.256  0.2679  0.2030  0.2994
  945MOL0     C24619   5.488   9.324   3.324  1.3157 -0.2908 -0.0767
  945MOL0     C24620   5.361   9.338   3.235  0.2557 -0.1064 -0.0816
  945MOL0     C24621   5.245   9.384   3.314  0.2944  0.3952  0.6542
  945MOL0     C24622   5.122   9.437   3.247  0.9904 -0.4706  0.0601
  945MOL0     C24623   5.131   9.577   3.184 -0.5778  0.0177  0.1364
  945MOL0     C24624   5.001   9.647   3.181  0.2979  0.9049  0.4410
  945MOL0     N24625   4.913   9.613   3.066 -0.3143  0.8519  0.2792
  945MOL0     C24626   4.855   9.495   3.048 -0.1164 -0.3449  0.7897
  945MOL0     C24627   4.777   9.517   2.939 -0.6217  0.7119 -0.5325
  945MOL0     C24628   4.710   9.399   2.870 -0.7554  0.3217  0.2308
  945MOL0     C24629   4.566   9.445   2.834 -0.2523 -0.6272 -0.4884
  945MOL0     C24630   4.469   9.323   2.819 -0.5231  0.4543 -0.6977
  945MOL0     C24631   4.333   9.360   2.767  0.7012  0.1810 -0.0396
  945MOL0     O24632   4.227   9.267   2.790 -0.3756 -0.1545  0.2215
  945MOL0     C24633   4.152   9.223   2.682  0.1813  0.2713 -0.1590
  945MOL0     C24634   4.030   9.153   2.712  0.1527  0.6110 -0.3554
  945MOL0     C24635   3.939   9.119   2.610  0.2602 -0.4143 -0.2038
  945MOL0     C24636   3.983   9.130   2.469 -1.1863  1.1781 -0.7447
  945MOL0     C24637   3.891   9.094   2.359  0.2270  0.6489  0.0442
  945MOL0     O24638   3.778   9.028   2.399  0.1584  0.2305  0.4102
  945MOL0     C24639   3.711   8.959   2.302 -0.2434 -0.9170 -0.1215
  945MOL0     C24640   3.585   8.998   2.274 -0.1530  0.4847  0.5768
  945MOL0     C24641   3.505   8.932   2.180 -0.4908 -0.9398  0.3261
  945MOL0     C24642   3.566   8.824   2.110 -0.2980 -0.1649 -0.3419
  945MOL0     O24643   3.485   8.775   2.008 -0.0888 -0.3495 -0.1002
  945MOL0     C24644   3.537   8.734   1.884 -0.6250  0.2648 -0.1282
  945MOL0     C24645   3.635   8.829   1.811 -0.9678 -0.1554 -0.8366
  945MOL0     C24646   3.559   8.949   1.741 -0.2919 -0.2072 -0.4621
  945MOL0     C24647   3.653   9.056   1.687  0.1711 -0.3638 -0.2859
  945MOL0     C24648   3.572   9.179   1.637  0.3503  0.2244  0.2262
  945MOL0     C24649   3.473   9.149   1.520  0.0074  0.5232 -0.2861
  945MOL0     C24650   3.381   9.272   1.496 -0.0365  0.1923  0.3731
  945MOL0     C24651   3.300   9.258   1.367 -0.4089  0.4383 -0.0517
  945MOL0    Cl24652   3.389   9.307   1.219 -0.0582 -0.1481 -0.0202
  945MOL0     C24653   3.690   8.780   2.140  0.6118  0.2821 -0.1009
  945MOL0     C24654   3.772   8.850   2.238  0.5322 -0.1763  0.4475
  945MOL0     O24655   3.915   9.124   2.240 -0.1231 -0.1261  0.0799
  945MOL0     C24656   4.110   9.186   2.444 -0.4752  0.5899 -0.3000
  945MOL0     C24657   4.189   9.237   2.543 -0.4854 -0.0014 -0.1735
  945MOL0     N24658   4.792   9.643   2.895 -0.8560 -0.1423 -0.5688
  945MOL0     N24659   4.883   9.700   2.969  0.0751 -0.2424  0.0474
  945MOL0     C24660   5.995   8.983   3.287  0.4846  0.2929  0.0658
  945MOL0     C24661   6.103   8.923   3.355 -0.9314 -0.7132  0.2701
  945MOL0     C24662   6.499   8.892   3.574 -0.7731  0.7009 -0.5155
  945MOL0     C24663   6.473   8.805   3.682  0.1788 -0.2009  0.0644
  945MOL0     C24664   6.587   8.745   3.738 -0.8946  0.4072  0.6559
  945MOL0     C24665   6.718   8.771   3.701  0.7069  0.2506 -0.0461
  945MOL0     O24666   6.814   8.705   3.769 -0.1636  0.2868  0.2308
  945MOL0     C24667   6.950   8.706   3.714  0.9406 -0.1530  0.7732
  945MOL0     C24668   7.031   8.813   3.786 -0.0822  0.5049 -0.1566
  945MOL0     C24669   7.141   8.744   3.881  0.2834  0.1062  0.1567
  945MOL0     C24670   7.187   8.839   3.996 -0.1897  1.2519  0.0432
  945MOL0     C24671   7.276   8.943   3.944  0.0524  0.1233  0.0322
  945MOL0     C24672   7.327   9.046   3.902  0.3607 -0.3038  0.2438
  945MOL0     C24673   6.740   8.863   3.602 -0.8812  0.6602  0.0627
  945MOL0     C24674   6.635   8.917   3.539 -0.0377  0.2290  0.0146
  945MOL0     H24675   6.131   9.129   3.624 -0.4906  2.4896  0.1671
  945MOL0     H24676   5.912   9.219   3.513 -0.0278  0.8042 -3.0851
  945MOL0     H24677   5.738   9.288   3.402 -0.1504  0.4933  0.7809
  945MOL0     H24678   5.652   9.142   3.432 -1.1291  2.1894  1.3595
  945MOL0     H24679   5.559   9.167   3.197  0.0548  0.2535  0.3751
  945MOL0     H24680   5.655   9.314   3.186 -0.9592  0.8239 -0.1231
  945MOL0     H24681   5.512   9.424   3.362 -0.3503  0.1807 -0.2073
  945MOL0     H24682   5.457   9.267   3.412 -1.0725 -0.2756 -0.8454
  945MOL0     H24683   5.381   9.402   3.148  1.9203  0.2154  0.4932
  945MOL0     H24684   5.340   9.241   3.191  0.3222  0.4744 -1.4530
  945MOL0     H24685   5.273   9.467   3.380  0.4930  1.3974 -0.6578
  945MOL0     H24686   5.213   9.296   3.372  0.4548  0.0416  0.2100
  945MOL0     H24687   5.047   9.449   3.326  0.1983  2.7263 -1.0429
  945MOL0     H24688   5.066   9.368   3.183 -1.2147  0.4133  0.9431
  945MOL0     H24689   5.209   9.630   3.240  2.5283 -4.3738  0.4696
  945MOL0     H24690   5.170   9.555   3.084 -1.0656 -0.7954  0.1196
  945MOL0     H24691   5.021   9.754   3.167  1.8999  0.6029  0.1432
  945MOL0     H24692   4.945   9.630   3.273 -1.7112  0.6309 -0.7726
  945MOL0     H24693   4.871   9.408   3.110 -0.2980 -1.0075 -0.0766
  945MOL0     H24694   4.707   9.314   2.938 -1.5611  1.0454  1.1274
  945MOL0     H24695   4.765   9.358   2.785 -1.3717 -3.8708  1.6198
  945MOL0     H24696   4.568   9.507   2.744  0.2295 -1.0031 -0.7395
  945MOL0     H24697   4.531   9.516   2.910 -0.5859 -0.9615 -0.3251
  945MOL0     H24698   4.518   9.245   2.761  1.6070  1.9761 -1.0727
  945MOL0     H24699   4.453   9.284   2.920  1.8095  1.6614  0.2154
  945MOL0     H24700   4.348   9.395   2.664 -0.8231  0.2139 -0.2868
  945MOL0     H24701   4.301   9.459   2.803  0.6734  1.6660 -3.6562
  945MOL0     H24702   3.997   9.133   2.814  1.1492 -0.6179 -0.2375
  945MOL0     H24703   3.845   9.068   2.631  1.6843 -3.2542 -0.2107
  945MOL0     H24704   3.537   9.077   2.332 -1.1093  0.9796 -0.8099
  945MOL0     H24705   3.404   8.968   2.161 -0.0307  0.6615  0.7310
  945MOL0     H24706   3.451   8.724   1.816 -3.4886  4.5535  2.4004
  945MOL0     H24707   3.567   8.629   1.895  0.8115  0.7110  0.3673
  945MOL0     H24708   3.683   8.772   1.731  2.3953 -0.8814  1.4495
  945MOL0     H24709   3.706   8.865   1.886 -3.4505  0.8012  1.2104
  945MOL0     H24710   3.505   8.995   1.824 -1.5939  1.4339 -2.1347
  945MOL0     H24711   3.486   8.906   1.672 -0.9564 -1.7354  1.1198
  945MOL0     H24712   3.729   9.079   1.762  1.1764 -0.2312 -1.3145
  945MOL0     H24713   3.715   9.013   1.608  0.9079 -1.0321  0.6197
  945MOL0     H24714   3.630   9.266   1.604  1.9657 -0.1231  2.0334
  945MOL0     H24715   3.516   9.222   1.720 -0.3693  0.7684 -0.5216
  945MOL0     H24716   3.413   9.060   1.540 -0.3280  0.6776 -0.5842
  945MOL0     H24717   3.529   9.134   1.428  0.4994  0.3527  0.0377
  945MOL0     H24718   3.300   9.274   1.570  0.5935  2.3413  1.0902
  945MOL0     H24719   3.434   9.367   1.506 -2.2880  1.6388 -0.5353
  945MOL0     H24720   3.208   9.314   1.385  0.2923  1.0019  2.0976
  945MOL0     H24721   3.283   9.150   1.358  0.3660  0.0567  2.2267
  945MOL0     H24722   3.743   8.702   2.086 -1.4239  0.0919 -1.9705
  945MOL0     H24723   3.877   8.821   2.243  0.9895  1.1599 -0.6506
  945MOL0     H24724   4.145   9.193   2.341  0.4204  2.2763  0.0750
  945MOL0     H24725   4.278   9.281   2.498 -0.9271 -0.8346 -1.9549
  945MOL0     H24726   5.961   8.946   3.191 -3.1968 -2.8247  2.3264
  945MOL0     H24727   6.142   8.838   3.300  0.1902 -1.2861  1.8872
  945MOL0     H24728   6.375   8.777   3.719 -0.0487 -4.9593 -3.2272
  945MOL0     H24729   6.590   8.672   3.818 -0.0859 -0.8558 -0.4872
  945MOL0     H24730   6.952   8.731   3.607  1.6088 -0.2194  0.7644
  945MOL0     H24731   6.992   8.605   3.721  2.8218  0.5091 -0.1439
  945MOL0     H24732   7.075   8.881   3.714 -0.9902  2.6496  1.2163
  945MOL0     H24733   6.961   8.854   3.859 -0.0528  1.8223 -0.8518
  945MOL0     H24734   7.225   8.711   3.819  1.3517  2.9217 -0.0592
  945MOL0     H24735   7.100   8.654   3.927  0.2903 -1.5462 -2.8159
  945MOL0     H24736   7.103   8.886   4.049 -0.8317  0.5365 -0.3218
  945MOL0     H24737   7.252   8.782   4.063  2.0864 -0.2710 -3.1716
  945MOL0     H24738   7.358   9.146   3.878 -4.3871  0.7538 -2.6927
  945MOL0     H24739   6.837   8.906   3.577 -1.2385  3.4676  2.7865
  945MOL0     H24740   6.641   8.976   3.448  0.7751 -2.2874 -1.6406
  946MOL0     O24741   0.080   6.883   8.239  0.8770 -0.2346 -0.3343
  946MOL0     C24742   0.147   6.783   8.265  0.0931  0.1271 -0.3579
  946MOL0     O24743   0.101   6.654   8.282  0.3430  0.3494  0.4968
  946MOL0     C24744  -0.020   6.614   8.234 -0.2241 -0.0708  0.0102
  946MOL0     C24745  -0.060   6.494   8.286  0.3272 -0.2444 -0.7972
  946MOL0     C24746  -0.173   6.422   8.237  0.1637 -0.7712  0.6941
  946MOL0     C24747  -0.263   6.480   8.143 -0.2228 -0.6238 -1.0484
  946MOL0     O24748  -0.380   6.419   8.106  0.0471 -1.2411 -0.0777
  946MOL0     C24749  -0.419   6.299   8.170  0.0848 -0.7128  0.3004
  946MOL0     C24750  -0.555   6.253   8.136 -0.4059  0.5047 -0.5778
  946MOL0     C24751  -0.669   6.333   8.214  0.3265  0.0026 -0.2554
  946MOL0     C24752  -0.804   6.283   8.172  0.1627  0.1556  0.0054
  946MOL0     C24753  -0.923   6.367   8.209 -0.6006 -0.7906 -0.2407
  946MOL0     C24754  -1.050   6.313   8.154 -0.3870 -0.6547 -0.3201
  946MOL0     C24755  -1.163   6.401   8.201 -0.1930  0.3686 -0.8049
  946MOL0     C24756  -1.284   6.409   8.104 -0.6692 -0.2135 -0.3519
  946MOL0     N24757  -1.400   6.489   8.148  0.1785  0.6003 -0.1305
  946MOL0     C24758  -1.480   6.459   8.257 -0.3960  0.1762  0.5087
  946MOL0     C24759  -1.597   6.531   8.238  0.0431  0.4082 -0.5875
  946MOL0     C24760  -1.715   6.546   8.335 -0.2048 -0.3848  0.0380
  946MOL0     C24761  -1.806   6.425   8.323  0.4030  0.3497 -0.5410
  946MOL0     C24762  -1.927   6.435   8.417 -0.3014  0.0097  0.7106
  946MOL0     C24763  -2.032   6.535   8.365  0.6535  0.2328  0.1870
  946MOL0     O24764  -2.124   6.549   8.475 -0.0092 -0.0530  0.0649
  946MOL0     C24765  -2.205   6.662   8.488 -0.1223  1.6889 -0.7639
  946MOL0     C24766  -2.284   6.659   8.597  0.1139  0.2450  1.1907
  946MOL0     C24767  -2.370   6.765   8.628 -0.2237  0.0228 -0.0283
  946MOL0     C24768  -2.363   6.888   8.557 -0.0700  0.0784 -0.0103
  946MOL0     C24769  -2.459   6.996   8.589 -0.4608  0.2127  0.2925
  946MOL0     O24770  -2.529   6.983   8.699 -0.1726  0.3798  0.2154
  946MOL0     C24771  -2.642   7.063   8.719 -0.2208 -0.7263  0.5522
  946MOL0     C24772  -2.656   7.117   8.848  0.2060 -0.0600 -0.2860
  946MOL0     C24773  -2.768   7.186   8.877  0.0193 -0.8965  0.4468
  946MOL0     C24774  -2.867   7.210   8.784  0.1507  0.7570 -0.6739
  946MOL0     O24775  -2.991   7.265   8.813  0.5071  0.0870  0.7031
  946MOL0     C24776  -3.025   7.283   8.953  0.4404 -0.0599 -0.1500
  946MOL0     C24777  -3.162   7.354   8.972 -0.0021  0.4046  0.2041
  946MOL0     C24778  -3.182   7.402   9.117 -0.5789 -0.1884  0.3362
  946MOL0     C24779  -3.321   7.456   9.131 -0.7602 -0.6963  0.3826
  946MOL0     C24780  -3.359   7.440   9.281  0.1615 -0.0573 -0.1923
  946MOL0     C24781  -3.500   7.479   9.313 -0.7087  0.1179  1.1563
  946MOL0     C24782  -3.527   7.487   9.466  0.5834 -0.5031 -0.6850
  946MOL0     C24783  -3.651   7.567   9.515 -0.1591 -0.1147  0.3629
  946MOL0    Cl24784  -3.684   7.527   9.675  0.2836 -0.0973 -0.3992
  946MOL0     C24785  -2.849   7.160   8.649 -0.1852 -0.5520 -0.2438
  946MOL0     C24786  -2.738   7.089   8.621 -0.2278  0.8167 -0.1364
  946MOL0     O24787  -2.474   7.088   8.509  0.7797  0.9687 -0.0165
  946MOL0     C24788  -2.273   6.896   8.446 -0.1449  0.8341  0.1140
  946MOL0     C24789  -2.195   6.776   8.409 -0.5226 -0.2907 -0.6017
  946MOL0     N24790  -1.578   6.614   8.126 -0.7830  0.8011 -0.3848
  946MOL0     N24791  -1.461   6.589   8.077  0.6550 -0.4138  0.1805
  946MOL0     C24792  -0.228   6.611   8.107  0.4803  0.2279 -0.5181
  946MOL0     C24793  -0.111   6.680   8.154 -0.1835  0.7982 -0.5692
  946MOL0     C24794   0.275   6.803   8.326  0.1820  0.0541  0.6609
  946MOL0     C24795   0.389   6.726   8.311  0.0828 -1.0201  1.0369
  946MOL0     C24796   0.518   6.761   8.363  0.9562  0.2823 -0.5914
  946MOL0     C24797   0.530   6.885   8.428 -0.3534 -0.5772  0.8251
  946MOL0     O24798   0.650   6.946   8.466  1.4606  0.6524  0.7664
  946MOL0     C24799   0.771   6.871   8.486 -0.1090  0.0158  0.4189
  946MOL0     C24800   0.883   6.907   8.382  0.3125  0.1522 -0.1919
  946MOL0     C24801   0.844   6.869   8.245  0.8833 -0.7933  0.9752
  946MOL0     C24802   0.937   6.939   8.136 -0.0953 -0.2401  0.2344
  946MOL0     C24803   1.073   6.895   8.139 -0.1333 -0.6066 -0.1059
  946MOL0     C24804   1.187   6.860   8.123  0.0998  0.8481 -0.0556
  946MOL0     C24805   0.415   6.953   8.464 -0.1848  0.0554  0.4355
  946MOL0     C24806   0.285   6.910   8.423  0.5410 -0.0353  0.6592
  946MOL0     H24807  -0.004   6.452   8.369 -0.6571 -0.1465 -0.0576
  946MOL0     H24808  -0.187   6.324   8.281 -1.2181 -0.4788  0.9440
  946MOL0     H24809  -0.424   6.320   8.277 -1.2928  2.6903 -0.3050
  946MOL0     H24810  -0.353   6.217   8.137  2.1118  1.4957 -1.5456
  946MOL0     H24811  -0.560   6.151   8.175 -1.4318  1.6662  2.6544
  946MOL0     H24812  -0.574   6.269   8.029  1.6530  2.1301 -0.7780
  946MOL0     H24813  -0.659   6.439   8.188 -0.0030  0.1658  0.2799
  946MOL0     H24814  -0.656   6.333   8.322 -3.5752  2.7499  0.4587
  946MOL0     H24815  -0.801   6.275   8.063  0.2975 -1.0452  0.0918
  946MOL0     H24816  -0.821   6.183   8.213 -3.9910 -0.7520 -3.2823
  946MOL0     H24817  -0.922   6.462   8.154 -2.4237 -0.1784  0.6974
  946MOL0     H24818  -0.929   6.387   8.316 -0.3767 -0.6306 -0.2569
  946MOL0     H24819  -1.069   6.207   8.174 -2.8611 -0.0857  0.7092
  946MOL0     H24820  -1.033   6.319   8.046  0.4899 -2.5782 -0.3338
  946MOL0     H24821  -1.191   6.371   8.303  1.0455 -0.4959 -0.6900
  946MOL0     H24822  -1.136   6.506   8.214 -1.9785  1.2091 -3.1601
  946MOL0     H24823  -1.316   6.308   8.079 -0.5769 -0.5691  0.9268
  946MOL0     H24824  -1.252   6.457   8.011 -0.4197  0.3231  0.0047
  946MOL0     H24825  -1.445   6.398   8.340 -0.5768  2.3226  2.2633
  946MOL0     H24826  -1.768   6.636   8.303  0.6082  0.3254  0.6294
  946MOL0     H24827  -1.677   6.569   8.435  3.2154  2.1768 -1.6286
  946MOL0     H24828  -1.741   6.341   8.350  0.4751  0.4256 -0.4807
  946MOL0     H24829  -1.837   6.423   8.218  0.5610  0.9595 -0.6025
  946MOL0     H24830  -1.979   6.339   8.415  2.1185 -1.3910 -1.6154
  946MOL0     H24831  -1.895   6.458   8.519 -0.4262  0.4190  0.6608
  946MOL0     H24832  -2.083   6.503   8.274  0.8358  0.6990 -0.0799
  946MOL0     H24833  -1.977   6.627   8.345  1.0668  0.2780  1.4444
  946MOL0     H24834  -2.287   6.567   8.655 -2.2662  1.4594  3.1756
  946MOL0     H24835  -2.422   6.755   8.723 -0.8947  0.5563 -0.3330
  946MOL0     H24836  -2.580   7.088   8.920  0.9200  0.2005 -0.9234
  946MOL0     H24837  -2.785   7.204   8.983 -2.1936  1.4241 -0.1859
  946MOL0     H24838  -2.950   7.348   8.999 -0.0007  0.7334 -0.5256
  946MOL0     H24839  -3.038   7.186   9.001 -1.8649 -0.2876 -1.0869
  946MOL0     H24840  -3.241   7.282   8.950 -1.7321  2.2696  0.0544
  946MOL0     H24841  -3.166   7.435   8.899  0.3376 -0.9305 -1.3455
  946MOL0     H24842  -3.107   7.477   9.144 -1.3736  0.0734  1.9344
  946MOL0     H24843  -3.166   7.318   9.185  1.4465 -0.2422 -0.1550
  946MOL0     H24844  -3.319   7.564   9.115 -0.1032 -0.0981  3.6868
  946MOL0     H24845  -3.394   7.411   9.062  1.1093 -3.3993  0.0133
  946MOL0     H24846  -3.295   7.508   9.339 -1.7706  3.1376 -1.5191
  946MOL0     H24847  -3.348   7.340   9.325 -0.0949  0.7176  1.7535
  946MOL0     H24848  -3.561   7.407   9.258 -0.4860  1.4447 -0.9120
  946MOL0     H24849  -3.534   7.570   9.264  1.1673 -0.1677 -0.8273
  946MOL0     H24850  -3.547   7.384   9.495  0.6332 -0.5242 -0.7249
  946MOL0     H24851  -3.443   7.525   9.525 -2.1889  2.5073  1.7017
  946MOL0     H24852  -3.736   7.560   9.447  1.0009  2.0945 -1.4435
  946MOL0     H24853  -3.622   7.673   9.516  1.2451 -0.2910  5.0400
  946MOL0     H24854  -2.921   7.180   8.570 -0.1607  0.5311 -0.0098
  946MOL0     H24855  -2.727   7.043   8.523 -0.8037 -0.9198  0.5685
  946MOL0     H24856  -2.254   6.984   8.385 -0.4153 -0.3018 -1.6976
  946MOL0     H24857  -2.129   6.779   8.323 -1.0088  1.6290 -0.9573
  946MOL0     H24858  -0.287   6.668   8.035  0.0147  2.1621  1.2834
  946MOL0     H24859  -0.112   6.785   8.126  0.9812  1.6271  2.1901
  946MOL0     H24860   0.379   6.630   8.260 -1.0754 -0.4842  0.2014
  946MOL0     H24861   0.602   6.695   8.343  0.6347 -0.1043 -0.7007
  946MOL0     H24862   0.760   6.763   8.493  1.8226 -0.3659 -1.4043
  946MOL0     H24863   0.812   6.897   8.584  0.3169  0.2942  0.1731
  946MOL0     H24864   0.914   7.011   8.377 -0.5704  0.3784 -1.7572
  946MOL0     H24865   0.974   6.861   8.422 -0.9780 -0.2876  2.4731
  946MOL0     H24866   0.740   6.899   8.227  0.9801 -1.2036 -0.4507
  946MOL0     H24867   0.849   6.761   8.229  0.1281 -1.0025  2.0911
  946MOL0     H24868   0.895   6.902   8.042  1.3747  0.4922 -0.7354
  946MOL0     H24869   0.926   7.047   8.133 -1.2920 -0.3519  0.0430
  946MOL0     H24870   1.287   6.822   8.124 -0.4274 -0.6224  1.2349
  946MOL0     H24871   0.437   7.048   8.510  2.6767 -1.0316  1.5526
  946MOL0     H24872   0.200   6.973   8.448  0.6333 -0.0941  1.1270
  947MOL0     O24873   9.967   3.283   0.571 -0.2570 -0.8119 -0.5147
  947MOL0     C24874  10.041   3.186   0.577  0.2992  0.2243 -0.2558
  947MOL0     O24875  10.002   3.051   0.584  0.1229 -0.0212  0.1034
  947MOL0     C24876   9.869   3.033   0.561 -0.3281  0.3432  0.2023
  947MOL0     C24877   9.814   3.048   0.427  0.0620 -0.0787  1.3151
  947MOL0     C24878   9.678   3.057   0.401  0.0171  0.2827 -0.5673
  947MOL0     C24879   9.592   3.031   0.510 -0.0041  0.5100 -0.4123
  947MOL0     O24880   9.455   3.036   0.500 -0.4067  0.2958  0.1337
  947MOL0     C24881   9.386   3.007   0.381 -0.5729 -0.2810  0.0328
  947MOL0     C24882   9.233   2.990   0.399  1.0919  0.5472 -1.2886
  947MOL0     C24883   9.155   3.092   0.314  0.6857 -0.4626  0.0171
  947MOL0     C24884   9.148   3.063   0.167  0.0045 -0.7438  0.2648
  947MOL0     C24885   9.015   2.988   0.122 -0.7523  0.6601 -0.1452
  947MOL0     C24886   9.026   2.970  -0.024 -0.3131 -0.1760  0.4563
  947MOL0     C24887   8.908   2.891  -0.075  0.0513 -0.1047 -0.7346
  947MOL0     C24888   8.928   2.853  -0.231  0.8703 -0.3167  0.6268
  947MOL0     N24889   8.795   2.808  -0.272 -0.4368  0.2895  0.0771
  947MOL0     C24890   8.701   2.882  -0.340  0.1155 -0.2824  0.3193
  947MOL0     C24891   8.599   2.803  -0.373 -0.4153 -0.1156 -0.0775
  947MOL0     C24892   8.472   2.844  -0.440 -0.2358  0.3760  0.0452
  947MOL0     C24893   8.358   2.739  -0.449  0.4188  0.5812  1.1848
  947MOL0     C24894   8.301   2.724  -0.318  0.4981 -1.0651 -0.4983
  947MOL0     C24895   8.170   2.639  -0.315  0.8741  0.2638  0.2857
  947MOL0     O24896   8.059   2.713  -0.368  0.2768 -0.6160 -0.1811
  947MOL0     C24897   7.943   2.649  -0.408 -1.4528 -0.5301  0.7633
  947MOL0     C24898   7.922   2.518  -0.378 -0.0523  0.0301  0.1561
  947MOL0     C24899   7.799   2.467  -0.381  0.2488  0.9218  0.3700
  947MOL0     C24900   7.696   2.524  -0.439 -0.4210 -0.4876 -0.6010
  947MOL0     C24901   7.576   2.446  -0.459  0.4650  0.8263 -0.1971
  947MOL0     O24902   7.470   2.510  -0.512 -0.5182 -0.6383 -0.0810
  947MOL0     C24903   7.347   2.454  -0.536  0.2614  0.4566  0.1828
  947MOL0     C24904   7.283   2.474  -0.671 -0.1209 -0.4180 -0.4868
  947MOL0     C24905   7.145   2.434  -0.682 -0.6098  0.3519 -0.1607
  947MOL0     C24906   7.080   2.387  -0.567  0.4131 -0.1806 -0.0299
  947MOL0     O24907   6.952   2.334  -0.564  0.8701  0.3570  0.2832
  947MOL0     C24908   6.872   2.338  -0.685  0.0529 -0.9695 -0.0696
  947MOL0     C24909   6.722   2.294  -0.673 -0.2085 -0.1026  0.0532
  947MOL0     C24910   6.643   2.352  -0.554 -0.0086 -0.8595  0.8680
  947MOL0     C24911   6.503   2.284  -0.527  0.3811  0.6631  0.2109
  947MOL0     C24912   6.400   2.365  -0.450  1.1242  0.2260  0.0949
  947MOL0     C24913   6.275   2.285  -0.436 -0.3069  0.5554 -0.8165
  947MOL0     C24914   6.160   2.371  -0.384  0.1646  0.1688  0.0142
  947MOL0     C24915   6.071   2.285  -0.302  0.5185 -0.0656  0.6997
  947MOL0    Cl24916   6.108   2.266  -0.131  0.4077 -0.1703 -0.1913
  947MOL0     C24917   7.141   2.374  -0.448  0.0809 -0.3350 -0.3068
  947MOL0     C24918   7.274   2.406  -0.429  0.5846 -0.4321 -0.4679
  947MOL0     O24919   7.575   2.318  -0.441  0.1598  1.1589 -0.1475
  947MOL0     C24920   7.713   2.658  -0.484  0.1752  0.0860  0.0490
  947MOL0     C24921   7.838   2.718  -0.457  0.1797 -0.2362 -0.1677
  947MOL0     N24922   8.631   2.675  -0.330  0.3809 -1.1099  0.6589
  947MOL0     N24923   8.743   2.681  -0.269  0.3501 -1.6777  0.5053
  947MOL0     C24924   9.645   3.005   0.638  1.1069  0.5119 -0.3919
  947MOL0     C24925   9.781   3.006   0.660 -0.7653 -0.1926 -0.0561
  947MOL0     C24926  10.183   3.194   0.601 -0.7680  0.1011 -0.4721
  947MOL0     C24927  10.254   3.098   0.681 -0.6659 -0.1574 -0.4619
  947MOL0     C24928  10.392   3.091   0.681  0.4314  0.1525  0.6793
  947MOL0     C24929  10.461   3.194   0.627 -1.1214 -0.0946 -0.0077
  947MOL0     O24930  10.597   3.182   0.627  0.0411 -0.0263 -0.4659
  947MOL0     C24931  10.686   3.289   0.590  0.5221  0.4063 -0.4489
  947MOL0     C24932  10.835   3.257   0.639  0.2366 -0.0140 -0.3133
  947MOL0     C24933  10.877   3.108   0.630 -0.3404  0.3291 -0.9913
  947MOL0     C24934  11.029   3.101   0.659 -0.3123  1.1070  0.2012
  947MOL0     C24935  11.064   2.969   0.722  0.1456  0.0390  0.4049
  947MOL0     C24936  11.107   2.863   0.758  0.0389  0.5525 -0.3850
  947MOL0     C24937  10.400   3.310   0.573 -0.4668  0.4794  1.2248
  947MOL0     C24938  10.258   3.312   0.561  0.1900  0.7221 -0.6458
  947MOL0     H24939   9.893   3.069   0.356  0.1746 -2.4044  0.6628
  947MOL0     H24940   9.635   3.096   0.310 -0.1598  1.8000  0.1285
  947MOL0     H24941   9.424   2.907   0.355  0.7256 -0.3582  2.0321
  947MOL0     H24942   9.413   3.074   0.300  2.1460  1.2187  2.0266
  947MOL0     H24943   9.200   3.019   0.499 -2.1048 -0.3781 -1.9809
  947MOL0     H24944   9.202   2.886   0.392 -2.7473  1.3797  0.7460
  947MOL0     H24945   9.198   3.191   0.328 -2.2130  0.4780  4.0347
  947MOL0     H24946   9.052   3.104   0.349  0.5729 -1.6631  0.1383
  947MOL0     H24947   9.140   3.159   0.116  0.2257 -0.8804 -0.0354
  947MOL0     H24948   9.243   3.018   0.135  0.8336  0.6762  0.6606
  947MOL0     H24949   8.935   3.058   0.148  0.8331  2.0643  1.1841
  947MOL0     H24950   8.999   2.896   0.180 -0.7969  1.1103  0.5737
  947MOL0     H24951   9.121   2.919  -0.046 -0.5257 -0.7566  0.8604
  947MOL0     H24952   9.014   3.074  -0.056  1.8166  0.0592  0.2745
  947MOL0     H24953   8.899   2.800  -0.016  1.5539 -0.6831 -1.3353
  947MOL0     H24954   8.817   2.951  -0.063 -0.8105 -1.4383 -0.3960
  947MOL0     H24955   8.989   2.768  -0.263  0.7591 -0.1191 -0.1187
  947MOL0     H24956   8.953   2.943  -0.286  0.1619  0.6490  1.8197
  947MOL0     H24957   8.709   2.990  -0.350 -2.1029  0.5203  4.8778
  947MOL0     H24958   8.492   2.883  -0.540  1.7483  0.7714  0.5543
  947MOL0     H24959   8.431   2.931  -0.388  0.4954  1.5084 -1.2023
  947MOL0     H24960   8.393   2.642  -0.485  1.5583  1.6124 -0.6716
  947MOL0     H24961   8.284   2.774  -0.522  0.8545  0.6763  0.7789
  947MOL0     H24962   8.372   2.675  -0.251 -0.6412 -0.1751  1.4794
  947MOL0     H24963   8.282   2.824  -0.278  1.6077  0.3413 -3.2539
  947MOL0     H24964   8.144   2.602  -0.216 -0.9226  1.0112  0.1283
  947MOL0     H24965   8.193   2.562  -0.390  0.1560 -1.7856  2.0753
  947MOL0     H24966   7.995   2.448  -0.339  0.6858 -0.0439 -1.2977
  947MOL0     H24967   7.776   2.377  -0.325 -2.5715  1.8936  0.9232
  947MOL0     H24968   7.339   2.516  -0.754 -2.4483 -1.0658 -2.5040
  947MOL0     H24969   7.096   2.452  -0.776  2.0485 -3.8135 -2.6603
  947MOL0     H24970   6.929   2.295  -0.768 -1.0062 -3.4615  0.4233
  947MOL0     H24971   6.857   2.446  -0.696  0.7154 -0.3156  3.9001
  947MOL0     H24972   6.714   2.185  -0.664 -1.6786 -0.5171 -3.9884
  947MOL0     H24973   6.673   2.327  -0.765  0.2674  0.8319  0.1186
  947MOL0     H24974   6.625   2.457  -0.579  3.9856  0.2548  1.9364
  947MOL0     H24975   6.700   2.354  -0.460  0.0185  2.5860  0.9190
  947MOL0     H24976   6.460   2.250  -0.621 -3.2655  0.0004  1.9430
  947MOL0     H24977   6.528   2.198  -0.464 -1.2153 -1.7245 -2.2169
  947MOL0     H24978   6.357   2.449  -0.505  1.6687  1.7570  1.9077
  947MOL0     H24979   6.440   2.393  -0.352  3.8317 -1.4878 -0.4040
  947MOL0     H24980   6.301   2.200  -0.373  2.4825  1.2342 -0.9003
  947MOL0     H24981   6.247   2.235  -0.529  2.6489 -1.3744 -0.8008
  947MOL0     H24982   6.200   2.453  -0.324  1.3500  0.5689 -1.2663
  947MOL0     H24983   6.100   2.408  -0.467 -1.6812 -1.3149  0.6230
  947MOL0     H24984   6.058   2.181  -0.334  0.2904 -0.0449  0.7196
  947MOL0     H24985   5.968   2.321  -0.295  0.8715  0.7872  1.7202
  947MOL0     H24986   7.093   2.341  -0.357 -0.0972 -0.6768 -0.5247
  947MOL0     H24987   7.318   2.377  -0.334 -0.2587  2.3744  0.8856
  947MOL0     H24988   7.637   2.717  -0.534  1.6612  0.6735 -1.6436
  947MOL0     H24989   7.864   2.817  -0.493  2.4261 -1.4390 -2.1309
  947MOL0     H24990   9.574   2.991   0.719 -1.6285  4.8781 -1.6818
  947MOL0     H24991   9.828   2.984   0.754  0.1654 -0.5388 -0.5975
  947MOL0     H24992  10.203   3.009   0.717  1.4474 -0.7136  1.3571
  947MOL0     H24993  10.438   3.002   0.723 -1.7665 -2.3126 -1.7517
  947MOL0     H24994  10.653   3.389   0.619 -0.7598  0.1160 -0.8412
  947MOL0     H24995  10.680   3.302   0.481  0.9046  3.8549 -0.1710
  947MOL0     H24996  10.903   3.313   0.574 -0.5661  1.0412 -0.2759
  947MOL0     H24997  10.850   3.304   0.736  1.2017  1.9716 -1.3729
  947MOL0     H24998  10.846   3.063   0.535  0.0024  0.7950 -1.3298
  947MOL0     H24999  10.826   3.053   0.709  3.1217 -1.4505  0.2457
  947MOL0     H25000  11.097   3.120   0.575  0.3237 -0.2834  0.3705
  947MOL0     H25001  11.050   3.180   0.733  0.4237  2.0886 -1.0133
  947MOL0     H25002  11.157   2.772   0.782 -3.2594 -1.4505 -0.4388
  947MOL0     H25003  10.462   3.390   0.535 -1.0223  0.2399 -0.2293
  947MOL0     H25004  10.206   3.398   0.519  3.6535  2.0327 -2.6305
  948MOL0     O25005   5.774   8.696   7.370 -0.0024  0.5461  0.3715
  948MOL0     C25006   5.751   8.810   7.410 -0.5769  0.7109  0.2256
  948MOL0     O25007   5.625   8.868   7.411 -0.1644  0.9529 -0.4870
  948MOL0     C25008   5.519   8.797   7.362  0.0947 -0.6971  1.1023
  948MOL0     C25009   5.394   8.785   7.427  0.3066 -1.2161  0.2583
  948MOL0     C25010   5.285   8.732   7.362  0.1077  1.2406  0.1350
  948MOL0     C25011   5.289   8.690   7.227 -0.5221  1.2093  0.7598
  948MOL0     O25012   5.167   8.636   7.179 -0.5062 -0.3900 -0.1706
  948MOL0     C25013   5.175   8.621   7.035  0.3799  0.0533 -0.7118
  948MOL0     C25014   5.046   8.552   6.988  0.4833  0.0316  0.5457
  948MOL0     C25015   4.914   8.615   7.037  0.1546 -1.8268  0.6287
  948MOL0     C25016   4.881   8.755   6.983 -0.5575 -0.0867  0.0882
  948MOL0     C25017   4.750   8.810   7.038 -0.1793 -0.7173 -0.0048
  948MOL0     C25018   4.627   8.748   6.990  0.1501 -0.2366 -0.2322
  948MOL0     C25019   4.505   8.805   7.060  1.0458 -0.0801 -0.6654
  948MOL0     C25020   4.375   8.783   6.981 -0.8926  0.5287 -0.1653
  948MOL0     N25021   4.261   8.822   7.062  0.3681  0.6951 -0.3269
  948MOL0     C25022   4.192   8.733   7.145  0.9567 -0.2903  0.1336
  948MOL0     C25023   4.083   8.803   7.181 -0.0393  0.0813  0.4656
  948MOL0     C25024   3.968   8.761   7.275  0.0347  0.0556 -0.6233
  948MOL0     C25025   3.835   8.766   7.216  0.3715 -0.2209  0.3029
  948MOL0     C25026   3.715   8.727   7.297 -0.0571  0.1209 -0.5206
  948MOL0     C25027   3.594   8.704   7.214  0.3313 -0.0646  0.5403
  948MOL0     O25028   3.504   8.624   7.287  0.1123 -0.9713  0.2511
  948MOL0     C25029   3.380   8.600   7.239  0.4084  0.0877  0.6364
  948MOL0     C25030   3.293   8.532   7.319  0.3674 -0.0027  0.3588
  948MOL0     C25031   3.158   8.517   7.286 -1.0663  0.3413 -0.4496
  948MOL0     C25032   3.117   8.556   7.157  1.5099 -0.7805  0.6270
  948MOL0     C25033   2.976   8.539   7.123 -0.4898 -0.5842 -0.2149
  948MOL0     O25034   2.932   8.625   7.023 -0.3711 -0.0776  0.1576
  948MOL0     C25035   2.796   8.645   6.988 -0.2664 -0.5399 -0.3267
  948MOL0     C25036   2.756   8.690   6.856 -0.2402  0.2454  0.1475
  948MOL0     C25037   2.622   8.712   6.822  0.0983  0.0229  0.2938
  948MOL0     C25038   2.522   8.682   6.913 -0.3487 -0.5041 -0.2545
  948MOL0     O25039   2.391   8.704   6.890  0.2539  0.4238  1.1536
  948MOL0     C25040   2.359   8.752   6.752  0.5687 -0.0279 -0.6164
  948MOL0     C25041   2.209   8.787   6.739  0.3142  1.0959  0.0995
  948MOL0     C25042   2.157   8.868   6.851  0.4773  0.0848 -0.8703
  948MOL0     C25043   2.012   8.890   6.850 -0.2542 -0.0654 -0.2840
  948MOL0     C25044   1.968   8.931   6.989  0.4022 -0.0100 -1.3555
  948MOL0     C25045   1.818   8.927   6.989  0.4408  0.4029  0.0514
  948MOL0     C25046   1.738   8.956   7.112  0.1426 -0.0126 -0.5399
  948MOL0     C25047   1.753   9.104   7.156 -0.2382  0.3380 -0.3611
  948MOL0    Cl25048   1.684   9.220   7.035  0.0400  0.5530  0.2314
  948MOL0     C25049   2.555   8.642   7.031 -0.5855  0.9036  0.2259
  948MOL0     C25050   2.687   8.612   7.068 -0.3062  0.2019  0.4831
  948MOL0     O25051   2.913   8.447   7.179 -0.7395 -0.2240 -0.0174
  948MOL0     C25052   3.210   8.611   7.071 -0.4938 -0.2739  0.4110
  948MOL0     C25053   3.341   8.636   7.113  1.7265  0.2127 -0.1452
  948MOL0     N25054   4.083   8.929   7.126  0.1046 -0.1912  1.2545
  948MOL0     N25055   4.195   8.946   7.057  0.7513  0.2371  0.3044
  948MOL0     C25056   5.415   8.716   7.159 -0.2850  0.3947 -0.0808
  948MOL0     C25057   5.518   8.774   7.230 -0.8616  0.9582  0.3910
  948MOL0     C25058   5.865   8.896   7.430  0.4447  0.2007 -0.9274
  948MOL0     C25059   5.850   9.037   7.427  0.1025 -0.5093 -0.6144
  948MOL0     C25060   5.955   9.122   7.436 -0.7478 -0.2611 -0.2397
  948MOL0     C25061   6.082   9.071   7.453  0.3112  0.5504  0.5927
  948MOL0     O25062   6.170   9.167   7.475 -0.2180 -0.2681 -0.0061
  948MOL0     C25063   6.302   9.133   7.499 -0.0148 -0.4252 -0.2625
  948MOL0     C25064   6.397   9.252   7.507  0.8609 -0.3858 -0.5514
  948MOL0     C25065   6.531   9.198   7.560 -0.1516 -0.0304 -0.2305
  948MOL0     C25066   6.607   9.305   7.639 -0.0080 -0.1698 -0.4059
  948MOL0     C25067   6.689   9.380   7.548  0.2731 -0.3676 -0.4561
  948MOL0     C25068   6.748   9.440   7.465  0.4399 -0.2614  0.6070
  948MOL0     C25069   6.100   8.936   7.452  1.0450  0.0842  0.0081
  948MOL0     C25070   5.994   8.848   7.437 -0.1331  0.6892 -0.2415
  948MOL0     H25071   5.379   8.825   7.526 -0.8003 -0.8632 -0.0417
  948MOL0     H25072   5.193   8.720   7.419  0.4225 -1.6186  0.1707
  948MOL0     H25073   5.267   8.564   7.016  1.2688  0.9987  0.5631
  948MOL0     H25074   5.169   8.721   6.991 -1.4079 -1.1340 -3.4810
  948MOL0     H25075   5.056   8.448   7.020 -1.2013 -1.1267 -2.2635
  948MOL0     H25076   5.044   8.531   6.880 -1.2065 -2.8050  1.0257
  948MOL0     H25077   4.905   8.627   7.145 -3.4060  2.1014  0.1318
  948MOL0     H25078   4.834   8.549   7.002 -1.5855  0.2516  0.5198
  948MOL0     H25079   4.957   8.826   7.017 -1.8451  0.6838  1.4598
  948MOL0     H25080   4.894   8.745   6.875  1.5427 -1.5229  0.4182
  948MOL0     H25081   4.756   8.912   7.000  1.0708  0.2940  2.6400
  948MOL0     H25082   4.754   8.814   7.147 -1.8728 -4.8409  0.4114
  948MOL0     H25083   4.625   8.643   7.021  0.0971  0.1347  1.0991
  948MOL0     H25084   4.623   8.759   6.881  0.6122 -2.6836 -0.5665
  948MOL0     H25085   4.505   8.768   7.163 -1.7009  0.6311 -0.3150
  948MOL0     H25086   4.516   8.913   7.063  2.6243 -0.2461  0.5936
  948MOL0     H25087   4.371   8.677   6.954  0.4671  0.9033 -2.0232
  948MOL0     H25088   4.373   8.837   6.886  0.1677  0.5537 -0.1875
  948MOL0     H25089   4.229   8.636   7.177 -0.4227 -0.8053  0.2394
  948MOL0     H25090   3.959   8.837   7.353  2.4280  2.7021 -2.6848
  948MOL0     H25091   3.989   8.663   7.319 -2.1586 -1.3337 -2.4670
  948MOL0     H25092   3.849   8.704   7.127  0.8688 -0.5515  0.6038
  948MOL0     H25093   3.821   8.871   7.187  0.0513 -0.6376 -1.1135
  948MOL0     H25094   3.737   8.629   7.338 -0.5144  0.3247  0.2188
  948MOL0     H25095   3.701   8.800   7.377 -2.7093 -1.5690  0.7145
  948MOL0     H25096   3.616   8.645   7.124  1.1784  1.1549 -0.0839
  948MOL0     H25097   3.546   8.799   7.190 -4.4587 -2.5583 -1.0549
  948MOL0     H25098   3.343   8.500   7.410 -0.7386  0.3558  1.1013
  948MOL0     H25099   3.090   8.463   7.351 -0.0350  0.4033  0.7292
  948MOL0     H25100   2.828   8.717   6.779  0.5238  0.2405  0.8375
  948MOL0     H25101   2.602   8.748   6.721 -2.5572 -2.0482 -0.0551
  948MOL0     H25102   2.378   8.675   6.677 -4.3556 -0.0399 -2.2540
  948MOL0     H25103   2.412   8.846   6.739 -0.1196  0.7007  1.5011
  948MOL0     H25104   2.162   8.688   6.739 -1.0639  1.6890  2.4577
  948MOL0     H25105   2.198   8.837   6.642  0.8400 -2.1005 -1.7512
  948MOL0     H25106   2.202   8.968   6.853  2.1510 -0.6171 -1.6487
  948MOL0     H25107   2.180   8.808   6.940  1.6777  0.5302 -0.8584
  948MOL0     H25108   2.004   8.968   6.773  0.7335  0.5708  0.2380
  948MOL0     H25109   1.965   8.799   6.810  2.3785 -1.2947 -0.7985
  948MOL0     H25110   1.989   9.034   7.019 -2.3342  0.5216 -0.9870
  948MOL0     H25111   2.015   8.862   7.060  1.0149 -0.2351 -1.9715
  948MOL0     H25112   1.778   8.827   6.972 -0.0145  0.4052  1.0454
  948MOL0     H25113   1.781   8.990   6.908  1.9579 -1.1761 -1.9782
  948MOL0     H25114   1.633   8.938   7.088  0.3921 -1.0211 -0.9144
  948MOL0     H25115   1.771   8.898   7.198  1.5189  3.1626  1.2653
  948MOL0     H25116   1.855   9.139   7.171  0.1228  0.1145 -2.0960
  948MOL0     H25117   1.685   9.123   7.240 -2.4639 -1.5809 -1.6212
  948MOL0     H25118   2.471   8.618   7.095 -1.5007 -1.5803 -1.7078
  948MOL0     H25119   2.710   8.575   7.168  2.1542  0.1666 -0.0266
  948MOL0     H25120   3.184   8.639   6.969 -0.8537 -0.2631  0.5040
  948MOL0     H25121   3.406   8.694   7.049 -1.4500  0.9941 -2.9719
  948MOL0     H25122   5.440   8.691   7.057  1.0143  1.3719 -0.0357
  948MOL0     H25123   5.610   8.788   7.174  0.5904 -0.9069  2.1782
  948MOL0     H25124   5.749   9.075   7.438  0.6705  0.5194  1.5025
  948MOL0     H25125   5.943   9.230   7.433 -0.6401 -0.0967  2.6322
  948MOL0     H25126   6.338   9.064   7.421  1.6425  0.2647 -0.1432
  948MOL0     H25127   6.291   9.070   7.587  0.5000 -0.8516 -0.4940
  948MOL0     H25128   6.414   9.306   7.413  1.8338 -0.1059 -0.2212
  948MOL0     H25129   6.347   9.334   7.560  0.3160 -0.2489 -1.2601
  948MOL0     H25130   6.589   9.153   7.479  2.6453  0.0038  1.6182
  948MOL0     H25131   6.520   9.126   7.642 -0.9827  0.4890  0.1263
  948MOL0     H25132   6.548   9.384   7.686  0.4886 -0.2226  0.3323
  948MOL0     H25133   6.661   9.249   7.716  2.4613 -1.0685 -2.6270
  948MOL0     H25134   6.804   9.479   7.383  1.2647  1.6815  2.0260
  948MOL0     H25135   6.201   8.896   7.463  1.3856  0.9545  0.1038
  948MOL0     H25136   6.028   8.745   7.441  1.0005  1.0854  2.0860
  949MOL0     O25137  10.183   8.868   3.376  0.8921 -0.4426 -0.0580
  949MOL0     C25138  10.283   8.938   3.381 -0.5035  0.2926  0.3276
  949MOL0     O25139  10.288   9.080   3.403  0.2141  0.7900  0.2419
  949MOL0     C25140  10.167   9.146   3.404  0.6675  0.3568 -0.0128
  949MOL0     C25141  10.101   9.175   3.288 -0.8097  0.6124 -0.3806
  949MOL0     C25142   9.979   9.252   3.297 -0.0346 -0.3256 -0.5743
  949MOL0     C25143   9.916   9.287   3.424  0.4292  0.4134  0.3125
  949MOL0     O25144   9.798   9.353   3.445 -0.2964 -0.1993 -0.4055
  949MOL0     C25145   9.734   9.418   3.340  0.3594  0.7859  0.1390
  949MOL0     C25146   9.580   9.431   3.357 -0.5085  0.8993 -0.2276
  949MOL0     C25147   9.504   9.290   3.375 -0.2185  1.2074 -0.9471
  949MOL0     C25148   9.359   9.304   3.426  0.2954  0.3227 -0.3736
  949MOL0     C25149   9.288   9.168   3.439 -0.2595  0.1359 -0.1715
  949MOL0     C25150   9.301   9.104   3.576  0.1753 -0.4871  0.4090
  949MOL0     C25151   9.218   8.971   3.571  0.0420  0.3072 -0.2141
  949MOL0     C25152   9.176   8.923   3.712  0.9295 -0.3590  0.5596
  949MOL0     N25153   9.138   8.788   3.714  1.0230  0.1624 -0.3701
  949MOL0     C25154   9.029   8.743   3.643 -0.1231  0.4864  0.7048
  949MOL0     C25155   9.058   8.607   3.610  0.7859  0.2469 -0.2493
  949MOL0     C25156   8.969   8.507   3.543  1.0481  0.1834  0.3321
  949MOL0     C25157   8.900   8.410   3.647 -0.3226 -0.3715 -0.1287
  949MOL0     C25158   8.797   8.483   3.727  0.2730 -0.6385 -0.1134
  949MOL0     C25159   8.724   8.393   3.835 -1.1905  0.1559  0.2295
  949MOL0     O25160   8.643   8.479   3.918  0.6148 -0.1130 -0.5686
  949MOL0     C25161   8.533   8.428   3.981  1.0440  0.0794  1.3988
  949MOL0     C25162   8.460   8.518   4.063 -0.2330 -0.3735 -0.1901
  949MOL0     C25163   8.338   8.496   4.131 -0.0171 -0.1830 -0.1792
  949MOL0     C25164   8.292   8.361   4.112  1.3203  0.5084 -0.5135
  949MOL0     C25165   8.170   8.327   4.166  0.5624  0.1134  0.0542
  949MOL0     O25166   8.151   8.361   4.294  0.4421  0.0371 -1.0464
  949MOL0     C25167   8.027   8.326   4.346  0.4218  0.3132  0.4957
  949MOL0     C25168   7.997   8.202   4.391 -0.2370  0.1047  0.0914
  949MOL0     C25169   7.874   8.163   4.449  0.0484  0.5325 -1.3388
  949MOL0     C25170   7.777   8.261   4.455 -0.9281  0.1933 -0.5164
  949MOL0     O25171   7.647   8.237   4.491 -0.2304 -0.2352  0.0023
  949MOL0     C25172   7.617   8.111   4.545  0.1210  0.3946  0.7221
  949MOL0     C25173   7.482   8.126   4.617 -0.1738 -0.0837 -0.0499
  949MOL0     C25174   7.510   8.196   4.748  1.1763 -0.3501  0.1762
  949MOL0     C25175   7.386   8.193   4.834 -0.5796  0.5450  0.0902
  949MOL0     C25176   7.414   8.252   4.973 -0.2441  0.1262 -0.5312
  949MOL0     C25177   7.420   8.409   4.963  0.6878 -0.8563 -0.3531
  949MOL0     C25178   7.489   8.466   5.088  0.2954  0.5036  0.4244
  949MOL0     C25179   7.534   8.617   5.060  0.1988 -0.1338  0.3153
  949MOL0    Cl25180   7.630   8.681   5.205  0.0502 -0.3404  0.0922
  949MOL0     C25181   7.806   8.390   4.415  0.1135  0.2290  0.3737
  949MOL0     C25182   7.924   8.424   4.352  0.1305 -0.2072 -0.6165
  949MOL0     O25183   8.085   8.282   4.085 -0.5958  0.2460  0.2023
  949MOL0     C25184   8.362   8.268   4.029 -0.3725 -0.2880  0.0718
  949MOL0     C25185   8.480   8.298   3.967 -0.4197 -0.5481  0.5815
  949MOL0     N25186   9.183   8.585   3.654  0.1458 -0.3457 -0.2146
  949MOL0     N25187   9.225   8.683   3.721  0.4818  0.1337 -0.1664
  949MOL0     C25188   9.994   9.246   3.536 -0.3603  0.7705  0.2132
  949MOL0     C25189  10.112   9.174   3.522 -0.2746 -0.0858 -1.0959
  949MOL0     C25190  10.411   8.863   3.363  0.9128  0.2407 -0.0238
  949MOL0     C25191  10.425   8.731   3.409 -0.3241  0.0651 -0.0295
  949MOL0     C25192  10.549   8.663   3.394 -0.4789  0.6870 -0.4779
  949MOL0     C25193  10.658   8.730   3.337 -0.4145 -0.2274  0.0372
  949MOL0     O25194  10.786   8.683   3.313 -0.4562  0.3285  0.8146
  949MOL0     C25195  10.827   8.571   3.386 -0.5549 -0.0426  0.2834
  949MOL0     C25196  10.976   8.535   3.351  0.3724  0.0672 -0.0901
  949MOL0     C25197  11.071   8.659   3.374 -0.2586  0.3171 -0.9023
  949MOL0     C25198  11.221   8.621   3.358 -0.7640  0.5478 -0.5000
  949MOL0     C25199  11.297   8.746   3.401 -0.3809  0.6334 -0.4980
  949MOL0     C25200  11.351   8.854   3.438  0.4313 -0.4313  1.1195
  949MOL0     C25201  10.623   8.862   3.286 -0.2565  0.3180  0.5155
  949MOL0     C25202  10.507   8.925   3.299  0.7087 -0.3977  0.1153
  949MOL0     H25203  10.150   9.139   3.198 -1.2979  0.8453 -0.7405
  949MOL0     H25204   9.930   9.279   3.204  0.7192  0.1957 -0.8271
  949MOL0     H25205   9.733   9.369   3.243  0.2734  2.3814 -0.7079
  949MOL0     H25206   9.774   9.520   3.334  0.9493  0.6689  1.5847
  949MOL0     H25207   9.530   9.477   3.271  0.7191 -0.0952 -1.5147
  949MOL0     H25208   9.563   9.489   3.448  1.1532  0.5436  0.3230
  949MOL0     H25209   9.550   9.226   3.450 -1.9475  0.4471 -0.4764
  949MOL0     H25210   9.498   9.236   3.280  0.2737 -0.4655 -0.0642
  949MOL0     H25211   9.362   9.350   3.525  1.9421 -0.0559 -0.2139
  949MOL0     H25212   9.307   9.363   3.350 -1.7990  0.1434  0.8388
  949MOL0     H25213   9.314   9.102   3.355 -1.0540  1.3128 -1.3964
  949MOL0     H25214   9.181   9.182   3.423  0.0730  2.2154 -0.8476
  949MOL0     H25215   9.275   9.173   3.656  0.9804 -1.2076  1.3209
  949MOL0     H25216   9.407   9.080   3.585  0.5388  1.7615  4.3527
  949MOL0     H25217   9.129   8.992   3.511  1.1210  1.5031 -1.4759
  949MOL0     H25218   9.283   8.896   3.524  1.2895  0.7758  0.7303
  949MOL0     H25219   9.094   8.985   3.749  0.1469 -1.8202  1.3692
  949MOL0     H25220   9.271   8.938   3.765  1.1913  0.8523 -0.2078
  949MOL0     H25221   8.935   8.794   3.624 -0.3394 -0.1374  0.0858
  949MOL0     H25222   9.028   8.439   3.480  1.2927  0.8595 -0.1753
  949MOL0     H25223   8.891   8.558   3.487 -0.8584 -1.5713  1.2617
  949MOL0     H25224   8.978   8.370   3.713  0.2126  2.5358  1.1529
  949MOL0     H25225   8.844   8.331   3.595  0.9639 -2.0226  0.8872
  949MOL0     H25226   8.856   8.560   3.779 -0.2133  0.1179 -0.6613
  949MOL0     H25227   8.734   8.530   3.651  1.3733 -2.5420 -2.3587
  949MOL0     H25228   8.793   8.340   3.900 -1.9325 -0.3573  0.6115
  949MOL0     H25229   8.663   8.320   3.781 -1.9367  0.0105  1.2522
  949MOL0     H25230   8.512   8.612   4.072 -0.1631 -0.2342 -1.7993
  949MOL0     H25231   8.299   8.575   4.195  0.5062  1.5984 -1.9781
  949MOL0     H25232   8.076   8.129   4.378  0.6022  0.9126  0.5801
  949MOL0     H25233   7.857   8.059   4.477 -0.3963  1.1653  1.0181
  949MOL0     H25234   7.698   8.069   4.605  1.7752  2.4046  0.0088
  949MOL0     H25235   7.608   8.041   4.461 -0.5015  1.1950  0.1105
  949MOL0     H25236   7.451   8.021   4.622  0.7925 -0.3527  0.6076
  949MOL0     H25237   7.402   8.178   4.564 -1.8018 -1.4782  0.9125
  949MOL0     H25238   7.530   8.302   4.731 -2.0479  0.1466 -1.2257
  949MOL0     H25239   7.593   8.146   4.799  0.5318 -1.3901  0.2378
  949MOL0     H25240   7.296   8.243   4.797 -0.0316  0.9763 -0.6976
  949MOL0     H25241   7.358   8.088   4.839 -1.1694  0.7218  0.6717
  949MOL0     H25242   7.508   8.221   5.021 -0.1739  2.8574  1.3020
  949MOL0     H25243   7.337   8.219   5.043  0.0963  0.1884 -0.1190
  949MOL0     H25244   7.315   8.441   4.963  0.8616  0.1972 -4.4364
  949MOL0     H25245   7.470   8.450   4.875  2.4577 -0.5519  0.7275
  949MOL0     H25246   7.422   8.464   5.174  1.1342  0.9354  1.0993
  949MOL0     H25247   7.583   8.415   5.111 -1.2382 -1.6326  2.3211
  949MOL0     H25248   7.446   8.681   5.055  1.5629  1.7979 -0.2550
  949MOL0     H25249   7.586   8.621   4.964 -1.4777 -0.6108 -0.6519
  949MOL0     H25250   7.724   8.459   4.433  1.6036  1.4313  3.3105
  949MOL0     H25251   7.934   8.526   4.314  1.3863 -0.4435 -0.9667
  949MOL0     H25252   8.321   8.173   3.995 -1.2678  0.1839 -0.2019
  949MOL0     H25253   8.527   8.225   3.903 -1.0876  0.2335 -0.8543
  949MOL0     H25254   9.957   9.272   3.635  0.2080  1.8632  0.1489
  949MOL0     H25255  10.154   9.142   3.617 -0.8914  3.2613  0.4630
  949MOL0     H25256  10.349   8.683   3.468  1.8813 -0.1785  2.8259
  949MOL0     H25257  10.561   8.560   3.426  1.9169  0.6905 -1.1728
  949MOL0     H25258  10.774   8.481   3.354 -0.3023 -0.4305  0.9129
  949MOL0     H25259  10.807   8.595   3.491  0.8455 -1.2790  0.8852
  949MOL0     H25260  11.007   8.451   3.414 -1.2669 -2.1418 -2.0537
  949MOL0     H25261  10.982   8.511   3.244  2.0202  0.0539 -0.0280
  949MOL0     H25262  11.058   8.685   3.480  1.3815 -0.0664 -0.5683
  949MOL0     H25263  11.052   8.739   3.302  1.3722  0.3726 -1.3146
  949MOL0     H25264  11.264   8.538   3.414 -1.0490  1.1035  0.5634
  949MOL0     H25265  11.235   8.613   3.250 -0.0537  2.7637 -0.6263
  949MOL0     H25266  11.412   8.936   3.469  2.4573 -0.8315 -1.4280
  949MOL0     H25267  10.713   8.895   3.233  1.2088 -3.3136  0.4217
  949MOL0     H25268  10.485   9.023   3.257  1.1926 -0.6128 -0.6663
  950MOL0     O25269   8.175   9.439   3.228  0.8407 -0.2086 -0.0503
  950MOL0     C25270   8.165   9.555   3.192 -0.6625 -0.4161  0.2696
  950MOL0     O25271   8.053   9.631   3.213 -0.2711 -0.2057 -0.9571
  950MOL0     C25272   7.944   9.580   3.278 -0.3668 -0.1711 -0.2631
  950MOL0     C25273   7.814   9.602   3.233  0.6304 -0.1223  0.7674
  950MOL0     C25274   7.708   9.531   3.295  0.5909 -0.2343 -0.4755
  950MOL0     C25275   7.727   9.456   3.405 -0.0617 -0.1214 -0.2879
  950MOL0     O25276   7.612   9.402   3.456 -0.6382 -0.5788  0.4425
  950MOL0     C25277   7.625   9.305   3.560  0.7117 -0.0677  0.1760
  950MOL0     C25278   7.485   9.289   3.617  0.8555 -0.3606  0.4187
  950MOL0     C25279   7.379   9.246   3.516  0.1197  0.0179  0.0253
  950MOL0     C25280   7.263   9.193   3.594 -0.5043  0.7773 -0.1564
  950MOL0     C25281   7.167   9.104   3.516 -0.3166  0.0335  0.1462
  950MOL0     C25282   7.227   8.962   3.482 -0.8887  0.0493  0.0396
  950MOL0     C25283   7.124   8.895   3.408 -0.3424 -0.3355 -0.2891
  950MOL0     C25284   7.170   8.753   3.369 -0.7826  0.0537  0.6461
  950MOL0     N25285   7.058   8.660   3.380 -0.6822  1.4418  0.0410
  950MOL0     C25286   6.940   8.693   3.326  0.1952  0.6410  0.4328
  950MOL0     C25287   6.852   8.588   3.353  0.5635 -0.4004 -0.6260
  950MOL0     C25288   6.709   8.576   3.335 -0.0950 -0.1632 -0.1685
  950MOL0     C25289   6.656   8.667   3.226  0.1101 -0.3522  0.4635
  950MOL0     C25290   6.679   8.613   3.076  0.4103  0.2922  0.0997
  950MOL0     C25291   6.560   8.533   3.023  0.0430  0.0340  0.4701
  950MOL0     O25292   6.595   8.398   3.006 -0.7306 -0.5311  0.3110
  950MOL0     C25293   6.497   8.306   2.964 -0.9747  0.1517  0.0507
  950MOL0     C25294   6.541   8.176   2.919 -0.1063 -0.9458  0.0880
  950MOL0     C25295   6.441   8.078   2.889 -0.2778  0.6058  0.3338
  950MOL0     C25296   6.306   8.106   2.917  0.3448 -0.3307  0.4802
  950MOL0     C25297   6.196   8.011   2.899  0.2373  0.0134 -0.4130
  950MOL0     O25298   6.065   8.044   2.941  0.7259 -0.0078  0.4858
  950MOL0     C25299   5.964   7.953   2.901  0.6097  1.0120 -0.1703
  950MOL0     C25300   5.961   7.861   2.801  0.2933  0.4168  0.2273
  950MOL0     C25301   5.844   7.786   2.786  0.2116  1.1385 -0.1789
  950MOL0     C25302   5.724   7.802   2.860 -0.3637 -0.2551  1.1374
  950MOL0     O25303   5.616   7.726   2.832 -0.4169  0.0945 -0.9290
  950MOL0     C25304   5.489   7.758   2.895  0.1073  0.1750 -0.5672
  950MOL0     C25305   5.389   7.657   2.832 -0.7866 -0.6412  0.5142
  950MOL0     C25306   5.365   7.699   2.683 -0.1958 -0.5417  0.1581
  950MOL0     C25307   5.262   7.601   2.628  1.0236 -0.1257 -0.6944
  950MOL0     C25308   5.250   7.612   2.480 -0.0879  0.2542 -0.3353
  950MOL0     C25309   5.154   7.729   2.439 -0.2513  0.5647  0.0512
  950MOL0     C25310   5.109   7.725   2.294 -0.2017  1.1557 -0.2294
  950MOL0     C25311   5.227   7.750   2.201  0.3538 -0.1507  0.3164
  950MOL0    Cl25312   5.251   7.929   2.210  0.1416 -0.1634  0.0858
  950MOL0     C25313   5.731   7.906   2.954 -0.1932  0.1210 -0.6664
  950MOL0     C25314   5.851   7.976   2.976  0.6569 -0.4037 -0.1733
  950MOL0     O25315   6.226   7.897   2.880 -0.2962  0.2697  1.2093
  950MOL0     C25316   6.268   8.236   2.956 -0.5959 -0.6094 -0.1781
  950MOL0     C25317   6.361   8.332   2.980 -0.1854  0.8408 -0.1908
  950MOL0     N25318   6.929   8.490   3.421 -0.4913  0.2778  0.4193
  950MOL0     N25319   7.048   8.532   3.437  0.2803  0.2636 -0.3237
  950MOL0     C25320   7.855   9.448   3.462  0.6478 -0.6587  0.0466
  950MOL0     C25321   7.964   9.512   3.399 -0.2049  0.0043  0.2332
  950MOL0     C25322   8.286   9.620   3.144 -0.0809 -0.1302  0.8678
  950MOL0     C25323   8.286   9.760   3.115 -0.3746  0.1206 -1.1615
  950MOL0     C25324   8.394   9.829   3.057 -0.4086  0.4031  0.0774
  950MOL0     C25325   8.510   9.753   3.030 -1.5216 -0.5368 -0.1934
  950MOL0     O25326   8.619   9.814   2.978 -0.2474 -0.6882  0.0228
  950MOL0     C25327   8.671   9.910   3.071 -0.2817  0.0223 -0.6347
  950MOL0     C25328   8.826   9.930   3.077  0.1992  0.1119  0.4449
  950MOL0     C25329   8.897   9.947   2.940  0.0274 -1.3307 -0.8633
  950MOL0     C25330   8.850  10.059   2.851  0.0008  0.2955 -0.4162
  950MOL0     C25331   8.835  10.188   2.924  0.2383 -0.1402 -0.2955
  950MOL0     C25332   8.852  10.302   2.960 -0.1947 -0.4595  0.1153
  950MOL0     C25333   8.515   9.618   3.065  0.3509  0.0645  0.2777
  950MOL0     C25334   8.402   9.546   3.116 -0.7884 -0.5565  0.1964
  950MOL0     H25335   7.797   9.648   3.136  2.0743 -2.7472 -0.8697
  950MOL0     H25336   7.615   9.547   3.242  0.9083 -1.5997 -1.5160
  950MOL0     H25337   7.697   9.328   3.640 -0.9939  2.2281  1.1936
  950MOL0     H25338   7.652   9.213   3.509 -0.5345 -0.4103  0.1097
  950MOL0     H25339   7.454   9.374   3.677  1.0272 -1.1504  1.6599
  950MOL0     H25340   7.496   9.211   3.693  1.3286  0.6796  1.4431
  950MOL0     H25341   7.424   9.161   3.464  0.5498 -1.0628  2.0314
  950MOL0     H25342   7.347   9.330   3.454 -0.8670 -0.2648  0.1262
  950MOL0     H25343   7.309   9.125   3.667  2.2190  2.6615  0.0775
  950MOL0     H25344   7.204   9.272   3.642  1.1938  0.4278  2.7805
  950MOL0     H25345   7.129   9.151   3.426  1.3904 -0.4877 -0.8945
  950MOL0     H25346   7.080   9.093   3.582 -2.5988  2.5280 -2.2201
  950MOL0     H25347   7.251   8.919   3.580  3.0481  2.3756  0.3162
  950MOL0     H25348   7.321   8.970   3.428 -0.8086 -0.8744  0.0326
  950MOL0     H25349   7.031   8.896   3.466  0.5516  0.3611  1.1654
  950MOL0     H25350   7.111   8.950   3.314 -1.3219  3.5325  1.8863
  950MOL0     H25351   7.248   8.721   3.439  1.8190  0.3502 -1.9038
  950MOL0     H25352   7.219   8.758   3.271  1.0982 -0.7398  1.4900
  950MOL0     H25353   6.915   8.787   3.278 -1.9684  1.7211  3.3649
  950MOL0     H25354   6.674   8.607   3.434 -0.3309  1.9862 -0.8676
  950MOL0     H25355   6.683   8.473   3.309  0.3615 -0.9435  2.2779
  950MOL0     H25356   6.712   8.761   3.231  1.6356 -1.1635 -0.6962
  950MOL0     H25357   6.549   8.679   3.244 -0.2356 -0.6416 -1.2398
  950MOL0     H25358   6.691   8.700   3.010 -1.1332 -0.0046 -0.6043
  950MOL0     H25359   6.767   8.549   3.082 -2.3643 -3.6960  3.0211
  950MOL0     H25360   6.526   8.584   2.933  2.1227  1.3811  0.3867
  950MOL0     H25361   6.486   8.541   3.103  2.1888 -0.3398  2.5990
  950MOL0     H25362   6.646   8.148   2.920 -0.8837 -4.3829 -0.2551
  950MOL0     H25363   6.483   7.986   2.848  0.1333 -0.0460  2.1127
  950MOL0     H25364   6.045   7.831   2.739 -0.5996 -0.0412 -0.8010
  950MOL0     H25365   5.845   7.709   2.709 -3.0229  2.4254 -1.7221
  950MOL0     H25366   5.444   7.850   2.857 -0.8192 -0.8029 -1.9696
  950MOL0     H25367   5.493   7.747   3.004  3.8057 -1.1425 -0.6920
  950MOL0     H25368   5.302   7.654   2.897  0.1128 -2.0243  1.6886
  950MOL0     H25369   5.434   7.559   2.851 -3.0118 -1.6681  0.8111
  950MOL0     H25370   5.464   7.687   2.637 -1.4998 -1.6170 -2.5510
  950MOL0     H25371   5.323   7.797   2.661  0.8261 -0.1428 -0.1022
  950MOL0     H25372   5.296   7.498   2.637  0.1854 -0.2578  1.6882
  950MOL0     H25373   5.165   7.616   2.677  1.8751  0.3038  0.9642
  950MOL0     H25374   5.196   7.523   2.447 -0.7921  0.9747 -1.1757
  950MOL0     H25375   5.349   7.625   2.436  1.0153  1.1882  2.2065
  950MOL0     H25376   5.199   7.826   2.461  0.6876  0.5359 -1.6030
  950MOL0     H25377   5.070   7.710   2.507 -0.4380  2.0513  0.2690
  950MOL0     H25378   5.068   7.625   2.275 -0.7007  1.6128 -1.7169
  950MOL0     H25379   5.026   7.794   2.279 -0.6423  0.7533  0.3199
  950MOL0     H25380   5.203   7.726   2.097  1.1088  1.3632 -0.2287
  950MOL0     H25381   5.316   7.693   2.228 -0.8138 -1.7958  0.8731
  950MOL0     H25382   5.650   7.933   3.022 -0.7208  2.2472 -2.0527
  950MOL0     H25383   5.861   8.049   3.055  2.5746  0.2726 -0.9684
  950MOL0     H25384   6.167   8.274   2.960 -0.0936  0.9371 -1.1269
  950MOL0     H25385   6.320   8.431   3.002  0.0607  0.7622  0.6538
  950MOL0     H25386   7.868   9.404   3.560 -0.6439 -2.5492 -0.5623
  950MOL0     H25387   8.062   9.495   3.441 -1.0569 -3.9733  1.1074
  950MOL0     H25388   8.192   9.810   3.135  0.3944  0.4813  2.0184
  950MOL0     H25389   8.388   9.934   3.029  3.3923  1.3458  2.1460
  950MOL0     H25390   8.653   9.877   3.174 -0.0450 -2.7966 -1.4086
  950MOL0     H25391   8.635  10.011   3.049  0.1674  0.0465 -1.3058
  950MOL0     H25392   8.843  10.024   3.131 -3.9340  1.6417 -0.5604
  950MOL0     H25393   8.876   9.849   3.130 -1.5769 -0.8426  0.7476
  950MOL0     H25394   8.897   9.855   2.880 -0.2984 -0.6823 -1.8624
  950MOL0     H25395   9.001   9.975   2.959  0.3201 -2.3758 -0.8406
  950MOL0     H25396   8.924  10.077   2.772  1.7618 -3.2742  0.2431
  950MOL0     H25397   8.755  10.036   2.801 -1.4889 -0.0973  2.4321
  950MOL0     H25398   8.874  10.401   2.994 -1.6933 -0.3989  0.9881
  950MOL0     H25399   8.611   9.568   3.064  0.5343  0.4169  0.1921
  950MOL0     H25400   8.404   9.439   3.135  0.3611 -0.8559 -1.3669
  951MOL0     O25401   6.218   2.381   8.689  0.1989  0.3769  0.4418
  951MOL0     C25402   6.098   2.405   8.679 -0.0079  0.2087 -0.0502
  951MOL0     O25403   6.043   2.506   8.593 -0.4101  0.4826  0.6811
  951MOL0     C25404   6.127   2.590   8.526  0.2974 -0.4335  0.2759
  951MOL0     C25405   6.084   2.623   8.398  0.1005  0.2475  0.2780
  951MOL0     C25406   6.156   2.721   8.331 -0.4477 -0.1239 -0.6349
  951MOL0     C25407   6.266   2.786   8.399  0.2047  0.3334  0.9622
  951MOL0     O25408   6.343   2.888   8.350 -0.4597  0.2485 -0.1897
  951MOL0     C25409   6.326   2.926   8.210  0.1477  0.3248 -0.3160
  951MOL0     C25410   6.412   3.042   8.165 -0.1670 -0.1074  0.1480
  951MOL0     C25411   6.350   3.170   8.223 -0.8562  0.4541  0.5360
  951MOL0     C25412   6.423   3.298   8.164  0.5042  0.9481  0.7566
  951MOL0     C25413   6.360   3.427   8.223  1.1189  0.0137 -0.9059
  951MOL0     C25414   6.378   3.559   8.137  0.5927 -0.5283 -0.0121
  951MOL0     C25415   6.333   3.533   7.986 -0.0599 -0.8171 -0.0558
  951MOL0     C25416   6.303   3.664   7.912 -0.1172 -0.8981  0.2817
  951MOL0     N25417   6.184   3.737   7.955  0.1902  0.7401  0.5358
  951MOL0     C25418   6.190   3.832   8.052 -0.1042  0.4502  0.4409
  951MOL0     C25419   6.070   3.876   8.069 -0.2908 -1.1971  1.0003
  951MOL0     C25420   6.021   3.989   8.152  0.9675 -0.4262 -0.0796
  951MOL0     C25421   5.934   3.961   8.280  0.0941  0.5368 -0.7339
  951MOL0     C25422   5.820   3.867   8.256 -0.4896  0.0241 -0.3800
  951MOL0     C25423   5.709   3.912   8.162 -0.4472  0.7850 -0.7539
  951MOL0     O25424   5.595   3.834   8.185  0.3302  0.2161  0.1323
  951MOL0     C25425   5.589   3.708   8.125  0.5110 -0.6857 -0.8836
  951MOL0     C25426   5.690   3.643   8.056  0.5725  0.2253  0.1389
  951MOL0     C25427   5.660   3.521   7.996  0.1210 -0.0471  0.5649
  951MOL0     C25428   5.538   3.452   8.016  0.5756  0.6851 -0.0552
  951MOL0     C25429   5.511   3.315   7.978  0.9928 -0.3725  0.2501
  951MOL0     O25430   5.603   3.243   7.915 -0.2691 -0.5422 -0.3757
  951MOL0     C25431   5.561   3.127   7.870 -0.8905  0.8646  0.3691
  951MOL0     C25432   5.484   3.122   7.753  0.0990 -1.0303  0.5793
  951MOL0     C25433   5.425   3.001   7.714 -0.1966 -0.1301  0.5132
  951MOL0     C25434   5.448   2.880   7.776  0.6941  0.1470 -1.2330
  951MOL0     O25435   5.381   2.770   7.734  0.3835  0.3537  0.4746
  951MOL0     C25436   5.441   2.637   7.767 -0.5514 -0.3756  0.6290
  951MOL0     C25437   5.412   2.519   7.670 -0.3120  0.5641  0.0943
  951MOL0     C25438   5.264   2.524   7.633 -0.5222  0.2254  0.2978
  951MOL0     C25439   5.233   2.413   7.535 -0.1441  0.7437  0.4286
  951MOL0     C25440   5.079   2.403   7.505 -0.7197  0.3394  0.2857
  951MOL0     C25441   5.013   2.292   7.588 -1.0726  0.3213 -0.0946
  951MOL0     C25442   4.877   2.238   7.534 -0.8420 -0.2785 -0.8842
  951MOL0     C25443   4.914   2.114   7.442  0.5690 -0.7744  0.4202
  951MOL0    Cl25444   4.987   1.971   7.514 -0.4394 -0.1804 -0.6333
  951MOL0     C25445   5.527   2.885   7.895  0.3121  0.2868 -0.4018
  951MOL0     C25446   5.586   3.006   7.940 -0.2423  0.2829  0.5085
  951MOL0     O25447   5.406   3.263   8.023 -0.0077 -0.3594  0.4314
  951MOL0     C25448   5.435   3.525   8.079 -0.7405  0.0075 -1.1466
  951MOL0     C25449   5.457   3.654   8.126  0.3575  0.3196 -0.3440
  951MOL0     N25450   5.994   3.808   7.977 -0.3963  0.3671 -0.2677
  951MOL0     N25451   6.057   3.713   7.916 -0.1002  0.3630 -0.2190
  951MOL0     C25452   6.295   2.761   8.540  0.5454 -0.0004  1.1295
  951MOL0     C25453   6.229   2.651   8.593  0.5133 -0.0391 -0.5677
  951MOL0     C25454   5.989   2.314   8.733 -0.1728  0.4468  0.0829
  951MOL0     C25455   6.013   2.235   8.855 -1.0604  0.1712 -0.3542
  951MOL0     C25456   5.918   2.149   8.903  0.1132  0.4358  0.8452
  951MOL0     C25457   5.786   2.146   8.852 -0.0418  0.3739 -0.3020
  951MOL0     O25458   5.705   2.054   8.909  0.1329 -0.2441  0.5460
  951MOL0     C25459   5.576   2.035   8.845  0.0717  0.3301 -0.2022
  951MOL0     C25460   5.517   1.904   8.904  0.5731  0.1571 -0.0211
  951MOL0     C25461   5.379   1.893   8.838  0.2529 -0.2808 -0.0246
  951MOL0     C25462   5.278   1.809   8.912 -0.6535  0.4849  0.6212
  951MOL0     C25463   5.171   1.750   8.824  0.4387  0.3557  0.1497
  951MOL0     C25464   5.077   1.706   8.771 -0.3481  0.4909  1.1261
  951MOL0     C25465   5.755   2.226   8.745 -0.6613 -1.5966 -0.5785
  951MOL0     C25466   5.858   2.313   8.683  0.1877  0.0419 -0.0947
  951MOL0     H25467   6.015   2.558   8.345  1.9893  0.0885 -2.1758
  951MOL0     H25468   6.139   2.727   8.224 -1.3252  1.2550 -0.4515
  951MOL0     H25469   6.219   2.943   8.194 -0.4380 -0.2254  2.5746
  951MOL0     H25470   6.340   2.840   8.143 -0.0407 -0.3342  0.4811
  951MOL0     H25471   6.408   3.050   8.056  0.0004  1.5531  0.2483
  951MOL0     H25472   6.513   3.018   8.198  0.4415 -3.5434 -3.3830
  951MOL0     H25473   6.349   3.164   8.332 -1.7241 -0.9303  0.4662
  951MOL0     H25474   6.246   3.178   8.191 -1.0477 -0.0455  1.0167
  951MOL0     H25475   6.531   3.298   8.182  0.8848  0.6763 -1.2897
  951MOL0     H25476   6.402   3.291   8.057 -1.2861  0.6573  1.0964
  951MOL0     H25477   6.394   3.439   8.326  3.1407 -0.3642 -1.4836
  951MOL0     H25478   6.251   3.415   8.229  1.2775 -1.7951 -1.1111
  951MOL0     H25479   6.485   3.582   8.134  0.8499 -1.7303 -1.2619
  951MOL0     H25480   6.325   3.639   8.189  2.2487 -0.4441  1.6869
  951MOL0     H25481   6.399   3.468   7.929 -2.5007 -2.4933 -1.1172
  951MOL0     H25482   6.234   3.485   7.989  0.1083 -1.1451  1.5471
  951MOL0     H25483   6.276   3.635   7.810 -0.2821 -0.4960  0.2116
  951MOL0     H25484   6.393   3.727   7.912  1.5992 -3.1966 -1.0572
  951MOL0     H25485   6.282   3.870   8.096 -0.4806 -0.3245  1.9741
  951MOL0     H25486   5.972   4.058   8.083  1.3159  1.1549  1.1894
  951MOL0     H25487   6.108   4.050   8.178 -1.0589  2.8768 -0.4203
  951MOL0     H25488   5.885   4.052   8.318 -2.0671  0.9630 -4.0881
  951MOL0     H25489   5.999   3.916   8.355 -1.4688 -0.2693  0.2040
  951MOL0     H25490   5.870   3.776   8.221 -1.3226  0.0297 -1.6644
  951MOL0     H25491   5.780   3.841   8.354 -1.4683  0.6623 -0.5976
  951MOL0     H25492   5.749   3.910   8.061 -0.4095 -1.7490 -0.7530
  951MOL0     H25493   5.697   4.013   8.203  3.0079  0.1586  2.2991
  951MOL0     H25494   5.782   3.688   8.021 -0.6581  1.1874 -2.0318
  951MOL0     H25495   5.739   3.470   7.941 -0.4800 -0.7025  0.3042
  951MOL0     H25496   5.463   3.213   7.699  1.0044 -1.5064 -0.6306
  951MOL0     H25497   5.364   2.998   7.624  1.2380 -0.5776 -0.4765
  951MOL0     H25498   5.397   2.610   7.863 -3.5153  1.9368  0.0790
  951MOL0     H25499   5.549   2.652   7.769 -0.3389 -0.2929 -3.1436
  951MOL0     H25500   5.429   2.425   7.724 -4.2511  0.5225  1.5766
  951MOL0     H25501   5.480   2.526   7.585  1.6720  0.8071  1.6134
  951MOL0     H25502   5.244   2.623   7.592 -0.5836  0.1013  0.0264
  951MOL0     H25503   5.217   2.510   7.730  0.2532  3.3686  1.2216
  951MOL0     H25504   5.273   2.431   7.436  1.4086  1.4119  1.1510
  951MOL0     H25505   5.274   2.321   7.576 -0.7585  0.1559 -0.2534
  951MOL0     H25506   5.071   2.374   7.400 -1.0149 -1.0509  0.6617
  951MOL0     H25507   5.026   2.498   7.510 -0.7250  0.3726 -0.2869
  951MOL0     H25508   4.989   2.340   7.684 -0.5940  1.1323 -0.3692
  951MOL0     H25509   5.077   2.206   7.608  0.0362  1.2627  0.5493
  951MOL0     H25510   4.811   2.211   7.617 -2.5418  0.2451 -2.0152
  951MOL0     H25511   4.822   2.312   7.475  0.3472  0.2637 -1.3481
  951MOL0     H25512   4.987   2.143   7.365  1.3437 -1.7474  0.7775
  951MOL0     H25513   4.818   2.088   7.395  0.1321  1.8543 -0.2950
  951MOL0     H25514   5.542   2.798   7.958 -0.5742  1.0445  0.9064
  951MOL0     H25515   5.652   3.006   8.026  1.2582 -0.4761 -0.6009
  951MOL0     H25516   5.329   3.499   8.083 -1.2411  2.0362  0.6804
  951MOL0     H25517   5.377   3.713   8.171  0.2265 -0.8155  0.9985
  951MOL0     H25518   6.370   2.811   8.600  0.8707  0.4076  0.4061
  951MOL0     H25519   6.248   2.628   8.698  1.2922  3.0238  0.0633
  951MOL0     H25520   6.120   2.233   8.875 -0.9990  2.3371 -0.1601
  951MOL0     H25521   5.950   2.071   8.971  3.0538  1.6388  1.0173
  951MOL0     H25522   5.592   2.019   8.738  1.6464 -2.3505  0.3451
  951MOL0     H25523   5.515   2.125   8.859  1.3623  0.9278  2.3430
  951MOL0     H25524   5.588   1.824   8.881  0.5788  0.9586 -3.2468
  951MOL0     H25525   5.519   1.913   9.013  0.9765  0.1049 -0.0238
  951MOL0     H25526   5.405   1.856   8.739  1.7071  1.3204 -0.2896
  951MOL0     H25527   5.329   1.990   8.827 -1.0698 -1.0548 -1.2380
  951MOL0     H25528   5.332   1.733   8.969  0.1276  2.1817  2.2763
  951MOL0     H25529   5.225   1.878   8.979 -1.6325 -0.0389  0.3941
  951MOL0     H25530   4.988   1.660   8.734  0.5021 -0.1614 -0.2161
  951MOL0     H25531   5.660   2.216   8.694 -0.1179  0.7028 -2.1986
  951MOL0     H25532   5.809   2.375   8.609  1.6075  0.7610 -0.4578
  952MOL0     O25533   6.887   6.450   4.244  0.1612 -0.7927 -0.1061
  952MOL0     C25534   6.958   6.498   4.330 -0.7458  0.3500  0.1550
  952MOL0     O25535   6.935   6.481   4.467  0.2632 -0.3180  0.3781
  952MOL0     C25536   6.870   6.364   4.503  0.1513  0.5303  0.1162
  952MOL0     C25537   6.818   6.375   4.632 -0.5861  0.4065 -0.2065
  952MOL0     C25538   6.749   6.268   4.696 -0.5589 -0.2565 -0.2709
  952MOL0     C25539   6.723   6.156   4.624 -0.3059  0.2531  0.2996
  952MOL0     O25540   6.650   6.058   4.672  0.1313 -0.2753 -0.3769
  952MOL0     C25541   6.516   6.057   4.616  0.0623  0.1907 -0.1804
  952MOL0     C25542   6.484   5.947   4.516  0.2206  0.3139 -0.6062
  952MOL0     C25543   6.500   5.806   4.585  0.1910  0.9995  0.2692
  952MOL0     C25544   6.400   5.769   4.700 -0.2045 -0.7884 -0.1012
  952MOL0     C25545   6.257   5.772   4.654  0.4479  0.4275 -0.0409
  952MOL0     C25546   6.180   5.646   4.708 -0.5301  0.1070  0.8021
  952MOL0     C25547   6.048   5.648   4.640 -0.1223  0.7484  0.2021
  952MOL0     C25548   5.959   5.555   4.711 -0.7431  0.7307 -0.5525
  952MOL0     N25549   5.822   5.556   4.657 -1.0213  0.2992 -0.4517
  952MOL0     C25550   5.710   5.557   4.736  0.8263  0.1095 -0.1208
  952MOL0     C25551   5.614   5.514   4.644 -0.2316  0.9234  0.2476
  952MOL0     C25552   5.468   5.503   4.681  0.3810 -0.7137  0.0026
  952MOL0     C25553   5.445   5.366   4.754  0.9599  0.3147 -0.2548
  952MOL0     C25554   5.308   5.358   4.835 -0.3890  0.1953  0.0991
  952MOL0     C25555   5.193   5.345   4.730 -0.6931 -0.4408 -0.8913
  952MOL0     O25556   5.069   5.327   4.790  0.6069 -0.1147 -0.8300
  952MOL0     C25557   4.974   5.262   4.715  0.4613  0.1564 -0.8076
  952MOL0     C25558   4.979   5.242   4.573  0.0422  0.4189 -0.9804
  952MOL0     C25559   4.876   5.191   4.503  0.3435  0.8802  0.7830
  952MOL0     C25560   4.753   5.154   4.567 -0.0983  1.3115 -1.4763
  952MOL0     C25561   4.637   5.110   4.490 -0.2057  0.4268  0.1155
  952MOL0     O25562   4.523   5.068   4.560 -0.5437  0.0036  0.4944
  952MOL0     C25563   4.430   4.997   4.485  0.1831  0.5971 -0.2234
  952MOL0     C25564   4.352   5.051   4.372 -0.3198  0.0380 -0.3872
  952MOL0     C25565   4.271   4.966   4.307 -0.2045  0.4802  0.3821
  952MOL0     C25566   4.250   4.836   4.358  0.1284  0.1513 -0.2611
  952MOL0     O25567   4.135   4.774   4.308 -0.2789 -0.4930  0.2019
  952MOL0     C25568   4.076   4.681   4.392  0.0686 -0.1795 -0.6479
  952MOL0     C25569   3.958   4.614   4.321 -1.2025  0.3455 -0.3380
  952MOL0     C25570   4.003   4.508   4.221  0.5779  0.3218 -0.5103
  952MOL0     C25571   3.883   4.453   4.152  0.5626  0.6032 -0.0774
  952MOL0     C25572   3.901   4.337   4.049 -0.2486 -0.2824  0.9265
  952MOL0     C25573   3.769   4.260   4.027 -0.3829  0.6779 -0.5611
  952MOL0     C25574   3.766   4.175   3.894 -0.3181 -0.1059  0.8793
  952MOL0     C25575   3.642   4.090   3.870  0.0339  0.4105  0.3225
  952MOL0    Cl25576   3.485   4.173   3.849 -0.3342 -0.3508 -0.4185
  952MOL0     C25577   4.316   4.792   4.475  0.4324 -0.1629  0.2112
  952MOL0     C25578   4.409   4.875   4.537  0.1721 -0.1180  0.0689
  952MOL0     O25579   4.643   5.119   4.367 -0.1284  0.8480  0.1195
  952MOL0     C25580   4.744   5.166   4.710 -0.4122  0.8299  0.1750
  952MOL0     C25581   4.860   5.213   4.780 -0.2060 -0.7469 -0.0431
  952MOL0     N25582   5.671   5.497   4.516 -0.3736  0.8426  0.7596
  952MOL0     N25583   5.798   5.518   4.530  0.1756  0.2471  0.1294
  952MOL0     C25584   6.783   6.140   4.500  0.2358 -1.0750  0.2792
  952MOL0     C25585   6.845   6.242   4.437 -0.1398 -0.2131 -0.0716
  952MOL0     C25586   7.082   6.576   4.288 -0.3479  0.2551 -0.8952
  952MOL0     C25587   7.143   6.658   4.393 -0.0911  0.5540 -0.3452
  952MOL0     C25588   7.249   6.739   4.359 -0.6039 -0.3489 -0.0235
  952MOL0     C25589   7.306   6.739   4.230 -0.0231  0.3413 -0.5071
  952MOL0     O25590   7.396   6.819   4.171  0.2262  0.4364 -0.6551
  952MOL0     C25591   7.471   6.918   4.236 -1.0514  0.1656 -0.6532
  952MOL0     C25592   7.579   6.868   4.343  0.6051  0.0884  0.1745
  952MOL0     C25593   7.688   6.784   4.263 -0.1732 -0.5392 -0.1159
  952MOL0     C25594   7.756   6.678   4.347  0.1390  0.1762  0.2890
  952MOL0     C25595   7.873   6.613   4.278 -0.7297  0.0260  0.7473
  952MOL0     C25596   7.974   6.563   4.227  0.3048  0.2926 -0.2440
  952MOL0     C25597   7.249   6.651   4.130 -0.5770  0.3683  0.5582
  952MOL0     C25598   7.142   6.569   4.165 -1.1585 -0.4249 -0.0902
  952MOL0     H25599   6.846   6.460   4.693  2.8750 -0.5836 -0.1658
  952MOL0     H25600   6.724   6.289   4.800 -0.5174  0.5919 -0.4181
  952MOL0     H25601   6.505   6.155   4.569  3.2905  0.5985 -0.2636
  952MOL0     H25602   6.451   6.053   4.704 -0.3992  1.2395 -0.4600
  952MOL0     H25603   6.553   5.949   4.431  1.4773 -1.5952  0.2961
  952MOL0     H25604   6.378   5.950   4.489 -0.2590  0.0750  1.0837
  952MOL0     H25605   6.602   5.788   4.619  0.1612 -1.0858 -0.6072
  952MOL0     H25606   6.485   5.727   4.511 -1.6767  1.1766  0.3886
  952MOL0     H25607   6.425   5.674   4.749 -1.8155 -1.4924 -0.5775
  952MOL0     H25608   6.408   5.833   4.788  0.2084 -2.9386  1.5113
  952MOL0     H25609   6.258   5.758   4.546 -1.9188 -0.2733 -0.0181
  952MOL0     H25610   6.216   5.868   4.687 -2.3102 -0.4339 -0.6944
  952MOL0     H25611   6.172   5.651   4.817 -0.3787  2.3368  0.7674
  952MOL0     H25612   6.237   5.554   4.692 -1.0855 -0.3342  1.2924
  952MOL0     H25613   6.011   5.752   4.639 -0.9047  0.4929  0.9997
  952MOL0     H25614   6.063   5.613   4.538 -1.8354 -2.4749  0.9132
  952MOL0     H25615   5.940   5.567   4.818 -1.3148  0.4644 -0.6184
  952MOL0     H25616   5.992   5.451   4.699 -3.9015 -0.1787 -2.7688
  952MOL0     H25617   5.690   5.581   4.840  1.7587 -1.3156  0.4237
  952MOL0     H25618   5.409   5.506   4.589  3.9800  0.9037 -2.4928
  952MOL0     H25619   5.445   5.589   4.744  2.8637  0.1656 -0.1742
  952MOL0     H25620   5.524   5.357   4.830  0.7346 -2.0354 -0.2217
  952MOL0     H25621   5.463   5.283   4.685  1.6289 -0.1936  0.5095
  952MOL0     H25622   5.297   5.277   4.908 -2.6626 -0.2458 -0.6649
  952MOL0     H25623   5.301   5.447   4.898 -1.7909 -0.8629  1.5240
  952MOL0     H25624   5.229   5.260   4.672  1.5380 -0.2382  0.1138
  952MOL0     H25625   5.175   5.420   4.652  0.5285 -2.2932 -3.1087
  952MOL0     H25626   5.069   5.263   4.516  1.4960  0.3966  1.1902
  952MOL0     H25627   4.882   5.173   4.397 -0.4837 -1.4622  1.0662
  952MOL0     H25628   4.370   5.149   4.331 -1.3109 -0.1392 -1.2948
  952MOL0     H25629   4.218   4.985   4.214 -2.2606  1.5613  1.7039
  952MOL0     H25630   4.048   4.726   4.488  0.8053 -2.0262  0.4831
  952MOL0     H25631   4.139   4.601   4.430 -0.8924  0.2703  2.1147
  952MOL0     H25632   3.897   4.692   4.274 -1.2748  1.8260  2.0460
  952MOL0     H25633   3.897   4.565   4.396 -0.3672  0.2776  0.3077
  952MOL0     H25634   4.065   4.429   4.264 -0.0970 -0.1789 -0.4523
  952MOL0     H25635   4.071   4.555   4.149  0.0942 -0.4822 -1.5272
  952MOL0     H25636   3.829   4.388   4.222  1.0712 -2.3579 -2.2508
  952MOL0     H25637   3.817   4.532   4.116 -1.4961  0.5530  3.1448
  952MOL0     H25638   3.983   4.266   4.063  0.4973  0.2919 -0.4026
  952MOL0     H25639   3.933   4.369   3.950 -1.4521 -2.0107 -0.0611
  952MOL0     H25640   3.693   4.338   4.020 -2.5283 -1.2691 -0.2410
  952MOL0     H25641   3.749   4.194   4.112 -1.0707 -0.6480 -1.6956
  952MOL0     H25642   3.777   4.243   3.809 -2.3368  1.1109  1.5135
  952MOL0     H25643   3.860   4.119   3.886 -1.3011 -1.5606 -1.6133
  952MOL0     H25644   3.637   4.025   3.957 -1.3975  3.1442  2.4508
  952MOL0     H25645   3.646   4.030   3.778  0.4133 -0.9261  1.1801
  952MOL0     H25646   4.301   4.698   4.528 -2.1237  0.2868  0.3923
  952MOL0     H25647   4.457   4.842   4.628 -0.8065  1.6566  1.3119
  952MOL0     H25648   4.650   5.136   4.756 -1.2850 -0.0309 -2.0410
  952MOL0     H25649   4.853   5.230   4.887  1.2755 -0.0458 -0.0217
  952MOL0     H25650   6.768   6.049   4.443  1.5130 -1.9351  1.2562
  952MOL0     H25651   6.873   6.223   4.334 -2.2829  0.6223 -0.8616
  952MOL0     H25652   7.101   6.663   4.493  0.2896  0.4905 -0.1834
  952MOL0     H25653   7.281   6.805   4.438 -2.8177  0.6827  0.0825
  952MOL0     H25654   7.404   6.994   4.278 -1.1225  1.9990 -3.7394
  952MOL0     H25655   7.531   6.970   4.160 -3.2022 -0.4031 -2.8815
  952MOL0     H25656   7.612   6.956   4.397  0.2260  0.4051 -0.0991
  952MOL0     H25657   7.521   6.807   4.413  0.0629  1.6512  1.1199
  952MOL0     H25658   7.755   6.859   4.218 -1.1403  0.4885  0.1006
  952MOL0     H25659   7.638   6.742   4.175 -4.0316  1.9766  0.5842
  952MOL0     H25660   7.801   6.733   4.430  1.5273  0.2861 -0.4982
  952MOL0     H25661   7.689   6.597   4.375  0.2516  0.0895  0.3094
  952MOL0     H25662   8.053   6.515   4.173 -0.1536  1.9658 -2.5684
  952MOL0     H25663   7.295   6.658   4.033 -0.6007 -1.1755  0.4020
  952MOL0     H25664   7.094   6.497   4.099 -1.3809  0.2403 -0.6650
  953MOL0     O25665   8.035   7.268   6.738  0.2262 -0.2260 -0.2724
  953MOL0     C25666   8.040   7.378   6.794  0.4076  0.4055 -0.6656
  953MOL0     O25667   7.957   7.421   6.895 -0.0416 -0.0970  0.6694
  953MOL0     C25668   7.831   7.357   6.899  0.4657 -0.6351  0.8869
  953MOL0     C25669   7.721   7.418   6.845  0.3849  0.5237  0.6181
  953MOL0     C25670   7.595   7.361   6.860 -0.0858 -0.0790 -0.1071
  953MOL0     C25671   7.584   7.240   6.932 -0.3347  0.7089 -0.5813
  953MOL0     O25672   7.458   7.195   6.966 -0.3832 -0.3476  0.1708
  953MOL0     C25673   7.429   7.048   6.957  0.3441 -0.3803 -0.5339
  953MOL0     C25674   7.323   7.031   6.845 -0.4615  0.2463  0.5934
  953MOL0     C25675   7.181   7.085   6.885  1.1526 -0.4868  0.0417
  953MOL0     C25676   7.105   7.142   6.769  0.5576 -0.1777  0.6192
  953MOL0     C25677   7.003   7.246   6.797  0.1956  0.0458 -0.1872
  953MOL0     C25678   6.899   7.192   6.894 -0.1571 -0.3185 -0.5247
  953MOL0     C25679   6.787   7.301   6.897 -0.0945  2.3187  0.5379
  953MOL0     C25680   6.671   7.263   6.995 -0.5768 -0.1344 -0.5622
  953MOL0     N25681   6.582   7.167   6.928 -0.2076 -0.2926 -0.0308
  953MOL0     C25682   6.562   7.031   6.947 -0.2834 -0.4387  0.9749
  953MOL0     C25683   6.480   6.997   6.854  0.1359  0.2535 -0.0983
  953MOL0     C25684   6.406   6.863   6.824 -0.2322  0.4502 -0.7156
  953MOL0     C25685   6.275   6.838   6.903  0.2511 -0.4299 -0.7064
  953MOL0     C25686   6.277   6.842   7.052  0.5295  0.1317  0.3167
  953MOL0     C25687   6.141   6.841   7.109  0.0598 -0.5923 -1.3120
  953MOL0     O25688   6.148   6.898   7.246  0.5684 -0.6359  0.3552
  953MOL0     C25689   6.071   6.854   7.352 -0.2572 -0.0393  0.0451
  953MOL0     C25690   6.070   6.932   7.468 -0.6541 -0.0499  0.9786
  953MOL0     C25691   6.011   6.887   7.581  0.1963  0.8335  0.0391
  953MOL0     C25692   5.941   6.763   7.580 -0.4856  0.9433 -0.9941
  953MOL0     C25693   5.863   6.724   7.701 -0.0531  0.0568 -0.4641
  953MOL0     O25694   5.818   6.821   7.789  0.1434 -0.1967  0.7880
  953MOL0     C25695   5.824   6.784   7.924 -0.2031  0.0959  0.1533
  953MOL0     C25696   5.950   6.740   7.971  0.0482  0.5721 -0.1373
  953MOL0     C25697   5.966   6.709   8.109  0.5961 -0.2271  0.9098
  953MOL0     C25698   5.858   6.735   8.194  0.0579 -0.1742 -0.5788
  953MOL0     O25699   5.874   6.714   8.327  0.3390  0.4603  0.5033
  953MOL0     C25700   5.905   6.827   8.406 -0.5095 -0.1336  0.6698
  953MOL0     C25701   6.053   6.857   8.375  0.7660  0.3218 -0.1307
  953MOL0     C25702   6.152   6.750   8.418 -0.6170 -0.4938  0.5847
  953MOL0     C25703   6.297   6.791   8.413 -0.4923  0.3778 -0.5663
  953MOL0     C25704   6.389   6.678   8.446 -0.3305 -0.7422 -0.7644
  953MOL0     C25705   6.540   6.721   8.431 -0.0693 -0.0609  0.4584
  953MOL0     C25706   6.626   6.596   8.463  1.0547 -0.9118 -0.8521
  953MOL0     C25707   6.780   6.589   8.436 -0.5442 -0.5882 -0.0632
  953MOL0    Cl25708   6.829   6.703   8.317  0.5276 -0.0178  0.0424
  953MOL0     C25709   5.728   6.787   8.151 -0.4619 -0.2648  0.4738
  953MOL0     C25710   5.716   6.804   8.014  0.1006 -0.1625  0.6946
  953MOL0     O25711   5.873   6.606   7.729  0.0248  0.1186  0.0396
  953MOL0     C25712   5.953   6.677   7.462  0.4043 -0.3026  0.1835
  953MOL0     C25713   6.023   6.726   7.356  0.6282  0.7849 -0.4542
  953MOL0     N25714   6.442   7.112   6.779 -0.5324 -0.5212  0.2430
  953MOL0     N25715   6.520   7.205   6.816  0.1246  1.2148 -0.9036
  953MOL0     C25716   7.699   7.182   6.994  0.8550  0.2710 -0.1651
  953MOL0     C25717   7.822   7.243   6.973  0.8313 -0.2877 -0.1328
  953MOL0     C25718   8.138   7.478   6.755 -0.4713  0.8124  0.4674
  953MOL0     C25719   8.130   7.608   6.812  0.3357 -0.1190  0.4334
  953MOL0     C25720   8.220   7.710   6.773  0.6408 -0.3623  0.9269
  953MOL0     C25721   8.318   7.681   6.677  0.0885  0.7861 -0.1179
  953MOL0     O25722   8.411   7.774   6.643  0.4432 -0.2212 -0.2301
  953MOL0     C25723   8.435   7.895   6.719  0.5636 -0.1341 -0.1178
  953MOL0     C25724   8.575   7.952   6.688  0.3498 -0.4242 -0.7762
  953MOL0     C25725   8.609   8.004   6.545  0.8220 -0.2993 -0.3382
  953MOL0     C25726   8.762   7.992   6.509  0.4031  0.4755 -0.8305
  953MOL0     C25727   8.786   7.978   6.367  0.1428 -0.1866  0.6606
  953MOL0     C25728   8.791   7.996   6.246  0.2241  0.3995  0.3860
  953MOL0     C25729   8.332   7.549   6.624 -0.4300 -0.5067 -0.4744
  953MOL0     C25730   8.242   7.452   6.659  0.4521  0.2611  0.2624
  953MOL0     H25731   7.731   7.506   6.782  0.4058 -0.8794 -1.4439
  953MOL0     H25732   7.505   7.404   6.817  0.0767 -1.8584 -2.4830
  953MOL0     H25733   7.396   7.021   7.057  2.5230  2.3665  1.0760
  953MOL0     H25734   7.515   6.986   6.931 -0.0926 -0.6112 -1.4860
  953MOL0     H25735   7.320   6.925   6.817 -2.8790  0.1327  1.0321
  953MOL0     H25736   7.349   7.089   6.757 -0.6766  1.2398  1.1714
  953MOL0     H25737   7.199   7.164   6.958 -1.5712 -0.4331  0.7451
  953MOL0     H25738   7.123   7.006   6.935  1.0963 -1.9275 -2.1600
  953MOL0     H25739   7.178   7.180   6.697  2.3714 -3.2061  0.6701
  953MOL0     H25740   7.069   7.052   6.718  0.6626 -0.6085  1.3012
  953MOL0     H25741   6.958   7.267   6.700 -0.3659  0.7615  0.2193
  953MOL0     H25742   7.044   7.339   6.838  3.4547  0.1466 -3.1800
  953MOL0     H25743   6.944   7.195   6.994  0.5363 -3.7860 -0.6030
  953MOL0     H25744   6.867   7.093   6.861  1.6425 -1.2666  0.4542
  953MOL0     H25745   6.830   7.393   6.938  0.0214  1.3565  2.7453
  953MOL0     H25746   6.766   7.327   6.793  0.0551  1.0843  0.1794
  953MOL0     H25747   6.612   7.350   7.025 -1.1370 -0.2851 -1.2036
  953MOL0     H25748   6.703   7.227   7.093 -0.4229  3.4939  0.8899
  953MOL0     H25749   6.594   6.967   7.028 -1.6939 -1.5522  0.6793
  953MOL0     H25750   6.467   6.782   6.865 -1.0021  0.8996  1.4381
  953MOL0     H25751   6.383   6.843   6.719 -0.6740  0.1146 -0.5599
  953MOL0     H25752   6.228   6.743   6.879  1.5821 -1.1253 -0.6168
  953MOL0     H25753   6.202   6.909   6.863  1.1401  1.1221  0.3143
  953MOL0     H25754   6.340   6.772   7.106  2.0140  0.4532 -0.9206
  953MOL0     H25755   6.311   6.943   7.076 -1.4422  0.5199  1.7818
  953MOL0     H25756   6.083   6.748   7.104  0.9178 -1.2629  0.2868
  953MOL0     H25757   6.086   6.919   7.057  2.3567  1.4963 -0.8033
  953MOL0     H25758   6.118   7.030   7.470 -0.1573 -0.2787  0.6253
  953MOL0     H25759   6.009   6.945   7.673 -0.2063  1.5218 -0.4015
  953MOL0     H25760   6.033   6.716   7.906 -0.8739 -2.4065 -0.3620
  953MOL0     H25761   6.060   6.667   8.142  0.8796  0.4023  0.9198
  953MOL0     H25762   5.892   6.795   8.510 -0.5749 -2.2795  0.0381
  953MOL0     H25763   5.833   6.905   8.379 -2.3711 -0.9950  2.8104
  953MOL0     H25764   6.082   6.936   8.446  1.8297 -1.4759  1.5464
  953MOL0     H25765   6.071   6.887   8.271  2.0374 -3.4393 -1.1355
  953MOL0     H25766   6.137   6.662   8.355 -1.4317 -1.1415  1.6587
  953MOL0     H25767   6.137   6.716   8.521  1.0563  0.0519  1.0270
  953MOL0     H25768   6.325   6.842   8.320  1.9661  1.4148  0.6792
  953MOL0     H25769   6.312   6.867   8.490  3.2265 -0.2693 -0.5048
  953MOL0     H25770   6.363   6.603   8.371 -3.1327 -0.3227 -0.3062
  953MOL0     H25771   6.381   6.644   8.549  2.5572  1.4982  0.3580
  953MOL0     H25772   6.566   6.806   8.495 -0.7296  0.4682  0.0333
  953MOL0     H25773   6.561   6.748   8.327  3.3353 -1.1009  0.7573
  953MOL0     H25774   6.620   6.568   8.569  2.5619 -0.7609 -0.6988
  953MOL0     H25775   6.587   6.511   8.406  0.1640 -2.1572  1.4787
  953MOL0     H25776   6.797   6.486   8.403  1.4651 -0.2322 -0.2586
  953MOL0     H25777   6.842   6.602   8.525 -1.3962  2.6439  0.1930
  953MOL0     H25778   5.648   6.804   8.223 -1.1953  1.1224 -0.6217
  953MOL0     H25779   5.617   6.833   7.978 -0.2230 -2.3472 -0.3881
  953MOL0     H25780   5.912   6.577   7.449 -0.2911  0.2111 -1.9036
  953MOL0     H25781   6.022   6.654   7.276 -2.6083 -0.0609  0.2138
  953MOL0     H25782   7.684   7.091   7.050  0.1671 -0.1113 -0.9465
  953MOL0     H25783   7.913   7.201   7.016 -0.6483 -4.3097 -0.4361
  953MOL0     H25784   8.036   7.631   6.860 -3.5288 -2.4066 -5.0056
  953MOL0     H25785   8.212   7.802   6.831  0.7646 -0.6380  1.3838
  953MOL0     H25786   8.423   7.880   6.827 -1.0686  1.1067 -0.1043
  953MOL0     H25787   8.358   7.962   6.681 -0.4272 -0.9352  0.4282
  953MOL0     H25788   8.612   8.030   6.756 -1.3830  0.3469 -0.6565
  953MOL0     H25789   8.632   7.860   6.703 -3.7025 -2.8714  1.2737
  953MOL0     H25790   8.567   8.104   6.532  1.2882  0.1413  1.3199
  953MOL0     H25791   8.564   7.940   6.468  2.7838 -2.6681  0.3367
  953MOL0     H25792   8.804   8.075   6.566  1.9711  0.6095 -2.1171
  953MOL0     H25793   8.799   7.897   6.550  2.9116  1.2744 -1.0681
  953MOL0     H25794   8.803   8.008   6.140  0.7806 -0.6520  0.3084
  953MOL0     H25795   8.405   7.542   6.544 -0.8457  1.6693 -1.1060
  953MOL0     H25796   8.248   7.353   6.615  3.0838 -0.3306  1.7960
  954MOL0     O25797   2.104   4.467   8.556 -0.1817  0.2652 -0.1267
  954MOL0     C25798   2.027   4.377   8.570  0.5168  0.3977 -0.0119
  954MOL0     O25799   1.955   4.317   8.472  0.5993 -0.2362  0.4704
  954MOL0     C25800   1.942   4.387   8.354  0.1332 -0.3833 -0.2433
  954MOL0     C25801   1.981   4.332   8.232  0.8993  0.9463 -0.5089
  954MOL0     C25802   1.954   4.401   8.112  0.1586 -0.6393  0.1007
  954MOL0     C25803   1.887   4.524   8.104 -0.3983 -0.0699 -0.8155
  954MOL0     O25804   1.862   4.590   7.983 -0.1037 -0.8041 -0.1085
  954MOL0     C25805   1.778   4.508   7.901  0.6636  0.2555 -0.1442
  954MOL0     C25806   1.642   4.485   7.974  0.4030  0.3295 -0.9425
  954MOL0     C25807   1.528   4.449   7.889  0.3768 -0.0011 -0.9879
  954MOL0     C25808   1.406   4.416   7.974  0.5425 -0.9326 -0.1277
  954MOL0     C25809   1.277   4.426   7.896  0.5587  0.7463  0.2492
  954MOL0     C25810   1.155   4.359   7.960 -0.2021  0.3204 -0.1833
  954MOL0     C25811   1.054   4.324   7.849  0.3926  0.7942  0.2898
  954MOL0     C25812   0.923   4.273   7.923  1.0334  0.3724 -0.9161
  954MOL0     N25813   0.817   4.237   7.822  0.0951  0.3937  1.1304
  954MOL0     C25814   0.680   4.272   7.823 -0.8267  0.2294 -0.3176
  954MOL0     C25815   0.618   4.199   7.727  0.0837  0.0504 -0.0290
  954MOL0     C25816   0.475   4.213   7.684  1.1762  0.3015  0.4097
  954MOL0     C25817   0.366   4.113   7.734 -0.5613  0.5026 -0.3466
  954MOL0     C25818   0.231   4.177   7.707  0.6327 -0.3093  0.1455
  954MOL0     C25819   0.110   4.099   7.778 -0.0934  0.0468  0.2034
  954MOL0     O25820  -0.013   4.166   7.748  0.3721 -0.6536 -0.2471
  954MOL0     C25821  -0.122   4.113   7.809  0.7979 -0.2308 -0.3068
  954MOL0     C25822  -0.140   3.975   7.850 -0.5953  0.4469 -0.2221
  954MOL0     C25823  -0.250   3.929   7.915  0.4498 -0.0366 -0.0049
  954MOL0     C25824  -0.370   4.013   7.919  0.0164  0.4776  0.2133
  954MOL0     C25825  -0.493   3.960   7.976  0.0321 -0.8232  0.3940
  954MOL0     O25826  -0.499   3.829   7.988  0.2757  0.2368 -0.1984
  954MOL0     C25827  -0.606   3.780   8.057 -0.1718  0.4848 -0.1872
  954MOL0     C25828  -0.583   3.742   8.196  0.6843  0.8721  0.0250
  954MOL0     C25829  -0.691   3.694   8.271 -0.1944  0.1160 -0.2224
  954MOL0     C25830  -0.827   3.689   8.229 -0.8824  0.4537  0.7062
  954MOL0     O25831  -0.920   3.636   8.314  0.0240  0.4654  0.1174
  954MOL0     C25832  -1.039   3.593   8.262  0.6867  0.1443  0.1390
  954MOL0     C25833  -1.164   3.683   8.300 -0.4775 -0.3134 -0.1510
  954MOL0     C25834  -1.293   3.594   8.292  0.3477  0.8929  0.1420
  954MOL0     C25835  -1.419   3.662   8.335  0.4571 -0.0172 -0.2224
  954MOL0     C25836  -1.411   3.688   8.491  0.3847  0.2983 -0.7302
  954MOL0     C25837  -1.539   3.774   8.540 -0.6040  0.4614 -0.3228
  954MOL0     C25838  -1.518   3.922   8.529 -0.3539  0.1914 -0.0514
  954MOL0     C25839  -1.638   4.000   8.534  0.5720 -0.0717 -0.5337
  954MOL0    Cl25840  -1.733   3.964   8.689  0.0157 -0.0092  0.3181
  954MOL0     C25841  -0.845   3.736   8.094 -0.3234 -0.4297  0.5469
  954MOL0     C25842  -0.739   3.781   8.011 -0.2734  0.3863 -0.1147
  954MOL0     O25843  -0.590   4.036   7.982  0.8111  0.1423 -0.2086
  954MOL0     C25844  -0.362   4.142   7.862 -0.6076  0.2481 -0.1528
  954MOL0     C25845  -0.237   4.185   7.820  0.2269  0.1550  0.0352
  954MOL0     N25846   0.714   4.112   7.684 -0.4893 -1.1181 -0.0984
  954MOL0     N25847   0.828   4.134   7.731 -0.2578  0.7505 -0.4297
  954MOL0     C25848   1.854   4.585   8.226  0.1748 -0.9262  0.9182
  954MOL0     C25849   1.881   4.510   8.348  0.3814 -0.7482  0.2426
  954MOL0     C25850   2.016   4.321   8.702 -0.1640  0.4939 -0.1840
  954MOL0     C25851   2.074   4.390   8.814  0.4531  0.8581 -0.2900
  954MOL0     C25852   2.049   4.342   8.947 -0.6519 -0.4997  0.1811
  954MOL0     C25853   1.986   4.219   8.965  0.6020 -0.9469 -0.2951
  954MOL0     O25854   1.962   4.186   9.094  0.1505  0.8277  0.3797
  954MOL0     C25855   1.843   4.112   9.126 -0.2527  0.1215  0.2799
  954MOL0     C25856   1.768   4.166   9.243 -0.3705 -0.2704 -1.4690
  954MOL0     C25857   1.709   4.306   9.210  0.2820 -0.5937 -0.1281
  954MOL0     C25858   1.620   4.376   9.317  0.4246 -1.8573  0.5661
  954MOL0     C25859   1.684   4.425   9.433  0.1809 -0.0527  0.5320
  954MOL0     C25860   1.754   4.438   9.528 -0.3161 -0.4373 -0.1632
  954MOL0     C25861   1.930   4.149   8.851 -0.2289  0.6482 -0.0627
  954MOL0     C25862   1.936   4.203   8.724 -0.1033  0.6121  0.0600
  954MOL0     H25863   2.027   4.234   8.229  0.2879  0.6690 -2.8654
  954MOL0     H25864   1.984   4.363   8.015  0.0573  2.3740 -1.1966
  954MOL0     H25865   1.824   4.414   7.871  3.1374  0.9947  1.0073
  954MOL0     H25866   1.750   4.565   7.812  0.8972  3.2219  1.5348
  954MOL0     H25867   1.609   4.579   8.020  2.1219 -0.1226  1.3750
  954MOL0     H25868   1.648   4.412   8.054 -2.8105  0.4704 -0.4562
  954MOL0     H25869   1.544   4.363   7.823  1.8108  0.7504 -1.6599
  954MOL0     H25870   1.487   4.540   7.844 -3.0875  1.0581  3.5643
  954MOL0     H25871   1.413   4.309   7.992 -1.8660 -0.6900  3.4493
  954MOL0     H25872   1.396   4.476   8.066 -1.8187  0.2157 -1.0446
  954MOL0     H25873   1.294   4.374   7.801  1.4005  0.9323  0.2909
  954MOL0     H25874   1.248   4.525   7.860 -1.5413 -0.2770 -1.0831
  954MOL0     H25875   1.112   4.439   8.021  0.1469  1.7621 -1.7519
  954MOL0     H25876   1.179   4.272   8.022  2.5004 -1.2349 -3.1296
  954MOL0     H25877   1.027   4.415   7.795 -0.8235  0.2650 -0.0112
  954MOL0     H25878   1.093   4.243   7.787  0.7308  2.0310 -1.2055
  954MOL0     H25879   0.897   4.357   7.988  1.3515 -1.6962  2.1093
  954MOL0     H25880   0.950   4.192   7.991 -0.6539  1.0379  0.6404
  954MOL0     H25881   0.642   4.340   7.898  0.8218 -0.6478  1.3964
  954MOL0     H25882   0.459   4.198   7.577 -1.9142 -0.7172  0.8825
  954MOL0     H25883   0.441   4.315   7.702 -1.7079 -0.0690 -2.0729
  954MOL0     H25884   0.378   4.098   7.841  1.0768  0.0167 -0.5705
  954MOL0     H25885   0.362   4.015   7.686 -1.2233 -2.2094  4.6182
  954MOL0     H25886   0.226   4.284   7.729 -1.0797 -0.0685 -1.2180
  954MOL0     H25887   0.207   4.162   7.601 -1.6000 -1.3418  0.7332
  954MOL0     H25888   0.119   4.101   7.887  1.1472 -0.5362  0.1326
  954MOL0     H25889   0.111   3.996   7.742  2.4095  0.1594 -0.2159
  954MOL0     H25890  -0.063   3.899   7.851  0.0438  1.0829  1.0365
  954MOL0     H25891  -0.250   3.825   7.946  0.1433 -0.0451 -0.0324
  954MOL0     H25892  -0.486   3.744   8.245  2.1120 -1.7948 -2.3927
  954MOL0     H25893  -0.680   3.644   8.367 -0.9872  1.3283  0.5200
  954MOL0     H25894  -1.057   3.492   8.302 -1.0790  0.5986  0.5856
  954MOL0     H25895  -1.040   3.583   8.153  3.0231 -1.2891  0.1794
  954MOL0     H25896  -1.173   3.765   8.227 -0.7797 -1.1049 -1.0298
  954MOL0     H25897  -1.152   3.724   8.400 -0.2353 -0.4804 -0.1125
  954MOL0     H25898  -1.280   3.513   8.365  1.5039  0.1082 -0.8828
  954MOL0     H25899  -1.291   3.558   8.189  1.4981  1.9542 -0.2401
  954MOL0     H25900  -1.438   3.753   8.277  0.6886 -1.4475 -2.6585
  954MOL0     H25901  -1.502   3.592   8.322  0.1998 -0.6163  3.4922
  954MOL0     H25902  -1.315   3.740   8.506  0.1554  1.3936 -2.6940
  954MOL0     H25903  -1.413   3.594   8.547  0.3182  0.4303 -0.5096
  954MOL0     H25904  -1.558   3.765   8.647  2.3728  0.7608  0.3270
  954MOL0     H25905  -1.629   3.740   8.487 -0.4796 -2.2092  0.9811
  954MOL0     H25906  -1.454   3.944   8.615 -0.1670 -2.5912  0.6106
  954MOL0     H25907  -1.469   3.952   8.436 -1.4456 -2.2155 -1.5055
  954MOL0     H25908  -1.702   3.968   8.451  0.1706 -1.4297  0.2796
  954MOL0     H25909  -1.611   4.105   8.523 -0.8731  0.1174 -3.2334
  954MOL0     H25910  -0.948   3.753   8.067 -0.1474  0.8881  0.6386
  954MOL0     H25911  -0.750   3.829   7.914  1.1998 -1.6531 -1.3615
  954MOL0     H25912  -0.444   4.213   7.859 -1.4618 -0.7429 -1.7428
  954MOL0     H25913  -0.231   4.287   7.782  1.9652  0.2659  0.5038
  954MOL0     H25914   1.805   4.681   8.217  1.5268 -0.4235 -2.6637
  954MOL0     H25915   1.862   4.552   8.446  2.4866 -0.8410  0.7351
  954MOL0     H25916   2.127   4.483   8.794  0.8100  0.3302 -1.9757
  954MOL0     H25917   2.096   4.399   9.027  2.4378 -0.1010 -1.7202
  954MOL0     H25918   1.869   4.006   9.139  0.6645  0.4793  1.5637
  954MOL0     H25919   1.769   4.121   9.046 -0.7458 -2.0162  0.4378
  954MOL0     H25920   1.685   4.102   9.274 -1.1333  1.5278  0.4038
  954MOL0     H25921   1.836   4.186   9.327 -1.4276  0.3117 -0.7362
  954MOL0     H25922   1.633   4.291   9.133 -0.8347 -0.5658  0.9345
  954MOL0     H25923   1.787   4.373   9.172  1.0279 -1.4661 -0.1850
  954MOL0     H25924   1.573   4.468   9.282  1.9698 -0.8271  1.1016
  954MOL0     H25925   1.537   4.311   9.345 -0.1518 -1.5699 -0.4063
  954MOL0     H25926   1.811   4.467   9.614 -0.7644  0.9879 -0.3179
  954MOL0     H25927   1.869   4.059   8.863 -0.8927  1.2285  1.1222
  954MOL0     H25928   1.884   4.152   8.643 -0.6779  2.2452 -0.6345
  955MOL0     O25929   2.125   7.716   8.130 -0.3405 -0.4187  0.8886
  955MOL0     C25930   2.233   7.773   8.107  0.4253  0.5681  0.3263
  955MOL0     O25931   2.245   7.901   8.065 -0.1900 -0.1194 -0.0901
  955MOL0     C25932   2.124   7.970   8.050 -0.8809 -0.2047  0.2025
  955MOL0     C25933   2.107   8.090   8.123  0.6644  0.6281 -0.3748
  955MOL0     C25934   1.990   8.159   8.094  0.1526 -0.7812 -0.0471
  955MOL0     C25935   1.889   8.128   7.993 -0.4704  0.4882 -0.6103
  955MOL0     O25936   1.775   8.206   7.975 -0.2927 -0.0299 -0.3849
  955MOL0     C25937   1.656   8.131   8.025 -0.2608 -0.4118  0.7613
  955MOL0     C25938   1.541   8.190   7.942 -0.4242  0.7843  0.2801
  955MOL0     C25939   1.405   8.153   8.002 -0.0415  0.4534  0.0347
  955MOL0     C25940   1.286   8.187   7.916  0.7727  0.1299 -0.0049
  955MOL0     C25941   1.161   8.115   7.976 -0.0127 -0.5365  1.3802
  955MOL0     C25942   1.032   8.145   7.905  0.3219 -0.3326 -0.2182
  955MOL0     C25943   0.915   8.048   7.936 -0.6896 -0.0104 -0.8139
  955MOL0     C25944   0.922   7.926   7.847 -1.0964 -0.3795 -0.7782
  955MOL0     N25945   0.794   7.846   7.858  0.5197 -0.6666 -0.3609
  955MOL0     C25946   0.755   7.734   7.930  0.1603  0.0549 -0.3979
  955MOL0     C25947   0.624   7.711   7.906  0.2640  0.1169 -0.0795
  955MOL0     C25948   0.539   7.602   7.971 -0.1242  0.2728 -0.1199
  955MOL0     C25949   0.432   7.547   7.883 -0.1958  0.6825 -0.3642
  955MOL0     C25950   0.493   7.484   7.757 -0.2288  0.1490 -0.0541
  955MOL0     C25951   0.381   7.452   7.659  0.5498  0.5184 -0.8627
  955MOL0     O25952   0.333   7.321   7.699 -0.2238 -0.9096  0.5421
  955MOL0     C25953   0.232   7.260   7.618  0.3865  0.4431  0.4544
  955MOL0     C25954   0.231   7.115   7.614 -1.0891 -0.5584  0.3090
  955MOL0     C25955   0.130   7.058   7.538  0.2411 -0.1150  0.2265
  955MOL0     C25956   0.022   7.124   7.476 -0.2542 -0.3123  0.7474
  955MOL0     C25957  -0.086   7.064   7.386 -0.5892  0.6808 -0.5836
  955MOL0     O25958  -0.173   7.145   7.324  0.3389 -0.4771 -0.1405
  955MOL0     C25959  -0.275   7.105   7.238 -0.1017 -0.3093 -0.1531
  955MOL0     C25960  -0.304   6.970   7.182 -0.0010  0.2726 -0.8776
  955MOL0     C25961  -0.409   6.957   7.095 -0.4993 -0.2224 -1.0067
  955MOL0     C25962  -0.489   7.064   7.062 -0.5456  0.5085 -1.0850
  955MOL0     O25963  -0.597   7.039   6.982 -0.0585  0.8121 -0.1458
  955MOL0     C25964  -0.584   7.073   6.840 -0.1911  0.2114 -0.5225
  955MOL0     C25965  -0.708   7.031   6.759 -0.5562 -0.2943  0.2089
  955MOL0     C25966  -0.835   7.033   6.841  0.0978  0.7420 -0.3537
  955MOL0     C25967  -0.971   7.031   6.774  0.3165  0.1048  0.1750
  955MOL0     C25968  -1.073   7.048   6.890  0.0415 -0.5181 -0.5773
  955MOL0     C25969  -1.212   7.028   6.825  1.3016 -0.1236  1.0699
  955MOL0     C25970  -1.329   7.020   6.919 -0.6995 -0.3073  0.0713
  955MOL0     C25971  -1.462   7.000   6.847 -0.2838 -0.3025 -0.0689
  955MOL0    Cl25972  -1.592   7.017   6.968  0.2355  0.0761  0.0735
  955MOL0     C25973  -0.446   7.191   7.101  0.4200  0.2504  0.0641
  955MOL0     C25974  -0.352   7.214   7.201  0.3668  0.5638  0.0827
  955MOL0     O25975  -0.078   6.942   7.372  0.3669  0.3304  0.0589
  955MOL0     C25976   0.029   7.265   7.486 -0.2031 -0.4571  0.1705
  955MOL0     C25977   0.127   7.329   7.559 -0.3619  0.3817  0.2133
  955MOL0     N25978   0.593   7.809   7.815  0.4849 -0.2066  0.5620
  955MOL0     N25979   0.689   7.883   7.786  0.6505 -0.1852 -0.4339
  955MOL0     C25980   1.913   8.005   7.930  0.4975  0.0960 -0.3902
  955MOL0     C25981   2.026   7.930   7.957  0.3538 -1.0862  0.8236
  955MOL0     C25982   2.356   7.697   8.128 -0.0761  0.1956  0.3146
  955MOL0     C25983   2.350   7.554   8.117  0.1204 -0.2531  0.3076
  955MOL0     C25984   2.466   7.473   8.130  0.4112 -0.7220  0.9499
  955MOL0     C25985   2.591   7.531   8.148 -0.4119 -0.3903 -0.4137
  955MOL0     O25986   2.690   7.434   8.160  0.0951 -0.6801 -0.0055
  955MOL0     C25987   2.827   7.474   8.189  0.4293  0.1360  0.0638
  955MOL0     C25988   2.900   7.492   8.058 -0.3076 -0.6165 -0.5554
  955MOL0     C25989   3.021   7.592   8.082  0.7256 -0.2035  0.2704
  955MOL0     C25990   3.143   7.502   8.107 -0.6431 -0.3611  0.1731
  955MOL0     C25991   3.268   7.577   8.117 -0.7127 -0.3129  0.6027
  955MOL0     C25992   3.381   7.634   8.128  0.5202 -0.5226 -0.3229
  955MOL0     C25993   2.594   7.665   8.149 -0.9200  0.0490  0.1602
  955MOL0     C25994   2.487   7.749   8.131 -0.3290  0.2638 -0.3919
  955MOL0     H25995   2.186   8.113   8.194 -0.2187 -3.4124  2.2689
  955MOL0     H25996   1.971   8.252   8.148  0.5595 -0.9362  0.3625
  955MOL0     H25997   1.636   8.148   8.131 -2.9281  1.0558  0.1102
  955MOL0     H25998   1.665   8.023   8.011  1.3598 -0.3177  0.7904
  955MOL0     H25999   1.548   8.144   7.844 -1.8463 -0.0923  0.5478
  955MOL0     H26000   1.537   8.297   7.919  0.2597  0.2853 -2.3535
  955MOL0     H26001   1.383   8.210   8.094  0.9153  0.2676  0.3856
  955MOL0     H26002   1.415   8.046   8.022  2.2266  0.7970  0.9995
  955MOL0     H26003   1.272   8.295   7.918  1.3582  0.2886 -1.9047
  955MOL0     H26004   1.296   8.147   7.815 -3.3000 -0.3140 -0.3971
  955MOL0     H26005   1.144   8.116   8.084  0.8940 -0.3663  1.5328
  955MOL0     H26006   1.179   8.009   7.952 -0.5356 -0.7912  2.1008
  955MOL0     H26007   1.046   8.156   7.797 -0.4420 -3.0603 -0.6936
  955MOL0     H26008   1.012   8.250   7.928  3.0997  0.2213 -0.0652
  955MOL0     H26009   0.907   8.025   8.042 -0.3163  1.8968 -0.3400
  955MOL0     H26010   0.823   8.099   7.904  0.5559  1.0511 -2.9068
  955MOL0     H26011   1.007   7.862   7.872 -1.2898 -0.8708 -1.3509
  955MOL0     H26012   0.929   7.953   7.741  1.0244 -2.1134 -1.1511
  955MOL0     H26013   0.823   7.680   7.995 -1.2018 -1.8811 -0.5113
  955MOL0     H26014   0.508   7.638   8.070  3.1281 -2.3955  2.1167
  955MOL0     H26015   0.604   7.518   7.996 -2.8746 -1.1093  3.3286
  955MOL0     H26016   0.367   7.631   7.859  0.0538  1.2843  0.9927
  955MOL0     H26017   0.365   7.475   7.932  2.0741 -0.2995  1.4973
  955MOL0     H26018   0.570   7.542   7.705 -2.5638  3.5922 -0.0940
  955MOL0     H26019   0.534   7.389   7.791  2.9962  0.9984 -1.1992
  955MOL0     H26020   0.436   7.443   7.565  0.0689 -0.9074 -1.0419
  955MOL0     H26021   0.297   7.521   7.664 -0.9910 -1.3304  1.1977
  955MOL0     H26022   0.315   7.066   7.662  1.2930  2.0614 -0.8812
  955MOL0     H26023   0.140   6.950   7.534  1.6145 -0.0443  1.1784
  955MOL0     H26024  -0.262   6.877   7.217  0.1618  0.2311 -1.1766
  955MOL0     H26025  -0.429   6.856   7.062  1.6938 -1.1310  0.2121
  955MOL0     H26026  -0.505   7.013   6.794 -2.3198 -3.0394 -0.2180
  955MOL0     H26027  -0.574   7.181   6.823 -2.3914  1.0260  2.4668
  955MOL0     H26028  -0.694   6.937   6.704 -1.5027  0.7598 -1.9388
  955MOL0     H26029  -0.715   7.097   6.672  0.0716  0.5974  0.8197
  955MOL0     H26030  -0.831   7.122   6.904 -2.4524  1.8471 -1.6149
  955MOL0     H26031  -0.828   6.948   6.910  2.5209  1.5774  0.5466
  955MOL0     H26032  -0.983   7.113   6.703  1.1122 -0.5653 -0.7549
  955MOL0     H26033  -0.989   6.935   6.725  1.2382  0.0952 -0.1619
  955MOL0     H26034  -1.069   7.149   6.931 -0.0650 -0.4195 -0.8117
  955MOL0     H26035  -1.048   6.975   6.967 -0.6113  1.1517  1.2985
  955MOL0     H26036  -1.215   6.936   6.767  1.2341 -0.7572  2.0482
  955MOL0     H26037  -1.215   7.108   6.750 -1.9575 -1.8493 -0.8482
  955MOL0     H26038  -1.306   6.932   6.980  1.9770  0.7029  0.6819
  955MOL0     H26039  -1.333   7.112   6.979 -3.1502  1.7047 -2.8616
  955MOL0     H26040  -1.470   6.903   6.796 -0.3069 -1.2003  1.5790
  955MOL0     H26041  -1.475   7.080   6.774 -2.1534  2.3116  2.8759
  955MOL0     H26042  -0.508   7.271   7.064 -1.9806 -0.1337  2.9152
  955MOL0     H26043  -0.345   7.311   7.249 -0.4675  0.6818 -0.0135
  955MOL0     H26044  -0.042   7.327   7.432  0.2085  0.2829  0.4768
  955MOL0     H26045   0.133   7.438   7.566  2.0040  0.2670  0.8235
  955MOL0     H26046   1.846   7.951   7.864  1.2381  0.6412 -1.6202
  955MOL0     H26047   2.032   7.838   7.901  0.2846  0.0583 -1.1702
  955MOL0     H26048   2.253   7.510   8.099 -1.7757  3.7961 -0.6101
  955MOL0     H26049   2.454   7.365   8.121 -3.0071 -0.2861 -2.6175
  955MOL0     H26050   2.876   7.398   8.251  1.4797  0.4523 -0.3473
  955MOL0     H26051   2.836   7.568   8.244  1.6948  0.1924 -0.1950
  955MOL0     H26052   2.926   7.390   8.030  0.0819 -1.5588  2.7998
  955MOL0     H26053   2.825   7.537   7.992  0.8976  0.2503 -1.3909
  955MOL0     H26054   3.001   7.665   8.162 -0.2723  1.5485 -1.4872
  955MOL0     H26055   3.040   7.663   8.001  1.3162 -0.9869 -0.2838
  955MOL0     H26056   3.121   7.454   8.202 -0.9626  1.4631  1.0770
  955MOL0     H26057   3.152   7.432   8.023  2.3010 -1.5533  1.3760
  955MOL0     H26058   3.482   7.659   8.151  1.0601 -0.0834 -2.8756
  955MOL0     H26059   2.694   7.706   8.150 -0.8083  0.2602 -3.8129
  955MOL0     H26060   2.502   7.854   8.108  1.2474  0.4114  1.0647
  956MOL0     O26061   4.578   6.882   3.988 -0.9574 -0.1836  0.1646
  956MOL0     C26062   4.628   6.887   4.102 -0.2476  0.8948  0.1321
  956MOL0     O26063   4.554   6.877   4.213  0.6181  0.3254  0.1966
  956MOL0     C26064   4.419   6.850   4.194 -0.0378  0.1771 -0.5905
  956MOL0     C26065   4.324   6.939   4.136 -0.1224  0.5847 -0.5942
  956MOL0     C26066   4.195   6.897   4.119 -0.1031 -0.2319  0.3773
  956MOL0     C26067   4.156   6.768   4.139 -0.5630 -0.6920 -0.5553
  956MOL0     O26068   4.039   6.740   4.078 -0.2177  0.4564 -0.5453
  956MOL0     C26069   3.981   6.610   4.104 -0.0158  0.0839  0.1948
  956MOL0     C26070   3.847   6.601   4.024  0.3064 -0.2738  0.2571
  956MOL0     C26071   3.731   6.707   4.059 -0.1845 -0.2976  0.0711
  956MOL0     C26072   3.616   6.693   3.968  1.0207 -0.3200  0.0796
  956MOL0     C26073   3.501   6.793   3.988 -0.6074  0.4353  0.2560
  956MOL0     C26074   3.394   6.769   3.887  0.5250 -0.1334  0.2493
  956MOL0     C26075   3.251   6.805   3.934  0.4834 -0.2171 -0.9255
  956MOL0     C26076   3.261   6.946   4.000 -0.4845  0.3306 -0.3234
  956MOL0     N26077   3.127   6.996   4.032  0.8324  0.4651  0.1013
  956MOL0     C26078   3.035   7.019   3.935 -0.1047  0.3423  0.0326
  956MOL0     C26079   2.914   6.998   3.994  0.0670  0.8892 -0.1073
  956MOL0     C26080   2.774   7.016   3.952  0.6229  0.0951 -0.0820
  956MOL0     C26081   2.713   7.133   4.029  0.4869 -1.0477 -0.3456
  956MOL0     C26082   2.572   7.158   3.982 -0.5795  0.0998 -0.3348
  956MOL0     C26083   2.504   7.284   4.029 -0.0957 -0.3967 -0.2532
  956MOL0     O26084   2.367   7.287   4.064  0.4609 -0.1895  0.2360
  956MOL0     C26085   2.287   7.231   3.965  0.6429 -0.4113  0.1590
  956MOL0     C26086   2.209   7.116   3.991  0.3751 -0.0195 -0.2998
  956MOL0     C26087   2.123   7.073   3.890 -0.8044  0.5991  0.9813
  956MOL0     C26088   2.113   7.134   3.761 -0.0661 -0.3350 -0.0975
  956MOL0     C26089   2.029   7.077   3.658  0.1538 -0.0785  0.2354
  956MOL0     O26090   1.986   6.948   3.679 -0.2499 -0.1543 -0.4975
  956MOL0     C26091   1.926   6.862   3.593  0.8982  0.0024  0.4584
  956MOL0     C26092   1.927   6.881   3.453 -0.0447  0.7395  0.2865
  956MOL0     C26093   1.882   6.786   3.364 -0.0544  0.0125 -0.6764
  956MOL0     C26094   1.839   6.662   3.423  0.1364  0.1338  0.4961
  956MOL0     O26095   1.802   6.559   3.349 -0.2854  0.9560  0.0542
  956MOL0     C26096   1.712   6.615   3.245  0.2189  0.1584 -0.4712
  956MOL0     C26097   1.613   6.501   3.195 -0.0043 -0.3578  0.0229
  956MOL0     C26098   1.544   6.442   3.319 -0.7603 -0.1671 -0.0380
  956MOL0     C26099   1.506   6.299   3.302  0.6200  0.5957  0.2131
  956MOL0     C26100   1.362   6.284   3.236  0.6345  0.5910  0.4639
  956MOL0     C26101   1.328   6.139   3.198 -0.5542  0.5290 -0.9963
  956MOL0     C26102   1.190   6.137   3.140 -0.2377  0.2903 -0.1706
  956MOL0     C26103   1.122   5.998   3.139 -0.0538  0.6845 -0.7779
  956MOL0    Cl26104   0.943   6.025   3.133  0.1367  0.4510  0.0653
  956MOL0     C26105   1.824   6.652   3.561  0.1681  0.5652 -0.8737
  956MOL0     C26106   1.868   6.751   3.647  0.0080  0.9429 -0.5330
  956MOL0     O26107   1.989   7.150   3.567  0.0267 -0.2302 -1.3771
  956MOL0     C26108   2.193   7.249   3.740  0.0233  0.0971 -0.2775
  956MOL0     C26109   2.274   7.299   3.841  0.0447 -0.2994  0.1772
  956MOL0     N26110   2.931   6.980   4.133  0.1804  0.9043 -0.2633
  956MOL0     N26111   3.065   6.978   4.154  0.4255  0.2810 -0.2950
  956MOL0     C26112   4.246   6.681   4.204 -0.5975 -0.0628  1.3186
  956MOL0     C26113   4.380   6.726   4.228  0.4167 -0.0625  0.6697
  956MOL0     C26114   4.773   6.905   4.119  0.9594  0.1255  0.1216
  956MOL0     C26115   4.861   6.896   4.008  0.3224  0.0213 -0.4117
  956MOL0     C26116   4.999   6.909   4.022 -0.3790 -0.2972 -0.1501
  956MOL0     C26117   5.060   6.914   4.152 -0.7210 -0.1616  1.2465
  956MOL0     O26118   5.191   6.895   4.154 -0.4674  0.0634 -0.4499
  956MOL0     C26119   5.250   6.848   4.272 -0.0932 -0.2651 -0.5858
  956MOL0     C26120   5.396   6.802   4.232  0.3931  0.0352 -0.2435
  956MOL0     C26121   5.468   6.759   4.359 -0.2945 -0.6609 -0.3557
  956MOL0     C26122   5.603   6.687   4.321  0.2490 -0.9276 -0.2618
  956MOL0     C26123   5.692   6.783   4.269 -0.7284 -0.0201 -0.1878
  956MOL0     C26124   5.777   6.861   4.239  0.2115  0.4203  0.2004
  956MOL0     C26125   4.973   6.931   4.260 -0.4430  0.3982  0.7004
  956MOL0     C26126   4.835   6.940   4.247  0.1911 -0.2980  0.3188
  956MOL0     H26127   4.347   7.042   4.108  2.4753  0.4682  0.8204
  956MOL0     H26128   4.128   6.961   4.063 -0.4874  0.5162  1.6554
  956MOL0     H26129   3.956   6.612   4.210  0.9470  0.2035  0.4278
  956MOL0     H26130   4.048   6.526   4.084  3.0091  1.9908  1.5574
  956MOL0     H26131   3.804   6.503   4.047 -1.7767  0.7092  0.8320
  956MOL0     H26132   3.871   6.607   3.917  3.6516  1.3404  0.9957
  956MOL0     H26133   3.768   6.809   4.049  1.0696 -0.8273 -1.1257
  956MOL0     H26134   3.700   6.701   4.164  1.7882  0.1721  0.7203
  956MOL0     H26135   3.644   6.709   3.863  1.4965  1.7995  0.4890
  956MOL0     H26136   3.569   6.594   3.967  0.2750 -0.0008 -1.6187
  956MOL0     H26137   3.539   6.896   3.982  1.3156 -0.3262 -2.1845
  956MOL0     H26138   3.473   6.780   4.092  1.4762 -0.4867  0.7449
  956MOL0     H26139   3.385   6.663   3.862 -2.4944 -0.0985  0.8200
  956MOL0     H26140   3.421   6.825   3.797 -0.6854 -0.7846 -0.5517
  956MOL0     H26141   3.184   6.796   3.848  0.3544  1.2793 -1.0010
  956MOL0     H26142   3.218   6.723   3.997  0.0609 -0.4612 -1.4602
  956MOL0     H26143   3.307   7.018   3.932 -1.6152 -0.4328 -1.9281
  956MOL0     H26144   3.317   6.943   4.094 -1.2411  4.7855  0.5036
  956MOL0     H26145   3.046   7.032   3.828 -1.7607 -1.7521 -0.4479
  956MOL0     H26146   2.710   6.930   3.976 -0.0418 -0.2083 -2.5768
  956MOL0     H26147   2.749   7.024   3.846 -0.8113 -1.6962  0.0566
  956MOL0     H26148   2.769   7.227   4.035 -1.8972  0.3559  1.8143
  956MOL0     H26149   2.698   7.094   4.130  1.8390 -1.0522 -0.1274
  956MOL0     H26150   2.575   7.166   3.872 -1.1509  2.1860 -0.2543
  956MOL0     H26151   2.513   7.070   4.008 -0.9485  0.6762  0.8351
  956MOL0     H26152   2.517   7.361   3.952  1.4340 -0.9955 -0.6287
  956MOL0     H26153   2.565   7.315   4.115  0.2252  1.0758 -0.9736
  956MOL0     H26154   2.223   7.062   4.084  2.3414 -2.5592 -1.9392
  956MOL0     H26155   2.069   6.983   3.918  1.0834 -1.3485 -1.1660
  956MOL0     H26156   1.980   6.968   3.416  0.0803  0.9294  0.9072
  956MOL0     H26157   1.891   6.806   3.258  1.5467  0.7126 -0.4281
  956MOL0     H26158   1.772   6.633   3.155 -0.4459 -1.3073 -1.2456
  956MOL0     H26159   1.662   6.703   3.287  0.5532  0.1715 -0.1015
  956MOL0     H26160   1.662   6.416   3.146  0.7767 -0.9013  1.6664
  956MOL0     H26161   1.544   6.553   3.128  2.6631  0.2663 -2.4286
  956MOL0     H26162   1.455   6.502   3.341 -0.4524  0.4260 -0.3839
  956MOL0     H26163   1.599   6.453   3.413 -3.2339  0.0140  1.4982
  956MOL0     H26164   1.582   6.242   3.248  1.4580  0.2493  1.7032
  956MOL0     H26165   1.505   6.250   3.400 -1.9305 -1.5591 -0.7607
  956MOL0     H26166   1.346   6.348   3.149  2.3400  1.7878  0.9667
  956MOL0     H26167   1.288   6.325   3.306 -2.6675 -4.4725  0.4547
  956MOL0     H26168   1.340   6.069   3.281 -1.5122 -1.4026 -2.3977
  956MOL0     H26169   1.386   6.106   3.111 -1.7061 -0.0310 -1.5776
  956MOL0     H26170   1.128   6.198   3.206  1.0159 -2.7002  4.2103
  956MOL0     H26171   1.184   6.164   3.034 -0.8357 -2.3880 -0.9054
  956MOL0     H26172   1.155   5.931   3.219 -2.4879 -0.3568 -0.5825
  956MOL0     H26173   1.155   5.944   3.049  0.9287  1.5350 -0.9547
  956MOL0     H26174   1.781   6.558   3.594  0.3195  0.1601 -1.7939
  956MOL0     H26175   1.859   6.760   3.755 -2.9952  0.8905 -0.6896
  956MOL0     H26176   2.188   7.299   3.644  1.0930  2.6135  0.8798
  956MOL0     H26177   2.333   7.387   3.819  0.0154 -0.0616  0.9948
  956MOL0     H26178   4.215   6.577   4.199 -0.3671 -0.0783 -0.5253
  956MOL0     H26179   4.447   6.650   4.267  1.7377  0.4040 -0.6084
  956MOL0     H26180   4.822   6.876   3.908 -0.7303 -0.5990  0.1086
  956MOL0     H26181   5.071   6.892   3.943  1.4000 -0.7399  1.4899
  956MOL0     H26182   5.198   6.764   4.320 -0.4947  0.7982  0.8919
  956MOL0     H26183   5.266   6.927   4.346  0.4065 -2.2690  1.5591
  956MOL0     H26184   5.377   6.712   4.173 -1.4039  0.8958 -1.0475
  956MOL0     H26185   5.447   6.878   4.173  0.1889  0.3418 -0.0340
  956MOL0     H26186   5.409   6.685   4.414 -0.2654  0.4009  1.1714
  956MOL0     H26187   5.476   6.855   4.410  2.2137  0.5721 -2.7802
  956MOL0     H26188   5.654   6.645   4.409  0.7175 -2.5614 -1.2826
  956MOL0     H26189   5.580   6.609   4.249 -0.5623  0.7007 -1.8416
  956MOL0     H26190   5.848   6.940   4.227  0.7237 -0.2802 -1.7048
  956MOL0     H26191   5.020   6.938   4.357 -0.7553  1.8959  0.7636
  956MOL0     H26192   4.777   6.952   4.337 -0.1420  3.8624 -0.2743
  957MOL0     O26193   3.686   5.690   7.191 -0.3457 -0.2254 -0.3482
  957MOL0     C26194   3.723   5.574   7.189  0.1613 -0.1667 -0.8127
  957MOL0     O26195   3.632   5.466   7.185 -0.0670 -0.4855  0.2881
  957MOL0     C26196   3.491   5.486   7.193  0.0031  0.5224 -0.1303
  957MOL0     C26197   3.440   5.573   7.292  0.5660  0.5573 -0.4841
  957MOL0     C26198   3.299   5.591   7.296  0.0971  0.7046 -0.2485
  957MOL0     C26199   3.216   5.517   7.214  0.6035 -0.0217  0.0055
  957MOL0     O26200   3.077   5.517   7.207  0.1259 -0.1162 -0.5433
  957MOL0     C26201   3.003   5.614   7.285 -0.6255  0.5791  0.6753
  957MOL0     C26202   2.857   5.634   7.261  0.3570  0.8346 -0.5943
  957MOL0     C26203   2.773   5.645   7.390  0.1819 -0.6183  0.1455
  957MOL0     C26204   2.626   5.652   7.359  0.0929  0.2539 -0.4297
  957MOL0     C26205   2.545   5.692   7.491 -0.1091  0.3475 -0.3609
  957MOL0     C26206   2.399   5.701   7.479  0.1406 -1.1386 -0.6790
  957MOL0     C26207   2.347   5.770   7.613 -0.3630 -0.9267  1.1050
  957MOL0     C26208   2.188   5.753   7.612 -0.5464  0.3917  0.0304
  957MOL0     N26209   2.121   5.843   7.519 -0.5637  0.5297 -0.1583
  957MOL0     C26210   2.019   5.796   7.438 -0.2408  0.4409  0.0497
  957MOL0     C26211   1.982   5.904   7.374  0.1916 -0.3770  1.0086
  957MOL0     C26212   1.878   5.906   7.258 -0.3068 -0.2085  0.3076
  957MOL0     C26213   1.774   5.796   7.264 -0.2839  0.4518  0.2143
  957MOL0     C26214   1.649   5.840   7.180  0.1159  0.2461  0.3994
  957MOL0     C26215   1.543   5.717   7.168  0.6348 -0.8733 -0.4579
  957MOL0     O26216   1.416   5.745   7.109  0.3075  0.0626  0.4522
  957MOL0     C26217   1.325   5.646   7.084 -1.0090  0.4812 -0.2605
  957MOL0     C26218   1.224   5.672   6.993 -1.1532 -0.2033  1.3717
  957MOL0     C26219   1.145   5.581   6.940 -0.6869  0.6227  0.3572
  957MOL0     C26220   1.153   5.445   6.992  0.3572 -0.7634 -0.1447
  957MOL0     C26221   1.038   5.351   6.960  0.9895 -0.5723  0.4526
  957MOL0     O26222   0.948   5.399   6.875 -0.5800 -0.7779  0.2600
  957MOL0     C26223   0.832   5.339   6.840  0.5721  0.5428  0.0668
  957MOL0     C26224   0.825   5.203   6.809  0.2844 -0.0138  0.9588
  957MOL0     C26225   0.701   5.148   6.777 -0.2533  0.1942 -0.4477
  957MOL0     C26226   0.585   5.229   6.781 -0.0541 -0.3678  0.1768
  957MOL0     O26227   0.466   5.171   6.769 -0.1550  0.2832 -0.3024
  957MOL0     C26228   0.441   5.073   6.664  0.5508 -0.0932 -0.4536
  957MOL0     C26229   0.291   5.043   6.688  0.2442 -0.3320  0.4297
  957MOL0     C26230   0.231   4.955   6.578 -0.5660 -0.4961  0.2296
  957MOL0     C26231   0.080   4.950   6.604 -0.5330  0.1691  0.2451
  957MOL0     C26232   0.010   4.870   6.483 -0.5603 -0.7594 -0.8620
  957MOL0     C26233  -0.099   4.940   6.414 -0.3794 -1.3601  0.2884
  957MOL0     C26234  -0.221   4.958   6.499  0.2425  0.6296 -0.4929
  957MOL0     C26235  -0.333   5.044   6.444 -0.5602 -0.1890  0.4514
  957MOL0    Cl26236  -0.399   4.989   6.290  0.5587  0.3798 -0.0880
  957MOL0     C26237   0.597   5.365   6.805 -0.1019 -0.3811  0.0340
  957MOL0     C26238   0.719   5.424   6.834 -0.1934  0.5132 -0.5502
  957MOL0     O26239   1.035   5.240   7.011  0.2871  0.0948 -0.1079
  957MOL0     C26240   1.255   5.415   7.088  0.3912  0.2339 -1.5874
  957MOL0     C26241   1.336   5.516   7.139 -0.7113  0.1560  0.3328
  957MOL0     N26242   2.050   6.012   7.430  0.1467  0.6893 -0.7783
  957MOL0     N26243   2.138   5.974   7.511  0.1933 -0.0915  0.2995
  957MOL0     C26244   3.272   5.438   7.110  0.4886 -0.8789 -0.4974
  957MOL0     C26245   3.407   5.423   7.106 -1.0884  0.4397  0.6062
  957MOL0     C26246   3.870   5.543   7.210 -0.2828 -0.6979  0.0252
  957MOL0     C26247   3.963   5.650   7.220  0.0696  0.6071  0.1262
  957MOL0     C26248   4.099   5.618   7.221  0.5711 -0.4645  0.4289
  957MOL0     C26249   4.151   5.492   7.214 -0.5157  0.4288 -0.5364
  957MOL0     O26250   4.287   5.474   7.229 -0.1823 -0.1214 -0.4209
  957MOL0     C26251   4.345   5.356   7.182 -0.6278  0.4389 -0.1241
  957MOL0     C26252   4.495   5.361   7.202 -0.7202  0.3697  0.3320
  957MOL0     C26253   4.562   5.481   7.148 -0.1804 -0.5512 -0.2710
  957MOL0     C26254   4.713   5.472   7.179 -0.2160 -0.4334 -0.1474
  957MOL0     C26255   4.772   5.599   7.133  0.0215 -0.4239  0.5151
  957MOL0     C26256   4.817   5.710   7.111  0.3730 -0.1230 -0.9213
  957MOL0     C26257   4.062   5.381   7.213  0.2676 -0.0032  0.1852
  957MOL0     C26258   3.925   5.413   7.198  0.2000 -0.8987  0.5045
  957MOL0     H26259   3.488   5.632   7.370  0.9165 -0.5395  0.1540
  957MOL0     H26260   3.259   5.651   7.377 -0.7795  0.2882 -0.3625
  957MOL0     H26261   3.047   5.712   7.261 -2.0134  1.3648  1.2067
  957MOL0     H26262   3.030   5.585   7.387  0.3185 -1.4213 -0.0865
  957MOL0     H26263   2.835   5.553   7.192  0.6307 -2.2532  2.6174
  957MOL0     H26264   2.847   5.728   7.206  0.2482  1.2933  0.1833
  957MOL0     H26265   2.811   5.729   7.450  1.7284 -0.4486 -1.0097
  957MOL0     H26266   2.790   5.551   7.443  2.1244  0.6677  2.0021
  957MOL0     H26267   2.610   5.738   7.293 -0.1124  2.7185  2.6022
  957MOL0     H26268   2.583   5.562   7.314  0.0978 -0.4340  0.9069
  957MOL0     H26269   2.591   5.791   7.505 -0.9380  0.6846  0.0547
  957MOL0     H26270   2.569   5.624   7.573  1.0678  0.4517 -0.5885
  957MOL0     H26271   2.365   5.597   7.480 -0.7502 -0.9657  3.6109
  957MOL0     H26272   2.356   5.752   7.392  0.6472  0.5015 -0.0115
  957MOL0     H26273   2.405   5.722   7.693 -2.2386 -0.4089  2.8766
  957MOL0     H26274   2.369   5.876   7.625 -2.4183  0.0668 -2.5676
  957MOL0     H26275   2.157   5.781   7.713  3.2091 -0.4869  1.6063
  957MOL0     H26276   2.156   5.649   7.611 -0.6979  0.4268  0.5841
  957MOL0     H26277   1.977   5.701   7.407  3.1494 -1.0404 -0.4366
  957MOL0     H26278   1.919   5.916   7.156 -1.5891 -1.0289 -0.3071
  957MOL0     H26279   1.832   6.005   7.264 -1.6128 -0.6194 -1.8776
  957MOL0     H26280   1.745   5.779   7.369  0.9312 -0.1928  0.4596
  957MOL0     H26281   1.814   5.702   7.226  0.3985  0.6636  0.3974
  957MOL0     H26282   1.595   5.923   7.226 -0.0896  1.6048 -2.1408
  957MOL0     H26283   1.674   5.874   7.079  0.8339  1.8898  1.0993
  957MOL0     H26284   1.528   5.671   7.266 -5.1111 -2.6549 -1.7633
  957MOL0     H26285   1.593   5.642   7.107  1.7929  0.2251 -0.9102
  957MOL0     H26286   1.219   5.773   6.953 -2.0658 -0.3090  1.2119
  957MOL0     H26287   1.072   5.622   6.870 -0.9020  0.1712  0.3109
  957MOL0     H26288   0.914   5.141   6.801  0.1186 -0.0537 -1.4747
  957MOL0     H26289   0.690   5.047   6.738  0.4824  0.9816 -2.8980
  957MOL0     H26290   0.489   4.977   6.685 -2.8956 -1.5709  1.7082
  957MOL0     H26291   0.473   5.114   6.568 -0.6356  1.4969 -0.2139
  957MOL0     H26292   0.235   5.137   6.684 -0.8201 -0.9337  0.6548
  957MOL0     H26293   0.276   4.993   6.784  2.4442  2.6157  2.5260
  957MOL0     H26294   0.280   4.857   6.572 -0.1645 -0.3262  0.7368
  957MOL0     H26295   0.256   5.010   6.487  3.1681 -1.0217  0.8129
  957MOL0     H26296   0.053   4.915   6.705 -0.9100  1.6449  0.6803
  957MOL0     H26297   0.039   5.051   6.598  1.2555  0.9079 -0.1660
  957MOL0     H26298  -0.032   4.775   6.516 -1.7561 -0.4057 -1.2952
  957MOL0     H26299   0.088   4.841   6.412  0.2160  1.0828 -0.8139
  957MOL0     H26300  -0.133   4.887   6.325 -3.7212  0.5916  0.2413
  957MOL0     H26301  -0.053   5.035   6.381 -0.8352 -1.1465  0.2635
  957MOL0     H26302  -0.256   4.857   6.522  0.0769  1.0105  1.0139
  957MOL0     H26303  -0.194   4.995   6.598  0.2905  1.2678 -0.7411
  957MOL0     H26304  -0.303   5.150   6.445 -0.4327 -0.2208  1.2397
  957MOL0     H26305  -0.416   5.038   6.515 -0.6400  3.9816  0.9926
  957MOL0     H26306   0.517   5.437   6.818  1.8533  2.4127 -2.0370
  957MOL0     H26307   0.723   5.526   6.870 -2.0852 -0.2999  2.2653
  957MOL0     H26308   1.264   5.312   7.120  0.0838  1.3723  2.8901
  957MOL0     H26309   1.421   5.497   7.204  1.2655  1.6420 -1.6691
  957MOL0     H26310   3.208   5.379   7.045  0.8155  0.9839 -2.6137
  957MOL0     H26311   3.447   5.355   7.031 -0.2096 -0.9987  2.3012
  957MOL0     H26312   3.936   5.754   7.238  3.2622  1.8159 -1.2845
  957MOL0     H26313   4.177   5.694   7.217  0.9449 -0.8860 -1.4316
  957MOL0     H26314   4.319   5.330   7.079 -1.4610 -2.0012  0.6460
  957MOL0     H26315   4.293   5.277   7.236 -2.7218 -0.3697 -3.1106
  957MOL0     H26316   4.533   5.344   7.303  1.3916 -0.8577 -0.6191
  957MOL0     H26317   4.544   5.274   7.158  0.2788  1.3603 -0.5722
  957MOL0     H26318   4.532   5.571   7.202  2.7519 -1.3950  3.2069
  957MOL0     H26319   4.542   5.493   7.042 -0.2835  3.9270  0.0820
  957MOL0     H26320   4.737   5.454   7.284  2.7926 -1.5777 -0.9361
  957MOL0     H26321   4.760   5.393   7.119 -1.9801 -2.7606  1.3284
  957MOL0     H26322   4.857   5.806   7.087  1.6913 -0.3498  0.2291
  957MOL0     H26323   4.081   5.275   7.223  2.4107  0.0208 -2.4030
  957MOL0     H26324   3.869   5.323   7.173 -0.4749 -0.4624  0.4121
  958MOL0     O26325   7.980   4.971   4.822  0.6328  0.3241  0.0110
  958MOL0     C26326   8.005   5.078   4.765 -0.0122 -0.0200  0.3197
  958MOL0     O26327   8.125   5.143   4.763 -0.0333 -0.4806  0.2238
  958MOL0     C26328   8.241   5.078   4.789 -0.3584  0.2451  0.3296
  958MOL0     C26329   8.352   5.150   4.845 -0.0754  0.3370  0.3494
  958MOL0     C26330   8.465   5.088   4.876 -1.4224 -0.6235  0.0601
  958MOL0     C26331   8.489   4.951   4.843  0.0654  0.4124 -0.0754
  958MOL0     O26332   8.609   4.895   4.880  0.3902  0.5098  0.4270
  958MOL0     C26333   8.626   4.756   4.867 -0.8514 -0.7693 -0.1530
  958MOL0     C26334   8.769   4.721   4.917  0.1045  0.5439  0.5174
  958MOL0     C26335   8.881   4.771   4.816 -0.2306 -0.9956 -0.1458
  958MOL0     C26336   9.016   4.704   4.843  0.4093 -1.0501 -0.3455
  958MOL0     C26337   9.095   4.700   4.715  0.2623  0.6277 -0.8419
  958MOL0     C26338   9.254   4.682   4.744  1.1299  0.0458 -0.3180
  958MOL0     C26339   9.326   4.688   4.610 -0.4675  0.0408 -0.1638
  958MOL0     C26340   9.475   4.673   4.631 -0.0254 -0.1024  0.4035
  958MOL0     N26341   9.557   4.706   4.517  0.4795 -0.5279  0.3737
  958MOL0     C26342   9.619   4.613   4.433 -0.1401  0.6025 -0.8792
  958MOL0     C26343   9.681   4.678   4.336  0.0612 -0.1842 -0.1023
  958MOL0     C26344   9.755   4.606   4.231 -0.0771 -0.8186 -0.6939
  958MOL0     C26345   9.708   4.635   4.095 -0.4922 -0.3586  0.3661
  958MOL0     C26346   9.600   4.548   4.040 -0.3846  1.1177  0.4046
  958MOL0     C26347   9.470   4.553   4.122  0.1890  0.1194  0.2298
  958MOL0     O26348   9.473   4.445   4.214 -0.0422 -0.5779 -0.3184
  958MOL0     C26349   9.359   4.413   4.279  0.0432 -0.0283  0.1195
  958MOL0     C26350   9.246   4.499   4.298 -0.0438  1.8446  0.4900
  958MOL0     C26351   9.145   4.450   4.368  0.4389  0.6428  0.2681
  958MOL0     C26352   9.152   4.324   4.439 -0.4749  0.2235 -0.1512
  958MOL0     C26353   9.028   4.277   4.519 -0.0356  0.0007 -0.7657
  958MOL0     O26354   8.910   4.343   4.487  0.5985  0.2014 -0.8154
  958MOL0     C26355   8.793   4.319   4.557 -0.6451 -0.6318  0.2434
  958MOL0     C26356   8.726   4.200   4.576 -0.3891  0.7504  0.5095
  958MOL0     C26357   8.614   4.184   4.655 -0.7676  0.5179 -0.1213
  958MOL0     C26358   8.560   4.295   4.725 -0.2861  0.3120  0.3797
  958MOL0     O26359   8.437   4.301   4.801  0.5737 -0.2057 -0.2069
  958MOL0     C26360   8.340   4.206   4.768  0.7613 -0.2516 -0.3253
  958MOL0     C26361   8.217   4.216   4.844  0.6930  0.2995 -0.6937
  958MOL0     C26362   8.112   4.122   4.785 -0.4092 -0.3345  0.4076
  958MOL0     C26363   7.982   4.136   4.876  0.1335 -0.4662 -0.0931
  958MOL0     C26364   7.869   4.073   4.793  0.1272 -0.3173 -0.7708
  958MOL0     C26365   7.745   4.079   4.874 -0.1323 -0.0486 -0.2199
  958MOL0     C26366   7.628   3.996   4.812  0.2243 -0.2740 -1.2065
  958MOL0     C26367   7.503   3.997   4.903  0.7396  1.6635  0.1431
  958MOL0    Cl26368   7.383   3.873   4.846  0.0691  0.0580 -0.3428
  958MOL0     C26369   8.623   4.420   4.701  0.4204 -0.4650 -0.0859
  958MOL0     C26370   8.743   4.435   4.629  0.2028  0.4518 -0.2963
  958MOL0     O26371   9.037   4.177   4.594 -0.1738 -0.2466 -0.0243
  958MOL0     C26372   9.261   4.239   4.417  0.0301 -0.7333  0.1996
  958MOL0     C26373   9.362   4.290   4.346  0.1553 -0.3007  0.2179
  958MOL0     N26374   9.653   4.815   4.364 -0.0083  0.1543 -0.6170
  958MOL0     N26375   9.590   4.828   4.474  0.1751  0.6732  0.9831
  958MOL0     C26376   8.393   4.888   4.765  0.2749 -0.3812  0.5590
  958MOL0     C26377   8.269   4.952   4.748  0.0493  0.3522  0.1832
  958MOL0     C26378   7.889   5.136   4.689 -0.5604 -0.6015  0.3158
  958MOL0     C26379   7.899   5.182   4.552 -0.5558  0.2903  0.4166
  958MOL0     C26380   7.791   5.226   4.483  0.1451  0.1060  0.7844
  958MOL0     C26381   7.662   5.238   4.546  0.5360  1.0781  0.0201
  958MOL0     O26382   7.555   5.297   4.475 -0.3186 -0.2766  0.2541
  958MOL0     C26383   7.448   5.352   4.548  0.7520  0.1651 -0.6110
  958MOL0     C26384   7.401   5.476   4.470 -0.0597 -0.3641  0.1060
  958MOL0     C26385   7.505   5.596   4.482  0.7719  0.1780  0.0749
  958MOL0     C26386   7.544   5.640   4.621 -0.3090 -0.3894  0.1605
  958MOL0     C26387   7.435   5.664   4.708 -0.5805  0.8059 -0.2588
  958MOL0     C26388   7.352   5.697   4.788 -0.2845 -1.1001 -0.7125
  958MOL0     C26389   7.651   5.189   4.676 -0.3721  0.7875  0.6711
  958MOL0     C26390   7.760   5.133   4.745  0.3639  0.1423 -0.0604
  958MOL0     H26391   8.329   5.253   4.871 -1.7162 -0.1443  0.9199
  958MOL0     H26392   8.537   5.149   4.929 -3.3703  2.2276 -0.3295
  958MOL0     H26393   8.631   4.729   4.761  0.3451 -0.5044 -0.1782
  958MOL0     H26394   8.563   4.705   4.941  1.4968  0.8159  3.2178
  958MOL0     H26395   8.774   4.613   4.929  1.7667  0.8616  3.9566
  958MOL0     H26396   8.792   4.752   5.020  2.5137  0.9739 -0.0774
  958MOL0     H26397   8.889   4.878   4.834  1.1658 -0.8984 -1.1392
  958MOL0     H26398   8.850   4.764   4.711 -0.9585  2.5486 -0.2837
  958MOL0     H26399   9.066   4.751   4.928 -0.8140 -0.1818 -0.0813
  958MOL0     H26400   9.009   4.604   4.886  0.2706 -0.1883  1.7909
  958MOL0     H26401   9.075   4.779   4.642 -0.9698  1.3199  0.1960
  958MOL0     H26402   9.065   4.607   4.666  0.7316 -2.2221  3.6559
  958MOL0     H26403   9.292   4.594   4.797  2.3555 -0.8591 -2.5282
  958MOL0     H26404   9.273   4.773   4.802 -0.0446  1.5325 -2.1325
  958MOL0     H26405   9.288   4.611   4.542 -0.9593  0.2606 -0.1419
  958MOL0     H26406   9.301   4.785   4.565 -1.2687 -1.1098 -2.3363
  958MOL0     H26407   9.488   4.566   4.650  1.9676 -0.3187 -1.7048
  958MOL0     H26408   9.516   4.728   4.715 -1.9231  0.7610  0.8228
  958MOL0     H26409   9.612   4.505   4.439  0.6947  0.5521 -0.6550
  958MOL0     H26410   9.761   4.500   4.260 -2.2807 -1.1522 -1.3294
  958MOL0     H26411   9.855   4.652   4.236 -0.8695  0.8488  1.0790
  958MOL0     H26412   9.795   4.629   4.029  0.0508  1.3304  0.8696
  958MOL0     H26413   9.681   4.741   4.095  0.6508 -0.0541  1.2420
  958MOL0     H26414   9.574   4.575   3.937  1.1133  2.6101  0.3754
  958MOL0     H26415   9.646   4.449   4.039  0.5971  1.5667 -0.3478
  958MOL0     H26416   9.385   4.535   4.057  1.5294 -4.2891 -0.7082
  958MOL0     H26417   9.463   4.651   4.170  2.7190  0.4558  0.0462
  958MOL0     H26418   9.232   4.591   4.242 -1.8230  1.9792  1.1130
  958MOL0     H26419   9.054   4.508   4.379  1.2511  2.4241 -1.8188
  958MOL0     H26420   8.767   4.112   4.527 -0.4513  0.3505  1.1605
  958MOL0     H26421   8.568   4.086   4.670 -1.3763  0.8281  0.0541
  958MOL0     H26422   8.390   4.110   4.782  2.4064  0.6058 -0.1825
  958MOL0     H26423   8.307   4.212   4.664  0.8367  0.1607 -0.3274
  958MOL0     H26424   8.183   4.318   4.863 -2.7263 -0.9274  0.3875
  958MOL0     H26425   8.225   4.162   4.939  0.1022  0.6080 -0.4653
  958MOL0     H26426   8.149   4.022   4.761 -1.0464 -0.2149 -1.1490
  958MOL0     H26427   8.089   4.164   4.687  4.3216  1.3997 -0.2302
  958MOL0     H26428   8.004   4.085   4.970 -0.6514 -1.7133 -0.5704
  958MOL0     H26429   7.957   4.241   4.893  1.3714 -0.2488  0.4662
  958MOL0     H26430   7.911   3.972   4.788  1.4780  0.2528 -1.3771
  958MOL0     H26431   7.854   4.121   4.696 -1.2557 -1.1877 -1.0144
  958MOL0     H26432   7.713   4.181   4.896 -2.5801 -1.1406  1.8405
  958MOL0     H26433   7.760   4.021   4.966 -1.9140 -0.7328 -0.3262
  958MOL0     H26434   7.601   4.029   4.711  2.8884 -0.8811 -2.1958
  958MOL0     H26435   7.673   3.898   4.800  1.7889  0.2710 -0.1025
  958MOL0     H26436   7.442   4.087   4.910  2.4705  2.7613  2.7915
  958MOL0     H26437   7.537   3.971   5.004 -0.3851  0.6328  0.2853
  958MOL0     H26438   8.580   4.509   4.746 -0.5432 -0.1615 -1.5338
  958MOL0     H26439   8.792   4.532   4.623 -0.4821  0.9517  1.4654
  958MOL0     H26440   9.265   4.142   4.466  1.4642 -0.6359  0.2963
  958MOL0     H26441   9.450   4.228   4.331  0.8408 -0.0291  2.6771
  958MOL0     H26442   8.412   4.788   4.730  2.8917 -0.0590  0.8903
  958MOL0     H26443   8.194   4.889   4.703  1.5316  0.4392 -2.5880
  958MOL0     H26444   7.997   5.178   4.506  1.4886  0.6064  4.3432
  958MOL0     H26445   7.796   5.265   4.382 -0.6054 -0.8009  0.3892
  958MOL0     H26446   7.492   5.378   4.645  0.8099  0.9315 -0.8332
  958MOL0     H26447   7.372   5.274   4.554  1.3104 -0.4601 -1.5200
  958MOL0     H26448   7.382   5.447   4.367 -2.1050 -0.4297  0.4718
  958MOL0     H26449   7.308   5.511   4.515 -1.0489  0.3819 -2.3632
  958MOL0     H26450   7.467   5.684   4.429  1.0920  0.4768  0.3417
  958MOL0     H26451   7.592   5.575   4.420  0.4101  3.0742 -1.5701
  958MOL0     H26452   7.601   5.559   4.667 -1.2310 -2.0943 -1.5988
  958MOL0     H26453   7.602   5.733   4.616  0.7406 -1.0840 -1.6073
  958MOL0     H26454   7.281   5.716   4.865 -0.0151  1.8569 -1.0522
  958MOL0     H26455   7.553   5.173   4.719  0.3049 -2.0603  1.3576
  958MOL0     H26456   7.738   5.093   4.843  2.0519 -1.6599 -0.3582
  959MOL0     O26457   4.946   9.238   4.476 -0.4757 -1.0779 -0.5566
  959MOL0     C26458   5.009   9.318   4.547 -0.0045  0.2602 -0.0504
  959MOL0     O26459   4.955   9.400   4.651 -0.5004  0.3876 -0.1310
  959MOL0     C26460   4.816   9.391   4.672  0.0170  0.4398  0.4770
  959MOL0     C26461   4.743   9.274   4.701  0.0787 -0.5422  0.0722
  959MOL0     C26462   4.604   9.276   4.716 -0.4560  0.1631  0.5983
  959MOL0     C26463   4.528   9.391   4.698 -0.3144 -0.6941  0.6139
  959MOL0     O26464   4.394   9.379   4.701 -0.0752 -0.3581  0.1218
  959MOL0     C26465   4.303   9.479   4.638 -0.3148 -0.0978 -0.4417
  959MOL0     C26466   4.152   9.448   4.645  0.1140 -0.7324 -0.6231
  959MOL0     C26467   4.122   9.301   4.659  0.2948  0.0830 -0.9900
  959MOL0     C26468   3.971   9.304   4.699 -0.2884  0.2553  0.0446
  959MOL0     C26469   3.871   9.236   4.593  0.2179  0.6125  0.7061
  959MOL0     C26470   3.726   9.283   4.605  0.8453  0.0878 -0.2964
  959MOL0     C26471   3.625   9.219   4.493  0.0853  0.1158  0.2339
  959MOL0     C26472   3.682   9.227   4.353  1.3600 -0.1020 -0.4045
  959MOL0     N26473   3.589   9.163   4.249 -0.8966 -1.3551  0.1649
  959MOL0     C26474   3.547   9.226   4.139  0.6566 -0.8086  1.4110
  959MOL0     C26475   3.472   9.136   4.069  0.3955 -0.2528 -0.3551
  959MOL0     C26476   3.395   9.171   3.947 -0.9459  0.6093  0.2650
  959MOL0     C26477   3.409   9.068   3.834 -0.1938 -0.7688 -0.6574
  959MOL0     C26478   3.357   9.124   3.699 -0.0279  0.2294  0.1404
  959MOL0     C26479   3.204   9.137   3.689 -0.0734 -0.4270 -0.9226
  959MOL0     O26480   3.144   9.006   3.711 -0.5592 -0.2248  0.2700
  959MOL0     C26481   3.011   9.008   3.751  0.3298  0.7672  0.0378
  959MOL0     C26482   2.909   9.062   3.674  0.2808 -0.8573  0.2096
  959MOL0     C26483   2.777   9.070   3.733  0.0412  0.0470 -0.4779
  959MOL0     C26484   2.749   9.036   3.871  0.6318 -0.4707 -0.7817
  959MOL0     C26485   2.618   9.052   3.928  1.2845 -0.2522  0.6175
  959MOL0     O26486   2.541   9.145   3.866 -0.8702 -0.1135 -0.2576
  959MOL0     C26487   2.414   9.149   3.912 -0.0159  0.6912  0.3952
  959MOL0     C26488   2.322   9.084   3.831  0.1876 -0.2463  0.4404
  959MOL0     C26489   2.188   9.068   3.870 -0.2331  0.5689  0.4837
  959MOL0     C26490   2.145   9.136   3.987 -0.2027  0.7747 -0.2099
  959MOL0     O26491   2.017   9.157   4.024  0.2885  0.4527  0.7166
  959MOL0     C26492   1.915   9.128   3.933  1.7849 -0.2968  0.2188
  959MOL0     C26493   1.791   9.178   4.018  0.4428 -0.4387 -0.0687
  959MOL0     C26494   1.752   9.322   3.994 -0.3802  0.1820 -0.7785
  959MOL0     C26495   1.600   9.353   4.017 -0.7711 -0.4811  0.2598
  959MOL0     C26496   1.591   9.419   4.155  0.0472 -0.3453  0.5251
  959MOL0     C26497   1.454   9.461   4.206  0.2240  0.0494  0.3521
  959MOL0     C26498   1.358   9.526   4.106  0.0002  0.1057 -0.4950
  959MOL0     C26499   1.225   9.550   4.173  0.1960 -0.5190 -1.2956
  959MOL0    Cl26500   1.253   9.687   4.292  0.1461 -0.0142 -0.1063
  959MOL0     C26501   2.232   9.204   4.066  0.4078 -0.6121 -0.6879
  959MOL0     C26502   2.371   9.209   4.028 -0.6859  0.0237  0.5264
  959MOL0     O26503   2.579   8.979   4.015 -0.7231 -0.2096  0.1956
  959MOL0     C26504   2.850   8.981   3.947 -1.2125  0.4535  1.1481
  959MOL0     C26505   2.979   8.971   3.884  1.0397  0.3440 -0.6785
  959MOL0     N26506   3.477   9.019   4.143 -0.6944  0.3243  0.2464
  959MOL0     N26507   3.550   9.037   4.243 -0.2832  0.0116 -0.0363
  959MOL0     C26508   4.600   9.509   4.663  0.5050  0.2831  0.7173
  959MOL0     C26509   4.743   9.506   4.658  0.1872 -0.0934 -0.8072
  959MOL0     C26510   5.158   9.319   4.546  0.1225  0.3553  0.7719
  959MOL0     C26511   5.227   9.410   4.625 -0.2743 -0.5128  0.5668
  959MOL0     C26512   5.368   9.403   4.641  0.1889  0.1703 -1.0083
  959MOL0     C26513   5.434   9.306   4.575 -0.1416 -0.1506  0.0837
  959MOL0     O26514   5.572   9.315   4.580  0.7289  0.5734 -0.7588
  959MOL0     C26515   5.663   9.242   4.497  0.0190 -0.6000  0.0241
  959MOL0     C26516   5.808   9.264   4.534 -0.8589 -0.0275  0.0237
  959MOL0     C26517   5.863   9.411   4.530 -1.1560  0.5568 -0.2054
  959MOL0     C26518   5.869   9.483   4.395 -0.4592  0.1677 -0.4077
  959MOL0     C26519   5.962   9.422   4.301  0.2046  0.5222  1.2409
  959MOL0     C26520   6.033   9.363   4.226 -0.7220 -0.3865 -0.4314
  959MOL0     C26521   5.372   9.218   4.486 -0.2798 -0.2579  1.1980
  959MOL0     C26522   5.234   9.217   4.478 -0.0347  0.2371  0.1641
  959MOL0     H26523   4.805   9.186   4.713  0.4045 -0.3449 -0.1347
  959MOL0     H26524   4.556   9.180   4.734  0.2976 -0.7375 -1.7917
  959MOL0     H26525   4.336   9.502   4.536 -1.5376 -0.8500 -1.0257
  959MOL0     H26526   4.318   9.576   4.686 -2.4104 -0.4793  1.0884
  959MOL0     H26527   4.105   9.489   4.555  4.1355 -0.3377 -2.7555
  959MOL0     H26528   4.113   9.497   4.736 -0.6719 -1.7405 -0.3989
  959MOL0     H26529   4.185   9.258   4.738 -1.5754 -2.3225 -0.7113
  959MOL0     H26530   4.145   9.259   4.561  2.2296  2.0321 -1.4671
  959MOL0     H26531   3.964   9.241   4.788  1.4574 -1.3534 -0.8619
  959MOL0     H26532   3.932   9.402   4.725 -3.6113 -0.3872 -1.9587
  959MOL0     H26533   3.868   9.128   4.612  1.6493  0.7570  1.9183
  959MOL0     H26534   3.907   9.249   4.491  0.0374 -1.3217  0.3611
  959MOL0     H26535   3.728   9.391   4.591 -1.8415  0.3275  0.5524
  959MOL0     H26536   3.698   9.276   4.711 -0.2148 -1.3179 -0.6323
  959MOL0     H26537   3.596   9.115   4.508 -0.7524  0.1066 -1.3362
  959MOL0     H26538   3.537   9.283   4.486 -0.1928 -0.1122  1.4324
  959MOL0     H26539   3.772   9.166   4.349  0.9225 -0.7542 -0.3977
  959MOL0     H26540   3.708   9.327   4.317 -1.4941 -0.3958 -3.7609
  959MOL0     H26541   3.565   9.330   4.115  1.3310 -1.1408  0.3984
  959MOL0     H26542   3.422   9.268   3.903 -0.3342 -0.0709 -0.8991
  959MOL0     H26543   3.289   9.174   3.973 -1.1982 -0.5409 -0.5624
  959MOL0     H26544   3.350   8.980   3.858 -1.9697  0.6808  0.5162
  959MOL0     H26545   3.515   9.042   3.829  0.8569  2.3919  1.6487
  959MOL0     H26546   3.407   9.217   3.672 -0.8642  0.3774 -0.9478
  959MOL0     H26547   3.388   9.053   3.622 -0.1811 -0.4357  0.6783
  959MOL0     H26548   3.176   9.181   3.593 -0.0716 -2.1690 -1.7639
  959MOL0     H26549   3.168   9.204   3.768 -0.5751  0.2282 -1.6920
  959MOL0     H26550   2.932   9.106   3.577 -2.2055  1.1851  0.4470
  959MOL0     H26551   2.698   9.106   3.667  2.9791  2.3146 -3.0381
  959MOL0     H26552   2.367   9.061   3.735  1.1817  1.9586  0.3260
  959MOL0     H26553   2.112   9.020   3.809 -0.7746  0.1864  1.4458
  959MOL0     H26554   1.913   9.020   3.918  3.1635 -0.3944  0.6394
  959MOL0     H26555   1.917   9.187   3.841 -0.8787  2.1360  1.5422
  959MOL0     H26556   1.819   9.158   4.121  3.1500 -1.3846 -0.8900
  959MOL0     H26557   1.711   9.111   3.983 -0.3141  1.6447 -2.6703
  959MOL0     H26558   1.756   9.330   3.885 -4.5911 -2.1838 -1.3325
  959MOL0     H26559   1.827   9.387   4.039 -0.1726 -0.5641 -0.0192
  959MOL0     H26560   1.563   9.429   3.947  1.2944  0.6296  0.3060
  959MOL0     H26561   1.529   9.271   4.009 -2.8328  1.3542 -1.7834
  959MOL0     H26562   1.635   9.518   4.142 -0.9498  0.0549  0.0957
  959MOL0     H26563   1.649   9.367   4.231  1.4117 -1.1265 -0.9671
  959MOL0     H26564   1.470   9.533   4.286  0.4123 -0.1168  0.4664
  959MOL0     H26565   1.409   9.375   4.257  0.9101 -0.9002 -0.5836
  959MOL0     H26566   1.396   9.624   4.076 -2.9099  1.5702  0.2339
  959MOL0     H26567   1.339   9.467   4.016  1.5450  2.1647 -2.2986
  959MOL0     H26568   1.185   9.462   4.224 -1.7148  0.5347 -0.8688
  959MOL0     H26569   1.151   9.582   4.099  0.5334  1.5100 -0.7994
  959MOL0     H26570   2.186   9.257   4.150 -2.4321 -1.6044 -1.4884
  959MOL0     H26571   2.431   9.271   4.093 -1.3779  1.0806  0.1848
  959MOL0     H26572   2.843   8.946   4.050  0.3121  2.8941  2.1699
  959MOL0     H26573   3.063   8.933   3.942  0.9887  0.4324 -0.5468
  959MOL0     H26574   4.559   9.608   4.650  1.6110  0.3215 -5.0879
  959MOL0     H26575   4.798   9.599   4.648 -0.1934  0.3505  0.9679
  959MOL0     H26576   5.186   9.502   4.666 -0.1879 -0.1011 -0.2526
  959MOL0     H26577   5.430   9.485   4.677 -2.3176  3.1249 -2.9322
  959MOL0     H26578   5.662   9.259   4.389  2.7762 -2.0304 -0.3181
  959MOL0     H26579   5.643   9.137   4.521 -1.9919 -0.3085 -0.2082
  959MOL0     H26580   5.840   9.203   4.620 -0.5370 -2.3815 -1.6579
  959MOL0     H26581   5.874   9.217   4.461 -1.5385 -1.3123  0.2084
  959MOL0     H26582   5.966   9.407   4.566 -0.5420  2.3223 -1.6528
  959MOL0     H26583   5.805   9.474   4.598 -1.6057  0.5006 -0.5313
  959MOL0     H26584   5.770   9.486   4.348 -1.3693 -1.4930  1.2970
  959MOL0     H26585   5.892   9.589   4.407  2.3375 -0.2371 -1.3890
  959MOL0     H26586   6.108   9.322   4.161 -0.1176 -0.2640  0.1827
  959MOL0     H26587   5.431   9.137   4.443 -1.9755 -0.1710 -1.5500
  959MOL0     H26588   5.184   9.142   4.417 -1.7751  1.2851  0.2246
  960MOL0     O26589   5.994   5.992   1.524 -0.5283 -0.1086 -0.0461
  960MOL0     C26590   6.067   5.908   1.471 -0.1117 -0.2919  0.0423
  960MOL0     O26591   6.015   5.803   1.404 -0.1719  0.4937  0.1931
  960MOL0     C26592   5.889   5.807   1.346  0.0189 -0.4050 -0.7805
  960MOL0     C26593   5.851   5.685   1.298 -0.1145  0.9207  0.1644
  960MOL0     C26594   5.732   5.665   1.228 -0.1211  0.0327 -0.6958
  960MOL0     C26595   5.639   5.778   1.212 -0.8491 -0.0979  0.0472
  960MOL0     O26596   5.525   5.773   1.143 -0.5412  0.0311  0.4628
  960MOL0     C26597   5.477   5.642   1.118 -0.2043  0.0507 -0.1401
  960MOL0     C26598   5.346   5.656   1.031 -0.1938 -0.9278 -0.1198
  960MOL0     C26599   5.233   5.730   1.116 -1.0946 -0.4057  0.1319
  960MOL0     C26600   5.104   5.737   1.026  0.0147  0.1997  0.7948
  960MOL0     C26601   4.988   5.816   1.081  0.1853  0.4058 -0.2857
  960MOL0     C26602   4.871   5.835   0.996  0.4193  0.4467  0.6876
  960MOL0     C26603   4.760   5.916   1.055  0.0016 -0.1326 -0.2788
  960MOL0     C26604   4.627   5.897   0.980  0.7696 -0.0158 -0.0863
  960MOL0     N26605   4.513   5.932   1.073 -0.3528 -0.0821  0.1121
  960MOL0     C26606   4.503   6.056   1.122 -0.1029  0.0055 -0.4998
  960MOL0     C26607   4.385   6.053   1.191  0.5931  0.2106  1.0104
  960MOL0     C26608   4.334   6.171   1.266  0.6905  0.0568 -0.0478
  960MOL0     C26609   4.179   6.161   1.268  0.1216 -0.0634  0.2259
  960MOL0     C26610   4.140   6.293   1.333 -0.5466  0.2607 -0.1420
  960MOL0     C26611   4.002   6.330   1.292  0.2259  0.5680  0.0890
  960MOL0     O26612   3.907   6.221   1.314 -0.1799  0.7772 -1.0568
  960MOL0     C26613   3.775   6.238   1.292  0.2529 -0.4820  0.5695
  960MOL0     C26614   3.704   6.356   1.245  0.0901 -0.0249  0.4761
  960MOL0     C26615   3.566   6.346   1.214 -0.0282  1.2155  0.1884
  960MOL0     C26616   3.493   6.232   1.251  0.2325 -0.2545 -0.1202
  960MOL0     C26617   3.342   6.226   1.253  0.1729  1.0286  0.0118
  960MOL0     O26618   3.273   6.343   1.252  0.0486  0.4827  0.3541
  960MOL0     C26619   3.138   6.308   1.258 -0.1900  0.3658  0.5118
  960MOL0     C26620   3.074   6.293   1.139  0.0657 -0.8366  0.2685
  960MOL0     C26621   2.934   6.269   1.133 -0.0927 -0.5704 -0.1039
  960MOL0     C26622   2.853   6.259   1.255  0.4687  0.2273 -0.2799
  960MOL0     O26623   2.717   6.226   1.244  0.1245  0.0693 -0.3939
  960MOL0     C26624   2.647   6.176   1.359 -0.0701  0.2784 -0.4594
  960MOL0     C26625   2.524   6.095   1.320  0.0016  0.4619  0.2134
  960MOL0     C26626   2.434   6.156   1.212 -0.3632 -0.5498  0.0672
  960MOL0     C26627   2.319   6.061   1.171 -0.2763  0.1432  0.6123
  960MOL0     C26628   2.375   5.939   1.097  0.0768  0.4880  0.4200
  960MOL0     C26629   2.456   5.961   0.970 -0.3025 -0.2980  1.2170
  960MOL0     C26630   2.403   6.053   0.856  0.1206 -0.9987 -0.0210
  960MOL0     C26631   2.508   6.097   0.764  0.6593  0.5495 -0.6114
  960MOL0    Cl26632   2.556   5.962   0.653 -0.1804 -0.0438 -0.5197
  960MOL0     C26633   2.922   6.293   1.376 -0.4508 -0.3067  0.0221
  960MOL0     C26634   3.065   6.310   1.381  0.2899 -0.4517  0.6548
  960MOL0     O26635   3.295   6.107   1.251  0.4492  0.5615 -0.6791
  960MOL0     C26636   3.568   6.118   1.292 -0.7189 -0.1255  0.4224
  960MOL0     C26637   3.705   6.122   1.312 -0.1510  0.6718  0.1307
  960MOL0     N26638   4.336   5.921   1.185  0.6262  0.4956 -0.1186
  960MOL0     N26639   4.417   5.850   1.117  0.2270 -0.7485  0.3956
  960MOL0     C26640   5.677   5.902   1.261  0.0436  0.6094  0.4627
  960MOL0     C26641   5.796   5.912   1.334 -0.0178  0.2731 -0.6763
  960MOL0     C26642   6.215   5.898   1.493 -0.0949  0.5551  0.5905
  960MOL0     C26643   6.295   5.813   1.417  0.5524 -0.0115  0.1745
  960MOL0     C26644   6.425   5.805   1.426 -0.1726 -0.0500 -0.4176
  960MOL0     C26645   6.501   5.873   1.529  0.5977  0.1988  0.3269
  960MOL0     O26646   6.636   5.847   1.556 -0.3385  0.3474 -0.2289
  960MOL0     C26647   6.706   5.762   1.462 -0.1979 -0.0907 -0.7826
  960MOL0     C26648   6.860   5.784   1.499 -0.3536 -0.0092 -0.5213
  960MOL0     C26649   6.900   5.697   1.626 -0.7339  0.0179  0.3942
  960MOL0     C26650   7.047   5.692   1.643  0.6082  1.0580  0.2119
  960MOL0     C26651   7.106   5.591   1.550  0.0307 -0.1477 -0.7146
  960MOL0     C26652   7.144   5.499   1.471  0.0349 -0.2466  0.6975
  960MOL0     C26653   6.419   5.954   1.611 -0.1559 -0.1798 -0.3575
  960MOL0     C26654   6.280   5.973   1.588  0.0817 -0.0581  0.3910
  960MOL0     H26655   5.915   5.599   1.319  0.9358  1.9465  1.3122
  960MOL0     H26656   5.699   5.570   1.187 -1.4081  0.8527 -1.6275
  960MOL0     H26657   5.463   5.581   1.207  2.7493  3.0295  2.6273
  960MOL0     H26658   5.547   5.592   1.050 -3.8401  0.2112 -4.4989
  960MOL0     H26659   5.315   5.558   0.997  0.6826 -1.1254 -0.3736
  960MOL0     H26660   5.348   5.730   0.951 -3.7992  2.1203  2.2368
  960MOL0     H26661   5.266   5.829   1.147 -0.0932 -1.3995  2.4498
  960MOL0     H26662   5.210   5.679   1.210 -0.5590  1.0246  1.0679
  960MOL0     H26663   5.136   5.777   0.929 -4.1180  0.7190 -0.5294
  960MOL0     H26664   5.065   5.635   1.013  0.5859 -0.2691  2.4401
  960MOL0     H26665   5.030   5.914   1.108 -0.9996  1.1843 -1.1553
  960MOL0     H26666   4.958   5.766   1.173 -1.8598 -1.0437 -1.6473
  960MOL0     H26667   4.830   5.736   0.973  1.0738  0.1880  0.6378
  960MOL0     H26668   4.901   5.883   0.903 -3.8457  2.4936  0.1212
  960MOL0     H26669   4.742   5.891   1.160 -0.2351  0.9891 -0.0416
  960MOL0     H26670   4.783   6.023   1.052 -1.9359  0.2851 -1.6716
  960MOL0     H26671   4.635   5.796   0.938  2.9274  1.2974 -3.1719
  960MOL0     H26672   4.615   5.956   0.889 -1.6081  0.5895  0.5735
  960MOL0     H26673   4.569   6.141   1.103 -0.8886  1.1513  1.5458
  960MOL0     H26674   4.371   6.258   1.210 -1.5296  0.6451 -0.6842
  960MOL0     H26675   4.371   6.153   1.367 -0.8869 -1.6974  0.2642
  960MOL0     H26676   4.140   6.074   1.321 -4.3451  1.6308  0.0740
  960MOL0     H26677   4.128   6.161   1.171 -0.5376 -0.2446  0.5719
  960MOL0     H26678   4.137   6.281   1.442  0.1265 -2.5360 -0.3391
  960MOL0     H26679   4.205   6.375   1.303 -0.0969  0.2294  0.7132
  960MOL0     H26680   4.005   6.366   1.189 -0.2760  0.5242  0.0591
  960MOL0     H26681   3.961   6.417   1.345 -4.3461  0.0421 -2.1293
  960MOL0     H26682   3.761   6.445   1.220  1.4114 -1.4005 -1.7068
  960MOL0     H26683   3.513   6.436   1.187 -1.8001  1.0044  2.6117
  960MOL0     H26684   3.114   6.288   1.038 -0.1091  0.6022  0.1116
  960MOL0     H26685   2.890   6.231   1.042 -0.0193  1.1751 -0.9147
  960MOL0     H26686   2.628   6.268   1.416  0.9373 -0.1495  0.6127
  960MOL0     H26687   2.714   6.102   1.404  2.3446  2.1990 -0.7174
  960MOL0     H26688   2.462   6.080   1.409 -0.2613  4.5622  0.8950
  960MOL0     H26689   2.560   5.994   1.294 -0.4539 -0.0325  1.4307
  960MOL0     H26690   2.492   6.192   1.127  0.8255 -1.7259  0.3414
  960MOL0     H26691   2.392   6.250   1.250  0.7412 -0.2838  0.6798
  960MOL0     H26692   2.267   6.015   1.256  1.4272 -1.8723  0.6588
  960MOL0     H26693   2.251   6.114   1.103 -1.1199 -2.7684 -0.9886
  960MOL0     H26694   2.295   5.867   1.081  1.1650 -1.5119  3.0237
  960MOL0     H26695   2.447   5.884   1.159  1.3757 -1.5094 -2.6400
  960MOL0     H26696   2.472   5.864   0.923  1.7118  0.8279 -0.6259
  960MOL0     H26697   2.558   5.994   0.995  0.9576 -1.0157 -2.3873
  960MOL0     H26698   2.317   6.006   0.808 -0.2705  0.9527 -1.3702
  960MOL0     H26699   2.363   6.140   0.909  3.5213  1.1858 -0.7291
  960MOL0     H26700   2.590   6.130   0.828  0.0023 -0.8996  1.0491
  960MOL0     H26701   2.479   6.176   0.693  1.7299 -1.0731 -3.0017
  960MOL0     H26702   2.866   6.291   1.469  1.9009  2.0492  1.6320
  960MOL0     H26703   3.109   6.349   1.472 -2.7766 -0.2720  2.1783
  960MOL0     H26704   3.522   6.023   1.315  1.2407 -1.6103 -1.4340
  960MOL0     H26705   3.755   6.029   1.337 -0.9936 -0.1940 -1.3037
  960MOL0     H26706   5.609   5.986   1.266  1.5630  1.8234  1.6609
  960MOL0     H26707   5.815   6.005   1.386 -0.7570 -0.3750  0.8221
  960MOL0     H26708   6.259   5.758   1.331 -1.6230  0.4014  0.7693
  960MOL0     H26709   6.468   5.741   1.350 -2.4746 -1.4422 -0.6208
  960MOL0     H26710   6.685   5.793   1.359  1.7873 -0.6476 -1.4070
  960MOL0     H26711   6.699   5.653   1.469  2.0885 -0.1924  3.2413
  960MOL0     H26712   6.924   5.765   1.413 -0.8909 -2.6956 -0.4234
  960MOL0     H26713   6.884   5.887   1.527  0.8168 -0.6954  1.2299
  960MOL0     H26714   6.852   5.599   1.618 -3.0327  1.2331 -2.6925
  960MOL0     H26715   6.847   5.749   1.706  0.4455  0.8488  0.6755
  960MOL0     H26716   7.090   5.791   1.622  1.9704  0.5952  0.6733
  960MOL0     H26717   7.068   5.665   1.747 -2.4491  0.1943  0.6970
  960MOL0     H26718   7.176   5.426   1.400 -0.4018  3.4777 -3.7380
  960MOL0     H26719   6.475   6.006   1.689 -0.6138  0.8649 -0.7080
  960MOL0     H26720   6.227   6.034   1.661 -2.3431  0.2280 -1.4657
  961MOL0     O26721   5.334   0.047   0.036  0.1424  0.5098  0.8602
  961MOL0     C26722   5.286   0.131   0.108 -0.2698 -0.1269  0.3928
  961MOL0     O26723   5.180   0.121   0.188 -0.0700  0.1302 -0.5410
  961MOL0     C26724   5.118  -0.001   0.198 -0.4881 -1.0245  0.1185
  961MOL0     C26725   4.982  -0.004   0.188  0.2017  0.5599 -0.8085
  961MOL0     C26726   4.918  -0.124   0.215  0.3767 -1.3114  0.3085
  961MOL0     C26727   4.990  -0.245   0.236  0.4089  0.2571  0.0221
  961MOL0     O26728   4.913  -0.364   0.237  0.1342  0.6346  0.0406
  961MOL0     C26729   4.981  -0.492   0.259 -0.1222  0.2696  0.0837
  961MOL0     C26730   4.993  -0.557   0.119 -0.0908 -0.2348 -0.4779
  961MOL0     C26731   4.852  -0.598   0.060  0.5527  0.1428  0.5590
  961MOL0     C26732   4.778  -0.705   0.147  0.9041 -0.1709  0.1458
  961MOL0     C26733   4.653  -0.784   0.080  0.1209 -0.0462  0.2270
  961MOL0     C26734   4.689  -0.849  -0.053  0.1463  0.0373 -0.1602
  961MOL0     C26735   4.577  -0.943  -0.101 -0.1259 -0.0960  0.3121
  961MOL0     C26736   4.467  -0.868  -0.173 -0.3969  0.3445 -0.1517
  961MOL0     N26737   4.368  -0.956  -0.224 -0.6535 -0.2384  0.0355
  961MOL0     C26738   4.377  -1.034  -0.333 -0.1465  0.5718 -0.5140
  961MOL0     C26739   4.288  -1.131  -0.315  0.8859 -0.3156  0.0046
  961MOL0     C26740   4.256  -1.246  -0.408 -0.5087 -0.5127 -1.2954
  961MOL0     C26741   4.125  -1.225  -0.460  0.0746 -0.0602  0.6678
  961MOL0     C26742   4.014  -1.316  -0.394 -0.1645 -0.2017  0.1549
  961MOL0     C26743   3.872  -1.308  -0.455  0.1916  0.9317 -0.5137
  961MOL0     O26744   3.786  -1.409  -0.393 -0.4766  0.0008  0.4068
  961MOL0     C26745   3.659  -1.426  -0.447  0.3749 -0.6658  0.8834
  961MOL0     C26746   3.617  -1.389  -0.581  0.1849  0.1243 -0.7279
  961MOL0     C26747   3.490  -1.394  -0.627 -0.2685  0.3147 -0.8889
  961MOL0     C26748   3.390  -1.444  -0.542  1.0786 -0.4263 -0.5228
  961MOL0     C26749   3.253  -1.465  -0.587  0.5437 -0.2456 -0.8109
  961MOL0     O26750   3.231  -1.429  -0.720 -0.3085 -0.3017  0.3912
  961MOL0     C26751   3.108  -1.466  -0.776  0.0162  0.6038  0.1021
  961MOL0     C26752   2.980  -1.465  -0.710 -0.2050 -0.2186 -0.2106
  961MOL0     C26753   2.865  -1.507  -0.776  0.6643 -0.0568  0.3952
  961MOL0     C26754   2.869  -1.543  -0.918 -0.0723  0.4612  0.0241
  961MOL0     O26755   2.754  -1.572  -0.973  0.4187  0.4347  0.0251
  961MOL0     C26756   2.737  -1.544  -1.108 -0.7530  0.1019  0.3447
  961MOL0     C26757   2.590  -1.523  -1.151 -0.0536 -0.3633  0.8273
  961MOL0     C26758   2.578  -1.532  -1.307  0.2287  0.3988  0.1377
  961MOL0     C26759   2.430  -1.522  -1.341 -0.1377 -0.2360 -0.3830
  961MOL0     C26760   2.389  -1.377  -1.325  0.1242 -0.8384  0.0577
  961MOL0     C26761   2.258  -1.347  -1.387 -0.0063  0.4669 -0.5768
  961MOL0     C26762   2.135  -1.424  -1.321  0.5012 -0.6763  0.6953
  961MOL0     C26763   1.993  -1.385  -1.374  0.3759 -0.3877 -0.1620
  961MOL0    Cl26764   1.973  -1.204  -1.355  0.0896 -0.3875 -0.2632
  961MOL0     C26765   2.996  -1.553  -0.984  0.1597  0.5718 -0.5127
  961MOL0     C26766   3.111  -1.520  -0.909  0.4407  0.4954  0.7304
  961MOL0     O26767   3.174  -1.520  -0.510  0.4687 -0.5901  0.6389
  961MOL0     C26768   3.426  -1.483  -0.403 -0.4820 -0.1963 -0.0110
  961MOL0     C26769   3.560  -1.475  -0.366  0.4168 -0.0320 -0.5233
  961MOL0     N26770   4.234  -1.109  -0.182  0.0496  0.4377 -0.3519
  961MOL0     N26771   4.285  -0.997  -0.132 -0.1462  0.6795  0.4348
  961MOL0     C26772   5.128  -0.244   0.224 -0.4131 -0.6476 -0.0337
  961MOL0     C26773   5.192  -0.123   0.225 -0.3157 -0.1397 -0.0863
  961MOL0     C26774   5.360   0.252   0.114  0.5327 -0.0578  0.8552
  961MOL0     C26775   5.474   0.273   0.039 -0.2463  0.4505 -0.0062
  961MOL0     C26776   5.550   0.389   0.058  0.1881  0.1416 -0.1887
  961MOL0     C26777   5.521   0.480   0.157  0.3023 -0.3787  0.4358
  961MOL0     O26778   5.592   0.600   0.175 -0.4135  0.6855 -0.3197
  961MOL0     C26779   5.702   0.627   0.095 -0.1963  0.2686  1.2149
  961MOL0     C26780   5.799   0.727   0.164  0.7785 -0.2263 -0.0578
  961MOL0     C26781   5.913   0.646   0.231  0.0411 -0.1446  0.5067
  961MOL0     C26782   5.956   0.707   0.367 -0.1079  0.3877 -0.1858
  961MOL0     C26783   5.845   0.695   0.456 -0.4032  0.0036 -0.1912
  961MOL0     C26784   5.742   0.693   0.522 -0.1177  0.4775 -0.8810
  961MOL0     C26785   5.406   0.464   0.225 -0.1656 -0.5744  0.9585
  961MOL0     C26786   5.316   0.359   0.191 -0.7515 -1.6781  0.1043
  961MOL0     H26787   4.927   0.089   0.171 -0.4209 -0.2168 -3.6919
  961MOL0     H26788   4.811  -0.124   0.195  0.9572 -1.7227 -3.5398
  961MOL0     H26789   4.916  -0.550   0.324 -0.0127  0.2135  0.1423
  961MOL0     H26790   5.076  -0.485   0.311  1.4867 -1.1461 -2.4859
  961MOL0     H26791   5.047  -0.649   0.139  1.6136  0.6060 -0.9967
  961MOL0     H26792   5.059  -0.498   0.055  3.1309 -0.1154  2.6898
  961MOL0     H26793   4.864  -0.629  -0.045  2.5972  0.7537  0.5752
  961MOL0     H26794   4.783  -0.515   0.045 -1.2877 -1.6779 -1.9196
  961MOL0     H26795   4.853  -0.779   0.177  1.4257  0.2807 -0.0283
  961MOL0     H26796   4.746  -0.657   0.240  1.1370  0.3914 -0.0624
  961MOL0     H26797   4.567  -0.718   0.066 -1.0362 -0.9960  2.3344
  961MOL0     H26798   4.615  -0.859   0.150 -2.2021 -2.5817 -3.3839
  961MOL0     H26799   4.776  -0.915  -0.057  1.9434  2.3063 -0.3745
  961MOL0     H26800   4.705  -0.770  -0.127  1.4749  1.5714  1.6485
  961MOL0     H26801   4.605  -1.014  -0.178 -0.0924  1.1928 -0.9025
  961MOL0     H26802   4.536  -0.997  -0.015  1.7727  1.0601  2.0241
  961MOL0     H26803   4.521  -0.828  -0.259  3.6180 -1.3942  1.2985
  961MOL0     H26804   4.421  -0.789  -0.112 -0.4907  2.2518 -2.5326
  961MOL0     H26805   4.439  -1.011  -0.419  0.4342  2.6810  0.4014
  961MOL0     H26806   4.261  -1.339  -0.349 -3.5036  0.2689  0.3998
  961MOL0     H26807   4.329  -1.262  -0.487  0.6041 -1.9097 -0.0558
  961MOL0     H26808   4.136  -1.249  -0.566  0.4048  1.6942  0.2872
  961MOL0     H26809   4.084  -1.125  -0.443 -1.4317 -0.0187 -2.6289
  961MOL0     H26810   4.042  -1.420  -0.413  0.8755  0.6271 -3.4943
  961MOL0     H26811   4.003  -1.305  -0.285  1.5681  3.3421  0.1195
  961MOL0     H26812   3.890  -1.321  -0.562 -0.6922 -0.4859 -0.5294
  961MOL0     H26813   3.828  -1.209  -0.441 -1.0465  0.6177 -1.9236
  961MOL0     H26814   3.684  -1.348  -0.656  0.2972 -2.7053 -2.2775
  961MOL0     H26815   3.475  -1.360  -0.729 -0.0221  2.4651 -0.2534
  961MOL0     H26816   2.984  -1.429  -0.607  1.4654  2.0597 -0.9703
  961MOL0     H26817   2.771  -1.510  -0.722  0.2553 -2.3031 -0.3553
  961MOL0     H26818   2.770  -1.637  -1.156  1.1238 -0.3475  2.3769
  961MOL0     H26819   2.809  -1.466  -1.135 -1.4119  0.1767 -1.3487
  961MOL0     H26820   2.542  -1.439  -1.099  1.6330  2.6967 -2.2239
  961MOL0     H26821   2.534  -1.610  -1.114 -1.4470  0.9561  1.9862
  961MOL0     H26822   2.618  -1.628  -1.339 -0.9307 -0.0795  0.0825
  961MOL0     H26823   2.639  -1.453  -1.351  0.8307  0.1045  0.4274
  961MOL0     H26824   2.408  -1.550  -1.444  3.7877 -0.5274 -1.3122
  961MOL0     H26825   2.369  -1.587  -1.277 -0.6744  1.2543  0.6705
  961MOL0     H26826   2.465  -1.306  -1.361 -0.8291  0.6851  0.9167
  961MOL0     H26827   2.385  -1.361  -1.216 -2.2068 -2.7879  0.3435
  961MOL0     H26828   2.285  -1.371  -1.490  1.7729  1.2807 -0.3192
  961MOL0     H26829   2.231  -1.241  -1.383 -1.0726  0.2176 -0.6100
  961MOL0     H26830   2.149  -1.530  -1.344 -0.9395 -0.9922  1.1914
  961MOL0     H26831   2.129  -1.402  -1.214  1.2421  0.2589  0.5574
  961MOL0     H26832   1.912  -1.428  -1.315 -0.6094  0.6266 -0.7298
  961MOL0     H26833   1.986  -1.414  -1.479  1.9790  2.5181 -1.2019
  961MOL0     H26834   3.006  -1.573  -1.090  0.7380 -2.7967  0.0574
  961MOL0     H26835   3.208  -1.541  -0.953  0.4210 -2.4733  1.8685
  961MOL0     H26836   3.352  -1.527  -0.336 -0.8346  0.5748  0.1264
  961MOL0     H26837   3.589  -1.512  -0.268 -2.9672 -0.8660  0.2716
  961MOL0     H26838   5.191  -0.330   0.204  4.4598  2.7532 -1.4183
  961MOL0     H26839   5.299  -0.109   0.216 -0.3421 -0.1015 -0.3476
  961MOL0     H26840   5.520   0.208  -0.034 -2.5810  2.0235 -3.0781
  961MOL0     H26841   5.632   0.400  -0.012  0.9900 -1.1405  0.5236
  961MOL0     H26842   5.664   0.675   0.005 -0.2619  0.6349  1.4381
  961MOL0     H26843   5.761   0.537   0.073  1.0433  1.3436  0.0179
  961MOL0     H26844   5.842   0.805   0.100 -2.7652  1.6841 -0.3670
  961MOL0     H26845   5.735   0.775   0.237  0.7252 -1.1181  0.4958
  961MOL0     H26846   6.006   0.641   0.173  0.2555 -1.9204  0.9393
  961MOL0     H26847   5.883   0.542   0.246  0.0068 -0.3513 -0.8556
  961MOL0     H26848   6.036   0.654   0.419 -1.7802 -0.2609  1.8586
  961MOL0     H26849   5.981   0.814   0.363 -0.1623  0.4358  0.5874
  961MOL0     H26850   5.649   0.688   0.574  0.0680 -2.5336 -0.6669
  961MOL0     H26851   5.380   0.549   0.288 -0.6185 -1.3547  1.8601
  961MOL0     H26852   5.221   0.359   0.243 -0.7943  3.6275  0.5155
  962MOL0     O26853  11.232   0.917   0.473 -0.3920 -0.6564 -0.1392
  962MOL0     C26854  11.243   0.827   0.389  0.1082 -0.3131  0.6163
  962MOL0     O26855  11.134   0.752   0.331  0.3284 -0.2034 -0.5738
  962MOL0     C26856  11.006   0.781   0.392 -0.3411  0.0515  0.3453
  962MOL0     C26857  10.902   0.824   0.308 -0.1475  0.0577  0.6615
  962MOL0     C26858  10.773   0.829   0.359 -0.0058 -0.2999  0.0776
  962MOL0     C26859  10.741   0.792   0.490 -0.6997  0.2780 -0.4798
  962MOL0     O26860  10.610   0.752   0.537 -0.4411  0.3906  0.3719
  962MOL0     C26861  10.507   0.843   0.517  0.6498  0.4256 -0.3805
  962MOL0     C26862  10.526   0.935   0.637  0.5066  1.6524 -0.1813
  962MOL0     C26863  10.406   1.023   0.666  0.6435 -0.5193  0.2831
  962MOL0     C26864  10.277   0.951   0.706 -0.5794 -0.0748 -0.0411
  962MOL0     C26865  10.161   1.041   0.735  0.2785  0.4835 -0.0038
  962MOL0     C26866  10.154   1.085   0.887 -0.6868 -0.1959  0.1303
  962MOL0     C26867  10.028   1.180   0.900 -0.0353  0.5174  0.3959
  962MOL0     C26868  10.017   1.229   1.041 -0.6262 -0.1367 -0.3310
  962MOL0     N26869   9.955   1.360   1.054  0.1737 -0.5022 -0.4604
  962MOL0     C26870   9.996   1.487   1.002 -0.0637  0.3332  0.5187
  962MOL0     C26871   9.891   1.574   1.020 -0.1566  0.7693 -0.3463
  962MOL0     C26872   9.872   1.711   0.977 -0.3312  0.8257 -0.2821
  962MOL0     C26873   9.760   1.737   0.880 -0.3225 -0.7984  0.4909
  962MOL0     C26874   9.790   1.662   0.741 -0.3857  0.3230  0.7116
  962MOL0     C26875   9.930   1.692   0.677  0.4492 -0.4980 -0.5935
  962MOL0     O26876   9.945   1.597   0.571  0.6722 -0.6352  0.8914
  962MOL0     C26877  10.076   1.586   0.527  0.2265 -0.6754 -0.8032
  962MOL0     C26878  10.126   1.462   0.569 -0.4505  0.3152  0.8789
  962MOL0     C26879  10.255   1.430   0.523 -0.6861  0.2669  0.5396
  962MOL0     C26880  10.333   1.511   0.442  0.3355 -0.7772  0.1568
  962MOL0     C26881  10.481   1.485   0.413 -0.6426 -0.1632  0.1747
  962MOL0     O26882  10.551   1.403   0.491 -0.6123  0.3081 -0.1987
  962MOL0     C26883  10.677   1.370   0.449 -0.3492  0.2423 -0.1461
  962MOL0     C26884  10.775   1.468   0.418  0.0442 -0.3846 -0.4261
  962MOL0     C26885  10.903   1.434   0.379 -0.6133 -0.4688  0.4947
  962MOL0     C26886  10.951   1.298   0.366 -0.1073 -0.6468  0.0546
  962MOL0     O26887  11.083   1.265   0.326  0.3128 -0.3794 -0.1960
  962MOL0     C26888  11.194   1.329   0.405  0.6645 -0.1120  0.0443
  962MOL0     C26889  11.297   1.374   0.302 -0.2629  0.2873 -0.3812
  962MOL0     C26890  11.429   1.427   0.379 -0.3486 -0.0377 -1.0924
  962MOL0     C26891  11.515   1.311   0.448 -0.1131 -1.2908 -0.3592
  962MOL0     C26892  11.640   1.358   0.529 -0.1894  1.1220 -0.6423
  962MOL0     C26893  11.709   1.240   0.599 -1.3761 -0.0061 -0.4983
  962MOL0     C26894  11.789   1.279   0.721 -0.5884  0.2859 -0.8836
  962MOL0     C26895  11.934   1.327   0.680 -0.3478  0.3329 -1.2958
  962MOL0    Cl26896  12.017   1.369   0.830  0.1777  0.0424 -0.0024
  962MOL0     C26897  10.859   1.203   0.411 -0.1578  0.0271 -0.6629
  962MOL0     C26898  10.731   1.243   0.458 -0.7347  0.2786  0.6501
  962MOL0     O26899  10.515   1.541   0.308 -0.1172  0.8911  0.4904
  962MOL0     C26900  10.274   1.630   0.390  0.2150  0.2602 -0.5181
  962MOL0     C26901  10.145   1.676   0.439  0.1794  0.2849 -0.0065
  962MOL0     N26902   9.796   1.507   1.090  0.5976 -0.5150  0.8049
  962MOL0     N26903   9.830   1.382   1.105  0.2056 -0.9429  0.0920
  962MOL0     C26904  10.844   0.753   0.575 -0.6282 -0.1419  0.1425
  962MOL0     C26905  10.978   0.761   0.530 -0.5843 -0.5814  0.3888
  962MOL0     C26906  11.372   0.787   0.342 -0.5993  0.1856 -0.8960
  962MOL0     C26907  11.491   0.852   0.388 -0.4932  0.2717  0.5362
  962MOL0     C26908  11.616   0.827   0.336 -0.5211 -0.6505  0.0693
  962MOL0     C26909  11.621   0.759   0.212  0.0550  0.4990 -0.6661
  962MOL0     O26910  11.731   0.729   0.145 -0.0357 -0.3121 -0.6054
  962MOL0     C26911  11.845   0.811   0.154  0.7498 -0.7121  0.0101
  962MOL0     C26912  11.945   0.773   0.039 -0.2297 -0.8966 -0.4893
  962MOL0     C26913  12.090   0.797   0.070 -0.6721  0.4698  0.5320
  962MOL0     C26914  12.146   0.937   0.080  0.5363 -0.0174 -1.1888
  962MOL0     C26915  12.104   0.996   0.208  0.4249 -0.6692  0.6330
  962MOL0     C26916  12.069   1.056   0.306 -1.3238 -0.4938  0.8663
  962MOL0     C26917  11.499   0.702   0.162 -0.0912 -0.3453  0.6146
  962MOL0     C26918  11.380   0.706   0.229  0.0173 -0.0025 -0.2426
  962MOL0     H26919  10.938   0.849   0.208 -1.9408  0.7399  0.1405
  962MOL0     H26920  10.688   0.849   0.294 -1.7477 -0.0099  2.3020
  962MOL0     H26921  10.415   0.789   0.538  2.5736 -2.2891  1.9372
  962MOL0     H26922  10.508   0.886   0.417  1.7213 -1.1152 -1.0780
  962MOL0     H26923  10.621   0.987   0.622  1.0908  0.6267 -0.1759
  962MOL0     H26924  10.542   0.870   0.724 -4.0614  0.1657 -0.2097
  962MOL0     H26925  10.389   1.100   0.591 -0.5314 -0.7342  0.3161
  962MOL0     H26926  10.428   1.080   0.757 -1.5300 -1.2031  1.2960
  962MOL0     H26927  10.253   0.878   0.629  2.2464 -0.3749 -0.7520
  962MOL0     H26928  10.302   0.889   0.793  0.3101  0.6204  0.2196
  962MOL0     H26929  10.068   0.996   0.701  1.1084 -1.0126 -0.3745
  962MOL0     H26930  10.184   1.136   0.684  2.3998  0.4460  0.7650
  962MOL0     H26931  10.249   1.134   0.913  0.1059 -0.5231 -1.9162
  962MOL0     H26932  10.141   0.994   0.945 -3.2652 -0.4247 -0.6905
  962MOL0     H26933  10.036   1.265   0.832 -1.7212  0.6241  0.2965
  962MOL0     H26934   9.934   1.136   0.864  0.1723  2.2693 -2.6953
  962MOL0     H26935  10.116   1.223   1.085 -0.5632 -3.2312 -0.6786
  962MOL0     H26936   9.961   1.152   1.097  1.6500  0.0628  2.4491
  962MOL0     H26937  10.082   1.506   0.939 -1.5027  3.4864 -0.6621
  962MOL0     H26938   9.963   1.751   0.932 -0.5601  2.5453  0.7063
  962MOL0     H26939   9.856   1.776   1.063 -0.3076 -0.3916  0.6661
  962MOL0     H26940   9.733   1.840   0.857 -1.5878 -0.9170  1.3597
  962MOL0     H26941   9.665   1.694   0.912 -0.6077  0.5668  1.5785
  962MOL0     H26942   9.788   1.553   0.751 -1.7860  0.2363 -0.2522
  962MOL0     H26943   9.716   1.688   0.664  1.8260  1.0922 -1.2903
  962MOL0     H26944  10.013   1.675   0.747 -1.2822  1.7314  2.2289
  962MOL0     H26945   9.928   1.790   0.628 -0.0390 -0.9746 -1.5639
  962MOL0     H26946  10.074   1.385   0.625  1.4376 -3.0690 -1.5945
  962MOL0     H26947  10.297   1.337   0.560 -0.3438  1.2067  2.7292
  962MOL0     H26948  10.748   1.573   0.425  0.4622 -0.1279 -2.2841
  962MOL0     H26949  10.977   1.512   0.359 -1.0722  0.4415  2.1732
  962MOL0     H26950  11.223   1.255   0.480  0.6536  0.4114  0.5755
  962MOL0     H26951  11.160   1.414   0.466 -3.8171 -1.5619 -0.1325
  962MOL0     H26952  11.263   1.455   0.237 -0.2723 -0.4924 -1.3780
  962MOL0     H26953  11.327   1.292   0.236  1.9166  0.4395  0.3435
  962MOL0     H26954  11.395   1.509   0.443 -2.8820  0.0903 -2.4480
  962MOL0     H26955  11.492   1.481   0.308 -0.1293  3.5514  1.5669
  962MOL0     H26956  11.450   1.252   0.514  1.2587  0.9642  3.2944
  962MOL0     H26957  11.546   1.248   0.364 -1.5007  0.6822 -2.4579
  962MOL0     H26958  11.596   1.425   0.603  1.4504  0.4319  1.0450
  962MOL0     H26959  11.705   1.410   0.458  2.0045  1.2722  1.3428
  962MOL0     H26960  11.766   1.182   0.525 -1.6661  0.5736 -1.1879
  962MOL0     H26961  11.630   1.173   0.632 -1.9634  0.6536 -0.5457
  962MOL0     H26962  11.728   1.357   0.768 -2.6219 -2.0408  0.5645
  962MOL0     H26963  11.791   1.190   0.785  0.5787  2.2794  2.0880
  962MOL0     H26964  11.936   1.412   0.612  2.9722  1.4091 -0.0588
  962MOL0     H26965  11.987   1.240   0.641  1.6067  1.1508 -0.5877
  962MOL0     H26966  10.894   1.100   0.408  0.2741  0.1317  0.4417
  962MOL0     H26967  10.657   1.172   0.494  1.0730 -2.3621 -0.6061
  962MOL0     H26968  10.344   1.698   0.343  1.8871 -1.2288 -0.2994
  962MOL0     H26969  10.099   1.769   0.406 -1.6519  0.0696  1.7859
  962MOL0     H26970  10.821   0.716   0.674  1.5114 -0.8093  0.4471
  962MOL0     H26971  11.058   0.726   0.593 -0.4133  0.7276  0.9420
  962MOL0     H26972  11.481   0.915   0.476  0.1170  1.4137 -0.1754
  962MOL0     H26973  11.706   0.870   0.378  0.0586 -0.2755 -1.5016
  962MOL0     H26974  11.893   0.805   0.252 -0.8885  0.6590  0.9684
  962MOL0     H26975  11.805   0.912   0.140 -1.9598 -1.8085 -0.7793
  962MOL0     H26976  11.939   0.666   0.016  1.1440 -1.5660  1.9577
  962MOL0     H26977  11.918   0.827  -0.053 -0.9840  2.5455  1.5797
  962MOL0     H26978  12.135   0.768  -0.026  0.1540 -0.6245  1.2276
  962MOL0     H26979  12.119   0.735   0.155 -2.7839 -3.6950 -1.5068
  962MOL0     H26980  12.256   0.937   0.072  0.4395  0.7941 -2.9264
  962MOL0     H26981  12.116   1.001  -0.003 -0.5821  1.6611  0.4339
  962MOL0     H26982  12.056   1.116   0.394 -1.7561  1.9594 -0.7546
  962MOL0     H26983  11.515   0.631   0.081 -1.1792  0.8783 -0.7190
  962MOL0     H26984  11.298   0.646   0.191  1.3779 -1.8749 -0.3399
  963MOL0     O26985   6.843   3.715   3.082 -0.5529 -0.3029 -0.2746
  963MOL0     C26986   6.790   3.632   3.008 -0.3514 -1.0480  0.5627
  963MOL0     O26987   6.663   3.590   3.019 -0.5894  0.3077 -0.2668
  963MOL0     C26988   6.571   3.650   3.104  0.1787  1.0396 -0.1349
  963MOL0     C26989   6.443   3.590   3.108  0.1402 -0.0530 -0.7136
  963MOL0     C26990   6.341   3.647   3.185  0.6158  1.8103  0.2600
  963MOL0     C26991   6.356   3.762   3.257  0.1060  0.5219  0.7115
  963MOL0     O26992   6.264   3.833   3.325  0.7100  0.4422  0.1862
  963MOL0     C26993   6.134   3.771   3.363 -0.6477 -0.5271  0.5863
  963MOL0     C26994   6.028   3.883   3.389  0.4486  0.2116  0.7476
  963MOL0     C26995   5.886   3.826   3.410 -0.5369 -1.1179 -0.3922
  963MOL0     C26996   5.781   3.932   3.458  0.0646 -0.3298 -0.3137
  963MOL0     C26997   5.644   3.870   3.471 -0.0567 -0.2156  0.7273
  963MOL0     C26998   5.544   3.955   3.541  0.1024 -0.2539 -1.0369
  963MOL0     C26999   5.433   3.881   3.611 -0.3193  0.1606 -0.2396
  963MOL0     C27000   5.336   3.985   3.665 -0.0567 -0.3044 -0.3831
  963MOL0     N27001   5.202   3.921   3.685  0.2099 -0.1771  0.3997
  963MOL0     C27002   5.150   3.840   3.785  0.2638 -1.1368 -0.1551
  963MOL0     C27003   5.047   3.775   3.726 -0.1836  0.0259  0.0161
  963MOL0     C27004   4.969   3.656   3.775  0.0676 -0.1659  0.7188
  963MOL0     C27005   4.825   3.688   3.802  0.2957 -0.1257  0.4101
  963MOL0     C27006   4.719   3.679   3.684  0.0303 -0.6640  0.1321
  963MOL0     C27007   4.721   3.545   3.606  0.2606  0.3880 -0.6667
  963MOL0     O27008   4.607   3.534   3.519  0.0106 -0.0924  0.8957
  963MOL0     C27009   4.599   3.622   3.414  0.4090  0.2633 -0.6864
  963MOL0     C27010   4.476   3.626   3.344  0.0752  0.6903 -0.2632
  963MOL0     C27011   4.452   3.712   3.239 -0.5450 -0.0501  0.3418
  963MOL0     C27012   4.552   3.806   3.203 -0.0111  0.0403  0.2811
  963MOL0     C27013   4.533   3.909   3.096  0.1122  0.3484  0.6418
  963MOL0     O27014   4.405   3.900   3.032 -0.1308  0.1063  0.0782
  963MOL0     C27015   4.373   3.977   2.928  0.3187  0.3276 -0.0511
  963MOL0     C27016   4.374   3.916   2.797 -0.2610  0.1550 -1.3761
  963MOL0     C27017   4.325   3.996   2.697 -0.1566  0.3354  0.4910
  963MOL0     C27018   4.272   4.120   2.709  0.3013  0.1410  1.2154
  963MOL0     O27019   4.229   4.183   2.589 -0.4829 -0.1287 -0.3997
  963MOL0     C27020   4.133   4.291   2.604  0.4266 -0.6212  1.0405
  963MOL0     C27021   3.995   4.233   2.651 -0.2285 -0.1135 -0.2970
  963MOL0     C27022   3.879   4.325   2.654 -0.2649  0.6809  0.1300
  963MOL0     C27023   3.862   4.401   2.517  0.6545 -0.3459 -0.0960
  963MOL0     C27024   3.734   4.484   2.519 -0.5451 -0.2338  0.4220
  963MOL0     C27025   3.734   4.594   2.415  0.0514 -0.7595 -0.0824
  963MOL0     C27026   3.603   4.672   2.427 -0.2144  0.4929  0.0481
  963MOL0     C27027   3.582   4.772   2.315 -0.5147 -0.7730 -0.4503
  963MOL0    Cl27028   3.732   4.858   2.274 -0.2324 -0.1974  0.2038
  963MOL0     C27029   4.278   4.180   2.831  1.0291 -0.1349 -0.5178
  963MOL0     C27030   4.333   4.112   2.947  0.0463 -0.1342 -0.0389
  963MOL0     O27031   4.615   3.999   3.085  0.5253 -0.6054  0.5088
  963MOL0     C27032   4.678   3.803   3.262 -0.0385  0.0652  0.1356
  963MOL0     C27033   4.703   3.704   3.363  0.0571  0.4767  0.8727
  963MOL0     N27034   5.034   3.812   3.597  0.6590 -1.0264  0.2479
  963MOL0     N27035   5.133   3.896   3.573 -0.2406 -0.1482 -0.3666
  963MOL0     C27036   6.476   3.831   3.238 -0.4002  0.3306 -1.0016
  963MOL0     C27037   6.584   3.777   3.167  0.5623 -0.5124 -0.1718
  963MOL0     C27038   6.867   3.587   2.887 -0.4790 -0.3476  0.0421
  963MOL0     C27039   6.995   3.631   2.861  0.2073 -0.5096 -0.3761
  963MOL0     C27040   7.070   3.587   2.756  0.8296 -0.3267 -0.4320
  963MOL0     C27041   7.016   3.495   2.667  0.9241  0.0312  0.0657
  963MOL0     O27042   7.065   3.444   2.546 -0.6412  0.3619 -0.7086
  963MOL0     C27043   7.172   3.513   2.495 -0.0285  0.0128 -0.3478
  963MOL0     C27044   7.217   3.461   2.360 -0.1880 -0.8412  0.4036
  963MOL0     C27045   7.337   3.525   2.308  0.7336  0.2220  0.0646
  963MOL0     C27046   7.321   3.661   2.237 -0.3287  0.1888  0.7232
  963MOL0     C27047   7.458   3.703   2.195  0.6451 -0.7107 -0.4769
  963MOL0     C27048   7.570   3.724   2.160 -0.7135 -0.3020  0.0891
  963MOL0     C27049   6.886   3.443   2.692  0.0870 -0.3709  0.0238
  963MOL0     C27050   6.814   3.491   2.798 -0.4586 -0.0966  0.4960
  963MOL0     H27051   6.426   3.503   3.046  0.9229  0.9430 -2.3783
  963MOL0     H27052   6.251   3.587   3.195  2.1764 -0.2186  3.9546
  963MOL0     H27053   6.161   3.713   3.452 -0.0694 -0.9174  0.1646
  963MOL0     H27054   6.092   3.713   3.281 -1.6838  0.0489  0.6840
  963MOL0     H27055   6.029   3.943   3.298 -0.9154 -2.8562 -1.4511
  963MOL0     H27056   6.058   3.954   3.468 -2.3320 -0.7931  2.8847
  963MOL0     H27057   5.894   3.750   3.488  0.1625 -2.1471 -1.4336
  963MOL0     H27058   5.842   3.793   3.316  0.3513  0.2931 -1.3381
  963MOL0     H27059   5.816   3.954   3.559 -3.4846  2.1122  0.5455
  963MOL0     H27060   5.771   4.029   3.410  0.7169  1.6598  3.2241
  963MOL0     H27061   5.652   3.784   3.538  0.3119  0.2598  1.3095
  963MOL0     H27062   5.619   3.832   3.372  1.2709 -1.2917  0.7821
  963MOL0     H27063   5.496   4.032   3.480  4.9608  4.4263  0.3050
  963MOL0     H27064   5.598   4.016   3.614 -2.0162 -1.1337  1.4370
  963MOL0     H27065   5.380   3.824   3.534 -2.8356 -0.7287  2.0132
  963MOL0     H27066   5.459   3.810   3.690 -3.2869  0.2575  0.9475
  963MOL0     H27067   5.322   4.065   3.591  1.4958 -0.5053 -0.9342
  963MOL0     H27068   5.372   4.018   3.763 -1.5566 -1.4946  0.6193
  963MOL0     H27069   5.183   3.838   3.888 -2.1158  5.3109  1.2290
  963MOL0     H27070   5.017   3.645   3.873  0.7603 -0.9691  0.3022
  963MOL0     H27071   4.990   3.571   3.709  1.8307  1.1918 -0.5403
  963MOL0     H27072   4.832   3.787   3.850  1.5902 -0.4618  0.9622
  963MOL0     H27073   4.788   3.618   3.878  2.1359 -0.1562  1.3301
  963MOL0     H27074   4.621   3.713   3.718 -0.2139  0.1433 -1.3221
  963MOL0     H27075   4.755   3.758   3.617  0.2936 -0.0698  0.9535
  963MOL0     H27076   4.712   3.464   3.679 -0.9904  2.2070  1.3373
  963MOL0     H27077   4.804   3.532   3.537 -0.6133  1.7068 -2.0352
  963MOL0     H27078   4.403   3.555   3.381  0.0087  2.4037  3.4321
  963MOL0     H27079   4.356   3.715   3.188  0.5208 -0.6865 -1.8105
  963MOL0     H27080   4.426   3.823   2.783 -0.3094  0.0129 -0.6825
  963MOL0     H27081   4.321   3.958   2.595 -2.0369 -2.3251  1.4593
  963MOL0     H27082   4.115   4.340   2.508 -2.0218  1.5975  2.5139
  963MOL0     H27083   4.163   4.365   2.679  0.5861 -1.8220  2.1951
  963MOL0     H27084   4.001   4.205   2.757  2.1254  0.7731 -0.1179
  963MOL0     H27085   3.976   4.147   2.586  1.2174 -2.6139  2.3068
  963MOL0     H27086   3.908   4.401   2.727 -3.4344  3.6846 -1.4351
  963MOL0     H27087   3.795   4.268   2.695  0.4342 -0.3564  0.1728
  963MOL0     H27088   3.958   4.452   2.506 -0.6538  2.3884  0.1553
  963MOL0     H27089   3.859   4.329   2.435 -1.9677 -0.2859 -0.1482
  963MOL0     H27090   3.723   4.535   2.616  2.5556 -0.0953  0.7892
  963MOL0     H27091   3.646   4.423   2.498  0.6632 -1.1960 -2.2767
  963MOL0     H27092   3.747   4.561   2.311  1.5347 -0.7000  0.0620
  963MOL0     H27093   3.819   4.657   2.443  1.2225 -2.7105  0.9961
  963MOL0     H27094   3.520   4.600   2.428 -1.2169  1.5786 -0.8362
  963MOL0     H27095   3.608   4.722   2.523 -2.2517 -1.6480  1.4013
  963MOL0     H27096   3.491   4.830   2.327  0.8224  1.9902 -2.5844
  963MOL0     H27097   3.571   4.719   2.220  2.0314  0.8578 -1.7425
  963MOL0     H27098   4.250   4.281   2.861  2.6517 -0.0790  0.9858
  963MOL0     H27099   4.349   4.173   3.035 -1.8794  2.8367 -1.5737
  963MOL0     H27100   4.747   3.881   3.230 -2.9733  3.0227  0.4565
  963MOL0     H27101   4.807   3.694   3.393  0.8774  1.1619 -1.5156
  963MOL0     H27102   6.482   3.932   3.278  0.6237 -1.3446  3.6028
  963MOL0     H27103   6.669   3.842   3.151  0.0325  0.4146  0.6658
  963MOL0     H27104   7.043   3.701   2.928  1.9957  0.0356 -2.1529
  963MOL0     H27105   7.170   3.625   2.737  0.5181  0.8838  0.1857
  963MOL0     H27106   7.261   3.515   2.557 -0.8443 -3.2164  1.1402
  963MOL0     H27107   7.139   3.616   2.478  1.4591  0.3641 -1.2910
  963MOL0     H27108   7.236   3.354   2.372 -0.1418 -0.9475 -0.5408
  963MOL0     H27109   7.137   3.472   2.287  0.1710  2.5220  0.3668
  963MOL0     H27110   7.384   3.448   2.246 -1.0832 -0.2069 -0.8391
  963MOL0     H27111   7.405   3.535   2.393 -1.3199  0.2228  1.7768
  963MOL0     H27112   7.259   3.652   2.147  1.2240  1.9238 -0.5912
  963MOL0     H27113   7.267   3.737   2.294 -0.8814 -0.4148  1.0187
  963MOL0     H27114   7.673   3.751   2.149 -0.9119  1.5049  1.9459
  963MOL0     H27115   6.828   3.366   2.640 -0.7656 -0.5777  1.2300
  963MOL0     H27116   6.716   3.451   2.822 -0.6541 -1.5623 -2.3312
  964MOL0     O27117   2.947   9.559   9.364  0.3302 -0.1075  0.3905
  964MOL0     C27118   3.012   9.659   9.343 -0.3628 -0.7858 -0.1264
  964MOL0     O27119   2.973   9.784   9.307  0.1937 -0.7655  0.3083
  964MOL0     C27120   2.838   9.814   9.310  0.1187  0.0339 -0.1065
  964MOL0     C27121   2.766   9.802   9.194 -0.1141  0.7830  0.3412
  964MOL0     C27122   2.627   9.813   9.193 -0.1903 -0.7202  0.8016
  964MOL0     C27123   2.559   9.863   9.302 -0.2470 -0.2218 -0.4196
  964MOL0     O27124   2.422   9.882   9.287 -0.3610  0.1383  0.0387
  964MOL0     C27125   2.346   9.891   9.413  0.4420 -0.3212 -0.2144
  964MOL0     C27126   2.200   9.903   9.373 -0.3610  0.8815  0.5546
  964MOL0     C27127   2.106   9.924   9.491  0.4147 -0.1725 -0.4605
  964MOL0     C27128   1.958   9.908   9.446  0.6203  0.3031  0.5833
  964MOL0     C27129   1.859   9.947   9.558 -0.0245  0.8045  0.5165
  964MOL0     C27130   1.710   9.953   9.510 -0.6845  0.3718 -0.2853
  964MOL0     C27131   1.624   9.986   9.624  0.2609 -0.3627  0.0384
  964MOL0     C27132   1.576   9.870   9.708 -0.1762  0.3540  0.4686
  964MOL0     N27133   1.502   9.909   9.828 -0.1321  0.0962  0.6321
  964MOL0     C27134   1.564   9.993   9.915 -0.8149 -0.8805  0.0719
  964MOL0     C27135   1.479   9.997  10.019  0.1273 -0.5622  0.0449
  964MOL0     C27136   1.476  10.096  10.136  0.5108 -1.2493 -1.0563
  964MOL0     C27137   1.493  10.239  10.098 -0.1498 -0.4694  0.8249
  964MOL0     C27138   1.466  10.344  10.212 -0.3875 -0.3761 -0.1965
  964MOL0     C27139   1.496  10.487  10.154  0.7966 -0.0864 -0.0524
  964MOL0     O27140   1.501  10.587  10.260  0.3701 -0.0770 -0.0614
  964MOL0     C27141   1.384  10.664  10.283  0.0357  0.2193 -0.1467
  964MOL0     C27142   1.253  10.626  10.255  0.1027 -0.2192  0.1576
  964MOL0     C27143   1.145  10.716  10.265  0.1551  0.3205 -0.0832
  964MOL0     C27144   1.169  10.844  10.316  0.1007  0.4009 -0.8337
  964MOL0     C27145   1.062  10.951  10.330 -0.1054 -0.0464 -0.5803
  964MOL0     O27146   0.939  10.899  10.320  1.1621  0.7569 -0.2466
  964MOL0     C27147   0.810  10.959  10.338 -0.7057  0.4117  0.5070
  964MOL0     C27148   0.717  10.865  10.346  1.3255 -0.9351 -0.0960
  964MOL0     C27149   0.584  10.904  10.332 -0.4816  0.3769  0.7540
  964MOL0     C27150   0.545  11.036  10.341 -0.3600  0.0079 -0.2474
  964MOL0     O27151   0.417  11.069  10.371  0.2315  0.5140 -0.2559
  964MOL0     C27152   0.316  10.965  10.381 -0.1450 -0.2999 -0.0499
  964MOL0     C27153   0.182  11.039  10.402 -0.2041  0.0281  0.3694
  964MOL0     C27154   0.137  11.117  10.279  0.3382  0.4976  0.5500
  964MOL0     C27155   0.007  11.188  10.309 -0.4891 -0.7271  0.8117
  964MOL0     C27156  -0.040  11.264  10.184 -0.0360  0.2736 -0.1709
  964MOL0     C27157  -0.150  11.366  10.224  0.3403 -0.2625 -0.1544
  964MOL0     C27158  -0.261  11.307  10.312 -0.5628  0.5252  0.3360
  964MOL0     C27159  -0.330  11.191  10.243  1.0934  0.4311  0.7978
  964MOL0    Cl27160  -0.386  11.239  10.081 -0.0021 -0.2078 -0.2315
  964MOL0     C27161   0.648  11.134  10.351  0.0745 -0.0682  0.6804
  964MOL0     C27162   0.776  11.093  10.340 -0.2988  0.2835  0.1961
  964MOL0     O27163   1.090  11.067  10.360  0.6851 -0.4964  0.6361
  964MOL0     C27164   1.301  10.878  10.352  0.0876  0.4785 -0.3440
  964MOL0     C27165   1.404  10.793  10.330 -0.3523 -0.6078 -0.0140
  964MOL0     N27166   1.384   9.904  10.005  0.0585  0.3239  0.1557
  964MOL0     N27167   1.395   9.847   9.891  0.5593 -0.1319 -0.3717
  964MOL0     C27168   2.629   9.881   9.418  0.0714 -0.0025  0.0014
  964MOL0     C27169   2.770   9.845   9.420  0.6624  0.1364 -0.4318
  964MOL0     C27170   3.160   9.639   9.340  0.7371 -0.2272  0.1442
  964MOL0     C27171   3.251   9.737   9.301 -0.8432  0.2739  0.3860
  964MOL0     C27172   3.382   9.706   9.300  0.1025  0.1779  0.9199
  964MOL0     C27173   3.449   9.592   9.358  1.2929  0.1539 -0.3673
  964MOL0     O27174   3.588   9.593   9.364  0.8944  0.2905  0.4347
  964MOL0     C27175   3.639   9.457   9.377  0.2381  0.5800 -0.3976
  964MOL0     C27176   3.786   9.462   9.363 -1.0771  0.0445 -0.1111
  964MOL0     C27177   3.831   9.501   9.223  0.6531  0.1928  0.6109
  964MOL0     C27178   3.981   9.535   9.220  0.1284 -1.0415 -0.0650
  964MOL0     C27179   4.048   9.543   9.085  0.5598  1.1525 -0.0127
  964MOL0     C27180   4.105   9.565   8.984  0.0973  0.2121  1.0175
  964MOL0     C27181   3.359   9.495   9.410 -0.2904 -0.9908 -0.9979
  964MOL0     C27182   3.218   9.515   9.384  0.9893  0.0649 -0.7060
  964MOL0     H27183   2.810   9.769   9.100  0.8240 -0.9624  1.3588
  964MOL0     H27184   2.562   9.789   9.110  0.0087 -0.3722  0.5442
  964MOL0     H27185   2.361   9.986   9.465 -0.6454  0.1794 -0.7892
  964MOL0     H27186   2.363   9.816   9.491 -1.8629 -0.5578  0.1051
  964MOL0     H27187   2.174   9.807   9.328 -0.4384  0.4184  1.5554
  964MOL0     H27188   2.195   9.986   9.302 -0.0326  2.2960  2.1118
  964MOL0     H27189   2.117  10.019   9.544 -2.5009  0.1199 -0.2176
  964MOL0     H27190   2.124   9.853   9.572  1.8690  0.3162 -0.3364
  964MOL0     H27191   1.945   9.967   9.355  1.8272 -1.5449 -0.8707
  964MOL0     H27192   1.938   9.805   9.413 -0.6859  1.8336 -4.3200
  964MOL0     H27193   1.896  10.044   9.592  1.0853  0.9944 -1.1083
  964MOL0     H27194   1.861   9.873   9.639  3.2661  1.6953  1.4302
  964MOL0     H27195   1.679   9.858   9.465 -1.9029  0.5875  0.0597
  964MOL0     H27196   1.700  10.032   9.435 -2.0301  1.0948  0.6118
  964MOL0     H27197   1.670  10.058   9.692 -5.6534  2.7796  1.4450
  964MOL0     H27198   1.534  10.038   9.589 -1.0035 -1.0156  2.1421
  964MOL0     H27199   1.665   9.816   9.742  0.4307  0.7179 -0.4795
  964MOL0     H27200   1.513   9.814   9.639  0.7306  2.9698 -2.8057
  964MOL0     H27201   1.649  10.057   9.896 -0.3151 -1.1592  1.2313
  964MOL0     H27202   1.550  10.070  10.213  1.3850  2.5109 -0.4450
  964MOL0     H27203   1.380  10.081  10.187  1.5714 -1.8492  0.8637
  964MOL0     H27204   1.439  10.265  10.007  1.5379 -1.8364 -0.6404
  964MOL0     H27205   1.601  10.244  10.080  0.0147  1.2446  2.0133
  964MOL0     H27206   1.363  10.332  10.247 -0.9581 -3.5539 -2.4822
  964MOL0     H27207   1.529  10.331  10.300 -2.2808  1.6298  1.5505
  964MOL0     H27208   1.433  10.530  10.076  0.0053 -0.1027  0.5654
  964MOL0     H27209   1.593  10.471  10.106  0.4526  0.8225 -1.0825
  964MOL0     H27210   1.233  10.524  10.225  1.3319  0.6086 -4.1502
  964MOL0     H27211   1.047  10.681  10.235  1.0081 -0.4025 -2.1469
  964MOL0     H27212   0.738  10.759  10.333 -1.3028 -1.5456  0.0361
  964MOL0     H27213   0.517  10.819  10.333 -2.6010  1.9810  0.9874
  964MOL0     H27214   0.331  10.907  10.473 -1.0224  1.2770  1.1345
  964MOL0     H27215   0.307  10.905  10.290 -1.4870  1.6436 -1.2807
  964MOL0     H27216   0.199  11.111  10.482  1.3305  0.1325 -0.0307
  964MOL0     H27217   0.103  10.969  10.431 -1.1485  0.7497 -0.3737
  964MOL0     H27218   0.128  11.047  10.195  2.1719  0.4641  0.3545
  964MOL0     H27219   0.208  11.197  10.256  0.2169  1.0359  1.9824
  964MOL0     H27220  -0.068  11.123  10.354 -0.1054 -1.1271  0.8810
  964MOL0     H27221   0.019  11.265  10.386 -1.1138  1.0166 -0.7561
  964MOL0     H27222  -0.075  11.185  10.118  1.0084 -0.1073 -0.2924
  964MOL0     H27223   0.049  11.310  10.139 -0.8993  5.2195  2.4741
  964MOL0     H27224  -0.197  11.415  10.139 -0.6971 -0.3756  0.3471
  964MOL0     H27225  -0.108  11.442  10.291  0.8666 -2.1579  1.7950
  964MOL0     H27226  -0.222  11.281  10.410  0.1487  0.9172  0.1607
  964MOL0     H27227  -0.329  11.388  10.342  0.2312  1.5716 -0.5605
  964MOL0     H27228  -0.415  11.170  10.309  0.1201 -0.8973 -0.8038
  964MOL0     H27229  -0.278  11.095  10.237 -2.1842 -1.4368 -2.0080
  964MOL0     H27230   0.614  11.237  10.357 -3.2611 -1.0582  0.9929
  964MOL0     H27231   0.854  11.168  10.349  1.2683 -0.8181 -2.8111
  964MOL0     H27232   1.318  10.976  10.395  2.9750 -0.4255  0.7721
  964MOL0     H27233   1.503  10.820  10.364  0.7254 -2.9555 -1.0644
  964MOL0     H27234   2.584   9.895   9.516  0.4403 -0.1380  0.1928
  964MOL0     H27235   2.821   9.837   9.515  2.1434 -3.6810 -1.3765
  964MOL0     H27236   3.214   9.834   9.271  3.2846  1.7549 -0.5508
  964MOL0     H27237   3.446   9.785   9.261 -1.4988 -0.8293 -4.4836
  964MOL0     H27238   3.600   9.394   9.296  0.3581  2.3017 -1.8413
  964MOL0     H27239   3.606   9.411   9.470  0.7015 -1.7577 -1.2961
  964MOL0     H27240   3.829   9.534   9.433  0.3535 -0.4456 -0.4557
  964MOL0     H27241   3.834   9.369   9.395 -1.4239 -0.0581  0.1177
  964MOL0     H27242   3.759   9.566   9.171 -2.2784 -1.2739  2.5567
  964MOL0     H27243   3.832   9.406   9.168 -0.2645  0.6737 -0.2958
  964MOL0     H27244   3.995   9.634   9.264 -3.8500 -0.1825 -0.3109
  964MOL0     H27245   4.034   9.465   9.286  1.6004  1.6078  1.7142
  964MOL0     H27246   4.163   9.590   8.897  0.4984 -0.1555  1.1752
  964MOL0     H27247   3.383   9.395   9.446 -2.8521 -1.0563  0.8517
  964MOL0     H27248   3.153   9.434   9.415  0.9812  0.1455 -0.5092
  965MOL0     O27249  10.518  10.474   0.201 -0.3203 -0.1225  0.6792
  965MOL0     C27250  10.492  10.390   0.286  0.1640 -0.9978  0.8141
  965MOL0     O27251  10.380  10.386   0.364 -0.1942 -0.1050 -0.5793
  965MOL0     C27252  10.293  10.496   0.360  0.0073  0.3941 -0.6558
  965MOL0     C27253  10.159  10.463   0.399  0.6211 -0.7571  1.2016
  965MOL0     C27254  10.062  10.559   0.417 -0.4158  0.2621  0.1231
  965MOL0     C27255  10.090  10.692   0.379  0.0655  0.3800 -1.0061
  965MOL0     O27256  10.015  10.800   0.398  0.3339 -0.3664 -0.5244
  965MOL0     C27257   9.874  10.803   0.404  0.2990  0.3465  0.3593
  965MOL0     C27258   9.839  10.942   0.456  0.3146  0.1158 -1.0496
  965MOL0     C27259   9.903  10.965   0.600  0.3602 -0.2782 -0.0390
  965MOL0     C27260   9.940  11.116   0.627 -1.0020  0.2265 -0.2697
  965MOL0     C27261  10.002  11.143   0.761 -0.3281 -0.5481 -0.7456
  965MOL0     C27262  10.132  11.068   0.794  0.6004 -0.5379 -0.1876
  965MOL0     C27263  10.250  11.108   0.707  0.9174 -0.1857  0.9262
  965MOL0     C27264  10.388  11.034   0.751 -0.0723 -0.9461  0.0339
  965MOL0     N27265  10.424  11.059   0.894 -0.9396  1.1433  1.0095
  965MOL0     C27266  10.385  10.993   1.005 -0.5864 -0.6461  0.2704
  965MOL0     C27267  10.424  11.064   1.108 -0.4154 -0.9516  0.1919
  965MOL0     C27268  10.397  11.034   1.252 -0.6457  0.2665  0.7716
  965MOL0     C27269  10.257  10.982   1.270 -0.0979  0.3904 -0.9726
  965MOL0     C27270  10.204  10.986   1.418 -0.1955 -0.1141 -0.5304
  965MOL0     C27271  10.065  10.921   1.426  1.0179  0.9833 -0.2680
  965MOL0     O27272   9.971  11.019   1.391 -0.2771 -0.6660  0.6044
  965MOL0     C27273   9.839  10.983   1.363  0.1619 -0.3198  0.6981
  965MOL0     C27274   9.783  10.855   1.386 -0.2166 -0.3852 -0.2393
  965MOL0     C27275   9.657  10.823   1.342  0.0726 -0.5239  0.3556
  965MOL0     C27276   9.574  10.924   1.279 -0.5498  0.0699 -0.5340
  965MOL0     C27277   9.434  10.907   1.255  0.3330  1.0749  0.5578
  965MOL0     O27278   9.366  10.828   1.343 -0.2789  0.5120  0.6454
  965MOL0     C27279   9.231  10.824   1.334 -0.4498  0.7963  0.2699
  965MOL0     C27280   9.163  10.711   1.376 -1.0414  0.4774 -0.4889
  965MOL0     C27281   9.026  10.709   1.398  0.7247  0.5586  1.1402
  965MOL0     C27282   8.945  10.823   1.396 -0.2984  0.4230 -0.2044
  965MOL0     O27283   8.822  10.815   1.458 -0.4970  0.1818  0.4874
  965MOL0     C27284   8.720  10.779   1.364 -0.5471  0.8524 -0.4452
  965MOL0     C27285   8.593  10.744   1.426  1.1199  0.7965  0.6244
  965MOL0     C27286   8.518  10.853   1.483  0.5533 -0.0766  0.1964
  965MOL0     C27287   8.373  10.816   1.538 -0.0176 -0.4447  0.5058
  965MOL0     C27288   8.304  10.938   1.603 -0.2441 -0.2404 -1.0554
  965MOL0     C27289   8.175  10.973   1.540 -0.5777  0.1418  0.0931
  965MOL0     C27290   8.196  11.032   1.391  0.6363 -0.0005 -0.1976
  965MOL0     C27291   8.071  11.080   1.323 -0.6931 -0.2910  0.4544
  965MOL0    Cl27292   8.005  11.220   1.426 -0.0703 -0.4375 -0.3339
  965MOL0     C27293   9.013  10.944   1.358  0.1544 -0.5124  0.1327
  965MOL0     C27294   9.150  10.938   1.324 -0.0111 -0.0737  0.2597
  965MOL0     O27295   9.400  10.940   1.142  0.0358  0.6884 -0.9327
  965MOL0     C27296   9.637  11.048   1.251 -1.1464  0.2363  0.1301
  965MOL0     C27297   9.764  11.077   1.286 -0.7955 -0.5890 -0.2033
  965MOL0     N27298  10.502  11.172   1.060 -0.0707 -0.1727 -0.2217
  965MOL0     N27299  10.512  11.148   0.935 -0.2958 -0.1772  0.9655
  965MOL0     C27300  10.215  10.723   0.325  0.1877 -0.5053  0.0055
  965MOL0     C27301  10.318  10.629   0.330 -0.6130  0.4685  0.1452
  965MOL0     C27302  10.607  10.292   0.314 -0.6513  0.3923  0.0541
  965MOL0     C27303  10.743  10.316   0.275 -0.3522  1.1119  0.4608
  965MOL0     C27304  10.846  10.225   0.307  0.2213  0.7761 -0.8898
  965MOL0     C27305  10.814  10.110   0.377 -0.1237  0.3843 -0.5811
  965MOL0     O27306  10.920  10.019   0.388 -0.4083  0.4571 -0.8227
  965MOL0     C27307  10.902   9.910   0.477  0.2240 -0.0880  0.1113
  965MOL0     C27308  10.831   9.797   0.406  0.0377  0.2044  0.3779
  965MOL0     C27309  10.858   9.664   0.479  0.0124  0.7530  0.6637
  965MOL0     C27310  10.742   9.576   0.422  0.7381 -0.1027 -0.4720
  965MOL0     C27311  10.748   9.447   0.500 -0.0697 -0.3103  0.9438
  965MOL0     C27312  10.746   9.348   0.568  0.1636  0.0111 -0.4877
  965MOL0     C27313  10.691  10.092   0.438  1.1931 -0.4986 -0.1094
  965MOL0     C27314  10.587  10.182   0.401 -0.2547  0.6563 -0.9538
  965MOL0     H27315  10.126  10.362   0.418 -3.4028  0.4938  1.8874
  965MOL0     H27316   9.966  10.532   0.459 -1.9728  2.3718 -1.8061
  965MOL0     H27317   9.822  10.727   0.461  2.4813 -1.9257 -0.4899
  965MOL0     H27318   9.831  10.791   0.304  1.7273  1.8310 -0.5006
  965MOL0     H27319   9.730  10.941   0.454  0.2874  0.8826 -0.5037
  965MOL0     H27320   9.866  11.031   0.398 -0.9266  1.0700 -0.2252
  965MOL0     H27321   9.993  10.907   0.622 -1.4733 -3.3269 -0.0348
  965MOL0     H27322   9.826  10.930   0.668 -0.3639  0.6678 -0.3492
  965MOL0     H27323  10.009  11.155   0.552 -2.5167 -1.1863 -2.5141
  965MOL0     H27324   9.849  11.177   0.621  0.0591  2.0688  1.1900
  965MOL0     H27325   9.928  11.122   0.839 -0.1675  0.3158 -0.3500
  965MOL0     H27326  10.030  11.248   0.774 -1.9446 -0.2419  0.6894
  965MOL0     H27327  10.118  10.959   0.803  2.0388 -0.6731  0.9342
  965MOL0     H27328  10.144  11.100   0.898 -0.4622  2.3177 -0.8502
  965MOL0     H27329  10.236  11.083   0.602  0.5061 -1.2718  1.2213
  965MOL0     H27330  10.267  11.216   0.701 -1.8541  0.2592 -0.5149
  965MOL0     H27331  10.459  11.089   0.688  0.0938 -0.1564  0.8906
  965MOL0     H27332  10.381  10.926   0.735 -0.6336 -0.6080 -2.4515
  965MOL0     H27333  10.323  10.904   1.000 -1.2460 -0.1499 -0.7983
  965MOL0     H27334  10.409  11.128   1.307  1.9636  2.1857 -2.6479
  965MOL0     H27335  10.469  10.968   1.301  0.5310  1.6301  0.9776
  965MOL0     H27336  10.262  10.880   1.231  1.4609  1.6304 -4.4516
  965MOL0     H27337  10.198  11.036   1.196  0.4422  0.4873 -1.3439
  965MOL0     H27338  10.268  10.918   1.476 -2.6391 -1.0496  1.2149
  965MOL0     H27339  10.199  11.085   1.463  3.0950 -1.2685  2.9743
  965MOL0     H27340  10.050  10.892   1.530  0.1425 -0.4905 -0.7695
  965MOL0     H27341  10.050  10.829   1.367 -0.7518 -0.8067  2.6962
  965MOL0     H27342   9.842  10.780   1.437  2.2300  1.5167 -0.0998
  965MOL0     H27343   9.621  10.724   1.367 -1.2820 -0.0518  0.3246
  965MOL0     H27344   9.226  10.628   1.404 -2.7432  0.2040  3.1320
  965MOL0     H27345   9.002  10.613   1.444 -0.6986 -0.2503 -1.1059
  965MOL0     H27346   8.754  10.691   1.309  3.0287  2.4462 -1.0154
  965MOL0     H27347   8.704  10.863   1.295  3.1998  1.3832 -0.8512
  965MOL0     H27348   8.617  10.674   1.506  0.9265  0.2395  0.2049
  965MOL0     H27349   8.539  10.684   1.352 -0.8635 -2.8942  4.6243
  965MOL0     H27350   8.508  10.922   1.399  0.3304 -1.1787 -0.6953
  965MOL0     H27351   8.576  10.902   1.562  1.1787 -0.6900  0.1269
  965MOL0     H27352   8.316  10.780   1.453  2.0542 -1.9508 -0.3303
  965MOL0     H27353   8.383  10.735   1.611 -2.4456 -1.4158 -0.1642
  965MOL0     H27354   8.375  11.022   1.602 -0.9816  0.4749  0.9508
  965MOL0     H27355   8.277  10.918   1.707  2.8952  1.2867  0.1887
  965MOL0     H27356   8.124  11.046   1.604 -0.2672 -1.2204  1.9638
  965MOL0     H27357   8.119  10.879   1.541  1.8941 -1.4268  1.1401
  965MOL0     H27358   8.261  11.120   1.390 -0.5007  0.8757 -1.1312
  965MOL0     H27359   8.238  10.956   1.324 -2.7729 -0.4397 -2.0930
  965MOL0     H27360   7.999  10.998   1.313 -0.1678 -0.6641 -0.3710
  965MOL0     H27361   8.103  11.115   1.224 -5.4396 -1.9853 -2.0059
  965MOL0     H27362   8.963  11.040   1.365 -0.5806 -0.7380 -1.5902
  965MOL0     H27363   9.201  11.029   1.294  1.3675 -1.1950 -0.9522
  965MOL0     H27364   9.586  11.131   1.203 -0.0990  0.1994 -1.0866
  965MOL0     H27365   9.808  11.168   1.248 -2.2325 -0.0244 -0.5688
  965MOL0     H27366  10.240  10.829   0.313 -0.8703 -0.1327  0.9890
  965MOL0     H27367  10.420  10.650   0.299 -0.7369 -2.8282 -3.2244
  965MOL0     H27368  10.775  10.400   0.213  0.4080 -0.7324 -1.7840
  965MOL0     H27369  10.948  10.239   0.271  0.8322 -2.8737 -0.9023
  965MOL0     H27370  10.846   9.929   0.568  2.5008 -1.6523  1.9811
  965MOL0     H27371  11.000   9.877   0.514  1.5740  1.9870 -1.3989
  965MOL0     H27372  10.726   9.828   0.407 -0.3703 -1.1005  1.1761
  965MOL0     H27373  10.866   9.785   0.303 -0.2985 -0.9436  0.3903
  965MOL0     H27374  10.853   9.672   0.588  0.9253  0.5059  0.7329
  965MOL0     H27375  10.957   9.633   0.444 -1.0834 -0.7485 -1.3688
  965MOL0     H27376  10.643   9.621   0.434  0.4005 -1.2617  1.5303
  965MOL0     H27377  10.749   9.568   0.314 -4.6653 -1.2182 -1.0439
  965MOL0     H27378  10.732   9.259   0.625  2.8844 -0.4209 -0.3184
  965MOL0     H27379  10.663  10.006   0.498 -1.8043  0.8594  0.6562
  965MOL0     H27380  10.490  10.170   0.447  0.6836 -1.9002  0.5443
  966MOL0     O27381   1.061   9.252   5.888 -0.2166 -0.7151  0.6320
  966MOL0     C27382   1.058   9.139   5.925 -0.4770  0.3667  1.2336
  966MOL0     O27383   1.159   9.069   5.982  0.3263  0.5802 -0.1026
  966MOL0     C27384   1.285   9.124   5.996 -0.2458  0.1639  0.5719
  966MOL0     C27385   1.388   9.048   5.936 -0.8844  0.0860  0.2741
  966MOL0     C27386   1.521   9.079   5.949 -0.0958  0.2619  0.0351
  966MOL0     C27387   1.562   9.184   6.031 -0.7382  1.0917  0.6156
  966MOL0     O27388   1.690   9.218   6.061 -0.1471 -0.4136  0.4867
  966MOL0     C27389   1.777   9.228   5.948 -0.0311  0.2928  1.0120
  966MOL0     C27390   1.914   9.263   6.010 -0.4268  0.1454  0.0668
  966MOL0     C27391   2.035   9.286   5.913 -0.1572  0.3684  0.7457
  966MOL0     C27392   2.143   9.356   5.984 -0.6105  0.9796  0.6350
  966MOL0     C27393   2.273   9.347   5.904 -0.6806  0.4451  0.3943
  966MOL0     C27394   2.391   9.431   5.959  0.4061 -0.9905 -0.1337
  966MOL0     C27395   2.508   9.411   5.863 -0.1500  0.0874  0.0232
  966MOL0     C27396   2.633   9.491   5.903 -0.1739  0.6207  0.0140
  966MOL0     N27397   2.739   9.519   5.799 -0.9068 -0.8445  1.1705
  966MOL0     C27398   2.778   9.652   5.757  0.4550  1.0799 -0.2616
  966MOL0     C27399   2.878   9.637   5.670  0.0718  0.5509  0.5488
  966MOL0     C27400   2.957   9.753   5.626 -0.4993 -0.7476 -0.8674
  966MOL0     C27401   2.945   9.800   5.484  0.1325 -0.2690 -0.1882
  966MOL0     C27402   2.996   9.938   5.469 -0.2628 -0.6375 -0.8635
  966MOL0     C27403   3.024   9.998   5.326  0.1191  0.5380 -0.5402
  966MOL0     O27404   3.057  10.133   5.327  0.7849 -0.9419 -0.5461
  966MOL0     C27405   3.180  10.182   5.354  0.2145 -0.3810 -0.6265
  966MOL0     C27406   3.170  10.316   5.408 -0.0530  0.5484  0.1638
  966MOL0     C27407   3.290  10.390   5.426 -0.1518  0.4352 -0.2530
  966MOL0     C27408   3.418  10.325   5.399  0.0173  0.7153 -0.0686
  966MOL0     C27409   3.544  10.398   5.426 -0.8408  0.1853 -0.6763
  966MOL0     O27410   3.527  10.512   5.497 -0.4322 -0.2386  0.0299
  966MOL0     C27411   3.642  10.580   5.525  1.1296  1.1667 -0.4513
  966MOL0     C27412   3.698  10.672   5.441 -0.7215 -1.1034  0.2823
  966MOL0     C27413   3.815  10.744   5.470 -0.7371 -0.0557  0.1287
  966MOL0     C27414   3.884  10.709   5.588 -1.2308  0.4336  0.2018
  966MOL0     O27415   4.006  10.766   5.621 -0.2968 -0.2505  0.0749
  966MOL0     C27416   4.125  10.696   5.590 -0.7560  0.4280  0.6428
  966MOL0     C27417   4.197  10.669   5.716 -0.6300 -0.8986 -0.0833
  966MOL0     C27418   4.328  10.592   5.690 -0.4508  1.0201  0.8951
  966MOL0     C27419   4.380  10.550   5.829 -0.0237  0.5306 -1.7588
  966MOL0     C27420   4.506  10.456   5.814  0.4622  0.4357 -0.7039
  966MOL0     C27421   4.641  10.524   5.801 -0.7201  0.1024  0.1403
  966MOL0     C27422   4.765  10.432   5.833  0.1189  0.1857  0.0216
  966MOL0     C27423   4.899  10.490   5.887 -0.3358  0.5145  0.7306
  966MOL0    Cl27424   4.856  10.559   6.051 -0.2473  0.1434  0.2404
  966MOL0     C27425   3.828  10.619   5.677 -0.8602  0.1828 -0.0044
  966MOL0     C27426   3.708  10.556   5.643  0.7109 -0.5860  0.1763
  966MOL0     O27427   3.649  10.341   5.396 -0.1373 -0.2163  0.6837
  966MOL0     C27428   3.423  10.191   5.363 -1.0276 -0.0724  0.2999
  966MOL0     C27429   3.305  10.121   5.331 -0.3134 -0.4750  0.2539
  966MOL0     N27430   2.909   9.502   5.662  0.4606  0.8124 -0.4647
  966MOL0     N27431   2.839   9.435   5.750  0.4268  0.4621 -0.6858
  966MOL0     C27432   1.454   9.242   6.102  0.0253 -0.8847 -0.4686
  966MOL0     C27433   1.320   9.223   6.088 -0.5235  0.7771 -0.0737
  966MOL0     C27434   0.928   9.069   5.913  0.1910 -1.0605 -0.2506
  966MOL0     C27435   0.892   8.962   6.001  0.1305  0.7014  0.7402
  966MOL0     C27436   0.761   8.913   6.005  0.4519  0.6980 -0.4545
  966MOL0     C27437   0.670   8.958   5.911  0.1345 -1.0887  0.2015
  966MOL0     O27438   0.547   8.895   5.901  0.1510 -0.4156  0.5310
  966MOL0     C27439   0.446   8.945   5.816  0.3934 -0.3308  0.1683
  966MOL0     C27440   0.314   8.879   5.823 -0.0905 -0.3658  0.1575
  966MOL0     C27441   0.251   8.903   5.955  0.6674 -0.8843 -1.3884
  966MOL0     C27442   0.103   8.848   5.972 -0.4440 -0.4250  0.6589
  966MOL0     C27443   0.009   8.895   5.863 -0.0786  0.2157 -0.2410
  966MOL0     C27444  -0.062   8.943   5.774 -0.0327  0.1639 -0.7522
  966MOL0     C27445   0.707   9.057   5.816  0.3425  0.1389 -0.0019
  966MOL0     C27446   0.836   9.110   5.816  0.2974  0.4054  0.6983
  966MOL0     H27447   1.353   8.970   5.869 -0.4162  0.2929 -0.2255
  966MOL0     H27448   1.587   9.012   5.894 -1.0209  1.1560 -2.2931
  966MOL0     H27449   1.740   9.309   5.884  0.9810  1.4368  1.8250
  966MOL0     H27450   1.774   9.138   5.887  3.2768  1.5315 -1.2912
  966MOL0     H27451   1.937   9.178   6.075  0.2773 -0.7574 -1.3125
  966MOL0     H27452   1.893   9.353   6.068 -1.1623  1.3687 -1.9984
  966MOL0     H27453   1.996   9.355   5.838 -1.0188 -0.2015  0.6493
  966MOL0     H27454   2.070   9.195   5.862  0.8571  1.2394 -0.1655
  966MOL0     H27455   2.109   9.458   6.005 -0.0375  1.8034 -2.0532
  966MOL0     H27456   2.166   9.307   6.079  2.5970  1.8834  0.4323
  966MOL0     H27457   2.251   9.375   5.800  0.6720 -0.0666 -0.0528
  966MOL0     H27458   2.315   9.247   5.893  0.0606  0.9175 -1.5692
  966MOL0     H27459   2.412   9.393   6.059 -1.2350  0.7007  0.8957
  966MOL0     H27460   2.364   9.537   5.965  0.7588 -0.9783  1.8453
  966MOL0     H27461   2.523   9.303   5.854 -2.5072 -0.3083  0.3835
  966MOL0     H27462   2.481   9.446   5.762  1.4667 -0.2008 -0.5392
  966MOL0     H27463   2.674   9.432   5.985  1.9625 -1.6385 -2.4864
  966MOL0     H27464   2.618   9.588   5.952 -1.1852 -0.1405  1.2698
  966MOL0     H27465   2.735   9.745   5.793  1.3917  1.5027 -0.1884
  966MOL0     H27466   3.063   9.728   5.633 -0.7537 -1.7646 -0.6239
  966MOL0     H27467   2.934   9.832   5.698 -0.2969 -1.5963  0.1513
  966MOL0     H27468   2.845   9.791   5.440  0.7197 -2.5454 -1.2261
  966MOL0     H27469   3.007   9.735   5.421 -0.4329  1.4080 -2.6017
  966MOL0     H27470   2.920  10.013   5.495 -0.8637 -0.8123 -2.0411
  966MOL0     H27471   3.082   9.955   5.534 -1.0674  0.2633  0.0128
  966MOL0     H27472   2.930  10.002   5.272  0.3422  0.4619 -0.9394
  966MOL0     H27473   3.103   9.936   5.282  0.4753 -1.0741  2.1531
  966MOL0     H27474   3.083  10.381   5.422  0.6008  1.6209 -0.5700
  966MOL0     H27475   3.271  10.495   5.446 -2.8470 -0.1211  0.4254
  966MOL0     H27476   3.648  10.686   5.346  1.0807 -3.4404 -1.1180
  966MOL0     H27477   3.841  10.823   5.401 -0.9993  1.6502  1.8952
  966MOL0     H27478   4.187  10.772   5.541 -0.7045  0.1854  0.3238
  966MOL0     H27479   4.119  10.605   5.529 -0.2256 -0.2244  1.5285
  966MOL0     H27480   4.136  10.605   5.780  0.3586 -3.8945 -1.9476
  966MOL0     H27481   4.220  10.761   5.771 -0.6774 -0.9093 -0.0459
  966MOL0     H27482   4.402  10.649   5.633 -0.3299  0.6368  0.6615
  966MOL0     H27483   4.297  10.503   5.634 -2.8196  3.8892 -2.8592
  966MOL0     H27484   4.403  10.646   5.877  0.9119  0.2604 -1.6575
  966MOL0     H27485   4.300  10.489   5.873  1.5589  0.6797  1.6567
  966MOL0     H27486   4.499  10.377   5.739 -0.2417  0.6180 -0.8380
  966MOL0     H27487   4.502  10.393   5.904 -0.8130 -1.3379 -1.9521
  966MOL0     H27488   4.640  10.615   5.861  2.6163  1.0328 -1.0152
  966MOL0     H27489   4.650  10.562   5.699 -0.5086 -1.5195 -0.4778
  966MOL0     H27490   4.723  10.359   5.903 -2.3198  0.6887 -0.8206
  966MOL0     H27491   4.779  10.370   5.744 -1.4350  0.1820 -0.2424
  966MOL0     H27492   4.941  10.570   5.825 -0.8030 -1.5489 -2.4481
  966MOL0     H27493   4.972  10.409   5.888 -0.3114  0.5084 -0.3014
  966MOL0     H27494   3.887  10.588   5.762  1.4929 -1.1679 -1.9755
  966MOL0     H27495   3.669  10.478   5.708 -1.1263 -0.6768 -0.9735
  966MOL0     H27496   3.519  10.146   5.340  0.2461  3.1078 -1.2288
  966MOL0     H27497   3.332  10.029   5.279  1.4175  0.1057  0.0701
  966MOL0     H27498   1.476   9.324   6.170  0.0427 -1.2495 -0.0344
  966MOL0     H27499   1.240   9.285   6.128 -0.0560  1.3897 -0.0712
  966MOL0     H27500   0.963   8.918   6.070 -0.4092  0.1132  0.9398
  966MOL0     H27501   0.722   8.831   6.065  0.9579 -0.7486 -2.0376
  966MOL0     H27502   0.474   8.927   5.713  0.6341  0.4535  0.0861
  966MOL0     H27503   0.418   9.050   5.835 -1.2103 -0.8856  1.0764
  966MOL0     H27504   0.249   8.908   5.740  0.6947 -0.9221 -0.6703
  966MOL0     H27505   0.332   8.774   5.798 -0.7898 -0.3982 -0.2334
  966MOL0     H27506   0.242   9.010   5.979  0.0336 -1.3741  0.7819
  966MOL0     H27507   0.319   8.858   6.029  0.6929 -0.0531 -0.8921
  966MOL0     H27508   0.106   8.739   5.972 -1.3338 -0.5196 -1.5386
  966MOL0     H27509   0.070   8.881   6.070  0.8875  1.3614  0.5492
  966MOL0     H27510  -0.126   8.985   5.699 -0.5785  0.9039  0.1031
  966MOL0     H27511   0.641   9.099   5.742 -3.2532 -1.5076  1.9974
  966MOL0     H27512   0.867   9.186   5.745 -5.5529  2.4976 -0.2224
  967MOL0     O27513   6.612   5.604  10.832  0.2117 -0.4381  0.7450
  967MOL0     C27514   6.662   5.498  10.866  0.6017  0.3186 -1.6523
  967MOL0     O27515   6.597   5.394  10.933 -0.2220  0.0955 -0.6556
  967MOL0     C27516   6.463   5.392  10.933  1.2058  0.2314  1.1185
  967MOL0     C27517   6.395   5.398  11.060  0.3744  0.4561 -0.3546
  967MOL0     C27518   6.259   5.404  11.063 -0.1558  0.6670  0.3482
  967MOL0     C27519   6.177   5.379  10.957  0.1239  0.7380 -0.6211
  967MOL0     O27520   6.038   5.379  10.991  0.4078 -0.8055  0.7696
  967MOL0     C27521   5.950   5.339  10.884 -0.7155  0.6432  0.8533
  967MOL0     C27522   5.802   5.328  10.932  0.4881  0.0617  0.1264
  967MOL0     C27523   5.702   5.303  10.820  0.0475 -0.2584  0.7083
  967MOL0     C27524   5.561   5.310  10.879 -0.8553 -0.4114  0.8656
  967MOL0     C27525   5.462   5.296  10.767  0.1978 -0.0362 -0.1398
  967MOL0     C27526   5.324   5.322  10.811  0.6348  0.4134  0.2717
  967MOL0     C27527   5.226   5.269  10.703 -0.2059  0.1832  0.8031
  967MOL0     C27528   5.090   5.237  10.756  0.3914 -0.4771  0.2975
  967MOL0     N27529   5.010   5.360  10.773  0.0475  0.3084 -0.2314
  967MOL0     C27530   4.949   5.452  10.681  0.2744  0.7742  0.4159
  967MOL0     C27531   4.879   5.535  10.753  0.2925  0.4904 -1.0514
  967MOL0     C27532   4.787   5.632  10.689 -0.1787 -0.0151 -0.0980
  967MOL0     C27533   4.686   5.561  10.605 -0.8872  0.4089  0.8659
  967MOL0     C27534   4.568   5.655  10.574 -1.5150 -0.3880  0.8577
  967MOL0     C27535   4.600   5.744  10.451 -0.2156 -0.2401 -0.5137
  967MOL0     O27536   4.478   5.835  10.417 -0.2666  0.4769 -0.1913
  967MOL0     C27537   4.365   5.772  10.382 -0.7420 -0.3636  0.1748
  967MOL0     C27538   4.357   5.644  10.334  0.5460  0.4122  0.1803
  967MOL0     C27539   4.234   5.590  10.283 -0.7040 -0.0495  0.1731
  967MOL0     C27540   4.121   5.669  10.290  0.4216 -0.3947  0.3410
  967MOL0     C27541   3.988   5.616  10.235 -0.1014  0.5262 -0.0206
  967MOL0     O27542   3.878   5.699  10.243 -0.6810  0.6913 -0.8040
  967MOL0     C27543   3.756   5.651  10.221 -1.1639  0.3813  0.0236
  967MOL0     C27544   3.726   5.579  10.101  0.9320 -0.2989 -0.4225
  967MOL0     C27545   3.591   5.541  10.080 -0.0967 -0.7530  0.7734
  967MOL0     C27546   3.490   5.589  10.160 -0.7671 -0.0891  0.1898
  967MOL0     O27547   3.369   5.542  10.119  1.0988  0.1512  0.1471
  967MOL0     C27548   3.278   5.470  10.214 -0.5237 -0.3196  0.8097
  967MOL0     C27549   3.210   5.351  10.150  0.9497 -0.1088 -0.5785
  967MOL0     C27550   3.119   5.393  10.038  0.2034  0.0308 -0.4974
  967MOL0     C27551   3.037   5.268   9.992 -0.2277 -0.1386 -0.2361
  967MOL0     C27552   2.921   5.305   9.906  0.2507  0.1089  0.3149
  967MOL0     C27553   2.862   5.181   9.837 -0.1197  1.1907 -0.4851
  967MOL0     C27554   2.727   5.210   9.773 -0.4720 -1.4179 -0.3596
  967MOL0     C27555   2.627   5.101   9.788  0.0683  0.3286 -0.4188
  967MOL0    Cl27556   2.565   5.078   9.955  0.1425 -0.1076 -0.1721
  967MOL0     C27557   3.516   5.656  10.276 -0.3458  0.9485 -0.2850
  967MOL0     C27558   3.655   5.697  10.306  0.6246  0.7653 -0.8790
  967MOL0     O27559   3.991   5.505  10.174 -0.1578 -0.3726  0.4931
  967MOL0     C27560   4.127   5.799  10.345  0.6805 -0.1085  1.1840
  967MOL0     C27561   4.257   5.851  10.387  0.3384 -0.3711  0.3129
  967MOL0     N27562   4.900   5.508  10.889 -0.2713  0.0724  0.1724
  967MOL0     N27563   4.983   5.415  10.896  0.1755  0.8852  0.3941
  967MOL0     C27564   6.239   5.355  10.831  0.1417  0.0310 -0.0409
  967MOL0     C27565   6.379   5.359  10.823  0.7238  0.0306 -0.4150
  967MOL0     C27566   6.807   5.487  10.856  0.8911  0.2379 -0.4604
  967MOL0     C27567   6.879   5.576  10.774 -0.2133 -0.1681 -1.0166
  967MOL0     C27568   7.016   5.577  10.767  0.0399 -0.4428  0.6774
  967MOL0     C27569   7.087   5.482  10.843 -0.1387  0.3313  0.3774
  967MOL0     O27570   7.223   5.482  10.817  0.2617  0.3767 -0.2555
  967MOL0     C27571   7.311   5.415  10.907  0.0288 -0.0579  0.3506
  967MOL0     C27572   7.321   5.262  10.863  0.3681  0.5835  0.3203
  967MOL0     C27573   7.409   5.255  10.729  0.6322  0.5055  0.1597
  967MOL0     C27574   7.305   5.244  10.615 -0.3010  0.4070 -0.0045
  967MOL0     C27575   7.381   5.198  10.492  0.4778  0.1540 -0.0502
  967MOL0     C27576   7.451   5.176  10.399  0.0248 -0.3469 -0.5040
  967MOL0     C27577   7.014   5.386  10.920  0.0776 -0.1985  0.4290
  967MOL0     C27578   6.872   5.384  10.920  0.0756  0.0024  0.4217
  967MOL0     H27579   6.457   5.410  11.149  2.5089  0.2373 -1.7383
  967MOL0     H27580   6.209   5.412  11.159 -0.7956  1.7707 -0.0567
  967MOL0     H27581   5.972   5.241  10.839 -0.5654  0.8055  0.5746
  967MOL0     H27582   5.961   5.414  10.806  0.7660  1.4111  1.7355
  967MOL0     H27583   5.772   5.421  10.982  0.0477 -0.4202  0.7691
  967MOL0     H27584   5.790   5.247  11.004  0.5457  0.5307  0.6736
  967MOL0     H27585   5.727   5.207  10.773 -0.2387  0.3306 -0.7147
  967MOL0     H27586   5.705   5.376  10.738  1.0284 -1.1386 -0.0743
  967MOL0     H27587   5.540   5.233  10.954 -0.1247 -1.8230 -0.3255
  967MOL0     H27588   5.548   5.408  10.926 -0.2796  1.7244 -3.0093
  967MOL0     H27589   5.476   5.194  10.730 -1.7053 -0.9235  1.4113
  967MOL0     H27590   5.478   5.366  10.684  1.3328 -0.1016  0.0094
  967MOL0     H27591   5.317   5.430  10.827  0.2656  0.9201 -2.6517
  967MOL0     H27592   5.304   5.267  10.903 -1.8481 -0.8535 -0.9192
  967MOL0     H27593   5.216   5.336  10.617  0.9152 -0.1963  0.3572
  967MOL0     H27594   5.253   5.171  10.663  0.9545 -0.8382  3.8401
  967MOL0     H27595   5.094   5.179  10.848 -1.2036 -1.5928 -0.2826
  967MOL0     H27596   5.030   5.177  10.686 -0.1861 -1.8653  1.9215
  967MOL0     H27597   4.944   5.441  10.573  2.0623  1.9421  0.1708
  967MOL0     H27598   4.852   5.696  10.628 -0.7743  0.3130 -0.3951
  967MOL0     H27599   4.745   5.692  10.770  0.8662  0.6576 -0.0385
  967MOL0     H27600   4.650   5.473  10.659 -0.1617 -0.5575 -0.1743
  967MOL0     H27601   4.726   5.528  10.508  0.4943  2.2662  0.7570
  967MOL0     H27602   4.479   5.597  10.549 -1.9196 -0.1891  1.8012
  967MOL0     H27603   4.542   5.724  10.655 -1.7266  1.4417 -0.7106
  967MOL0     H27604   4.624   5.680  10.366 -0.5845  1.2319 -1.7828
  967MOL0     H27605   4.676   5.817  10.478 -0.9424  0.4774 -0.3437
  967MOL0     H27606   4.449   5.593  10.308  0.7769  1.3166 -0.8493
  967MOL0     H27607   4.244   5.498  10.226  2.5792 -0.2483  0.8473
  967MOL0     H27608   3.805   5.544  10.035  1.0320  0.0580 -0.4994
  967MOL0     H27609   3.563   5.483   9.992 -3.0253 -0.5215  1.4370
  967MOL0     H27610   3.197   5.539  10.242 -0.2973 -0.4801  1.9023
  967MOL0     H27611   3.335   5.438  10.302 -1.3741 -1.1121  1.0869
  967MOL0     H27612   3.160   5.300  10.233 -0.8350  2.5178  0.0878
  967MOL0     H27613   3.284   5.281  10.109  0.4010 -0.5779 -0.7936
  967MOL0     H27614   3.180   5.433   9.957 -0.9451  1.5675 -0.6311
  967MOL0     H27615   3.059   5.477  10.072  0.6243  0.1079  0.0896
  967MOL0     H27616   3.109   5.205   9.939  0.9812  2.7942 -2.3710
  967MOL0     H27617   3.007   5.221  10.086 -0.1982  1.1728  0.4429
  967MOL0     H27618   2.959   5.365   9.823 -2.9327 -1.7744 -2.7988
  967MOL0     H27619   2.847   5.370   9.954 -1.8330 -0.8086 -1.4397
  967MOL0     H27620   2.852   5.093   9.902  1.6310  1.2467 -0.0814
  967MOL0     H27621   2.932   5.145   9.762  0.9166 -2.2753  1.8862
  967MOL0     H27622   2.684   5.293   9.830  1.0929 -0.3541 -0.6781
  967MOL0     H27623   2.737   5.246   9.670  1.4088 -4.2159 -1.2745
  967MOL0     H27624   2.668   5.003   9.761 -0.5422 -0.2491  0.6669
  967MOL0     H27625   2.540   5.115   9.723 -0.4903  0.3486  0.3253
  967MOL0     H27626   3.438   5.674  10.349  2.3778 -0.9907  3.3946
  967MOL0     H27627   3.679   5.746  10.401 -0.3095  0.7563 -0.6247
  967MOL0     H27628   4.046   5.871  10.351  1.9738  1.3617  2.1545
  967MOL0     H27629   4.271   5.954  10.419 -3.2457 -0.3594  2.4004
  967MOL0     H27630   6.182   5.314  10.748 -0.4116 -1.9435  1.2374
  967MOL0     H27631   6.425   5.342  10.726  0.0786 -0.0586 -0.7079
  967MOL0     H27632   6.831   5.656  10.717 -1.6152 -0.2563 -0.0192
  967MOL0     H27633   7.077   5.642  10.706 -1.7031  2.0340  1.4219
  967MOL0     H27634   7.277   5.424  11.011  2.0883 -0.3766  1.0834
  967MOL0     H27635   7.412   5.455  10.899 -0.5035  0.9757 -1.8182
  967MOL0     H27636   7.374   5.211  10.944  2.2631  1.0015 -0.5960
  967MOL0     H27637   7.223   5.217  10.847 -0.5256  2.5943 -0.2344
  967MOL0     H27638   7.470   5.164  10.725 -3.0521 -2.1899 -2.0170
  967MOL0     H27639   7.475   5.339  10.707 -0.5704  0.5473 -4.0740
  967MOL0     H27640   7.227   5.168  10.628 -0.1289  0.1932 -0.2116
  967MOL0     H27641   7.251   5.338  10.598 -0.9361  0.0469 -0.0131
  967MOL0     H27642   7.525   5.153  10.324  0.6524  0.9032 -0.3007
  967MOL0     H27643   7.068   5.312  10.978  2.2119  0.8651 -0.1280
  967MOL0     H27644   6.818   5.309  10.976  1.2867 -1.7078 -0.5942
  968MOL0     O27645  10.113   5.846   1.523 -0.1940  0.1006  0.4720
  968MOL0     C27646  10.133   5.902   1.629 -1.1263 -0.7501 -0.3429
  968MOL0     O27647  10.056   5.907   1.736  0.1613 -0.0559 -0.0072
  968MOL0     C27648   9.942   5.836   1.731  0.7320  0.2200 -0.5398
  968MOL0     C27649   9.954   5.695   1.735  0.0482 -0.2259  0.2554
  968MOL0     C27650   9.834   5.612   1.748  0.6520  0.0458 -0.7642
  968MOL0     C27651   9.703   5.670   1.762 -0.1092  0.4477 -0.2440
  968MOL0     O27652   9.576   5.599   1.769  0.5041  0.0129 -0.0200
  968MOL0     C27653   9.576   5.484   1.843  0.5992  0.4356 -0.4115
  968MOL0     C27654   9.439   5.483   1.917  1.1712 -0.0970 -0.3165
  968MOL0     C27655   9.395   5.340   1.940  0.2185 -0.2033 -0.0964
  968MOL0     C27656   9.239   5.344   1.956 -0.7965 -0.3181 -1.2901
  968MOL0     C27657   9.170   5.205   1.968  0.2236 -0.5136  0.2900
  968MOL0     C27658   9.027   5.218   2.033  0.7002 -0.3283  0.2285
  968MOL0     C27659   8.962   5.081   2.030  0.6573 -0.3441  0.5721
  968MOL0     C27660   8.811   5.090   2.053  0.1448  0.9987 -0.2144
  968MOL0     N27661   8.763   4.958   1.998 -0.4471  0.2486  0.2360
  968MOL0     C27662   8.817   4.838   2.041  0.3867  0.7248  0.3104
  968MOL0     C27663   8.753   4.739   1.959 -0.3489  0.6396 -0.0014
  968MOL0     C27664   8.772   4.590   1.972  0.9846 -0.6783  0.3452
  968MOL0     C27665   8.649   4.507   1.995  0.9759  0.7610  0.1675
  968MOL0     C27666   8.546   4.516   1.886  0.5154 -0.3179 -0.5463
  968MOL0     C27667   8.429   4.429   1.901 -0.3927  0.6088  0.3399
  968MOL0     O27668   8.371   4.427   1.770  0.7036  0.0277  0.0658
  968MOL0     C27669   8.244   4.368   1.761  0.8252  0.9112 -0.0903
  968MOL0     C27670   8.191   4.377   1.626 -0.1070 -0.5457  0.4581
  968MOL0     C27671   8.066   4.327   1.596 -0.9724  0.2033  0.2578
  968MOL0     C27672   7.992   4.267   1.698 -0.0375  0.3387 -0.5879
  968MOL0     C27673   7.859   4.211   1.675  0.6588 -0.6173 -0.2467
  968MOL0     O27674   7.795   4.248   1.560  0.1947  0.3128  0.5232
  968MOL0     C27675   7.668   4.198   1.544 -0.2326  0.6225  0.1521
  968MOL0     C27676   7.642   4.067   1.501  1.6951 -0.6509  0.2512
  968MOL0     C27677   7.504   4.020   1.480  0.0511  0.5658  0.1357
  968MOL0     C27678   7.397   4.096   1.517  0.7454 -0.1432  0.3908
  968MOL0     O27679   7.266   4.067   1.495  0.0381  0.1162  0.2843
  968MOL0     C27680   7.228   3.957   1.417 -0.1896 -0.2138  0.0811
  968MOL0     C27681   7.094   3.982   1.354  0.2337 -0.3022 -0.6042
  968MOL0     C27682   6.989   4.041   1.438  0.8970 -0.0914 -1.0762
  968MOL0     C27683   6.859   4.051   1.361 -0.7368  1.2117 -0.0029
  968MOL0     C27684   6.763   4.141   1.444 -0.0583 -0.3800 -0.0921
  968MOL0     C27685   6.628   4.067   1.479  0.3042 -0.1046  0.5242
  968MOL0     C27686   6.532   4.055   1.362 -0.5228  0.6416 -1.1599
  968MOL0     C27687   6.393   3.990   1.407 -0.4013  0.4579  0.5345
  968MOL0    Cl27688   6.287   4.129   1.470 -0.2088 -0.0869 -0.0124
  968MOL0     C27689   7.422   4.225   1.553  0.8936 -0.4770 -0.3886
  968MOL0     C27690   7.556   4.277   1.563  0.1995  0.0014 -0.5391
  968MOL0     O27691   7.812   4.135   1.758 -0.0674  0.5859  0.2443
  968MOL0     C27692   8.048   4.247   1.826  0.3970 -0.5343 -0.7722
  968MOL0     C27693   8.173   4.305   1.860 -0.5656  0.4085 -0.5658
  968MOL0     N27694   8.670   4.808   1.877 -0.8627 -0.0709  0.1192
  968MOL0     N27695   8.673   4.941   1.896  0.5863 -0.3197 -0.0864
  968MOL0     C27696   9.696   5.805   1.744 -0.0028 -0.2687  1.3533
  968MOL0     C27697   9.812   5.888   1.733 -0.6860  0.5504 -0.5179
  968MOL0     C27698  10.257   5.982   1.628 -0.3005  0.4296 -0.2264
  968MOL0     C27699  10.276   6.086   1.718 -0.6699 -0.4851 -0.9464
  968MOL0     C27700  10.386   6.171   1.709  0.6629  0.9318 -0.4798
  968MOL0     C27701  10.487   6.144   1.619 -0.8914 -0.0971 -0.7360
  968MOL0     O27702  10.591   6.230   1.623  0.0120  0.1587  0.3339
  968MOL0     C27703  10.671   6.237   1.509  0.6993  0.0392  0.0397
  968MOL0     C27704  10.774   6.355   1.533  0.4050  0.2866  0.3631
  968MOL0     C27705  10.717   6.489   1.519 -0.0764  0.6844 -0.0518
  968MOL0     C27706  10.814   6.597   1.523 -0.3299  0.7917  0.1036
  968MOL0     C27707  10.757   6.730   1.492 -0.1202  0.0277  0.6926
  968MOL0     C27708  10.711   6.830   1.442 -0.2349  0.2380 -0.1004
  968MOL0     C27709  10.465   6.036   1.527 -0.4247  0.0275  0.6246
  968MOL0     C27710  10.356   5.957   1.533 -0.3843 -0.3382 -0.8249
  968MOL0     H27711  10.058   5.665   1.730 -0.2447 -1.1204 -1.0797
  968MOL0     H27712   9.845   5.504   1.757  0.6725  0.0809 -0.3417
  968MOL0     H27713   9.653   5.481   1.921  1.4398  0.8160 -1.1947
  968MOL0     H27714   9.587   5.401   1.771 -3.3780  1.6439 -2.7192
  968MOL0     H27715   9.368   5.538   1.854  0.6145 -3.2825 -2.8106
  968MOL0     H27716   9.450   5.536   2.012  1.5054  0.3225 -0.5860
  968MOL0     H27717   9.442   5.299   2.030  0.5195  1.0488  0.3355
  968MOL0     H27718   9.412   5.274   1.855 -2.5637 -2.3633  0.9116
  968MOL0     H27719   9.215   5.409   2.041  0.6617  0.6115 -1.5586
  968MOL0     H27720   9.196   5.393   1.868 -0.2074  1.4950 -0.6122
  968MOL0     H27721   9.233   5.137   2.026 -0.0140  0.8178  2.1823
  968MOL0     H27722   9.165   5.169   1.865  1.5157  3.0295 -1.1681
  968MOL0     H27723   8.963   5.291   1.982  1.3917  0.1657  0.0533
  968MOL0     H27724   9.033   5.251   2.137  0.5091 -1.0366  0.4668
  968MOL0     H27725   8.964   5.036   1.930 -2.5242  0.4403  0.0237
  968MOL0     H27726   9.019   5.013   2.093 -1.0354 -0.5131  1.9822
  968MOL0     H27727   8.758   5.175   2.009 -1.0154  2.0570  2.9635
  968MOL0     H27728   8.781   5.108   2.156  2.1652  0.7140  0.4495
  968MOL0     H27729   8.882   4.834   2.127 -0.6033 -0.6011  1.0346
  968MOL0     H27730   8.828   4.584   2.066  1.1263 -0.3430  0.2853
  968MOL0     H27731   8.826   4.552   1.885  0.2365  2.3526 -1.6083
  968MOL0     H27732   8.603   4.531   2.091 -1.2598 -0.2875 -0.5687
  968MOL0     H27733   8.675   4.401   1.993  0.1792  0.5718 -0.7671
  968MOL0     H27734   8.507   4.618   1.875 -0.3200 -0.8597 -3.3226
  968MOL0     H27735   8.593   4.489   1.791  1.9580  1.4729 -0.3977
  968MOL0     H27736   8.357   4.469   1.973 -0.2471  1.8546 -0.1940
  968MOL0     H27737   8.460   4.329   1.933 -1.8999  0.6750  2.1718
  968MOL0     H27738   8.250   4.427   1.550 -2.5488 -0.1591 -1.3382
  968MOL0     H27739   8.046   4.335   1.489 -0.3344  1.5381  0.2193
  968MOL0     H27740   7.731   4.010   1.479  2.2751 -0.9771  3.0738
  968MOL0     H27741   7.497   3.916   1.449  1.1744  1.1454 -2.3477
  968MOL0     H27742   7.237   3.860   1.466  2.1037 -1.6424 -2.8669
  968MOL0     H27743   7.299   3.955   1.334  0.2328 -1.8395  0.4534
  968MOL0     H27744   7.052   3.898   1.298  1.0747 -0.6259 -0.7687
  968MOL0     H27745   7.105   4.054   1.272  2.3021  0.8822  0.6211
  968MOL0     H27746   7.014   4.134   1.490 -3.0319  0.6769 -0.2607
  968MOL0     H27747   6.980   3.974   1.524  1.0167 -2.1871 -2.6055
  968MOL0     H27748   6.881   4.104   1.268  0.9020 -0.2177 -0.4843
  968MOL0     H27749   6.828   3.949   1.333 -5.7798  1.8367  2.2454
  968MOL0     H27750   6.740   4.236   1.394  3.2743  1.6576  1.8166
  968MOL0     H27751   6.809   4.177   1.537 -1.3399 -0.8352  0.7350
  968MOL0     H27752   6.577   4.128   1.554 -3.3685 -2.9184  0.5865
  968MOL0     H27753   6.648   3.972   1.529  0.2753  0.0187  0.7702
  968MOL0     H27754   6.518   4.155   1.319  0.5042  1.9770  1.3984
  968MOL0     H27755   6.588   3.992   1.293 -1.0279 -1.4220  0.2321
  968MOL0     H27756   6.396   3.915   1.486 -3.5341 -0.4773 -0.0964
  968MOL0     H27757   6.347   3.937   1.323  0.0769 -0.3136  0.7495
  968MOL0     H27758   7.343   4.298   1.564  2.4595  1.2671 -0.2779
  968MOL0     H27759   7.564   4.380   1.596 -0.8569 -0.1106  0.0807
  968MOL0     H27760   7.999   4.183   1.899 -1.1258 -1.5625 -2.6226
  968MOL0     H27761   8.220   4.291   1.956 -1.0674 -1.0962 -0.5133
  968MOL0     H27762   9.603   5.861   1.736  0.7388  0.7543 -1.4347
  968MOL0     H27763   9.816   5.996   1.719  0.6215  0.3467 -2.0193
  968MOL0     H27764  10.187   6.121   1.771  0.8560  1.8989  0.1894
  968MOL0     H27765  10.379   6.267   1.761  2.8521  1.5473 -1.2103
  968MOL0     H27766  10.603   6.252   1.425  0.7421 -0.2720 -0.0503
  968MOL0     H27767  10.723   6.142   1.493 -1.6328 -1.4583  0.7970
  968MOL0     H27768  10.819   6.345   1.633 -2.1642 -1.2684  1.4699
  968MOL0     H27769  10.852   6.340   1.458 -0.2808  0.4075 -0.3920
  968MOL0     H27770  10.639   6.514   1.592 -0.9515 -0.8516 -0.3952
  968MOL0     H27771  10.667   6.498   1.422  2.3871  3.9852 -1.2039
  968MOL0     H27772  10.858   6.590   1.623 -1.0747  0.9674  0.4523
  968MOL0     H27773  10.889   6.576   1.446 -0.2974  4.2525 -0.9578
  968MOL0     H27774  10.669   6.915   1.392 -1.1999 -0.0069  0.2674
  968MOL0     H27775  10.539   6.008   1.452 -2.4852 -1.6192 -0.9476
  968MOL0     H27776  10.338   5.877   1.462  1.0720  1.2309 -3.0933
  969MOL0     O27777  10.283   0.510   9.497  0.4445 -0.4156  0.3459
  969MOL0     C27778  10.326   0.573   9.592  0.5085  0.6352 -0.7955
  969MOL0     O27779  10.254   0.598   9.705 -0.5343 -0.1168  0.7863
  969MOL0     C27780  10.167   0.499   9.738  0.2467 -0.2455 -0.9098
  969MOL0     C27781  10.205   0.394   9.813 -0.3774 -0.7185  0.0192
  969MOL0     C27782  10.117   0.299   9.860  0.3740 -0.0883 -0.1579
  969MOL0     C27783   9.985   0.318   9.840  0.5206  0.1667 -0.0771
  969MOL0     O27784   9.897   0.229   9.894  0.0596 -0.3953  0.1815
  969MOL0     C27785   9.766   0.204   9.841 -0.6210  0.0984  0.7314
  969MOL0     C27786   9.721   0.059   9.869 -0.3492  0.1832  0.7115
  969MOL0     C27787   9.566   0.037   9.873  0.6527 -0.8380 -0.6084
  969MOL0     C27788   9.492   0.117   9.981 -0.5183 -0.5760  0.1751
  969MOL0     C27789   9.351   0.075   9.997 -0.4435  0.4427 -0.1785
  969MOL0     C27790   9.278   0.164  10.102  1.1858  0.7205  0.6579
  969MOL0     C27791   9.134   0.121  10.151 -0.8707 -0.3258 -0.1761
  969MOL0     C27792   9.027   0.139  10.038 -0.1512 -0.1312  0.0128
  969MOL0     N27793   8.889   0.121  10.075  0.6771 -0.1749  0.3344
  969MOL0     C27794   8.775   0.148   9.999  0.1006  0.1056 -0.1609
  969MOL0     C27795   8.677   0.073  10.059  0.3522  0.6312 -0.1197
  969MOL0     C27796   8.539   0.059   9.995  0.2287 -0.5344 -0.3784
  969MOL0     C27797   8.435   0.089  10.101  0.8286 -0.6813 -0.4551
  969MOL0     C27798   8.440   0.236  10.159  0.4545  0.0329  0.5609
  969MOL0     C27799   8.334   0.261  10.259 -0.4811 -0.2978 -0.6836
  969MOL0     O27800   8.201   0.243  10.200 -0.4379 -0.1214  0.6289
  969MOL0     C27801   8.100   0.262  10.287 -0.5567 -0.0666 -1.2531
  969MOL0     C27802   7.981   0.313  10.230  0.2517  0.0580  0.3091
  969MOL0     C27803   7.865   0.333  10.311  0.3940 -0.9621  0.2747
  969MOL0     C27804   7.865   0.304  10.447 -1.3204 -0.8238  0.2846
  969MOL0     C27805   7.745   0.318  10.522 -0.4257  1.1984 -1.0731
  969MOL0     O27806   7.629   0.350  10.464 -0.6760 -0.7638 -0.2630
  969MOL0     C27807   7.526   0.346  10.544  1.0038 -0.3180 -0.4327
  969MOL0     C27808   7.475   0.221  10.580  0.2197 -0.4076 -0.1363
  969MOL0     C27809   7.358   0.217  10.658 -0.2230  0.1426 -0.4494
  969MOL0     C27810   7.296   0.333  10.712 -0.1260 -0.5119  0.3161
  969MOL0     O27811   7.186   0.336  10.793  0.3723  0.2813 -0.6471
  969MOL0     C27812   7.090   0.223  10.779 -0.4704 -0.6849  0.5363
  969MOL0     C27813   6.960   0.231  10.858  0.2297  0.0652 -0.4172
  969MOL0     C27814   6.881   0.105  10.819 -0.4094 -0.1270  0.2655
  969MOL0     C27815   6.738   0.139  10.865  0.4535  0.5242  0.3540
  969MOL0     C27816   6.708   0.142  11.010  0.1380 -0.2317  0.3615
  969MOL0     C27817   6.561   0.119  11.023  0.4085  0.0318  0.0772
  969MOL0     C27818   6.498   0.123  11.160  0.2658  0.3928  0.1222
  969MOL0     C27819   6.344   0.123  11.167 -0.5547  0.5508 -0.5596
  969MOL0    Cl27820   6.287   0.270  11.093 -0.0257 -0.2922 -0.0873
  969MOL0     C27821   7.361   0.451  10.686 -1.2856  0.1429  0.4593
  969MOL0     C27822   7.466   0.466  10.589  0.6148  0.7903 -1.2657
  969MOL0     O27823   7.759   0.296  10.644  0.4285  0.0099 -0.2357
  969MOL0     C27824   7.989   0.260  10.503  0.1299  0.4438 -0.4794
  969MOL0     C27825   8.098   0.245  10.422 -0.4142  0.4351 -0.3784
  969MOL0     N27826   8.719   0.016  10.174 -0.0612  0.6798  0.0476
  969MOL0     N27827   8.846   0.045  10.178  0.0132 -0.0742 -0.2012
  969MOL0     C27828   9.946   0.427   9.769  0.2113 -0.2951  0.5102
  969MOL0     C27829  10.033   0.514   9.709 -0.6335  0.0362  0.4744
  969MOL0     C27830  10.467   0.627   9.589 -0.7347 -0.2018  0.1343
  969MOL0     C27831  10.496   0.732   9.679  0.3733 -0.0915  0.0574
  969MOL0     C27832  10.617   0.804   9.669 -0.3449 -0.3948  0.0820
  969MOL0     C27833  10.711   0.762   9.572  0.1488  0.6215 -0.9508
  969MOL0     O27834  10.829   0.832   9.554  0.5987 -0.7689  0.2205
  969MOL0     C27835  10.888   0.830   9.425 -0.6679 -0.3736 -0.3991
  969MOL0     C27836  10.942   0.977   9.401  0.1673  0.1368  0.0962
  969MOL0     C27837  11.046   0.986   9.285  0.2779 -0.7042  0.0478
  969MOL0     C27838  11.117   1.126   9.294 -0.1698  1.1548 -0.4644
  969MOL0     C27839  11.217   1.134   9.192 -0.3980  0.5057  0.1220
  969MOL0     C27840  11.318   1.130   9.121 -0.2717  0.2557  0.1412
  969MOL0     C27841  10.682   0.648   9.492  0.3597 -1.0989  0.8805
  969MOL0     C27842  10.564   0.579   9.507 -0.4480  0.3025  0.2686
  969MOL0     H27843  10.312   0.386   9.833  0.0528 -0.9164 -2.0849
  969MOL0     H27844  10.150   0.204   9.900 -0.7340 -0.4957 -0.1615
  969MOL0     H27845   9.738   0.236   9.740 -3.4680  0.5751  1.5714
  969MOL0     H27846   9.700   0.265   9.903  1.8864  0.1242  3.6026
  969MOL0     H27847   9.772   0.026   9.961 -1.5248 -1.3737  0.8579
  969MOL0     H27848   9.769   0.006   9.787 -0.2297  3.3257 -1.3978
  969MOL0     H27849   9.536  -0.066   9.890 -2.2647 -0.5905 -3.3631
  969MOL0     H27850   9.538   0.062   9.771  2.5023  1.1892 -0.7081
  969MOL0     H27851   9.538   0.109  10.079 -0.8203 -3.7735  0.1458
  969MOL0     H27852   9.491   0.215   9.931  1.1268 -0.7319 -0.2152
  969MOL0     H27853   9.354  -0.024  10.044  3.3829  1.6720  2.6988
  969MOL0     H27854   9.292   0.082   9.905 -2.9820 -1.4348  1.1604
  969MOL0     H27855   9.270   0.264  10.058 -1.4342 -0.2832 -1.4813
  969MOL0     H27856   9.337   0.162  10.193 -3.6385  0.9488  4.1733
  969MOL0     H27857   9.116   0.025  10.199 -2.7149  1.1555  2.3413
  969MOL0     H27858   9.117   0.201  10.224 -0.0172  0.6664 -1.0320
  969MOL0     H27859   9.048   0.071   9.956  1.3526 -0.0679  0.3280
  969MOL0     H27860   9.032   0.242  10.000 -1.1656  0.2345  0.8010
  969MOL0     H27861   8.767   0.207   9.908  1.2854 -0.2565 -0.5253
  969MOL0     H27862   8.539  -0.034   9.938 -0.8227  1.5785 -4.2826
  969MOL0     H27863   8.531   0.141   9.922 -0.0916  2.0857  2.4252
  969MOL0     H27864   8.451   0.023  10.187 -0.1160 -0.1419  0.1573
  969MOL0     H27865   8.343   0.071  10.046  0.7719  0.6882 -0.8300
  969MOL0     H27866   8.538   0.251  10.205 -0.0029  4.2337  0.4834
  969MOL0     H27867   8.431   0.313  10.082  1.7360 -2.0487 -1.8178
  969MOL0     H27868   8.344   0.364  10.295  1.9396 -0.9687  0.7817
  969MOL0     H27869   8.345   0.191  10.343 -0.6222  0.3184 -0.1452
  969MOL0     H27870   7.981   0.348  10.127 -1.3422  0.5847  0.4609
  969MOL0     H27871   7.775   0.374  10.267 -0.2179 -2.2792  0.2374
  969MOL0     H27872   7.530   0.131  10.554 -0.3002 -0.7465 -0.0799
  969MOL0     H27873   7.307   0.125  10.683  1.4141 -1.4415 -2.5980
  969MOL0     H27874   7.147   0.132  10.802  1.7399  0.2847 -0.8011
  969MOL0     H27875   7.074   0.220  10.671  0.4786 -0.1134  0.3718
  969MOL0     H27876   6.904   0.322  10.836  1.6578  1.0264 -0.1719
  969MOL0     H27877   6.974   0.245  10.965  2.5612 -1.5742 -0.4342
  969MOL0     H27878   6.933   0.018  10.858  1.9493 -0.6536 -3.5783
  969MOL0     H27879   6.879   0.098  10.710 -3.0314 -0.5342  0.2901
  969MOL0     H27880   6.700   0.228  10.813 -3.8826 -1.3538 -0.0532
  969MOL0     H27881   6.686   0.052  10.825  2.0484  0.1120 -0.9469
  969MOL0     H27882   6.735   0.238  11.055 -1.3195  0.2505  0.2419
  969MOL0     H27883   6.766   0.073  11.072  1.1352  1.4636  1.3813
  969MOL0     H27884   6.524   0.026  10.977 -1.4549  0.2333  1.0639
  969MOL0     H27885   6.516   0.208  10.978 -0.2374 -1.0426 -1.4830
  969MOL0     H27886   6.526   0.035  11.218 -1.3724 -1.4601 -1.7397
  969MOL0     H27887   6.534   0.209  11.217  2.2566  0.7021 -1.4654
  969MOL0     H27888   6.311   0.121  11.271 -0.8910 -2.8026 -0.6170
  969MOL0     H27889   6.296   0.034  11.123 -3.4318  2.0006 -0.6173
  969MOL0     H27890   7.325   0.543  10.732  4.1262  1.1909  3.5260
  969MOL0     H27891   7.505   0.561  10.554  0.9585  0.3066 -2.2280
  969MOL0     H27892   7.998   0.219  10.603 -0.4797 -1.9012 -1.2993
  969MOL0     H27893   8.186   0.208  10.474 -0.1753  0.1303 -0.9931
  969MOL0     H27894   9.841   0.444   9.746  0.5190  0.0828 -0.7041
  969MOL0     H27895   9.997   0.599   9.651 -0.1376 -0.2564 -0.2802
  969MOL0     H27896  10.418   0.774   9.741  0.8163 -1.4392  1.6153
  969MOL0     H27897  10.645   0.883   9.737 -0.4995  1.4529 -1.8980
  969MOL0     H27898  10.816   0.803   9.347 -0.5183  2.4463 -1.6486
  969MOL0     H27899  10.976   0.766   9.428 -0.8780 -0.6388  0.7245
  969MOL0     H27900  10.858   1.045   9.385  0.1541  0.8225  2.7092
  969MOL0     H27901  10.991   1.007   9.494  2.5457 -0.2451 -0.9657
  969MOL0     H27902  10.989   0.990   9.192  0.3971  0.6810  0.0140
  969MOL0     H27903  11.123   0.909   9.289  0.0922 -1.0898 -2.3569
  969MOL0     H27904  11.045   1.206   9.271 -1.5256  0.8202  2.2806
  969MOL0     H27905  11.165   1.138   9.391  1.2403  1.3225 -1.1528
  969MOL0     H27906  11.396   1.123   9.048 -1.1202  1.8806 -0.9723
  969MOL0     H27907  10.753   0.599   9.427 -1.1837 -0.9506 -0.9894
  969MOL0     H27908  10.554   0.500   9.433  0.1302  1.3493 -0.9826
  970MOL0     O27909   4.966   8.736   9.207  0.1759 -0.6471  0.3406
  970MOL0     C27910   4.975   8.707   9.090  0.3201  0.1020  0.1631
  970MOL0     O27911   4.890   8.634   9.014  0.0805  0.3746  0.4969
  970MOL0     C27912   4.769   8.578   9.045 -0.6244 -0.4747 -0.1911
  970MOL0     C27913   4.750   8.537   9.178  0.6131 -0.2270  0.2361
  970MOL0     C27914   4.633   8.452   9.193  0.0317 -0.2574 -0.3312
  970MOL0     C27915   4.533   8.425   9.092  0.7165 -1.3401  0.4888
  970MOL0     O27916   4.429   8.338   9.116 -0.1416 -1.1267 -0.6423
  970MOL0     C27917   4.340   8.358   9.227 -0.1703 -0.7818  0.1253
  970MOL0     C27918   4.222   8.459   9.201  0.5626 -0.2769 -0.1944
  970MOL0     C27919   4.126   8.398   9.093  0.4300  0.4045  0.2597
  970MOL0     C27920   3.992   8.473   9.090  0.2786 -0.4502  0.3849
  970MOL0     C27921   3.893   8.416   8.983  0.3553 -0.8280 -0.6022
  970MOL0     C27922   3.771   8.515   8.975  0.6865 -0.1475  0.3482
  970MOL0     C27923   3.672   8.449   8.881 -0.0268 -0.1045 -0.5188
  970MOL0     C27924   3.545   8.529   8.890  0.1260  0.5261  0.0471
  970MOL0     N27925   3.431   8.475   8.814 -0.4798  0.8984  0.2614
  970MOL0     C27926   3.359   8.363   8.838  0.1693 -0.9136  0.3408
  970MOL0     C27927   3.261   8.358   8.748 -0.1433  0.3938 -0.6219
  970MOL0     C27928   3.185   8.235   8.720 -0.2177  0.1077  0.5327
  970MOL0     C27929   3.048   8.278   8.674 -0.5766  0.1024  0.2691
  970MOL0     C27930   2.947   8.167   8.702  0.3789 -0.5615  0.6333
  970MOL0     C27931   2.805   8.227   8.691  0.4034  1.0610  0.0856
  970MOL0     O27932   2.716   8.116   8.705  0.4413  0.4275 -0.0986
  970MOL0     C27933   2.584   8.135   8.684 -0.8506 -0.9147 -1.0624
  970MOL0     C27934   2.494   8.026   8.690 -0.8659  0.0654  0.2336
  970MOL0     C27935   2.357   8.038   8.658  0.4755  0.1377  0.0117
  970MOL0     C27936   2.297   8.163   8.633  0.2540  0.7172 -0.2447
  970MOL0     C27937   2.156   8.168   8.594 -0.0059  0.2511 -0.4159
  970MOL0     O27938   2.094   8.054   8.583 -0.0433 -0.6385 -0.0631
  970MOL0     C27939   1.952   8.055   8.563  0.5896  0.0851 -0.1143
  970MOL0     C27940   1.903   7.981   8.453  0.3740  0.6684  0.7203
  970MOL0     C27941   1.766   7.944   8.439  0.5657  0.5386 -0.2030
  970MOL0     C27942   1.673   8.002   8.529  0.5129 -0.2465  0.5441
  970MOL0     O27943   1.541   7.966   8.517  0.1214  0.5137  0.2978
  970MOL0     C27944   1.459   7.967   8.627  1.2181  0.4339  0.0325
  970MOL0     C27945   1.324   7.902   8.595 -1.1022  0.3978 -0.1403
  970MOL0     C27946   1.339   7.747   8.586 -0.0418 -0.3278 -0.2649
  970MOL0     C27947   1.202   7.693   8.550 -0.2225  0.0637  0.1737
  970MOL0     C27948   1.187   7.544   8.564 -0.8199 -0.1976 -0.8843
  970MOL0     C27949   1.238   7.472   8.437  0.3209 -0.8853 -0.0445
  970MOL0     C27950   1.216   7.317   8.445 -0.3285 -0.3851 -0.7265
  970MOL0     C27951   1.189   7.262   8.302  0.6426 -0.5976 -1.4311
  970MOL0    Cl27952   1.333   7.281   8.194  0.2545  0.1554 -0.1641
  970MOL0     C27953   1.722   8.090   8.629  0.2014 -0.9522 -0.0204
  970MOL0     C27954   1.859   8.118   8.646 -0.3537  0.1178 -0.5012
  970MOL0     O27955   2.107   8.281   8.595  0.2158 -0.5552 -1.0149
  970MOL0     C27956   2.385   8.274   8.624  0.4922 -0.2460  0.4905
  970MOL0     C27957   2.524   8.267   8.658 -0.1678 -0.3030 -1.2318
  970MOL0     N27958   3.272   8.470   8.672  0.1234 -0.0514 -0.4698
  970MOL0     N27959   3.373   8.543   8.713  0.4296 -0.9150 -0.2057
  970MOL0     C27960   4.558   8.476   8.964  0.4079 -0.5828  0.8319
  970MOL0     C27961   4.680   8.543   8.943 -0.0472 -0.1739  0.6264
  970MOL0     C27962   5.095   8.756   9.016 -0.9017  0.7072 -0.5793
  970MOL0     C27963   5.181   8.854   9.072 -0.2796  0.3200  0.1627
  970MOL0     C27964   5.307   8.876   9.018  0.3454 -0.1706 -0.1407
  970MOL0     C27965   5.348   8.814   8.901  0.1909  0.7525  0.2609
  970MOL0     O27966   5.465   8.844   8.842  0.8089  0.5382 -0.2890
  970MOL0     C27967   5.580   8.771   8.889 -0.0359 -0.2633 -0.2612
  970MOL0     C27968   5.686   8.758   8.778  0.7176 -0.0016 -0.4905
  970MOL0     C27969   5.818   8.700   8.837  0.5962  0.3824  0.2105
  970MOL0     C27970   5.934   8.698   8.750  0.6020 -0.3297 -0.7819
  970MOL0     C27971   6.069   8.681   8.818  0.1704 -0.3857 -0.2988
  970MOL0     C27972   6.171   8.696   8.878 -0.0156 -0.1055 -0.1889
  970MOL0     C27973   5.251   8.730   8.837  0.5999  0.9544 -0.6439
  970MOL0     C27974   5.131   8.702   8.896  0.3921 -0.0651 -1.0242
  970MOL0     H27975   4.827   8.539   9.255  2.2624 -1.8322 -1.2619
  970MOL0     H27976   4.618   8.418   9.295  3.0465  2.8702  1.3552
  970MOL0     H27977   4.392   8.391   9.317 -0.3669 -1.0878  0.3533
  970MOL0     H27978   4.298   8.259   9.250  3.6030 -3.2214 -2.2103
  970MOL0     H27979   4.260   8.558   9.176 -3.4056  1.7336  0.8268
  970MOL0     H27980   4.168   8.468   9.296 -2.8287  2.1259 -2.1481
  970MOL0     H27981   4.105   8.291   9.104 -0.4623  0.4145 -1.1868
  970MOL0     H27982   4.170   8.398   8.993  0.3720  3.4087  0.1514
  970MOL0     H27983   3.949   8.466   9.190 -0.1266 -0.5054  0.2092
  970MOL0     H27984   4.003   8.582   9.077  0.4315 -0.4570  0.4469
  970MOL0     H27985   3.859   8.316   9.012 -1.8299 -0.5207 -1.8937
  970MOL0     H27986   3.943   8.405   8.886 -2.2250 -0.0678 -2.1075
  970MOL0     H27987   3.802   8.615   8.941  0.1046  0.1423  0.6647
  970MOL0     H27988   3.720   8.529   9.070  1.1064 -1.6237  0.8067
  970MOL0     H27989   3.707   8.447   8.778  2.1089  0.7931  0.1388
  970MOL0     H27990   3.653   8.345   8.907  0.3778 -0.7150 -2.4921
  970MOL0     H27991   3.568   8.629   8.853 -1.3110  0.3016 -1.5557
  970MOL0     H27992   3.514   8.547   8.993  1.5257  2.8645  0.1230
  970MOL0     H27993   3.378   8.288   8.914 -0.3890  0.2510  1.6666
  970MOL0     H27994   3.179   8.174   8.811 -0.4611 -2.3445 -1.0287
  970MOL0     H27995   3.223   8.172   8.639 -2.5711  1.1492 -1.4981
  970MOL0     H27996   3.048   8.309   8.569  1.0840 -2.2172 -0.4963
  970MOL0     H27997   3.016   8.352   8.748 -1.4756 -0.1013  0.0910
  970MOL0     H27998   2.950   8.086   8.629 -2.4190  0.0899 -0.3356
  970MOL0     H27999   2.960   8.124   8.801  3.0562  0.9360  1.0014
  970MOL0     H28000   2.788   8.297   8.609  3.6161  2.2690  0.2792
  970MOL0     H28001   2.787   8.292   8.778 -1.6073  3.3764 -1.9057
  970MOL0     H28002   2.534   7.932   8.727  1.6811  0.8802 -0.3004
  970MOL0     H28003   2.305   7.943   8.651  1.0706 -0.0769 -2.6120
  970MOL0     H28004   1.964   7.920   8.387 -1.8023 -0.5931 -0.2240
  970MOL0     H28005   1.720   7.885   8.361 -1.8221  1.7183  0.2056
  970MOL0     H28006   1.445   8.070   8.662  0.2905 -0.3050  2.0140
  970MOL0     H28007   1.499   7.922   8.719 -3.2340  0.3412  2.2335
  970MOL0     H28008   1.281   7.957   8.511 -1.0524  2.2315  0.9817
  970MOL0     H28009   1.257   7.931   8.676  1.5649 -1.5548  3.0029
  970MOL0     H28010   1.365   7.706   8.684  1.7821 -4.8339 -2.3392
  970MOL0     H28011   1.413   7.720   8.511  1.4879  1.3533  0.5537
  970MOL0     H28012   1.110   7.739   8.587 -1.5351  0.2237 -2.9659
  970MOL0     H28013   1.190   7.701   8.441  0.6272 -2.9989 -0.2501
  970MOL0     H28014   1.087   7.501   8.574 -1.0476  0.4759 -0.2207
  970MOL0     H28015   1.240   7.512   8.654  1.9911 -2.4873 -3.1656
  970MOL0     H28016   1.345   7.493   8.424  0.3878 -1.1848  0.0039
  970MOL0     H28017   1.187   7.514   8.351  1.6602  2.1206  0.5124
  970MOL0     H28018   1.309   7.266   8.470  0.9766  2.0941 -0.2496
  970MOL0     H28019   1.143   7.282   8.519  0.7045  1.2322  1.1560
  970MOL0     H28020   1.106   7.314   8.255 -2.8219 -4.0567  0.2526
  970MOL0     H28021   1.150   7.160   8.306  2.2600 -1.2056 -0.1970
  970MOL0     H28022   1.656   8.154   8.687  0.0046 -1.1199 -0.0623
  970MOL0     H28023   1.887   8.188   8.725  0.0457 -0.2335 -0.3302
  970MOL0     H28024   2.343   8.368   8.590 -2.1527 -1.9177 -1.2067
  970MOL0     H28025   2.583   8.357   8.652 -2.6025  1.8160  2.6861
  970MOL0     H28026   4.494   8.473   8.877  1.5034 -1.0093  0.0197
  970MOL0     H28027   4.700   8.575   8.841 -2.3207  0.9558  0.4668
  970MOL0     H28028   5.161   8.902   9.167 -0.6143  1.2954 -0.3808
  970MOL0     H28029   5.376   8.945   9.065 -0.4313 -0.0483  0.8480
  970MOL0     H28030   5.545   8.672   8.918 -0.3544  0.0385  0.4140
  970MOL0     H28031   5.624   8.823   8.975  1.9286  0.8999 -1.8727
  970MOL0     H28032   5.643   8.684   8.709 -3.0063  1.3928  0.0992
  970MOL0     H28033   5.710   8.858   8.742  2.2692 -0.9736 -2.3733
  970MOL0     H28034   5.796   8.598   8.869  0.5495  1.1046  2.7389
  970MOL0     H28035   5.849   8.751   8.929  2.1290  3.3487 -1.7840
  970MOL0     H28036   5.909   8.620   8.678  0.6367 -0.0129 -1.1359
  970MOL0     H28037   5.932   8.793   8.696  3.0682  1.6136  2.1657
  970MOL0     H28038   6.258   8.716   8.938  0.3650 -0.4285 -0.6253
  970MOL0     H28039   5.278   8.680   8.745  3.6701  0.9606  0.1424
  970MOL0     H28040   5.082   8.619   8.847  2.4213 -0.7647 -1.9901
  971MOL0     O28041   2.720   0.262  10.177  0.4655 -0.2383 -0.0171
  971MOL0     C28042   2.650   0.304  10.085  0.2223 -0.0506  1.8037
  971MOL0     O28043   2.696   0.364   9.973  0.1727 -0.7315 -0.2644
  971MOL0     C28044   2.835   0.376   9.972  0.1310  0.7158 -0.6452
  971MOL0     C28045   2.897   0.291   9.882  0.0272 -0.7037  0.1177
  971MOL0     C28046   3.035   0.306   9.858 -0.3262 -0.0051  0.6160
  971MOL0     C28047   3.116   0.392   9.933  0.3711  0.3782 -0.9499
  971MOL0     O28048   3.254   0.414   9.920 -0.1289  0.4046 -0.1955
  971MOL0     C28049   3.326   0.374   9.806  0.1889 -0.4903  0.5040
  971MOL0     C28050   3.463   0.431   9.800 -0.2074  0.1379  0.3362
  971MOL0     C28051   3.543   0.352   9.696 -0.5077 -0.3184  0.2295
  971MOL0     C28052   3.688   0.403   9.688 -0.3147  0.5943 -0.6607
  971MOL0     C28053   3.762   0.328   9.580  0.8718 -0.3187 -0.1356
  971MOL0     C28054   3.729   0.379   9.439 -0.4367  0.5567  0.2464
  971MOL0     C28055   3.807   0.318   9.316  0.8220  0.4812 -0.4230
  971MOL0     C28056   3.760   0.181   9.283 -0.3907  1.0731 -0.0250
  971MOL0     N28057   3.622   0.171   9.235 -0.9597  0.0364  0.2972
  971MOL0     C28058   3.515   0.162   9.325  0.2207 -0.0294  0.7603
  971MOL0     C28059   3.416   0.200   9.248  1.1871 -0.1347 -0.5926
  971MOL0     C28060   3.267   0.216   9.286  0.1326 -0.4333 -1.2572
  971MOL0     C28061   3.219   0.071   9.342 -0.4914 -0.1742 -0.1803
  971MOL0     C28062   3.114  -0.011   9.257  0.3937 -1.0475  0.1667
  971MOL0     C28063   2.979   0.052   9.260  0.9460 -0.3785 -0.2848
  971MOL0     O28064   2.875  -0.043   9.219  0.8036  0.2270 -0.6124
  971MOL0     C28065   2.743  -0.003   9.209  0.0163  0.7374 -0.0792
  971MOL0     C28066   2.705   0.134   9.214  0.4659 -0.2321 -0.9108
  971MOL0     C28067   2.570   0.161   9.210  0.1863 -0.8160 -0.1691
  971MOL0     C28068   2.470   0.062   9.191  0.0714  0.1630  0.0249
  971MOL0     C28069   2.332   0.104   9.177  0.0213 -0.4627  1.0073
  971MOL0     O28070   2.236   0.002   9.171  0.5078 -0.2402  0.1233
  971MOL0     C28071   2.101   0.032   9.142 -0.4809  0.4604  0.1075
  971MOL0     C28072   2.067   0.096   9.027  0.2708 -0.0288 -0.4968
  971MOL0     C28073   1.935   0.109   8.988  0.5840 -0.3958 -0.1975
  971MOL0     C28074   1.836   0.067   9.073 -0.3117 -0.0828  0.5473
  971MOL0     O28075   1.706   0.096   9.049  0.2886 -0.4148  0.0436
  971MOL0     C28076   1.606  -0.010   9.080  0.1331 -0.2276  0.2722
  971MOL0     C28077   1.481  -0.006   8.985 -1.1854 -0.6551  0.4544
  971MOL0     C28078   1.388  -0.127   9.016  0.0637 -0.1365  0.1876
  971MOL0     C28079   1.289  -0.129   8.896 -0.7449  0.2482 -0.4228
  971MOL0     C28080   1.185  -0.241   8.910  0.0694 -0.1736  0.1933
  971MOL0     C28081   1.226  -0.386   8.913  0.5443  0.0740 -0.7957
  971MOL0     C28082   1.306  -0.423   8.795 -0.3258  1.0364  0.9525
  971MOL0     C28083   1.232  -0.405   8.655  0.1353  0.0225 -0.0661
  971MOL0    Cl28084   1.071  -0.502   8.652 -0.2976 -0.6163  0.2058
  971MOL0     C28085   1.869   0.002   9.192  0.7187 -0.0765 -0.5689
  971MOL0     C28086   2.002  -0.021   9.221  0.0185  0.4957 -0.7977
  971MOL0     O28087   2.307   0.224   9.166 -0.1587  0.5156 -0.2179
  971MOL0     C28088   2.513  -0.071   9.167 -0.3999  0.1327  0.0258
  971MOL0     C28089   2.647  -0.106   9.179  0.0978  0.0943  0.0297
  971MOL0     N28090   3.459   0.250   9.130  0.4473 -0.9989  1.0645
  971MOL0     N28091   3.586   0.229   9.121 -0.7713  0.1712  0.1794
  971MOL0     C28092   3.049   0.463  10.029  0.6462 -0.0311  0.0562
  971MOL0     C28093   2.914   0.456  10.050 -0.9237 -0.5381 -0.7124
  971MOL0     C28094   2.505   0.260  10.082 -1.4260 -0.4184  0.0109
  971MOL0     C28095   2.413   0.319   9.989 -0.1195  0.5421 -0.0167
  971MOL0     C28096   2.283   0.267   9.981  0.5945 -0.3705  0.2165
  971MOL0     C28097   2.241   0.148  10.055 -0.4682 -0.1327 -0.2835
  971MOL0     O28098   2.104   0.109  10.037 -0.0277  0.4261  0.5247
  971MOL0     C28099   2.063   0.005  10.126 -0.6498 -0.3924  0.0917
  971MOL0     C28100   1.917  -0.028  10.111 -0.8484  0.1445  0.1585
  971MOL0     C28101   1.833   0.103  10.139 -0.0681  0.7252 -0.1459
  971MOL0     C28102   1.684   0.077  10.142  0.3669 -0.1285  0.3010
  971MOL0     C28103   1.636   0.028  10.013 -0.8180 -0.1937  0.2629
  971MOL0     C28104   1.580  -0.003   9.909 -0.0628 -0.3991  0.3096
  971MOL0     C28105   2.339   0.086  10.137 -0.3775 -0.2358  0.4608
  971MOL0     C28106   2.461   0.153  10.162  1.0154  0.3635  0.2452
  971MOL0     H28107   2.828   0.233   9.822 -2.0555  2.2893 -0.5970
  971MOL0     H28108   3.087   0.244   9.785 -0.2472  0.4045  0.3194
  971MOL0     H28109   3.276   0.379   9.709 -1.8515  0.7194  1.5430
  971MOL0     H28110   3.350   0.268   9.819  0.3505 -0.4717  0.3520
  971MOL0     H28111   3.515   0.452   9.893  0.8172  4.3691 -0.9489
  971MOL0     H28112   3.458   0.529   9.751 -1.0377 -1.1914 -2.4573
  971MOL0     H28113   3.496   0.366   9.598 -1.7184 -0.1834  0.8024
  971MOL0     H28114   3.545   0.246   9.724 -0.2781  0.3339  2.8760
  971MOL0     H28115   3.696   0.512   9.684 -0.3514  0.8578  2.9456
  971MOL0     H28116   3.740   0.375   9.780 -1.8838 -0.5880 -0.0800
  971MOL0     H28117   3.743   0.220   9.582 -0.1885 -0.1266  0.2686
  971MOL0     H28118   3.868   0.350   9.596  0.8775 -0.1216 -0.4429
  971MOL0     H28119   3.749   0.486   9.433  0.6952  0.3352 -0.0838
  971MOL0     H28120   3.623   0.379   9.411 -0.4349 -0.9415  0.1602
  971MOL0     H28121   3.788   0.386   9.233 -2.1683 -1.1660 -1.2378
  971MOL0     H28122   3.915   0.317   9.333  0.9401 -1.0112 -1.1041
  971MOL0     H28123   3.767   0.124   9.376  0.5605  2.4096  0.7572
  971MOL0     H28124   3.830   0.134   9.213 -1.8751  0.9900 -1.5045
  971MOL0     H28125   3.506   0.138   9.430  0.4357 -0.4020  0.6956
  971MOL0     H28126   3.209   0.264   9.207 -0.6589 -1.3755 -1.2709
  971MOL0     H28127   3.249   0.278   9.374  0.5531 -0.4016 -1.1882
  971MOL0     H28128   3.178   0.082   9.443 -1.4885 -0.0190 -0.5919
  971MOL0     H28129   3.310   0.011   9.350 -0.1335  0.4263  0.4577
  971MOL0     H28130   3.138  -0.030   9.152  1.5486 -1.1776  0.4421
  971MOL0     H28131   3.105  -0.113   9.295 -0.5557 -1.2738 -0.6337
  971MOL0     H28132   2.973   0.132   9.185  0.7803  1.1798  1.3161
  971MOL0     H28133   2.958   0.084   9.362 -2.2341 -0.8362 -0.6961
  971MOL0     H28134   2.768   0.220   9.230 -0.0608 -0.2385  1.6481
  971MOL0     H28135   2.537   0.263   9.226 -1.8383 -1.0006 -2.4981
  971MOL0     H28136   2.147   0.140   8.969 -0.3681  1.3411 -0.3775
  971MOL0     H28137   1.907   0.167   8.900 -0.1246  2.0225  1.5072
  971MOL0     H28138   1.576  -0.001   9.185 -0.6353  0.3512  0.0147
  971MOL0     H28139   1.648  -0.110   9.070  1.1784  0.2108  0.1791
  971MOL0     H28140   1.518  -0.005   8.882 -1.8930 -1.5872  0.1686
  971MOL0     H28141   1.420   0.084   8.989 -1.4203 -0.7589 -0.4263
  971MOL0     H28142   1.331  -0.109   9.107 -0.7504  1.2305 -0.5540
  971MOL0     H28143   1.458  -0.210   9.034  0.0686  0.2206  1.8941
  971MOL0     H28144   1.229  -0.038   8.889 -0.7157  0.2144 -1.2310
  971MOL0     H28145   1.346  -0.143   8.803  2.8009 -0.3756  1.6647
  971MOL0     H28146   1.113  -0.225   8.830 -1.7069 -2.5390  1.2052
  971MOL0     H28147   1.126  -0.216   8.999  0.4083  0.2361  0.3051
  971MOL0     H28148   1.137  -0.449   8.916  0.9258 -0.7065 -3.4101
  971MOL0     H28149   1.297  -0.396   8.995  1.1393  2.8587 -0.8946
  971MOL0     H28150   1.400  -0.368   8.805  1.0299 -0.8830 -0.4358
  971MOL0     H28151   1.324  -0.531   8.802 -0.7935  0.6286 -2.4264
  971MOL0     H28152   1.285  -0.458   8.574 -1.5567 -2.3218  0.2539
  971MOL0     H28153   1.232  -0.301   8.623 -1.2725 -0.5075 -1.9744
  971MOL0     H28154   1.790  -0.030   9.259 -1.4384  2.2970 -1.8041
  971MOL0     H28155   2.007  -0.085   9.308 -0.7595  1.2477 -0.1865
  971MOL0     H28156   2.453  -0.156   9.137  3.6269 -2.4420 -1.6687
  971MOL0     H28157   2.671  -0.212   9.173 -2.3872 -0.8031  3.0416
  971MOL0     H28158   3.114   0.513  10.100  0.9156 -1.5796  0.9307
  971MOL0     H28159   2.882   0.527  10.126  1.9011 -0.7365  0.8021
  971MOL0     H28160   2.441   0.396   9.918 -0.1335 -0.9969 -1.7672
  971MOL0     H28161   2.217   0.319   9.913  0.3075  1.9846  2.1533
  971MOL0     H28162   2.072   0.050  10.225 -0.3455  3.0971 -1.3642
  971MOL0     H28163   2.124  -0.085  10.117 -2.2932 -1.7075  1.4260
  971MOL0     H28164   1.905  -0.058  10.007 -1.9242 -0.9565  0.5853
  971MOL0     H28165   1.899  -0.114  10.176 -0.0891 -0.0699  0.0963
  971MOL0     H28166   1.846   0.173  10.056 -1.0364  2.9439  1.4896
  971MOL0     H28167   1.861   0.156  10.230  0.4054  2.4610 -1.2560
  971MOL0     H28168   1.655  -0.002  10.212  0.5963  2.2449  3.2730
  971MOL0     H28169   1.623   0.167  10.157 -0.0866 -0.1549 -1.2419
  971MOL0     H28170   1.539  -0.028   9.813  2.5316 -2.7952 -0.2968
  971MOL0     H28171   2.314  -0.006  10.189 -1.1368  0.4898  1.4243
  971MOL0     H28172   2.529   0.117  10.238 -0.0118  0.6963  1.3564
  972MOL0     O28173   4.749   1.401   7.106  0.9685  0.5587 -0.2692
  972MOL0     C28174   4.815   1.445   7.202 -0.0742 -0.4872 -0.7070
  972MOL0     O28175   4.798   1.402   7.329 -0.1958  0.4948  0.2453
  972MOL0     C28176   4.686   1.332   7.361  0.4010  0.2744 -0.0168
  972MOL0     C28177   4.553   1.371   7.323  0.8218  1.1025  0.4150
  972MOL0     C28178   4.444   1.289   7.355 -0.2664  0.6702 -0.2131
  972MOL0     C28179   4.465   1.167   7.413  0.0881 -0.4037 -0.2581
  972MOL0     O28180   4.352   1.089   7.437  0.1701  0.0187 -0.2274
  972MOL0     C28181   4.343   0.989   7.543 -0.5445  0.1735 -0.0578
  972MOL0     C28182   4.315   1.062   7.678 -0.0808  0.0434  0.4173
  972MOL0     C28183   4.303   0.958   7.795  0.2526 -0.8893 -0.1040
  972MOL0     C28184   4.246   1.027   7.913 -0.0845 -0.0122 -0.2064
  972MOL0     C28185   4.245   0.930   8.023  0.4473 -0.0007 -0.7580
  972MOL0     C28186   4.172   0.965   8.155  0.3377  0.6145  1.1331
  972MOL0     C28187   4.131   0.822   8.215 -0.2807 -0.5676 -1.2730
  972MOL0     C28188   4.008   0.753   8.165 -0.5608  0.2153  0.7765
  972MOL0     N28189   3.886   0.828   8.197 -0.1279  0.3311 -0.1780
  972MOL0     C28190   3.794   0.858   8.103 -0.1635 -0.4393  0.2978
  972MOL0     C28191   3.684   0.892   8.173  0.1258 -0.2083  0.4231
  972MOL0     C28192   3.552   0.910   8.107  0.2799 -0.4901  0.3106
  972MOL0     C28193   3.432   0.896   8.206 -0.2402  1.1567  0.1234
  972MOL0     C28194   3.405   0.753   8.252 -0.7494 -0.7966  0.1599
  972MOL0     C28195   3.264   0.715   8.296  0.5252 -0.2526  0.3027
  972MOL0     O28196   3.165   0.790   8.224  0.2579  0.0828 -0.3976
  972MOL0     C28197   3.035   0.755   8.234 -0.3986 -0.1578  0.2650
  972MOL0     C28198   2.973   0.647   8.302  0.8204 -0.0583 -0.0085
  972MOL0     C28199   2.835   0.626   8.303 -0.5020  0.1749  0.3999
  972MOL0     C28200   2.743   0.715   8.235 -0.0375  0.1844  0.3230
  972MOL0     C28201   2.600   0.702   8.240 -0.7108  0.3960 -0.3340
  972MOL0     O28202   2.533   0.791   8.174  0.6208  1.3035  0.0015
  972MOL0     C28203   2.397   0.801   8.189 -0.7692  1.2839 -0.7388
  972MOL0     C28204   2.358   0.888   8.295 -1.0285 -0.3531 -0.3470
  972MOL0     C28205   2.226   0.906   8.319  1.0411 -1.2785  0.6182
  972MOL0     C28206   2.130   0.846   8.237  0.1302 -0.8772  0.4554
  972MOL0     O28207   1.994   0.853   8.257 -0.2410 -0.0999 -0.1308
  972MOL0     C28208   1.933   0.983   8.260  0.0661 -0.6003 -0.5525
  972MOL0     C28209   1.901   1.034   8.127 -0.3478  0.3438  0.8801
  972MOL0     C28210   1.817   1.163   8.121  0.0388 -0.8382 -0.7676
  972MOL0     C28211   1.812   1.228   7.992 -0.4465 -0.5314  0.0822
  972MOL0     C28212   1.906   1.345   7.982 -0.5993  1.4309  0.0290
  972MOL0     C28213   1.867   1.439   7.869  0.5073  0.2509  0.2240
  972MOL0     C28214   1.743   1.532   7.899 -1.0144  0.5578 -0.4576
  972MOL0     C28215   1.748   1.648   7.797 -0.5229 -0.0928  0.5155
  972MOL0    Cl28216   1.588   1.735   7.793 -0.0485 -0.1337  0.1254
  972MOL0     C28217   2.173   0.764   8.131 -0.2789 -1.1442  0.4025
  972MOL0     C28218   2.309   0.744   8.098 -0.6454 -0.7411 -0.0703
  972MOL0     O28219   2.552   0.611   8.307  0.5842  0.5281 -0.0999
  972MOL0     C28220   2.808   0.827   8.179  0.2955 -0.1287  0.5626
  972MOL0     C28221   2.948   0.840   8.175 -0.1123  0.2566 -0.0487
  972MOL0     N28222   3.716   0.879   8.306  0.8622  0.5544 -0.4073
  972MOL0     N28223   3.840   0.841   8.318 -0.1451 -0.5857  0.5703
  972MOL0     C28224   4.592   1.128   7.445  0.3255  0.5768  0.3354
  972MOL0     C28225   4.704   1.209   7.423 -0.4869  0.4370 -0.3437
  972MOL0     C28226   4.928   1.540   7.180 -0.4950 -0.1143 -0.2757
  972MOL0     C28227   4.978   1.575   7.057  0.1122 -0.1035  0.2816
  972MOL0     C28228   5.081   1.670   7.038  0.6991 -0.3280 -0.4742
  972MOL0     C28229   5.138   1.737   7.153  1.2331  0.0682  0.2197
  972MOL0     O28230   5.235   1.829   7.128  0.3230  0.2781  0.3292
  972MOL0     C28231   5.282   1.919   7.235 -0.2122 -0.3319  1.0846
  972MOL0     C28232   5.396   1.863   7.316  0.4262 -0.0962 -0.6382
  972MOL0     C28233   5.481   1.969   7.406  0.7357  0.8464  0.7217
  972MOL0     C28234   5.581   2.054   7.316  0.2123 -0.1980  0.2528
  972MOL0     C28235   5.550   2.194   7.303  0.1703 -0.3956  0.0816
  972MOL0     C28236   5.507   2.307   7.293 -0.8334  0.5091 -0.6892
  972MOL0     C28237   5.079   1.715   7.272 -0.3640 -0.0516 -0.5426
  972MOL0     C28238   4.978   1.622   7.290  0.3130 -0.1572  0.6702
  972MOL0     H28239   4.533   1.461   7.266  0.6920  1.2537  0.6987
  972MOL0     H28240   4.345   1.326   7.331 -0.1049  1.6333  0.5414
  972MOL0     H28241   4.437   0.935   7.560 -1.7696 -1.4491  2.1431
  972MOL0     H28242   4.265   0.915   7.525 -0.0918 -0.1902 -0.5602
  972MOL0     H28243   4.223   1.120   7.668  0.1827  0.6254  1.2856
  972MOL0     H28244   4.389   1.140   7.697 -2.7246  3.3192 -1.4598
  972MOL0     H28245   4.397   0.910   7.823  1.1994  2.2789  2.8252
  972MOL0     H28246   4.230   0.885   7.758 -0.3436  1.0365 -3.1077
  972MOL0     H28247   4.306   1.108   7.955 -3.6195  1.6484  2.1025
  972MOL0     H28248   4.147   1.066   7.890 -0.2165  0.9432  1.7922
  972MOL0     H28249   4.348   0.911   8.054 -0.1696  1.6014  2.8194
  972MOL0     H28250   4.207   0.834   7.987 -1.4304  0.2430  0.3950
  972MOL0     H28251   4.087   1.025   8.122  0.9710 -0.8197 -4.0461
  972MOL0     H28252   4.228   1.024   8.228  1.4363 -0.8966  1.5591
  972MOL0     H28253   4.216   0.754   8.216 -0.1028 -0.5778  2.9390
  972MOL0     H28254   4.095   0.843   8.317  0.8583  2.3531 -1.3923
  972MOL0     H28255   3.993   0.661   8.222 -0.2316 -0.4877 -0.2462
  972MOL0     H28256   4.022   0.732   8.059  0.4128 -0.3893  1.0037
  972MOL0     H28257   3.806   0.830   7.999 -2.7069 -1.3470  0.1788
  972MOL0     H28258   3.546   0.839   8.024  1.3191 -0.1779 -0.0439
  972MOL0     H28259   3.554   1.007   8.058  1.9415 -1.0503 -0.8032
  972MOL0     H28260   3.347   0.933   8.148 -1.6666 -0.1709  1.3166
  972MOL0     H28261   3.450   0.961   8.292  2.1436  2.5421 -1.2843
  972MOL0     H28262   3.434   0.689   8.169 -0.5098  1.1734 -1.3489
  972MOL0     H28263   3.478   0.725   8.329 -0.8257  0.8312  0.8670
  972MOL0     H28264   3.254   0.740   8.403  0.7068 -0.9776  0.4924
  972MOL0     H28265   3.253   0.607   8.290  1.0692 -0.3497  0.9384
  972MOL0     H28266   3.033   0.576   8.359  0.6983  0.8798  1.3512
  972MOL0     H28267   2.792   0.552   8.369  1.1846 -0.0063  1.3628
  972MOL0     H28268   2.435   0.931   8.358 -1.0954 -0.7112 -0.0167
  972MOL0     H28269   2.193   0.966   8.404  1.0153  2.8437 -1.9988
  972MOL0     H28270   1.996   1.047   8.323  1.5905 -2.6315  0.0822
  972MOL0     H28271   1.835   0.973   8.309 -2.6120  2.2679 -4.6647
  972MOL0     H28272   1.851   0.950   8.077 -1.0931  1.0544  0.4110
  972MOL0     H28273   1.998   1.051   8.079 -1.2763 -0.1233 -1.2560
  972MOL0     H28274   1.863   1.232   8.192  0.8334 -2.2121  0.1144
  972MOL0     H28275   1.714   1.152   8.155  0.3038  1.2811  0.9055
  972MOL0     H28276   1.831   1.148   7.920  0.2187  1.3837 -1.9739
  972MOL0     H28277   1.707   1.253   7.971 -0.8443  0.8051  3.0929
  972MOL0     H28278   2.007   1.309   7.960 -1.1799 -0.7580  0.7639
  972MOL0     H28279   1.902   1.412   8.069  0.5252 -0.0775  1.2992
  972MOL0     H28280   1.845   1.386   7.776 -0.3100 -2.2187  1.7306
  972MOL0     H28281   1.953   1.507   7.863 -1.4912  2.9605  0.4532
  972MOL0     H28282   1.651   1.475   7.888 -0.0035 -2.6750  4.5271
  972MOL0     H28283   1.749   1.564   8.004 -0.9471 -1.1333  0.0752
  972MOL0     H28284   1.757   1.602   7.698 -3.8303  0.7165 -0.2863
  972MOL0     H28285   1.826   1.723   7.808 -1.8570  1.9892 -2.7471
  972MOL0     H28286   2.087   0.735   8.072 -0.2612 -1.7843  0.6825
  972MOL0     H28287   2.336   0.688   8.009 -1.5856 -1.3831  0.0324
  972MOL0     H28288   2.755   0.904   8.124  1.3615 -0.9728 -1.7979
  972MOL0     H28289   2.978   0.932   8.126 -3.4369  0.5660 -1.7949
  972MOL0     H28290   4.624   1.030   7.478  2.2557  0.8524 -0.5654
  972MOL0     H28291   4.801   1.179   7.463  0.3403  3.1142 -0.1448
  972MOL0     H28292   4.937   1.534   6.965  1.4151 -1.8513  0.4484
  972MOL0     H28293   5.128   1.670   6.940  0.6521 -3.5565 -0.6012
  972MOL0     H28294   5.201   1.948   7.303 -1.3150  0.3305 -0.4607
  972MOL0     H28295   5.320   2.005   7.179 -0.4811 -0.8734  0.0438
  972MOL0     H28296   5.350   1.781   7.372 -1.9763  2.3670  1.2318
  972MOL0     H28297   5.465   1.816   7.245 -1.4906 -1.2912 -1.7915
  972MOL0     H28298   5.534   1.896   7.469 -2.8069 -0.8973  1.9390
  972MOL0     H28299   5.414   2.033   7.465 -0.8007  1.3185 -1.4507
  972MOL0     H28300   5.682   2.035   7.354 -0.1909  1.9362  2.6258
  972MOL0     H28301   5.573   2.026   7.211 -1.7811  0.6998  0.1271
  972MOL0     H28302   5.448   2.396   7.283 -2.4608  0.3258  4.3326
  972MOL0     H28303   5.125   1.752   7.364  0.1952 -1.1801 -0.3556
  972MOL0     H28304   4.950   1.597   7.391  0.1429  3.5435  1.6714
  973MOL0     O28305   3.275  10.341   0.153  0.3374 -0.1938 -0.1747
  973MOL0     C28306   3.347  10.340   0.249  0.0521 -0.3452 -0.8397
  973MOL0     O28307   3.310  10.299   0.375  0.5674 -0.5818 -0.3726
  973MOL0     C28308   3.178  10.279   0.396 -0.2192  0.5535 -0.4801
  973MOL0     C28309   3.131  10.153   0.456 -0.5423  0.6814 -0.1285
  973MOL0     C28310   2.994  10.138   0.496  0.1422 -0.2840 -0.8911
  973MOL0     C28311   2.908  10.250   0.481 -0.8548  0.2601  0.6239
  973MOL0     O28312   2.780  10.248   0.521  0.6244 -0.4450  0.5551
  973MOL0     C28313   2.746  10.149   0.619  0.5768  0.0712 -1.1911
  973MOL0     C28314   2.593  10.165   0.668  1.5093  0.4945  0.2305
  973MOL0     C28315   2.503  10.119   0.549  0.1291 -0.3729 -0.1413
  973MOL0     C28316   2.358  10.143   0.576 -0.1863  0.2508 -0.1792
  973MOL0     C28317   2.276  10.098   0.450  0.0047 -0.4757 -0.2956
  973MOL0     C28318   2.132  10.115   0.476 -0.5948 -0.2715 -0.4836
  973MOL0     C28319   2.064  10.070   0.354 -0.1264 -0.4248 -0.1869
  973MOL0     C28320   2.023   9.923   0.366 -0.4097 -0.7470 -0.0224
  973MOL0     N28321   1.893   9.897   0.446 -0.6375  0.8830  0.4132
  973MOL0     C28322   1.792   9.986   0.454 -0.4681 -0.5343  0.1760
  973MOL0     C28323   1.696   9.920   0.515  0.0751 -0.8411  0.1872
  973MOL0     C28324   1.547   9.968   0.541 -1.0573 -0.0223 -0.5362
  973MOL0     C28325   1.471  10.044   0.429  0.0115 -0.3033 -0.1938
  973MOL0     C28326   1.451   9.979   0.296  0.2236 -0.4330  0.3738
  973MOL0     C28327   1.384   9.841   0.322 -0.0571 -0.1644  0.2856
  973MOL0     O28328   1.270   9.839   0.405  0.6524 -0.0211 -0.2014
  973MOL0     C28329   1.144   9.880   0.361  0.3478 -1.0042 -0.2112
  973MOL0     C28330   1.118   9.926   0.230  0.2865  0.3743 -0.2932
  973MOL0     C28331   0.999   9.981   0.198  0.1786  0.0668 -0.2308
  973MOL0     C28332   0.890   9.983   0.285 -0.1069  0.5507 -0.3069
  973MOL0     C28333   0.759  10.027   0.237 -0.4322 -0.4812  0.6708
  973MOL0     O28334   0.755  10.129   0.142  0.1986  0.7901  0.3536
  973MOL0     C28335   0.630  10.165   0.081 -0.1073 -0.1988  0.6751
  973MOL0     C28336   0.555  10.063   0.008  0.2942 -0.3918 -0.2389
  973MOL0     C28337   0.434  10.099  -0.054 -0.0328 -1.2084 -0.2528
  973MOL0     C28338   0.389  10.236  -0.054  0.0178  0.3295 -0.5212
  973MOL0     O28339   0.272  10.267  -0.115  0.2706  0.3056  0.0404
  973MOL0     C28340   0.229  10.403  -0.123  1.1117  0.3753 -0.1634
  973MOL0     C28341   0.162  10.443   0.004 -0.4840  0.4552 -0.3508
  973MOL0     C28342   0.107  10.586   0.005 -0.2269 -0.2142  0.2421
  973MOL0     C28343   0.032  10.633  -0.119  0.6173  0.8186  0.2826
  973MOL0     C28344  -0.035  10.764  -0.083  0.7419  0.1130 -0.1453
  973MOL0     C28345  -0.115  10.820  -0.207  0.0656 -0.9095  0.2968
  973MOL0     C28346  -0.111  10.979  -0.191 -0.5641 -0.1976  0.7005
  973MOL0     C28347  -0.163  11.016  -0.057 -0.7573  0.3458  0.2517
  973MOL0    Cl28348  -0.251  11.167  -0.048 -0.2270 -0.1828 -0.6439
  973MOL0     C28349   0.469  10.337   0.008 -0.2514 -0.4005  0.1160
  973MOL0     C28350   0.585  10.300   0.072 -1.0447 -0.5721  0.3970
  973MOL0     O28351   0.666   9.973   0.291  0.0230  0.9548  0.3302
  973MOL0     C28352   0.914   9.929   0.411  0.4537 -0.5720  0.4380
  973MOL0     C28353   1.041   9.879   0.452  0.0327 -0.1800  0.2505
  973MOL0     N28354   1.743   9.788   0.538 -0.5250 -0.2537  1.2924
  973MOL0     N28355   1.856   9.775   0.483 -0.0270  0.8907  0.2854
  973MOL0     C28356   2.956  10.365   0.406 -1.1710  0.5298 -0.5527
  973MOL0     C28357   3.091  10.383   0.368  0.6203  0.4985  0.2251
  973MOL0     C28358   3.482  10.384   0.234 -0.3844 -0.0431  0.0013
  973MOL0     C28359   3.545  10.424   0.117 -0.3322 -0.4357 -0.5108
  973MOL0     C28360   3.679  10.463   0.117  0.4247  0.7457  0.2664
  973MOL0     C28361   3.752  10.472   0.233 -0.8043 -0.4903 -0.3490
  973MOL0     O28362   3.879  10.522   0.208  0.0541 -0.1088 -0.5694
  973MOL0     C28363   3.990  10.498   0.303 -0.8381 -0.4151 -0.0398
  973MOL0     C28364   4.134  10.497   0.246  0.5481 -0.5212  0.7827
  973MOL0     C28365   4.148  10.612   0.143  0.1288 -0.3583  0.4636
  973MOL0     C28366   4.296  10.629   0.095  0.8130  0.2638  0.0692
  973MOL0     C28367   4.365  10.693   0.209 -0.7402  0.8528  0.9908
  973MOL0     C28368   4.436  10.758   0.279  0.5491  0.1876 -1.0609
  973MOL0     C28369   3.691  10.444   0.354 -0.3637  0.1814  0.5379
  973MOL0     C28370   3.560  10.390   0.346 -0.7023 -0.0324  0.6242
  973MOL0     H28371   3.207  10.078   0.476 -1.6671  0.1207  2.4377
  973MOL0     H28372   2.968  10.041   0.538  0.7867 -0.3641 -0.6737
  973MOL0     H28373   2.813  10.150   0.706 -1.4567  0.2854  0.4633
  973MOL0     H28374   2.752  10.047   0.580 -0.0581 -0.2977 -0.3722
  973MOL0     H28375   2.564  10.268   0.692 -0.5706 -0.3643  1.5998
  973MOL0     H28376   2.573  10.093   0.748  0.5545  0.1658 -0.2883
  973MOL0     H28377   2.522  10.014   0.523 -0.0883  0.2184 -3.0350
  973MOL0     H28378   2.530  10.187   0.468  1.1281  0.1444  0.6019
  973MOL0     H28379   2.333  10.072   0.655 -0.0089  0.5796  0.1735
  973MOL0     H28380   2.342  10.248   0.603  3.3523  1.7718 -3.1032
  973MOL0     H28381   2.299   9.994   0.425  1.2629  0.0904 -1.6275
  973MOL0     H28382   2.303  10.168   0.370  1.0919 -1.7045 -1.0412
  973MOL0     H28383   2.123  10.223   0.491 -0.0437 -0.1284 -1.1183
  973MOL0     H28384   2.102  10.057   0.564 -0.4696  1.6524  0.8772
  973MOL0     H28385   1.972  10.126   0.335 -0.8642 -1.9538 -1.2299
  973MOL0     H28386   2.127  10.073   0.265  0.6195 -2.8828  0.1926
  973MOL0     H28387   2.112   9.875   0.407  2.1142  1.3909 -2.6236
  973MOL0     H28388   2.010   9.893   0.262 -2.6478  1.2277 -0.3915
  973MOL0     H28389   1.797  10.090   0.426 -0.2314 -0.4092  0.6634
  973MOL0     H28390   1.548  10.029   0.631  0.0824 -0.0804 -0.5042
  973MOL0     H28391   1.495   9.874   0.565  0.5709 -0.7633  0.2546
  973MOL0     H28392   1.536  10.127   0.401 -1.2907 -0.1684 -3.2837
  973MOL0     H28393   1.377  10.084   0.468  0.9006  2.2683 -0.4589
  973MOL0     H28394   1.389  10.042   0.232 -1.3854 -1.7895  0.5128
  973MOL0     H28395   1.543   9.958   0.241 -1.5112  0.6231 -3.2295
  973MOL0     H28396   1.450   9.766   0.365 -0.0044 -0.4036 -0.2037
  973MOL0     H28397   1.365   9.793   0.226  2.5231 -3.0492  1.0715
  973MOL0     H28398   1.189   9.927   0.148  2.0405 -0.4153  1.1456
  973MOL0     H28399   0.990  10.027   0.100  0.5411 -0.3473 -0.4631
  973MOL0     H28400   0.587   9.961  -0.009  0.0340 -0.5459  0.1602
  973MOL0     H28401   0.387  10.028  -0.122  1.8753 -2.1300 -0.6547
  973MOL0     H28402   0.147  10.400  -0.196  0.3336 -3.0896  0.6982
  973MOL0     H28403   0.307  10.476  -0.146 -0.0287  1.6583 -0.1600
  973MOL0     H28404   0.230  10.437   0.090 -0.6950 -0.8376 -0.2595
  973MOL0     H28405   0.078  10.376   0.025 -0.6870 -0.0724 -2.5650
  973MOL0     H28406   0.193  10.652   0.019  1.4494 -2.1948 -0.1865
  973MOL0     H28407   0.039  10.573   0.090 -2.1273  0.7949 -1.0625
  973MOL0     H28408   0.111  10.649  -0.193 -0.5158  0.3838 -1.0396
  973MOL0     H28409  -0.044  10.561  -0.149  1.0881  0.0190  0.9592
  973MOL0     H28410   0.040  10.835  -0.046  0.2851  3.2492 -4.4576
  973MOL0     H28411  -0.096  10.742   0.005 -0.6015 -0.6410 -1.2377
  973MOL0     H28412  -0.222  10.795  -0.205 -0.1317 -0.0797  1.7812
  973MOL0     H28413  -0.060  10.798  -0.299 -1.0998  1.0552 -0.9558
  973MOL0     H28414  -0.009  11.018  -0.192  0.2081 -2.1007 -0.8956
  973MOL0     H28415  -0.163  11.037  -0.268 -3.6061 -0.4573  2.3973
  973MOL0     H28416  -0.082  11.019   0.017 -2.0544  0.8548  1.7068
  973MOL0     H28417  -0.234  10.945  -0.014  0.6270  0.1970  2.5040
  973MOL0     H28418   0.439  10.441   0.018  1.0791 -0.0389  0.5352
  973MOL0     H28419   0.639  10.381   0.120 -2.1928  0.1955  0.4290
  973MOL0     H28420   0.835   9.931   0.485  1.9932  3.1742  2.2364
  973MOL0     H28421   1.060   9.845   0.553 -0.3419 -0.8068  0.1145
  973MOL0     H28422   2.901  10.459   0.398 -0.0793  1.0867 -1.9065
  973MOL0     H28423   3.126  10.478   0.328  2.5071 -0.5727 -0.7931
  973MOL0     H28424   3.491  10.412   0.023  1.1019 -2.6213 -1.1338
  973MOL0     H28425   3.719  10.475   0.017 -0.3910  0.0948 -0.1534
  973MOL0     H28426   3.978  10.409   0.365  0.1093 -2.2626 -2.3610
  973MOL0     H28427   3.989  10.580   0.376  2.7388 -1.9110  1.9457
  973MOL0     H28428   4.206  10.515   0.327  0.0624 -1.3580  1.4229
  973MOL0     H28429   4.152  10.398   0.203  0.8529 -0.0989 -0.0799
  973MOL0     H28430   4.096  10.704   0.172  0.8214 -0.5599  2.4548
  973MOL0     H28431   4.096  10.574   0.055 -1.2683  0.9158  0.6896
  973MOL0     H28432   4.337  10.535   0.058  2.2896  1.5047 -1.5926
  973MOL0     H28433   4.302  10.696   0.009 -2.3802 -0.1355 -0.5551
  973MOL0     H28434   4.509  10.803   0.343 -0.6831 -3.1363  3.1533
  973MOL0     H28435   3.743  10.457   0.448  2.1400 -0.3762 -0.6863
  973MOL0     H28436   3.529  10.359   0.446 -1.1476  1.9729  1.1531
  974MOL0     O28437   3.733   1.927   5.765 -0.1635 -0.6613  0.4374
  974MOL0     C28438   3.789   1.869   5.856  0.5122  0.2212  0.1758
  974MOL0     O28439   3.727   1.825   5.970 -0.0641  0.6309 -1.0133
  974MOL0     C28440   3.590   1.867   6.006 -0.4434  0.4118 -0.0891
  974MOL0     C28441   3.497   1.941   5.927 -0.5970  0.3440 -0.0583
  974MOL0     C28442   3.378   1.990   5.984  0.6015 -0.1351  0.3500
  974MOL0     C28443   3.345   1.956   6.115 -0.1069 -0.5448 -0.5602
  974MOL0     O28444   3.225   1.998   6.167 -0.4631 -0.8955  0.5056
  974MOL0     C28445   3.144   1.897   6.226  0.9043 -0.6728 -0.1089
  974MOL0     C28446   2.996   1.936   6.237 -0.1752 -0.7901 -0.4542
  974MOL0     C28447   2.935   1.843   6.341  0.9768  0.0336  0.1346
  974MOL0     C28448   2.780   1.866   6.359 -0.8465  0.2539  0.4069
  974MOL0     C28449   2.706   1.787   6.251 -0.4049  0.2217 -0.0822
  974MOL0     C28450   2.561   1.779   6.308  0.2151  0.1264  0.7200
  974MOL0     C28451   2.460   1.719   6.205 -0.0550 -0.8666 -0.5024
  974MOL0     C28452   2.310   1.731   6.244  1.1552  0.2640 -0.5129
  974MOL0     N28453   2.222   1.674   6.132 -0.7410  0.6420 -0.5559
  974MOL0     C28454   2.232   1.547   6.078 -0.9771 -0.8653  0.6819
  974MOL0     C28455   2.134   1.548   5.979 -0.3261 -0.0509  0.0261
  974MOL0     C28456   2.125   1.416   5.901  0.6760 -0.2241 -0.5734
  974MOL0     C28457   2.021   1.324   5.968 -0.5742  0.4431 -0.2030
  974MOL0     C28458   2.030   1.179   5.910  0.4401 -0.5733  0.5962
  974MOL0     C28459   1.946   1.084   5.994  0.4049 -0.5135  0.0872
  974MOL0     O28460   1.817   1.093   5.937  0.3388 -0.0111  0.5132
  974MOL0     C28461   1.708   1.030   5.992  0.3238 -0.6094  0.1852
  974MOL0     C28462   1.717   0.912   6.081  0.2645  0.2755  0.0662
  974MOL0     C28463   1.596   0.852   6.126  0.6395  0.6840  2.0750
  974MOL0     C28464   1.474   0.914   6.092  0.8837  0.0775 -0.5209
  974MOL0     C28465   1.346   0.859   6.113  0.6890  0.0267 -0.1107
  974MOL0     O28466   1.289   0.784   6.015 -0.1546 -0.2960  0.2221
  974MOL0     C28467   1.176   0.708   6.043  0.1946  0.0797  0.7561
  974MOL0     C28468   1.185   0.585   6.113  0.5822  0.2593 -0.4259
  974MOL0     C28469   1.067   0.508   6.129 -0.4376  0.8496 -0.1589
  974MOL0     C28470   0.945   0.550   6.078 -0.5273  0.3280  0.2418
  974MOL0     O28471   0.824   0.483   6.096  0.1123 -0.0554 -0.0884
  974MOL0     C28472   0.755   0.508   6.220 -0.4865 -0.0917 -0.3139
  974MOL0     C28473   0.625   0.426   6.218 -0.2888 -0.0990  0.0765
  974MOL0     C28474   0.516   0.496   6.302  0.8375  0.2793  0.2321
  974MOL0     C28475   0.385   0.406   6.307 -0.0020  0.3839 -0.1616
  974MOL0     C28476   0.276   0.472   6.390  0.1009  0.4407 -0.7735
  974MOL0     C28477   0.148   0.390   6.384 -0.2165 -0.3309  0.6869
  974MOL0     C28478   0.019   0.455   6.428 -0.6849  0.4200 -0.2028
  974MOL0     C28479  -0.043   0.519   6.309  1.0893 -0.5585 -0.2046
  974MOL0    Cl28480  -0.209   0.578   6.348  0.0554 -0.0407  0.2235
  974MOL0     C28481   0.936   0.678   6.019  0.6467  1.1079  0.4263
  974MOL0     C28482   1.050   0.747   5.999 -0.6826  0.4563 -0.8201
  974MOL0     O28483   1.312   0.880   6.228 -0.0772  0.4617  0.0005
  974MOL0     C28484   1.465   1.027   6.013 -0.2305 -0.1703 -0.0523
  974MOL0     C28485   1.579   1.075   5.952 -0.0044  0.1339  0.1530
  974MOL0     N28486   2.069   1.668   5.982  0.0195 -0.4459 -0.4803
  974MOL0     N28487   2.128   1.744   6.075 -0.0731  0.5425  0.2427
  974MOL0     C28488   3.432   1.876   6.191 -0.5297  0.1328  0.5141
  974MOL0     C28489   3.549   1.834   6.130 -0.6453  0.3094 -0.3344
  974MOL0     C28490   3.933   1.852   5.844  0.1601 -0.1416 -0.2387
  974MOL0     C28491   4.019   1.922   5.759 -0.4930 -0.1804  0.2310
  974MOL0     C28492   4.158   1.895   5.764  0.1024 -0.2301  0.9090
  974MOL0     C28493   4.217   1.805   5.850 -0.3577 -0.2625 -0.2949
  974MOL0     O28494   4.353   1.789   5.868  0.3894  0.2798 -0.1639
  974MOL0     C28495   4.451   1.866   5.794 -0.3206  0.2373  0.4306
  974MOL0     C28496   4.472   1.805   5.655  0.5502  0.4385 -0.4788
  974MOL0     C28497   4.595   1.858   5.573  0.0170  0.3715 -0.5499
  974MOL0     C28498   4.589   1.995   5.516  0.2362  0.0685 -0.8113
  974MOL0     C28499   4.468   2.000   5.424  0.0317  1.2913  0.7629
  974MOL0     C28500   4.365   1.987   5.357  0.1132  0.2491 -0.1863
  974MOL0     C28501   4.133   1.728   5.928 -0.3847 -0.4117 -0.1661
  974MOL0     C28502   3.994   1.757   5.928 -0.6230 -0.1038 -0.5624
  974MOL0     H28503   3.523   1.983   5.831 -0.7911  0.8414  0.1065
  974MOL0     H28504   3.317   2.053   5.921  1.9188  0.3252 -0.5064
  974MOL0     H28505   3.182   1.874   6.326  1.9909  1.7028  0.0810
  974MOL0     H28506   3.142   1.814   6.155 -2.9579 -0.7761 -0.1148
  974MOL0     H28507   2.943   1.927   6.142  0.3315  0.3570 -0.8581
  974MOL0     H28508   2.992   2.041   6.267 -1.5739 -0.1970 -2.4752
  974MOL0     H28509   2.982   1.861   6.438 -0.6818 -1.0812  1.1907
  974MOL0     H28510   2.955   1.739   6.313 -0.6798 -0.0505 -0.8954
  974MOL0     H28511   2.760   1.814   6.453 -1.4452 -4.9367 -2.2310
  974MOL0     H28512   2.748   1.971   6.356 -4.0627 -0.5946  1.5549
  974MOL0     H28513   2.751   1.688   6.238  2.0371  1.0665  1.1955
  974MOL0     H28514   2.714   1.838   6.154 -0.9449 -0.7200 -0.6326
  974MOL0     H28515   2.530   1.881   6.332  1.3730  0.9724 -1.1508
  974MOL0     H28516   2.554   1.724   6.403  2.2897  1.3460  1.6537
  974MOL0     H28517   2.459   1.771   6.109 -1.5784  1.5648  0.7428
  974MOL0     H28518   2.495   1.617   6.182 -2.7752 -1.2867 -3.3798
  974MOL0     H28519   2.284   1.834   6.270  0.6077 -0.2612  1.0847
  974MOL0     H28520   2.295   1.673   6.335 -1.0509  1.9045  0.2591
  974MOL0     H28521   2.301   1.469   6.108 -1.1683 -1.2434  0.1564
  974MOL0     H28522   2.227   1.375   5.900  1.0459  0.5957 -3.0411
  974MOL0     H28523   2.104   1.454   5.801  2.5691  1.8513 -0.2806
  974MOL0     H28524   1.926   1.378   5.961  0.4280  2.0507 -2.7954
  974MOL0     H28525   2.037   1.320   6.076 -2.1955  1.0923  0.0808
  974MOL0     H28526   1.997   1.175   5.806 -2.3247 -0.9683  1.3834
  974MOL0     H28527   2.130   1.137   5.916 -0.0568 -1.6844  1.3212
  974MOL0     H28528   1.938   1.114   6.099 -0.0502 -0.5387  0.0603
  974MOL0     H28529   1.972   0.978   5.998 -2.4555 -1.2624  2.4286
  974MOL0     H28530   1.815   0.876   6.111  0.3455  0.4813  0.0476
  974MOL0     H28531   1.600   0.760   6.183  0.6451 -0.2130  0.6920
  974MOL0     H28532   1.284   0.555   6.145  0.5523  0.7235  0.1172
  974MOL0     H28533   1.077   0.412   6.177  1.8003  1.4004  0.5630
  974MOL0     H28534   0.732   0.614   6.233  1.8265  0.4199  0.0715
  974MOL0     H28535   0.805   0.477   6.312  1.5960  1.0036 -0.9993
  974MOL0     H28536   0.638   0.321   6.246 -2.1902 -0.7401 -1.2644
  974MOL0     H28537   0.597   0.430   6.112  1.9196  0.0603 -0.5656
  974MOL0     H28538   0.483   0.584   6.247 -5.0317 -1.2665  0.5193
  974MOL0     H28539   0.537   0.538   6.401 -2.1661  0.2913  0.9646
  974MOL0     H28540   0.357   0.389   6.203 -4.5193 -0.2802  0.9460
  974MOL0     H28541   0.408   0.310   6.355  4.3912  1.1376 -0.3731
  974MOL0     H28542   0.266   0.566   6.334 -0.8457  0.5808 -0.3801
  974MOL0     H28543   0.306   0.499   6.492  0.1459 -0.3019 -0.5863
  974MOL0     H28544   0.166   0.297   6.439 -2.5738 -0.0059  2.1527
  974MOL0     H28545   0.135   0.345   6.285  0.5073  0.2430  0.3202
  974MOL0     H28546  -0.041   0.373   6.469  1.0425  0.5301  2.8656
  974MOL0     H28547   0.027   0.529   6.508 -3.3120 -0.4449  0.9838
  974MOL0     H28548  -0.049   0.438   6.236 -1.8817 -1.4355  0.8738
  974MOL0     H28549   0.013   0.606   6.272 -1.6944  1.7383  0.5431
  974MOL0     H28550   0.838   0.721   6.005  0.3673  0.7320  1.1807
  974MOL0     H28551   1.057   0.843   5.947  2.2704  1.1214  0.6316
  974MOL0     H28552   1.370   1.073   5.990  0.6929  0.8866 -2.0269
  974MOL0     H28553   1.576   1.165   5.890 -4.2066 -0.4098 -0.7604
  974MOL0     H28554   3.418   1.843   6.294 -1.6723 -1.7622 -0.1864
  974MOL0     H28555   3.615   1.767   6.184  2.0230  1.7133 -1.6895
  974MOL0     H28556   3.986   2.005   5.696  2.3178  1.4161  0.7206
  974MOL0     H28557   4.212   1.955   5.692 -1.6526 -1.5525 -1.6861
  974MOL0     H28558   4.546   1.876   5.846  0.2791 -0.5060 -0.4922
  974MOL0     H28559   4.409   1.966   5.778 -0.5457  0.0459 -0.2249
  974MOL0     H28560   4.485   1.697   5.662  0.6570  0.3911 -1.2855
  974MOL0     H28561   4.382   1.820   5.595  0.8905 -0.2922 -1.1957
  974MOL0     H28562   4.605   1.778   5.499  0.4039 -1.1379  1.0902
  974MOL0     H28563   4.687   1.857   5.631 -0.1891  1.4442 -0.1736
  974MOL0     H28564   4.557   2.065   5.594 -1.9705 -0.6689 -0.9659
  974MOL0     H28565   4.679   2.021   5.460 -1.1306  0.9929 -2.6951
  974MOL0     H28566   4.270   1.980   5.308 -1.0074  2.5045  1.4700
  974MOL0     H28567   4.172   1.650   5.994 -1.0252 -0.8324 -0.2799
  974MOL0     H28568   3.926   1.700   5.991 -3.4479  2.3391 -1.1633
  975MOL0     O28569   2.981   2.256  10.413  0.5605  0.2298  0.6457
  975MOL0     C28570   2.893   2.300  10.336 -0.5667 -0.0949 -1.0567
  975MOL0     O28571   2.910   2.411  10.250  1.0855 -0.8218 -0.5714
  975MOL0     C28572   3.031   2.478  10.229  1.0625  0.7254 -0.5511
  975MOL0     C28573   3.049   2.554  10.115  0.5588 -0.3939 -0.1684
  975MOL0     C28574   3.159   2.629  10.087  0.1808  0.0511 -0.3701
  975MOL0     C28575   3.249   2.649  10.197  0.1536  0.3119 -0.0780
  975MOL0     O28576   3.356   2.723  10.161 -0.6840  0.0862 -0.4842
  975MOL0     C28577   3.483   2.690  10.221  0.2959 -0.4178 -0.4670
  975MOL0     C28578   3.595   2.774  10.143 -0.2613  0.0729  0.1959
  975MOL0     C28579   3.740   2.760  10.194  0.1938  0.2654 -0.8324
  975MOL0     C28580   3.826   2.855  10.106 -0.2529 -0.0844 -0.9458
  975MOL0     C28581   3.960   2.882  10.183  0.0711 -0.2108  0.5127
  975MOL0     C28582   4.054   2.938  10.084 -0.2545  0.1547  0.6901
  975MOL0     C28583   4.191   2.939  10.140  0.9933  0.7175 -0.3341
  975MOL0     C28584   4.225   3.036  10.259  0.1148  0.1113 -0.0450
  975MOL0     N28585   4.207   3.171  10.215 -1.0097 -0.2803 -0.0489
  975MOL0     C28586   4.108   3.260  10.255 -0.2601  1.3790  0.7097
  975MOL0     C28587   4.125   3.366  10.175 -0.5171  0.1277  0.3080
  975MOL0     C28588   4.043   3.498  10.197  0.8962 -0.8860  0.4895
  975MOL0     C28589   3.891   3.460  10.193  0.6113  0.0774 -0.6845
  975MOL0     C28590   3.843   3.390  10.063 -0.4224 -0.2593 -0.9019
  975MOL0     C28591   3.698   3.327  10.081  1.0391 -0.0677  0.5677
  975MOL0     O28592   3.719   3.214  10.177  0.3382 -0.0180 -0.1659
  975MOL0     C28593   3.613   3.166  10.246 -1.2475 -0.0767 -0.1644
  975MOL0     C28594   3.634   3.064  10.332 -0.9836  0.3718  0.3358
  975MOL0     C28595   3.542   3.009  10.417  0.4142  0.5529 -0.5311
  975MOL0     C28596   3.404   3.056  10.400 -0.5375  0.5579 -0.1463
  975MOL0     C28597   3.289   2.991  10.473 -0.5849  0.1961  0.4429
  975MOL0     O28598   3.169   3.026  10.425 -0.1558 -0.7966  0.1234
  975MOL0     C28599   3.063   2.957  10.462 -0.1133  0.6699 -1.5374
  975MOL0     C28600   3.025   2.952  10.598  0.5334  0.3298 -0.6005
  975MOL0     C28601   2.916   2.873  10.634 -0.2473  0.2650  0.2543
  975MOL0     C28602   2.845   2.797  10.533  0.0776  1.0294 -0.1031
  975MOL0     O28603   2.756   2.704  10.570  0.5358  0.3175 -0.1154
  975MOL0     C28604   2.620   2.724  10.524 -0.4098 -0.7811 -0.0532
  975MOL0     C28605   2.538   2.603  10.571 -0.2258 -0.2879 -0.1703
  975MOL0     C28606   2.391   2.622  10.566  0.4040  0.6201  0.8490
  975MOL0     C28607   2.317   2.515  10.642  0.7951 -0.0841  0.2199
  975MOL0     C28608   2.338   2.372  10.592  0.8313 -1.2845  0.7496
  975MOL0     C28609   2.296   2.258  10.684  0.0622  0.5149  0.0468
  975MOL0     C28610   2.366   2.255  10.822  0.2123 -0.4941 -0.7292
  975MOL0     C28611   2.282   2.317  10.934 -0.5722 -0.1581 -0.1849
  975MOL0    Cl28612   2.156   2.204  10.986  0.0209  0.1719 -0.1427
  975MOL0     C28613   2.876   2.808  10.398  0.7887  0.2749 -0.3524
  975MOL0     C28614   2.988   2.888  10.366  0.2028 -0.2860  1.3858
  975MOL0     O28615   3.315   2.913  10.563  0.2837 -0.2081 -0.3269
  975MOL0     C28616   3.375   3.162  10.321  0.0047  1.4519 -0.1033
  975MOL0     C28617   3.483   3.216  10.245 -0.8508  0.5803 -0.3177
  975MOL0     N28618   4.239   3.356  10.107  0.4163 -0.3377 -0.2724
  975MOL0     N28619   4.285   3.241  10.128  0.4789 -0.1398 -0.0469
  975MOL0     C28620   3.237   2.576  10.320  0.0569 -0.5811  0.1451
  975MOL0     C28621   3.121   2.509  10.336  1.1093 -0.1340  0.5342
  975MOL0     C28622   2.762   2.239  10.340  0.6079  0.4620  0.5248
  975MOL0     C28623   2.645   2.307  10.295  0.1947 -0.4353 -0.8882
  975MOL0     C28624   2.521   2.250  10.305 -0.0900  0.8683  0.4288
  975MOL0     C28625   2.498   2.118  10.356 -0.3568 -0.0689  0.3363
  975MOL0     O28626   2.372   2.060  10.344  0.0021  0.0122 -0.1581
  975MOL0     C28627   2.345   1.931  10.399  0.0027  0.0484  0.4081
  975MOL0     C28628   2.363   1.841  10.274 -0.5222  0.6661 -0.5834
  975MOL0     C28629   2.227   1.808  10.201  0.3432  0.2013 -0.4842
  975MOL0     C28630   2.171   1.672  10.231  0.5132 -0.6260 -0.2181
  975MOL0     C28631   2.255   1.559  10.183  0.9364 -0.1660 -0.2341
  975MOL0     C28632   2.334   1.476  10.134  0.9049  0.9513  0.2449
  975MOL0     C28633   2.609   2.057  10.410 -0.1402 -0.5772 -1.1375
  975MOL0     C28634   2.737   2.120  10.406  0.1486 -0.0575  0.7106
  975MOL0     H28635   2.977   2.549  10.034 -0.3248  0.6545  0.5307
  975MOL0     H28636   3.168   2.677   9.990 -0.4654 -0.0519 -0.4851
  975MOL0     H28637   3.486   2.583  10.201  0.0663  0.0889 -4.0425
  975MOL0     H28638   3.479   2.714  10.327 -3.6289  1.8310 -0.9354
  975MOL0     H28639   3.565   2.879  10.147 -1.0807 -0.0629 -1.4308
  975MOL0     H28640   3.595   2.738  10.040 -3.3123 -2.6104  0.9731
  975MOL0     H28641   3.770   2.655  10.199 -0.9850 -0.0402  0.6136
  975MOL0     H28642   3.737   2.801  10.296 -2.5415 -0.4628 -0.5283
  975MOL0     H28643   3.837   2.803  10.010  0.2464  1.0137 -1.5033
  975MOL0     H28644   3.778   2.950  10.082 -1.3810 -0.4915 -0.3496
  975MOL0     H28645   3.990   2.788  10.229  0.3991  0.2743  1.3078
  975MOL0     H28646   3.948   2.956  10.263 -0.0056 -0.3800  0.6583
  975MOL0     H28647   4.020   3.035  10.046  3.8282  2.3803  2.1684
  975MOL0     H28648   4.051   2.868  10.000 -3.4560  0.9022  0.0118
  975MOL0     H28649   4.210   2.840  10.181 -0.3636  1.4669  2.2992
  975MOL0     H28650   4.262   2.969  10.062  3.0031  0.0004  1.1380
  975MOL0     H28651   4.327   3.023  10.296 -0.4448 -1.2248  1.1087
  975MOL0     H28652   4.155   3.018  10.341 -0.8896  0.7078 -0.7474
  975MOL0     H28653   4.027   3.248  10.326 -0.2470 -0.5336  0.4529
  975MOL0     H28654   4.079   3.572  10.125 -0.9905 -0.8980 -0.5506
  975MOL0     H28655   4.071   3.545  10.292  0.1459  1.5326 -0.3993
  975MOL0     H28656   3.834   3.553  10.201 -2.4937 -1.8006  1.0485
  975MOL0     H28657   3.862   3.403  10.282 -0.6174  1.2444 -0.3014
  975MOL0     H28658   3.841   3.462   9.980 -1.6592 -1.5575 -2.0698
  975MOL0     H28659   3.912   3.309  10.040  1.4866  0.4807  1.7787
  975MOL0     H28660   3.664   3.288   9.985 -1.3800  0.5702  1.0939
  975MOL0     H28661   3.626   3.404  10.110 -0.9600 -1.6419  0.0953
  975MOL0     H28662   3.739   3.039  10.343 -1.1964 -0.1478  1.2988
  975MOL0     H28663   3.567   2.931  10.488  1.7199 -1.5373 -3.0994
  975MOL0     H28664   3.073   3.008  10.678  0.0558 -0.0168 -0.0661
  975MOL0     H28665   2.891   2.868  10.739  0.3133 -2.2775  0.3385
  975MOL0     H28666   2.614   2.734  10.415  2.3824 -3.6876 -0.6366
  975MOL0     H28667   2.571   2.811  10.569  0.3068 -0.9819  1.1471
  975MOL0     H28668   2.574   2.584  10.673 -0.7899 -0.4469  0.0063
  975MOL0     H28669   2.567   2.521  10.506 -0.0146  1.3695 -2.2616
  975MOL0     H28670   2.365   2.624  10.460 -1.4853  4.2021  1.2573
  975MOL0     H28671   2.356   2.720  10.597  0.2031  0.3965  1.3432
  975MOL0     H28672   2.348   2.532  10.746 -0.5122  4.5774  0.0820
  975MOL0     H28673   2.211   2.540  10.648  1.1559  1.1242  2.7388
  975MOL0     H28674   2.443   2.360  10.567  1.5356 -1.7977  3.5718
  975MOL0     H28675   2.277   2.367  10.502 -0.0299  0.0279  1.2383
  975MOL0     H28676   2.300   2.163  10.629 -1.7096  0.8071 -0.6599
  975MOL0     H28677   2.187   2.254  10.693  0.0261 -0.1687 -0.5861
  975MOL0     H28678   2.392   2.156  10.859  0.8252  0.6511  2.2538
  975MOL0     H28679   2.460   2.310  10.823 -0.3939  0.5822 -0.6389
  975MOL0     H28680   2.239   2.410  10.895  2.4669 -0.1201 -4.0397
  975MOL0     H28681   2.346   2.336  11.020 -1.7898  1.3972  0.4353
  975MOL0     H28682   2.833   2.749  10.318 -0.8774  1.1707 -0.1505
  975MOL0     H28683   3.027   2.895  10.265 -0.0184 -0.8001  1.2602
  975MOL0     H28684   3.278   3.206  10.304 -0.6820 -0.0491 -0.2018
  975MOL0     H28685   3.470   3.308  10.190 -0.3186  1.3118  0.7617
  975MOL0     H28686   3.301   2.581  10.407 -2.3418 -0.3378  2.0050
  975MOL0     H28687   3.105   2.466  10.434  0.2621 -0.1996  0.3730
  975MOL0     H28688   2.650   2.406  10.251  0.0443 -0.4201 -0.8711
  975MOL0     H28689   2.430   2.302  10.277  1.0597  1.9263 -1.6248
  975MOL0     H28690   2.240   1.918  10.430  0.3859 -3.5292  0.6082
  975MOL0     H28691   2.400   1.903  10.489 -1.6150 -2.2593  0.7787
  975MOL0     H28692   2.406   1.898  10.191 -2.9730  2.6631 -0.5979
  975MOL0     H28693   2.430   1.757  10.295  1.2192  2.4485  1.4123
  975MOL0     H28694   2.249   1.814  10.094  1.6852 -0.3657 -0.2626
  975MOL0     H28695   2.141   1.872  10.225 -2.4725 -4.1892  2.7692
  975MOL0     H28696   2.157   1.664  10.339 -1.8445 -0.0542 -0.4389
  975MOL0     H28697   2.071   1.652  10.192  0.8283 -1.1153 -0.7882
  975MOL0     H28698   2.409   1.414  10.089 -1.0543 -0.6406 -0.9699
  975MOL0     H28699   2.586   1.962  10.455 -0.7065 -0.2475 -0.7204
  975MOL0     H28700   2.819   2.065  10.452  2.3731  0.3575 -2.4617
  976MOL0     O28701   4.344   9.527   6.584 -0.5138 -0.1725  0.4364
  976MOL0     C28702   4.388   9.607   6.503 -0.7038 -0.4833 -0.1988
  976MOL0     O28703   4.310   9.688   6.426 -0.0157  0.1127  0.0438
  976MOL0     C28704   4.171   9.679   6.430  0.7164  0.1321 -0.5311
  976MOL0     C28705   4.104   9.555   6.432  0.6365  0.3464  0.0828
  976MOL0     C28706   3.970   9.544   6.412 -0.1347 -0.5620 -0.4567
  976MOL0     C28707   3.886   9.653   6.403  0.5519 -0.0797 -0.0920
  976MOL0     O28708   3.744   9.635   6.389 -0.2958 -0.0746 -0.1625
  976MOL0     C28709   3.660   9.741   6.343 -0.2748  0.0882  0.3019
  976MOL0     C28710   3.516   9.687   6.323 -0.3446 -0.2442  0.8524
  976MOL0     C28711   3.427   9.786   6.239 -0.2702  0.2624 -0.1362
  976MOL0     C28712   3.289   9.725   6.227 -0.0116 -0.1083  0.3655
  976MOL0     C28713   3.181   9.829   6.200 -0.5873 -0.3113 -0.6590
  976MOL0     C28714   3.056   9.762   6.154 -0.5807  0.0339  0.1817
  976MOL0     C28715   3.007   9.656   6.249 -0.0240 -0.2737 -0.1868
  976MOL0     C28716   2.900   9.578   6.181  0.5017 -0.0401  0.3790
  976MOL0     N28717   2.779   9.666   6.197 -0.0891  0.5172 -0.6742
  976MOL0     C28718   2.704   9.659   6.313 -0.0341 -1.5678 -0.6117
  976MOL0     C28719   2.607   9.749   6.291 -0.0285  0.3787  0.9604
  976MOL0     C28720   2.498   9.796   6.374  0.3382 -0.2270 -0.8947
  976MOL0     C28721   2.360   9.749   6.336 -0.4804 -0.3728  0.0420
  976MOL0     C28722   2.337   9.601   6.377  0.2852  0.0747  0.2985
  976MOL0     C28723   2.189   9.556   6.365 -0.4487  0.2248 -0.1689
  976MOL0     O28724   2.104   9.623   6.460 -0.2551  0.7261 -0.5079
  976MOL0     C28725   1.973   9.610   6.452 -0.1996  0.6383  0.7888
  976MOL0     C28726   1.897   9.699   6.529  0.1475  0.2542  0.2507
  976MOL0     C28727   1.760   9.699   6.505 -0.3371  0.2558  0.3288
  976MOL0     C28728   1.694   9.607   6.420  0.2589 -0.0705  0.2384
  976MOL0     C28729   1.545   9.622   6.409 -0.2053 -0.7032  0.2642
  976MOL0     O28730   1.478   9.523   6.350 -0.7813 -0.7329  0.0472
  976MOL0     C28731   1.340   9.545   6.330  0.0455  0.3319 -0.8544
  976MOL0     C28732   1.283   9.591   6.215  0.5636  0.9870  0.5749
  976MOL0     C28733   1.143   9.601   6.192 -0.2630  0.0228  0.0888
  976MOL0     C28734   1.067   9.571   6.303 -0.0525  0.0072  0.2976
  976MOL0     O28735   0.925   9.582   6.282 -0.1464 -0.4393 -0.1583
  976MOL0     C28736   0.849   9.600   6.398 -0.5271  0.5921 -0.2381
  976MOL0     C28737   0.705   9.633   6.348 -0.0180 -0.4689 -0.1318
  976MOL0     C28738   0.606   9.657   6.460 -0.5470  0.5113 -0.5581
  976MOL0     C28739   0.462   9.680   6.399 -0.1804 -0.0664 -0.7843
  976MOL0     C28740   0.341   9.715   6.495 -0.1502  0.0119  0.3697
  976MOL0     C28741   0.363   9.847   6.574  0.8407  0.3565  0.8108
  976MOL0     C28742   0.259   9.872   6.681 -0.1627 -0.2006  0.6379
  976MOL0     C28743   0.110   9.877   6.632 -0.0661 -0.2628 -0.5770
  976MOL0    Cl28744   0.081  10.038   6.570 -0.3992 -0.0992 -0.5524
  976MOL0     C28745   1.120   9.512   6.424 -0.1426  0.3008  0.0374
  976MOL0     C28746   1.256   9.503   6.431 -0.4390 -0.4854 -0.4146
  976MOL0     O28747   1.493   9.725   6.451 -0.4859  0.0855 -0.2473
  976MOL0     C28748   1.770   9.514   6.349  0.1019 -0.0012 -0.3109
  976MOL0     C28749   1.910   9.518   6.363  0.2048  0.1260 -0.2797
  976MOL0     N28750   2.620   9.788   6.151 -0.3075  0.0717 -0.9723
  976MOL0     N28751   2.725   9.746   6.102 -0.4365 -0.6178 -0.2794
  976MOL0     C28752   3.948   9.779   6.400  0.2641 -0.6629 -1.0960
  976MOL0     C28753   4.088   9.792   6.417 -0.5406  0.1541 -0.4218
  976MOL0     C28754   4.535   9.604   6.472 -0.2419  0.2961  0.1297
  976MOL0     C28755   4.581   9.675   6.363 -0.4221 -0.5989 -0.8420
  976MOL0     C28756   4.716   9.675   6.324  0.2135  0.7511  0.6099
  976MOL0     C28757   4.806   9.598   6.398  1.4169  0.4813 -0.5719
  976MOL0     O28758   4.939   9.594   6.365  0.0333 -0.5162  0.0963
  976MOL0     C28759   5.026   9.651   6.470 -0.7467 -0.5690 -0.1970
  976MOL0     C28760   5.170   9.633   6.423  0.7380  0.0270 -0.2818
  976MOL0     C28761   5.201   9.707   6.299 -0.2817  0.3968  0.4092
  976MOL0     C28762   5.353   9.708   6.267  0.1703  1.2144  0.2626
  976MOL0     C28763   5.404   9.566   6.248  0.1942  0.4475  0.1266
  976MOL0     C28764   5.448   9.448   6.249  0.0641 -0.2867 -0.8499
  976MOL0     C28765   4.760   9.519   6.506  0.5246  0.0752  0.5553
  976MOL0     C28766   4.623   9.523   6.543 -0.8040 -0.7819  0.1330
  976MOL0     H28767   4.158   9.462   6.450  0.1062  0.2292  1.1197
  976MOL0     H28768   3.928   9.444   6.413  3.8542 -2.4564 -1.6831
  976MOL0     H28769   3.697   9.776   6.246  0.8462  0.9651  1.0203
  976MOL0     H28770   3.650   9.828   6.410 -1.6171 -1.0913  1.7222
  976MOL0     H28771   3.464   9.678   6.419 -2.4371  0.6848 -0.1266
  976MOL0     H28772   3.512   9.592   6.270  0.7834 -0.1902  0.6425
  976MOL0     H28773   3.467   9.821   6.143 -2.7372  2.7034 -0.4168
  976MOL0     H28774   3.419   9.881   6.292  1.6093  0.2599  0.2141
  976MOL0     H28775   3.296   9.652   6.145  3.2128 -0.7592  1.0613
  976MOL0     H28776   3.253   9.663   6.310 -0.6326  0.3240  0.4229
  976MOL0     H28777   3.219   9.895   6.122 -0.1123 -0.6181 -0.6848
  976MOL0     H28778   3.160   9.884   6.292  0.2823 -1.0383 -0.0103
  976MOL0     H28779   3.071   9.724   6.052  2.2410  1.4404 -0.0255
  976MOL0     H28780   2.980   9.840   6.153  0.1234  0.7646  1.3430
  976MOL0     H28781   3.085   9.581   6.266  1.0985  1.5116  3.6515
  976MOL0     H28782   2.976   9.692   6.347 -2.0924 -2.0800 -0.1153
  976MOL0     H28783   2.882   9.485   6.237 -0.7454 -1.8224 -2.7062
  976MOL0     H28784   2.914   9.568   6.073 -2.2878  2.9127 -0.4049
  976MOL0     H28785   2.711   9.597   6.403 -1.5024 -0.0400  0.6300
  976MOL0     H28786   2.503   9.905   6.367  0.3088 -0.3059 -2.7953
  976MOL0     H28787   2.525   9.778   6.478 -3.1036  0.2549  0.1875
  976MOL0     H28788   2.342   9.760   6.229 -1.8983 -1.9706  0.0770
  976MOL0     H28789   2.283   9.811   6.383  0.3066  0.7763 -0.1421
  976MOL0     H28790   2.401   9.538   6.314 -1.8550  1.0272 -3.1091
  976MOL0     H28791   2.362   9.589   6.483 -1.1250  1.0656  0.7827
  976MOL0     H28792   2.189   9.448   6.385  0.6435 -0.0520 -1.5367
  976MOL0     H28793   2.165   9.566   6.259  1.0712  0.1926 -0.5293
  976MOL0     H28794   1.950   9.778   6.581 -2.9423  0.4091  3.5462
  976MOL0     H28795   1.705   9.762   6.574  0.3797 -0.1923  1.3470
  976MOL0     H28796   1.341   9.614   6.127  1.4263 -1.4822  0.4007
  976MOL0     H28797   1.098   9.633   6.099 -2.2940 -0.3382  0.8915
  976MOL0     H28798   0.882   9.679   6.467 -1.1670  0.6205  0.0352
  976MOL0     H28799   0.861   9.515   6.465  0.0995  2.4653  2.2048
  976MOL0     H28800   0.672   9.552   6.283  1.2328 -0.4620 -0.8050
  976MOL0     H28801   0.694   9.711   6.272 -3.3532 -2.4711 -1.9141
  976MOL0     H28802   0.645   9.747   6.510  0.8148 -0.8137  0.8746
  976MOL0     H28803   0.602   9.578   6.535 -0.7298 -0.3439 -1.4559
  976MOL0     H28804   0.464   9.759   6.324 -0.6575 -1.2800 -2.1096
  976MOL0     H28805   0.444   9.579   6.360  0.5938 -1.2114  1.6315
  976MOL0     H28806   0.334   9.639   6.573  1.1817  0.6793  1.1773
  976MOL0     H28807   0.247   9.716   6.439  0.3048  0.4730 -0.4206
  976MOL0     H28808   0.369   9.933   6.506 -2.5765 -1.0097 -1.5215
  976MOL0     H28809   0.458   9.823   6.622  1.8242  1.5409 -0.4877
  976MOL0     H28810   0.269   9.791   6.754  0.5198  0.4832  1.3150
  976MOL0     H28811   0.283   9.966   6.731  1.3532 -0.7355  0.9634
  976MOL0     H28812   0.042   9.856   6.716  0.6699 -0.6171 -0.0605
  976MOL0     H28813   0.085   9.806   6.552 -1.1214  0.6880 -1.1147
  976MOL0     H28814   1.049   9.463   6.490 -0.3492 -0.7474 -0.9331
  976MOL0     H28815   1.301   9.441   6.508 -2.3328 -1.4963 -0.0633
  976MOL0     H28816   1.724   9.446   6.277 -2.1265 -0.9371  1.8714
  976MOL0     H28817   1.974   9.459   6.297 -3.3130 -2.7561 -1.4533
  976MOL0     H28818   3.894   9.873   6.403  2.1547  0.4664  1.1866
  976MOL0     H28819   4.136   9.888   6.399  0.4430 -0.7478 -3.1215
  976MOL0     H28820   4.521   9.741   6.301  2.4467  1.3509 -1.7608
  976MOL0     H28821   4.755   9.723   6.235  0.8095 -2.5311 -1.0676
  976MOL0     H28822   5.011   9.599   6.565 -0.1621  0.2854  0.3772
  976MOL0     H28823   5.001   9.757   6.486 -2.0110 -1.1118  1.8120
  976MOL0     H28824   5.240   9.659   6.503 -1.2237  3.1775  0.5983
  976MOL0     H28825   5.172   9.525   6.405 -0.3356 -0.1790  0.6489
  976MOL0     H28826   5.176   9.813   6.304  2.9199  1.2355  1.0263
  976MOL0     H28827   5.149   9.660   6.215  1.0024  0.5762 -0.5252
  976MOL0     H28828   5.371   9.768   6.177 -2.2057 -0.4580 -1.4325
  976MOL0     H28829   5.412   9.755   6.346 -1.0699  0.3911  1.7326
  976MOL0     H28830   5.475   9.344   6.253 -3.6679 -1.6173 -3.7659
  976MOL0     H28831   4.831   9.456   6.558  0.7749  0.0894  0.2302
  976MOL0     H28832   4.585   9.460   6.622  0.8941 -3.5205 -1.0718
  977MOL0     O28833   7.900   6.311   2.090 -0.6959 -0.0247 -0.4533
  977MOL0     C28834   7.951   6.216   2.036  0.3477  0.0373  0.6113
  977MOL0     O28835   7.906   6.091   2.015 -0.3663 -0.2441  0.1529
  977MOL0     C28836   7.805   6.035   2.079 -1.0353 -0.0031 -0.6505
  977MOL0     C28837   7.693   6.094   2.137  0.2922  0.7277  0.9142
  977MOL0     C28838   7.590   6.025   2.201 -0.0375 -0.0497 -0.6755
  977MOL0     C28839   7.599   5.888   2.215 -0.5038  0.3796 -0.4503
  977MOL0     O28840   7.495   5.811   2.277 -0.2062  0.1823  0.1468
  977MOL0     C28841   7.411   5.878   2.371  0.1750  1.2192 -0.1094
  977MOL0     C28842   7.306   5.781   2.425 -0.1238 -0.6212  0.3398
  977MOL0     C28843   7.360   5.695   2.542  0.2192 -0.1040  0.1287
  977MOL0     C28844   7.290   5.560   2.554 -1.1632 -0.0090 -0.7561
  977MOL0     C28845   7.170   5.567   2.653 -0.2072  0.1326  1.1497
  977MOL0     C28846   7.146   5.426   2.724 -0.2224 -0.4524  0.4874
  977MOL0     C28847   7.195   5.417   2.867 -0.0127 -0.2108 -0.2883
  977MOL0     C28848   7.169   5.285   2.934 -0.2721 -0.2841  0.6451
  977MOL0     N28849   7.030   5.253   2.947 -0.1300  1.0514 -0.2654
  977MOL0     C28850   6.971   5.144   2.876 -0.1686  0.0008  0.2080
  977MOL0     C28851   6.859   5.121   2.941  0.0496  0.1939 -0.0807
  977MOL0     C28852   6.761   5.019   2.904  0.1476 -1.1511 -0.1956
  977MOL0     C28853   6.645   5.072   2.814 -0.1806  0.4325 -0.1093
  977MOL0     C28854   6.683   5.167   2.696  0.1948 -0.3643  0.0644
  977MOL0     C28855   6.560   5.169   2.597 -0.8733 -1.2444 -0.2366
  977MOL0     O28856   6.433   5.197   2.665 -0.3045  0.3513 -0.3763
  977MOL0     C28857   6.315   5.164   2.606 -0.1154  0.4050 -0.8460
  977MOL0     C28858   6.283   5.168   2.469 -0.8058 -0.3264  0.3484
  977MOL0     C28859   6.162   5.136   2.418 -0.8974  0.5358 -0.4509
  977MOL0     C28860   6.068   5.081   2.497  0.8321  0.1561 -0.1349
  977MOL0     C28861   5.939   5.028   2.436 -0.1492 -0.1050  0.4590
  977MOL0     O28862   5.842   4.970   2.521 -0.3354 -0.4085  0.4117
  977MOL0     C28863   5.721   4.961   2.463  1.1821 -0.9828 -0.0503
  977MOL0     C28864   5.651   4.838   2.475 -0.0023  0.6855 -0.4324
  977MOL0     C28865   5.518   4.825   2.436 -0.1960 -0.7673  0.1143
  977MOL0     C28866   5.453   4.937   2.383  0.2116 -0.3455  0.1158
  977MOL0     O28867   5.332   4.943   2.313  0.9537 -0.7409 -0.3836
  977MOL0     C28868   5.245   4.828   2.322 -0.2071  0.1270  0.0443
  977MOL0     C28869   5.121   4.858   2.256 -0.4288 -0.5313  0.6204
  977MOL0     C28870   5.029   4.731   2.239  0.6365  0.4856  0.0288
  977MOL0     C28871   4.876   4.765   2.233  0.4528  0.5802 -1.0537
  977MOL0     C28872   4.854   4.866   2.116 -0.5168  0.1105 -0.3076
  977MOL0     C28873   4.703   4.901   2.094 -0.5221 -0.7530  0.6517
  977MOL0     C28874   4.699   5.017   1.987  0.4230  0.3022  0.5119
  977MOL0     C28875   4.557   5.038   1.945  0.5335  0.1430 -0.0118
  977MOL0    Cl28876   4.477   4.891   1.869 -0.0453  0.0352 -0.1806
  977MOL0     C28877   5.515   5.063   2.393 -0.2798  0.2515 -0.4317
  977MOL0     C28878   5.643   5.079   2.436 -0.3655  0.2089  1.2276
  977MOL0     O28879   5.926   5.043   2.317  0.9348  0.0101  0.2666
  977MOL0     C28880   6.085   5.079   2.640 -0.5366 -0.1346 -0.5264
  977MOL0     C28881   6.211   5.118   2.686  0.2732  0.5110 -0.1386
  977MOL0     N28882   6.844   5.216   3.045  0.4762  0.7456  0.3885
  977MOL0     N28883   6.941   5.294   3.038  0.3005 -1.2467 -0.7023
  977MOL0     C28884   7.708   5.824   2.166 -0.8327  0.5299  0.3230
  977MOL0     C28885   7.817   5.896   2.099  0.4289 -0.7251 -0.5775
  977MOL0     C28886   8.093   6.239   1.988 -0.5473  0.4998  0.1577
  977MOL0     C28887   8.150   6.143   1.898  0.3016  0.2084  0.2269
  977MOL0     C28888   8.281   6.162   1.858 -0.6319  0.2850 -0.1497
  977MOL0     C28889   8.362   6.271   1.906 -0.5689  0.0573 -0.0436
  977MOL0     O28890   8.493   6.281   1.865  0.0265  1.1004 -0.1747
  977MOL0     C28891   8.546   6.413   1.855 -0.5376  0.3169 -0.0076
  977MOL0     C28892   8.680   6.426   1.795 -0.1705 -0.3016 -0.8822
  977MOL0     C28893   8.674   6.349   1.661  0.2077 -0.0010  0.6602
  977MOL0     C28894   8.807   6.297   1.613 -0.2077 -0.4832  0.6243
  977MOL0     C28895   8.923   6.380   1.653 -0.2736  0.0477 -0.1308
  977MOL0     C28896   9.029   6.434   1.677  0.1388 -0.3294  0.4008
  977MOL0     C28897   8.306   6.351   2.006  0.3400  0.0469  0.2861
  977MOL0     C28898   8.174   6.338   2.044  0.1968 -0.2060 -0.3486
  977MOL0     H28899   7.671   6.199   2.119 -0.3564  0.4227 -0.1405
  977MOL0     H28900   7.496   6.073   2.225 -1.1015 -1.5350 -1.6609
  977MOL0     H28901   7.349   5.949   2.315  1.5266  1.0756 -1.8527
  977MOL0     H28902   7.467   5.927   2.451  0.9725  1.2306 -0.6732
  977MOL0     H28903   7.271   5.722   2.340 -0.2895  1.9030 -1.4500
  977MOL0     H28904   7.218   5.836   2.459 -0.8103 -2.6652  2.0710
  977MOL0     H28905   7.378   5.752   2.633  3.4320 -1.1916  0.3174
  977MOL0     H28906   7.465   5.669   2.526 -0.7356 -3.3280 -1.9035
  977MOL0     H28907   7.254   5.536   2.453  2.4283  3.3145 -3.1287
  977MOL0     H28908   7.361   5.489   2.597  0.1977  1.9960  0.4498
  977MOL0     H28909   7.085   5.604   2.596  0.9385 -1.2198 -1.6415
  977MOL0     H28910   7.205   5.638   2.729 -1.1745  1.7487  0.1341
  977MOL0     H28911   7.191   5.343   2.669  0.9512  1.6872 -1.9891
  977MOL0     H28912   7.037   5.414   2.734 -0.2898  0.9133  1.8255
  977MOL0     H28913   7.303   5.438   2.872 -0.2970  1.1493  1.1951
  977MOL0     H28914   7.152   5.497   2.928 -0.3794  0.9269 -1.9909
  977MOL0     H28915   7.207   5.292   3.036 -1.1561 -1.9793  1.1383
  977MOL0     H28916   7.225   5.207   2.881  1.3395  1.2281  0.0194
  977MOL0     H28917   7.006   5.083   2.793 -0.7479  0.3546 -0.3069
  977MOL0     H28918   6.736   4.969   2.997 -0.6837 -0.7414 -0.1899
  977MOL0     H28919   6.805   4.935   2.850 -0.5120  0.7251 -4.0452
  977MOL0     H28920   6.569   5.121   2.874  0.3472  2.9135 -1.3493
  977MOL0     H28921   6.598   4.979   2.781  0.7009 -0.5825  1.3806
  977MOL0     H28922   6.709   5.264   2.738  3.0201 -0.4671 -1.1745
  977MOL0     H28923   6.769   5.133   2.637  0.1028 -3.4059  1.4914
  977MOL0     H28924   6.572   5.072   2.547  2.2656 -2.4649  2.4929
  977MOL0     H28925   6.576   5.243   2.518 -0.7676 -1.7640 -0.7101
  977MOL0     H28926   6.362   5.195   2.398 -0.9923 -2.6345 -0.8408
  977MOL0     H28927   6.153   5.146   2.310 -1.6487  1.4676 -0.3129
  977MOL0     H28928   5.702   4.748   2.509  0.9128  1.7975  1.2540
  977MOL0     H28929   5.458   4.735   2.428 -2.1181  0.5178 -1.1247
  977MOL0     H28930   5.223   4.793   2.423 -3.4427  0.9082 -0.2987
  977MOL0     H28931   5.293   4.742   2.273  0.3570 -1.0600  2.5193
  977MOL0     H28932   5.145   4.888   2.154  0.5254 -0.3149  0.8974
  977MOL0     H28933   5.076   4.944   2.306  3.9155  2.1096  0.4596
  977MOL0     H28934   5.052   4.652   2.311  0.6776  1.5267  1.1853
  977MOL0     H28935   5.053   4.689   2.141 -1.7574  2.4380 -1.4851
  977MOL0     H28936   4.809   4.680   2.214 -0.2430  1.0417 -0.6991
  977MOL0     H28937   4.858   4.822   2.324  1.7671 -0.5267 -0.0600
  977MOL0     H28938   4.896   4.829   2.021  0.7390  2.2905 -0.6746
  977MOL0     H28939   4.898   4.962   2.144 -0.5527 -0.4629  1.8685
  977MOL0     H28940   4.650   4.931   2.185  0.8661 -1.3036  1.6818
  977MOL0     H28941   4.666   4.804   2.060  1.0244 -0.6427 -1.4948
  977MOL0     H28942   4.749   5.111   2.011 -3.9361  2.6755  1.2378
  977MOL0     H28943   4.742   4.972   1.897 -0.8179 -1.4152  0.7293
  977MOL0     H28944   4.545   5.108   1.862 -0.4047  0.5384  0.4343
  977MOL0     H28945   4.500   5.065   2.034  1.6288 -0.0978  0.7817
  977MOL0     H28946   5.458   5.147   2.353  0.0278  1.8010  2.1845
  977MOL0     H28947   5.697   5.174   2.440  1.5622 -0.8902  3.2047
  977MOL0     H28948   6.009   5.033   2.702 -1.3255  0.5982 -0.9360
  977MOL0     H28949   6.226   5.106   2.792 -0.0042  3.2126  0.2641
  977MOL0     H28950   7.719   5.716   2.169  2.8495  0.6712 -1.6557
  977MOL0     H28951   7.897   5.837   2.055  3.2565  4.2052 -3.0092
  977MOL0     H28952   8.092   6.057   1.869 -0.6836  0.2502  1.9380
  977MOL0     H28953   8.335   6.089   1.798 -1.1201  0.0323 -0.2809
  977MOL0     H28954   8.559   6.457   1.954  0.3205  0.8320 -0.3376
  977MOL0     H28955   8.477   6.475   1.798  1.3457  1.7436 -0.8329
  977MOL0     H28956   8.695   6.532   1.773  1.3727  0.7132  3.9836
  977MOL0     H28957   8.770   6.403   1.852  1.6889  0.6411 -3.2456
  977MOL0     H28958   8.635   6.421   1.589 -2.7935 -1.0746  1.0840
  977MOL0     H28959   8.615   6.257   1.660  1.1497 -0.6232  1.0914
  977MOL0     H28960   8.827   6.195   1.648 -0.2027 -0.6017  0.2870
  977MOL0     H28961   8.804   6.302   1.503  1.6252  1.2384  0.6077
  977MOL0     H28962   9.127   6.472   1.700 -0.0369  0.0136  0.5825
  977MOL0     H28963   8.368   6.430   2.047  0.4511  2.3602 -3.7934
  977MOL0     H28964   8.136   6.409   2.117 -1.5601 -1.5745  0.1402
  978MOL0     O28965   3.020   9.661   0.832  0.0812 -0.1527  0.2185
  978MOL0     C28966   3.020   9.781   0.802  0.2651  0.3172  0.7333
  978MOL0     O28967   2.913   9.852   0.760  0.5003 -0.5647  0.1256
  978MOL0     C28968   2.796   9.791   0.783 -0.7792  0.2758 -0.3881
  978MOL0     C28969   2.745   9.779   0.916  0.3479 -0.0603 -0.4120
  978MOL0     C28970   2.629   9.709   0.935  0.2612  0.3599  0.0545
  978MOL0     C28971   2.549   9.653   0.831  0.1156 -1.0797  0.0966
  978MOL0     O28972   2.428   9.588   0.863  0.0060  0.4641 -0.3473
  978MOL0     C28973   2.304   9.637   0.815 -0.1454  1.0721 -0.2079
  978MOL0     C28974   2.290   9.784   0.854  2.4253 -0.1949 -0.5645
  978MOL0     C28975   2.132   9.811   0.834 -1.2332 -1.0395  1.3222
  978MOL0     C28976   2.106   9.959   0.861 -0.2328 -0.1106 -0.2301
  978MOL0     C28977   1.965  10.007   0.846  0.6453  0.5734  0.1879
  978MOL0     C28978   1.872   9.959   0.953 -0.4009 -0.1804 -0.3332
  978MOL0     C28979   1.719   9.989   0.931 -1.1774  0.1955  0.6410
  978MOL0     C28980   1.638   9.956   1.062  0.7859 -0.0291 -0.1052
  978MOL0     N28981   1.490   9.965   1.036 -0.5505 -0.0969  0.6829
  978MOL0     C28982   1.425   9.903   0.930 -0.2054 -1.1747 -0.0917
  978MOL0     C28983   1.292   9.960   0.938  0.6293  0.6923  0.1152
  978MOL0     C28984   1.181   9.932   0.840  0.4461  0.4210 -0.2134
  978MOL0     C28985   1.045   9.985   0.878 -0.1380  0.1624  0.3108
  978MOL0     C28986   0.948   9.982   0.758 -1.0475 -0.7139  0.4570
  978MOL0     C28987   0.821  10.058   0.791  0.7809 -0.9320  0.5539
  978MOL0     O28988   0.724  10.021   0.694  0.2294 -0.4837 -0.0927
  978MOL0     C28989   0.594  10.025   0.753 -0.0366  0.1420 -0.1568
  978MOL0     C28990   0.501   9.920   0.738 -0.0821 -0.7994 -0.2603
  978MOL0     C28991   0.361   9.937   0.774 -0.3793  0.2221 -0.9272
  978MOL0     C28992   0.321  10.055   0.836 -0.7006 -0.1760 -0.8684
  978MOL0     C28993   0.188  10.060   0.896  0.8552  0.1831  0.4886
  978MOL0     O28994   0.101   9.968   0.854 -0.3894 -0.3926  0.4938
  978MOL0     C28995  -0.041   9.978   0.857 -0.3306 -0.5980 -0.5903
  978MOL0     C28996  -0.120   9.863   0.836 -0.4948 -0.7142  0.8966
  978MOL0     C28997  -0.259   9.874   0.841 -0.0072  0.6432 -0.2053
  978MOL0     C28998  -0.324   9.996   0.864  0.6527  0.7099 -0.0569
  978MOL0     O28999  -0.457   9.987   0.866  1.4691  0.4174  0.1458
  978MOL0     C29000  -0.526  10.107   0.827  1.2281 -0.1432 -0.3645
  978MOL0     C29001  -0.671  10.076   0.822  0.0430  0.4025 -0.2395
  978MOL0     C29002  -0.763  10.192   0.776 -0.8648  0.1292 -0.3258
  978MOL0     C29003  -0.907  10.155   0.776  0.7745 -1.5914  1.0022
  978MOL0     C29004  -0.993  10.283   0.752 -0.6144 -0.3178 -0.2320
  978MOL0     C29005  -1.137  10.256   0.733  0.3196 -1.0539 -0.8519
  978MOL0     C29006  -1.215  10.257   0.870 -0.4880  0.1201  0.6219
  978MOL0     C29007  -1.345  10.173   0.871 -0.0251  0.4997 -0.0156
  978MOL0    Cl29008  -1.496  10.272   0.894 -0.0758  0.2280 -0.3438
  978MOL0     C29009  -0.243  10.110   0.873  0.0965  0.0294  0.1761
  978MOL0     C29010  -0.106  10.105   0.874 -0.3236 -0.0000  0.0683
  978MOL0     O29011   0.164  10.149   0.974 -0.2186 -0.2952 -0.4866
  978MOL0     C29012   0.418  10.158   0.860  1.1909  0.2243 -1.1505
  978MOL0     C29013   0.551  10.147   0.816  0.1250 -0.4429 -0.5078
  978MOL0     N29014   1.300  10.053   1.046 -0.0697  0.2736  0.0902
  978MOL0     N29015   1.416  10.054   1.100  0.0914 -0.8419  0.1238
  978MOL0     C29016   2.599   9.661   0.696 -0.8866 -0.6592 -0.1408
  978MOL0     C29017   2.725   9.728   0.680  0.0790  0.1751  0.4860
  978MOL0     C29018   3.152   9.848   0.828  0.5903  0.3901 -0.3119
  978MOL0     C29019   3.273   9.778   0.828  0.3410  0.2341 -1.1484
  978MOL0     C29020   3.394   9.839   0.865 -1.1776 -0.3335 -0.0512
  978MOL0     C29021   3.398   9.978   0.894 -1.0891 -0.2199 -0.9161
  978MOL0     O29022   3.505  10.053   0.941 -0.1153 -0.0959  0.1962
  978MOL0     C29023   3.629   9.990   0.940  0.4136  0.7728  0.0763
  978MOL0     C29024   3.741  10.087   0.972 -0.1840  0.3606  0.5315
  978MOL0     C29025   3.790  10.166   0.853 -0.2932 -0.1410 -0.2355
  978MOL0     C29026   3.688  10.265   0.797 -0.3718  0.0108  0.0785
  978MOL0     C29027   3.761  10.388   0.751  0.0295 -0.0644  0.0967
  978MOL0     C29028   3.816  10.489   0.713  0.4085  0.6558  0.1687
  978MOL0     C29029   3.279  10.048   0.879  0.7778  0.6144  0.0374
  978MOL0     C29030   3.155   9.989   0.857  0.8015  0.2193  0.7577
  978MOL0     H29031   2.796   9.810   1.007 -0.6140  2.1200 -0.5640
  978MOL0     H29032   2.593   9.703   1.037 -1.8910 -0.0147 -0.6784
  978MOL0     H29033   2.227   9.571   0.856  0.2544 -0.5106 -1.8854
  978MOL0     H29034   2.291   9.623   0.707  3.5433  0.5625 -0.7126
  978MOL0     H29035   2.342   9.848   0.783 -0.4950  1.3050 -1.5188
  978MOL0     H29036   2.319   9.804   0.958 -2.2772  0.7626  0.8241
  978MOL0     H29037   2.078   9.731   0.886 -1.7746 -2.0664 -0.7254
  978MOL0     H29038   2.108   9.798   0.728 -2.5782 -2.6288  1.7723
  978MOL0     H29039   2.144   9.981   0.961  0.6762  0.0117 -0.5869
  978MOL0     H29040   2.163  10.023   0.794  0.5204 -0.2021  0.3078
  978MOL0     H29041   1.930   9.970   0.749 -2.6702  2.5322  0.4889
  978MOL0     H29042   1.969  10.116   0.850  0.6348  0.5979 -0.3626
  978MOL0     H29043   1.891  10.002   1.052 -2.4815 -1.1902  0.5641
  978MOL0     H29044   1.888   9.851   0.966  1.1561  0.2458  1.8570
  978MOL0     H29045   1.696  10.093   0.905 -0.2097 -0.1035 -1.6901
  978MOL0     H29046   1.703   9.945   0.832 -0.7932  0.3202  0.5203
  978MOL0     H29047   1.664  10.017   1.149 -1.3828  0.7287  0.0833
  978MOL0     H29048   1.649   9.850   1.084 -0.3981 -0.0876  0.3302
  978MOL0     H29049   1.463   9.849   0.844  1.8344  1.0786 -0.7352
  978MOL0     H29050   1.173   9.824   0.826  3.0790  0.4288 -2.7901
  978MOL0     H29051   1.211   9.983   0.748  2.8083  1.1360  0.8737
  978MOL0     H29052   1.055  10.089   0.910 -2.9296  1.5576 -2.7422
  978MOL0     H29053   1.000   9.927   0.959  4.8875 -1.8994  1.9941
  978MOL0     H29054   0.996  10.026   0.670 -1.9865 -3.0460 -1.3260
  978MOL0     H29055   0.917   9.878   0.743 -1.9392 -0.5112  0.8306
  978MOL0     H29056   0.838  10.166   0.784 -2.3175 -0.3876 -0.2938
  978MOL0     H29057   0.780  10.039   0.890 -2.9300  2.3067 -0.0716
  978MOL0     H29058   0.529   9.833   0.680  0.1967  1.4376 -3.7640
  978MOL0     H29059   0.304   9.848   0.749  1.7642 -1.6086  0.3354
  978MOL0     H29060  -0.074   9.767   0.818  3.4114  1.4476 -2.3285
  978MOL0     H29061  -0.320   9.784   0.843 -0.5266  0.9216  3.6730
  978MOL0     H29062  -0.494  10.122   0.724  0.7455 -1.4377 -0.7205
  978MOL0     H29063  -0.511  10.200   0.884  1.6009  0.5090 -1.4872
  978MOL0     H29064  -0.700  10.045   0.923  0.8782 -0.1644 -0.1663
  978MOL0     H29065  -0.686   9.995   0.749  2.1698 -1.4559  1.2465
  978MOL0     H29066  -0.724  10.214   0.676 -3.0262  1.4731 -0.9330
  978MOL0     H29067  -0.749  10.272   0.850  1.4154 -0.1508 -0.3744
  978MOL0     H29068  -0.934  10.080   0.701  0.9493 -2.6674  1.9908
  978MOL0     H29069  -0.939  10.118   0.873  0.3255  1.6885  2.2509
  978MOL0     H29070  -0.946  10.329   0.665  3.8067  0.0763  2.0470
  978MOL0     H29071  -0.977  10.347   0.839  0.3605  1.2738 -1.5343
  978MOL0     H29072  -1.150  10.165   0.674 -0.9010 -1.8329  0.5364
  978MOL0     H29073  -1.178  10.340   0.675 -0.1074 -0.2508  0.5491
  978MOL0     H29074  -1.153  10.226   0.955  1.9874  2.5118 -0.1876
  978MOL0     H29075  -1.232  10.364   0.887  2.8347  0.9680 -0.7066
  978MOL0     H29076  -1.343  10.096   0.949 -0.7690  1.5246  1.0392
  978MOL0     H29077  -1.349  10.130   0.770  7.0032  0.5277 -0.8563
  978MOL0     H29078  -0.300  10.201   0.884 -0.1092  0.3299 -2.6862
  978MOL0     H29079  -0.042  10.192   0.888 -0.8349  0.3116  0.5116
  978MOL0     H29080   0.381  10.253   0.896 -0.7434 -1.1477  0.7026
  978MOL0     H29081   0.626  10.224   0.824  1.9210 -1.9342 -1.9845
  978MOL0     H29082   2.539   9.625   0.613 -0.7582  0.8205 -0.9072
  978MOL0     H29083   2.758   9.737   0.577  0.9684 -1.4036  0.5973
  978MOL0     H29084   3.263   9.670   0.820 -1.5945  0.2801  0.0163
  978MOL0     H29085   3.484   9.778   0.875 -0.1381  1.3239  1.2637
  978MOL0     H29086   3.648   9.944   0.843  0.4756 -1.8526  1.2233
  978MOL0     H29087   3.627   9.913   1.018 -3.0444  1.8376  1.2217
  978MOL0     H29088   3.701  10.154   1.049 -0.8990 -0.7570  1.1485
  978MOL0     H29089   3.829  10.036   1.011  0.2977  1.6449  1.1769
  978MOL0     H29090   3.826  10.105   0.769 -1.3291  0.4939 -1.1549
  978MOL0     H29091   3.882  10.222   0.875 -1.0718  2.0361 -2.1931
  978MOL0     H29092   3.632  10.227   0.711 -0.0588  0.3748 -0.2918
  978MOL0     H29093   3.621  10.300   0.876 -2.7468  1.1136 -2.2919
  978MOL0     H29094   3.857  10.582   0.679  3.6284 -0.6626  0.1137
  978MOL0     H29095   3.284  10.152   0.909 -1.2553  0.6674  0.3350
  978MOL0     H29096   3.064  10.045   0.875  2.1523  3.1360 -0.7618
  979MOL0     O29097   9.382   7.075   4.559  0.5159  0.8767  0.3659
  979MOL0     C29098   9.385   7.159   4.641  0.2733 -0.2395 -0.1444
  979MOL0     O29099   9.495   7.218   4.698 -0.2253 -0.3731  0.2964
  979MOL0     C29100   9.618   7.203   4.641 -0.9542 -0.0950  0.8196
  979MOL0     C29101   9.718   7.156   4.714  0.1088  0.2759 -0.1544
  979MOL0     C29102   9.837   7.140   4.659 -0.8244  1.0782  0.4123
  979MOL0     C29103   9.858   7.173   4.525  0.4942  0.0315  0.2345
  979MOL0     O29104   9.976   7.163   4.458 -1.0227  0.0773  0.0992
  979MOL0     C29105  10.087   7.184   4.535 -0.9542 -0.8095 -0.8628
  979MOL0     C29106  10.218   7.181   4.466  0.0045  0.0699  0.9604
  979MOL0     C29107  10.214   7.288   4.340 -0.2110 -0.5374 -0.1692
  979MOL0     C29108  10.348   7.278   4.275 -0.3840  0.1577  0.7437
  979MOL0     C29109  10.418   7.416   4.270  0.1554 -0.0521 -0.6332
  979MOL0     C29110  10.437   7.486   4.403  0.4272 -0.5434 -0.4831
  979MOL0     C29111  10.558   7.583   4.390  1.3992 -0.6798 -0.3368
  979MOL0     C29112  10.591   7.649   4.529  1.0436 -0.0054  0.7394
  979MOL0     N29113  10.469   7.706   4.597  0.0323 -0.2408 -0.5929
  979MOL0     C29114  10.437   7.836   4.604 -0.8738  0.8030  0.2121
  979MOL0     C29115  10.338   7.857   4.697 -0.4911  0.5113 -0.4395
  979MOL0     C29116  10.282   7.991   4.737  0.0432 -0.3115  0.2684
  979MOL0     C29117  10.145   7.981   4.801 -0.3427 -0.2382 -0.0892
  979MOL0     C29118  10.156   7.918   4.940 -0.5975 -0.4945 -0.2351
  979MOL0     C29119  10.037   7.850   5.002  0.4528  0.1106  0.1029
  979MOL0     O29120   9.944   7.953   5.046  0.6482 -0.3669  0.6932
  979MOL0     C29121   9.822   7.921   5.095 -0.0948 -0.2508  0.4696
  979MOL0     C29122   9.750   7.798   5.078 -0.1696  0.0761  0.4798
  979MOL0     C29123   9.619   7.785   5.125  0.0196 -0.8093  0.2733
  979MOL0     C29124   9.552   7.891   5.198  0.0668 -0.0265 -0.1923
  979MOL0     C29125   9.407   7.883   5.238  0.4896 -1.2811  0.4977
  979MOL0     O29126   9.373   7.962   5.339  0.7311  0.2308 -0.9895
  979MOL0     C29127   9.235   7.964   5.379  0.2984  0.0217 -0.2841
  979MOL0     C29128   9.182   8.093   5.387 -0.3262 -0.7697  0.8817
  979MOL0     C29129   9.046   8.116   5.415  0.0840  0.1788  0.3431
  979MOL0     C29130   8.965   8.010   5.456  0.6185  0.2196  0.2964
  979MOL0     O29131   8.830   8.036   5.479  0.4129 -0.6112  0.1442
  979MOL0     C29132   8.766   7.966   5.580 -0.0192 -0.4230  0.0832
  979MOL0     C29133   8.661   8.056   5.629 -0.2581  0.3542  0.2415
  979MOL0     C29134   8.542   8.000   5.713  0.4344  0.4091 -0.6694
  979MOL0     C29135   8.434   8.114   5.733  0.1125  0.7315 -0.5007
  979MOL0     C29136   8.292   8.069   5.766 -0.1267  0.2804  0.5526
  979MOL0     C29137   8.200   8.186   5.788  1.0277  0.1652 -0.0411
  979MOL0     C29138   8.051   8.155   5.783 -0.9051 -0.8551 -0.0283
  979MOL0     C29139   8.013   8.049   5.887  0.2135  0.8209 -0.0128
  979MOL0    Cl29140   8.061   8.101   6.055 -0.4035 -0.2734 -0.2799
  979MOL0     C29141   9.022   7.881   5.460 -0.1134  0.6494  0.8667
  979MOL0     C29142   9.156   7.859   5.421  0.7329  0.2938 -0.4839
  979MOL0     O29143   9.333   7.808   5.177 -0.1751 -0.5937  0.1618
  979MOL0     C29144   9.623   8.012   5.222 -0.5378  0.1223 -1.3235
  979MOL0     C29145   9.760   8.024   5.171 -0.2383 -0.2150  0.4683
  979MOL0     N29146  10.305   7.730   4.745  0.9580 -0.0472  1.2689
  979MOL0     N29147  10.381   7.644   4.680 -0.0792 -0.2974 -0.3369
  979MOL0     C29148   9.759   7.219   4.442 -0.0025 -0.0212 -0.0309
  979MOL0     C29149   9.637   7.236   4.506  0.1092 -0.2183  0.7999
  979MOL0     C29150   9.260   7.189   4.711  0.3136  0.7558  0.6572
  979MOL0     C29151   9.232   7.304   4.786 -0.1119  0.2449  0.2128
  979MOL0     C29152   9.108   7.313   4.852  0.0510  0.0756 -0.2824
  979MOL0     C29153   9.008   7.217   4.843 -0.6328 -0.6691  0.0431
  979MOL0     O29154   8.897   7.219   4.912 -0.1653  0.4917  0.7180
  979MOL0     C29155   8.890   7.290   5.033 -0.0078  0.5326 -0.1753
  979MOL0     C29156   8.737   7.308   5.069 -0.1813 -0.6044  0.1989
  979MOL0     C29157   8.705   7.337   5.221 -0.0529 -0.4454  0.0973
  979MOL0     C29158   8.559   7.359   5.243 -0.6970  0.1614  0.5239
  979MOL0     C29159   8.461   7.254   5.213 -0.1392 -0.3085  0.2158
  979MOL0     C29160   8.384   7.169   5.168 -0.6340 -0.3733 -0.0545
  979MOL0     C29161   9.031   7.108   4.762  0.2022 -0.3889  0.3180
  979MOL0     C29162   9.154   7.085   4.706 -0.0073 -0.2962  0.9868
  979MOL0     H29163   9.702   7.127   4.818 -2.8014 -0.3263 -0.6726
  979MOL0     H29164   9.913   7.092   4.719 -1.6211  1.7289  2.0233
  979MOL0     H29165  10.098   7.111   4.615  1.0306 -1.7062 -1.8923
  979MOL0     H29166  10.077   7.282   4.583  0.9848 -1.5110  1.1189
  979MOL0     H29167  10.239   7.079   4.434 -1.2492  0.2279 -0.5164
  979MOL0     H29168  10.296   7.215   4.535  0.7398  1.9366 -0.6936
  979MOL0     H29169  10.190   7.390   4.371 -1.0847 -0.4677 -1.0285
  979MOL0     H29170  10.139   7.266   4.264  1.4484 -2.2245 -1.4255
  979MOL0     H29171  10.407   7.206   4.333 -0.2689  0.0570  0.5014
  979MOL0     H29172  10.339   7.238   4.174 -1.7093 -1.3724  1.4255
  979MOL0     H29173  10.367   7.477   4.195 -1.5761 -0.6135  0.0330
  979MOL0     H29174  10.514   7.399   4.220  0.6278  0.7354 -0.0126
  979MOL0     H29175  10.459   7.414   4.483  0.3034 -0.2957 -0.2271
  979MOL0     H29176  10.346   7.538   4.433 -1.6015 -3.1862 -1.6774
  979MOL0     H29177  10.647   7.530   4.354 -0.1437 -3.1350 -0.8012
  979MOL0     H29178  10.529   7.669   4.330  0.0302 -0.4548  0.6111
  979MOL0     H29179  10.669   7.722   4.506  1.2554 -0.6560 -0.7079
  979MOL0     H29180  10.632   7.572   4.594  0.6638 -0.3242  0.6028
  979MOL0     H29181  10.495   7.916   4.560 -1.5299  0.8353 -0.6296
  979MOL0     H29182  10.274   8.060   4.652  2.7947  0.8576  0.8414
  979MOL0     H29183  10.347   8.040   4.811  0.3537  0.2808 -0.3819
  979MOL0     H29184  10.085   7.915   4.737  2.2297 -0.6541 -2.2511
  979MOL0     H29185  10.113   8.085   4.810  2.0775  0.4965  0.9380
  979MOL0     H29186  10.239   7.849   4.955  0.4366  0.5224 -1.0734
  979MOL0     H29187  10.181   8.000   5.008  3.0291 -1.5480 -0.0966
  979MOL0     H29188  10.061   7.794   5.092 -1.1301 -0.5898  0.1129
  979MOL0     H29189  10.002   7.764   4.944  1.2046 -0.0478 -0.1394
  979MOL0     H29190   9.804   7.728   5.015  2.7930  3.8896 -1.7034
  979MOL0     H29191   9.577   7.687   5.104  2.5788 -1.4819 -2.4319
  979MOL0     H29192   9.252   8.167   5.350 -0.2033 -2.1598 -1.9246
  979MOL0     H29193   8.997   8.212   5.405 -1.3392 -0.3932  1.4031
  979MOL0     H29194   8.824   7.939   5.668 -1.5965 -0.5994  1.1074
  979MOL0     H29195   8.726   7.871   5.542 -2.0057 -0.8073  2.8784
  979MOL0     H29196   8.609   8.096   5.541 -2.2041 -1.5685  0.4610
  979MOL0     H29197   8.714   8.129   5.692  0.5016 -1.2530  1.5395
  979MOL0     H29198   8.583   7.969   5.809  0.2262  1.0986 -0.3472
  979MOL0     H29199   8.495   7.910   5.673  2.1775 -0.9838  0.2806
  979MOL0     H29200   8.470   8.173   5.818  0.0741  2.0934 -1.3921
  979MOL0     H29201   8.429   8.186   5.650  0.2981 -0.5731 -1.6730
  979MOL0     H29202   8.288   8.018   5.863 -1.5746 -1.0355 -0.1481
  979MOL0     H29203   8.269   7.993   5.690 -0.1760  0.5372  0.3116
  979MOL0     H29204   8.223   8.262   5.713 -1.1619  1.8462  0.8990
  979MOL0     H29205   8.218   8.236   5.883 -0.3535  2.3508 -0.8745
  979MOL0     H29206   7.996   8.247   5.803 -0.6740 -1.4916  4.6076
  979MOL0     H29207   8.035   8.115   5.682  0.5121 -2.2297  0.2595
  979MOL0     H29208   8.061   7.955   5.858 -1.4863 -0.3455  0.8004
  979MOL0     H29209   7.904   8.034   5.885  0.4526 -1.5667  1.6384
  979MOL0     H29210   8.966   7.791   5.484  0.6451  0.1773  0.9044
  979MOL0     H29211   9.190   7.755   5.416 -1.6873 -0.5563 -0.3649
  979MOL0     H29212   9.572   8.095   5.271  1.2446  0.1592  0.6009
  979MOL0     H29213   9.822   8.113   5.179 -0.5057 -0.1252  1.7872
  979MOL0     H29214   9.783   7.236   4.338  3.5170 -2.2208  0.2372
  979MOL0     H29215   9.554   7.289   4.460  2.3215  2.3227 -0.5853
  979MOL0     H29216   9.307   7.381   4.802  2.5143 -2.1923  0.2960
  979MOL0     H29217   9.089   7.397   4.917  0.5731 -1.0188  1.3419
  979MOL0     H29218   8.943   7.386   5.037 -1.0197  1.0775  1.1869
  979MOL0     H29219   8.948   7.229   5.102 -2.0787 -1.6733 -0.2494
  979MOL0     H29220   8.704   7.378   4.992 -0.3110 -1.7441 -0.8150
  979MOL0     H29221   8.694   7.212   5.038  2.1947 -1.6469 -0.1411
  979MOL0     H29222   8.748   7.436   5.238 -1.0626  0.1225 -0.5374
  979MOL0     H29223   8.747   7.263   5.289 -0.4053 -0.5698  0.1817
  979MOL0     H29224   8.552   7.391   5.348  0.9194  1.2284  0.3387
  979MOL0     H29225   8.534   7.439   5.174  0.5688 -0.5694 -0.8355
  979MOL0     H29226   8.319   7.101   5.118  1.1338 -1.7300 -0.6259
  979MOL0     H29227   8.946   7.041   4.759 -2.7824  3.0999 -0.1209
  979MOL0     H29228   9.148   6.990   4.654 -1.1473 -0.6867  1.7882
  980MOL0     O29229   3.910   2.266   2.245  0.3939 -0.2979 -0.7629
  980MOL0     C29230   3.959   2.156   2.243 -0.3310 -0.4053 -0.0719
  980MOL0     O29231   3.943   2.065   2.337 -0.9889  0.6598 -0.4804
  980MOL0     C29232   3.830   2.068   2.425  0.1826  0.3577  0.7464
  980MOL0     C29233   3.835   2.155   2.532  0.7452 -0.1001 -0.3478
  980MOL0     C29234   3.722   2.177   2.609  0.6032  1.0662 -0.4940
  980MOL0     C29235   3.593   2.131   2.577  0.5265 -0.2827 -0.0550
  980MOL0     O29236   3.493   2.185   2.648 -0.0986  0.0074 -1.0688
  980MOL0     C29237   3.406   2.084   2.702 -0.0288 -0.6543  0.1251
  980MOL0     C29238   3.300   2.148   2.796 -0.1940  0.0468  0.3621
  980MOL0     C29239   3.350   2.227   2.926 -0.2775  0.1421 -0.2016
  980MOL0     C29240   3.213   2.261   2.999  0.3554  0.3137  0.4106
  980MOL0     C29241   3.254   2.305   3.137 -0.4548 -0.6645  0.4659
  980MOL0     C29242   3.146   2.319   3.247  0.8165 -0.9068  0.6529
  980MOL0     C29243   3.065   2.193   3.277 -0.4841  0.2092  0.3595
  980MOL0     C29244   2.992   2.203   3.411 -0.1629 -0.4926  0.1507
  980MOL0     N29245   2.894   2.311   3.424  0.9331 -0.4291 -0.3652
  980MOL0     C29246   2.778   2.295   3.490 -0.7451  0.0120 -0.8216
  980MOL0     C29247   2.712   2.415   3.486  0.1194  0.1906  0.1840
  980MOL0     C29248   2.584   2.450   3.554  0.1066  0.2662 -0.7908
  980MOL0     C29249   2.465   2.475   3.459  0.1256 -0.0749  0.4535
  980MOL0     C29250   2.332   2.431   3.524  0.4277  0.3763  0.7828
  980MOL0     C29251   2.274   2.538   3.621  0.6476 -0.0035 -0.8065
  980MOL0     O29252   2.163   2.492   3.694 -0.0759  0.2501 -0.3572
  980MOL0     C29253   2.121   2.567   3.799  0.6771 -0.3081 -0.5184
  980MOL0     C29254   2.041   2.511   3.900  0.3680 -0.5427  0.0701
  980MOL0     C29255   1.983   2.586   4.005  0.7795 -0.5016  0.0545
  980MOL0     C29256   1.996   2.716   4.004  0.6303 -0.3889  0.6589
  980MOL0     C29257   1.911   2.787   4.098 -0.0415 -0.4381 -0.5103
  980MOL0     O29258   1.860   2.711   4.206  0.0350 -0.5194 -1.0871
  980MOL0     C29259   1.766   2.774   4.278  0.4584 -0.8789  0.0016
  980MOL0     C29260   1.652   2.849   4.231  0.5380 -0.5483  0.6064
  980MOL0     C29261   1.557   2.912   4.320 -0.2996  0.2545  0.5354
  980MOL0     C29262   1.566   2.886   4.458 -0.1134  0.7636  0.7411
  980MOL0     O29263   1.485   2.941   4.551 -0.2970  0.8428 -0.6405
  980MOL0     C29264   1.367   3.015   4.513  0.1192 -0.1454  0.8134
  980MOL0     C29265   1.281   3.052   4.637 -0.1314 -0.0080  0.2983
  980MOL0     C29266   1.163   3.136   4.595  0.4560  0.8577  0.2053
  980MOL0     C29267   1.087   3.179   4.720 -0.0822 -0.0998  0.4900
  980MOL0     C29268   0.934   3.212   4.680 -0.4305  0.7678  0.2863
  980MOL0     C29269   0.893   3.333   4.766  0.5243 -0.0339  0.6197
  980MOL0     C29270   0.754   3.382   4.722  0.5149 -0.0002  0.0270
  980MOL0     C29271   0.701   3.495   4.816 -1.1710  0.8656 -0.8622
  980MOL0    Cl29272   0.536   3.542   4.757 -0.1195  0.0233 -0.2896
  980MOL0     C29273   1.668   2.793   4.496  0.9556  0.9472 -0.2077
  980MOL0     C29274   1.770   2.749   4.413 -0.0876  0.6238 -0.6816
  980MOL0     O29275   1.890   2.905   4.071  0.6912  0.0434 -0.7728
  980MOL0     C29276   2.088   2.777   3.908  0.3450  0.1241  0.5384
  980MOL0     C29277   2.142   2.702   3.810  0.2547 -0.2440  0.5917
  980MOL0     N29278   2.790   2.496   3.409  0.0887  0.0081  0.2052
  980MOL0     N29279   2.898   2.436   3.376 -0.1523 -0.6223 -0.1228
  980MOL0     C29280   3.593   2.029   2.480  0.5508  0.6120  0.7809
  980MOL0     C29281   3.708   1.998   2.403  0.3556  0.3572 -0.3517
  980MOL0     C29282   4.042   2.132   2.124  0.1311 -0.5866 -0.4311
  980MOL0     C29283   4.044   2.206   2.001  0.2292 -0.5371 -0.6040
  980MOL0     C29284   4.129   2.164   1.897  0.0270 -0.1590 -0.0696
  980MOL0     C29285   4.195   2.047   1.901  0.2774 -0.1905  0.0484
  980MOL0     O29286   4.267   1.989   1.801  0.5170 -0.0498  0.2185
  980MOL0     C29287   4.227   2.023   1.667 -0.6349 -0.5243  0.2016
  980MOL0     C29288   4.244   1.907   1.582 -0.7683  0.7350 -0.0994
  980MOL0     C29289   4.191   1.929   1.438 -0.0933  0.3671  0.3436
  980MOL0     C29290   4.205   1.810   1.346 -0.6721 -0.0202 -0.4082
  980MOL0     C29291   4.350   1.804   1.299 -0.0443  0.3585  0.1843
  980MOL0     C29292   4.462   1.798   1.246  1.0515 -0.8314 -0.4040
  980MOL0     C29293   4.186   1.965   2.018 -1.2998 -0.5681  0.9798
  980MOL0     C29294   4.116   2.013   2.132 -0.2190 -0.0414  1.1052
  980MOL0     H29295   3.931   2.202   2.554  1.6370  0.6289 -4.8095
  980MOL0     H29296   3.740   2.237   2.698 -0.8960 -0.8545  1.2275
  980MOL0     H29297   3.450   2.004   2.763 -3.7960 -2.6378  0.5670
  980MOL0     H29298   3.354   2.034   2.620  0.1560 -1.0185  0.2274
  980MOL0     H29299   3.233   2.072   2.837  1.7042 -1.0700  1.5484
  980MOL0     H29300   3.235   2.218   2.742 -1.0210 -1.1139 -0.1698
  980MOL0     H29301   3.402   2.319   2.895 -1.2985  0.6820 -0.3417
  980MOL0     H29302   3.416   2.162   2.984 -1.4824  0.4163  1.5432
  980MOL0     H29303   3.157   2.340   2.947 -1.8891 -0.4879  1.4676
  980MOL0     H29304   3.151   2.173   3.018  1.0461 -0.3324 -0.2776
  980MOL0     H29305   3.289   2.409   3.129  2.4996 -1.1327  4.3448
  980MOL0     H29306   3.343   2.253   3.175 -1.3916 -0.2772  3.4326
  980MOL0     H29307   3.074   2.394   3.212  1.1093 -0.6327  0.6371
  980MOL0     H29308   3.200   2.361   3.333  0.9744 -0.8478  0.5240
  980MOL0     H29309   3.002   2.159   3.194 -1.2501 -2.5953  1.9697
  980MOL0     H29310   3.134   2.109   3.293 -1.4149 -0.6046  0.1657
  980MOL0     H29311   3.054   2.215   3.500  0.9303  0.0761 -0.6651
  980MOL0     H29312   2.938   2.108   3.421 -3.4907  1.4546  2.8825
  980MOL0     H29313   2.729   2.202   3.518 -0.6348  0.1035 -0.3131
  980MOL0     H29314   2.604   2.539   3.615  1.5016  0.9097 -2.1131
  980MOL0     H29315   2.558   2.366   3.619 -0.4971  1.6079  0.7847
  980MOL0     H29316   2.491   2.413   3.373 -1.0759 -2.1961  1.5522
  980MOL0     H29317   2.450   2.577   3.422 -0.4540  0.0005  0.8851
  980MOL0     H29318   2.256   2.399   3.452  1.6390 -0.0433 -0.3565
  980MOL0     H29319   2.340   2.340   3.583 -0.3834 -1.4331 -1.7298
  980MOL0     H29320   2.263   2.638   3.577 -1.1641 -0.1987 -0.8722
  980MOL0     H29321   2.355   2.541   3.696  1.0641 -0.2250 -1.2426
  980MOL0     H29322   2.029   2.403   3.897 -3.1278 -0.2240 -1.2961
  980MOL0     H29323   1.936   2.533   4.088 -0.5758  0.8650  0.1914
  980MOL0     H29324   1.645   2.848   4.122  1.0752 -2.5318  0.5622
  980MOL0     H29325   1.477   2.978   4.288  0.0303  0.2724 -0.2589
  980MOL0     H29326   1.306   2.961   4.440  2.3535  1.0671 -2.1498
  980MOL0     H29327   1.391   3.106   4.458 -3.4910 -1.7758 -4.2642
  980MOL0     H29328   1.337   3.097   4.720  2.5507 -1.1867 -0.7501
  980MOL0     H29329   1.241   2.960   4.681  2.7963 -0.5208  2.1844
  980MOL0     H29330   1.096   3.072   4.537 -0.8007  2.0465  0.2850
  980MOL0     H29331   1.194   3.227   4.542 -1.1030  1.0643 -0.4131
  980MOL0     H29332   1.089   3.105   4.800  2.7029  0.6585  1.2223
  980MOL0     H29333   1.145   3.264   4.757  0.5154 -0.1688 -0.2745
  980MOL0     H29334   0.870   3.124   4.692  0.7592 -0.0534  0.8761
  980MOL0     H29335   0.927   3.236   4.573  0.1381 -0.5056 -0.0598
  980MOL0     H29336   0.962   3.418   4.762 -0.9758  1.3876  2.7511
  980MOL0     H29337   0.889   3.306   4.872  0.7663  0.0475  0.6494
  980MOL0     H29338   0.756   3.428   4.623 -0.9825 -0.8970 -0.4459
  980MOL0     H29339   0.675   3.307   4.733 -0.5102  1.3031  2.1471
  980MOL0     H29340   0.774   3.577   4.814  0.9242 -0.9227 -0.5322
  980MOL0     H29341   0.691   3.465   4.920 -1.2361 -0.4710 -1.2404
  980MOL0     H29342   1.665   2.770   4.603 -2.6243  0.3079 -0.3306
  980MOL0     H29343   1.851   2.688   4.451 -1.0201  0.9791  2.0790
  980MOL0     H29344   2.111   2.883   3.899 -0.8113  0.4101  0.7723
  980MOL0     H29345   2.203   2.756   3.739 -0.5880 -0.4700 -0.3295
  980MOL0     H29346   3.493   1.991   2.462  0.3753  0.5237  1.8885
  980MOL0     H29347   3.695   1.926   2.322 -3.4432 -0.2002  0.5330
  980MOL0     H29348   3.993   2.302   1.997  1.5379  0.2721  0.8650
  980MOL0     H29349   4.138   2.229   1.810 -0.8064  0.6604  0.4491
  980MOL0     H29350   4.276   2.114   1.632  0.5422 -1.5292 -0.8940
  980MOL0     H29351   4.121   2.048   1.667 -0.9797 -1.8407  0.9689
  980MOL0     H29352   4.348   1.878   1.571 -0.8685 -0.7773  2.2665
  980MOL0     H29353   4.194   1.819   1.623  1.5198 -1.4386 -1.7196
  980MOL0     H29354   4.253   2.009   1.398 -0.4372  0.1061 -0.7417
  980MOL0     H29355   4.092   1.975   1.440 -0.7432 -0.8376 -1.2924
  980MOL0     H29356   4.172   1.721   1.400  2.0164 -1.8341 -1.5681
  980MOL0     H29357   4.136   1.829   1.263 -0.5973 -0.7657 -0.6415
  980MOL0     H29358   4.564   1.804   1.215  0.7340  0.5827 -1.2245
  980MOL0     H29359   4.209   1.859   2.015 -0.8314 -0.5288  2.4462
  980MOL0     H29360   4.112   1.942   2.213  0.1706 -1.1843  0.1439
  981MOL0     O29361   2.918   5.360   5.638 -0.1423  0.3191 -0.1210
  981MOL0     C29362   2.942   5.435   5.725 -0.4907 -1.2852 -0.6139
  981MOL0     O29363   2.864   5.524   5.788 -1.1193 -0.6414 -0.2944
  981MOL0     C29364   2.736   5.538   5.750 -0.3892 -0.0019  0.5825
  981MOL0     C29365   2.707   5.604   5.631  0.1822  0.3449  0.7782
  981MOL0     C29366   2.569   5.632   5.607 -0.4923  0.0926  0.0264
  981MOL0     C29367   2.469   5.601   5.697 -0.1167 -0.3022  0.5763
  981MOL0     O29368   2.342   5.617   5.651  0.7192 -0.5795 -0.9921
  981MOL0     C29369   2.261   5.713   5.730 -0.1289  0.0046  1.1050
  981MOL0     C29370   2.138   5.637   5.780 -0.1734 -0.1916 -1.3777
  981MOL0     C29371   2.030   5.597   5.672 -0.4211  0.4206 -0.0101
  981MOL0     C29372   1.922   5.516   5.750 -0.2053  0.3353 -0.5543
  981MOL0     C29373   1.819   5.479   5.643 -0.2431 -0.7091 -0.0945
  981MOL0     C29374   1.710   5.383   5.667 -0.1812 -0.2444  0.4536
  981MOL0     C29375   1.630   5.412   5.784  0.2965  0.2469 -0.1730
  981MOL0     C29376   1.556   5.544   5.760 -0.1574 -0.0415 -1.1523
  981MOL0     N29377   1.461   5.547   5.646 -0.1060 -0.4017 -0.6220
  981MOL0     C29378   1.388   5.445   5.599 -0.8974 -0.0510 -0.8418
  981MOL0     C29379   1.335   5.497   5.485  0.4918  0.2892 -0.2724
  981MOL0     C29380   1.248   5.420   5.384  1.0804  0.7742  0.5255
  981MOL0     C29381   1.099   5.434   5.400  0.2308  0.6538 -0.0806
  981MOL0     C29382   1.017   5.332   5.319 -0.5325 -0.1861 -0.3679
  981MOL0     C29383   1.011   5.339   5.177  0.3615  0.0222  0.9795
  981MOL0     O29384   0.880   5.281   5.123 -0.1780 -0.2638 -0.3160
  981MOL0     C29385   0.815   5.365   5.034 -0.3920  0.7449 -0.9928
  981MOL0     C29386   0.880   5.432   4.924  0.0283 -0.1311  0.1878
  981MOL0     C29387   0.809   5.511   4.838 -0.5072  0.8327  1.0588
  981MOL0     C29388   0.668   5.530   4.852  0.7711  1.3372  0.8189
  981MOL0     C29389   0.590   5.621   4.763  0.7826  0.9038  0.8462
  981MOL0     O29390   0.463   5.662   4.799  0.4825  0.4905  0.3340
  981MOL0     C29391   0.408   5.772   4.737 -0.2215  0.5756  0.1750
  981MOL0     C29392   0.399   5.800   4.600 -0.2655  0.4143 -0.1665
  981MOL0     C29393   0.340   5.913   4.557  0.5972 -0.7199  0.3620
  981MOL0     C29394   0.271   6.003   4.641  0.0545  0.7653  0.2914
  981MOL0     O29395   0.201   6.108   4.596  0.4222 -0.4139  0.1085
  981MOL0     C29396   0.273   6.228   4.575 -0.0380  0.4078  0.4103
  981MOL0     C29397   0.171   6.346   4.560 -0.2316 -0.4668 -0.5279
  981MOL0     C29398   0.229   6.488   4.573 -0.2486 -0.4957  0.3589
  981MOL0     C29399   0.111   6.593   4.572  0.0998 -0.3109  0.5965
  981MOL0     C29400   0.149   6.735   4.604  0.2118  0.2699 -0.6510
  981MOL0     C29401   0.042   6.837   4.555 -0.6616 -0.5338 -0.6228
  981MOL0     C29402   0.066   6.982   4.619  0.5361  0.3083  0.4487
  981MOL0     C29403  -0.003   7.095   4.538 -0.4884 -0.0394 -0.1413
  981MOL0    Cl29404  -0.177   7.034   4.526 -0.1067 -0.2194  0.3257
  981MOL0     C29405   0.286   5.979   4.774 -0.4999  0.3208 -0.7275
  981MOL0     C29406   0.347   5.857   4.821 -1.0384 -0.1894 -0.0413
  981MOL0     O29407   0.648   5.650   4.660  0.8542  0.5987  0.4870
  981MOL0     C29408   0.603   5.452   4.952 -0.2122  0.4406 -1.3133
  981MOL0     C29409   0.671   5.378   5.042 -0.2882  0.5119  0.5957
  981MOL0     N29410   1.372   5.631   5.477 -0.1383 -0.5677  0.1850
  981MOL0     N29411   1.458   5.657   5.571  0.0922  0.0080  0.6519
  981MOL0     C29412   2.502   5.546   5.820 -0.4276  0.4985  0.6794
  981MOL0     C29413   2.637   5.525   5.844  0.1847  0.2078 -0.1409
  981MOL0     C29414   3.087   5.432   5.771  0.0521 -0.0973  0.0496
  981MOL0     C29415   3.193   5.390   5.678  0.3299 -0.1304 -0.1751
  981MOL0     C29416   3.325   5.406   5.720 -0.1402  0.3531  0.4831
  981MOL0     C29417   3.358   5.456   5.838  0.1246 -0.5152  0.2019
  981MOL0     O29418   3.492   5.447   5.866 -0.5637  0.2783 -1.1288
  981MOL0     C29419   3.561   5.481   5.990 -0.4818  0.1044  0.0061
  981MOL0     C29420   3.709   5.465   5.972  0.5282  0.0635 -0.4987
  981MOL0     C29421   3.766   5.593   5.915  0.7998 -0.2384  1.4038
  981MOL0     C29422   3.915   5.606   5.949  0.1434 -0.7976  0.4593
  981MOL0     C29423   3.925   5.639   6.090  1.2977 -0.4619 -0.4602
  981MOL0     C29424   3.930   5.671   6.211 -0.3158 -0.0566  0.6813
  981MOL0     C29425   3.265   5.495   5.932  0.6354 -0.8598  0.2464
  981MOL0     C29426   3.126   5.491   5.894 -0.1623 -0.0880  0.5552
  981MOL0     H29427   2.789   5.611   5.561  1.2589  0.4443  2.0131
  981MOL0     H29428   2.548   5.680   5.512  0.7247  0.1423 -0.2284
  981MOL0     H29429   2.224   5.793   5.665  2.7379  0.9520  0.5094
  981MOL0     H29430   2.310   5.757   5.817 -2.2596  1.4759  1.6500
  981MOL0     H29431   2.090   5.686   5.865  2.9605  2.0496 -0.7239
  981MOL0     H29432   2.180   5.542   5.813 -1.7744 -1.8526 -3.8017
  981MOL0     H29433   2.078   5.532   5.598  0.3004  1.1401 -0.2011
  981MOL0     H29434   1.992   5.694   5.638 -1.7405 -0.6804 -1.7693
  981MOL0     H29435   1.970   5.429   5.796  1.0904  0.4644 -1.5928
  981MOL0     H29436   1.874   5.568   5.833  1.5994 -1.7535  1.9391
  981MOL0     H29437   1.878   5.424   5.569  2.3755 -1.6915  2.5277
  981MOL0     H29438   1.777   5.571   5.600  1.7618  0.2204 -0.1994
  981MOL0     H29439   1.757   5.284   5.667  0.8779  0.2272 -0.8199
  981MOL0     H29440   1.632   5.376   5.591 -0.2164  0.1623  0.4510
  981MOL0     H29441   1.564   5.325   5.783  3.2167 -2.1605 -2.3258
  981MOL0     H29442   1.679   5.417   5.881 -1.0287 -0.1091  0.5387
  981MOL0     H29443   1.624   5.629   5.759  0.3584 -0.4446 -0.7641
  981MOL0     H29444   1.490   5.553   5.847 -0.7276 -0.1607 -1.5653
  981MOL0     H29445   1.395   5.342   5.632  2.1307  1.0468  2.5592
  981MOL0     H29446   1.277   5.315   5.388  1.8751  0.8770 -1.5016
  981MOL0     H29447   1.278   5.447   5.282  1.2185 -0.5812  0.1895
  981MOL0     H29448   1.072   5.539   5.387  3.0777  1.4942  0.2402
  981MOL0     H29449   1.082   5.409   5.505  2.7188  0.8954  0.4291
  981MOL0     H29450   1.044   5.230   5.345 -1.0305 -0.5719 -1.3129
  981MOL0     H29451   0.915   5.352   5.355  0.1411 -0.0121  1.5595
  981MOL0     H29452   1.101   5.296   5.132  0.6503 -1.9473  3.2433
  981MOL0     H29453   1.024   5.444   5.149  0.0543 -0.2783 -0.3226
  981MOL0     H29454   0.988   5.442   4.926  0.1890 -1.7391  0.7855
  981MOL0     H29455   0.856   5.576   4.765 -1.9352 -2.5908 -3.3639
  981MOL0     H29456   0.446   5.734   4.528 -2.9030  1.1613 -2.7758
  981MOL0     H29457   0.336   5.932   4.450 -0.3917 -1.5623  0.2396
  981MOL0     H29458   0.318   6.214   4.476  3.3043  1.3323  1.6489
  981MOL0     H29459   0.347   6.251   4.653  0.4809 -0.6679  0.2549
  981MOL0     H29460   0.102   6.333   4.644 -1.0631  2.7249 -0.5951
  981MOL0     H29461   0.110   6.338   4.469  1.6764  0.6278 -1.9587
  981MOL0     H29462   0.297   6.505   4.488  0.7105 -0.4000  1.1270
  981MOL0     H29463   0.280   6.500   4.669 -2.5656  0.8684  1.4941
  981MOL0     H29464   0.062   6.585   4.475  0.2828 -0.9180  0.5497
  981MOL0     H29465   0.034   6.570   4.647 -0.1882  0.1429  0.4388
  981MOL0     H29466   0.244   6.749   4.552 -0.2472  0.1330 -1.5448
  981MOL0     H29467   0.168   6.750   4.711  2.4153  3.4929 -1.3384
  981MOL0     H29468  -0.061   6.808   4.580 -0.5592  1.3473  2.4737
  981MOL0     H29469   0.047   6.843   4.446 -5.4695 -2.9544 -1.2610
  981MOL0     H29470   0.035   6.976   4.723 -1.7368 -0.3728 -0.2147
  981MOL0     H29471   0.175   6.996   4.622  0.7035  0.5126 -2.7847
  981MOL0     H29472   0.043   7.106   4.440 -0.2586 -0.2248 -0.0551
  981MOL0     H29473  -0.012   7.193   4.587 -3.8193  1.2959 -3.0210
  981MOL0     H29474   0.242   6.056   4.835 -2.0804  2.1339 -3.8980
  981MOL0     H29475   0.342   5.840   4.928 -2.9764  0.7419  0.0726
  981MOL0     H29476   0.495   5.457   4.969  0.2630  0.5306  2.9071
  981MOL0     H29477   0.621   5.320   5.119  2.6421 -1.7013  1.0172
  981MOL0     H29478   2.432   5.515   5.897  1.0512 -2.2281  1.0217
  981MOL0     H29479   2.673   5.495   5.942 -0.1229 -1.0260 -0.3903
  981MOL0     H29480   3.170   5.352   5.579  2.7850  1.3909 -1.4348
  981MOL0     H29481   3.404   5.408   5.645  3.4830 -0.1086  3.9820
  981MOL0     H29482   3.528   5.423   6.076 -2.0647  1.5708  0.4468
  981MOL0     H29483   3.541   5.588   6.005  3.6712  1.3465 -1.7753
  981MOL0     H29484   3.762   5.451   6.067 -0.7575  1.0970  0.4155
  981MOL0     H29485   3.732   5.379   5.909 -0.5848 -0.4802 -0.2007
  981MOL0     H29486   3.716   5.684   5.949 -3.9552 -1.4622 -1.3339
  981MOL0     H29487   3.756   5.583   5.806  1.7887 -1.1814  1.3816
  981MOL0     H29488   3.971   5.512   5.942 -0.2596 -1.0018 -0.0773
  981MOL0     H29489   3.950   5.683   5.880 -3.6799 -1.5501 -2.6547
  981MOL0     H29490   3.953   5.706   6.309  4.4655 -1.2669  0.2233
  981MOL0     H29491   3.296   5.528   6.031 -2.4759  2.0515  0.4594
  981MOL0     H29492   3.047   5.517   5.963  0.6054  0.1719  1.3587
  982MOL0     O29493   8.167   4.242   2.196  0.4318 -0.1844 -0.0521
  982MOL0     C29494   8.227   4.297   2.292  0.2231 -0.2283  0.1814
  982MOL0     O29495   8.166   4.365   2.390 -0.5304  0.5148  0.6340
  982MOL0     C29496   8.029   4.349   2.399  0.4081 -0.3734 -0.5035
  982MOL0     C29497   7.937   4.380   2.300  0.6585 -0.1440  0.5069
  982MOL0     C29498   7.797   4.362   2.307 -0.4977 -0.3187 -0.0546
  982MOL0     C29499   7.752   4.330   2.434  0.1784 -0.9663 -0.2507
  982MOL0     O29500   7.615   4.331   2.452 -0.2021  0.1206  0.1374
  982MOL0     C29501   7.566   4.386   2.575  0.2668  0.3009 -0.2895
  982MOL0     C29502   7.417   4.381   2.569  0.0974  0.4920  0.1253
  982MOL0     C29503   7.343   4.379   2.693 -0.3272 -0.4297  0.1359
  982MOL0     C29504   7.199   4.423   2.664 -0.1178  0.5517  0.8088
  982MOL0     C29505   7.116   4.415   2.795 -0.0460  0.0866  0.7074
  982MOL0     C29506   6.992   4.497   2.813 -0.0143  0.3664 -0.6294
  982MOL0     C29507   6.955   4.506   2.961  0.0968  0.4245  1.0332
  982MOL0     C29508   6.845   4.419   3.021  0.2565 -0.4967  0.2190
  982MOL0     N29509   6.716   4.480   2.974  0.0826  0.4753  0.2612
  982MOL0     C29510   6.655   4.593   3.026 -0.3902  0.8046 -0.1317
  982MOL0     C29511   6.537   4.585   2.954 -0.7478  0.3607  0.5236
  982MOL0     C29512   6.444   4.694   2.951 -0.7277 -0.1048  0.2668
  982MOL0     C29513   6.306   4.653   2.990 -0.2790 -0.4725  0.1857
  982MOL0     C29514   6.234   4.593   2.866 -0.3262  0.0668  0.7245
  982MOL0     C29515   6.206   4.690   2.747  0.4933  1.3860  0.5461
  982MOL0     O29516   6.105   4.794   2.774  0.1366  0.5150 -0.2753
  982MOL0     C29517   5.971   4.749   2.786 -0.0622  0.1243  0.1699
  982MOL0     C29518   5.920   4.639   2.722  0.3047 -0.0934 -0.2569
  982MOL0     C29519   5.781   4.619   2.726  0.4350 -0.4459 -0.4345
  982MOL0     C29520   5.693   4.713   2.804 -1.1093  0.4841  0.7158
  982MOL0     C29521   5.547   4.701   2.786 -0.1260 -0.6825  0.4675
  982MOL0     O29522   5.476   4.784   2.865 -0.7497  1.1819  0.1743
  982MOL0     C29523   5.345   4.793   2.828 -0.9190  0.5837  0.2492
  982MOL0     C29524   5.253   4.706   2.893  0.0719 -0.1181 -0.0384
  982MOL0     C29525   5.120   4.696   2.853  0.2176 -0.3597  0.8314
  982MOL0     C29526   5.075   4.782   2.747 -0.3507  0.5931  0.2282
  982MOL0     O29527   4.945   4.798   2.714 -0.1644  0.3709 -0.0395
  982MOL0     C29528   4.847   4.694   2.724 -0.4627  0.5139  0.0089
  982MOL0     C29529   4.715   4.756   2.669 -0.3304  0.8400 -0.3487
  982MOL0     C29530   4.604   4.654   2.681  0.2990  0.0108  0.1331
  982MOL0     C29531   4.471   4.710   2.622  0.1759 -0.5023  0.3769
  982MOL0     C29532   4.343   4.633   2.651 -0.0502  0.1854 -0.1649
  982MOL0     C29533   4.215   4.707   2.592  0.3633  0.5869 -0.1742
  982MOL0     C29534   4.183   4.825   2.689  0.1343  0.7477  0.3917
  982MOL0     C29535   4.029   4.843   2.691  0.5581  0.0913  0.5716
  982MOL0    Cl29536   3.930   4.704   2.750 -0.0380 -0.2647  0.0463
  982MOL0     C29537   5.164   4.874   2.689  0.4741 -1.1930  0.2299
  982MOL0     C29538   5.300   4.885   2.730  0.9383 -1.2219  0.3602
  982MOL0     O29539   5.502   4.626   2.701 -0.5105  0.7751  0.1494
  982MOL0     C29540   5.750   4.813   2.881  0.8850  0.5032 -0.9173
  982MOL0     C29541   5.884   4.837   2.854  1.4089 -1.0883 -0.5308
  982MOL0     N29542   6.533   4.482   2.860  0.4380 -0.2475  0.0537
  982MOL0     N29543   6.641   4.416   2.883  0.9294 -0.0353  0.8587
  982MOL0     C29544   7.846   4.302   2.541  0.7458  0.5666 -0.6193
  982MOL0     C29545   7.976   4.310   2.523 -0.4032 -0.5829 -0.1352
  982MOL0     C29546   8.380   4.292   2.301  0.1762  0.9358  0.3125
  982MOL0     C29547   8.445   4.367   2.396 -0.1893 -0.2687  0.2326
  982MOL0     C29548   8.585   4.382   2.384  0.6630 -0.3121 -0.3357
  982MOL0     C29549   8.652   4.305   2.289  0.0219  0.4893 -0.0202
  982MOL0     O29550   8.785   4.313   2.279 -0.0088 -0.3073 -0.1080
  982MOL0     C29551   8.864   4.198   2.321  0.3885 -0.2860 -0.1509
  982MOL0     C29552   8.860   4.192   2.472  0.0687  1.2688  0.5619
  982MOL0     C29553   8.936   4.069   2.535 -0.4840  1.0798 -0.1308
  982MOL0     C29554   9.079   4.049   2.486 -0.1485 -0.5488  0.0623
  982MOL0     C29555   9.164   3.964   2.569 -0.0218  0.4071  0.3460
  982MOL0     C29556   9.227   3.888   2.644  0.7265  0.0298 -0.3500
  982MOL0     C29557   8.584   4.220   2.203 -0.4477 -0.3058  0.2198
  982MOL0     C29558   8.447   4.212   2.208 -0.8750 -0.0585 -1.0966
  982MOL0     H29559   7.968   4.422   2.205 -0.1911 -0.4856  0.0599
  982MOL0     H29560   7.724   4.385   2.230 -2.0021 -1.7838  0.8673
  982MOL0     H29561   7.595   4.491   2.586 -2.1701  1.0434 -0.5211
  982MOL0     H29562   7.580   4.321   2.661 -0.8959 -2.0168 -1.7496
  982MOL0     H29563   7.386   4.294   2.511  1.9823  0.6695 -1.2646
  982MOL0     H29564   7.380   4.465   2.509 -4.0479 -1.5527 -0.4885
  982MOL0     H29565   7.384   4.452   2.764  2.6701  0.4880 -2.2905
  982MOL0     H29566   7.359   4.276   2.726  0.2753 -0.6905 -0.9214
  982MOL0     H29567   7.206   4.524   2.623  2.3064 -0.2832 -1.0270
  982MOL0     H29568   7.165   4.365   2.577  2.9266  1.2381 -0.9642
  982MOL0     H29569   7.180   4.449   2.878  0.8987 -0.0306  0.0333
  982MOL0     H29570   7.091   4.310   2.813 -0.8193  0.4136  1.6334
  982MOL0     H29571   6.917   4.458   2.744 -0.4711 -0.6228  0.4060
  982MOL0     H29572   7.020   4.590   2.763 -0.6713 -0.0734 -1.8405
  982MOL0     H29573   7.038   4.487   3.030  0.1686 -0.4371  0.7271
  982MOL0     H29574   6.933   4.609   2.989  1.4423  0.6175  1.4520
  982MOL0     H29575   6.856   4.410   3.130  2.2304 -0.2170  0.0834
  982MOL0     H29576   6.848   4.318   2.979  0.2797 -1.5628  2.6253
  982MOL0     H29577   6.685   4.649   3.114  0.8338 -1.4733  1.0050
  982MOL0     H29578   6.453   4.736   2.851 -0.1255  1.4366  0.9251
  982MOL0     H29579   6.473   4.777   3.016 -2.7156  0.7586  0.1064
  982MOL0     H29580   6.254   4.743   3.024 -2.5532 -1.1227 -1.3894
  982MOL0     H29581   6.295   4.587   3.077 -2.5628 -2.0624 -1.2071
  982MOL0     H29582   6.282   4.501   2.831 -1.6448 -0.4265  0.1628
  982MOL0     H29583   6.140   4.553   2.903  0.0562 -1.1112  0.4795
  982MOL0     H29584   6.174   4.625   2.665  2.2057  3.2838 -1.7758
  982MOL0     H29585   6.298   4.732   2.704 -1.0218  0.5751 -3.9952
  982MOL0     H29586   5.989   4.578   2.665 -0.4009 -0.0141 -1.2270
  982MOL0     H29587   5.741   4.534   2.672  2.6828 -1.7306 -0.2133
  982MOL0     H29588   5.285   4.647   2.978 -0.6912  2.6616  2.3350
  982MOL0     H29589   5.050   4.635   2.909 -0.4050  1.5135  2.2095
  982MOL0     H29590   4.839   4.661   2.828  0.2876 -3.2225 -1.0002
  982MOL0     H29591   4.877   4.613   2.658  1.4761  2.1899 -1.3099
  982MOL0     H29592   4.742   4.779   2.566 -1.9026  0.4032 -0.8936
  982MOL0     H29593   4.707   4.846   2.730 -1.3762  0.6823 -0.2284
  982MOL0     H29594   4.585   4.639   2.788  0.8008  2.8651  0.7045
  982MOL0     H29595   4.625   4.561   2.628 -0.9434  0.6220 -1.5227
  982MOL0     H29596   4.452   4.806   2.671 -2.1392  0.2290 -1.7184
  982MOL0     H29597   4.477   4.719   2.513 -2.1793 -2.3299  0.0068
  982MOL0     H29598   4.335   4.618   2.759  1.3092 -1.1838 -0.2091
  982MOL0     H29599   4.358   4.537   2.600  1.9666 -0.0708  0.8089
  982MOL0     H29600   4.133   4.636   2.582 -0.4454  1.5391 -0.4480
  982MOL0     H29601   4.229   4.742   2.490  0.5504  0.9015 -0.0441
  982MOL0     H29602   4.202   4.806   2.795  1.4492 -1.6087 -0.1858
  982MOL0     H29603   4.234   4.914   2.651  1.0090  0.8250  1.7148
  982MOL0     H29604   3.996   4.865   2.590 -0.7143 -3.5606  0.0343
  982MOL0     H29605   4.000   4.930   2.750 -2.7917  0.1855 -1.0105
  982MOL0     H29606   5.125   4.958   2.633 -2.3917 -1.2182  2.0136
  982MOL0     H29607   5.375   4.956   2.695 -0.7066  1.3491  1.7709
  982MOL0     H29608   5.684   4.867   2.948 -3.8117 -4.5994 -0.6447
  982MOL0     H29609   5.923   4.928   2.899 -0.4066 -0.8554  0.6726
  982MOL0     H29610   7.810   4.265   2.636  0.0535 -0.9109 -1.4300
  982MOL0     H29611   8.032   4.298   2.616 -1.3138  1.8527  0.8171
  982MOL0     H29612   8.392   4.406   2.482 -1.4534 -1.5697  0.0788
  982MOL0     H29613   8.642   4.449   2.446 -0.6693  0.4949  0.0596
  982MOL0     H29614   8.969   4.220   2.302  0.6317  2.2625  3.1462
  982MOL0     H29615   8.821   4.106   2.282  1.2317 -1.5692  1.7957
  982MOL0     H29616   8.897   4.287   2.512 -0.1404  0.6703  2.2456
  982MOL0     H29617   8.756   4.193   2.508 -0.8098 -0.0663 -1.7105
  982MOL0     H29618   8.879   3.976   2.523 -0.1721  0.9525 -0.6164
  982MOL0     H29619   8.942   4.081   2.644 -1.1524 -2.4267  0.4275
  982MOL0     H29620   9.072   4.027   2.379 -1.0426  4.7032 -1.2387
  982MOL0     H29621   9.115   4.152   2.488 -3.2762  0.6683  0.9096
  982MOL0     H29622   9.286   3.812   2.691 -0.0623 -1.1238 -1.1732
  982MOL0     H29623   8.635   4.166   2.123  0.5486  0.8517  0.0369
  982MOL0     H29624   8.398   4.146   2.137 -0.4900  0.4377 -1.8380
  983MOL0     O29625   9.955   7.654   6.590  0.2034  0.6162 -0.2607
  983MOL0     C29626  10.003   7.557   6.644  0.8771  0.2769  0.5036
  983MOL0     O29627   9.944   7.438   6.666  0.6353 -0.4851 -0.1593
  983MOL0     C29628   9.809   7.425   6.650  0.6318  0.8550 -0.5022
  983MOL0     C29629   9.769   7.292   6.644 -0.2401 -0.6273 -0.0065
  983MOL0     C29630   9.634   7.260   6.641 -0.4160 -0.1503  0.0164
  983MOL0     C29631   9.536   7.359   6.658 -0.2258 -0.0245 -1.0670
  983MOL0     O29632   9.409   7.319   6.624  0.3276 -0.5431  0.7499
  983MOL0     C29633   9.303   7.413   6.666  0.7060  0.2897 -0.4197
  983MOL0     C29634   9.169   7.347   6.661  0.8449 -0.7109  0.5240
  983MOL0     C29635   9.058   7.432   6.710  0.2833 -0.6039  0.0002
  983MOL0     C29636   8.920   7.373   6.686  0.7554  0.0515  0.8944
  983MOL0     C29637   8.801   7.461   6.726  0.1377 -1.4330 -0.1063
  983MOL0     C29638   8.664   7.384   6.711 -0.3440  0.0826  0.5507
  983MOL0     C29639   8.566   7.405   6.827  0.7884 -0.0805  1.1027
  983MOL0     C29640   8.603   7.332   6.965 -1.1168  0.0419  1.2324
  983MOL0     N29641   8.511   7.381   7.069 -0.3552 -0.1299  0.5365
  983MOL0     C29642   8.376   7.391   7.064  1.0759 -0.4324  0.1304
  983MOL0     C29643   8.321   7.428   7.179 -1.0841  0.5637  0.2494
  983MOL0     C29644   8.190   7.453   7.222 -0.2942 -0.1737 -0.1979
  983MOL0     C29645   8.141   7.600   7.192 -0.4128  0.3535  0.7928
  983MOL0     C29646   8.018   7.646   7.281 -0.5279  0.7558  0.1282
  983MOL0     C29647   7.903   7.550   7.268  0.4066 -0.3350 -0.1417
  983MOL0     O29648   7.789   7.614   7.326  0.3278  0.6344 -0.2043
  983MOL0     C29649   7.664   7.544   7.312 -0.5473  0.7384 -0.5939
  983MOL0     C29650   7.556   7.612   7.368 -1.2004  1.0187  1.1751
  983MOL0     C29651   7.428   7.559   7.365  0.0195  0.7891  0.6436
  983MOL0     C29652   7.396   7.436   7.302  0.1259  1.5150 -0.1357
  983MOL0     C29653   7.251   7.372   7.295 -0.1931 -0.2268 -0.7555
  983MOL0     O29654   7.244   7.238   7.262  0.3741 -0.2929  0.9524
  983MOL0     C29655   7.135   7.153   7.275  0.1842  0.4493 -0.7599
  983MOL0     C29656   6.999   7.189   7.290  0.1111 -0.0260 -0.0348
  983MOL0     C29657   6.901   7.087   7.297  0.0450  0.3372  0.4160
  983MOL0     C29658   6.931   6.954   7.288 -0.0038 -0.1604  0.3701
  983MOL0     O29659   6.818   6.870   7.291 -0.1152  0.5988  0.3743
  983MOL0     C29660   6.852   6.734   7.302  0.4278 -0.0710  0.0105
  983MOL0     C29661   6.724   6.648   7.301 -0.2984 -0.1071 -0.7659
  983MOL0     C29662   6.665   6.631   7.439 -0.3292 -0.0536  0.0525
  983MOL0     C29663   6.546   6.535   7.446  0.4746  0.0800  0.3452
  983MOL0     C29664   6.469   6.555   7.579 -0.3733  0.5304 -0.4707
  983MOL0     C29665   6.360   6.448   7.598  0.3333  0.2187 -0.3055
  983MOL0     C29666   6.243   6.474   7.499  0.1578  0.5078  0.5852
  983MOL0     C29667   6.140   6.371   7.520  0.3569  0.0344 -0.8504
  983MOL0    Cl29668   6.192   6.211   7.479 -0.2560  0.1623 -0.0010
  983MOL0     C29669   7.066   6.915   7.268  0.1183 -0.3281  0.4923
  983MOL0     C29670   7.162   7.013   7.266  0.0687 -0.2900 -0.7262
  983MOL0     O29671   7.159   7.439   7.332  0.1830  0.4148 -0.3802
  983MOL0     C29672   7.507   7.364   7.256  0.9669 -0.1580  0.1829
  983MOL0     C29673   7.642   7.417   7.254 -0.3122 -0.4080 -1.1697
  983MOL0     N29674   8.434   7.445   7.257  0.4822 -0.5914 -1.2338
  983MOL0     N29675   8.543   7.409   7.201  1.1636  0.9281  0.4093
  983MOL0     C29676   9.574   7.489   6.675  0.0520 -0.1710  0.2409
  983MOL0     C29677   9.710   7.523   6.678  0.1659 -1.3521  0.1771
  983MOL0     C29678  10.144   7.566   6.696  0.4253  0.5486  0.4263
  983MOL0     C29679  10.214   7.446   6.706 -0.3617  0.0041 -0.2789
  983MOL0     C29680  10.345   7.444   6.746  0.2144  0.1747  1.1592
  983MOL0     C29681  10.418   7.559   6.774 -0.0255  0.9134  0.4648
  983MOL0     O29682  10.552   7.553   6.803  0.4885 -1.0948  0.6203
  983MOL0     C29683  10.608   7.668   6.884  0.1578  0.7183 -0.1453
  983MOL0     C29684  10.760   7.647   6.905  0.3228 -0.1228  0.4793
  983MOL0     C29685  10.820   7.641   6.771 -0.9797  0.0759  0.5156
  983MOL0     C29686  10.971   7.601   6.778  0.5947 -0.1335  0.4578
  983MOL0     C29687  11.001   7.469   6.825 -0.2206 -0.7032 -0.4726
  983MOL0     C29688  11.026   7.360   6.859 -0.3627  0.6378 -0.4881
  983MOL0     C29689  10.348   7.677   6.777  0.3689 -0.8404  0.4731
  983MOL0     C29690  10.214   7.680   6.740 -0.3059 -0.0963  0.5316
  983MOL0     H29691   9.849   7.221   6.626  0.1021  0.4802 -3.9761
  983MOL0     H29692   9.601   7.158   6.622 -0.0113 -0.2771 -0.0213
  983MOL0     H29693   9.308   7.503   6.604  1.0558  1.3688  1.1087
  983MOL0     H29694   9.315   7.445   6.770  0.1347 -0.8493  0.0208
  983MOL0     H29695   9.172   7.256   6.722 -0.4587 -0.0430  1.6571
  983MOL0     H29696   9.154   7.318   6.557  4.0575  1.2732 -0.6554
  983MOL0     H29697   9.068   7.533   6.669  3.0342 -0.0781  1.6619
  983MOL0     H29698   9.069   7.442   6.818  0.2611 -1.2824  0.0707
  983MOL0     H29699   8.912   7.334   6.584  1.8434  0.9009  0.4619
  983MOL0     H29700   8.914   7.287   6.753 -0.2645 -1.7643 -1.3886
  983MOL0     H29701   8.791   7.558   6.675 -0.9385  0.2211  2.9422
  983MOL0     H29702   8.820   7.499   6.827 -0.5540  0.4130 -0.6176
  983MOL0     H29703   8.680   7.275   6.708 -2.5627 -0.2510 -1.3574
  983MOL0     H29704   8.613   7.402   6.616 -1.1890 -0.6883  0.8392
  983MOL0     H29705   8.565   7.514   6.837 -1.6535  0.2535 -1.5269
  983MOL0     H29706   8.466   7.373   6.796  1.4425 -1.0448 -0.1178
  983MOL0     H29707   8.705   7.347   7.001 -0.6131 -3.0340  1.4160
  983MOL0     H29708   8.598   7.223   6.950 -1.4541 -0.1125  2.3835
  983MOL0     H29709   8.322   7.364   6.974  0.7282  0.0735  0.1826
  983MOL0     H29710   8.205   7.434   7.329 -0.1983  0.9578  0.0041
  983MOL0     H29711   8.126   7.376   7.178 -0.0732 -0.1621 -0.5428
  983MOL0     H29712   8.109   7.599   7.087 -2.2792  0.0779  1.3198
  983MOL0     H29713   8.224   7.667   7.216  1.7973 -0.9784 -2.3975
  983MOL0     H29714   8.054   7.636   7.384  1.4463  0.0566 -0.5756
  983MOL0     H29715   7.977   7.747   7.275 -0.2617  1.0447  2.2989
  983MOL0     H29716   7.930   7.456   7.316  0.9033 -0.5349 -0.8002
  983MOL0     H29717   7.885   7.533   7.161  0.9132 -0.1115 -0.2632
  983MOL0     H29718   7.575   7.708   7.415  2.3355  0.8337  0.3989
  983MOL0     H29719   7.351   7.607   7.425  0.8357  1.7766  0.9273
  983MOL0     H29720   6.984   7.296   7.285  2.3012  0.2688 -2.0049
  983MOL0     H29721   6.795   7.107   7.305  0.4474  2.1221  1.8330
  983MOL0     H29722   6.911   6.701   7.388  0.6279 -0.8795 -0.4221
  983MOL0     H29723   6.909   6.711   7.212 -0.2260  1.5627 -0.8522
  983MOL0     H29724   6.744   6.555   7.247 -2.5272 -1.9117  1.2469
  983MOL0     H29725   6.645   6.686   7.235 -2.0211 -2.2546 -0.0939
  983MOL0     H29726   6.625   6.731   7.458 -0.9924 -0.5923  1.7149
  983MOL0     H29727   6.732   6.608   7.523 -1.8489  1.5245  1.7884
  983MOL0     H29728   6.480   6.560   7.363 -2.1965 -1.0903  1.9764
  983MOL0     H29729   6.567   6.428   7.449 -2.7349 -0.6346  2.8410
  983MOL0     H29730   6.418   6.652   7.589 -0.0643  0.4495  3.6929
  983MOL0     H29731   6.551   6.542   7.650  0.9706 -3.4740 -2.4828
  983MOL0     H29732   6.323   6.454   7.701 -3.1058 -0.6435 -1.3533
  983MOL0     H29733   6.408   6.350   7.594 -2.0536 -1.2931  2.9648
  983MOL0     H29734   6.200   6.570   7.527  0.9447  0.3465  2.5202
  983MOL0     H29735   6.281   6.478   7.397 -2.0972 -0.3722 -0.3701
  983MOL0     H29736   6.045   6.399   7.473 -0.8141  0.5882  1.6399
  983MOL0     H29737   6.108   6.365   7.625 -1.0718 -1.1047 -1.3110
  983MOL0     H29738   7.089   6.812   7.241 -3.0508 -0.8267 -0.7846
  983MOL0     H29739   7.259   6.976   7.234 -0.8221 -1.8162 -1.8391
  983MOL0     H29740   7.498   7.259   7.230 -2.1776 -0.2103  1.1393
  983MOL0     H29741   7.729   7.361   7.221  0.5970 -0.3258  0.9292
  983MOL0     H29742   9.502   7.570   6.673  2.9175  2.5927 -2.3117
  983MOL0     H29743   9.738   7.627   6.673  2.5616 -1.7568  2.6812
  983MOL0     H29744  10.170   7.350   6.679 -2.3137  0.5872  0.6712
  983MOL0     H29745  10.392   7.347   6.758  1.9858  0.6971 -0.9588
  983MOL0     H29746  10.562   7.663   6.983  0.1409 -0.7702 -0.2083
  983MOL0     H29747  10.582   7.761   6.832  0.0146 -0.6287 -2.6248
  983MOL0     H29748  10.797   7.734   6.960  0.6080 -0.4907  0.8791
  983MOL0     H29749  10.766   7.554   6.962 -0.3785 -1.6409 -1.7777
  983MOL0     H29750  10.810   7.739   6.725 -2.5896 -0.5709 -0.6135
  983MOL0     H29751  10.772   7.574   6.699  1.8476  1.0125 -2.5158
  983MOL0     H29752  10.999   7.612   6.673  5.0446  1.8208  1.5843
  983MOL0     H29753  11.028   7.676   6.835 -0.5316  0.1875  1.1996
  983MOL0     H29754  11.050   7.265   6.902  0.6333  0.7847 -0.6966
  983MOL0     H29755  10.388   7.778   6.785 -1.9886  0.3358 -1.1929
  983MOL0     H29756  10.179   7.783   6.730 -1.2890 -0.2498  2.0781
  984MOL0     O29757   9.354   2.809   7.304  0.6004  0.5357 -0.1054
  984MOL0     C29758   9.247   2.867   7.288  0.5417 -0.3963  0.3253
  984MOL0     O29759   9.130   2.834   7.351  0.2829  0.1248 -0.1483
  984MOL0     C29760   9.010   2.886   7.312 -0.9483  0.1260 -0.6246
  984MOL0     C29761   8.961   2.998   7.389 -0.3606  0.2107 -0.0638
  984MOL0     C29762   8.838   3.052   7.349  0.8426  0.5302  0.9396
  984MOL0     C29763   8.761   2.994   7.239  0.4685 -0.7618 -0.2281
  984MOL0     O29764   8.638   3.049   7.205 -0.3622  0.2356 -0.1792
  984MOL0     C29765   8.627   3.192   7.179  0.4125 -0.0328  0.5886
  984MOL0     C29766   8.502   3.205   7.075  0.0212  0.6412 -0.0279
  984MOL0     C29767   8.442   3.342   7.070 -0.9687  1.4630  0.1705
  984MOL0     C29768   8.319   3.338   6.983  0.5883  0.0771  0.8574
  984MOL0     C29769   8.255   3.465   6.940 -0.3892 -0.2884 -0.5268
  984MOL0     C29770   8.202   3.546   7.059  0.3884  1.6997 -0.3140
  984MOL0     C29771   8.170   3.687   7.009 -0.4955  0.0821  0.2173
  984MOL0     C29772   8.050   3.689   6.916 -0.5375  0.4590 -0.0687
  984MOL0     N29773   7.987   3.824   6.924  0.6906 -0.0956  0.9459
  984MOL0     C29774   7.848   3.837   6.929 -0.1102  0.0830  0.5145
  984MOL0     C29775   7.837   3.964   6.921  0.8432  0.2293  1.1988
  984MOL0     C29776   7.690   4.033   6.914 -0.6109  0.1415  0.9935
  984MOL0     C29777   7.619   4.066   7.047  0.0983  0.4637  0.5772
  984MOL0     C29778   7.685   4.181   7.120 -0.7180 -0.2296 -0.2117
  984MOL0     C29779   7.662   4.322   7.059 -0.0558  0.1098  0.0875
  984MOL0     O29780   7.536   4.364   7.105  0.0442 -0.2596  0.2714
  984MOL0     C29781   7.442   4.410   7.017  1.1362 -0.4974 -0.0128
  984MOL0     C29782   7.465   4.492   6.906  0.1328  0.1795 -1.2494
  984MOL0     C29783   7.370   4.544   6.825 -0.5402 -0.4877  0.0540
  984MOL0     C29784   7.241   4.500   6.845 -0.0569  0.0655 -0.6393
  984MOL0     C29785   7.133   4.568   6.787 -0.2870 -0.1038 -0.0054
  984MOL0     O29786   7.021   4.584   6.860  0.7112  0.3358 -0.1346
  984MOL0     C29787   6.899   4.620   6.805  0.1573 -0.1125  0.7980
  984MOL0     C29788   6.797   4.626   6.902  0.5545 -0.4384  0.1378
  984MOL0     C29789   6.673   4.669   6.870 -0.7322 -0.1043 -0.4086
  984MOL0     C29790   6.640   4.687   6.735 -0.3814 -0.7811  0.0215
  984MOL0     O29791   6.515   4.722   6.690  0.2875  0.2981 -0.0691
  984MOL0     C29792   6.410   4.751   6.780 -0.5585 -0.4405  0.5932
  984MOL0     C29793   6.304   4.835   6.709  0.3910  0.0177 -0.0216
  984MOL0     C29794   6.165   4.835   6.767  0.6495  0.3914  0.3158
  984MOL0     C29795   6.169   4.819   6.919 -0.5661  0.0137 -0.2717
  984MOL0     C29796   6.038   4.845   6.989 -0.5008 -0.7362 -0.1981
  984MOL0     C29797   5.932   4.749   6.944  0.4098  0.1034  0.5828
  984MOL0     C29798   5.796   4.792   7.005  0.6492 -0.1870  0.0547
  984MOL0     C29799   5.678   4.743   6.913  0.1517 -0.7902  0.2910
  984MOL0    Cl29800   5.666   4.839   6.750 -0.3545  0.2435 -0.4714
  984MOL0     C29801   6.738   4.667   6.638  0.2303 -0.2675 -0.2782
  984MOL0     C29802   6.860   4.633   6.672 -0.4397  0.1661  0.8103
  984MOL0     O29803   7.161   4.637   6.691 -0.6052 -0.1345 -0.7348
  984MOL0     C29804   7.210   4.421   6.961 -1.5037  0.2756 -1.1689
  984MOL0     C29805   7.310   4.380   7.049  1.0913 -0.3548 -0.3316
  984MOL0     N29806   7.957   4.030   6.904 -0.2343 -0.2603 -0.9279
  984MOL0     N29807   8.048   3.944   6.898 -0.0729 -0.3518  0.0284
  984MOL0     C29808   8.809   2.891   7.167  0.0429  1.2673 -0.3127
  984MOL0     C29809   8.936   2.837   7.208  0.2939 -0.6231 -0.1827
  984MOL0     C29810   9.260   2.969   7.178 -0.2748  0.0271  0.3051
  984MOL0     C29811   9.200   3.096   7.177 -0.0895 -0.7720 -0.1005
  984MOL0     C29812   9.224   3.193   7.079  0.8205  0.8311  0.1557
  984MOL0     C29813   9.323   3.169   6.982 -0.0388  0.0858 -0.0726
  984MOL0     O29814   9.337   3.262   6.889  0.8976  0.2304  0.9857
  984MOL0     C29815   9.347   3.222   6.754 -0.7430 -0.1638 -0.1407
  984MOL0     C29816   9.368   3.341   6.657 -0.6211  0.6762 -0.4362
  984MOL0     C29817   9.480   3.435   6.714 -0.9848  0.6384  0.0917
  984MOL0     C29818   9.507   3.566   6.632 -0.7212  0.0620  0.1671
  984MOL0     C29819   9.619   3.644   6.695  0.6216 -0.2994  0.4310
  984MOL0     C29820   9.705   3.705   6.745 -0.1440 -0.0334 -0.4319
  984MOL0     C29821   9.391   3.046   6.983  0.4308  0.2320 -0.2515
  984MOL0     C29822   9.352   2.948   7.075 -0.7664  0.0812 -0.6268
  984MOL0     H29823   9.009   3.050   7.471  0.5397  0.3992 -0.6977
  984MOL0     H29824   8.785   3.126   7.408 -3.5850 -0.2295 -1.6282
  984MOL0     H29825   8.718   3.235   7.136 -0.2120  1.6261  0.8732
  984MOL0     H29826   8.601   3.242   7.273 -1.0637 -0.5865  0.4984
  984MOL0     H29827   8.428   3.127   7.097 -0.4227  0.9023 -0.5765
  984MOL0     H29828   8.547   3.184   6.978  1.6877 -0.1035  0.8593
  984MOL0     H29829   8.519   3.409   7.031 -1.7745  0.6938 -3.0206
  984MOL0     H29830   8.416   3.378   7.170 -0.5736  1.0603  0.4229
  984MOL0     H29831   8.345   3.284   6.892 -1.4602  0.5173 -0.0265
  984MOL0     H29832   8.239   3.277   7.026 -3.3094  3.0490 -1.5281
  984MOL0     H29833   8.166   3.456   6.877 -0.6859 -0.3553 -0.1010
  984MOL0     H29834   8.325   3.537   6.896  1.4168 -2.4666 -1.4231
  984MOL0     H29835   8.285   3.552   7.130  0.0689 -0.8483  0.3714
  984MOL0     H29836   8.116   3.492   7.100 -0.1355  0.1586 -3.1921
  984MOL0     H29837   8.153   3.764   7.084 -0.3402 -0.2403  0.5861
  984MOL0     H29838   8.254   3.732   6.956  0.0710  0.6029  1.5270
  984MOL0     H29839   7.978   3.612   6.945 -0.4520  0.6310  0.6080
  984MOL0     H29840   8.094   3.679   6.816  2.0102  1.3582  0.8798
  984MOL0     H29841   7.775   3.757   6.934  0.8872 -1.0456 -1.7194
  984MOL0     H29842   7.629   3.964   6.856  0.0958 -0.5071  1.0113
  984MOL0     H29843   7.696   4.127   6.858  0.2633  0.5967  1.8222
  984MOL0     H29844   7.593   3.984   7.115  0.6646 -0.4220 -0.2541
  984MOL0     H29845   7.520   4.107   7.022 -0.2404 -1.4192 -1.4719
  984MOL0     H29846   7.633   4.191   7.216 -1.5523 -1.7992 -0.4654
  984MOL0     H29847   7.790   4.166   7.143 -1.3432 -2.5771  1.4939
  984MOL0     H29848   7.656   4.332   6.950 -0.2070  5.6021  0.3196
  984MOL0     H29849   7.744   4.389   7.088  1.0779 -1.4489  0.5714
  984MOL0     H29850   7.565   4.524   6.880  0.5155 -1.1240 -1.4691
  984MOL0     H29851   7.405   4.609   6.746 -0.8686  0.6692  0.8324
  984MOL0     H29852   6.821   4.593   7.002  1.2617  1.6025  0.6880
  984MOL0     H29853   6.596   4.675   6.946 -1.5971 -1.6777 -1.1164
  984MOL0     H29854   6.440   4.796   6.875  2.9902 -1.0932 -0.0842
  984MOL0     H29855   6.358   4.658   6.804 -0.5886 -0.5468  0.1091
  984MOL0     H29856   6.298   4.798   6.606  0.9357  3.1967 -1.3161
  984MOL0     H29857   6.337   4.939   6.697 -0.2322  0.3985  1.4073
  984MOL0     H29858   6.109   4.746   6.736  0.0038  1.0089 -0.3055
  984MOL0     H29859   6.117   4.927   6.735 -0.8452 -0.1838  0.7899
  984MOL0     H29860   6.201   4.716   6.937  0.8869  0.3081 -1.0396
  984MOL0     H29861   6.249   4.884   6.955  1.7494 -0.9099 -3.2465
  984MOL0     H29862   6.010   4.947   6.962  0.1236 -1.1865 -2.7771
  984MOL0     H29863   6.050   4.840   7.098  3.0512  0.0870 -0.4212
  984MOL0     H29864   5.969   4.651   6.974  2.7818  0.6543 -0.3026
  984MOL0     H29865   5.921   4.760   6.836  0.9908  4.6315  0.7696
  984MOL0     H29866   5.788   4.741   7.101 -1.3552 -1.0866 -0.5345
  984MOL0     H29867   5.788   4.898   7.027  1.8925 -0.3480  1.4913
  984MOL0     H29868   5.583   4.768   6.961  2.4058 -1.7745  6.1367
  984MOL0     H29869   5.672   4.635   6.893 -0.5901 -0.8875  0.9968
  984MOL0     H29870   6.703   4.676   6.535  0.1543 -2.1420 -0.4433
  984MOL0     H29871   6.935   4.624   6.594  0.2943  0.6076  1.4395
  984MOL0     H29872   7.113   4.388   6.997  0.4443 -3.8477  1.0630
  984MOL0     H29873   7.292   4.323   7.140  1.6651 -1.4178 -0.8604
  984MOL0     H29874   8.763   2.860   7.074 -3.0223  0.3352  1.4055
  984MOL0     H29875   8.993   2.774   7.140 -0.0545 -0.3247 -0.7625
  984MOL0     H29876   9.145   3.128   7.265 -0.1968  1.9859 -1.0559
  984MOL0     H29877   9.158   3.279   7.075  0.4327  0.5342  0.1563
  984MOL0     H29878   9.255   3.169   6.727 -0.5670  0.4687 -2.1685
  984MOL0     H29879   9.428   3.151   6.733 -0.4865 -0.3337  1.3100
  984MOL0     H29880   9.407   3.295   6.566 -1.1001 -0.1485 -0.2340
  984MOL0     H29881   9.274   3.394   6.638 -1.7429 -0.3307  1.8687
  984MOL0     H29882   9.573   3.377   6.717 -1.7696 -0.8120 -2.0491
  984MOL0     H29883   9.451   3.474   6.812  0.1159  3.8940 -0.7213
  984MOL0     H29884   9.529   3.553   6.526 -1.8683 -4.2570  0.2710
  984MOL0     H29885   9.416   3.626   6.626 -0.9094 -0.3625 -2.4813
  984MOL0     H29886   9.785   3.757   6.795 -1.2167  0.4195  0.8628
  984MOL0     H29887   9.463   3.020   6.906 -1.7067  1.3877 -2.7552
  984MOL0     H29888   9.406   2.853   7.069 -0.9260  0.0163 -1.0736
  985MOL0     O29889   4.810   2.889  11.016  0.1807 -0.4067 -0.1943
  985MOL0     C29890   4.794   2.817  10.912  0.2504 -0.1154 -0.1129
  985MOL0     O29891   4.682   2.739  10.874 -0.5263 -0.3189 -0.5444
  985MOL0     C29892   4.569   2.726  10.950 -0.0421  0.1469 -0.1406
  985MOL0     C29893   4.495   2.609  10.923 -0.4136 -0.4445 -0.2918
  985MOL0     C29894   4.366   2.593  10.987 -0.8044 -0.4486 -0.4914
  985MOL0     C29895   4.317   2.687  11.084 -0.6015  1.0316  0.0907
  985MOL0     O29896   4.198   2.685  11.152 -0.2915 -0.3830  0.3364
  985MOL0     C29897   4.091   2.613  11.100  0.4069  0.3749 -0.2089
  985MOL0     C29898   4.089   2.461  11.153 -0.9149  0.0339  0.5984
  985MOL0     C29899   3.983   2.382  11.064  0.3456 -0.1188  0.7842
  985MOL0     C29900   3.835   2.432  11.094 -0.1942  0.1777 -0.1804
  985MOL0     C29901   3.731   2.324  11.102 -0.0559  1.5168 -0.3747
  985MOL0     C29902   3.599   2.384  11.097 -1.1653  0.2278 -0.6870
  985MOL0     C29903   3.558   2.428  11.240  0.2272  0.5601  0.3329
  985MOL0     C29904   3.405   2.469  11.245 -0.3753 -1.5430 -0.4745
  985MOL0     N29905   3.305   2.372  11.252  0.1626  0.0684  0.0376
  985MOL0     C29906   3.308   2.271  11.346 -0.2666  0.5649 -0.0494
  985MOL0     C29907   3.203   2.193  11.318 -1.4309 -0.1775  0.4815
  985MOL0     C29908   3.197   2.056  11.381  0.9746 -0.6426 -0.1869
  985MOL0     C29909   3.110   2.056  11.517  0.8745  0.7191  0.2409
  985MOL0     C29910   3.057   1.919  11.557  0.5650 -0.3610 -0.0980
  985MOL0     C29911   2.962   1.913  11.675  0.4746  0.0372 -0.0526
  985MOL0     O29912   2.859   2.010  11.676  0.3760  0.2541 -0.2647
  985MOL0     C29913   2.746   1.972  11.750  0.5673 -0.7405  0.1835
  985MOL0     C29914   2.730   1.977  11.890 -0.0052 -0.2547 -0.1934
  985MOL0     C29915   2.610   1.950  11.958 -0.5542  0.7946  0.7792
  985MOL0     C29916   2.505   1.903  11.887 -0.2593  0.5903  0.3724
  985MOL0     C29917   2.377   1.849  11.947 -0.0403 -0.4275  0.1556
  985MOL0     O29918   2.365   1.859  12.076 -0.5714 -0.3899 -0.4979
  985MOL0     C29919   2.247   1.853  12.150 -0.0821  0.3318  0.3609
  985MOL0     C29920   2.243   1.825  12.287  0.4396  0.3860 -0.4283
  985MOL0     C29921   2.127   1.823  12.359  0.4135  0.3334  0.0629
  985MOL0     C29922   2.003   1.848  12.297 -0.3878 -0.7899 -1.1794
  985MOL0     O29923   1.894   1.842  12.378  0.3202  0.6999  0.3111
  985MOL0     C29924   1.781   1.925  12.332 -1.0747  0.4739  0.7973
  985MOL0     C29925   1.696   1.969  12.453 -0.6143 -0.9952 -0.3971
  985MOL0     C29926   1.628   2.103  12.433  0.4318  0.2502 -0.4012
  985MOL0     C29927   1.523   2.135  12.542  0.6206  0.2593  0.0885
  985MOL0     C29928   1.459   2.283  12.521 -0.4914  0.2885  0.1337
  985MOL0     C29929   1.345   2.290  12.627  0.3014 -0.3794 -0.0873
  985MOL0     C29930   1.238   2.175  12.624  0.5674 -0.8036  0.1669
  985MOL0     C29931   1.133   2.194  12.730  0.1879 -0.4523 -0.4999
  985MOL0    Cl29932   0.983   2.107  12.696 -0.3975  0.1203  0.0340
  985MOL0     C29933   2.001   1.881  12.163 -0.4182 -0.9658 -0.4003
  985MOL0     C29934   2.123   1.886  12.089  0.2673 -0.1906  1.1807
  985MOL0     O29935   2.290   1.819  11.864  0.6470 -0.1088  0.8064
  985MOL0     C29936   2.527   1.898  11.749  0.6029  0.1322  0.2213
  985MOL0     C29937   2.641   1.927  11.682  0.1136  0.0361  0.6095
  985MOL0     N29938   3.139   2.249  11.202  0.7183 -0.2131 -0.6745
  985MOL0     N29939   3.206   2.344  11.160 -0.2550 -0.2002  0.3851
  985MOL0     C29940   4.401   2.797  11.110  0.7378 -0.8780 -0.6616
  985MOL0     C29941   4.519   2.817  11.045 -0.2409 -0.1045  0.7529
  985MOL0     C29942   4.889   2.843  10.812 -0.1901 -0.7349  0.2303
  985MOL0     C29943   4.932   2.741  10.721  0.1534 -0.2248 -0.1673
  985MOL0     C29944   5.019   2.775  10.620 -0.2715 -0.3278 -0.4373
  985MOL0     C29945   5.077   2.911  10.610  0.0961  0.7478 -0.1149
  985MOL0     O29946   5.152   2.950  10.510 -0.4031  0.2025 -0.1788
  985MOL0     C29947   5.225   2.854  10.437 -0.4259  0.3279 -0.3468
  985MOL0     C29948   5.314   2.925  10.336 -0.1482  1.1598  0.5634
  985MOL0     C29949   5.440   2.989  10.382  0.5030 -1.2561 -0.4758
  985MOL0     C29950   5.566   2.898  10.394 -0.7648 -0.5005  0.6126
  985MOL0     C29951   5.695   2.963  10.421  0.3661 -0.1693  0.1236
  985MOL0     C29952   5.810   3.000  10.414  0.4372  0.1443 -0.3799
  985MOL0     C29953   5.040   3.004  10.707  0.6043  0.5198  1.0794
  985MOL0     C29954   4.941   2.974  10.804 -0.4006 -0.8796  1.0118
  985MOL0     H29955   4.514   2.529  10.852  0.7359 -2.0927  1.7351
  985MOL0     H29956   4.309   2.505  10.959  0.1311 -2.1783  2.5795
  985MOL0     H29957   4.080   2.637  10.994  2.7637  0.6545 -0.4317
  985MOL0     H29958   4.003   2.659  11.147  1.0879  1.2712  0.2078
  985MOL0     H29959   4.065   2.450  11.260  0.6569  1.2590  1.1214
  985MOL0     H29960   4.187   2.412  11.144  1.0666  3.4654  1.6068
  985MOL0     H29961   3.991   2.273  11.078  1.0453 -0.4744 -1.9451
  985MOL0     H29962   4.006   2.391  10.958 -0.2027 -1.7523  0.4986
  985MOL0     H29963   3.853   2.470  11.195  0.3279  3.6969 -1.4739
  985MOL0     H29964   3.808   2.514  11.028  1.3427  2.0389  1.3626
  985MOL0     H29965   3.741   2.258  11.188 -1.6105 -0.4308 -1.6044
  985MOL0     H29966   3.750   2.258  11.017  3.2029  1.8305 -0.0277
  985MOL0     H29967   3.529   2.309  11.059 -4.0381  1.3115  2.0560
  985MOL0     H29968   3.595   2.457  11.016 -0.0690 -0.5443 -1.4791
  985MOL0     H29969   3.580   2.352  11.316  1.8039  1.6155  1.0014
  985MOL0     H29970   3.605   2.523  11.267  1.0896  0.2718 -0.1221
  985MOL0     H29971   3.390   2.545  11.169  2.6172 -0.9844 -0.6182
  985MOL0     H29972   3.394   2.516  11.344  1.1342 -0.7832 -0.6345
  985MOL0     H29973   3.387   2.256  11.419 -2.0906 -4.0351  1.3576
  985MOL0     H29974   3.301   2.029  11.398  0.5587 -2.1206  0.1902
  985MOL0     H29975   3.144   1.989  11.312 -0.2553 -2.5191  2.3954
  985MOL0     H29976   3.024   2.120  11.498 -0.1399 -0.7644 -0.4037
  985MOL0     H29977   3.177   2.095  11.593  2.7845 -0.7661 -0.5700
  985MOL0     H29978   2.991   1.888  11.476 -1.1810  0.5935  0.8831
  985MOL0     H29979   3.131   1.841  11.575 -1.2641 -1.8771  1.3488
  985MOL0     H29980   3.015   1.938  11.767 -2.2235  0.1848  1.5992
  985MOL0     H29981   2.937   1.807  11.687  2.8975 -0.6607 -0.6189
  985MOL0     H29982   2.819   2.002  11.945  0.7515 -3.6956  0.3351
  985MOL0     H29983   2.599   1.960  12.065  0.7192  4.0167  0.7240
  985MOL0     H29984   2.341   1.798  12.326  0.8095 -0.5384 -1.9138
  985MOL0     H29985   2.125   1.779  12.458 -0.8304  1.1750  0.4418
  985MOL0     H29986   1.727   1.862  12.261  0.8841 -0.1160 -0.2623
  985MOL0     H29987   1.819   2.018  12.289  0.5571  0.4815  2.1128
  985MOL0     H29988   1.761   1.973  12.540  0.4590  1.2934 -1.2441
  985MOL0     H29989   1.626   1.894  12.490 -0.2036 -2.8253 -3.0085
  985MOL0     H29990   1.569   2.097  12.341 -0.1722  2.7457 -0.2628
  985MOL0     H29991   1.695   2.188  12.419  2.7315 -0.5116  4.1971
  985MOL0     H29992   1.455   2.050  12.541  3.2697 -2.0062 -1.5504
  985MOL0     H29993   1.577   2.134  12.637 -0.5638 -0.0234  0.7772
  985MOL0     H29994   1.417   2.290  12.420  0.7166 -2.6729 -0.6876
  985MOL0     H29995   1.538   2.358  12.527  3.2551 -3.3529  1.2755
  985MOL0     H29996   1.302   2.388  12.607  1.9041  0.5013  0.6243
  985MOL0     H29997   1.381   2.307  12.729 -1.0773 -3.2732  1.0005
  985MOL0     H29998   1.190   2.172  12.526 -0.3346  0.8375  0.5191
  985MOL0     H29999   1.291   2.080  12.640 -0.6494 -1.5323  0.0249
  985MOL0     H30000   1.102   2.298  12.742 -4.5052 -1.5059 -1.2870
  985MOL0     H30001   1.164   2.159  12.829  0.6117  1.4412  0.0687
  985MOL0     H30002   1.904   1.895  12.116  0.4397 -2.4331 -2.7448
  985MOL0     H30003   2.105   1.919  11.986  1.2738 -0.2702  0.9699
  985MOL0     H30004   2.439   1.880  11.687  1.4993 -0.5112 -0.9001
  985MOL0     H30005   2.639   1.921  11.573 -0.3272  2.0275  0.4786
  985MOL0     H30006   4.352   2.870  11.174  1.2717  0.5609 -1.8562
  985MOL0     H30007   4.571   2.910  11.068 -0.4683 -0.0594  1.1006
  985MOL0     H30008   4.900   2.641  10.747 -1.3497  0.8485  2.4839
  985MOL0     H30009   5.042   2.690  10.556  0.9834 -0.8666  0.6693
  985MOL0     H30010   5.167   2.783  10.377  0.7641 -1.2550  0.2795
  985MOL0     H30011   5.285   2.797  10.508  1.2637  2.3849 -0.0426
  985MOL0     H30012   5.348   2.853  10.260 -0.0358  1.8177 -0.0183
  985MOL0     H30013   5.250   2.997  10.285 -0.4430  1.2695  1.0806
  985MOL0     H30014   5.422   3.019  10.486  3.4210 -2.0612  0.3487
  985MOL0     H30015   5.457   3.081  10.326 -2.0691  0.0519  0.7059
  985MOL0     H30016   5.552   2.828  10.477  1.8354 -2.8624 -0.7854
  985MOL0     H30017   5.573   2.838  10.303  1.6123  1.1997 -0.4202
  985MOL0     H30018   5.915   3.024  10.421  0.3776 -0.1257  3.8365
  985MOL0     H30019   5.087   3.100  10.693 -1.8499  1.6021 -0.5517
  985MOL0     H30020   4.902   3.057  10.861 -1.1751  0.7527 -1.7200
  986MOL0     O30021   3.669   1.398   4.338 -0.9839  0.1910 -0.6966
  986MOL0     C30022   3.598   1.369   4.244 -0.5449  0.0941 -0.1481
  986MOL0     O30023   3.643   1.327   4.123  0.2392  0.2815 -0.2327
  986MOL0     C30024   3.777   1.305   4.112  0.7475 -0.1123 -0.3201
  986MOL0     C30025   3.869   1.410   4.111  0.6946 -0.2720  0.1518
  986MOL0     C30026   4.004   1.378   4.096 -0.1658  0.1634 -1.0369
  986MOL0     C30027   4.055   1.249   4.076 -1.0394 -0.4233 -0.5212
  986MOL0     O30028   4.196   1.235   4.071  0.2912 -0.3101  0.3998
  986MOL0     C30029   4.270   1.266   4.189 -0.1312 -0.6921  0.1280
  986MOL0     C30030   4.406   1.218   4.165 -0.1609  0.5261  0.0037
  986MOL0     C30031   4.484   1.313   4.071  0.2574  0.0746  0.1874
  986MOL0     C30032   4.637   1.280   4.083 -0.1849  0.2599  0.0381
  986MOL0     C30033   4.729   1.384   4.004  0.9005  0.4818  0.1389
  986MOL0     C30034   4.708   1.381   3.849 -1.2155 -0.1680 -0.0024
  986MOL0     C30035   4.736   1.240   3.784 -0.3045 -0.2947 -0.3535
  986MOL0     C30036   4.887   1.205   3.786 -0.6540  0.4265 -0.3537
  986MOL0     N30037   4.905   1.118   3.662  0.4590  0.5515 -0.4820
  986MOL0     C30038   4.860   0.985   3.664 -0.0775  0.3965 -0.1038
  986MOL0     C30039   4.929   0.939   3.553  0.1846 -0.1352 -0.3391
  986MOL0     C30040   4.928   0.795   3.512  0.2631  0.6213 -0.4863
  986MOL0     C30041   4.794   0.728   3.485 -0.3755 -0.7023 -0.2364
  986MOL0     C30042   4.707   0.795   3.379 -1.2199  0.0371  0.5504
  986MOL0     C30043   4.570   0.736   3.364 -0.5651 -0.0563  0.3668
  986MOL0     O30044   4.492   0.753   3.477 -0.2002  1.0838  0.5525
  986MOL0     C30045   4.359   0.717   3.478  1.0323  0.1749  0.1839
  986MOL0     C30046   4.288   0.698   3.356 -0.0784  0.9319  0.2385
  986MOL0     C30047   4.147   0.677   3.357 -0.9043 -0.2310 -0.6394
  986MOL0     C30048   4.070   0.664   3.480  0.2495  0.2909 -0.1438
  986MOL0     C30049   3.929   0.642   3.492  0.0569  0.1927 -0.4184
  986MOL0     O30050   3.857   0.653   3.379 -0.2992  0.2154  0.2117
  986MOL0     C30051   3.722   0.642   3.394 -0.2680 -0.6295  0.0297
  986MOL0     C30052   3.639   0.736   3.470  0.2289  1.0854  0.1151
  986MOL0     C30053   3.508   0.701   3.490 -0.4606  0.2046 -0.7601
  986MOL0     C30054   3.457   0.581   3.434  0.3022  0.0575 -0.6199
  986MOL0     O30055   3.329   0.536   3.450 -0.0072 -0.1719 -0.0835
  986MOL0     C30056   3.232   0.619   3.517  0.7397 -0.1499  0.1522
  986MOL0     C30057   3.086   0.560   3.543 -0.1857 -0.1609  0.1702
  986MOL0     C30058   3.024   0.498   3.409 -0.1143  0.2994 -0.1667
  986MOL0     C30059   3.025   0.601   3.292 -0.4964  0.9438  0.0638
  986MOL0     C30060   2.957   0.556   3.159 -0.6623 -0.1147 -0.2328
  986MOL0     C30061   2.801   0.581   3.147 -0.3257  0.1601 -0.2199
  986MOL0     C30062   2.754   0.495   3.033  0.1199  0.1512 -0.0215
  986MOL0     C30063   2.648   0.564   2.951  0.3831  0.4820 -0.0342
  986MOL0    Cl30064   2.516   0.611   3.056 -0.0147  0.1286  0.1991
  986MOL0     C30065   3.535   0.501   3.358 -0.8183  0.0015  0.0358
  986MOL0     C30066   3.669   0.538   3.323  0.1098  0.1356 -0.1718
  986MOL0     O30067   3.885   0.602   3.598 -0.0201 -0.1641  0.2528
  986MOL0     C30068   4.149   0.688   3.600  0.8382  0.6263 -0.3940
  986MOL0     C30069   4.286   0.714   3.596 -0.4082  0.1383  0.3179
  986MOL0     N30070   5.004   1.033   3.484 -0.3106  0.0038  0.2894
  986MOL0     N30071   4.986   1.143   3.552 -0.1310 -0.7811 -0.7947
  986MOL0     C30072   3.963   1.146   4.062  0.3028 -0.7362 -0.2537
  986MOL0     C30073   3.822   1.173   4.087 -1.1540 -0.5983  1.4091
  986MOL0     C30074   3.454   1.362   4.253 -0.7462  0.2805  0.3628
  986MOL0     C30075   3.398   1.434   4.352 -0.1845  0.1505  0.4482
  986MOL0     C30076   3.258   1.429   4.377 -0.7267 -0.6489 -0.3449
  986MOL0     C30077   3.178   1.341   4.303  0.8045  0.2347  0.2198
  986MOL0     O30078   3.057   1.316   4.362  0.4631  0.1848  0.5234
  986MOL0     C30079   2.970   1.228   4.296 -0.0421 -0.0287  0.4911
  986MOL0     C30080   2.841   1.199   4.369  0.4874 -0.2699  0.2789
  986MOL0     C30081   2.726   1.288   4.303 -0.4085 -0.1562  0.3536
  986MOL0     C30082   2.589   1.269   4.360 -0.2387 -0.2732  0.6004
  986MOL0     C30083   2.536   1.132   4.350 -0.7604  0.0429 -0.1978
  986MOL0     C30084   2.491   1.022   4.323  0.2562  0.0918 -0.0471
  986MOL0     C30085   3.229   1.280   4.182  0.0179  0.2929 -0.0055
  986MOL0     C30086   3.369   1.283   4.170 -0.1582 -0.0600 -0.3496
  986MOL0     H30087   3.821   1.506   4.102 -2.6131 -1.9004 -1.0820
  986MOL0     H30088   4.075   1.460   4.101 -1.6791  1.5088 -0.4440
  986MOL0     H30089   4.233   1.211   4.276 -1.8109 -2.8132 -1.7704
  986MOL0     H30090   4.274   1.373   4.207  4.6523 -0.8019  1.0839
  986MOL0     H30091   4.404   1.114   4.129  3.0191  0.6007 -0.6171
  986MOL0     H30092   4.465   1.225   4.256 -2.0533  0.4399  1.3092
  986MOL0     H30093   4.475   1.421   4.084  0.2037  0.3880 -2.0011
  986MOL0     H30094   4.456   1.296   3.966  3.1461 -3.3939 -0.2223
  986MOL0     H30095   4.679   1.258   4.181  2.0921 -1.6181 -1.2547
  986MOL0     H30096   4.646   1.185   4.030  0.4015 -0.3291  1.1625
  986MOL0     H30097   4.835   1.364   4.023  0.4077  0.4598  3.3505
  986MOL0     H30098   4.713   1.483   4.049 -0.7812  0.2277  0.1689
  986MOL0     H30099   4.762   1.457   3.792 -1.4235  0.3136  0.4424
  986MOL0     H30100   4.603   1.410   3.837 -1.0195  1.0522  1.0611
  986MOL0     H30101   4.688   1.158   3.839 -1.9396 -0.0230 -1.2909
  986MOL0     H30102   4.687   1.242   3.686 -2.6173 -0.5582  0.7282
  986MOL0     H30103   4.917   1.145   3.873 -0.3929  2.2209  0.8465
  986MOL0     H30104   4.955   1.290   3.796 -0.8172  0.3677  1.4835
  986MOL0     H30105   4.803   0.923   3.732 -0.0011 -0.7350 -1.0293
  986MOL0     H30106   4.988   0.734   3.581  0.4029  3.3585  2.0262
  986MOL0     H30107   4.975   0.786   3.414 -4.2954  0.7715 -2.9015
  986MOL0     H30108   4.744   0.710   3.581 -0.2220  1.3772  0.2796
  986MOL0     H30109   4.819   0.630   3.444 -2.6127 -2.3883  2.0952
  986MOL0     H30110   4.700   0.902   3.398 -1.4484  0.7771 -3.0870
  986MOL0     H30111   4.755   0.779   3.282 -0.8806  1.3184  0.4882
  986MOL0     H30112   4.581   0.632   3.331 -0.2150  0.6427 -1.8867
  986MOL0     H30113   4.522   0.787   3.280  1.0363  0.7801 -0.0874
  986MOL0     H30114   4.344   0.688   3.263 -1.2536 -1.0844 -0.3369
  986MOL0     H30115   4.093   0.663   3.264  0.3051  0.1332 -1.4172
  986MOL0     H30116   3.674   0.826   3.519  1.8079 -0.0531  1.1867
  986MOL0     H30117   3.438   0.761   3.547  0.4773 -0.2217  0.9125
  986MOL0     H30118   3.215   0.706   3.452 -0.7897 -0.6470 -0.1510
  986MOL0     H30119   3.276   0.655   3.611  0.4729  2.3116 -0.5918
  986MOL0     H30120   3.025   0.638   3.589 -0.3437 -0.3851  0.3380
  986MOL0     H30121   3.089   0.483   3.620  0.6652  0.2583  0.5690
  986MOL0     H30122   2.920   0.463   3.418 -0.2305 -0.2096 -2.8157
  986MOL0     H30123   3.079   0.405   3.393  0.3967  0.4506  0.6615
  986MOL0     H30124   2.969   0.688   3.325  0.9367  2.5755 -1.6151
  986MOL0     H30125   3.130   0.630   3.286  0.2034 -0.4177  3.4053
  986MOL0     H30126   2.986   0.452   3.143 -2.7749 -0.9223  0.7465
  986MOL0     H30127   3.016   0.612   3.086 -0.2936 -0.0260  0.1275
  986MOL0     H30128   2.798   0.687   3.123  4.0876  0.5876  0.2734
  986MOL0     H30129   2.747   0.562   3.241 -0.9063  0.9965 -0.3721
  986MOL0     H30130   2.833   0.465   2.964  1.9833  4.3388 -0.0422
  986MOL0     H30131   2.710   0.403   3.072  0.2403  0.2865  0.4463
  986MOL0     H30132   2.599   0.496   2.881 -1.1988 -0.6925  2.0865
  986MOL0     H30133   2.691   0.654   2.906  1.5649  1.0278  2.0769
  986MOL0     H30134   3.486   0.408   3.330 -2.7316  0.6305  1.0474
  986MOL0     H30135   3.731   0.472   3.263 -1.3926 -2.4596  0.9663
  986MOL0     H30136   4.101   0.692   3.698 -0.6238  1.1449 -1.1012
  986MOL0     H30137   4.334   0.743   3.688  1.8556  1.3834 -1.1582
  986MOL0     H30138   3.989   1.041   4.068  0.8786 -0.5075  2.6382
  986MOL0     H30139   3.753   1.089   4.092 -2.8046  0.5222 -0.5772
  986MOL0     H30140   3.461   1.495   4.416 -1.0832  1.8403 -0.2272
  986MOL0     H30141   3.219   1.483   4.462 -4.4451 -2.3918 -0.7318
  986MOL0     H30142   3.017   1.129   4.287  0.8952  0.1597  2.7290
  986MOL0     H30143   2.955   1.271   4.196 -0.7029  0.0165  0.6069
  986MOL0     H30144   2.808   1.097   4.349 -2.4657  1.1311 -2.8687
  986MOL0     H30145   2.855   1.230   4.473 -1.9097  2.0255  0.0159
  986MOL0     H30146   2.708   1.253   4.201  0.6820 -0.4276  0.2445
  986MOL0     H30147   2.756   1.393   4.298  0.9085 -0.5625 -3.3871
  986MOL0     H30148   2.597   1.303   4.464 -1.8019 -3.6602  1.9863
  986MOL0     H30149   2.513   1.325   4.305  1.4521  0.2002 -1.3720
  986MOL0     H30150   2.459   0.924   4.297  0.7968  0.3523 -1.7774
  986MOL0     H30151   3.164   1.219   4.121 -0.6944  1.1998 -0.1578
  986MOL0     H30152   3.407   1.205   4.104 -2.0708 -2.3943  1.1585
  987MOL0     O30153   5.878   8.353   8.631  0.3222 -0.3869  0.3694
  987MOL0     C30154   5.870   8.318   8.748  0.5659 -0.0556  0.1718
  987MOL0     O30155   5.750   8.299   8.809  0.5236 -0.0673 -0.3208
  987MOL0     C30156   5.636   8.353   8.765  0.0167 -0.0784 -0.7471
  987MOL0     C30157   5.576   8.346   8.636 -0.1812  0.2004  0.3575
  987MOL0     C30158   5.452   8.388   8.608  0.1190 -0.0183 -0.3026
  987MOL0     C30159   5.371   8.421   8.716 -0.5346  0.2213  0.2915
  987MOL0     O30160   5.234   8.442   8.696 -0.0774  0.0261 -0.1512
  987MOL0     C30161   5.189   8.443   8.553  0.1888 -0.5914 -0.8031
  987MOL0     C30162   5.036   8.483   8.556  0.2555 -0.6252  0.1598
  987MOL0     C30163   4.950   8.364   8.599 -0.0973  0.7161 -0.2915
  987MOL0     C30164   4.807   8.394   8.559 -0.2158  0.1392  0.2464
  987MOL0     C30165   4.705   8.307   8.630 -0.1064 -0.5682 -0.0727
  987MOL0     C30166   4.565   8.318   8.563 -0.3343  0.6387  0.3546
  987MOL0     C30167   4.462   8.228   8.624  0.3349 -0.2154 -0.6128
  987MOL0     C30168   4.320   8.256   8.562  0.4723 -0.0934  0.2342
  987MOL0     N30169   4.223   8.173   8.630 -0.5445  0.7867 -0.3901
  987MOL0     C30170   4.195   8.162   8.763 -0.2610  0.6356 -0.0983
  987MOL0     C30171   4.082   8.095   8.774 -0.2478  0.3837  0.7905
  987MOL0     C30172   4.017   8.050   8.895 -0.4624 -0.5880 -0.1380
  987MOL0     C30173   3.866   8.025   8.878 -0.8997  0.3671 -0.2499
  987MOL0     C30174   3.803   7.923   8.977 -0.9047  0.3022  0.3240
  987MOL0     C30175   3.675   7.870   8.914  0.6398  0.3596  0.7390
  987MOL0     O30176   3.573   7.954   8.959 -0.9239 -0.6049  0.1168
  987MOL0     C30177   3.450   7.914   8.945  0.0054  0.1664 -0.0270
  987MOL0     C30178   3.412   7.795   8.878  0.1614  0.9523  0.1595
  987MOL0     C30179   3.279   7.746   8.863 -0.0750 -0.1213 -0.5816
  987MOL0     C30180   3.178   7.822   8.926  0.2193  0.2259  0.1832
  987MOL0     C30181   3.041   7.772   8.922  0.4082 -0.3057  0.6846
  987MOL0     O30182   2.949   7.866   8.937 -0.2503 -0.2125  0.1771
  987MOL0     C30183   2.810   7.843   8.945  0.4671  0.1929 -0.3666
  987MOL0     C30184   2.750   7.725   8.897  0.2616  0.5858  0.4222
  987MOL0     C30185   2.609   7.710   8.908 -0.2463  0.5525  0.4633
  987MOL0     C30186   2.532   7.801   8.977 -0.1671 -0.0793 -0.4903
  987MOL0     O30187   2.404   7.754   9.004 -0.7373 -0.2485 -0.2314
  987MOL0     C30188   2.308   7.848   9.046  1.3728  0.1231 -0.3864
  987MOL0     C30189   2.171   7.784   9.074  0.6441  0.6965  0.4956
  987MOL0     C30190   2.125   7.726   8.934 -0.1133  0.0795  0.2902
  987MOL0     C30191   1.975   7.734   8.906 -0.2514 -0.4046 -0.2895
  987MOL0     C30192   1.937   7.679   8.768 -0.1722 -0.0453  0.2423
  987MOL0     C30193   1.792   7.707   8.739  0.9248 -0.4293  0.0398
  987MOL0     C30194   1.732   7.640   8.609 -0.0673 -0.7763  0.1667
  987MOL0     C30195   1.675   7.498   8.629 -0.2356 -0.0709 -0.1930
  987MOL0    Cl30196   1.607   7.442   8.471 -0.1696 -0.1848 -0.1786
  987MOL0     C30197   2.592   7.927   9.003  0.7960  0.3988  0.0506
  987MOL0     C30198   2.730   7.946   8.990  0.1643 -0.0184 -0.0844
  987MOL0     O30199   3.024   7.649   8.930 -0.6162  0.6568 -0.0471
  987MOL0     C30200   3.214   7.948   8.979 -0.1947 -0.0314 -0.0050
  987MOL0     C30201   3.341   7.996   8.983 -0.0665  0.4675 -0.4026
  987MOL0     N30202   4.042   8.059   8.646  0.2875 -0.1313  0.7129
  987MOL0     N30203   4.124   8.106   8.561 -0.0002  0.0771  0.3543
  987MOL0     C30204   5.427   8.440   8.848  0.4816 -1.0459 -0.0826
  987MOL0     C30205   5.555   8.407   8.871 -0.2082 -0.4498  0.0266
  987MOL0     C30206   5.987   8.263   8.813 -0.6113 -0.2439 -1.3870
  987MOL0     C30207   6.117   8.295   8.760  0.8752  0.8528  0.4532
  987MOL0     C30208   6.230   8.249   8.819  0.2822 -0.1559 -0.1899
  987MOL0     C30209   6.226   8.178   8.936 -0.4370  0.6584 -0.2334
  987MOL0     O30210   6.350   8.134   8.982  0.0856  0.2599 -0.3355
  987MOL0     C30211   6.372   7.995   9.017  0.1082 -0.0412 -0.0384
  987MOL0     C30212   6.517   7.973   9.009  0.6338  0.6270  0.8488
  987MOL0     C30213   6.595   8.042   9.120  0.9626 -0.0097  0.5443
  987MOL0     C30214   6.738   8.029   9.099 -0.4475  0.5080 -0.9645
  987MOL0     C30215   6.808   8.109   9.201  0.1418  0.7558 -0.3810
  987MOL0     C30216   6.867   8.172   9.287  0.1075 -0.1345  0.5401
  987MOL0     C30217   6.107   8.152   8.999 -0.0782 -0.5508  0.2067
  987MOL0     C30218   5.987   8.196   8.938 -1.2622  0.0982  0.5415
  987MOL0     H30219   5.634   8.314   8.550 -2.4707  1.7054 -1.8877
  987MOL0     H30220   5.412   8.395   8.507  1.7916  2.8148 -0.8771
  987MOL0     H30221   5.208   8.346   8.507  2.2322  0.4973 -2.4080
  987MOL0     H30222   5.245   8.521   8.500 -0.9440  1.1907  0.4696
  987MOL0     H30223   5.003   8.507   8.454 -2.1006  0.0135  0.9976
  987MOL0     H30224   5.023   8.569   8.623 -1.1255 -1.3916  0.9126
  987MOL0     H30225   4.959   8.344   8.707  2.3081 -3.0229 -0.9866
  987MOL0     H30226   4.983   8.275   8.544  2.2462  0.1478  1.8524
  987MOL0     H30227   4.793   8.498   8.587  4.7092  1.4677 -1.2537
  987MOL0     H30228   4.801   8.405   8.450 -0.7019  1.4355  0.3838
  987MOL0     H30229   4.709   8.318   8.739 -1.2026  3.0673 -0.2446
  987MOL0     H30230   4.726   8.205   8.599 -1.2227 -0.3710 -1.5778
  987MOL0     H30231   4.574   8.304   8.455 -3.0649 -2.5629  0.3685
  987MOL0     H30232   4.539   8.421   8.586  1.0901  1.0225  0.3204
  987MOL0     H30233   4.488   8.123   8.610  1.2364 -0.2445  1.0420
  987MOL0     H30234   4.466   8.235   8.733  0.5339 -0.9442 -0.5641
  987MOL0     H30235   4.324   8.242   8.453 -0.5858  0.3502  0.1218
  987MOL0     H30236   4.281   8.357   8.580 -0.7806 -0.7869  1.5665
  987MOL0     H30237   4.262   8.198   8.840 -0.2157  0.0387  0.1403
  987MOL0     H30238   4.039   8.115   8.980 -2.8405  1.2150 -0.8030
  987MOL0     H30239   4.072   7.956   8.908  3.0920  1.2386 -0.6859
  987MOL0     H30240   3.849   7.988   8.776  0.1999  1.0325 -0.6875
  987MOL0     H30241   3.816   8.122   8.877  0.1121  0.9332 -2.1807
  987MOL0     H30242   3.873   7.841   8.995 -1.0187  0.1420  0.0445
  987MOL0     H30243   3.779   7.965   9.075 -0.0258  0.6874  0.3805
  987MOL0     H30244   3.645   7.769   8.946 -1.4581  1.0604  1.1394
  987MOL0     H30245   3.679   7.867   8.805 -1.6016  0.6619  0.5949
  987MOL0     H30246   3.488   7.733   8.831 -1.3891  0.5872 -1.9898
  987MOL0     H30247   3.256   7.659   8.802 -2.4933  0.2084 -0.2034
  987MOL0     H30248   2.801   7.644   8.846  2.5852  1.2987  1.5143
  987MOL0     H30249   2.562   7.629   8.854 -1.1807  1.5394 -0.2470
  987MOL0     H30250   2.292   7.930   8.976 -1.2931 -0.0862 -0.1011
  987MOL0     H30251   2.353   7.889   9.137  0.9556  0.0780 -0.1573
  987MOL0     H30252   2.104   7.865   9.101 -0.1564 -0.1723  1.1739
  987MOL0     H30253   2.175   7.704   9.148  4.0527 -1.2540 -1.5128
  987MOL0     H30254   2.162   7.623   8.929 -1.3857 -0.3504 -0.9983
  987MOL0     H30255   2.175   7.783   8.856  0.7632 -0.1135  0.6947
  987MOL0     H30256   1.926   7.681   8.988  4.9909 -1.5974  2.5037
  987MOL0     H30257   1.947   7.839   8.912  0.9695 -0.0350 -0.8476
  987MOL0     H30258   1.955   7.572   8.762 -1.4386 -0.2612 -0.0610
  987MOL0     H30259   2.005   7.733   8.701  0.8922 -1.2001  0.3693
  987MOL0     H30260   1.784   7.814   8.716 -0.3114 -1.0481 -2.8739
  987MOL0     H30261   1.732   7.692   8.829  2.2465 -1.0069  0.8582
  987MOL0     H30262   1.647   7.704   8.585  0.8094  1.5885  2.8594
  987MOL0     H30263   1.804   7.640   8.526 -1.6661 -1.2407 -1.2685
  987MOL0     H30264   1.605   7.494   8.713 -1.3492 -0.3525 -1.1194
  987MOL0     H30265   1.750   7.426   8.663  0.5082 -0.2213 -2.0338
  987MOL0     H30266   2.520   8.002   9.033 -2.8538 -0.9361 -4.2695
  987MOL0     H30267   2.792   8.030   9.021  2.6418 -1.6445 -0.3833
  987MOL0     H30268   3.144   8.007   9.039 -0.1440 -1.3731  1.4406
  987MOL0     H30269   3.364   8.091   9.032 -0.0474  0.4726 -0.4217
  987MOL0     H30270   5.358   8.472   8.925  0.5504  0.7945 -0.7407
  987MOL0     H30271   5.593   8.407   8.973  1.9035  0.2001 -0.7027
  987MOL0     H30272   6.136   8.367   8.682  4.0893 -1.7522 -1.4561
  987MOL0     H30273   6.329   8.282   8.790 -0.2161  0.9824 -0.6432
  987MOL0     H30274   6.312   7.935   8.948  2.2075 -0.6969 -1.3765
  987MOL0     H30275   6.335   7.968   9.116 -0.8620 -2.8345 -1.0742
  987MOL0     H30276   6.536   7.865   9.009  1.4533  0.7397 -0.5999
  987MOL0     H30277   6.551   8.012   8.912 -0.4784  0.6894  0.4712
  987MOL0     H30278   6.573   7.991   9.214 -1.3126 -2.2002 -1.0493
  987MOL0     H30279   6.570   8.148   9.113  1.3522  0.1142  1.0177
  987MOL0     H30280   6.776   7.930   9.125  3.1514  1.9272 -0.2590
  987MOL0     H30281   6.781   8.051   9.001  0.2003 -5.2065 -2.3428
  987MOL0     H30282   6.932   8.221   9.356 -0.1444  2.7397 -1.0598
  987MOL0     H30283   6.101   8.100   9.094  2.0074 -0.9140  0.1712
  987MOL0     H30284   5.895   8.171   8.990 -0.9849 -0.9092  0.5757
  988MOL0     O30285   1.574  10.456   3.408  0.0336  0.1149 -0.6563
  988MOL0     C30286   1.617  10.482   3.526 -0.2821  0.5753  0.1760
  988MOL0     O30287   1.553  10.467   3.640  0.3790 -0.0350  0.0913
  988MOL0     C30288   1.419  10.439   3.640 -1.3899 -0.2398  0.1457
  988MOL0     C30289   1.363  10.324   3.581 -0.0148  0.6277  0.1288
  988MOL0     C30290   1.234  10.304   3.592  0.4599 -0.9945  0.4513
  988MOL0     C30291   1.145  10.401   3.655 -0.9938  0.8923  0.4205
  988MOL0     O30292   1.013  10.367   3.664 -0.3420 -0.1687  0.1749
  988MOL0     C30293   0.937  10.377   3.536 -0.7450 -0.9963 -0.2472
  988MOL0     C30294   0.787  10.343   3.557 -1.1817 -1.0846  0.3171
  988MOL0     C30295   0.711  10.456   3.639 -0.8497 -0.6353 -0.6652
  988MOL0     C30296   0.563  10.410   3.663 -0.9319  0.0546 -0.9167
  988MOL0     C30297   0.495  10.495   3.776 -0.6918  0.6110  0.5876
  988MOL0     C30298   0.494  10.641   3.722  0.4339  1.3392 -0.0123
  988MOL0     C30299   0.408  10.720   3.820  0.3893 -0.8078  0.8263
  988MOL0     C30300   0.401  10.867   3.766 -0.4301  0.8935 -0.4382
  988MOL0     N30301   0.323  10.949   3.857  0.2412 -0.0563  0.2378
  988MOL0     C30302   0.366  11.067   3.908  0.4046 -0.2215 -1.2535
  988MOL0     C30303   0.243  11.118   3.952  0.3288 -0.7102 -0.1512
  988MOL0     C30304   0.221  11.250   4.023 -0.8687  0.1040  0.7560
  988MOL0     C30305   0.080  11.299   4.041  0.4308  1.0414  0.7742
  988MOL0     C30306   0.017  11.351   3.909  0.3878  0.1543 -0.3441
  988MOL0     C30307  -0.123  11.399   3.942  0.2387 -0.3507  0.3040
  988MOL0     O30308  -0.196  11.424   3.819  0.6178  0.0042  0.1038
  988MOL0     C30309  -0.322  11.471   3.854  0.5652 -0.9297  0.0243
  988MOL0     C30310  -0.373  11.598   3.813  0.2883 -0.7558  0.9209
  988MOL0     C30311  -0.497  11.640   3.836 -0.1983 -0.3213  0.8622
  988MOL0     C30312  -0.585  11.566   3.911  0.3370  0.0063  1.0401
  988MOL0     C30313  -0.718  11.624   3.937  0.0934 -0.0304 -0.4692
  988MOL0     O30314  -0.798  11.539   4.006 -0.1648  0.3766  0.4402
  988MOL0     C30315  -0.924  11.578   4.046  0.2267  0.2034  0.2432
  988MOL0     C30316  -0.946  11.700   4.113 -0.3566  0.3936  0.3355
  988MOL0     C30317  -1.069  11.743   4.158 -0.1542 -0.5127 -0.5220
  988MOL0     C30318  -1.187  11.665   4.127 -0.0896  0.1614  0.7548
  988MOL0     O30319  -1.318  11.697   4.156 -0.4262  0.3638  0.2005
  988MOL0     C30320  -1.346  11.767   4.277 -0.9973  0.5867 -0.3123
  988MOL0     C30321  -1.494  11.778   4.304 -0.2776 -0.8310 -0.1705
  988MOL0     C30322  -1.539  11.654   4.380  0.1480  0.7496 -0.3491
  988MOL0     C30323  -1.675  11.663   4.446  0.7241  0.6027  0.3463
  988MOL0     C30324  -1.787  11.689   4.337 -0.4384 -0.0246 -0.1851
  988MOL0     C30325  -1.824  11.562   4.257 -0.0291 -0.3675 -0.0944
  988MOL0     C30326  -1.946  11.619   4.170  0.5915 -0.3006 -0.0614
  988MOL0     C30327  -1.992  11.529   4.055 -0.7513 -0.0260 -0.8961
  988MOL0    Cl30328  -2.055  11.371   4.115  0.4020  0.5152  0.3065
  988MOL0     C30329  -1.167  11.547   4.052  0.6512  0.0754 -0.3816
  988MOL0     C30330  -1.043  11.502   4.019  0.0785  0.0586 -0.5824
  988MOL0     O30331  -0.752  11.730   3.890 -0.1704 -0.4222  0.7613
  988MOL0     C30332  -0.542  11.437   3.952 -0.8013  0.0086  0.3133
  988MOL0     C30333  -0.411  11.391   3.924  0.1737 -0.2733 -0.6680
  988MOL0     N30334   0.144  11.030   3.925 -0.0426  0.7884 -0.5147
  988MOL0     N30335   0.190  10.925   3.872 -0.3584 -0.6248  0.2626
  988MOL0     C30336   1.205  10.507   3.727  0.0821  0.4250  0.9420
  988MOL0     C30337   1.345  10.532   3.716 -0.1207  0.6779 -0.1744
  988MOL0     C30338   1.749  10.550   3.530  0.5847 -0.0605 -0.1796
  988MOL0     C30339   1.806  10.594   3.406 -0.0533  0.1869 -1.0725
  988MOL0     C30340   1.936  10.646   3.398 -0.0416 -0.4797  0.0294
  988MOL0     C30341   2.018  10.655   3.518  0.4782  0.3983  0.1537
  988MOL0     O30342   2.142  10.697   3.499 -0.3744  0.1808 -0.1939
  988MOL0     C30343   2.229  10.739   3.607  0.2862  0.0890 -0.2568
  988MOL0     C30344   2.327  10.834   3.541  0.6851  0.3949 -0.1482
  988MOL0     C30345   2.434  10.879   3.647  0.4796  0.6316 -0.5274
  988MOL0     C30346   2.546  10.965   3.580  0.8288  0.8028  0.0207
  988MOL0     C30347   2.604  10.903   3.469  0.2946  0.6636  0.3161
  988MOL0     C30348   2.647  10.849   3.372  1.0371  0.4584 -0.4314
  988MOL0     C30349   1.960  10.617   3.641  0.4316 -0.2279 -0.1616
  988MOL0     C30350   1.827  10.565   3.642  0.6644 -0.0772 -0.2112
  988MOL0     H30351   1.427  10.248   3.536 -2.6860 -3.0239  2.0565
  988MOL0     H30352   1.182  10.212   3.567 -0.8423 -0.1498 -0.0809
  988MOL0     H30353   0.972  10.304   3.463  0.3255 -0.8094  0.0562
  988MOL0     H30354   0.958  10.476   3.494  1.0908 -0.4704  1.6868
  988MOL0     H30355   0.787  10.248   3.612  0.4084 -2.1557 -1.4051
  988MOL0     H30356   0.737  10.332   3.461 -0.3674 -0.6508 -0.1779
  988MOL0     H30357   0.724  10.543   3.574  1.2283 -1.4537 -1.4450
  988MOL0     H30358   0.769  10.469   3.731 -0.7831 -1.8755 -0.5148
  988MOL0     H30359   0.508  10.420   3.569 -0.2464  3.0394 -1.0843
  988MOL0     H30360   0.579  10.309   3.703  3.1374  0.7476 -0.3542
  988MOL0     H30361   0.562  10.487   3.862 -0.2628  0.7999  0.2756
  988MOL0     H30362   0.394  10.458   3.795 -1.0961  2.2453  1.8399
  988MOL0     H30363   0.461  10.666   3.620  2.6732  4.4879 -0.0906
  988MOL0     H30364   0.599  10.670   3.725  1.5381 -1.9777 -1.2862
  988MOL0     H30365   0.307  10.677   3.826  0.9697 -2.0838  1.9887
  988MOL0     H30366   0.458  10.725   3.917  0.3393 -1.9435  0.9238
  988MOL0     H30367   0.349  10.853   3.670 -2.3437  1.6873  0.4257
  988MOL0     H30368   0.500  10.912   3.770 -0.1059  0.1079  0.8541
  988MOL0     H30369   0.462  11.115   3.918  0.1057 -0.1646  2.8871
  988MOL0     H30370   0.272  11.321   3.957 -1.8930 -0.5791 -0.8420
  988MOL0     H30371   0.284  11.249   4.112  0.2394  1.5018  0.0265
  988MOL0     H30372   0.090  11.383   4.109  0.4436  0.1380  1.9208
  988MOL0     H30373   0.018  11.223   4.089 -1.5084  2.0743  0.0395
  988MOL0     H30374   0.079  11.431   3.868  0.3556  0.0520 -0.5939
  988MOL0     H30375   0.005  11.268   3.839  0.4483 -1.4226  1.4428
  988MOL0     H30376  -0.115  11.484   4.010  0.8403 -1.3833  1.5426
  988MOL0     H30377  -0.172  11.322   4.001 -0.2799 -1.8277 -1.9219
  988MOL0     H30378  -0.311  11.667   3.756 -1.7614 -0.0153 -0.5408
  988MOL0     H30379  -0.530  11.736   3.799 -1.8799 -1.0543  0.3582
  988MOL0     H30380  -0.859  11.758   4.143 -0.3585  1.3362 -1.3939
  988MOL0     H30381  -1.093  11.837   4.207 -0.9319 -1.1843  0.4359
  988MOL0     H30382  -1.303  11.866   4.258  2.1361 -0.7102 -0.5624
  988MOL0     H30383  -1.295  11.722   4.362 -3.7031 -2.0267  0.0834
  988MOL0     H30384  -1.543  11.800   4.208  0.2755 -1.0888 -0.5165
  988MOL0     H30385  -1.512  11.862   4.371 -0.1265 -0.3756 -0.6871
  988MOL0     H30386  -1.468  11.617   4.454 -0.8283  2.8105  1.7145
  988MOL0     H30387  -1.548  11.583   4.296 -0.3718  0.6088 -0.1784
  988MOL0     H30388  -1.693  11.572   4.503  0.9174  1.4445  1.7919
  988MOL0     H30389  -1.681  11.739   4.525 -1.9947  1.5465 -0.6689
  988MOL0     H30390  -1.756  11.771   4.271  2.6141  1.7334  3.0663
  988MOL0     H30391  -1.879  11.723   4.383 -0.3507  1.0613 -0.7758
  988MOL0     H30392  -1.854  11.479   4.321 -0.7355  0.8009  1.1424
  988MOL0     H30393  -1.745  11.540   4.184 -1.5838  1.5529 -2.5183
  988MOL0     H30394  -2.035  11.633   4.233  0.1972  2.0816 -1.0314
  988MOL0     H30395  -1.918  11.715   4.127 -2.5490  0.4474 -0.6760
  988MOL0     H30396  -1.917  11.514   3.977  0.9825  0.2176  0.6805
  988MOL0     H30397  -2.072  11.586   4.005  0.1943  2.8820  0.6983
  988MOL0     H30398  -1.238  11.481   4.003  1.8653 -2.3234  0.8783
  988MOL0     H30399  -1.042  11.401   3.977  2.4469 -1.3324  2.3876
  988MOL0     H30400  -0.593  11.366   4.016  2.3628 -2.3513  0.4728
  988MOL0     H30401  -0.379  11.294   3.959 -2.7568 -0.6961  1.1254
  988MOL0     H30402   1.143  10.561   3.798 -1.9865 -0.0576 -0.4013
  988MOL0     H30403   1.379  10.623   3.765 -3.5256  0.4291  3.0801
  988MOL0     H30404   1.743  10.584   3.318 -4.1069  2.0237  1.3067
  988MOL0     H30405   1.973  10.680   3.301  2.8574  0.4053  1.3441
  988MOL0     H30406   2.273  10.655   3.662 -2.3301  0.5867  2.9347
  988MOL0     H30407   2.167  10.794   3.678 -0.8214 -1.9567  0.4445
  988MOL0     H30408   2.373  10.792   3.450 -0.8841 -1.7314 -0.0458
  988MOL0     H30409   2.266  10.919   3.510  0.5409  1.3938  2.6380
  988MOL0     H30410   2.489  10.794   3.690 -0.2218  0.5536  0.2307
  988MOL0     H30411   2.396  10.929   3.736  1.2419 -1.5934  1.1340
  988MOL0     H30412   2.498  11.051   3.532  0.2607 -0.6885 -2.2274
  988MOL0     H30413   2.631  10.982   3.648  1.0784  1.9656 -0.5537
  988MOL0     H30414   2.696  10.809   3.286  0.9084  2.0652 -1.2892
  988MOL0     H30415   2.009  10.620   3.738  0.4354  1.2074 -0.1886
  988MOL0     H30416   1.782  10.519   3.729 -2.1380  1.2844 -0.8279
  989MOL0     O30417   5.018   5.277   1.959 -0.2237  0.2152  0.5820
  989MOL0     C30418   5.094   5.342   1.874 -0.2787  0.0015 -0.2985
  989MOL0     O30419   5.053   5.417   1.770  0.0323 -0.9672 -0.2327
  989MOL0     C30420   4.914   5.417   1.740 -0.5791 -0.0131  0.2938
  989MOL0     C30421   4.852   5.291   1.707  0.5512  0.1281  0.6942
  989MOL0     C30422   4.712   5.287   1.678  0.4037 -1.6445 -0.7290
  989MOL0     C30423   4.642   5.406   1.665  0.5773 -1.3665 -0.4448
  989MOL0     O30424   4.516   5.406   1.606  0.2153 -0.2337  0.2503
  989MOL0     C30425   4.437   5.532   1.592  0.2792  1.3743  0.1387
  989MOL0     C30426   4.299   5.485   1.537 -0.2636  0.1586 -0.3131
  989MOL0     C30427   4.190   5.586   1.530  0.5631 -0.4728  0.1105
  989MOL0     C30428   4.176   5.667   1.666 -0.2308 -1.1254  0.0163
  989MOL0     C30429   4.056   5.755   1.665  0.1927  0.1663 -0.3402
  989MOL0     C30430   4.081   5.877   1.574  0.3760  0.7566  0.0897
  989MOL0     C30431   3.961   5.975   1.586 -0.2149  0.4015 -0.9763
  989MOL0     C30432   3.986   6.057   1.715  0.3034 -0.4271  0.5976
  989MOL0     N30433   3.930   6.187   1.684  0.3733  0.1209 -0.9896
  989MOL0     C30434   3.801   6.222   1.661  0.0566 -0.4724  0.2178
  989MOL0     C30435   3.811   6.356   1.647 -0.5437  0.9550  0.3410
  989MOL0     C30436   3.687   6.444   1.623  0.4747 -1.2139  0.8165
  989MOL0     C30437   3.600   6.450   1.747 -0.6234  0.2529  0.0870
  989MOL0     C30438   3.491   6.558   1.735  0.6632  0.5235  0.2227
  989MOL0     C30439   3.358   6.499   1.691  0.5616 -0.0175 -0.2363
  989MOL0     O30440   3.289   6.438   1.798 -0.4263 -0.4459 -0.9580
  989MOL0     C30441   3.168   6.368   1.776 -0.7372 -0.4483 -0.3844
  989MOL0     C30442   3.163   6.239   1.734 -0.4823  0.3030 -0.3736
  989MOL0     C30443   3.039   6.178   1.716  0.2155  1.0519  0.0309
  989MOL0     C30444   2.921   6.239   1.732  0.6333  0.5814  0.4763
  989MOL0     C30445   2.792   6.172   1.738 -0.4195  0.2814  0.3797
  989MOL0     O30446   2.677   6.250   1.734  0.5614  0.2174 -0.3121
  989MOL0     C30447   2.551   6.211   1.708  0.2841 -0.2064 -0.1008
  989MOL0     C30448   2.500   6.079   1.718  0.4586  0.2384 -0.6648
  989MOL0     C30449   2.360   6.054   1.688  0.3086  0.5567  0.4373
  989MOL0     C30450   2.279   6.162   1.664 -0.5707 -0.8438 -0.2152
  989MOL0     O30451   2.146   6.165   1.633  0.7975 -0.0587 -0.4573
  989MOL0     C30452   2.108   6.060   1.542 -0.4805 -0.3952  0.0611
  989MOL0     C30453   1.997   6.097   1.438  0.2965 -0.4903  0.0559
  989MOL0     C30454   1.973   5.979   1.335  0.2670  0.6334 -0.7792
  989MOL0     C30455   1.870   6.018   1.222  0.0731  0.6612 -0.4225
  989MOL0     C30456   1.837   5.895   1.132  0.6984 -0.1379  0.3101
  989MOL0     C30457   1.950   5.869   1.033 -0.3393  0.0700 -0.2747
  989MOL0     C30458   1.916   5.746   0.944 -0.4227  0.8305  0.1983
  989MOL0     C30459   2.037   5.694   0.860  0.1742  0.3421 -0.4993
  989MOL0    Cl30460   2.151   5.806   0.780  0.5731 -0.0663 -0.2623
  989MOL0     C30461   2.334   6.288   1.651 -0.7498 -0.6490  0.6023
  989MOL0     C30462   2.470   6.314   1.670 -0.5204 -0.4590 -0.1636
  989MOL0     O30463   2.794   6.052   1.716  0.8755  0.0757 -0.4867
  989MOL0     C30464   2.936   6.370   1.777 -0.2127 -0.1135 -0.1364
  989MOL0     C30465   3.051   6.437   1.789  0.1443  0.3884  0.3061
  989MOL0     N30466   3.946   6.396   1.670  0.1292  0.0629 -0.7927
  989MOL0     N30467   4.012   6.294   1.688 -0.3229  0.2303  0.1339
  989MOL0     C30468   4.698   5.531   1.704  0.1868 -0.1773  0.1482
  989MOL0     C30469   4.833   5.530   1.737 -0.1030 -0.5323  0.7193
  989MOL0     C30470   5.243   5.338   1.883  0.4036 -0.3831 -0.9820
  989MOL0     C30471   5.325   5.422   1.805 -0.2645 -0.7019 -0.0102
  989MOL0     C30472   5.462   5.422   1.828 -0.4081  0.5185 -0.4697
  989MOL0     C30473   5.522   5.339   1.923  0.1381 -0.4872  0.1702
  989MOL0     O30474   5.667   5.340   1.917  0.0188 -0.0301 -0.0605
  989MOL0     C30475   5.734   5.229   1.979  1.0047  0.3763  0.0016
  989MOL0     C30476   5.887   5.246   1.965  0.0750 -0.0175 -0.8213
  989MOL0     C30477   5.929   5.373   2.046 -0.7409 -0.5460  0.6896
  989MOL0     C30478   6.087   5.385   2.060  0.4328 -0.1388  0.4381
  989MOL0     C30479   6.099   5.493   2.161  0.1560 -0.4348  0.1982
  989MOL0     C30480   6.091   5.569   2.262 -0.0162  0.2760  0.1705
  989MOL0     C30481   5.448   5.251   1.999 -0.6227  0.0792  0.1657
  989MOL0     C30482   5.311   5.248   1.972 -0.5956  0.4067  0.4205
  989MOL0     H30483   4.909   5.201   1.726 -1.2586 -1.1422  0.4371
  989MOL0     H30484   4.667   5.189   1.670  0.5062 -2.0064  2.1548
  989MOL0     H30485   4.487   5.583   1.508 -0.9544  0.8376 -0.9512
  989MOL0     H30486   4.437   5.585   1.688  1.0416 -1.0158  1.5254
  989MOL0     H30487   4.264   5.408   1.606 -0.5645 -1.0459 -1.7512
  989MOL0     H30488   4.321   5.432   1.444 -1.8423 -3.7933  1.3526
  989MOL0     H30489   4.095   5.535   1.511  0.4740 -2.3105  4.1977
  989MOL0     H30490   4.222   5.653   1.450 -0.4406  0.5829  0.5592
  989MOL0     H30491   4.152   5.609   1.755 -2.5129  0.5727  0.6050
  989MOL0     H30492   4.258   5.738   1.681 -1.4503  0.8812 -2.1521
  989MOL0     H30493   4.030   5.798   1.762 -0.1613 -1.1737  0.1710
  989MOL0     H30494   3.969   5.699   1.629  0.4416 -1.1730  1.0432
  989MOL0     H30495   4.111   5.846   1.473  3.0924  1.8929  0.4477
  989MOL0     H30496   4.177   5.922   1.599  0.5339  0.7989 -0.5665
  989MOL0     H30497   3.964   6.040   1.498 -0.7293  0.6001 -0.8514
  989MOL0     H30498   3.860   5.931   1.586 -0.5798  1.2237 -0.9903
  989MOL0     H30499   4.086   6.074   1.754 -0.8245  1.7573  2.7815
  989MOL0     H30500   3.941   6.010   1.803  0.1594 -0.8637  0.2976
  989MOL0     H30501   3.720   6.151   1.646 -0.3491  0.0203  0.0413
  989MOL0     H30502   3.635   6.412   1.533  1.5132  1.2416 -0.7426
  989MOL0     H30503   3.721   6.545   1.602 -0.9212 -0.7984  0.4719
  989MOL0     H30504   3.669   6.481   1.826 -1.8565  0.3653  1.1510
  989MOL0     H30505   3.563   6.348   1.760  1.1801 -0.4192  0.1893
  989MOL0     H30506   3.485   6.616   1.828  1.0114  0.0079  0.5675
  989MOL0     H30507   3.524   6.628   1.657 -0.6580  1.0964  0.1467
  989MOL0     H30508   3.375   6.441   1.600  0.2655 -0.9022  0.2664
  989MOL0     H30509   3.292   6.579   1.655 -0.4189 -0.3192  0.8297
  989MOL0     H30510   3.257   6.187   1.716 -0.5949 -1.3098  2.9071
  989MOL0     H30511   3.030   6.080   1.670 -1.3564  1.1446  0.1068
  989MOL0     H30512   2.560   5.990   1.731 -0.1331 -0.0842 -0.1308
  989MOL0     H30513   2.316   5.955   1.690 -0.5899  0.9517  0.5066
  989MOL0     H30514   2.068   5.979   1.603 -3.5249  1.2619  0.4723
  989MOL0     H30515   2.197   6.034   1.484 -0.4222  1.7141 -0.8925
  989MOL0     H30516   2.022   6.191   1.387 -2.3369  0.8742  1.0526
  989MOL0     H30517   1.896   6.114   1.478 -0.8370 -2.1310 -1.9460
  989MOL0     H30518   1.933   5.891   1.386 -0.4899  0.8652 -0.9551
  989MOL0     H30519   2.063   5.950   1.280  0.2172  1.0234 -1.0753
  989MOL0     H30520   1.775   6.052   1.263 -0.2980  0.3976 -1.0385
  989MOL0     H30521   1.905   6.109   1.172  0.6235  1.2100  0.9151
  989MOL0     H30522   1.738   5.901   1.086  0.8246  0.2101  0.0868
  989MOL0     H30523   1.839   5.806   1.196 -0.3692 -0.7244 -0.4358
  989MOL0     H30524   2.044   5.858   1.088 -2.5889 -2.4350  3.4626
  989MOL0     H30525   1.973   5.956   0.970  0.1173 -1.0474 -1.7241
  989MOL0     H30526   1.873   5.661   0.997  0.0004 -0.0162 -0.7758
  989MOL0     H30527   1.844   5.782   0.870 -1.1090  0.5886  0.7463
  989MOL0     H30528   2.007   5.618   0.787  0.5198  2.2300 -2.7626
  989MOL0     H30529   2.096   5.649   0.940 -0.7269  0.5190  0.2799
  989MOL0     H30530   2.278   6.373   1.612 -0.9642 -1.2354 -0.4136
  989MOL0     H30531   2.511   6.414   1.665 -0.5568 -0.4876 -1.3905
  989MOL0     H30532   2.840   6.418   1.797  0.4808  0.3044  2.5445
  989MOL0     H30533   3.046   6.536   1.832  3.0570 -0.5311  3.1486
  989MOL0     H30534   4.640   5.623   1.716  1.3782  0.4909  1.0026
  989MOL0     H30535   4.887   5.620   1.764  1.7252 -0.8433 -1.5934
  989MOL0     H30536   5.298   5.500   1.733  2.5830  0.6932  0.2971
  989MOL0     H30537   5.523   5.489   1.769  1.4567 -0.6296  0.0638
  989MOL0     H30538   5.710   5.134   1.931  1.0292 -0.4290  1.5499
  989MOL0     H30539   5.701   5.221   2.083 -0.0630  2.5835 -0.0988
  989MOL0     H30540   5.934   5.162   2.018  2.4262  1.5641 -0.2356
  989MOL0     H30541   5.918   5.259   1.861 -0.0797 -0.8678 -0.9784
  989MOL0     H30542   5.886   5.371   2.146  0.6438 -2.6987  1.3193
  989MOL0     H30543   5.889   5.453   1.983  1.4178  0.7297  0.8192
  989MOL0     H30544   6.137   5.298   2.102 -1.9093 -2.4746 -1.2791
  989MOL0     H30545   6.139   5.408   1.967  0.5103  1.6698  0.8828
  989MOL0     H30546   6.081   5.649   2.332 -0.8738 -0.9056  1.4363
  989MOL0     H30547   5.496   5.179   2.064 -4.2480 -1.6588  1.1853
  989MOL0     H30548   5.256   5.173   2.027 -0.9225  2.1967  2.6782
  990MOL0     O30549   4.714   0.429   1.900 -0.4827 -0.1735  0.8379
  990MOL0     C30550   4.808   0.438   1.823  0.0284  0.9580  0.0984
  990MOL0     O30551   4.866   0.335   1.757  0.4685 -0.7990 -0.3793
  990MOL0     C30552   4.798   0.218   1.757  0.1353  0.3188 -0.0888
  990MOL0     C30553   4.861   0.110   1.816  0.1742  0.2394  0.3495
  990MOL0     C30554   4.798  -0.015   1.831  1.0479 -0.8064 -0.0479
  990MOL0     C30555   4.675  -0.034   1.762 -1.2718 -0.7291 -0.2961
  990MOL0     O30556   4.610  -0.153   1.770  0.0679  0.0376  0.7597
  990MOL0     C30557   4.624  -0.241   1.888 -0.3915  1.2758  0.6065
  990MOL0     C30558   4.494  -0.325   1.881  0.2955  0.8209  0.2350
  990MOL0     C30559   4.498  -0.428   1.997  1.1944  0.7928 -0.4533
  990MOL0     C30560   4.360  -0.501   1.986  0.6357  0.2677  0.3958
  990MOL0     C30561   4.378  -0.654   2.000  0.3322  0.3048 -0.3132
  990MOL0     C30562   4.276  -0.731   1.916 -0.1981  0.4487 -0.0054
  990MOL0     C30563   4.129  -0.707   1.965 -0.4355  0.3621 -0.8183
  990MOL0     C30564   4.115  -0.755   2.108 -0.0966  0.7227  0.8560
  990MOL0     N30565   3.971  -0.768   2.157 -0.7660  0.4798  0.2665
  990MOL0     C30566   3.916  -0.886   2.199 -0.0189  0.3259 -0.0968
  990MOL0     C30567   3.783  -0.849   2.228  0.0781 -0.4912  1.1084
  990MOL0     C30568   3.677  -0.941   2.262  0.9629  0.3333 -0.1627
  990MOL0     C30569   3.530  -0.896   2.229  0.0198  0.2274 -0.2806
  990MOL0     C30570   3.428  -0.994   2.282  1.7413 -0.1337 -0.3332
  990MOL0     C30571   3.287  -0.945   2.256 -0.2930  0.8783 -0.5996
  990MOL0     O30572   3.206  -1.056   2.300  0.3483 -0.2908  0.1836
  990MOL0     C30573   3.065  -1.038   2.312 -0.8401 -0.0464 -0.0807
  990MOL0     C30574   2.993  -0.911   2.303  0.6591  0.9092  0.0766
  990MOL0     C30575   2.845  -0.905   2.321 -0.7297 -0.1103  0.1765
  990MOL0     C30576   2.779  -1.025   2.337  0.0015  0.0460 -0.1931
  990MOL0     C30577   2.631  -1.014   2.344 -0.1873 -0.3860  0.3825
  990MOL0     O30578   2.569  -0.891   2.312 -0.7870 -0.9581 -0.0135
  990MOL0     C30579   2.455  -0.874   2.375  0.1389  0.0337  0.5396
  990MOL0     C30580   2.457  -0.811   2.495 -0.4750  0.0333 -0.1969
  990MOL0     C30581   2.328  -0.787   2.554 -0.4886  0.0316 -0.5562
  990MOL0     C30582   2.207  -0.815   2.490  0.0686 -0.2336  0.9617
  990MOL0     O30583   2.083  -0.793   2.546 -0.5545  0.0527 -0.1445
  990MOL0     C30584   2.072  -0.671   2.625  0.4321 -0.4050  0.1408
  990MOL0     C30585   1.919  -0.643   2.662 -0.7216  0.3798 -0.0471
  990MOL0     C30586   1.887  -0.707   2.802 -0.4730 -0.3872  0.0029
  990MOL0     C30587   1.734  -0.691   2.808  0.4769 -0.3407  0.7173
  990MOL0     C30588   1.678  -0.729   2.953  0.4315  0.3154 -0.2054
  990MOL0     C30589   1.521  -0.742   2.944  0.8867 -0.9403 -0.6861
  990MOL0     C30590   1.445  -0.717   3.073  0.7071  0.1712  0.6415
  990MOL0     C30591   1.297  -0.738   3.084  0.0812  0.5933  1.5263
  990MOL0    Cl30592   1.246  -0.805   3.240  0.0032  0.2030  0.5547
  990MOL0     C30593   2.211  -0.880   2.359 -0.1482 -1.0027 -0.8592
  990MOL0     C30594   2.339  -0.902   2.301  0.6152 -0.1490 -0.6395
  990MOL0     O30595   2.575  -1.107   2.391  0.3649  0.1744  0.3679
  990MOL0     C30596   2.852  -1.149   2.328 -0.9367  0.8113 -0.7201
  990MOL0     C30597   2.995  -1.145   2.329  0.2095  0.2106  0.9803
  990MOL0     N30598   3.765  -0.713   2.187  0.0499 -0.4081 -0.3931
  990MOL0     N30599   3.876  -0.671   2.144  0.9978  0.3129  0.3764
  990MOL0     C30600   4.610   0.072   1.696  0.3435 -0.9239 -0.5456
  990MOL0     C30601   4.671   0.197   1.692  0.6336 -1.0078 -0.4088
  990MOL0     C30602   4.871   0.571   1.825 -0.6780  0.2308 -0.4998
  990MOL0     C30603   4.973   0.604   1.732 -0.6079  0.2055  0.4709
  990MOL0     C30604   5.055   0.717   1.733  0.4981 -0.5507 -1.5306
  990MOL0     C30605   5.026   0.811   1.843 -0.1385  0.3806 -1.2155
  990MOL0     O30606   5.106   0.920   1.852  0.1583  0.2261 -0.0381
  990MOL0     C30607   5.204   0.929   1.958  0.2353 -0.2930  0.9167
  990MOL0     C30608   5.329   0.849   1.940  0.7097  0.3142 -0.1566
  990MOL0     C30609   5.413   0.898   1.816 -0.3840 -0.6904 -0.3047
  990MOL0     C30610   5.556   0.849   1.821 -0.0468 -0.3206  0.6995
  990MOL0     C30611   5.631   0.933   1.908  0.1127 -0.5704  0.1359
  990MOL0     C30612   5.690   1.004   1.986  0.6396 -0.7089 -0.8141
  990MOL0     C30613   4.931   0.781   1.947  0.9620  0.8824 -0.3461
  990MOL0     C30614   4.857   0.660   1.929  0.1794  0.1552  0.1435
  990MOL0     H30615   4.957   0.126   1.863  0.1743  4.2827 -0.7198
  990MOL0     H30616   4.843  -0.094   1.890 -0.7916 -0.5865  1.7755
  990MOL0     H30617   4.619  -0.187   1.983 -4.9667  2.3520 -0.0135
  990MOL0     H30618   4.702  -0.316   1.873  1.4853  3.6204 -2.5118
  990MOL0     H30619   4.479  -0.383   1.790 -1.6319 -0.2921  1.1944
  990MOL0     H30620   4.409  -0.257   1.892 -0.6727 -0.5305  1.5481
  990MOL0     H30621   4.508  -0.374   2.092 -1.1472  2.8673 -1.2814
  990MOL0     H30622   4.577  -0.502   1.982  0.5508 -0.0172  0.0906
  990MOL0     H30623   4.293  -0.459   2.061 -3.0335  0.2865 -2.6262
  990MOL0     H30624   4.308  -0.472   1.894  2.1280  3.7600  0.4943
  990MOL0     H30625   4.381  -0.692   2.103 -0.2740  1.1092  0.0171
  990MOL0     H30626   4.473  -0.682   1.954 -0.5899 -3.0905 -0.3673
  990MOL0     H30627   4.298  -0.838   1.928 -2.2577 -0.0027  0.1412
  990MOL0     H30628   4.285  -0.714   1.808  3.9607 -1.1351 -0.0963
  990MOL0     H30629   4.105  -0.600   1.966  0.5060  0.6068  1.2963
  990MOL0     H30630   4.069  -0.768   1.897  1.6322 -2.0457 -0.6548
  990MOL0     H30631   4.159  -0.684   2.179  0.9488  0.5433  0.3993
  990MOL0     H30632   4.159  -0.855   2.118  0.8698  1.2356  1.9619
  990MOL0     H30633   3.959  -0.986   2.202  1.2643  0.8799  1.4785
  990MOL0     H30634   3.682  -0.950   2.371 -0.4546  5.5500  0.6261
  990MOL0     H30635   3.701  -1.030   2.203 -0.9852 -1.2808  1.3345
  990MOL0     H30636   3.520  -0.884   2.121 -0.4964 -2.0089 -0.5418
  990MOL0     H30637   3.512  -0.801   2.281 -0.4197 -0.6709  1.2735
  990MOL0     H30638   3.445  -1.091   2.236  1.0494 -0.1490 -0.5665
  990MOL0     H30639   3.444  -1.008   2.390 -0.8693  1.4537  0.3481
  990MOL0     H30640   3.276  -0.904   2.155 -2.8733 -1.4263 -1.3824
  990MOL0     H30641   3.259  -0.863   2.322 -1.3282  0.3999 -0.4087
  990MOL0     H30642   3.054  -0.823   2.292  3.2721 -0.9451 -1.3718
  990MOL0     H30643   2.801  -0.807   2.325  1.4017  0.9110  0.1138
  990MOL0     H30644   2.556  -0.795   2.535  0.9502 -1.4207 -2.9168
  990MOL0     H30645   2.333  -0.753   2.656 -0.0589  2.6481 -1.3809
  990MOL0     H30646   2.108  -0.590   2.561  0.4805 -1.4043 -1.1597
  990MOL0     H30647   2.130  -0.671   2.717 -1.8635  2.1340  1.7216
  990MOL0     H30648   1.861  -0.680   2.577 -0.2415 -0.9227  0.1646
  990MOL0     H30649   1.911  -0.534   2.668  4.9153  1.0970  0.3532
  990MOL0     H30650   1.941  -0.662   2.886  0.3805 -2.8202  0.8455
  990MOL0     H30651   1.920  -0.811   2.804 -1.2222 -0.6307  0.0827
  990MOL0     H30652   1.701  -0.591   2.779  0.5019 -1.0341 -1.9451
  990MOL0     H30653   1.687  -0.757   2.734 -0.7123 -0.4022  1.4981
  990MOL0     H30654   1.712  -0.653   3.024  0.5449 -1.3039  1.5566
  990MOL0     H30655   1.716  -0.825   2.991 -0.0383  1.1051  2.4611
  990MOL0     H30656   1.507  -0.845   2.912  0.5372 -1.3720  0.7678
  990MOL0     H30657   1.484  -0.677   2.863 -3.7633  0.2504  2.0029
  990MOL0     H30658   1.482  -0.796   3.140  0.4482 -3.1244 -2.7794
  990MOL0     H30659   1.467  -0.621   3.120 -1.1503  0.6986  0.5034
  990MOL0     H30660   1.260  -0.802   3.004 -0.0142  0.6217  1.5475
  990MOL0     H30661   1.248  -0.641   3.069 -0.2985  0.2198  0.2491
  990MOL0     H30662   2.120  -0.917   2.313  0.2209  0.1149 -2.6099
  990MOL0     H30663   2.342  -0.949   2.203  0.2578  0.2359 -0.8333
  990MOL0     H30664   2.786  -1.236   2.330 -1.1866  0.9539 -2.0743
  990MOL0     H30665   3.043  -1.243   2.334 -1.0609 -0.5547 -0.7173
  990MOL0     H30666   4.509   0.063   1.657  0.2535 -2.6556 -0.0102
  990MOL0     H30667   4.614   0.286   1.667  3.8703  0.6900 -2.4497
  990MOL0     H30668   4.994   0.543   1.645 -1.2784  0.7536 -0.0826
  990MOL0     H30669   5.129   0.742   1.658 -1.1480  3.2822 -2.1388
  990MOL0     H30670   5.157   0.917   2.057 -0.7761  3.7398  1.1157
  990MOL0     H30671   5.239   1.033   1.958  3.0022 -1.0548  3.8252
  990MOL0     H30672   5.390   0.853   2.031  3.4960 -3.2548 -1.6247
  990MOL0     H30673   5.289   0.748   1.934 -0.0899  0.4443  1.9670
  990MOL0     H30674   5.424   1.007   1.817  2.0043 -0.8593 -1.3980
  990MOL0     H30675   5.367   0.863   1.723 -1.5181 -0.1096  0.0146
  990MOL0     H30676   5.550   0.743   1.845 -1.0175 -0.9997 -2.1263
  990MOL0     H30677   5.599   0.848   1.720 -1.1670 -0.8473  0.2029
  990MOL0     H30678   5.728   1.079   2.053  1.8928 -2.4529  0.5251
  990MOL0     H30679   4.903   0.854   2.022  0.6646 -0.6716  1.1024
  990MOL0     H30680   4.788   0.640   2.010  0.1744  0.6301  0.2613
  991MOL0     O30681   3.338   1.212   8.722 -0.0584 -0.7349  0.3393
  991MOL0     C30682   3.393   1.169   8.621 -0.2215 -1.3653  1.1349
  991MOL0     O30683   3.339   1.154   8.504 -0.2690 -0.4500  0.4113
  991MOL0     C30684   3.203   1.146   8.503 -0.7392  0.3240  0.0007
  991MOL0     C30685   3.125   1.265   8.500 -0.1232 -0.3932  0.6857
  991MOL0     C30686   2.985   1.250   8.489  1.4836  0.0234  0.0925
  991MOL0     C30687   2.922   1.124   8.484  0.9600  0.2215  0.3017
  991MOL0     O30688   2.788   1.105   8.469 -0.2043  0.3495  0.0242
  991MOL0     C30689   2.706   1.189   8.552  0.3945  0.1858  0.4534
  991MOL0     C30690   2.567   1.129   8.572  1.0601  0.2522 -0.2362
  991MOL0     C30691   2.462   1.235   8.608 -0.0089 -0.5434  0.7489
  991MOL0     C30692   2.322   1.182   8.609 -0.2533  0.1346 -0.3698
  991MOL0     C30693   2.207   1.284   8.586 -0.2652 -0.2129  0.4189
  991MOL0     C30694   2.211   1.357   8.447  0.1544  0.5379 -0.2708
  991MOL0     C30695   2.066   1.388   8.409  0.6645  0.4304  0.7967
  991MOL0     C30696   2.025   1.511   8.482  0.1890  0.1802 -0.3268
  991MOL0     N30697   1.892   1.549   8.434 -0.5896 -0.6078 -0.0054
  991MOL0     C30698   1.777   1.471   8.416 -0.2440 -0.4033  0.0550
  991MOL0     C30699   1.704   1.550   8.337 -0.2121  0.0561  0.1292
  991MOL0     C30700   1.574   1.509   8.274  0.4887 -0.1228  0.0895
  991MOL0     C30701   1.463   1.607   8.277 -0.0705  0.3417  0.0566
  991MOL0     C30702   1.332   1.533   8.242 -0.4654  0.7102  0.4791
  991MOL0     C30703   1.211   1.621   8.209  0.4096  0.2490  0.0794
  991MOL0     O30704   1.236   1.687   8.090  0.0343 -0.0695 -0.6528
  991MOL0     C30705   1.132   1.765   8.051  0.8384 -0.4180  0.3558
  991MOL0     C30706   1.174   1.866   7.959 -0.1392  1.5265  0.0384
  991MOL0     C30707   1.087   1.953   7.909  0.4327 -0.1854 -0.5733
  991MOL0     C30708   0.942   1.934   7.921 -0.1912 -0.3091 -0.2626
  991MOL0     C30709   0.850   2.019   7.853 -0.5707 -0.4820  0.1571
  991MOL0     O30710   0.722   1.977   7.844 -0.0560  0.6526 -0.0103
  991MOL0     C30711   0.627   2.059   7.775  0.6111  0.7522  0.1491
  991MOL0     C30712   0.620   2.044   7.634  0.0909  0.1944  0.1495
  991MOL0     C30713   0.529   2.114   7.560 -0.2154 -0.4800 -0.4905
  991MOL0     C30714   0.433   2.198   7.625  0.5050  0.1923  0.9727
  991MOL0     O30715   0.338   2.262   7.543  0.1163 -0.7178  0.1275
  991MOL0     C30716   0.249   2.167   7.476 -0.7266 -0.3520 -0.4739
  991MOL0     C30717   0.144   2.227   7.385  0.5607 -0.5652  0.0646
  991MOL0     C30718   0.037   2.126   7.331  0.2110 -1.0417 -0.0045
  991MOL0     C30719  -0.070   2.190   7.238 -0.0948 -0.4983  0.0729
  991MOL0     C30720  -0.184   2.097   7.193  0.2026  0.6548 -0.6006
  991MOL0     C30721  -0.289   2.068   7.296  0.4812 -0.0702 -0.7544
  991MOL0     C30722  -0.413   2.007   7.248  0.3436  0.1756 -0.7477
  991MOL0     C30723  -0.508   1.982   7.364  0.0348  0.0834  0.1558
  991MOL0    Cl30724  -0.445   1.857   7.484  0.4441 -0.1016 -0.0465
  991MOL0     C30725   0.431   2.205   7.762  0.1223 -0.1731  0.1245
  991MOL0     C30726   0.526   2.131   7.835  1.0261 -0.5115  0.2422
  991MOL0     O30727   0.886   2.134   7.817 -0.5943 -0.1913 -0.0615
  991MOL0     C30728   0.902   1.829   8.001  0.0177  0.4095 -0.3876
  991MOL0     C30729   0.997   1.759   8.075  0.6775  0.5162 -0.4799
  991MOL0     N30730   1.760   1.676   8.304 -0.0176 -0.2379 -0.1499
  991MOL0     N30731   1.874   1.665   8.362  0.5558  0.4331  0.2653
  991MOL0     C30732   3.006   1.014   8.467 -0.0508  0.0346  0.8168
  991MOL0     C30733   3.144   1.026   8.481  0.1972 -0.3314 -0.4443
  991MOL0     C30734   3.542   1.174   8.622  0.5774  0.2462  0.1821
  991MOL0     C30735   3.617   1.162   8.501  0.0799  0.3025  0.1065
  991MOL0     C30736   3.757   1.164   8.507  0.0288 -0.5457 -0.1777
  991MOL0     C30737   3.833   1.171   8.625 -0.4902 -0.4445 -0.3968
  991MOL0     O30738   3.970   1.153   8.636 -0.3164  0.1756  0.6051
  991MOL0     C30739   4.055   1.157   8.509 -0.1337  0.1259 -0.3988
  991MOL0     C30740   4.202   1.149   8.525  0.2305 -0.2316  0.1316
  991MOL0     C30741   4.255   1.257   8.616 -0.1394 -0.9995 -0.0065
  991MOL0     C30742   4.407   1.267   8.592 -0.4380  0.7697  0.0916
  991MOL0     C30743   4.466   1.368   8.685 -0.0931  0.7303  0.0984
  991MOL0     C30744   4.524   1.441   8.771  0.0758  0.0312 -0.2988
  991MOL0     C30745   3.756   1.197   8.739 -0.2512  0.4403  0.0850
  991MOL0     C30746   3.615   1.199   8.743 -0.6295  0.4082 -0.8049
  991MOL0     H30747   3.164   1.366   8.497  1.3845 -0.9453 -2.2052
  991MOL0     H30748   2.920   1.334   8.466 -0.2996 -1.9290 -2.5161
  991MOL0     H30749   2.700   1.281   8.493 -0.4656 -1.5115 -2.2892
  991MOL0     H30750   2.759   1.201   8.647  1.1975 -1.8283  0.2899
  991MOL0     H30751   2.563   1.052   8.650  0.3979 -0.0999 -0.6116
  991MOL0     H30752   2.537   1.083   8.477 -0.4898  0.6731  0.0225
  991MOL0     H30753   2.474   1.301   8.522 -0.0914 -2.7764 -1.0743
  991MOL0     H30754   2.468   1.285   8.705  0.3793  0.5635  0.1689
  991MOL0     H30755   2.321   1.112   8.525 -1.0454  0.2087 -0.4294
  991MOL0     H30756   2.310   1.125   8.701 -3.5725  1.8381  0.4014
  991MOL0     H30757   2.208   1.352   8.672 -1.1884 -0.2807  0.4890
  991MOL0     H30758   2.118   1.221   8.592  0.3198 -0.9572  4.7335
  991MOL0     H30759   2.257   1.300   8.365 -1.1273 -1.7727  0.5438
  991MOL0     H30760   2.254   1.457   8.443  1.8309 -0.1774 -1.5720
  991MOL0     H30761   2.052   1.400   8.301  0.3571 -3.3397  0.2743
  991MOL0     H30762   2.002   1.302   8.430 -0.4127  0.9944 -0.0667
  991MOL0     H30763   2.104   1.587   8.481  3.3872 -2.8428  1.5110
  991MOL0     H30764   2.009   1.493   8.589 -1.0795 -0.6966 -0.6553
  991MOL0     H30765   1.751   1.372   8.451 -2.0221 -0.0300 -0.0969
  991MOL0     H30766   1.530   1.422   8.324 -0.1397  0.6285  0.8973
  991MOL0     H30767   1.594   1.487   8.169 -0.8837  0.2702 -0.2783
  991MOL0     H30768   1.480   1.689   8.207 -1.5537  1.4250  0.9159
  991MOL0     H30769   1.460   1.652   8.377  0.8564  0.9622 -0.1789
  991MOL0     H30770   1.342   1.476   8.149  1.1778  0.0216  1.0376
  991MOL0     H30771   1.315   1.468   8.329  1.1508 -3.0930 -1.7647
  991MOL0     H30772   1.188   1.697   8.284 -1.8699  0.1588 -0.4519
  991MOL0     H30773   1.118   1.563   8.208  1.4088 -1.5431  1.9644
  991MOL0     H30774   1.278   1.877   7.927 -0.3641 -0.2991 -1.5557
  991MOL0     H30775   1.118   2.022   7.831 -2.9174 -1.5836 -3.4680
  991MOL0     H30776   0.698   1.982   7.590  0.0409 -0.5302  1.0634
  991MOL0     H30777   0.528   2.096   7.452  1.6521  1.8459 -0.9818
  991MOL0     H30778   0.202   2.107   7.554  1.1536  1.7819  2.5084
  991MOL0     H30779   0.295   2.095   7.408  1.5074  2.4385 -2.1603
  991MOL0     H30780   0.202   2.278   7.307  0.5621  2.1918  1.7321
  991MOL0     H30781   0.100   2.312   7.439  1.7739 -0.8344  1.5567
  991MOL0     H30782  -0.002   2.087   7.426  2.5412 -0.3972  1.3059
  991MOL0     H30783   0.077   2.044   7.270  1.8077  1.5879 -2.7165
  991MOL0     H30784  -0.099   2.285   7.284  0.5109  0.5332 -1.5653
  991MOL0     H30785  -0.028   2.217   7.141 -1.8271 -0.0737 -0.5906
  991MOL0     H30786  -0.143   2.003   7.153 -1.4205 -0.6054  0.5834
  991MOL0     H30787  -0.237   2.152   7.115 -0.6784  2.7079  1.3450
  991MOL0     H30788  -0.327   2.162   7.337  1.2015 -0.5562  1.0993
  991MOL0     H30789  -0.248   2.005   7.375 -3.1099 -1.7998 -0.0382
  991MOL0     H30790  -0.450   2.083   7.179  1.5948 -0.1737 -1.8237
  991MOL0     H30791  -0.405   1.904   7.214 -1.0288 -0.0031 -0.6028
  991MOL0     H30792  -0.604   1.939   7.335 -0.0225  1.0748 -1.2441
  991MOL0     H30793  -0.539   2.079   7.404  0.7248 -0.3796  1.9121
  991MOL0     H30794   0.338   2.229   7.814 -0.4417 -2.6657  0.3895
  991MOL0     H30795   0.511   2.104   7.939  0.4972 -0.0204  0.2985
  991MOL0     H30796   0.798   1.809   8.025  0.7575 -1.2221  1.6809
  991MOL0     H30797   0.950   1.687   8.141 -0.6066  1.1262 -0.6939
  991MOL0     H30798   2.963   0.917   8.445 -0.0245  0.1932  0.0529
  991MOL0     H30799   3.205   0.937   8.477  2.1271  0.7523  1.9116
  991MOL0     H30800   3.581   1.143   8.400  4.0905 -0.5760 -1.3741
  991MOL0     H30801   3.804   1.158   8.409  0.3073  0.7503 -0.1448
  991MOL0     H30802   4.032   1.248   8.453  2.2310  1.3471  0.4420
  991MOL0     H30803   4.023   1.076   8.444 -1.2703  0.3082 -0.0839
  991MOL0     H30804   4.221   1.048   8.563 -2.2704  0.4195  3.7543
  991MOL0     H30805   4.243   1.165   8.425 -0.0597 -0.5585 -0.0399
  991MOL0     H30806   4.221   1.240   8.719 -5.5470  3.5508 -0.5145
  991MOL0     H30807   4.214   1.356   8.594  1.8907 -0.4456 -1.5537
  991MOL0     H30808   4.447   1.167   8.614 -3.0116 -0.3316  0.0620
  991MOL0     H30809   4.421   1.297   8.488 -0.6356 -0.0700 -0.1887
  991MOL0     H30810   4.571   1.497   8.849 -2.2796 -0.3598  1.5347
  991MOL0     H30811   3.814   1.225   8.827 -0.7632  0.7025  0.3475
  991MOL0     H30812   3.555   1.210   8.833  1.6279  1.3240  0.6841
  992MOL0     O30813   3.171   1.061   3.932  0.0416  0.5739 -0.2421
  992MOL0     C30814   3.232   0.956   3.948  0.2271 -0.7274 -0.8931
  992MOL0     O30815   3.180   0.836   3.997 -0.1209  0.6710  0.0746
  992MOL0     C30816   3.046   0.831   4.020 -0.6931  0.1998 -0.3639
  992MOL0     C30817   2.997   0.858   4.147  0.7081  0.8390 -0.4428
  992MOL0     C30818   2.853   0.853   4.156 -0.4808  0.2769 -0.3198
  992MOL0     C30819   2.769   0.802   4.058 -0.0105  0.8440  0.3382
  992MOL0     O30820   2.642   0.816   4.086 -0.1384 -0.1044 -0.3697
  992MOL0     C30821   2.550   0.744   4.005 -0.1856 -0.5685  0.5756
  992MOL0     C30822   2.416   0.752   4.064  0.7376  0.0099  0.8777
  992MOL0     C30823   2.305   0.699   3.974 -0.7382 -0.0219 -0.6549
  992MOL0     C30824   2.321   0.557   3.940  0.5424 -0.9607  0.4168
  992MOL0     C30825   2.231   0.516   3.825  0.7148  1.2247 -0.8538
  992MOL0     C30826   2.261   0.371   3.793  0.1227  0.3583 -0.4206
  992MOL0     C30827   2.130   0.296   3.796  0.4909  0.4252 -0.2388
  992MOL0     C30828   2.017   0.346   3.698 -0.2067  0.0005 -0.0414
  992MOL0     N30829   1.891   0.277   3.721  0.3780  0.5026 -0.4262
  992MOL0     C30830   1.777   0.323   3.687 -0.2105  0.3030  0.1085
  992MOL0     C30831   1.693   0.214   3.682 -0.0441 -0.1322 -0.0112
  992MOL0     C30832   1.548   0.217   3.644 -0.6258  0.6669 -0.4613
  992MOL0     C30833   1.470   0.277   3.761 -0.6749 -0.1432 -0.1058
  992MOL0     C30834   1.452   0.176   3.874 -0.1012 -0.0092  0.0607
  992MOL0     C30835   1.343   0.229   3.955  0.2722 -0.1671 -0.0222
  992MOL0     O30836   1.357   0.360   4.006  0.6572  0.6249 -1.0276
  992MOL0     C30837   1.270   0.403   4.102 -0.5426 -0.0618  0.1476
  992MOL0     C30838   1.296   0.535   4.139  0.2840 -0.3157 -0.5488
  992MOL0     C30839   1.203   0.601   4.210  0.4565  0.0906 -0.6926
  992MOL0     C30840   1.093   0.539   4.264  0.3751  1.2004  1.0738
  992MOL0     C30841   0.996   0.603   4.350  0.4696  1.4326  0.0809
  992MOL0     O30842   0.884   0.539   4.395  0.2997  0.5222 -0.6142
  992MOL0     C30843   0.787   0.616   4.456  0.1964 -0.0384 -0.0452
  992MOL0     C30844   0.750   0.736   4.397  0.1949  0.5813 -1.9262
  992MOL0     C30845   0.643   0.808   4.458 -0.6723 -0.1572  0.2568
  992MOL0     C30846   0.578   0.761   4.572 -0.7538  1.2260  0.1902
  992MOL0     O30847   0.473   0.821   4.642  0.1292  0.9236 -0.0303
  992MOL0     C30848   0.445   0.953   4.609 -0.9413 -0.4321 -0.0761
  992MOL0     C30849   0.315   0.986   4.680 -0.2392 -0.3720  0.1862
  992MOL0     C30850   0.271   1.117   4.628 -1.1891 -0.0590 -1.5232
  992MOL0     C30851   0.145   1.163   4.701 -0.3000  1.1497  1.2649
  992MOL0     C30852   0.104   1.291   4.632  1.4181 -0.7097 -0.3292
  992MOL0     C30853  -0.023   1.345   4.695  0.1935 -0.2372  0.2626
  992MOL0     C30854  -0.089   1.469   4.629 -0.9511  0.3024 -0.0342
  992MOL0     C30855  -0.249   1.462   4.648  1.0191 -0.2214  1.6502
  992MOL0    Cl30856  -0.297   1.617   4.558 -0.0450  0.1861  0.2959
  992MOL0     C30857   0.634   0.651   4.641 -0.6546 -0.0196  0.3431
  992MOL0     C30858   0.737   0.576   4.577  0.0586  0.7750 -0.4488
  992MOL0     O30859   1.035   0.712   4.387  0.5407  0.7559 -0.2449
  992MOL0     C30860   1.084   0.392   4.256  0.1003  0.7811  0.3322
  992MOL0     C30861   1.171   0.337   4.161 -0.3556 -0.1649 -0.7530
  992MOL0     N30862   1.767   0.097   3.699  0.3930 -0.1916  0.6828
  992MOL0     N30863   1.888   0.141   3.733  0.6113  0.5009 -0.6385
  992MOL0     C30864   2.827   0.749   3.938  0.1526 -0.3303 -0.1474
  992MOL0     C30865   2.961   0.783   3.924 -0.5759 -0.1201 -0.1742
  992MOL0     C30866   3.369   0.956   3.899 -0.0716 -0.2114 -0.2169
  992MOL0     C30867   3.420   1.082   3.850  0.0934  0.1674 -0.0331
  992MOL0     C30868   3.558   1.076   3.795  1.0883 -0.3692  0.3866
  992MOL0     C30869   3.633   0.957   3.792 -0.4592 -1.7731  0.6056
  992MOL0     O30870   3.767   0.953   3.751 -0.1028  0.7196 -0.4549
  992MOL0     C30871   3.821   1.051   3.650  0.4545  0.7106  0.6353
  992MOL0     C30872   3.958   1.029   3.593 -0.9411  0.3949  0.0483
  992MOL0     C30873   4.055   1.025   3.702 -0.1746 -0.3478  0.6481
  992MOL0     C30874   4.199   1.059   3.654 -0.4424  0.5395 -0.2185
  992MOL0     C30875   4.293   1.067   3.764 -1.1553  0.9349 -0.3513
  992MOL0     C30876   4.383   1.064   3.856 -0.2462  0.5771 -0.3364
  992MOL0     C30877   3.581   0.849   3.853  0.7479 -0.4007 -0.0960
  992MOL0     C30878   3.448   0.839   3.904 -0.6818 -0.3481  0.0664
  992MOL0     H30879   3.060   0.897   4.227  0.1233  2.3905 -0.6944
  992MOL0     H30880   2.809   0.891   4.248  0.1878 -1.7400  0.9004
  992MOL0     H30881   2.571   0.637   3.991 -2.3408 -0.7491 -2.0429
  992MOL0     H30882   2.551   0.792   3.907 -0.7258 -0.7978  0.4537
  992MOL0     H30883   2.399   0.855   4.096  1.5229  0.2903  0.4173
  992MOL0     H30884   2.422   0.689   4.153  0.3788 -0.5178  0.5348
  992MOL0     H30885   2.313   0.756   3.882  2.5112 -1.2694 -1.2787
  992MOL0     H30886   2.209   0.705   4.028 -0.3461 -3.4982  0.7254
  992MOL0     H30887   2.421   0.528   3.907 -0.2626 -1.3921 -1.7943
  992MOL0     H30888   2.317   0.497   4.031 -4.3508 -3.7545 -1.2516
  992MOL0     H30889   2.240   0.570   3.730  4.3346  0.4698 -1.0642
  992MOL0     H30890   2.127   0.535   3.853  0.7486  2.3206 -1.4317
  992MOL0     H30891   2.330   0.335   3.870 -1.1730 -2.0058 -0.2886
  992MOL0     H30892   2.314   0.359   3.698 -1.2868  2.1504 -1.5002
  992MOL0     H30893   2.159   0.194   3.770  0.3297  0.6123 -1.2236
  992MOL0     H30894   2.090   0.291   3.897 -1.8901 -1.5017 -1.1732
  992MOL0     H30895   2.041   0.336   3.591  0.9200  1.4173  0.0562
  992MOL0     H30896   1.999   0.452   3.716  1.7752  1.3801 -4.5570
  992MOL0     H30897   1.741   0.426   3.684  0.3281  0.5299  1.0330
  992MOL0     H30898   1.514   0.114   3.632 -0.8043  0.5384  0.9521
  992MOL0     H30899   1.523   0.275   3.555 -1.4952  0.6229 -0.2500
  992MOL0     H30900   1.375   0.309   3.718 -0.1313  1.3066 -0.3194
  992MOL0     H30901   1.511   0.366   3.811  0.6997  0.7040 -2.5692
  992MOL0     H30902   1.433   0.076   3.833  0.2862  0.8521 -2.4434
  992MOL0     H30903   1.539   0.179   3.940  0.4696  0.3057 -0.6914
  992MOL0     H30904   1.319   0.156   4.032 -1.8641 -0.9955 -1.3979
  992MOL0     H30905   1.251   0.227   3.896 -0.3226 -0.5317  0.9057
  992MOL0     H30906   1.377   0.591   4.093  0.9420  0.9588  2.0120
  992MOL0     H30907   1.220   0.705   4.236  1.2011 -0.6528  2.1191
  992MOL0     H30908   0.815   0.771   4.317  0.9016  1.8161 -0.8534
  992MOL0     H30909   0.615   0.901   4.411  0.2096 -0.5887 -1.1771
  992MOL0     H30910   0.421   0.960   4.502  0.8041 -4.1275 -0.8944
  992MOL0     H30911   0.531   1.015   4.633 -1.2171 -0.3547  0.7586
  992MOL0     H30912   0.338   0.980   4.786 -1.0974  2.2333  0.5777
  992MOL0     H30913   0.250   0.904   4.647 -1.5872  1.3900 -1.7723
  992MOL0     H30914   0.255   1.101   4.521  0.0687 -0.4738 -1.6604
  992MOL0     H30915   0.352   1.189   4.638 -0.1000 -1.2028 -1.9173
  992MOL0     H30916   0.070   1.084   4.692 -1.0779  1.9932 -0.0378
  992MOL0     H30917   0.159   1.180   4.808  3.0294  1.5880  0.8852
  992MOL0     H30918   0.093   1.269   4.525  0.2752 -1.6015 -0.0583
  992MOL0     H30919   0.175   1.374   4.637 -0.8223  1.3334 -0.1408
  992MOL0     H30920   0.004   1.372   4.797  1.7103 -4.0639  1.0465
  992MOL0     H30921  -0.099   1.269   4.712  0.1569 -0.0360  1.0028
  992MOL0     H30922  -0.055   1.561   4.679 -0.5929  0.8084 -1.1752
  992MOL0     H30923  -0.072   1.473   4.521 -0.5098 -1.0382 -0.0346
  992MOL0     H30924  -0.286   1.462   4.751 -0.7803  0.4912  1.0409
  992MOL0     H30925  -0.287   1.380   4.586  0.0510 -0.2508  2.2534
  992MOL0     H30926   0.583   0.637   4.735 -0.9285  0.9019  0.3395
  992MOL0     H30927   0.781   0.482   4.608 -1.6602  0.6945  2.0774
  992MOL0     H30928   1.008   0.333   4.306  0.0088  1.0602  0.5266
  992MOL0     H30929   1.153   0.234   4.131 -0.8516  0.4894 -2.8284
  992MOL0     H30930   2.761   0.712   3.860 -0.1070  0.6992 -0.4341
  992MOL0     H30931   2.985   0.756   3.822 -1.2906  1.8338 -0.9074
  992MOL0     H30932   3.370   1.178   3.844 -0.4972 -0.0264  1.4110
  992MOL0     H30933   3.595   1.162   3.741  1.8963 -0.6002  0.5639
  992MOL0     H30934   3.823   1.152   3.693 -0.0080  0.1997  1.9287
  992MOL0     H30935   3.746   1.053   3.570 -2.8492 -0.7988  3.4049
  992MOL0     H30936   3.963   0.940   3.530 -1.8857  2.8066 -3.7860
  992MOL0     H30937   3.974   1.115   3.527 -2.5460  0.3978 -0.4017
  992MOL0     H30938   4.059   0.931   3.758  1.4923  0.9484  2.8713
  992MOL0     H30939   4.034   1.105   3.773  2.8395  1.5709 -0.4247
  992MOL0     H30940   4.246   0.983   3.591  3.5857  1.6677  1.1118
  992MOL0     H30941   4.200   1.156   3.604  0.6145  0.4862 -0.3138
  992MOL0     H30942   4.455   1.050   3.935  0.2761  1.9213 -0.5530
  992MOL0     H30943   3.645   0.761   3.849 -0.1438 -1.2588  2.4798
  992MOL0     H30944   3.421   0.750   3.960  0.2582  1.7723  4.3033
  993MOL0     O30945   7.814  10.208   5.850  0.0769 -0.1487 -0.6881
  993MOL0     C30946   7.891  10.268   5.925 -0.5141  0.8298  0.5375
  993MOL0     O30947   7.876  10.396   5.970 -0.4067 -0.2492 -0.8743
  993MOL0     C30948   7.779  10.483   5.913  0.3353 -0.1358 -0.0731
  993MOL0     C30949   7.773  10.517   5.787 -0.3952  0.3115  0.8070
  993MOL0     C30950   7.671  10.603   5.743  0.8048 -0.2254  0.4858
  993MOL0     C30951   7.572  10.654   5.833  1.0021  0.1185  0.1863
  993MOL0     O30952   7.469  10.731   5.781  0.0701 -0.4283  0.6080
  993MOL0     C30953   7.359  10.775   5.860 -0.0240  0.4530 -0.2147
  993MOL0     C30954   7.250  10.835   5.776 -0.5208 -0.5221 -0.5447
  993MOL0     C30955   7.144  10.896   5.881  0.3775 -0.1187  1.2879
  993MOL0     C30956   7.010  10.935   5.800  0.4273  0.2889  0.0277
  993MOL0     C30957   6.876  10.928   5.879 -0.2217  0.6244  0.5429
  993MOL0     C30958   6.843  10.786   5.902 -0.1797  0.2458 -0.0258
  993MOL0     C30959   6.728  10.774   5.996 -0.9264  0.0236  0.3669
  993MOL0     C30960   6.695  10.628   6.009  0.0313  0.4951 -0.0942
  993MOL0     N30961   6.578  10.602   6.086  1.6453 -0.8865 -0.1907
  993MOL0     C30962   6.533  10.662   6.205 -0.0378  0.1209  0.3463
  993MOL0     C30963   6.414  10.607   6.211  0.2408  0.8000 -0.5014
  993MOL0     C30964   6.318  10.646   6.325  0.5418  0.1581  0.0346
  993MOL0     C30965   6.253  10.778   6.298  1.6976 -0.1960 -0.0403
  993MOL0     C30966   6.230  10.815   6.153  0.3166 -0.6876 -0.1173
  993MOL0     C30967   6.120  10.727   6.090 -0.5875 -0.1710  0.5790
  993MOL0     O30968   5.997  10.776   6.153 -0.2552  0.2696  0.3873
  993MOL0     C30969   5.878  10.694   6.166 -1.1060 -0.6169  0.6665
  993MOL0     C30970   5.772  10.750   6.237 -0.5053 -0.0233  0.3217
  993MOL0     C30971   5.647  10.674   6.246  0.7158  0.4693 -0.1853
  993MOL0     C30972   5.632  10.552   6.179  1.3348  0.3235  0.2413
  993MOL0     C30973   5.506  10.470   6.196 -0.0471  0.4198  0.7936
  993MOL0     O30974   5.493  10.369   6.103  0.4157 -0.4907 -0.2960
  993MOL0     C30975   5.388  10.284   6.119  0.5790 -0.3845  0.5226
  993MOL0     C30976   5.254  10.329   6.106 -0.1382 -0.5877 -0.5873
  993MOL0     C30977   5.143  10.251   6.134 -0.4234  0.3571  0.9389
  993MOL0     C30978   5.166  10.127   6.187 -0.9227 -0.5663 -0.2870
  993MOL0     O30979   5.059  10.046   6.210  0.0959  0.4521 -0.0682
  993MOL0     C30980   5.020  10.018   6.338  0.0973  0.6611 -0.1034
  993MOL0     C30981   4.915  10.123   6.378  0.2078 -0.5561  0.6921
  993MOL0     C30982   4.769  10.104   6.324 -0.5859 -0.8330  0.3973
  993MOL0     C30983   4.677  10.202   6.394  0.5002 -0.5097 -0.0858
  993MOL0     C30984   4.581  10.261   6.289 -0.3291  0.5489  0.1289
  993MOL0     C30985   4.479  10.145   6.258  0.4475 -0.4831  0.1268
  993MOL0     C30986   4.386  10.197   6.142  0.3966 -0.6798  0.2606
  993MOL0     C30987   4.336  10.073   6.061 -0.7050 -0.3302 -0.1814
  993MOL0    Cl30988   4.275  10.134   5.909 -0.1549  0.3098  0.0750
  993MOL0     C30989   5.295  10.071   6.200 -0.5859  0.0847  0.1367
  993MOL0     C30990   5.406  10.153   6.164 -0.0638 -0.4855  0.5051
  993MOL0     O30991   5.425  10.485   6.292 -1.1843  0.4342 -0.3521
  993MOL0     C30992   5.740  10.503   6.110  0.1995  1.0399  0.3432
  993MOL0     C30993   5.865  10.574   6.099  0.0664 -0.6601 -0.4403
  993MOL0     N30994   6.384  10.523   6.114 -0.3426  0.5407  0.2980
  993MOL0     N30995   6.473  10.525   6.026  0.4031  0.6317  0.2132
  993MOL0     C30996   7.586  10.624   5.968 -0.1816 -0.4823  0.2445
  993MOL0     C30997   7.685  10.536   6.008  0.2588  0.3437  0.9555
  993MOL0     C30998   8.020  10.206   5.952 -0.2996  0.1827  1.7411
  993MOL0     C30999   8.062  10.088   5.884  0.9088  0.3103  0.5074
  993MOL0     C31000   8.175  10.016   5.908 -0.4352 -0.0402 -0.5318
  993MOL0     C31001   8.255  10.061   6.016  0.3226  0.1888  0.2550
  993MOL0     O31002   8.351   9.974   6.047 -0.6765  0.5284 -0.2416
  993MOL0     C31003   8.398   9.963   6.192  0.7680 -0.3082 -0.0112
  993MOL0     C31004   8.487   9.846   6.217  0.4659 -0.2976 -0.7000
  993MOL0     C31005   8.411   9.722   6.177 -0.6110  0.6125 -0.4170
  993MOL0     C31006   8.278   9.696   6.250 -0.1601  0.2123 -0.5606
  993MOL0     C31007   8.230   9.555   6.230 -0.4032  0.6432  0.6523
  993MOL0     C31008   8.195   9.436   6.211 -0.0080  0.0455 -0.2239
  993MOL0     C31009   8.213  10.173   6.092 -0.1084 -0.4096 -0.0165
  993MOL0     C31010   8.092  10.236   6.064  0.0665 -0.7304  0.3053
  993MOL0     H31011   7.860  10.485   5.731 -0.0880 -0.5071  1.7259
  993MOL0     H31012   7.655  10.615   5.636 -2.9616 -1.8201  0.7354
  993MOL0     H31013   7.396  10.840   5.940 -0.9034 -1.4393  1.8174
  993MOL0     H31014   7.312  10.691   5.912 -0.2130  0.8819  0.3226
  993MOL0     H31015   7.214  10.749   5.720  1.9441 -0.6356 -2.1100
  993MOL0     H31016   7.289  10.914   5.711  1.2950  0.2174  1.3203
  993MOL0     H31017   7.193  10.985   5.922  0.1469  0.8708 -0.5031
  993MOL0     H31018   7.126  10.827   5.965 -1.3111  1.3366  2.1903
  993MOL0     H31019   7.019  11.029   5.744 -0.7796 -0.5116 -1.6198
  993MOL0     H31020   6.994  10.862   5.720 -1.1263  1.1966 -0.5392
  993MOL0     H31021   6.809  10.988   5.817  2.1127  3.2413  0.3539
  993MOL0     H31022   6.890  10.988   5.969  2.5822  1.9009 -0.6181
  993MOL0     H31023   6.930  10.738   5.948  1.1689 -0.5049 -3.1109
  993MOL0     H31024   6.827  10.732   5.808  3.8588 -1.3641  0.0246
  993MOL0     H31025   6.739  10.809   6.099  0.7760 -1.3998  0.7153
  993MOL0     H31026   6.637  10.817   5.953  0.0058 -0.0504 -1.7800
  993MOL0     H31027   6.771  10.562   6.053 -0.2454 -0.7603 -1.4064
  993MOL0     H31028   6.682  10.599   5.904  2.7774  0.8169 -0.6175
  993MOL0     H31029   6.574  10.727   6.281 -3.1883  1.1949  1.2597
  993MOL0     H31030   6.375  10.658   6.418  1.8986  1.5428 -0.9109
  993MOL0     H31031   6.243  10.572   6.352 -0.0841  0.4704 -0.7974
  993MOL0     H31032   6.318  10.858   6.335  1.0434  1.0978 -1.5788
  993MOL0     H31033   6.161  10.790   6.355  0.5302 -1.8638 -1.4915
  993MOL0     H31034   6.197  10.918   6.141  0.0274 -0.8652 -0.9317
  993MOL0     H31035   6.321  10.804   6.094 -2.4224 -3.8036 -4.3608
  993MOL0     H31036   6.139  10.622   6.112 -0.8745 -0.2010  0.6937
  993MOL0     H31037   6.120  10.750   5.984 -5.2886  0.6035  0.5300
  993MOL0     H31038   5.801  10.842   6.285  1.6092 -0.4274 -0.0721
  993MOL0     H31039   5.573  10.722   6.309  0.8215  4.2408 -2.6077
  993MOL0     H31040   5.243  10.435   6.087 -2.1533 -0.7274 -0.4321
  993MOL0     H31041   5.048  10.304   6.136 -0.4988  0.2008  2.1197
  993MOL0     H31042   5.104  10.010   6.407  1.0267 -2.0971 -1.4082
  993MOL0     H31043   4.972   9.920   6.334  1.0685  0.1416  0.6725
  993MOL0     H31044   4.948  10.226   6.362 -1.9220  0.2796  1.2128
  993MOL0     H31045   4.911  10.117   6.487  1.4614  0.8010  0.8463
  993MOL0     H31046   4.728  10.004   6.341 -1.4078 -0.4270  0.8977
  993MOL0     H31047   4.772  10.121   6.216 -0.7302 -0.7265  0.4096
  993MOL0     H31048   4.635  10.139   6.473 -0.0357 -1.5419 -1.1692
  993MOL0     H31049   4.722  10.288   6.444 -0.2188 -0.2272  0.0793
  993MOL0     H31050   4.629  10.310   6.204 -2.2155  1.1494 -0.6451
  993MOL0     H31051   4.514  10.336   6.333  1.7951  0.6277  3.6644
  993MOL0     H31052   4.425  10.109   6.346 -0.5378  0.5037 -0.0512
  993MOL0     H31053   4.530  10.056   6.220 -0.7833 -0.8373 -0.7272
  993MOL0     H31054   4.302  10.244   6.193 -0.2750  0.2738 -1.6428
  993MOL0     H31055   4.438  10.274   6.084 -0.4821 -0.5511 -0.3811
  993MOL0     H31056   4.250  10.033   6.116  0.1450 -0.5826  1.0161
  993MOL0     H31057   4.414  10.000   6.039 -0.3434 -0.3694  1.1448
  993MOL0     H31058   5.309   9.975   6.248  0.5405 -0.1139 -0.5528
  993MOL0     H31059   5.505  10.112   6.181 -0.4602 -0.6959  2.5848
  993MOL0     H31060   5.744  10.411   6.052  1.5230  0.5782  1.1149
  993MOL0     H31061   5.944  10.540   6.033 -0.6968 -0.4473 -1.4790
  993MOL0     H31062   7.512  10.661   6.038 -1.3854  1.4053 -1.9198
  993MOL0     H31063   7.689  10.494   6.107 -0.5648  1.0876  1.3191
  993MOL0     H31064   8.001  10.048   5.803 -1.0514  0.8683  1.6391
  993MOL0     H31065   8.193   9.925   5.853  1.7052 -0.1484  0.2690
  993MOL0     H31066   8.317   9.957   6.266  2.4926 -1.1054  1.9047
  993MOL0     H31067   8.459  10.050   6.218  3.1367 -1.6583 -0.7279
  993MOL0     H31068   8.577   9.852   6.155 -1.7607  0.5388 -4.1335
  993MOL0     H31069   8.511   9.840   6.323 -2.4702 -2.8359 -0.0262
  993MOL0     H31070   8.480   9.643   6.208 -0.5390  0.6947 -0.3680
  993MOL0     H31071   8.406   9.711   6.068  1.6056  0.3665 -0.5514
  993MOL0     H31072   8.276   9.707   6.359  1.4694 -0.6869 -0.4100
  993MOL0     H31073   8.199   9.765   6.219 -1.4157 -1.6668 -1.7794
  993MOL0     H31074   8.183   9.330   6.215  1.1745 -0.1110 -0.3084
  993MOL0     H31075   8.270  10.185   6.183  1.6446 -1.8926 -0.8646
  993MOL0     H31076   8.056  10.316   6.128  1.6135  0.2814 -0.0293
  994MOL0     O31077   4.236   1.630   4.149  0.1881  0.5552  0.2527
  994MOL0     C31078   4.267   1.651   4.261  0.2809 -1.0936  0.4832
  994MOL0     O31079   4.388   1.694   4.295 -0.9101 -1.1955 -0.6125
  994MOL0     C31080   4.496   1.705   4.211 -0.2204 -0.2817 -0.1251
  994MOL0     C31081   4.614   1.732   4.274  0.6172 -0.4528 -0.3701
  994MOL0     C31082   4.731   1.764   4.208  0.4569  0.6081  0.4682
  994MOL0     C31083   4.739   1.775   4.070 -0.6865  0.0731 -0.4324
  994MOL0     O31084   4.851   1.801   3.994  0.5518  0.1188  0.0364
  994MOL0     C31085   4.972   1.819   4.068  0.0147 -0.2502  0.5721
  994MOL0     C31086   5.036   1.680   4.093 -0.6843 -0.0710  0.0324
  994MOL0     C31087   5.092   1.610   3.968  0.7642  0.5905  0.4441
  994MOL0     C31088   5.224   1.662   3.913  0.4056 -0.0171  0.2867
  994MOL0     C31089   5.275   1.576   3.796  0.5056  0.2863 -0.3014
  994MOL0     C31090   5.306   1.436   3.832 -0.7664 -0.1995 -0.5387
  994MOL0     C31091   5.329   1.361   3.707 -0.9052  0.1286  0.1309
  994MOL0     C31092   5.407   1.234   3.715 -0.5592  0.0036 -0.4964
  994MOL0     N31093   5.347   1.122   3.784 -0.0634  0.0976 -0.0241
  994MOL0     C31094   5.279   1.021   3.731  0.7409  0.8523  0.0385
  994MOL0     C31095   5.254   0.929   3.831  0.1945  0.1879  0.0531
  994MOL0     C31096   5.173   0.810   3.829  0.0840 -0.9358  0.9893
  994MOL0     C31097   5.214   0.710   3.935 -0.0318  0.2788 -0.2853
  994MOL0     C31098   5.115   0.591   3.934  0.2538  0.0395  0.0233
  994MOL0     C31099   5.171   0.486   4.027  0.4487 -0.1199  0.1624
  994MOL0     O31100   5.077   0.385   4.056  0.0225  0.5785  0.0473
  994MOL0     C31101   4.959   0.425   4.104  0.5425  0.6179 -0.9772
  994MOL0     C31102   4.848   0.392   4.038  0.5593 -0.0191  0.2855
  994MOL0     C31103   4.718   0.414   4.095 -0.2201 -0.8363 -0.3912
  994MOL0     C31104   4.717   0.454   4.229 -0.0856  0.4532  0.3142
  994MOL0     C31105   4.589   0.458   4.311 -0.1626  0.1056 -0.2956
  994MOL0     O31106   4.588   0.483   4.446  0.1926  0.3136  0.0179
  994MOL0     C31107   4.485   0.423   4.521 -0.9073 -0.7291  0.5760
  994MOL0     C31108   4.446   0.287   4.508  0.0525 -0.0792  0.0680
  994MOL0     C31109   4.369   0.231   4.613  0.0504 -0.1453 -0.9540
  994MOL0     C31110   4.349   0.311   4.734 -0.0429 -0.1936  1.0943
  994MOL0     O31111   4.277   0.269   4.849 -0.2734 -0.3321 -0.4135
  994MOL0     C31112   4.243   0.130   4.849 -0.7405 -0.0420 -0.8076
  994MOL0     C31113   4.195   0.100   4.989  0.2353  0.4434 -0.5760
  994MOL0     C31114   4.304   0.104   5.096 -0.1690  0.2398 -0.5152
  994MOL0     C31115   4.346   0.245   5.150 -0.1396 -0.1127  0.2252
  994MOL0     C31116   4.229   0.333   5.204 -0.0625 -0.6584  0.1850
  994MOL0     C31117   4.262   0.461   5.280  0.0536  0.4062 -0.5343
  994MOL0     C31118   4.136   0.539   5.320  0.5376 -0.1102 -0.2682
  994MOL0     C31119   4.183   0.645   5.424  0.3970  0.1220  0.2819
  994MOL0    Cl31120   4.224   0.573   5.586  0.3371 -0.0611  0.0211
  994MOL0     C31121   4.398   0.444   4.749  1.2459 -1.1237 -0.2725
  994MOL0     C31122   4.464   0.503   4.638  0.4627  0.5706 -0.7055
  994MOL0     O31123   4.492   0.407   4.247  0.0182 -0.5320  0.9603
  994MOL0     C31124   4.837   0.495   4.296 -0.4334  0.6035 -0.3928
  994MOL0     C31125   4.959   0.471   4.238 -0.5148 -0.5135 -1.0583
  994MOL0     N31126   5.321   0.966   3.940  0.6527  0.1828 -0.4261
  994MOL0     N31127   5.373   1.078   3.911  0.2528 -0.3545 -0.4090
  994MOL0     C31128   4.610   1.758   4.011  0.1823 -0.4317 -0.5266
  994MOL0     C31129   4.499   1.706   4.076  0.7923 -0.2972  0.5217
  994MOL0     C31130   4.167   1.653   4.365  0.2922  0.1826  0.3526
  994MOL0     C31131   4.205   1.637   4.498  0.0253  0.0261  0.1559
  994MOL0     C31132   4.119   1.641   4.602  1.2422  0.1525 -0.2505
  994MOL0     C31133   3.979   1.675   4.576  0.6578  0.2587 -0.1159
  994MOL0     O31134   3.893   1.694   4.673 -0.4281  0.6582 -0.3173
  994MOL0     C31135   3.842   1.588   4.756  0.1584 -0.2009  0.2195
  994MOL0     C31136   3.702   1.553   4.735  0.6591 -0.2607  0.0721
  994MOL0     C31137   3.619   1.677   4.700  0.0242 -0.2114  0.3691
  994MOL0     C31138   3.468   1.658   4.699  0.0319 -0.0673  0.1270
  994MOL0     C31139   3.408   1.776   4.638 -0.2369  1.3430  0.3729
  994MOL0     C31140   3.352   1.871   4.589 -0.3408  0.5180  0.1772
  994MOL0     C31141   3.946   1.699   4.443 -0.0502 -0.5046 -0.6916
  994MOL0     C31142   4.032   1.694   4.342 -0.1603 -1.0779  0.4420
  994MOL0     H31143   4.604   1.712   4.380 -0.6356 -1.6294 -0.6722
  994MOL0     H31144   4.817   1.771   4.274 -0.7292  1.5250  1.9770
  994MOL0     H31145   4.962   1.880   4.158 -1.5159  3.2272 -1.7322
  994MOL0     H31146   5.035   1.881   4.004 -3.8664  1.3892 -2.0742
  994MOL0     H31147   4.966   1.605   4.132 -0.3776 -1.1582 -1.4131
  994MOL0     H31148   5.119   1.695   4.162  1.1737  2.3482 -2.5089
  994MOL0     H31149   5.020   1.621   3.887 -1.8010  0.0819  2.5065
  994MOL0     H31150   5.094   1.503   3.990 -2.0891  0.2282 -0.6430
  994MOL0     H31151   5.215   1.766   3.881 -1.3335  0.8470  3.2599
  994MOL0     H31152   5.298   1.668   3.993 -0.7095 -0.1003  1.3521
  994MOL0     H31153   5.370   1.621   3.768  1.7191 -0.5410  2.2306
  994MOL0     H31154   5.202   1.593   3.716 -3.2093  0.9965  2.9042
  994MOL0     H31155   5.223   1.389   3.886 -1.2211 -0.0364 -1.0838
  994MOL0     H31156   5.397   1.437   3.893 -0.4817  1.5727 -0.9508
  994MOL0     H31157   5.231   1.343   3.661 -1.9260 -1.2049  2.5984
  994MOL0     H31158   5.366   1.427   3.629 -1.3933 -0.5429 -0.6903
  994MOL0     H31159   5.496   1.262   3.773 -1.4479  1.4751  0.2403
  994MOL0     H31160   5.439   1.203   3.615 -2.3639 -0.7655 -0.8745
  994MOL0     H31161   5.240   1.008   3.630  1.9997 -0.1624 -0.3515
  994MOL0     H31162   5.190   0.753   3.737  1.9198 -0.7139  1.1451
  994MOL0     H31163   5.070   0.844   3.838  1.1635  2.7045  1.0887
  994MOL0     H31164   5.222   0.749   4.037  1.5769 -0.3669 -0.1251
  994MOL0     H31165   5.310   0.662   3.910  0.0371 -0.0092  0.5070
  994MOL0     H31166   5.018   0.629   3.966 -1.8506 -0.9925 -4.3665
  994MOL0     H31167   5.100   0.558   3.831 -0.3312 -2.9230  0.9643
  994MOL0     H31168   5.195   0.533   4.123 -2.1580 -0.9879  1.3672
  994MOL0     H31169   5.261   0.436   3.991 -1.0593 -1.1167 -2.4588
  994MOL0     H31170   4.843   0.354   3.936 -3.8151  0.0660  0.2714
  994MOL0     H31171   4.624   0.394   4.045  0.3733 -0.3691 -1.7269
  994MOL0     H31172   4.475   0.233   4.418  1.4340  1.4453 -0.4512
  994MOL0     H31173   4.336   0.129   4.598 -2.2436  0.8504 -3.2693
  994MOL0     H31174   4.326   0.063   4.825 -1.0348 -1.4849  1.7861
  994MOL0     H31175   4.159   0.118   4.780 -0.0659  0.2588 -1.7018
  994MOL0     H31176   4.157  -0.002   4.978  0.5868  0.2230  0.2242
  994MOL0     H31177   4.113   0.167   5.017 -1.9051 -3.3077  3.2100
  994MOL0     H31178   4.389   0.049   5.055 -0.7597  0.3568 -1.9600
  994MOL0     H31179   4.259   0.060   5.185  1.7454  1.3775  1.0935
  994MOL0     H31180   4.416   0.235   5.234 -0.9719  0.3177  0.9857
  994MOL0     H31181   4.397   0.294   5.067 -0.4878 -0.9938 -0.5160
  994MOL0     H31182   4.157   0.273   5.261 -3.3256  1.3433 -1.5152
  994MOL0     H31183   4.173   0.368   5.117  0.6554  2.6444  0.9098
  994MOL0     H31184   4.322   0.531   5.221  1.5324 -0.0522  0.3782
  994MOL0     H31185   4.324   0.431   5.365  1.2209  2.3180 -0.6617
  994MOL0     H31186   4.098   0.585   5.228 -0.6292 -1.0505 -0.2820
  994MOL0     H31187   4.069   0.463   5.361  0.2033  1.4080  2.1825
  994MOL0     H31188   4.111   0.721   5.455 -0.1559  0.5829 -1.9971
  994MOL0     H31189   4.276   0.691   5.389  1.4215 -1.7135  0.4585
  994MOL0     H31190   4.376   0.502   4.837  0.4716  0.1021 -1.2341
  994MOL0     H31191   4.499   0.605   4.650 -1.6611  1.0808  2.1498
  994MOL0     H31192   4.845   0.518   4.402  0.6944 -1.1612 -0.0497
  994MOL0     H31193   5.045   0.483   4.302 -1.8039 -1.3734  0.9545
  994MOL0     H31194   4.609   1.781   3.905 -1.1950 -0.3564 -0.5159
  994MOL0     H31195   4.416   1.683   4.009  0.8786  1.0237 -0.0729
  994MOL0     H31196   4.308   1.606   4.511  0.0616 -1.3737 -2.5793
  994MOL0     H31197   4.143   1.620   4.706 -0.3513  0.9419  0.3072
  994MOL0     H31198   3.852   1.622   4.859 -0.9674 -0.7362  0.5194
  994MOL0     H31199   3.909   1.501   4.755 -0.6010 -0.8354  1.6920
  994MOL0     H31200   3.690   1.487   4.649  1.4483 -0.5300  0.1661
  994MOL0     H31201   3.674   1.503   4.828  2.8432 -0.4705  0.6697
  994MOL0     H31202   3.646   1.705   4.598  0.4348  0.7578  0.7248
  994MOL0     H31203   3.647   1.757   4.769  0.7544 -0.2315  0.1066
  994MOL0     H31204   3.445   1.572   4.635  0.4315  0.5534 -0.8842
  994MOL0     H31205   3.429   1.634   4.799  0.6879 -0.8594  0.1995
  994MOL0     H31206   3.306   1.958   4.546  0.7374 -0.3515 -2.9847
  994MOL0     H31207   3.840   1.724   4.439  0.6039  3.0745  0.6318
  994MOL0     H31208   3.993   1.707   4.241 -0.8031 -1.8371  0.5775
  995MOL0     O31209   6.557   6.400  10.293  0.6301  0.6828 -0.2515
  995MOL0     C31210   6.601   6.287  10.291  0.4421  0.6717  0.1290
  995MOL0     O31211   6.530   6.174  10.321  0.0024 -0.2796 -0.5350
  995MOL0     C31212   6.393   6.177  10.324  0.8103 -1.0399  0.8993
  995MOL0     C31213   6.320   6.201  10.203  0.7007 -0.3129  0.1122
  995MOL0     C31214   6.179   6.195  10.205 -0.5992 -0.5085  0.6582
  995MOL0     C31215   6.111   6.175  10.324  0.0591  1.1938  0.4924
  995MOL0     O31216   5.976   6.183  10.321 -0.1790 -0.3219 -0.0530
  995MOL0     C31217   5.902   6.252  10.429 -0.8128 -0.1293 -0.0059
  995MOL0     C31218   5.752   6.227  10.419  0.3568 -0.0950 -0.3056
  995MOL0     C31219   5.714   6.082  10.484 -0.5854 -0.9163  0.6315
  995MOL0     C31220   5.562   6.054  10.489 -0.0489 -0.2676 -0.1516
  995MOL0     C31221   5.528   5.925  10.555 -0.6749 -0.3092 -0.2318
  995MOL0     C31222   5.369   5.892  10.568 -0.2541  0.2067  0.3489
  995MOL0     C31223   5.340   5.744  10.612 -0.4587 -0.8827 -0.0590
  995MOL0     C31224   5.189   5.714  10.631 -0.5214  0.5190 -0.4243
  995MOL0     N31225   5.130   5.710  10.493 -0.2854 -0.1543  0.8314
  995MOL0     C31226   5.145   5.612  10.399  0.1632 -0.3748  0.3144
  995MOL0     C31227   5.074   5.670  10.291 -0.1132  0.3284  0.4591
  995MOL0     C31228   5.074   5.605  10.155  0.7831 -0.3181 -0.7406
  995MOL0     C31229   4.969   5.478  10.132 -0.0973 -0.2088 -0.0796
  995MOL0     C31230   4.824   5.532  10.157  0.1121  0.0670 -0.9496
  995MOL0     C31231   4.728   5.509  10.043  0.3917  0.1878 -0.0242
  995MOL0     O31232   4.697   5.373  10.022  0.2123 -0.4258 -0.2919
  995MOL0     C31233   4.588   5.331   9.955 -0.3188  0.8349 -0.2814
  995MOL0     C31234   4.549   5.390   9.839 -0.0054 -0.0959  0.6929
  995MOL0     C31235   4.432   5.352   9.777  1.1181  0.8131 -0.9482
  995MOL0     C31236   4.349   5.253   9.838 -0.6659 -1.0725  0.9897
  995MOL0     C31237   4.226   5.204   9.767  0.3762 -0.7637  0.1938
  995MOL0     O31238   4.170   5.093   9.828  0.2150  0.2552 -0.1743
  995MOL0     C31239   4.048   5.037   9.790 -0.1616  0.5794 -0.1235
  995MOL0     C31240   3.949   5.114   9.724 -0.4949  0.5840  0.6491
  995MOL0     C31241   3.814   5.068   9.707 -0.1026 -1.4193 -0.9784
  995MOL0     C31242   3.779   4.941   9.744 -0.3312 -0.2523  0.1933
  995MOL0     O31243   3.655   4.916   9.724  0.5735 -0.0626 -0.6917
  995MOL0     C31244   3.623   4.775   9.751  0.5237 -0.0435  0.5730
  995MOL0     C31245   3.475   4.747   9.730  0.5987  0.4522  0.1054
  995MOL0     C31246   3.448   4.596   9.715  0.3473  0.5100  0.1403
  995MOL0     C31247   3.306   4.584   9.671  0.0955 -0.3378 -0.3243
  995MOL0     C31248   3.261   4.432   9.664 -0.2847  0.1338 -0.1482
  995MOL0     C31249   3.115   4.428   9.625  0.8243 -0.4588  0.8140
  995MOL0     C31250   3.066   4.282   9.584  0.1841  0.2194  1.0122
  995MOL0     C31251   2.916   4.279   9.552  0.3147 -0.9241  0.7769
  995MOL0    Cl31252   2.869   4.333   9.390  0.4797 -0.3599  0.1205
  995MOL0     C31253   3.877   4.854   9.794  0.6693  0.7819 -0.1471
  995MOL0     C31254   4.009   4.900   9.822 -0.3448  0.5070 -0.2082
  995MOL0     O31255   4.185   5.266   9.668 -0.3081 -0.4942 -0.1142
  995MOL0     C31256   4.397   5.187   9.950 -1.2089  0.5278 -0.9536
  995MOL0     C31257   4.525   5.221  10.006  0.2153  0.1760 -0.1109
  995MOL0     N31258   5.007   5.782  10.325  1.3270 -0.4904  0.0600
  995MOL0     N31259   5.038   5.802  10.447 -0.7627  0.9996  0.5666
  995MOL0     C31260   6.187   6.136  10.443 -0.6720 -0.7039  0.5290
  995MOL0     C31261   6.326   6.138  10.435 -0.1408 -0.0192 -1.2368
  995MOL0     C31262   6.734   6.261  10.252  0.1223  0.7003  0.2002
  995MOL0     C31263   6.796   6.138  10.232 -0.3427  0.7008 -1.5007
  995MOL0     C31264   6.932   6.121  10.202 -0.3824 -0.7298  0.1593
  995MOL0     C31265   7.018   6.238  10.186  0.5367 -0.5914 -0.2398
  995MOL0     O31266   7.145   6.232  10.133  0.2254  0.0539  0.7126
  995MOL0     C31267   7.239   6.338  10.175  0.1025 -1.1918  0.0766
  995MOL0     C31268   7.379   6.278  10.185 -0.2255 -0.1537 -0.0952
  995MOL0     C31269   7.434   6.247  10.034  0.3420 -0.4159  0.2069
  995MOL0     C31270   7.591   6.228  10.028  0.2973  0.1944 -0.0667
  995MOL0     C31271   7.672   6.349  10.024  0.3254 -0.3261  0.4544
  995MOL0     C31272   7.731   6.451  10.033 -0.1344  0.6601  0.2727
  995MOL0     C31273   6.951   6.362  10.201 -0.5185 -0.3553 -0.4772
  995MOL0     C31274   6.813   6.371  10.236 -0.5252  0.9203 -0.1157
  995MOL0     H31275   6.375   6.228  10.113 -1.4178  1.9749 -0.6221
  995MOL0     H31276   6.114   6.205  10.118 -1.0284 -0.4639  0.9821
  995MOL0     H31277   5.917   6.357  10.405  2.3852 -1.2153 -3.9583
  995MOL0     H31278   5.949   6.219  10.522 -1.9768 -2.9555 -0.2998
  995MOL0     H31279   5.725   6.215  10.314 -0.1487 -3.3725  0.0854
  995MOL0     H31280   5.698   6.309  10.467 -0.5552  0.2040 -1.8109
  995MOL0     H31281   5.757   6.081  10.584 -3.0226  0.4579  1.7829
  995MOL0     H31282   5.760   6.002  10.425  1.3684  1.1770 -0.8510
  995MOL0     H31283   5.513   6.136  10.542  1.0588 -0.2774  0.9314
  995MOL0     H31284   5.511   6.045  10.392 -2.0312  2.2354  0.5510
  995MOL0     H31285   5.571   5.929  10.655 -4.0113  0.6014  1.2891
  995MOL0     H31286   5.575   5.843  10.500  0.2502  0.1227 -0.1065
  995MOL0     H31287   5.320   5.913  10.473 -0.5806  0.1448  0.5037
  995MOL0     H31288   5.328   5.955  10.648 -2.4465 -0.5125 -0.1473
  995MOL0     H31289   5.371   5.676  10.533 -1.5338 -0.5938 -0.7406
  995MOL0     H31290   5.386   5.725  10.710 -0.9690  1.8445  0.8176
  995MOL0     H31291   5.140   5.785  10.700 -0.9766 -0.6023  0.4352
  995MOL0     H31292   5.173   5.612  10.668  1.0933  1.5261  3.5900
  995MOL0     H31293   5.211   5.526  10.411 -0.1443 -0.7200 -0.3750
  995MOL0     H31294   5.178   5.573  10.146  0.9814 -0.5974  1.8958
  995MOL0     H31295   5.050   5.682  10.081  1.2384  1.3436  0.7855
  995MOL0     H31296   4.979   5.405  10.212 -1.3240 -0.7713 -0.4215
  995MOL0     H31297   4.984   5.435  10.032  2.0598  1.8563 -0.7640
  995MOL0     H31298   4.785   5.489  10.250  0.4488 -1.8091 -1.6337
  995MOL0     H31299   4.835   5.639  10.174 -0.7054 -0.3516  3.4828
  995MOL0     H31300   4.776   5.559   9.959 -0.6284  0.4838 -0.4495
  995MOL0     H31301   4.636   5.565  10.063  0.7637  0.9272 -0.3559
  995MOL0     H31302   4.609   5.470   9.799 -2.9218  2.1667  0.5742
  995MOL0     H31303   4.412   5.404   9.683  2.1546  2.9431 -0.0635
  995MOL0     H31304   3.962   5.215   9.686  0.8854  1.2939  2.8663
  995MOL0     H31305   3.744   5.134   9.657  1.9470 -0.5396 -2.8593
  995MOL0     H31306   3.646   4.731   9.849 -1.9162 -1.7800  0.4531
  995MOL0     H31307   3.665   4.708   9.676  2.2686  2.1791 -0.5363
  995MOL0     H31308   3.450   4.811   9.645  0.6671 -2.5291 -2.3203
  995MOL0     H31309   3.415   4.777   9.816 -2.9566 -2.4019 -1.1190
  995MOL0     H31310   3.472   4.545   9.809  3.6970  0.6223 -0.5249
  995MOL0     H31311   3.517   4.559   9.638  0.0950  1.4647 -0.5543
  995MOL0     H31312   3.223   4.637   9.719 -1.0211  0.4221 -2.9050
  995MOL0     H31313   3.296   4.621   9.569 -0.9591 -0.0844 -0.1453
  995MOL0     H31314   3.277   4.384   9.761 -1.1482 -0.0319 -0.0802
  995MOL0     H31315   3.324   4.376   9.594  0.4236  0.7421 -0.0135
  995MOL0     H31316   3.091   4.502   9.548  1.8545 -0.2745  0.6606
  995MOL0     H31317   3.047   4.464   9.702 -3.0875 -0.3341 -2.3410
  995MOL0     H31318   3.114   4.253   9.490  1.7898  0.8299  1.6084
  995MOL0     H31319   3.091   4.217   9.667 -1.9441 -1.3024  0.5564
  995MOL0     H31320   2.859   4.342   9.621  0.8536 -0.3582  0.7096
  995MOL0     H31321   2.881   4.175   9.555 -1.3985 -0.5779 -2.6777
  995MOL0     H31322   3.858   4.748   9.810 -0.8696  0.9090 -0.9826
  995MOL0     H31323   4.066   4.826   9.878 -0.6739  0.3026 -0.1381
  995MOL0     H31324   4.338   5.110  10.000  0.5395  0.4742  1.2089
  995MOL0     H31325   4.561   5.174  10.097 -1.7074 -1.0492  0.0753
  995MOL0     H31326   6.142   6.123  10.541  1.8533 -0.9135  1.7366
  995MOL0     H31327   6.378   6.129  10.531 -0.5694 -2.4968 -1.1647
  995MOL0     H31328   6.747   6.042  10.251  0.8876 -0.0406 -1.9277
  995MOL0     H31329   6.962   6.018  10.183  0.5913 -1.0456  2.9414
  995MOL0     H31330   7.208   6.364  10.277 -1.1083 -1.1152 -0.2953
  995MOL0     H31331   7.239   6.425  10.109  2.1190 -1.4962 -0.3870
  995MOL0     H31332   7.436   6.357  10.234 -0.6988 -0.1751  0.5070
  995MOL0     H31333   7.390   6.187  10.246  0.9990  0.7840  1.1383
  995MOL0     H31334   7.406   6.329   9.967  1.2964  0.9762  1.4388
  995MOL0     H31335   7.383   6.161   9.991 -0.1158 -0.9104  1.6751
  995MOL0     H31336   7.629   6.160  10.105  3.6781  0.4792 -1.3096
  995MOL0     H31337   7.604   6.184   9.928 -1.4965 -0.9040  0.1566
  995MOL0     H31338   7.794   6.536  10.052  1.5069 -0.6169  0.7478
  995MOL0     H31339   7.006   6.452  10.175 -1.3776  0.0546 -0.9116
  995MOL0     H31340   6.778   6.473  10.234 -1.9048  0.5990  2.6417
  996MOL0     O31341   9.241   0.913   6.223  0.1676 -0.0984  0.7137
  996MOL0     C31342   9.216   0.818   6.294 -0.0528  0.3994 -0.5491
  996MOL0     O31343   9.099   0.782   6.354 -0.0365 -0.6805  0.7477
  996MOL0     C31344   8.991   0.865   6.334  0.0777  0.1627 -0.0849
  996MOL0     C31345   8.998   1.004   6.333 -0.5112  0.4975 -0.3210
  996MOL0     C31346   8.882   1.084   6.320 -0.0561 -0.6692 -0.5407
  996MOL0     C31347   8.748   1.025   6.308  0.2125 -0.0870 -0.2643
  996MOL0     O31348   8.633   1.094   6.292 -0.9715  0.6924  0.1384
  996MOL0     C31349   8.641   1.232   6.267 -0.4503 -1.0107  0.7832
  996MOL0     C31350   8.510   1.292   6.289  0.1233  0.6041  0.0243
  996MOL0     C31351   8.391   1.246   6.202 -0.2096 -0.6778 -0.0922
  996MOL0     C31352   8.266   1.341   6.240 -0.0019  0.0238 -0.7504
  996MOL0     C31353   8.151   1.283   6.170  0.4005  0.5666 -0.2384
  996MOL0     C31354   8.027   1.371   6.172 -0.1205  0.4647 -0.0261
  996MOL0     C31355   7.920   1.303   6.111 -0.1084 -0.3804  0.6600
  996MOL0     C31356   7.813   1.408   6.072  0.3087 -0.2653  0.8821
  996MOL0     N31357   7.742   1.472   6.189 -0.4581  0.2326 -0.9431
  996MOL0     C31358   7.691   1.602   6.187  0.1358 -0.1787  0.3319
  996MOL0     C31359   7.594   1.598   6.282 -0.7346 -0.9469 -0.2569
  996MOL0     C31360   7.496   1.712   6.328 -0.0712  1.0241  0.3321
  996MOL0     C31361   7.566   1.844   6.308  0.5074 -1.2740 -1.2891
  996MOL0     C31362   7.490   1.967   6.354 -0.1930  0.2640 -0.4557
  996MOL0     C31363   7.369   2.005   6.260  0.9885  0.9715 -0.2653
  996MOL0     O31364   7.376   1.960   6.125 -0.0697 -0.6956  0.0155
  996MOL0     C31365   7.264   1.962   6.046 -0.2656 -1.0094 -0.6226
  996MOL0     C31366   7.253   1.875   5.933  0.2696 -1.0241  0.4448
  996MOL0     C31367   7.145   1.888   5.852  0.1782 -0.4495  0.9347
  996MOL0     C31368   7.039   1.980   5.875  0.1756 -0.3773 -1.1288
  996MOL0     C31369   6.942   2.009   5.773  0.0998  0.3902  0.2650
  996MOL0     O31370   6.873   2.120   5.785 -0.3560 -0.1129  0.1048
  996MOL0     C31371   6.749   2.140   5.731 -0.1928  0.3245 -0.7544
  996MOL0     C31372   6.660   2.040   5.679  0.4762  1.1175  0.0662
  996MOL0     C31373   6.536   2.076   5.635  0.8707 -0.8917  0.2011
  996MOL0     C31374   6.483   2.205   5.658 -0.4439 -0.0992  0.5921
  996MOL0     O31375   6.351   2.220   5.614  0.2776 -0.1983 -0.1089
  996MOL0     C31376   6.281   2.343   5.663  0.0045 -0.0790 -0.2703
  996MOL0     C31377   6.141   2.352   5.600 -0.1805  1.0003  0.1064
  996MOL0     C31378   6.055   2.251   5.663  1.3419  0.2127 -0.9108
  996MOL0     C31379   5.921   2.241   5.585  0.6758  0.1409 -0.1635
  996MOL0     C31380   5.820   2.146   5.656 -0.7470 -0.2933  0.6567
  996MOL0     C31381   5.685   2.144   5.583 -0.2866  0.0322  0.1334
  996MOL0     C31382   5.578   2.238   5.641  0.5435 -0.1892 -0.7608
  996MOL0     C31383   5.480   2.159   5.728  0.9669 -0.5479 -0.4737
  996MOL0    Cl31384   5.546   2.123   5.891  0.1418  0.3247  0.2816
  996MOL0     C31385   6.564   2.305   5.712 -1.0268  0.7244  0.5064
  996MOL0     C31386   6.696   2.265   5.740 -0.0133 -0.4552 -0.0254
  996MOL0     O31387   6.934   1.933   5.680  0.5394  0.4306 -0.3744
  996MOL0     C31388   7.042   2.049   5.992 -0.2069  0.3552 -0.8560
  996MOL0     C31389   7.159   2.052   6.079 -0.1085 -0.4832  0.2580
  996MOL0     N31390   7.598   1.477   6.353 -0.2778  0.0970  0.4066
  996MOL0     N31391   7.684   1.397   6.288  0.2182  0.5359 -0.4411
  996MOL0     C31392   8.740   0.887   6.304 -0.8338 -0.3409 -0.3068
  996MOL0     C31393   8.858   0.812   6.315  0.0435  0.1622 -0.6066
  996MOL0     C31394   9.336   0.735   6.329  0.4132  0.6121  0.5130
  996MOL0     C31395   9.384   0.702   6.459 -0.2200 -0.6319 -0.0552
  996MOL0     C31396   9.502   0.632   6.475 -0.2439 -0.2679 -0.3328
  996MOL0     C31397   9.575   0.584   6.368  0.0863 -0.5278  0.9590
  996MOL0     O31398   9.687   0.517   6.391 -0.6259  0.5881  0.3641
  996MOL0     C31399   9.750   0.433   6.293 -0.1574 -0.8086  0.4241
  996MOL0     C31400   9.840   0.320   6.347  0.4425 -0.0618  0.4233
  996MOL0     C31401   9.952   0.355   6.428 -0.1532 -0.1830  0.1073
  996MOL0     C31402   9.936   0.331   6.583  0.7096  0.1306  1.1492
  996MOL0     C31403  10.040   0.403   6.655  0.1315 -0.9214  1.0167
  996MOL0     C31404  10.130   0.466   6.703  1.0647  0.0297  0.7735
  996MOL0     C31405   9.527   0.620   6.236  0.5628  0.8445  0.4365
  996MOL0     C31406   9.419   0.697   6.221  0.9973 -0.1534 -0.2925
  996MOL0     H31407   9.089   1.061   6.348  0.4709 -0.7167 -1.4997
  996MOL0     H31408   8.906   1.189   6.329  0.0116 -0.3874 -3.2702
  996MOL0     H31409   8.664   1.244   6.161 -1.8561  0.8467  0.6396
  996MOL0     H31410   8.711   1.287   6.331  0.6040 -0.8981 -0.4256
  996MOL0     H31411   8.528   1.399   6.279  1.5171  0.4010  0.2190
  996MOL0     H31412   8.487   1.268   6.393  1.1923  2.6181  0.7692
  996MOL0     H31413   8.373   1.139   6.217 -0.7717 -0.6151 -0.3196
  996MOL0     H31414   8.407   1.266   6.095 -1.4321  0.1740 -0.1338
  996MOL0     H31415   8.270   1.351   6.349  0.8378 -2.7914 -0.4352
  996MOL0     H31416   8.276   1.442   6.201 -1.1828 -0.3485 -2.1366
  996MOL0     H31417   8.137   1.180   6.203  0.1183  0.7594  0.2551
  996MOL0     H31418   8.178   1.280   6.064 -1.1635  3.9141 -0.8569
  996MOL0     H31419   8.050   1.470   6.134 -1.1993  1.5802  2.0285
  996MOL0     H31420   8.004   1.399   6.275  0.8700  4.2245 -0.6952
  996MOL0     H31421   7.952   1.267   6.013  0.0004  2.4027 -0.4395
  996MOL0     H31422   7.868   1.225   6.166  1.9589 -2.8323 -0.6286
  996MOL0     H31423   7.728   1.365   6.017 -0.2785  2.9032 -0.9802
  996MOL0     H31424   7.846   1.494   6.014 -3.0182  2.0749  2.1266
  996MOL0     H31425   7.702   1.691   6.125 -2.7111  1.2742  1.6809
  996MOL0     H31426   7.463   1.695   6.431 -1.5387  1.8609  0.0234
  996MOL0     H31427   7.409   1.712   6.263  0.6260 -0.2149 -0.6415
  996MOL0     H31428   7.593   1.858   6.203 -1.5843 -1.0273 -1.8277
  996MOL0     H31429   7.660   1.838   6.363 -0.1786 -1.3339 -0.0962
  996MOL0     H31430   7.443   1.951   6.452  2.9026  1.4747  1.3784
  996MOL0     H31431   7.564   2.046   6.371  0.0108  0.0819 -0.5070
  996MOL0     H31432   7.370   2.114   6.260 -3.0297  1.3110  3.5254
  996MOL0     H31433   7.276   1.967   6.303  2.2485 -2.4339 -0.2658
  996MOL0     H31434   7.330   1.807   5.897  0.1524 -1.0097  0.1640
  996MOL0     H31435   7.140   1.828   5.762 -1.9251  0.1521  0.5865
  996MOL0     H31436   6.681   1.934   5.671  0.8989  1.3374 -3.1039
  996MOL0     H31437   6.478   1.996   5.591 -1.1943 -0.8723  2.6378
  996MOL0     H31438   6.331   2.434   5.628 -2.1679  1.9925  1.6650
  996MOL0     H31439   6.280   2.356   5.771 -0.4740  2.6318 -0.5393
  996MOL0     H31440   6.156   2.330   5.493  2.7908 -0.4507  0.7113
  996MOL0     H31441   6.098   2.452   5.612 -2.3718  0.1561 -0.2425
  996MOL0     H31442   6.037   2.265   5.770 -0.5692  0.2032 -1.1991
  996MOL0     H31443   6.103   2.153   5.655  3.8221  1.1404  1.1771
  996MOL0     H31444   5.867   2.336   5.589  1.7788  0.8299 -0.9861
  996MOL0     H31445   5.948   2.216   5.482  2.7881 -0.1095  0.3934
  996MOL0     H31446   5.812   2.169   5.763 -0.4755  0.4204  0.5253
  996MOL0     H31447   5.853   2.042   5.645 -1.3879 -0.5211  0.7984
  996MOL0     H31448   5.638   2.045   5.588 -2.0470  0.9057  2.2011
  996MOL0     H31449   5.699   2.161   5.476  0.3201 -1.3600 -0.0388
  996MOL0     H31450   5.624   2.319   5.698 -0.7797  1.5825 -2.1103
  996MOL0     H31451   5.517   2.284   5.563 -3.9045 -1.5153  1.5801
  996MOL0     H31452   5.437   2.068   5.687 -2.8590  0.5734  0.6342
  996MOL0     H31453   5.394   2.227   5.731  1.4762  0.1756 -1.4756
  996MOL0     H31454   6.524   2.403   5.733  2.1359  1.5340  3.8359
  996MOL0     H31455   6.748   2.346   5.790 -0.4847 -0.0441 -0.1938
  996MOL0     H31456   6.958   2.107   6.030 -0.1715 -1.0419  1.5069
  996MOL0     H31457   7.169   2.131   6.153  1.2012  0.2350 -0.6630
  996MOL0     H31458   8.646   0.833   6.293 -1.9701  1.5067 -0.0745
  996MOL0     H31459   8.855   0.705   6.300  1.0316  0.5334 -4.4421
  996MOL0     H31460   9.327   0.730   6.547  0.8481 -2.2606  1.2143
  996MOL0     H31461   9.538   0.600   6.572 -1.6840 -1.4570 -0.1463
  996MOL0     H31462   9.809   0.494   6.224  1.0329 -2.1446  0.2328
  996MOL0     H31463   9.669   0.388   6.235 -1.2737 -0.3442  1.5569
  996MOL0     H31464   9.775   0.254   6.406  2.0431 -1.8733  0.2483
  996MOL0     H31465   9.879   0.270   6.258  0.6049  2.9775 -1.3153
  996MOL0     H31466   9.973   0.462   6.418 -0.0183  0.0598  2.4394
  996MOL0     H31467  10.038   0.303   6.385 -2.1198 -2.8672 -0.8168
  996MOL0     H31468   9.835   0.361   6.615 -0.5529  0.3293 -2.5131
  996MOL0     H31469   9.936   0.225   6.609 -2.8984 -0.2058  0.4020
  996MOL0     H31470  10.194   0.531   6.760  2.6336 -1.8436  1.2336
  996MOL0     H31471   9.569   0.576   6.146  0.8621  1.0485  0.4757
  996MOL0     H31472   9.397   0.735   6.121 -1.3483  1.7111  0.8264
  997MOL0     O31473   8.767   3.150   6.053  0.0689 -0.1470  0.7268
  997MOL0     C31474   8.817   3.242   6.122 -0.3365  0.6293  0.2763
  997MOL0     O31475   8.775   3.374   6.119  0.1191  0.1515 -0.7594
  997MOL0     C31476   8.655   3.408   6.076 -0.0286 -0.4558 -0.2372
  997MOL0     C31477   8.638   3.538   6.037  0.5389 -0.6046 -0.5325
  997MOL0     C31478   8.515   3.588   6.003 -0.1267 -0.6450  1.1739
  997MOL0     C31479   8.401   3.511   6.010  0.2678  1.1636  0.0752
  997MOL0     O31480   8.283   3.559   5.991 -0.0861 -0.0865  0.0010
  997MOL0     C31481   8.254   3.654   5.884  0.3914 -0.4497 -0.3000
  997MOL0     C31482   8.106   3.681   5.870  0.2789 -0.3645 -0.2872
  997MOL0     C31483   8.040   3.746   5.989 -0.2200 -0.0790 -0.2028
  997MOL0     C31484   7.892   3.787   5.958  0.4505 -0.3345 -0.3818
  997MOL0     C31485   7.856   3.896   6.061  0.3567  0.7605  0.9113
  997MOL0     C31486   7.711   3.949   6.045 -0.4484  0.0973  0.1656
  997MOL0     C31487   7.681   4.051   6.155  0.2251  0.7152  0.0409
  997MOL0     C31488   7.552   4.126   6.124  0.1789 -0.6057  0.4006
  997MOL0     N31489   7.425   4.054   6.135 -0.1213 -0.1531 -0.2598
  997MOL0     C31490   7.413   3.934   6.200  0.7957 -0.2872 -0.3055
  997MOL0     C31491   7.288   3.900   6.179  1.0534  0.0169  0.6751
  997MOL0     C31492   7.196   3.791   6.208  0.2639 -0.7211 -1.6394
  997MOL0     C31493   7.130   3.721   6.094 -0.4076 -0.7361 -0.2390
  997MOL0     C31494   7.062   3.586   6.112 -0.1514  0.1358  0.1210
  997MOL0     C31495   6.927   3.603   6.183 -0.7118 -0.3280  0.0730
  997MOL0     O31496   6.873   3.473   6.202  0.0399  0.3751  0.6266
  997MOL0     C31497   6.737   3.473   6.235  0.5167 -0.4055 -1.0998
  997MOL0     C31498   6.647   3.369   6.187  0.1555 -0.1343  0.4169
  997MOL0     C31499   6.514   3.387   6.205 -0.2217  0.1692  0.2677
  997MOL0     C31500   6.460   3.485   6.278 -0.4673 -0.5309  1.1706
  997MOL0     C31501   6.315   3.490   6.292 -0.4312 -0.1582  0.0789
  997MOL0     O31502   6.269   3.563   6.396  1.0498 -0.3294  0.5366
  997MOL0     C31503   6.140   3.586   6.393 -0.0942 -0.0279 -0.1801
  997MOL0     C31504   6.046   3.488   6.419  0.5626  0.3028  0.6295
  997MOL0     C31505   5.909   3.516   6.426 -0.4173 -0.8097  0.2734
  997MOL0     C31506   5.864   3.646   6.397  0.1137 -0.4482 -0.4335
  997MOL0     O31507   5.741   3.696   6.389 -0.2327  0.3987  0.0269
  997MOL0     C31508   5.635   3.597   6.396 -0.0748 -0.4969  0.5476
  997MOL0     C31509   5.503   3.678   6.373  0.8093  0.2932 -0.0412
  997MOL0     C31510   5.384   3.575   6.395  0.3254 -0.0496 -0.4111
  997MOL0     C31511   5.256   3.658   6.397  0.2895  0.5340  0.0496
  997MOL0     C31512   5.138   3.561   6.418  1.2760  0.4279 -0.3487
  997MOL0     C31513   5.004   3.631   6.436 -0.1981 -0.4971  0.2932
  997MOL0     C31514   4.899   3.529   6.439  0.2981  0.4124 -0.5078
  997MOL0     C31515   4.765   3.596   6.429  0.2497 -0.6285  0.3624
  997MOL0    Cl31516   4.620   3.494   6.410 -0.0361  0.0813 -0.3518
  997MOL0     C31517   5.956   3.747   6.362  0.3666 -0.0904 -0.6342
  997MOL0     C31518   6.093   3.711   6.359  0.7996  0.1483  0.6482
  997MOL0     O31519   6.250   3.430   6.208 -0.1487  0.5104 -0.1637
  997MOL0     C31520   6.551   3.569   6.352 -0.0662 -0.2416 -0.8985
  997MOL0     C31521   6.692   3.564   6.324  1.2061 -0.4179  0.0801
  997MOL0     N31522   7.225   4.010   6.104  0.4158  0.0696 -0.7894
  997MOL0     N31523   7.310   4.108   6.084 -0.0519  0.2209 -0.0818
  997MOL0     C31524   8.417   3.378   6.057 -0.1324 -0.1009  0.4835
  997MOL0     C31525   8.547   3.326   6.085  1.0921 -0.0712  0.5831
  997MOL0     C31526   8.919   3.213   6.226  0.3032 -0.0818  0.2854
  997MOL0     C31527   8.940   3.081   6.254 -0.2341  0.7146  0.0778
  997MOL0     C31528   9.055   3.049   6.323  0.2198  0.1493 -0.3165
  997MOL0     C31529   9.140   3.148   6.370  0.0400 -0.3010 -0.2027
  997MOL0     O31530   9.255   3.119   6.446 -0.6794 -0.1240  0.1669
  997MOL0     C31531   9.296   2.983   6.459 -0.2250 -0.0448 -0.2581
  997MOL0     C31532   9.240   2.921   6.583  0.8482  1.0809 -0.4382
  997MOL0     C31533   9.193   2.777   6.565  0.5242  0.2064  0.6417
  997MOL0     C31534   9.071   2.745   6.655  0.2371  0.1808 -0.5756
  997MOL0     C31535   8.949   2.796   6.595  0.2518 -0.8387 -0.5039
  997MOL0     C31536   8.830   2.828   6.557 -0.0866  0.0545  0.3831
  997MOL0     C31537   9.123   3.279   6.339 -0.1857  0.9843  0.5204
  997MOL0     C31538   9.015   3.318   6.262  0.0462  0.5710  0.0026
  997MOL0     H31539   8.720   3.605   6.015  0.1024 -0.0583 -0.4968
  997MOL0     H31540   8.511   3.688   5.963  1.4557 -0.8776  0.3410
  997MOL0     H31541   8.283   3.604   5.791 -1.3474 -0.4701 -0.8715
  997MOL0     H31542   8.312   3.744   5.904 -2.8100  1.9611 -1.0063
  997MOL0     H31543   8.051   3.587   5.861 -1.4525  0.3152  2.0511
  997MOL0     H31544   8.097   3.752   5.787  0.8391  0.5902  0.4502
  997MOL0     H31545   8.104   3.831   6.016 -0.2974  0.8462 -2.6852
  997MOL0     H31546   8.034   3.679   6.075  1.3837  1.3540  1.1078
  997MOL0     H31547   7.888   3.826   5.856  0.6403 -2.3381 -1.2093
  997MOL0     H31548   7.826   3.701   5.966  0.4040 -0.0707  4.1402
  997MOL0     H31549   7.936   3.970   6.064  1.8193 -0.5994 -1.3858
  997MOL0     H31550   7.855   3.844   6.157  1.6938  0.7605  0.9352
  997MOL0     H31551   7.632   3.876   6.030 -0.5790 -0.0886  1.6452
  997MOL0     H31552   7.713   4.007   5.952 -4.7575  1.7343  0.8514
  997MOL0     H31553   7.670   4.000   6.251  3.6406 -0.5458 -0.1033
  997MOL0     H31554   7.759   4.128   6.149 -0.9697  2.1318  1.6694
  997MOL0     H31555   7.558   4.161   6.020 -3.2329 -0.5651  0.1266
  997MOL0     H31556   7.547   4.221   6.178  2.4727  0.1897 -0.6590
  997MOL0     H31557   7.490   3.883   6.257 -0.0711 -1.5397 -0.2055
  997MOL0     H31558   7.109   3.832   6.261  0.7103 -1.4308 -0.3102
  997MOL0     H31559   7.244   3.719   6.275  1.0495 -1.6614 -3.1500
  997MOL0     H31560   7.217   3.713   6.029  0.9418  1.4011  1.1870
  997MOL0     H31561   7.060   3.783   6.037  1.8946  0.9812 -1.3578
  997MOL0     H31562   7.032   3.541   6.017  1.1981 -1.1672  0.2859
  997MOL0     H31563   7.126   3.510   6.156 -0.3104 -0.5210 -0.7399
  997MOL0     H31564   6.859   3.675   6.136  1.9571  0.9938 -2.0347
  997MOL0     H31565   6.957   3.647   6.279  2.4767 -1.9157 -0.0663
  997MOL0     H31566   6.689   3.291   6.125  2.0085  0.6341  0.6339
  997MOL0     H31567   6.453   3.310   6.159 -1.3758  0.4500  1.3015
  997MOL0     H31568   6.074   3.386   6.442 -1.5482 -0.5638 -0.3718
  997MOL0     H31569   5.855   3.426   6.454 -1.8066  0.3353  1.4421
  997MOL0     H31570   5.638   3.542   6.490  0.4632 -1.6823 -0.1468
  997MOL0     H31571   5.636   3.525   6.314 -1.1934 -0.4111  0.4384
  997MOL0     H31572   5.500   3.729   6.277  2.1051  2.6889  1.0774
  997MOL0     H31573   5.505   3.758   6.449 -0.6824  1.8776 -1.5923
  997MOL0     H31574   5.399   3.522   6.489  0.3687  1.2462  0.3414
  997MOL0     H31575   5.391   3.502   6.314 -0.5252 -2.1721  1.3409
  997MOL0     H31576   5.243   3.720   6.487 -2.2139  0.8514 -0.4484
  997MOL0     H31577   5.247   3.720   6.308  0.8344  0.6218  0.0561
  997MOL0     H31578   5.154   3.498   6.506 -1.6691  0.4821  0.3117
  997MOL0     H31579   5.121   3.495   6.333 -1.9457  3.4678 -2.3179
  997MOL0     H31580   4.983   3.694   6.349 -2.1315 -2.1261 -0.4917
  997MOL0     H31581   5.005   3.706   6.515  0.2857  1.0535 -1.1272
  997MOL0     H31582   4.908   3.465   6.351 -0.3649 -0.2512 -0.1031
  997MOL0     H31583   4.905   3.473   6.533 -2.1428  2.6578  1.1113
  997MOL0     H31584   4.763   3.647   6.332 -1.5739 -2.6642 -0.7716
  997MOL0     H31585   4.748   3.666   6.512 -1.9955  1.8666 -2.0082
  997MOL0     H31586   5.917   3.840   6.321 -1.3652  0.1695  1.4353
  997MOL0     H31587   6.161   3.791   6.331 -0.0064  1.4975  2.3378
  997MOL0     H31588   6.520   3.643   6.425  1.0146 -0.1148 -0.5484
  997MOL0     H31589   6.749   3.632   6.387 -0.5550  3.0549 -1.8057
  997MOL0     H31590   8.330   3.315   6.075  0.4472 -0.1500  3.5725
  997MOL0     H31591   8.553   3.224   6.122 -1.8755  0.1491  1.9559
  997MOL0     H31592   8.876   3.004   6.211 -0.7003  1.5102 -0.6833
  997MOL0     H31593   9.074   2.943   6.342 -3.1735 -0.5620 -0.2011
  997MOL0     H31594   9.403   2.985   6.479  0.1929  0.2276 -2.3351
  997MOL0     H31595   9.288   2.921   6.370 -1.9775 -0.3251  0.0521
  997MOL0     H31596   9.314   2.929   6.663  2.6066 -1.1954 -1.7374
  997MOL0     H31597   9.150   2.979   6.608 -2.2485 -2.4916 -2.4141
  997MOL0     H31598   9.280   2.711   6.577  1.0468  0.3563 -1.7512
  997MOL0     H31599   9.161   2.754   6.463 -3.8746 -1.0887  2.0781
  997MOL0     H31600   9.067   2.636   6.661  2.2883  0.1068  0.1933
  997MOL0     H31601   9.074   2.784   6.758  2.1843  0.2442 -0.6217
  997MOL0     H31602   8.731   2.851   6.525 -0.8596 -1.9060  1.1952
  997MOL0     H31603   9.198   3.354   6.360  0.4373  0.5087  0.0380
  997MOL0     H31604   9.022   3.420   6.227 -0.0455  0.6548  0.2320
  998MOL0     O31605   3.995  10.822   5.015 -0.3488 -0.1105 -0.0039
  998MOL0     C31606   4.060  10.728   5.058  1.1579  0.7467  0.2728
  998MOL0     O31607   4.024  10.602   5.050 -0.4869  0.7103  0.0779
  998MOL0     C31608   3.898  10.581   5.000 -1.0717 -0.1632  0.7442
  998MOL0     C31609   3.795  10.557   5.083  0.1702  0.6294  0.3206
  998MOL0     C31610   3.674  10.501   5.033 -0.1983  0.3977  0.2437
  998MOL0     C31611   3.650  10.505   4.896 -0.6424  0.3108  0.0761
  998MOL0     O31612   3.517  10.483   4.857  0.0183  0.1124  0.5001
  998MOL0     C31613   3.494  10.407   4.733  0.3470 -1.4061 -0.8438
  998MOL0     C31614   3.347  10.382   4.714 -0.1310  0.4533 -0.1897
  998MOL0     C31615   3.282  10.278   4.807 -0.5077 -0.3860 -0.6186
  998MOL0     C31616   3.215  10.160   4.729 -0.1523 -0.2753  0.2593
  998MOL0     C31617   3.150  10.061   4.826  0.5044  0.1682 -0.3439
  998MOL0     C31618   3.036  10.121   4.910 -0.5540 -0.5902  0.4721
  998MOL0     C31619   2.932  10.016   4.917  0.1190  0.0349 -0.8142
  998MOL0     C31620   2.810  10.057   5.001 -0.3295  0.6694  0.3118
  998MOL0     N31621   2.711   9.946   5.000  0.1924 -0.5570  0.3666
  998MOL0     C31622   2.621   9.902   4.903  0.9255  0.5781  0.2645
  998MOL0     C31623   2.554   9.800   4.962  0.2816 -0.2112  0.0037
  998MOL0     C31624   2.443   9.719   4.893  0.1196  0.3834 -0.6193
  998MOL0     C31625   2.325   9.695   4.994  0.0322 -0.9190 -0.9132
  998MOL0     C31626   2.342   9.590   5.110 -1.0014 -0.3533  0.2666
  998MOL0     C31627   2.330   9.440   5.066  0.7593 -0.0842 -0.3875
  998MOL0     O31628   2.196   9.425   5.006 -0.6086  0.3477 -0.0153
  998MOL0     C31629   2.151   9.302   4.963  0.1908 -0.2275  0.1938
  998MOL0     C31630   2.244   9.205   4.918 -0.2437 -0.4714  0.3329
  998MOL0     C31631   2.193   9.083   4.861  0.1686 -0.6619  1.1242
  998MOL0     C31632   2.052   9.063   4.858  0.5545 -0.2020  0.0265
  998MOL0     C31633   1.999   8.932   4.834 -0.0044 -0.6818  0.5640
  998MOL0     O31634   2.083   8.836   4.780  0.1900 -0.3154 -0.5772
  998MOL0     C31635   2.027   8.714   4.772  0.7123 -0.1140  0.1264
  998MOL0     C31636   1.972   8.678   4.643 -0.5480 -0.1220 -0.4225
  998MOL0     C31637   1.919   8.544   4.621 -0.5302  1.0032 -0.2900
  998MOL0     C31638   1.925   8.448   4.721 -0.1290 -1.6237  0.5452
  998MOL0     O31639   1.858   8.331   4.712 -0.0832  0.3784  0.0973
  998MOL0     C31640   1.750   8.311   4.618  0.5986  0.5626  0.6069
  998MOL0     C31641   1.691   8.164   4.605  0.1759  0.0682  0.6008
  998MOL0     C31642   1.592   8.146   4.482 -0.3701  0.1422  0.2304
  998MOL0     C31643   1.634   8.038   4.396  0.1042  0.5331 -0.1840
  998MOL0     C31644   1.587   7.898   4.434  0.3380  0.4151 -0.1682
  998MOL0     C31645   1.614   7.796   4.327  0.2548 -0.0625 -0.2187
  998MOL0     C31646   1.565   7.819   4.183  0.2233 -0.3904  0.1116
  998MOL0     C31647   1.584   7.693   4.096 -0.9620  0.6316  0.4026
  998MOL0    Cl31648   1.498   7.695   3.948  0.0191  0.1488  0.2437
  998MOL0     C31649   1.997   8.478   4.840 -0.0187  0.0411 -0.0841
  998MOL0     C31650   2.040   8.611   4.868 -0.1833 -0.0860 -0.5103
  998MOL0     O31651   1.881   8.912   4.867  0.2422 -0.3770 -1.3704
  998MOL0     C31652   1.970   9.167   4.899  0.1035  0.0421 -0.2396
  998MOL0     C31653   2.015   9.285   4.955 -0.4700 -0.4670 -0.2678
  998MOL0     N31654   2.611   9.774   5.082  0.1092  0.3941 -1.3547
  998MOL0     N31655   2.703   9.856   5.100  0.1473  0.4057  0.8516
  998MOL0     C31656   3.754  10.535   4.807 -0.5097  0.1457 -0.7270
  998MOL0     C31657   3.879  10.575   4.859  0.2553  0.5616 -0.0106
  998MOL0     C31658   4.182  10.759   5.133 -0.6356 -0.1040  0.0195
  998MOL0     C31659   4.262  10.653   5.189 -0.4251  0.3407 -0.0424
  998MOL0     C31660   4.381  10.686   5.264 -0.2366  0.9416 -0.1144
  998MOL0     C31661   4.428  10.820   5.268 -0.0962  0.2224  0.1866
  998MOL0     O31662   4.537  10.862   5.341 -0.3205  0.2483  0.0691
  998MOL0     C31663   4.643  10.774   5.339 -0.4932  0.2039  0.3388
  998MOL0     C31664   4.786  10.841   5.356 -0.0939  0.0235 -0.5616
  998MOL0     C31665   4.835  10.928   5.239  0.5846  0.0900 -0.1249
  998MOL0     C31666   4.984  10.928   5.234  0.0232 -0.8349 -1.4720
  998MOL0     C31667   5.029  10.978   5.106 -0.2944 -0.5102  0.3314
  998MOL0     C31668   5.087  11.027   5.009 -0.6863 -0.1993 -0.9369
  998MOL0     C31669   4.345  10.917   5.229  0.6046  0.6969  0.0308
  998MOL0     C31670   4.220  10.896   5.164  1.1928 -0.7656  0.4400
  998MOL0     H31671   3.806  10.556   5.191  2.1945 -2.2071  0.2139
  998MOL0     H31672   3.611  10.454   5.107  0.7725 -1.4736 -0.0598
  998MOL0     H31673   3.542  10.310   4.751 -0.3422 -1.6945 -0.5142
  998MOL0     H31674   3.536  10.468   4.653  2.7515 -3.2286 -1.1289
  998MOL0     H31675   3.338  10.364   4.607 -0.7374  0.0865 -0.0818
  998MOL0     H31676   3.298  10.480   4.726 -2.6479 -0.4917 -1.7440
  998MOL0     H31677   3.209  10.333   4.867 -2.8692 -0.9180 -2.8409
  998MOL0     H31678   3.365  10.235   4.864  0.3863 -0.8064 -2.1632
  998MOL0     H31679   3.139  10.190   4.656 -0.6599 -1.1915  0.3986
  998MOL0     H31680   3.293  10.117   4.665 -0.4576 -1.6507  0.7735
  998MOL0     H31681   3.227  10.019   4.892  1.0235  1.0144 -0.3797
  998MOL0     H31682   3.107   9.983   4.763 -2.0397  2.6001 -1.8625
  998MOL0     H31683   2.999  10.212   4.861 -1.1032  0.5887  2.9294
  998MOL0     H31684   3.073  10.162   5.004  2.1189  0.9911 -1.1279
  998MOL0     H31685   2.901   9.984   4.817  4.3036  3.1673 -3.4269
  998MOL0     H31686   2.974   9.924   4.958 -0.4874  0.0935 -0.0363
  998MOL0     H31687   2.770  10.147   4.955  0.2349  1.2350  0.9074
  998MOL0     H31688   2.825  10.081   5.107 -4.0144 -0.0815  1.1594
  998MOL0     H31689   2.601   9.956   4.811 -1.9440 -0.4745  0.1633
  998MOL0     H31690   2.487   9.621   4.870 -2.2783 -1.2671  1.3132
  998MOL0     H31691   2.419   9.782   4.807 -0.3477  2.8694  1.2181
  998MOL0     H31692   2.248   9.669   4.921 -1.9276 -0.6247  0.9590
  998MOL0     H31693   2.295   9.788   5.043  1.0318 -1.3000  0.4894
  998MOL0     H31694   2.446   9.602   5.142 -0.6538 -1.5321 -0.3846
  998MOL0     H31695   2.275   9.611   5.195 -1.3189 -1.7876  0.3934
  998MOL0     H31696   2.347   9.380   5.156  0.7202 -1.2562 -1.1282
  998MOL0     H31697   2.408   9.418   4.993 -1.9317 -1.0877 -3.1536
  998MOL0     H31698   2.351   9.222   4.923 -0.6596  2.5394  1.2154
  998MOL0     H31699   2.274   9.015   4.837 -0.3763 -2.7885  4.6458
  998MOL0     H31700   1.962   8.755   4.568  0.7859  0.3498 -0.1413
  998MOL0     H31701   1.864   8.522   4.529 -1.3605  1.4109  0.1009
  998MOL0     H31702   1.791   8.332   4.519  1.0411  0.3046  0.7300
  998MOL0     H31703   1.677   8.390   4.638  1.9155  2.3510 -1.2187
  998MOL0     H31704   1.634   8.124   4.690 -0.1785  0.5238  0.5863
  998MOL0     H31705   1.769   8.089   4.589  0.3754  0.3229  0.3813
  998MOL0     H31706   1.592   8.239   4.424  1.5090 -0.1110 -0.2404
  998MOL0     H31707   1.492   8.129   4.524  0.6827 -2.7458  1.8647
  998MOL0     H31708   1.586   8.065   4.301  2.1699  0.3214 -1.3365
  998MOL0     H31709   1.742   8.038   4.380  0.4414  0.6511  1.8761
  998MOL0     H31710   1.480   7.893   4.456  0.6118 -1.1370  1.0559
  998MOL0     H31711   1.645   7.878   4.525 -3.1349 -2.3657  1.6987
  998MOL0     H31712   1.577   7.696   4.353  1.6035 -1.3490 -2.7630
  998MOL0     H31713   1.722   7.795   4.311  0.0604 -1.1501 -1.7392
  998MOL0     H31714   1.457   7.835   4.186  0.0538 -1.2418 -0.7703
  998MOL0     H31715   1.604   7.912   4.141 -2.1873 -0.2641 -2.0635
  998MOL0     H31716   1.568   7.600   4.152  1.9446 -1.1109 -1.4323
  998MOL0     H31717   1.690   7.703   4.069 -0.9871 -1.8438 -0.8548
  998MOL0     H31718   2.004   8.399   4.914 -3.5074 -0.6259 -0.2983
  998MOL0     H31719   2.099   8.634   4.956  1.0638 -4.0919 -0.0959
  998MOL0     H31720   1.862   9.158   4.895 -0.3254  2.7304  2.1208
  998MOL0     H31721   1.940   9.357   4.986  0.9086  1.0434 -0.3091
  998MOL0     H31722   3.743  10.528   4.699 -0.1466 -0.0599 -0.7525
  998MOL0     H31723   3.957  10.595   4.786 -0.0721  2.0268  0.0117
  998MOL0     H31724   4.225  10.552   5.199  2.1691 -0.4517  3.9696
  998MOL0     H31725   4.436  10.605   5.312  1.0510  1.5499 -0.5210
  998MOL0     H31726   4.651  10.724   5.242 -1.2756 -0.2089  0.4797
  998MOL0     H31727   4.633  10.705   5.424 -0.0843  0.5424  0.6678
  998MOL0     H31728   4.776  10.902   5.447  0.7006 -0.2945 -0.2593
  998MOL0     H31729   4.860  10.763   5.374  0.6748  0.9182  0.2958
  998MOL0     H31730   4.790  11.027   5.231 -2.7810 -1.2087  0.9288
  998MOL0     H31731   4.790  10.871   5.158 -0.3543 -0.6382  0.8881
  998MOL0     H31732   5.022  11.000   5.307  0.6808 -0.2201 -2.3960
  998MOL0     H31733   5.029  10.837   5.274 -1.2330 -0.4549  0.9694
  998MOL0     H31734   5.098  11.060   4.908  1.0954  0.3099 -0.6164
  998MOL0     H31735   4.374  11.017   5.259 -1.1183  1.0708  0.5383
  998MOL0     H31736   4.155  10.972   5.122 -3.0536 -3.3592  1.7477
  999MOL0     O31737   2.789   1.416   7.775  0.5899  0.2797 -1.0336
  999MOL0     C31738   2.810   1.514   7.703 -0.3228 -0.6855  0.9953
  999MOL0     O31739   2.719   1.596   7.654 -0.5063 -0.1209  0.0831
  999MOL0     C31740   2.597   1.620   7.717 -0.3374  0.1766 -1.1676
  999MOL0     C31741   2.499   1.672   7.631  0.2906  0.6910 -0.0087
  999MOL0     C31742   2.369   1.700   7.680 -0.5176  0.5085 -0.3496
  999MOL0     C31743   2.325   1.659   7.803 -0.1737  0.4581 -0.4030
  999MOL0     O31744   2.192   1.683   7.837 -0.7293  0.1627 -0.0601
  999MOL0     C31745   2.181   1.689   7.979 -0.7022  0.4745 -0.2652
  999MOL0     C31746   2.045   1.742   8.031  0.3340 -0.3185  0.4961
  999MOL0     C31747   1.993   1.870   7.948 -0.0727 -0.3829  0.0839
  999MOL0     C31748   1.856   1.918   7.996  1.0920  0.5305  0.4135
  999MOL0     C31749   1.797   2.022   7.908  0.0856  0.8341 -0.3104
  999MOL0     C31750   1.650   2.065   7.939  0.2837  0.3483 -0.5542
  999MOL0     C31751   1.619   2.204   7.867  0.5324 -0.5098 -0.3154
  999MOL0     C31752   1.654   2.315   7.965  0.1508  0.4966 -0.3408
  999MOL0     N31753   1.656   2.439   7.879 -0.2998  0.7192  0.3242
  999MOL0     C31754   1.773   2.455   7.799  0.8248  0.1415 -0.7000
  999MOL0     C31755   1.749   2.562   7.721 -0.3466  0.8130  0.3199
  999MOL0     C31756   1.849   2.629   7.628 -0.2964 -0.2630  0.5177
  999MOL0     C31757   1.983   2.650   7.697 -0.5747  0.3462  0.2013
  999MOL0     C31758   2.110   2.710   7.623 -0.0335 -0.7440 -0.5336
  999MOL0     C31759   2.188   2.611   7.533  0.4348  0.2220 -0.2800
  999MOL0     O31760   2.282   2.679   7.451  0.2432  0.7514 -0.0062
  999MOL0     C31761   2.397   2.616   7.422 -0.0211 -0.1228 -0.5155
  999MOL0     C31762   2.513   2.694   7.405  0.6778 -0.6751  0.2133
  999MOL0     C31763   2.631   2.638   7.353  0.6405  0.0865  0.1611
  999MOL0     C31764   2.648   2.500   7.326 -0.5517 -0.7792 -0.0979
  999MOL0     C31765   2.775   2.454   7.269  0.4104 -0.0853 -0.6678
  999MOL0     O31766   2.874   2.544   7.246  0.0648 -0.5260  0.0562
  999MOL0     C31767   2.993   2.512   7.203 -0.2966  0.7815  0.0249
  999MOL0     C31768   3.034   2.591   7.095 -0.1618 -0.8336 -0.5424
  999MOL0     C31769   3.156   2.568   7.038 -0.2835  0.4359  0.1186
  999MOL0     C31770   3.248   2.477   7.091  0.1813  0.2075  0.1394
  999MOL0     O31771   3.370   2.464   7.034 -0.8111  0.3814 -0.1180
  999MOL0     C31772   3.383   2.436   6.898  0.7922  0.7964  0.0085
  999MOL0     C31773   3.487   2.330   6.882 -0.1223 -0.4017  0.1897
  999MOL0     C31774   3.565   2.334   6.757  0.1460 -0.0393  0.7536
  999MOL0     C31775   3.658   2.449   6.762 -0.7745  0.4264  1.0564
  999MOL0     C31776   3.701   2.509   6.625 -1.3917 -0.0804 -0.2819
  999MOL0     C31777   3.582   2.557   6.536 -0.3896  0.0352 -0.0453
  999MOL0     C31778   3.595   2.654   6.428  0.3313  0.6902 -0.6655
  999MOL0     C31779   3.468   2.671   6.332  0.4130 -0.6696  0.2726
  999MOL0    Cl31780   3.395   2.520   6.284 -0.2506 -0.3925 -0.2282
  999MOL0     C31781   3.206   2.385   7.182 -0.1205 -0.3215  0.2588
  999MOL0     C31782   3.083   2.412   7.253 -0.0024 -0.0223 -0.1977
  999MOL0     O31783   2.783   2.331   7.248 -0.9339  0.5219  1.2340
  999MOL0     C31784   2.538   2.417   7.355  0.5835 -0.0188 -1.1846
  999MOL0     C31785   2.418   2.478   7.403 -0.3345  0.0564  0.0127
  999MOL0     N31786   1.616   2.608   7.744  0.1845 -0.0040 -0.1522
  999MOL0     N31787   1.567   2.532   7.837 -0.4388 -0.1392 -0.0736
  999MOL0     C31788   2.428   1.620   7.893  0.3822 -0.3120 -0.6458
  999MOL0     C31789   2.557   1.591   7.853  0.3603 -0.4233  0.0455
  999MOL0     C31790   2.954   1.546   7.669 -0.0341 -0.8903 -0.1422
  999MOL0     C31791   2.987   1.677   7.625  0.3066 -0.2070 -0.3054
  999MOL0     C31792   3.124   1.711   7.596  0.3822  0.2459 -0.4714
  999MOL0     C31793   3.226   1.622   7.614  0.8716 -0.0712 -1.0130
  999MOL0     O31794   3.348   1.660   7.574  0.3080  0.1152 -0.0352
  999MOL0     C31795   3.441   1.556   7.536  0.4999 -0.4027 -0.4782
  999MOL0     C31796   3.540   1.638   7.458 -0.9767  0.1387 -0.1866
  999MOL0     C31797   3.622   1.555   7.352 -0.4152  0.7547 -0.7167
  999MOL0     C31798   3.737   1.481   7.426 -0.3373  0.2398  0.1911
  999MOL0     C31799   3.871   1.535   7.405 -0.0951  0.1029 -0.2410
  999MOL0     C31800   3.987   1.552   7.370  0.2898  0.7169 -0.9915
  999MOL0     C31801   3.191   1.500   7.670 -0.1114 -0.7796  0.9737
  999MOL0     C31802   3.058   1.465   7.700 -0.1242  0.7655 -1.1552
  999MOL0     H31803   2.525   1.696   7.529  0.3979 -2.1211 -0.7024
  999MOL0     H31804   2.295   1.743   7.612  0.2516  0.1958 -1.4055
  999MOL0     H31805   2.251   1.766   8.012 -0.3653 -0.3062  0.9113
  999MOL0     H31806   2.208   1.603   8.041  1.1453  1.6702  0.6488
  999MOL0     H31807   2.045   1.764   8.139  0.8820  0.2004  0.3983
  999MOL0     H31808   1.967   1.666   8.018  0.6991 -0.9065  1.6236
  999MOL0     H31809   1.994   1.848   7.841  3.0509 -0.2420 -0.0074
  999MOL0     H31810   2.056   1.956   7.969 -2.5523  1.5313  0.1602
  999MOL0     H31811   1.792   1.829   8.004 -0.5054  1.7422  1.7721
  999MOL0     H31812   1.859   1.944   8.102  0.4685 -0.7118  0.7545
  999MOL0     H31813   1.788   1.987   7.805  0.4233  2.1522 -0.8084
  999MOL0     H31814   1.860   2.111   7.921  0.6569  0.2681  1.0645
  999MOL0     H31815   1.631   2.083   8.045  0.6782  5.1333 -1.0750
  999MOL0     H31816   1.578   1.987   7.912 -1.3970  1.1392  1.3652
  999MOL0     H31817   1.671   2.212   7.771 -0.9791  0.2514 -1.0976
  999MOL0     H31818   1.512   2.204   7.845  0.3825 -0.6510  0.3791
  999MOL0     H31819   1.753   2.308   8.011  0.4411 -0.1178 -1.0480
  999MOL0     H31820   1.577   2.318   8.043  1.4883 -0.0406  1.0461
  999MOL0     H31821   1.853   2.383   7.809 -1.7048 -2.6477  1.1970
  999MOL0     H31822   1.816   2.729   7.596  3.1331  0.4248 -1.3179
  999MOL0     H31823   1.845   2.559   7.544 -3.7033  0.6450 -0.2222
  999MOL0     H31824   2.021   2.553   7.729  0.2154 -0.1725 -2.1073
  999MOL0     H31825   1.967   2.712   7.786  0.3465  2.6814 -1.1796
  999MOL0     H31826   2.079   2.796   7.563 -2.3634  0.5199  2.2641
  999MOL0     H31827   2.178   2.741   7.703 -0.0614  1.3321 -1.2602
  999MOL0     H31828   2.120   2.552   7.471  2.4711 -2.6533  0.0103
  999MOL0     H31829   2.244   2.543   7.597 -0.9688 -2.6688 -1.9225
  999MOL0     H31830   2.504   2.801   7.421  0.3331 -0.2643 -2.2707
  999MOL0     H31831   2.712   2.705   7.331 -0.4102  0.7657 -1.8485
  999MOL0     H31832   2.987   2.688   7.084  0.3279 -0.2801  1.7058
  999MOL0     H31833   3.177   2.649   6.968 -2.2136  0.9276  0.0461
  999MOL0     H31834   3.408   2.524   6.839 -0.8071  1.0252 -0.3843
  999MOL0     H31835   3.288   2.400   6.857  2.5278 -1.8329 -2.0750
  999MOL0     H31836   3.426   2.240   6.875 -0.9105  0.0826  0.7658
  999MOL0     H31837   3.555   2.317   6.967  0.1544  0.3202  0.0809
  999MOL0     H31838   3.512   2.332   6.661  2.6318  2.4786 -0.8571
  999MOL0     H31839   3.620   2.239   6.756 -1.0245 -0.7258  0.3911
  999MOL0     H31840   3.621   2.536   6.816  2.6693  1.9205  1.2419
  999MOL0     H31841   3.739   2.406   6.821  0.4283 -0.4529 -1.1218
  999MOL0     H31842   3.762   2.443   6.563 -0.6844  2.0703 -2.0256
  999MOL0     H31843   3.763   2.597   6.642  0.2392 -1.1573 -0.4041
  999MOL0     H31844   3.501   2.591   6.602 -0.0057 -1.9445  1.5613
  999MOL0     H31845   3.541   2.468   6.488  0.3990 -0.2840 -0.1475
  999MOL0     H31846   3.626   2.750   6.470 -0.7492  0.1780  1.4079
  999MOL0     H31847   3.673   2.614   6.362  0.6115  0.1906 -0.0348
  999MOL0     H31848   3.489   2.723   6.238 -0.0402 -2.5883 -0.9610
  999MOL0     H31849   3.398   2.731   6.391  0.6862  0.1601 -0.2349
  999MOL0     H31850   3.277   2.307   7.207  2.2035  0.2754 -3.7063
  999MOL0     H31851   3.055   2.348   7.336 -1.0264 -1.1625 -1.3820
  999MOL0     H31852   2.538   2.310   7.339  2.1343  0.0882 -2.0370
  999MOL0     H31853   2.331   2.413   7.402  0.7906 -1.5166  0.2652
  999MOL0     H31854   2.411   1.604   7.999  1.3796 -1.5339 -0.6477
  999MOL0     H31855   2.631   1.561   7.927  0.9291  1.0394  0.1103
  999MOL0     H31856   2.916   1.754   7.597  2.2870  1.9221  0.1697
  999MOL0     H31857   3.156   1.800   7.542 -0.2406 -0.7058 -2.4786
  999MOL0     H31858   3.385   1.486   7.473 -0.2841 -0.0093 -0.2427
  999MOL0     H31859   3.484   1.508   7.624 -1.1374 -0.2016  0.4857
  999MOL0     H31860   3.484   1.717   7.407 -0.5432 -1.3094 -3.0938
  999MOL0     H31861   3.605   1.697   7.523  1.7557  0.0012 -2.6138
  999MOL0     H31862   3.674   1.628   7.288  1.9515  0.8974  1.2068
  999MOL0     H31863   3.563   1.492   7.285  1.8462  0.3935 -2.4874
  999MOL0     H31864   3.723   1.481   7.535 -0.3086 -1.6924  0.2296
  999MOL0     H31865   3.732   1.375   7.399  3.3697 -0.3128  1.1951
  999MOL0     H31866   4.088   1.555   7.335  0.5275 -0.6364 -0.4874
  999MOL0     H31867   3.262   1.423   7.698 -1.3223 -3.0937 -1.8124
  999MOL0     H31868   3.032   1.374   7.753  1.7396  0.5962 -0.4648
 1000MOL0     O31869   3.576   5.533   4.327  0.0623 -0.4214  0.1775
 1000MOL0     C31870   3.517   5.498   4.426 -1.1548  0.7931  0.2751
 1000MOL0     O31871   3.551   5.539   4.549  0.9992 -0.9991  0.2298
 1000MOL0     C31872   3.673   5.600   4.570 -0.4132 -0.2164 -0.7855
 1000MOL0     C31873   3.683   5.691   4.677  0.1095 -0.6059 -0.0747
 1000MOL0     C31874   3.803   5.746   4.718  0.7771 -0.0116 -0.1904
 1000MOL0     C31875   3.917   5.732   4.647  0.0072  0.1728  0.6680
 1000MOL0     O31876   4.038   5.793   4.686 -0.8523 -0.7201 -0.1831
 1000MOL0     C31877   4.043   5.937   4.701 -0.1463 -0.4965 -0.0241
 1000MOL0     C31878   4.195   5.983   4.704 -0.1839  0.7518 -0.2320
 1000MOL0     C31879   4.262   5.936   4.572 -0.1291  0.3654 -0.1186
 1000MOL0     C31880   4.393   6.013   4.537 -0.0113  0.9517 -0.5245
 1000MOL0     C31881   4.469   5.953   4.420 -0.2614 -0.5318  0.3375
 1000MOL0     C31882   4.395   5.939   4.292 -0.2696 -0.2785 -0.4154
 1000MOL0     C31883   4.491   5.931   4.174  0.0921  0.8344 -0.1360
 1000MOL0     C31884   4.422   5.897   4.042 -0.4241  0.1898  0.8576
 1000MOL0     N31885   4.358   6.015   3.988  0.1460  0.3467  0.8005
 1000MOL0     C31886   4.231   6.043   4.009  0.1559 -0.1207 -0.1396
 1000MOL0     C31887   4.202   6.146   3.929 -0.1891  0.3486 -1.5305
 1000MOL0     C31888   4.072   6.214   3.908  0.3953  0.7156  0.6532
 1000MOL0     C31889   3.938   6.136   3.880 -0.0156  0.0470 -0.3349
 1000MOL0     C31890   3.850   6.188   3.763  0.1843  0.7964 -0.5023
 1000MOL0     C31891   3.743   6.286   3.788  1.0171 -0.1285 -0.4513
 1000MOL0     O31892   3.655   6.240   3.899 -0.3421 -0.9337  0.4266
 1000MOL0     C31893   3.534   6.294   3.912  0.0511 -1.5901 -0.0642
 1000MOL0     C31894   3.466   6.242   4.018  0.1518 -0.2575  0.1225
 1000MOL0     C31895   3.331   6.272   4.040  0.4871  0.7426  0.4171
 1000MOL0     C31896   3.267   6.362   3.955 -0.5035  0.7137  0.3375
 1000MOL0     C31897   3.117   6.374   3.976  0.9921 -0.1927 -0.3287
 1000MOL0     O31898   3.063   6.486   3.930  0.5226 -0.0199  0.1916
 1000MOL0     C31899   2.940   6.530   3.978 -0.0783 -0.7348  0.0692
 1000MOL0     C31900   2.829   6.505   3.899  0.1965  0.2014 -0.1593
 1000MOL0     C31901   2.705   6.558   3.938  0.2407  0.5909  0.3575
 1000MOL0     C31902   2.703   6.645   4.047 -0.1141 -0.3173  0.5066
 1000MOL0     O31903   2.586   6.712   4.075 -0.2140 -0.2693 -0.0351
 1000MOL0     C31904   2.534   6.703   4.211  0.6988 -0.2796  0.9285
 1000MOL0     C31905   2.394   6.647   4.211 -0.4793  0.2665 -0.2671
 1000MOL0     C31906   2.300   6.741   4.132 -0.2244  0.1813  0.4734
 1000MOL0     C31907   2.158   6.703   4.151  0.4559 -0.4553  0.2485
 1000MOL0     C31908   2.136   6.567   4.097  0.1998  0.4954  0.7725
 1000MOL0     C31909   2.010   6.559   4.009 -0.1911 -0.4092  0.4162
 1000MOL0     C31910   1.988   6.411   3.957  0.5686 -1.1795  0.4031
 1000MOL0     C31911   1.872   6.402   3.853 -0.6594  0.3064 -0.1968
 1000MOL0    Cl31912   1.736   6.506   3.913  0.2402 -0.2867 -0.1740
 1000MOL0     C31913   2.820   6.678   4.110 -0.5615 -0.3485  0.3208
 1000MOL0     C31914   2.938   6.616   4.079  0.2889 -0.4900 -0.6278
 1000MOL0     O31915   3.056   6.295   4.048 -0.6983 -0.0537 -0.2325
 1000MOL0     C31916   3.344   6.420   3.852  0.6897  0.0524 -0.2461
 1000MOL0     C31917   3.475   6.381   3.826 -0.2781 -0.8144 -0.0586
 1000MOL0     N31918   4.320   6.180   3.872 -0.5817  0.7368  0.1067
 1000MOL0     N31919   4.413   6.102   3.897  0.6358 -0.4211 -0.2823
 1000MOL0     C31920   3.917   5.648   4.535  0.6144 -0.3995 -0.7287
 1000MOL0     C31921   3.803   5.580   4.503  0.6291 -0.3212  0.1681
 1000MOL0     C31922   3.382   5.434   4.404  0.0110  0.2584 -0.0696
 1000MOL0     C31923   3.284   5.426   4.505 -0.5766  0.4574  0.2804
 1000MOL0     C31924   3.156   5.380   4.494  0.1655  0.3403 -0.1550
 1000MOL0     C31925   3.122   5.319   4.371  0.2991 -0.2956 -0.3218
 1000MOL0     O31926   2.999   5.267   4.328 -0.5618  0.1904  0.7347
 1000MOL0     C31927   2.907   5.260   4.432 -0.2637  0.3495  0.2454
 1000MOL0     C31928   2.798   5.167   4.371 -0.0439 -0.4382 -0.6725
 1000MOL0     C31929   2.666   5.206   4.445 -0.8376 -0.4370 -0.3263
 1000MOL0     C31930   2.537   5.131   4.398  0.4876  0.4388 -0.1845
 1000MOL0     C31931   2.518   5.153   4.255  0.2893  0.1834 -0.1858
 1000MOL0     C31932   2.515   5.169   4.133 -0.4272  0.4681 -0.7993
 1000MOL0     C31933   3.217   5.316   4.270 -0.3006 -0.8337 -0.3767
 1000MOL0     C31934   3.348   5.365   4.284 -0.6264 -0.1869  0.2771
 1000MOL0     H31935   3.593   5.720   4.730  1.0799  1.7311  0.4035
 1000MOL0     H31936   3.813   5.812   4.803 -0.4055  0.3124 -0.2762
 1000MOL0     H31937   4.005   5.971   4.798  2.4342  1.8451  0.2935
 1000MOL0     H31938   3.982   5.988   4.626 -2.8362  1.8011  3.3554
 1000MOL0     H31939   4.236   5.926   4.788 -0.5781 -0.6286 -0.9406
 1000MOL0     H31940   4.199   6.092   4.714  0.8840  0.8157 -1.1066
 1000MOL0     H31941   4.188   5.959   4.494  0.2923  2.5691  0.0772
 1000MOL0     H31942   4.280   5.829   4.556 -2.1624 -0.2750  1.3661
 1000MOL0     H31943   4.348   6.112   4.526 -0.4388  1.0205  1.4402
 1000MOL0     H31944   4.457   6.016   4.626 -0.4847 -2.1316  0.0521
 1000MOL0     H31945   4.513   5.854   4.435  1.6930  0.3354  0.4999
 1000MOL0     H31946   4.543   6.029   4.398 -1.2564  0.6282  0.8721
 1000MOL0     H31947   4.343   6.034   4.273  1.6222  1.3081  1.7480
 1000MOL0     H31948   4.341   5.845   4.286  0.8536 -0.9158 -0.7597
 1000MOL0     H31949   4.533   6.032   4.169  0.0915  1.0380  2.6081
 1000MOL0     H31950   4.574   5.861   4.189  0.3015  1.6488  3.3429
 1000MOL0     H31951   4.351   5.814   4.045 -0.8278  0.3997 -1.3189
 1000MOL0     H31952   4.498   5.864   3.971 -1.1352  1.6983 -0.6823
 1000MOL0     H31953   4.162   5.985   4.069  1.3922 -1.1532  0.3458
 1000MOL0     H31954   4.093   6.270   3.816  2.5613  0.9486  1.2366
 1000MOL0     H31955   4.064   6.290   3.987  0.5647 -1.3154  2.7298
 1000MOL0     H31956   3.870   6.124   3.965 -1.0649  0.7351 -1.0537
 1000MOL0     H31957   3.966   6.030   3.869 -1.4597 -0.2981 -0.9948
 1000MOL0     H31958   3.910   6.228   3.681  0.0250 -1.2022 -1.6782
 1000MOL0     H31959   3.806   6.092   3.734 -0.1893  0.3168  1.4940
 1000MOL0     H31960   3.694   6.298   3.692  3.4357 -0.1731 -1.7649
 1000MOL0     H31961   3.789   6.382   3.813 -0.2992 -0.0759  2.1793
 1000MOL0     H31962   3.505   6.159   4.076 -1.0986 -1.0368 -0.1060
 1000MOL0     H31963   3.270   6.239   4.123 -1.7989  1.3480 -0.9013
 1000MOL0     H31964   2.827   6.444   3.809 -0.8838 -0.8803  0.5639
 1000MOL0     H31965   2.613   6.533   3.886  0.7132  0.8131 -0.5992
 1000MOL0     H31966   2.523   6.802   4.256  2.1935 -0.3271  1.4777
 1000MOL0     H31967   2.606   6.651   4.275  1.1585 -1.6511 -0.6263
 1000MOL0     H31968   2.377   6.640   4.319  2.1517 -1.0918  0.1423
 1000MOL0     H31969   2.394   6.545   4.171  1.1183  0.1758 -0.1039
 1000MOL0     H31970   2.336   6.751   4.030 -1.5916 -2.2862 -0.3302
 1000MOL0     H31971   2.296   6.845   4.168 -2.0705  1.6336 -3.3807
 1000MOL0     H31972   2.133   6.702   4.257  0.2564  1.3285  0.2521
 1000MOL0     H31973   2.084   6.772   4.109  0.4015 -1.1320 -0.8069
 1000MOL0     H31974   2.135   6.497   4.182 -2.6485  0.7628  1.0416
 1000MOL0     H31975   2.212   6.534   4.025 -1.5172  1.0519 -1.3774
 1000MOL0     H31976   2.031   6.628   3.926  0.1935 -0.0680  0.7972
 1000MOL0     H31977   1.925   6.593   4.068  0.7276  3.4843 -0.2292
 1000MOL0     H31978   2.083   6.387   3.908  0.4071 -3.1559  1.0014
 1000MOL0     H31979   1.978   6.346   4.044  1.7761 -1.7718  0.1191
 1000MOL0     H31980   1.847   6.295   3.851 -0.8822  0.3638 -0.5123
 1000MOL0     H31981   1.896   6.438   3.752  2.2936  0.3035  0.4211
 1000MOL0     H31982   2.832   6.743   4.196  1.7322  0.0148 -0.1969
 1000MOL0     H31983   3.029   6.623   4.138 -0.9294  2.1818  1.1187
 1000MOL0     H31984   3.290   6.481   3.780  0.5385  0.5435  0.2768
 1000MOL0     H31985   3.527   6.413   3.736  0.5806  0.3612  0.8031
 1000MOL0     H31986   4.001   5.648   4.466 -0.0386  1.3433 -1.6013
 1000MOL0     H31987   3.816   5.514   4.418  0.4353 -1.8996  1.3089
 1000MOL0     H31988   3.322   5.459   4.601  1.0510  4.0690 -1.4118
 1000MOL0     H31989   3.105   5.367   4.589  0.7006 -1.9769 -0.1291
 1000MOL0     H31990   2.861   5.359   4.439 -1.1941  0.0929 -1.4967
 1000MOL0     H31991   2.938   5.229   4.531 -0.2631 -0.3296  0.0358
 1000MOL0     H31992   2.797   5.193   4.265  3.2871  1.6176 -0.3425
 1000MOL0     H31993   2.826   5.063   4.390 -1.3213 -0.7311 -0.2913
 1000MOL0     H31994   2.646   5.312   4.427 -0.1425 -0.6317 -2.5280
 1000MOL0     H31995   2.676   5.187   4.553  1.2473 -3.0216 -0.8708
 1000MOL0     H31996   2.566   5.026   4.404  1.0251  0.1383 -4.6972
 1000MOL0     H31997   2.454   5.166   4.461  3.3856  1.1296  3.5956
 1000MOL0     H31998   2.530   5.163   4.028  6.4680 -2.5318 -0.1510
 1000MOL0     H31999   3.175   5.282   4.176  2.3376 -1.7246 -1.3412
 1000MOL0     H32000   3.414   5.353   4.198  1.3598 -0.0736  1.7181
 1001MOL0     O32001  10.933   8.482  10.062 -0.6745  0.2304 -0.3509
 1001MOL0     C32002  10.913   8.413   9.964 -0.2807 -0.6425  0.0518
 1001MOL0     O32003  10.790   8.392   9.911  0.1632 -0.2532 -0.2142
 1001MOL0     C32004  10.697   8.484   9.954  0.4424  0.6045 -0.7036
 1001MOL0     C32005  10.615   8.455  10.062  0.7847  0.5645  0.7354
 1001MOL0     C32006  10.512   8.545  10.102  0.1036 -0.8640 -0.1844
 1001MOL0     C32007  10.497   8.672  10.035  0.4383  0.0038 -0.0578
 1001MOL0     O32008  10.409   8.761  10.076 -0.1078  0.0766  0.0389
 1001MOL0     C32009  10.325   8.834   9.979 -0.1804 -1.0227 -0.4641
 1001MOL0     C32010  10.239   8.924  10.069 -0.1997  0.3706  0.2038
 1001MOL0     C32011  10.108   8.968   9.997 -0.0712 -0.4564  0.1084
 1001MOL0     C32012  10.017   9.036  10.098 -0.6269 -0.0858 -0.6775
 1001MOL0     C32013   9.893   9.093  10.039  0.5270 -0.1718 -0.2587
 1001MOL0     C32014   9.777   9.010  10.066 -0.5972  0.5037  0.3717
 1001MOL0     C32015   9.656   9.052   9.998 -0.3444 -0.4484 -1.0223
 1001MOL0     C32016   9.554   8.936   9.992 -0.1942 -0.7916  0.2457
 1001MOL0     N32017   9.425   9.003   9.972 -0.1023  0.2780 -0.2155
 1001MOL0     C32018   9.356   9.095  10.062  0.6373  0.7454 -0.3426
 1001MOL0     C32019   9.242   9.121   9.992  0.2472 -0.4559 -1.0141
 1001MOL0     C32020   9.129   9.209  10.031  0.2654  0.0235 -0.4318
 1001MOL0     C32021   9.064   9.133  10.154  0.2019  0.8553  0.2315
 1001MOL0     C32022   8.941   9.215  10.219  0.8612  0.3020  0.4295
 1001MOL0     C32023   8.808   9.221  10.137  0.8240 -0.2501  0.3555
 1001MOL0     O32024   8.700   9.194  10.224 -0.2477  0.5499  0.0849
 1001MOL0     C32025   8.571   9.189  10.174 -0.1797 -0.1075 -0.2316
 1001MOL0     C32026   8.535   9.171  10.037  0.1899 -0.4358 -0.0449
 1001MOL0     C32027   8.404   9.151   9.988 -1.0458 -0.0481 -0.6353
 1001MOL0     C32028   8.302   9.152  10.081 -0.0723  0.0956 -0.0936
 1001MOL0     C32029   8.156   9.157  10.042 -0.1809 -0.3216  0.7480
 1001MOL0     O32030   8.061   9.191  10.144  0.2027  0.2597  0.4205
 1001MOL0     C32031   7.930   9.164  10.116  0.4552  0.0985  0.2674
 1001MOL0     C32032   7.863   9.075  10.208  0.1571 -0.3476 -0.4851
 1001MOL0     C32033   7.724   9.060  10.206 -1.0286  0.4181  0.2601
 1001MOL0     C32034   7.650   9.123  10.107 -0.2844 -0.6537 -0.3059
 1001MOL0     O32035   7.513   9.125  10.094  0.4750 -0.2839 -0.2465
 1001MOL0     C32036   7.439   9.046  10.179  0.1472  0.7936  0.1655
 1001MOL0     C32037   7.292   9.060  10.148  0.4621  0.4177  1.2296
 1001MOL0     C32038   7.260   9.025  10.005  0.0323 -0.5362  0.4124
 1001MOL0     C32039   7.104   9.044   9.976  0.0724 -0.0384 -0.6675
 1001MOL0     C32040   7.073   9.012   9.826 -0.0829  0.0976 -0.4667
 1001MOL0     C32041   6.919   9.012   9.809  0.2114  0.1354  0.0883
 1001MOL0     C32042   6.861   9.151   9.796  0.5911 -0.7788 -0.5444
 1001MOL0     C32043   6.712   9.141   9.789 -0.4669 -0.4571 -0.5942
 1001MOL0    Cl32044   6.648   9.079   9.633  0.3732 -0.1185 -0.3695
 1001MOL0     C32045   7.720   9.193  10.007 -0.0905 -0.4723  0.4717
 1001MOL0     C32046   7.860   9.211  10.013 -0.4798 -1.0197 -0.4104
 1001MOL0     O32047   8.131   9.137   9.922  0.5997  0.1978  0.3630
 1001MOL0     C32048   8.332   9.174  10.219 -0.5173 -0.2094 -0.0018
 1001MOL0     C32049   8.465   9.198  10.266  0.1143  0.0918  0.4399
 1001MOL0     N32050   9.253   9.063   9.871  0.7681  0.7080  0.5347
 1001MOL0     N32051   9.356   8.991   9.857 -0.5552  0.5291  0.1747
 1001MOL0     C32052  10.571   8.680   9.915  0.2078 -0.8198 -0.2550
 1001MOL0     C32053  10.667   8.583   9.873 -0.9646 -0.8804  0.6226
 1001MOL0     C32054  11.036   8.360   9.893 -0.5126 -0.3866 -0.5971
 1001MOL0     C32055  11.038   8.343   9.756  0.1401  0.0315 -0.4540
 1001MOL0     C32056  11.161   8.320   9.694  0.0659 -0.1997  0.8081
 1001MOL0     C32057  11.277   8.316   9.750 -0.4954 -0.5664 -0.4206
 1001MOL0     O32058  11.387   8.304   9.676  0.4105 -0.1434  0.8022
 1001MOL0     C32059  11.511   8.294   9.738 -0.0153  0.0117 -0.7515
 1001MOL0     C32060  11.548   8.152   9.764 -0.5528  0.0616  0.0945
 1001MOL0     C32061  11.697   8.136   9.803 -0.0526  0.2987  0.6277
 1001MOL0     C32062  11.815   8.195   9.722  0.3239 -0.0805  0.5564
 1001MOL0     C32063  11.847   8.338   9.733 -0.1703 -0.5568  0.5645
 1001MOL0     C32064  11.895   8.453   9.734  0.2530 -0.5960  0.3229
 1001MOL0     C32065  11.279   8.327   9.887  0.4283  0.3707  0.0129
 1001MOL0     C32066  11.161   8.351   9.959  0.2297  0.0533  0.0358
 1001MOL0     H32067  10.616   8.358  10.111 -1.0165 -0.3493 -0.8825
 1001MOL0     H32068  10.452   8.519  10.189  0.6202 -1.3393  0.0340
 1001MOL0     H32069  10.265   8.766   9.919 -0.2658  0.5916 -2.2992
 1001MOL0     H32070  10.386   8.901   9.918 -0.9684 -0.4301 -0.6245
 1001MOL0     H32071  10.300   9.006  10.106  2.5916 -1.6510  0.4651
 1001MOL0     H32072  10.206   8.872  10.159  0.1120 -1.0873 -0.4728
 1001MOL0     H32073  10.047   8.887   9.957 -2.0025  1.2031 -0.4800
 1001MOL0     H32074  10.137   9.041   9.921 -0.4952  1.5048  1.7523
 1001MOL0     H32075   9.990   8.951  10.161  1.6573  0.0579  0.6300
 1001MOL0     H32076  10.068   9.115  10.154 -0.3231 -1.8395  1.6498
 1001MOL0     H32077   9.911   9.095   9.931  0.9800 -1.8813 -0.2562
 1001MOL0     H32078   9.880   9.195  10.074  0.9882  0.3207 -1.4525
 1001MOL0     H32079   9.743   9.008  10.170 -0.9332 -1.7652  0.2620
 1001MOL0     H32080   9.803   8.909  10.032  1.2047  1.6831 -2.0515
 1001MOL0     H32081   9.614   9.145  10.038 -1.7100 -0.7787 -1.6093
 1001MOL0     H32082   9.678   9.067   9.892  0.1723 -1.9565 -1.1613
 1001MOL0     H32083   9.548   8.881  10.086 -5.5091 -0.1179  0.6179
 1001MOL0     H32084   9.590   8.868   9.914  1.9525 -0.0347  0.4897
 1001MOL0     H32085   9.381   9.119  10.165  0.7661 -0.7956  0.0098
 1001MOL0     H32086   9.062   9.222   9.945  1.6305 -1.3107 -1.7798
 1001MOL0     H32087   9.171   9.304  10.062  0.1100  0.1661 -0.6505
 1001MOL0     H32088   9.139   9.134  10.234  0.2848  0.0065  0.1700
 1001MOL0     H32089   9.036   9.029  10.134  1.4068  0.6652 -0.5888
 1001MOL0     H32090   8.923   9.171  10.317 -1.9598 -0.3519 -0.2796
 1001MOL0     H32091   8.972   9.318  10.242  2.3115 -0.5117  2.3360
 1001MOL0     H32092   8.809   9.143  10.060  0.1163  0.0681  0.0219
 1001MOL0     H32093   8.790   9.323  10.104 -0.1065 -0.0553  1.4389
 1001MOL0     H32094   8.607   9.155   9.957 -0.2650  1.6945 -0.9558
 1001MOL0     H32095   8.393   9.122   9.884  1.8259  2.3200 -1.7306
 1001MOL0     H32096   7.922   9.031  10.288  0.1123 -0.1247 -0.3280
 1001MOL0     H32097   7.672   8.999  10.279  0.5543 -3.0693 -1.2924
 1001MOL0     H32098   7.462   9.072  10.283  0.3997 -0.5926  0.4796
 1001MOL0     H32099   7.452   8.939  10.162 -0.5979  0.6611  0.3625
 1001MOL0     H32100   7.256   9.162  10.162 -0.8232  0.2415 -0.5101
 1001MOL0     H32101   7.230   9.005  10.219 -1.1427  1.5084  0.7245
 1001MOL0     H32102   7.280   8.920   9.981 -0.4601 -0.8721  1.3952
 1001MOL0     H32103   7.314   9.095   9.941 -0.9277  0.6880  0.8841
 1001MOL0     H32104   7.056   8.964  10.033  2.0486 -1.3296 -0.7196
 1001MOL0     H32105   7.073   9.146   9.997  0.4395 -0.5705  3.0584
 1001MOL0     H32106   7.106   8.913   9.792  0.2823 -0.3706  1.1538
 1001MOL0     H32107   7.127   9.077   9.758  0.8327  0.7137  0.8038
 1001MOL0     H32108   6.868   8.956   9.888  0.7250 -4.0963 -2.2786
 1001MOL0     H32109   6.907   8.959   9.714  0.3249  2.8181 -1.5237
 1001MOL0     H32110   6.879   9.212   9.885  0.3097 -0.3614 -0.7664
 1001MOL0     H32111   6.907   9.209   9.715 -0.8987  0.1761 -0.7426
 1001MOL0     H32112   6.662   9.239   9.793 -0.2643 -0.3869  1.0997
 1001MOL0     H32113   6.676   9.084   9.875 -0.9543  3.0012  1.7118
 1001MOL0     H32114   7.666   9.230   9.921 -1.2148  1.3516  1.8720
 1001MOL0     H32115   7.911   9.272   9.939 -0.4729  0.5496  0.8306
 1001MOL0     H32116   8.250   9.186  10.288 -1.7353  2.9415 -1.7983
 1001MOL0     H32117   8.479   9.216  10.372 -2.6919  0.8588  0.7689
 1001MOL0     H32118  10.562   8.778   9.869  0.6181  0.6193  2.5301
 1001MOL0     H32119  10.732   8.604   9.789  1.6052  0.8251  2.8425
 1001MOL0     H32120  10.944   8.351   9.702  0.2586  2.0713 -0.4348
 1001MOL0     H32121  11.149   8.302   9.587 -1.2325 -2.4829  1.2677
 1001MOL0     H32122  11.535   8.364   9.818  1.3905  1.3215 -2.2507
 1001MOL0     H32123  11.576   8.339   9.662 -0.0567  4.1484  1.3919
 1001MOL0     H32124  11.494   8.117   9.852  1.4610 -2.0836  0.5597
 1001MOL0     H32125  11.511   8.097   9.677 -1.7819  0.4268  0.3644
 1001MOL0     H32126  11.724   8.032   9.824  2.2805  1.5094  5.1017
 1001MOL0     H32127  11.708   8.180   9.903  0.5699 -0.9733  1.1417
 1001MOL0     H32128  11.905   8.142   9.753  1.5817  1.6488  0.0195
 1001MOL0     H32129  11.809   8.166   9.616  2.6608  1.6478 -0.1183
 1001MOL0     H32130  11.927   8.555   9.731 -1.5984  0.0118 -1.9934
 1001MOL0     H32131  11.359   8.334   9.960 -1.6537  1.7906  2.2993
 1001MOL0     H32132  11.167   8.359  10.067  0.8474 -3.0893  0.3322
 1002MOL0     O32133   6.731   6.738   1.919  0.2153 -0.6877 -0.2607
 1002MOL0     C32134   6.713   6.833   1.846 -1.3443 -0.1179  0.0967
 1002MOL0     O32135   6.586   6.883   1.808  0.1610  1.0439 -0.5084
 1002MOL0     C32136   6.473   6.825   1.858 -0.1387  0.1412 -0.5644
 1002MOL0     C32137   6.376   6.779   1.769  0.5968 -0.1356  0.6534
 1002MOL0     C32138   6.255   6.730   1.823 -0.0130 -0.4343  0.0489
 1002MOL0     C32139   6.237   6.733   1.965 -0.7551 -0.3010 -0.0235
 1002MOL0     O32140   6.121   6.697   2.028 -0.0554  0.3253 -0.2979
 1002MOL0     C32141   6.008   6.649   1.951  0.8741  0.0393  0.0289
 1002MOL0     C32142   5.905   6.632   2.062 -0.5260 -0.4013 -0.0106
 1002MOL0     C32143   5.766   6.577   2.017  0.3994 -0.5595 -0.3431
 1002MOL0     C32144   5.659   6.608   2.126 -0.7621  0.4674  0.3301
 1002MOL0     C32145   5.526   6.567   2.077 -0.0204  0.6611  0.9864
 1002MOL0     C32146   5.417   6.609   2.176 -0.5034 -0.2863 -0.0765
 1002MOL0     C32147   5.289   6.541   2.142 -0.2171  0.5518 -0.2762
 1002MOL0     C32148   5.206   6.562   2.271  0.4004 -0.5807  0.2239
 1002MOL0     N32149   5.075   6.514   2.237 -0.5317 -0.6243  0.8052
 1002MOL0     C32150   5.041   6.384   2.217 -0.1407  0.6055  0.1176
 1002MOL0     C32151   4.904   6.383   2.201  0.8363  0.0248  0.5624
 1002MOL0     C32152   4.799   6.278   2.183  0.7266  0.7789 -0.9779
 1002MOL0     C32153   4.701   6.277   2.295  0.3706 -0.0437 -0.9702
 1002MOL0     C32154   4.603   6.166   2.286  0.1928  0.9651 -0.4675
 1002MOL0     C32155   4.479   6.195   2.368  0.0770  0.0741  1.0086
 1002MOL0     O32156   4.391   6.078   2.358 -0.4358 -0.1960  0.5875
 1002MOL0     C32157   4.262   6.097   2.395  1.1303 -0.2535  0.1551
 1002MOL0     C32158   4.214   6.213   2.464 -0.4587 -0.4780  0.1083
 1002MOL0     C32159   4.075   6.244   2.476 -0.4691 -1.0008  0.3891
 1002MOL0     C32160   3.976   6.150   2.444  0.1133 -0.0173  0.5774
 1002MOL0     C32161   3.838   6.180   2.464 -0.1966 -0.1449  0.3094
 1002MOL0     O32162   3.752   6.077   2.442 -0.1568  0.7776  0.1862
 1002MOL0     C32163   3.619   6.093   2.464 -0.3344  0.1925  0.0328
 1002MOL0     C32164   3.549   6.003   2.533  0.7435 -0.7690  1.2138
 1002MOL0     C32165   3.409   6.011   2.539 -0.1026 -0.2841 -0.8190
 1002MOL0     C32166   3.344   6.127   2.497 -1.3207 -0.0060  0.4779
 1002MOL0     O32167   3.206   6.138   2.491 -0.0074  0.7541 -0.6500
 1002MOL0     C32168   3.140   6.073   2.379  1.0162  1.0359  0.1652
 1002MOL0     C32169   2.988   6.103   2.405 -0.4521 -0.0414 -0.8161
 1002MOL0     C32170   2.912   6.108   2.271 -0.4131 -0.0122 -0.4622
 1002MOL0     C32171   2.762   6.111   2.288  0.6622  0.2085  0.6043
 1002MOL0     C32172   2.710   6.180   2.153 -0.5184 -0.4685 -0.4887
 1002MOL0     C32173   2.560   6.142   2.141 -0.0857 -0.2074 -0.1235
 1002MOL0     C32174   2.477   6.210   2.248 -0.7789 -0.2452 -0.4208
 1002MOL0     C32175   2.432   6.361   2.230  0.5856 -0.0792  0.9672
 1002MOL0    Cl32176   2.363   6.398   2.068 -0.0570  0.1332  0.0720
 1002MOL0     C32177   3.417   6.218   2.420 -0.3146  0.0043 -0.3659
 1002MOL0     C32178   3.554   6.199   2.402 -0.2496  0.5711 -0.1743
 1002MOL0     O32179   3.800   6.297   2.500 -0.7307  0.1306 -1.2126
 1002MOL0     C32180   4.021   6.034   2.381 -0.3798  0.1237  0.6186
 1002MOL0     C32181   4.158   6.020   2.351  0.4702  0.2894 -1.4291
 1002MOL0     N32182   4.870   6.515   2.198 -0.3274  0.1244  0.1570
 1002MOL0     N32183   4.961   6.589   2.220 -0.4486 -0.2403  0.9057
 1002MOL0     C32184   6.339   6.779   2.046 -0.6088 -0.3054 -0.3064
 1002MOL0     C32185   6.460   6.819   1.993  0.0889  0.6971  0.3993
 1002MOL0     C32186   6.828   6.890   1.774 -0.2030  0.2678  0.2156
 1002MOL0     C32187   6.813   6.959   1.655 -0.2607  0.3848 -0.3284
 1002MOL0     C32188   6.921   7.021   1.586 -0.4309 -0.0932 -0.8673
 1002MOL0     C32189   7.050   7.032   1.650 -0.4001  0.3266  0.7468
 1002MOL0     O32190   7.163   7.094   1.598  0.0140 -1.1655 -0.1507
 1002MOL0     C32191   7.146   7.214   1.532  0.7507 -0.1302  0.3638
 1002MOL0     C32192   7.283   7.265   1.519  0.1068 -0.2643 -0.1456
 1002MOL0     C32193   7.296   7.377   1.411 -0.2467  0.1127 -0.3696
 1002MOL0     C32194   7.445   7.431   1.413  0.3150  0.1540 -0.3262
 1002MOL0     C32195   7.490   7.491   1.287  0.5163 -0.8113  0.4637
 1002MOL0     C32196   7.515   7.539   1.178 -0.3226 -0.7086  0.5932
 1002MOL0     C32197   7.059   6.975   1.777 -0.2252 -0.6741 -0.1377
 1002MOL0     C32198   6.953   6.903   1.836  0.6143  0.4695  0.3652
 1002MOL0     H32199   6.373   6.777   1.660 -4.3864 -0.2676  0.5537
 1002MOL0     H32200   6.171   6.698   1.762 -0.8692  0.5321  0.6791
 1002MOL0     H32201   6.027   6.559   1.891  1.3903  0.0278  0.2060
 1002MOL0     H32202   5.958   6.719   1.884 -0.1951  0.3221  1.0849
 1002MOL0     H32203   5.888   6.730   2.110 -1.0615 -0.4818 -0.0243
 1002MOL0     H32204   5.948   6.555   2.126 -0.2088 -1.2308 -1.1963
 1002MOL0     H32205   5.764   6.469   1.999 -3.1687 -0.9651  1.5711
 1002MOL0     H32206   5.737   6.629   1.925 -1.2106 -1.5720 -0.4523
 1002MOL0     H32207   5.680   6.548   2.215 -2.1034 -1.7635 -0.7781
 1002MOL0     H32208   5.669   6.711   2.159  0.5709 -0.5455  3.5035
 1002MOL0     H32209   5.522   6.457   2.080 -2.5827  0.7256  2.1366
 1002MOL0     H32210   5.506   6.608   1.978 -0.5505 -1.2993  0.2217
 1002MOL0     H32211   5.394   6.715   2.173 -0.8720 -0.3449  0.4707
 1002MOL0     H32212   5.438   6.586   2.282 -1.5265 -1.1503 -0.0435
 1002MOL0     H32213   5.237   6.583   2.055 -2.3322 -0.4141  0.4693
 1002MOL0     H32214   5.315   6.436   2.122  1.0637  1.0648 -1.5305
 1002MOL0     H32215   5.208   6.668   2.298 -1.1501 -0.6840  0.8381
 1002MOL0     H32216   5.236   6.501   2.356 -0.5471  0.0921  1.0606
 1002MOL0     H32217   5.098   6.292   2.228 -3.7514 -1.7459  1.1403
 1002MOL0     H32218   4.842   6.178   2.179 -1.3698 -0.2776  0.5785
 1002MOL0     H32219   4.746   6.298   2.090 -1.6638  3.6921  0.8088
 1002MOL0     H32220   4.661   6.378   2.300  0.6956  0.1192 -1.6475
 1002MOL0     H32221   4.752   6.258   2.391  0.3025  0.8436 -0.7552
 1002MOL0     H32222   4.573   6.172   2.181 -2.3107 -2.4032 -0.1336
 1002MOL0     H32223   4.640   6.065   2.308  0.6543 -0.1897 -5.4325
 1002MOL0     H32224   4.438   6.289   2.331  1.2783  0.2028 -0.0341
 1002MOL0     H32225   4.508   6.218   2.471  1.2767 -0.2316  0.7464
 1002MOL0     H32226   4.270   6.295   2.507 -3.3373  0.8608  1.6061
 1002MOL0     H32227   4.039   6.338   2.516 -0.4248  0.0638 -1.9313
 1002MOL0     H32228   3.589   5.910   2.572 -1.6717 -1.0879  3.2342
 1002MOL0     H32229   3.352   5.931   2.584  2.6202 -0.2797  3.1492
 1002MOL0     H32230   3.164   5.966   2.378 -2.6126  0.0815 -1.6426
 1002MOL0     H32231   3.179   6.114   2.286  2.6092 -0.9176 -0.1157
 1002MOL0     H32232   2.982   6.190   2.471  1.0950 -2.0326  2.2190
 1002MOL0     H32233   2.956   6.015   2.461  0.6466  0.3597  0.4926
 1002MOL0     H32234   2.941   6.024   2.207  0.3872  2.0279 -2.9584
 1002MOL0     H32235   2.935   6.201   2.218  0.5576 -0.9497 -1.7335
 1002MOL0     H32236   2.722   6.010   2.300  0.5963  0.2393  0.6503
 1002MOL0     H32237   2.745   6.173   2.376  2.7760 -0.6405  1.6829
 1002MOL0     H32238   2.767   6.133   2.072  2.5342  2.3230 -0.1795
 1002MOL0     H32239   2.722   6.289   2.156 -0.6160 -0.4767  1.1710
 1002MOL0     H32240   2.544   6.034   2.146 -0.9404 -0.1405 -1.0090
 1002MOL0     H32241   2.524   6.171   2.042  0.9574 -1.1837 -0.8154
 1002MOL0     H32242   2.382   6.157   2.233 -0.3507 -1.1680 -0.0186
 1002MOL0     H32243   2.507   6.187   2.351  0.9932 -4.3474 -1.6137
 1002MOL0     H32244   2.514   6.434   2.236  0.4325  0.0250  1.7965
 1002MOL0     H32245   2.359   6.378   2.309 -1.9296 -1.3857 -0.9613
 1002MOL0     H32246   3.367   6.300   2.370  1.0830  0.8029 -0.5113
 1002MOL0     H32247   3.610   6.263   2.335  1.3386 -1.2727 -0.7219
 1002MOL0     H32248   3.961   5.956   2.336  1.5394  1.4766 -5.1596
 1002MOL0     H32249   4.187   5.931   2.295  0.3049 -0.7748  0.1050
 1002MOL0     H32250   6.323   6.787   2.153 -0.7213  2.1999 -0.4471
 1002MOL0     H32251   6.537   6.847   2.063  1.0486  1.0661 -0.7685
 1002MOL0     H32252   6.714   6.960   1.610 -1.5417 -0.2580  2.3156
 1002MOL0     H32253   6.903   7.055   1.485  0.7417 -0.0558 -1.0812
 1002MOL0     H32254   7.086   7.280   1.596  0.9506 -0.1084  0.5304
 1002MOL0     H32255   7.097   7.199   1.435  0.7038 -0.9440  0.5092
 1002MOL0     H32256   7.323   7.301   1.614 -1.3255 -0.0054  0.3886
 1002MOL0     H32257   7.355   7.193   1.480  1.7035 -1.4039  4.3734
 1002MOL0     H32258   7.226   7.455   1.441  0.1101  0.1572  0.3576
 1002MOL0     H32259   7.273   7.334   1.313 -1.2566  1.7580 -0.8987
 1002MOL0     H32260   7.453   7.495   1.502 -0.7161 -1.1402  0.7513
 1002MOL0     H32261   7.511   7.344   1.424 -0.9400 -0.7243  0.5072
 1002MOL0     H32262   7.521   7.580   1.080  2.0249 -0.4278  0.7939
 1002MOL0     H32263   7.152   6.991   1.831 -1.7002  2.5069  1.7876
 1002MOL0     H32264   6.973   6.851   1.929 -1.4918 -1.9040 -0.3808
 1003MOL0     O32265  10.201   6.924   0.539  0.0484 -0.4551 -0.6958
 1003MOL0     C32266  10.204   6.907   0.418 -0.3015 -0.0475  0.2981
 1003MOL0     O32267  10.107   6.926   0.327 -0.2155 -0.3824 -0.0977
 1003MOL0     C32268   9.978   6.959   0.366 -0.1628  0.3805  1.3750
 1003MOL0     C32269   9.914   7.079   0.316 -0.5708  0.0959  0.3172
 1003MOL0     C32270   9.786   7.110   0.356 -0.0617  0.4576  0.0918
 1003MOL0     C32271   9.715   7.030   0.445 -0.5265 -0.1149 -0.2332
 1003MOL0     O32272   9.592   7.074   0.474 -0.2266  0.2748  0.1927
 1003MOL0     C32273   9.494   6.983   0.534  0.0702 -0.5627 -0.8774
 1003MOL0     C32274   9.423   7.057   0.650 -0.6432 -0.1377 -0.0741
 1003MOL0     C32275   9.330   7.176   0.601  0.2718  0.2394  0.2034
 1003MOL0     C32276   9.222   7.222   0.706  0.5999 -0.4260  0.5426
 1003MOL0     C32277   9.162   7.359   0.669  0.5299 -0.3476  0.2631
 1003MOL0     C32278   9.067   7.414   0.775 -0.2991  0.3147 -0.8844
 1003MOL0     C32279   9.028   7.554   0.748 -0.3341 -0.2027  0.0743
 1003MOL0     C32280   8.922   7.616   0.843  0.3505 -0.8533 -0.2634
 1003MOL0     N32281   8.887   7.760   0.818  0.4686  1.2782  0.8389
 1003MOL0     C32282   8.757   7.792   0.789  0.7197  0.4766 -0.4678
 1003MOL0     C32283   8.754   7.929   0.782 -0.4114  0.4793 -0.7141
 1003MOL0     C32284   8.638   8.019   0.742 -0.2858 -0.4074  0.8085
 1003MOL0     C32285   8.500   7.969   0.783  1.0116  0.6090 -0.2330
 1003MOL0     C32286   8.400   8.080   0.799 -0.2370 -0.6598  0.5340
 1003MOL0     C32287   8.365   8.150   0.664 -0.4528  0.2529  0.1055
 1003MOL0     O32288   8.295   8.275   0.674 -0.3288 -0.7765 -0.0587
 1003MOL0     C32289   8.158   8.276   0.686  0.9640  0.2137 -0.0770
 1003MOL0     C32290   8.075   8.164   0.687 -0.3479  0.6020 -0.0042
 1003MOL0     C32291   7.938   8.178   0.711  0.4619  0.2085 -0.0235
 1003MOL0     C32292   7.875   8.300   0.703 -0.3152  0.2762 -0.9780
 1003MOL0     C32293   7.727   8.307   0.720 -0.1897  0.2329  0.6481
 1003MOL0     O32294   7.669   8.200   0.776  0.5978 -0.0477  0.1575
 1003MOL0     C32295   7.532   8.207   0.802  0.5889  0.4239  0.0994
 1003MOL0     C32296   7.464   8.089   0.767  0.3731 -0.0253  0.9266
 1003MOL0     C32297   7.324   8.080   0.783 -0.9285 -0.2728  0.5313
 1003MOL0     C32298   7.251   8.189   0.837  0.2810  0.3468 -0.7016
 1003MOL0     O32299   7.109   8.186   0.846 -0.0597  0.0409  0.2329
 1003MOL0     C32300   7.047   8.078   0.915  0.1816 -0.1750  0.5840
 1003MOL0     C32301   6.967   8.118   1.037  0.1615 -0.2797 -0.3491
 1003MOL0     C32302   6.858   8.213   0.998 -0.4419  0.3477  0.5630
 1003MOL0     C32303   6.787   8.273   1.119  0.2971  0.3135 -0.1947
 1003MOL0     C32304   6.687   8.376   1.079  0.0651 -0.1589  0.1397
 1003MOL0     C32305   6.615   8.447   1.195  0.0785 -0.3870 -0.1506
 1003MOL0     C32306   6.525   8.348   1.274  0.3199 -0.6289 -0.3794
 1003MOL0     C32307   6.395   8.311   1.204  0.4959  0.4697  0.6498
 1003MOL0    Cl32308   6.247   8.309   1.317 -0.1157  0.3611  0.1432
 1003MOL0     C32309   7.321   8.302   0.871  0.4854  0.2256  0.3749
 1003MOL0     C32310   7.459   8.314   0.854 -0.2754 -0.4439  0.1468
 1003MOL0     O32311   7.673   8.412   0.692 -0.3121 -0.3327 -0.1915
 1003MOL0     C32312   7.957   8.408   0.705 -0.5889  0.7413  1.0082
 1003MOL0     C32313   8.099   8.397   0.696 -0.4759  0.1729  0.4715
 1003MOL0     N32314   8.881   7.969   0.793 -0.3720  0.0208 -0.4440
 1003MOL0     N32315   8.959   7.870   0.830 -0.4775  0.8535 -0.3223
 1003MOL0     C32316   9.777   6.918   0.486 -0.4191  0.4794  1.1910
 1003MOL0     C32317   9.907   6.882   0.448  0.0318  0.7387  0.8680
 1003MOL0     C32318  10.341   6.863   0.378  0.4154  0.2659 -0.7434
 1003MOL0     C32319  10.400   6.931   0.270 -0.5047  0.6613  0.1042
 1003MOL0     C32320  10.527   6.903   0.230 -0.5547 -0.7460  0.7846
 1003MOL0     C32321  10.588   6.796   0.293 -0.2210  0.2869 -0.4933
 1003MOL0     O32322  10.703   6.766   0.242  0.6915  0.0467  0.3300
 1003MOL0     C32323  10.789   6.654   0.298 -0.2295 -0.6818  0.4070
 1003MOL0     C32324  10.737   6.516   0.254  0.1051  0.0126  0.8403
 1003MOL0     C32325  10.786   6.478   0.115  0.4573  0.3811  0.4042
 1003MOL0     C32326  10.754   6.333   0.085  0.5302  0.0488  0.1551
 1003MOL0     C32327  10.609   6.324   0.049  0.0290  0.3630  0.0209
 1003MOL0     C32328  10.499   6.279   0.017 -0.1377 -0.3931  0.2670
 1003MOL0     C32329  10.535   6.735   0.406 -0.5688 -0.5469  0.0906
 1003MOL0     C32330  10.410   6.768   0.453 -0.3881  0.4045  0.3694
 1003MOL0     H32331   9.956   7.147   0.243 -1.4216  0.4712  0.1634
 1003MOL0     H32332   9.728   7.191   0.311 -0.7716 -0.4121 -0.6213
 1003MOL0     H32333   9.535   6.886   0.565 -1.3778 -0.7937  0.4355
 1003MOL0     H32334   9.422   6.964   0.455 -1.9738  0.7997  0.5577
 1003MOL0     H32335   9.493   7.099   0.724 -0.3717  0.0957 -0.4582
 1003MOL0     H32336   9.372   6.979   0.707 -2.0150  1.9455  1.7246
 1003MOL0     H32337   9.272   7.148   0.512  1.8890 -0.7665 -0.5895
 1003MOL0     H32338   9.397   7.254   0.563 -0.7446  1.3123  0.5473
 1003MOL0     H32339   9.146   7.144   0.716 -0.7168  1.0260  2.5661
 1003MOL0     H32340   9.277   7.224   0.801 -2.1081  2.3509  2.2648
 1003MOL0     H32341   9.110   7.356   0.573 -0.5633 -1.0409  0.8604
 1003MOL0     H32342   9.246   7.428   0.662  2.2624 -1.8110  3.7827
 1003MOL0     H32343   9.120   7.406   0.870  1.6611 -1.6709 -2.0419
 1003MOL0     H32344   8.980   7.348   0.786 -0.7452  1.2129  1.5629
 1003MOL0     H32345   9.117   7.617   0.748  0.4295 -1.2501  0.9628
 1003MOL0     H32346   8.976   7.568   0.652 -0.0774  0.9901  0.0960
 1003MOL0     H32347   8.956   7.619   0.947 -3.7426 -1.1844  1.2786
 1003MOL0     H32348   8.833   7.554   0.852 -2.2592  2.4643 -1.2111
 1003MOL0     H32349   8.669   7.730   0.774 -0.4361  1.3336  2.1759
 1003MOL0     H32350   8.633   8.031   0.633 -1.3301  0.4429  0.9269
 1003MOL0     H32351   8.657   8.116   0.788  0.6931 -1.9691  3.9960
 1003MOL0     H32352   8.521   7.927   0.882  0.2130  1.9138  0.5082
 1003MOL0     H32353   8.457   7.891   0.720  0.7667  1.9520 -1.8124
 1003MOL0     H32354   8.308   8.042   0.843  0.2708 -1.1598  1.1845
 1003MOL0     H32355   8.433   8.152   0.874 -2.1376  1.3659 -0.4657
 1003MOL0     H32356   8.316   8.076   0.599  2.7953  0.0914 -2.4074
 1003MOL0     H32357   8.452   8.172   0.601 -2.3851 -0.9076 -3.2821
 1003MOL0     H32358   8.113   8.064   0.670 -0.0405  0.2961  2.2228
 1003MOL0     H32359   7.883   8.085   0.725  2.0431 -0.6145  1.0059
 1003MOL0     H32360   7.505   8.003   0.715 -0.4966  0.2613 -0.2920
 1003MOL0     H32361   7.264   7.998   0.744  0.0575  0.4661 -2.9033
 1003MOL0     H32362   7.127   8.007   0.940  1.5226  1.1137  0.0721
 1003MOL0     H32363   6.983   8.026   0.843  0.7718  0.2555 -0.2637
 1003MOL0     H32364   7.044   8.151   1.108 -0.4900  0.7584 -0.1117
 1003MOL0     H32365   6.932   8.024   1.082  1.3196 -1.0602 -1.0093
 1003MOL0     H32366   6.784   8.174   0.928 -4.4196  2.1006  3.4369
 1003MOL0     H32367   6.906   8.296   0.945  1.0491  0.4749  2.0519
 1003MOL0     H32368   6.734   8.189   1.165 -0.1902  0.1413 -1.0409
 1003MOL0     H32369   6.867   8.304   1.187 -1.0609 -0.2232  1.7342
 1003MOL0     H32370   6.612   8.326   1.018 -2.0675  1.2336  1.4712
 1003MOL0     H32371   6.738   8.445   1.011 -0.8680  0.6090  0.1906
 1003MOL0     H32372   6.561   8.533   1.154  2.3555  1.8691  1.3305
 1003MOL0     H32373   6.692   8.482   1.263  2.0694 -2.8897 -0.9508
 1003MOL0     H32374   6.580   8.261   1.310  3.2905  1.1974 -0.2230
 1003MOL0     H32375   6.493   8.405   1.361  2.4909  0.6136 -0.3222
 1003MOL0     H32376   6.407   8.210   1.164  1.4344 -0.4462  3.0429
 1003MOL0     H32377   6.375   8.374   1.117 -0.7340 -0.3141  0.3379
 1003MOL0     H32378   7.270   8.390   0.911 -3.0065 -1.7334  0.6477
 1003MOL0     H32379   7.495   8.406   0.899 -3.5920 -0.4275  3.1974
 1003MOL0     H32380   7.924   8.511   0.712  1.3279  1.4096  0.8212
 1003MOL0     H32381   8.157   8.489   0.689  0.7808 -0.6241 -0.0904
 1003MOL0     H32382   9.722   6.852   0.552 -1.4968  0.0419 -0.1036
 1003MOL0     H32383   9.943   6.781   0.469 -3.7111 -1.1753 -0.8910
 1003MOL0     H32384  10.357   7.011   0.210 -1.5973 -1.3237 -1.8960
 1003MOL0     H32385  10.574   6.961   0.151  0.5069  1.1194  2.6840
 1003MOL0     H32386  10.800   6.656   0.407  0.4550  0.3979  0.3324
 1003MOL0     H32387  10.890   6.673   0.262  0.0824 -1.1937  0.9984
 1003MOL0     H32388  10.781   6.453   0.332 -4.1757 -0.9390  2.7424
 1003MOL0     H32389  10.629   6.508   0.267  0.0707 -1.5134 -0.1292
 1003MOL0     H32390  10.894   6.482   0.127  0.6274  1.9598 -1.2662
 1003MOL0     H32391  10.755   6.548   0.037  2.1119 -1.2708 -1.8833
 1003MOL0     H32392  10.809   6.304  -0.005  0.8154  0.1138  0.3111
 1003MOL0     H32393  10.776   6.257   0.160 -1.6401 -0.7360  0.0857
 1003MOL0     H32394  10.404   6.238  -0.008  0.0283  0.2721 -1.5742
 1003MOL0     H32395  10.591   6.667   0.470 -1.0807  1.1993  2.5696
 1003MOL0     H32396  10.370   6.714   0.538 -1.2942 -1.0405 -0.9443
 1004MOL0     O32397   4.315  10.634  10.520 -0.3022 -0.2928  0.1342
 1004MOL0     C32398   4.355  10.748  10.492 -0.3962  0.5263  0.1573
 1004MOL0     O32399   4.284  10.861  10.500  0.0614  0.2422  0.0829
 1004MOL0     C32400   4.151  10.863  10.560 -0.0511  0.5486  0.4430
 1004MOL0     C32401   4.047  10.780  10.527 -0.6436 -0.0814 -0.2160
 1004MOL0     C32402   3.922  10.809  10.571 -0.1293 -1.3668 -0.6604
 1004MOL0     C32403   3.906  10.906  10.679  0.5507 -0.3259  0.7710
 1004MOL0     O32404   3.794  10.927  10.743  0.1351  0.1593  0.0337
 1004MOL0     C32405   3.686  10.832  10.728  0.3087 -0.0756 -0.0816
 1004MOL0     C32406   3.590  10.851  10.844  0.2729 -0.0944  0.2138
 1004MOL0     C32407   3.658  10.865  10.978  0.7725  0.2144 -0.6006
 1004MOL0     C32408   3.570  10.831  11.105 -0.7926 -0.1062  0.7137
 1004MOL0     C32409   3.599  10.911  11.235  0.4696 -0.4928  0.3053
 1004MOL0     C32410   3.539  10.844  11.355 -0.6106 -0.3268 -0.4403
 1004MOL0     C32411   3.395  10.864  11.368  0.4521 -0.0958 -0.1623
 1004MOL0     C32412   3.341  10.781  11.494 -0.5505 -0.1427  0.2286
 1004MOL0     N32413   3.205  10.823  11.524  0.3850  0.4707  0.1166
 1004MOL0     C32414   3.167  10.847  11.646 -0.0213 -0.3123  0.1514
 1004MOL0     C32415   3.029  10.851  11.638 -0.0551 -0.8032 -0.3402
 1004MOL0     C32416   2.942  10.886  11.745  0.4203  0.3953 -0.4775
 1004MOL0     C32417   2.813  10.820  11.761  0.1705  0.0919 -0.5229
 1004MOL0     C32418   2.725  10.870  11.874  0.1204 -0.4604  0.5390
 1004MOL0     C32419   2.691  11.020  11.869 -0.3392  0.5359 -0.2544
 1004MOL0     O32420   2.609  11.061  11.977  0.5417 -0.0591 -0.1046
 1004MOL0     C32421   2.469  11.043  11.969 -0.5495 -0.5459 -0.0920
 1004MOL0     C32422   2.413  10.989  11.849  0.3954 -0.1865 -0.2425
 1004MOL0     C32423   2.270  10.966  11.851 -0.0889  0.6587  1.1298
 1004MOL0     C32424   2.196  10.988  11.969 -0.1304 -0.0244  0.0191
 1004MOL0     C32425   2.053  10.960  11.981 -0.0084  0.5969  0.5023
 1004MOL0     O32426   1.987  10.980  12.092  0.6863 -0.6158 -0.6634
 1004MOL0     C32427   1.863  10.933  12.112  0.6468  0.1716 -0.1237
 1004MOL0     C32428   1.762  10.927  12.013 -1.2467 -1.6813  0.3512
 1004MOL0     C32429   1.632  10.894  12.054 -0.3855 -0.5572 -0.2418
 1004MOL0     C32430   1.601  10.857  12.183  0.2020  0.1035 -0.4486
 1004MOL0     O32431   1.479  10.816  12.206  0.2651 -0.4842 -0.0728
 1004MOL0     C32432   1.436  10.786  12.342  0.8430 -0.0900 -0.6289
 1004MOL0     C32433   1.382  10.902  12.423 -0.7669  0.1610 -0.2182
 1004MOL0     C32434   1.283  10.985  12.347 -0.0559 -0.3222  0.0019
 1004MOL0     C32435   1.224  11.089  12.437  0.2600 -0.0380  0.8263
 1004MOL0     C32436   1.091  11.147  12.382 -0.2124 -0.3895  0.2799
 1004MOL0     C32437   1.006  11.223  12.485  0.0737  0.0302 -0.3849
 1004MOL0     C32438   0.883  11.290  12.420  0.2975  0.2281 -0.9797
 1004MOL0     C32439   0.807  11.373  12.532  0.8122 -1.2172 -0.3252
 1004MOL0    Cl32440   0.661  11.442  12.467 -0.5986  0.5150  0.0162
 1004MOL0     C32441   1.708  10.861  12.273 -0.5002  0.0365 -0.8731
 1004MOL0     C32442   1.836  10.890  12.238  0.4776  0.2318  0.1934
 1004MOL0     O32443   2.010  10.895  11.889  0.2346 -0.8134 -0.0321
 1004MOL0     C32444   2.257  11.042  12.077 -0.5199  0.4151  0.2484
 1004MOL0     C32445   2.394  11.068  12.083  0.3930 -0.6285 -0.4236
 1004MOL0     N32446   2.998  10.839  11.500 -0.3006 -0.7446 -0.1727
 1004MOL0     N32447   3.104  10.814  11.434  0.4275 -0.5046  0.0821
 1004MOL0     C32448   4.014  10.974  10.720 -0.2607 -0.4737  0.1037
 1004MOL0     C32449   4.138  10.951  10.662  0.6129  0.6102  0.4765
 1004MOL0     C32450   4.492  10.762  10.448 -0.6270  0.1841  0.0190
 1004MOL0     C32451   4.577  10.645  10.454 -0.2493  0.1258 -0.2925
 1004MOL0     C32452   4.718  10.658  10.422  0.6864  0.0752 -0.2002
 1004MOL0     C32453   4.772  10.784  10.397 -0.3585 -0.6127 -1.2062
 1004MOL0     O32454   4.904  10.798  10.352 -0.0442  0.2541  0.0229
 1004MOL0     C32455   5.005  10.707  10.397 -0.1191 -0.1094  0.1919
 1004MOL0     C32456   5.026  10.698  10.554  0.0734 -0.4156  0.4928
 1004MOL0     C32457   5.162  10.641  10.591  0.1507  0.1140 -0.0992
 1004MOL0     C32458   5.295  10.682  10.514  0.6929 -0.0743 -0.7202
 1004MOL0     C32459   5.313  10.831  10.509 -0.5793 -0.1533  0.5784
 1004MOL0     C32460   5.335  10.951  10.499  0.4744  0.3527  0.6700
 1004MOL0     C32461   4.691  10.897  10.410  0.6569 -0.4572  0.9948
 1004MOL0     C32462   4.556  10.887  10.432  0.1847 -0.4758 -0.4109
 1004MOL0     H32463   4.073  10.703  10.455  2.4811  0.0147  0.6803
 1004MOL0     H32464   3.838  10.753  10.530 -0.1157 -0.5721 -1.8433
 1004MOL0     H32465   3.727  10.731  10.730  1.3773  0.3461  1.5620
 1004MOL0     H32466   3.644  10.848  10.628  1.3834 -1.9370 -0.8704
 1004MOL0     H32467   3.523  10.765  10.832  2.2620 -1.4910 -1.4909
 1004MOL0     H32468   3.537  10.945  10.825  1.4078  0.8367  1.4923
 1004MOL0     H32469   3.689  10.969  10.988 -1.8102  1.2898 -2.6602
 1004MOL0     H32470   3.752  10.809  10.973  1.4306  1.2980 -0.7800
 1004MOL0     H32471   3.463  10.838  11.087 -1.0103 -0.4766  1.7444
 1004MOL0     H32472   3.590  10.724  11.121  0.3029 -0.0230  0.0124
 1004MOL0     H32473   3.553  11.007  11.211  0.2033 -0.5844  0.4419
 1004MOL0     H32474   3.707  10.925  11.251  0.3148 -1.3405  2.4096
 1004MOL0     H32475   3.589  10.874  11.448  1.7290 -0.2640 -1.6281
 1004MOL0     H32476   3.545  10.735  11.344 -2.4410 -0.4234 -0.7616
 1004MOL0     H32477   3.368  10.969  11.382  2.0822  0.2913  0.2591
 1004MOL0     H32478   3.338  10.826  11.282 -2.3945 -0.5603  1.7967
 1004MOL0     H32479   3.405  10.796  11.581  0.1531  1.0628 -0.4622
 1004MOL0     H32480   3.329  10.674  11.471 -1.7782 -0.2157  1.1118
 1004MOL0     H32481   3.233  10.873  11.727 -0.7575 -1.9741  1.3443
 1004MOL0     H32482   2.923  10.989  11.714 -2.7724  0.2197  0.4897
 1004MOL0     H32483   2.987  10.880  11.844 -1.8275 -0.3171  0.5732
 1004MOL0     H32484   2.818  10.712  11.771 -0.0469 -0.3071 -3.6795
 1004MOL0     H32485   2.762  10.852  11.669  1.1489 -0.3594 -1.2278
 1004MOL0     H32486   2.639  10.802  11.868 -0.4432  0.1975  0.9192
 1004MOL0     H32487   2.777  10.845  11.967  1.5856 -0.2309 -0.1886
 1004MOL0     H32488   2.646  11.045  11.772 -5.0330  1.4705  1.8448
 1004MOL0     H32489   2.784  11.076  11.878 -0.4173  0.6086  0.1694
 1004MOL0     H32490   2.467  10.970  11.757  0.8750  1.8996 -0.4391
 1004MOL0     H32491   2.226  10.925  11.760  0.0506  3.5388 -0.3472
 1004MOL0     H32492   1.786  10.957  11.911 -0.5498 -2.0138  0.4145
 1004MOL0     H32493   1.558  10.892  11.975 -1.2191 -0.5517  0.5215
 1004MOL0     H32494   1.524  10.750  12.395  1.2733 -0.2050 -1.4046
 1004MOL0     H32495   1.365  10.702  12.347 -0.0353  0.6951  3.1074
 1004MOL0     H32496   1.469  10.962  12.452 -0.1690 -0.8792  0.1669
 1004MOL0     H32497   1.328  10.866  12.511  0.9755  1.6116  1.5427
 1004MOL0     H32498   1.198  10.921  12.322 -0.9260 -0.1988  2.3793
 1004MOL0     H32499   1.333  11.021  12.257 -3.1574  0.6924 -1.4434
 1004MOL0     H32500   1.202  11.050  12.537  0.9617 -2.5686  0.0841
 1004MOL0     H32501   1.292  11.174  12.444  0.2096 -0.0264  1.1952
 1004MOL0     H32502   1.032  11.061  12.347 -0.3450 -1.0432  2.0240
 1004MOL0     H32503   1.124  11.209  12.299 -0.7536 -0.2569  0.1565
 1004MOL0     H32504   1.074  11.288  12.540 -1.3535 -0.1986  1.7937
 1004MOL0     H32505   0.984  11.148  12.561 -2.0452  0.7432 -0.2269
 1004MOL0     H32506   0.917  11.358  12.341  1.6885  2.1092  1.1215
 1004MOL0     H32507   0.815  11.215  12.379 -0.0346  0.8328 -1.5507
 1004MOL0     H32508   0.879  11.447  12.570  1.0408 -0.8235 -1.4878
 1004MOL0     H32509   0.787  11.314  12.623 -0.9168  3.2841  2.5644
 1004MOL0     H32510   1.698  10.844  12.380  1.2108  4.5006  0.1887
 1004MOL0     H32511   1.920  10.894  12.306  0.9621  0.4074 -0.4086
 1004MOL0     H32512   2.197  11.051  12.167 -1.0800 -3.9326  0.5078
 1004MOL0     H32513   2.432  11.100  12.180 -1.3637 -4.2198  1.6717
 1004MOL0     H32514   4.010  11.058  10.790  5.7356 -0.4289  0.9253
 1004MOL0     H32515   4.224  11.004  10.703  2.6306 -1.5064 -0.7523
 1004MOL0     H32516   4.534  10.548  10.476 -0.4218 -0.0313 -1.2862
 1004MOL0     H32517   4.779  10.568  10.418  0.2208 -0.3272  1.3410
 1004MOL0     H32518   5.093  10.753  10.351 -0.8007  0.3712 -0.6492
 1004MOL0     H32519   4.990  10.607  10.355  3.7570 -0.4248 -0.8359
 1004MOL0     H32520   5.025  10.799  10.597  0.1648 -0.3557  0.3550
 1004MOL0     H32521   4.941  10.647  10.600 -2.4606  1.4710 -1.7422
 1004MOL0     H32522   5.141  10.537  10.563 -2.0604  0.5269 -0.1571
 1004MOL0     H32523   5.187  10.645  10.697  2.2656 -1.1814 -0.4705
 1004MOL0     H32524   5.380  10.623  10.550  0.9916  0.5924 -0.3208
 1004MOL0     H32525   5.292  10.635  10.415 -4.1750 -3.2392  0.5542
 1004MOL0     H32526   5.367  11.051  10.475 -0.3659  0.8163  1.4122
 1004MOL0     H32527   4.740  10.993  10.396 -1.9665  0.5165 -3.3102
 1004MOL0     H32528   4.507  10.984  10.431  0.2574 -0.3566  1.7220
 1005MOL0     O32529   0.686   1.898   9.609  0.3851  0.0540 -0.1402
 1005MOL0     C32530   0.728   1.959   9.511 -0.3183 -0.6537 -0.4550
 1005MOL0     O32531   0.649   2.002   9.406  0.4051 -0.0236  0.2303
 1005MOL0     C32532   0.514   1.986   9.416 -0.5330 -0.5269 -1.0467
 1005MOL0     C32533   0.440   1.937   9.307 -0.0743  0.5601  0.6225
 1005MOL0     C32534   0.300   1.921   9.316 -0.6015 -0.0838 -0.6543
 1005MOL0     C32535   0.223   1.978   9.422 -0.6189  0.5018 -0.2354
 1005MOL0     O32536   0.087   1.962   9.434 -0.5012 -0.1766 -0.3123
 1005MOL0     C32537   0.012   2.028   9.531  0.3950 -0.3192 -0.6341
 1005MOL0     C32538  -0.129   2.005   9.503 -0.5771  0.8092  0.1040
 1005MOL0     C32539  -0.213   1.991   9.629 -0.8066  0.1427 -0.2103
 1005MOL0     C32540  -0.350   1.967   9.587 -0.2907  0.3976 -0.2908
 1005MOL0     C32541  -0.431   1.941   9.716  0.2771 -0.9284  0.5360
 1005MOL0     C32542  -0.574   2.005   9.692  0.0975  0.4837  0.1889
 1005MOL0     C32543  -0.677   1.917   9.617  0.2839  0.5731  0.3285
 1005MOL0     C32544  -0.822   1.969   9.609  0.2526 -0.0450  0.1294
 1005MOL0     N32545  -0.900   1.913   9.725 -0.0872  0.2446 -0.1684
 1005MOL0     C32546  -0.863   1.880   9.853  0.0595  0.6385 -0.2702
 1005MOL0     C32547  -0.973   1.846   9.921  0.6907 -0.0382 -0.7067
 1005MOL0     C32548  -0.973   1.812  10.072 -0.5697 -0.1764  0.6901
 1005MOL0     C32549  -1.111   1.759  10.130  0.3977 -0.2285 -0.6043
 1005MOL0     C32550  -1.215   1.868  10.116 -0.0226 -0.2411 -0.5623
 1005MOL0     C32551  -1.355   1.806  10.134  0.3713  0.4413  0.3710
 1005MOL0     O32552  -1.449   1.918  10.127 -0.1890 -0.5379 -0.8256
 1005MOL0     C32553  -1.576   1.883  10.154  0.7509 -0.8781  0.3464
 1005MOL0     C32554  -1.625   1.753  10.174 -0.9428 -1.0492  0.8857
 1005MOL0     C32555  -1.753   1.743  10.229 -0.5233  0.7564  0.0936
 1005MOL0     C32556  -1.835   1.854  10.262  0.4112  0.0460  0.2675
 1005MOL0     C32557  -1.975   1.833  10.309  0.0100  1.0151 -0.0691
 1005MOL0     O32558  -2.032   1.706  10.298 -0.2815  0.0108 -0.1246
 1005MOL0     C32559  -2.159   1.674  10.355 -0.7417 -0.0548 -0.3530
 1005MOL0     C32560  -2.245   1.745  10.437  0.1744 -0.2357  0.1139
 1005MOL0     C32561  -2.365   1.691  10.474  0.7412  0.7658  0.2332
 1005MOL0     C32562  -2.409   1.557  10.420  0.1301 -0.2955  0.4618
 1005MOL0     O32563  -2.534   1.524  10.458 -0.3388  0.7751  0.0408
 1005MOL0     C32564  -2.567   1.382  10.451 -0.1625 -0.7521  0.4235
 1005MOL0     C32565  -2.715   1.336  10.473  1.2708 -1.0710  0.9711
 1005MOL0     C32566  -2.769   1.379  10.611  0.6868  0.3394  0.5215
 1005MOL0     C32567  -2.915   1.338  10.615 -0.8147  0.5752  0.1947
 1005MOL0     C32568  -2.978   1.360  10.754  0.1739 -0.0649 -0.9958
 1005MOL0     C32569  -3.137   1.335  10.745  0.8335  0.3059  0.1278
 1005MOL0     C32570  -3.214   1.322  10.879 -0.3339  0.3053  0.3531
 1005MOL0     C32571  -3.343   1.252  10.841 -0.2112  0.0716 -0.2863
 1005MOL0    Cl32572  -3.439   1.238  11.000  0.6453  0.1167 -0.1834
 1005MOL0     C32573  -2.314   1.486  10.349  0.0534 -0.0756 -0.8895
 1005MOL0     C32574  -2.190   1.542  10.320  0.1970 -0.2047 -0.1679
 1005MOL0     O32575  -2.031   1.927  10.364  0.0283 -0.5266 -0.6009
 1005MOL0     C32576  -1.797   1.980  10.213  0.3924  1.1590 -0.2897
 1005MOL0     C32577  -1.667   1.992  10.162 -0.5147  0.9731 -0.6433
 1005MOL0     N32578  -1.082   1.846   9.836  0.0608  0.0025  0.0737
 1005MOL0     N32579  -1.031   1.871   9.716 -0.8892  1.1396 -0.3677
 1005MOL0     C32580   0.297   2.053   9.517  0.7505 -0.6923  0.0343
 1005MOL0     C32581   0.434   2.060   9.511 -0.5102 -0.1502 -0.1865
 1005MOL0     C32582   0.874   2.001   9.515  0.6665  0.5082  0.0841
 1005MOL0     C32583   0.949   1.968   9.637 -0.2892  0.7222 -0.2456
 1005MOL0     C32584   1.078   2.017   9.643  0.1379  0.9720  0.1766
 1005MOL0     C32585   1.132   2.099   9.543 -0.5801 -0.4115  0.0843
 1005MOL0     O32586   1.263   2.137   9.573  1.5131  0.0038  0.0054
 1005MOL0     C32587   1.321   2.225   9.485 -0.5051 -0.1952  0.5847
 1005MOL0     C32588   1.453   2.267   9.546 -0.1344  0.1215 -0.7594
 1005MOL0     C32589   1.546   2.142   9.524  1.0605  0.0241 -0.0694
 1005MOL0     C32590   1.690   2.178   9.553  0.2702 -0.5711 -0.0067
 1005MOL0     C32591   1.740   2.269   9.452 -0.0833 -0.0331 -0.4287
 1005MOL0     C32592   1.776   2.323   9.353 -0.4928 -0.3539 -0.0258
 1005MOL0     C32593   1.055   2.140   9.436 -0.6006  0.5439  0.3599
 1005MOL0     C32594   0.932   2.081   9.418  0.8432 -0.6660  0.2962
 1005MOL0     H32595   0.497   1.888   9.229 -4.1997 -3.8127 -0.1247
 1005MOL0     H32596   0.250   1.863   9.239  0.3059  0.1661 -1.4434
 1005MOL0     H32597   0.035   2.135   9.537  3.4923 -0.9180  4.2002
 1005MOL0     H32598   0.037   1.986   9.629 -1.4731  0.4526  0.2057
 1005MOL0     H32599  -0.144   1.916   9.440  0.1319  1.0260 -0.3791
 1005MOL0     H32600  -0.160   2.086   9.437 -0.7174  1.7320  1.2740
 1005MOL0     H32601  -0.210   2.091   9.674  4.8540  0.5686 -0.7578
 1005MOL0     H32602  -0.165   1.917   9.693  0.2614  0.5704 -0.4883
 1005MOL0     H32603  -0.394   2.055   9.539 -4.8489 -2.1958 -1.4748
 1005MOL0     H32604  -0.360   1.885   9.516  0.1086  1.1559 -1.2381
 1005MOL0     H32605  -0.385   1.980   9.808 -3.3714  1.4146  1.5428
 1005MOL0     H32606  -0.443   1.833   9.729  2.2938 -1.5125 -1.6417
 1005MOL0     H32607  -0.563   2.106   9.649 -0.7956  1.0327  1.1926
 1005MOL0     H32608  -0.608   2.031   9.793  3.6657 -0.5356  1.8129
 1005MOL0     H32609  -0.638   1.912   9.515  1.9517  0.9654  0.9112
 1005MOL0     H32610  -0.667   1.816   9.657  2.2465  1.0689  1.2311
 1005MOL0     H32611  -0.874   1.930   9.521  0.4278 -1.8452  0.7763
 1005MOL0     H32612  -0.824   2.078   9.618  1.9795  0.0965 -0.7108
 1005MOL0     H32613  -0.768   1.869   9.904 -1.3659 -1.9486  2.0545
 1005MOL0     H32614  -0.954   1.913  10.112 -2.8096  1.3057 -1.6725
 1005MOL0     H32615  -0.885   1.748  10.084 -0.0037  0.2375 -1.0436
 1005MOL0     H32616  -1.109   1.742  10.239 -2.6413  2.0582 -0.0768
 1005MOL0     H32617  -1.141   1.672  10.072 -2.6433  2.2878 -3.1184
 1005MOL0     H32618  -1.198   1.947  10.190 -0.0535  2.6726 -3.4454
 1005MOL0     H32619  -1.211   1.931  10.027  2.2890  2.6175  1.3278
 1005MOL0     H32620  -1.353   1.770  10.238  2.1698  2.4904  1.1173
 1005MOL0     H32621  -1.391   1.739  10.056 -0.4556 -0.2786  1.3284
 1005MOL0     H32622  -1.585   1.654  10.154  0.2715 -0.2857 -0.7603
 1005MOL0     H32623  -1.789   1.642  10.245 -1.5872  1.2466  0.9352
 1005MOL0     H32624  -2.218   1.845  10.470 -3.3962  0.9151  0.0450
 1005MOL0     H32625  -2.430   1.752  10.536 -1.3049  0.2958 -1.3076
 1005MOL0     H32626  -2.506   1.331  10.526 -0.8300 -2.6398 -0.2727
 1005MOL0     H32627  -2.538   1.342  10.354  1.7629 -0.8117  0.9659
 1005MOL0     H32628  -2.724   1.227  10.468 -2.4434 -1.0044  2.7313
 1005MOL0     H32629  -2.777   1.365  10.388  0.6810 -2.5283  0.8609
 1005MOL0     H32630  -2.755   1.485  10.633 -2.5353  0.3374  3.2844
 1005MOL0     H32631  -2.717   1.322  10.689  0.3408 -0.7492 -0.0243
 1005MOL0     H32632  -2.976   1.405  10.554 -0.9809 -0.3144 -0.6466
 1005MOL0     H32633  -2.918   1.238  10.570  1.2698  0.5044  0.0947
 1005MOL0     H32634  -2.947   1.460  10.787  1.5626 -1.1618  1.2628
 1005MOL0     H32635  -2.940   1.287  10.826  1.3391  1.5693  0.1094
 1005MOL0     H32636  -3.152   1.237  10.700  0.2398 -0.8320  2.6471
 1005MOL0     H32637  -3.184   1.415  10.688  0.7054 -0.8946 -1.5166
 1005MOL0     H32638  -3.155   1.269  10.955 -1.3803  1.1811  1.8400
 1005MOL0     H32639  -3.231   1.422  10.921  0.0243  0.2421  0.6520
 1005MOL0     H32640  -3.315   1.151  10.811  1.1631  0.4275 -0.2568
 1005MOL0     H32641  -3.412   1.303  10.773 -3.5482 -0.1701  2.6598
 1005MOL0     H32642  -2.329   1.383  10.318  0.0679 -0.7352  1.1896
 1005MOL0     H32643  -2.116   1.489  10.260  1.4210  2.3579 -1.0641
 1005MOL0     H32644  -1.869   2.061  10.217  0.0552  1.0038 -2.2168
 1005MOL0     H32645  -1.619   2.082  10.125  2.1446  0.3012  0.8767
 1005MOL0     H32646   0.254   2.111   9.598  0.5611 -0.8942  0.0806
 1005MOL0     H32647   0.490   2.119   9.583 -3.3381  1.6614  0.6771
 1005MOL0     H32648   0.911   1.906   9.717 -1.3514  2.5618  0.7320
 1005MOL0     H32649   1.144   1.997   9.727  1.2898  1.4005 -0.6152
 1005MOL0     H32650   1.254   2.311   9.477 -0.6187 -0.2241  1.1905
 1005MOL0     H32651   1.336   2.183   9.386 -0.5228  3.4722 -1.1567
 1005MOL0     H32652   1.501   2.353   9.499 -1.3911  0.7825 -0.8627
 1005MOL0     H32653   1.439   2.290   9.653  0.5702 -1.0134 -0.4049
 1005MOL0     H32654   1.535   2.106   9.422  0.4546  1.9837 -0.7256
 1005MOL0     H32655   1.515   2.061   9.591 -3.6680  0.7337 -1.0639
 1005MOL0     H32656   1.705   2.217   9.654 -1.4513  0.2636 -0.0343
 1005MOL0     H32657   1.763   2.098   9.539  1.5363  0.2721  1.4834
 1005MOL0     H32658   1.785   2.364   9.255 -4.0260  1.0162  0.0462
 1005MOL0     H32659   1.094   2.211   9.364  1.4995 -1.3191 -0.4655
 1005MOL0     H32660   0.876   2.115   9.331  1.9938 -0.9103 -0.5632
 1006MOL0     O32661  10.821   3.800   1.620 -0.0965  0.5178 -0.1350
 1006MOL0     C32662  10.915   3.884   1.639 -0.5701  1.3579  0.3466
 1006MOL0     O32663  10.908   3.995   1.719 -0.6565 -0.0004 -0.3447
 1006MOL0     C32664  10.780   4.038   1.755 -1.0519  0.4149  0.0082
 1006MOL0     C32665  10.773   4.114   1.871 -0.0398  0.4740  0.7217
 1006MOL0     C32666  10.648   4.173   1.905 -0.4757  1.1698 -0.0574
 1006MOL0     C32667  10.532   4.152   1.825 -0.1754  0.0592  0.4189
 1006MOL0     O32668  10.412   4.203   1.870 -0.1388 -0.4440  0.3409
 1006MOL0     C32669  10.301   4.120   1.869 -0.5691  0.1385  0.0782
 1006MOL0     C32670  10.173   4.188   1.929 -0.3575 -0.0619  1.3110
 1006MOL0     C32671  10.172   4.179   2.081 -0.1767 -0.4797 -0.3162
 1006MOL0     C32672  10.050   4.261   2.140  0.0276  0.2433  0.1800
 1006MOL0     C32673  10.077   4.277   2.299 -0.7000  0.2919  1.2103
 1006MOL0     C32674   9.956   4.332   2.368  0.1377  1.1428  0.8318
 1006MOL0     C32675   9.973   4.330   2.520 -0.1053  0.5473 -0.4324
 1006MOL0     C32676   9.866   4.396   2.603 -1.0510 -0.1181 -0.0051
 1006MOL0     N32677   9.865   4.360   2.739  0.6555 -0.0188 -0.0278
 1006MOL0     C32678   9.862   4.444   2.841 -0.3178 -0.6492 -1.0079
 1006MOL0     C32679   9.828   4.378   2.948 -0.0432  0.6198  0.0892
 1006MOL0     C32680   9.817   4.433   3.084 -0.9262 -0.1159 -0.5593
 1006MOL0     C32681   9.672   4.467   3.122 -0.0927  0.0515 -0.0939
 1006MOL0     C32682   9.603   4.562   3.024  0.3850 -0.1583  0.4940
 1006MOL0     C32683   9.476   4.625   3.077  0.6387  1.1517 -0.0146
 1006MOL0     O32684   9.369   4.539   3.115  0.4879  0.0238 -0.5915
 1006MOL0     C32685   9.315   4.557   3.239  0.1420 -0.0802 -0.8937
 1006MOL0     C32686   9.369   4.627   3.358 -1.0099  0.2351  0.4502
 1006MOL0     C32687   9.308   4.626   3.478  0.6227  0.0927 -0.7267
 1006MOL0     C32688   9.178   4.570   3.490 -0.6165  0.7780  0.5799
 1006MOL0     C32689   9.099   4.586   3.615 -0.0141 -0.4208 -0.3301
 1006MOL0     O32690   8.965   4.544   3.615  0.0262 -0.1478 -0.3112
 1006MOL0     C32691   8.867   4.581   3.710  0.2259 -0.5497  0.1983
 1006MOL0     C32692   8.869   4.703   3.770 -0.0606 -0.5070  0.3599
 1006MOL0     C32693   8.757   4.757   3.828  0.4555  0.0668 -0.9312
 1006MOL0     C32694   8.638   4.682   3.832 -0.7246  0.5448 -0.1135
 1006MOL0     O32695   8.529   4.704   3.906  0.3395 -0.0395  0.4643
 1006MOL0     C32696   8.528   4.823   3.983  0.3629  0.5038  0.2832
 1006MOL0     C32697   8.411   4.828   4.072  1.3037 -0.2168 -0.1403
 1006MOL0     C32698   8.405   4.943   4.171 -0.3434 -1.3526 -0.8243
 1006MOL0     C32699   8.301   4.923   4.286  0.6715 -0.0951  0.6933
 1006MOL0     C32700   8.153   4.919   4.239 -0.9731  0.4036  0.6537
 1006MOL0     C32701   8.100   5.024   4.139  0.6016 -0.1715  0.3903
 1006MOL0     C32702   7.947   5.034   4.161  0.2421  0.4903 -0.4770
 1006MOL0     C32703   7.879   5.116   4.058 -0.1792 -0.8317  0.2790
 1006MOL0    Cl32704   7.879   5.286   4.100 -0.0777 -0.1258 -0.6355
 1006MOL0     C32705   8.630   4.555   3.770  0.0626  0.4765 -0.5483
 1006MOL0     C32706   8.745   4.505   3.708 -0.0582 -0.8666 -0.3824
 1006MOL0     O32707   9.144   4.650   3.707 -0.4720  1.2791  0.0846
 1006MOL0     C32708   9.118   4.512   3.376  0.5452 -0.5631 -0.5434
 1006MOL0     C32709   9.188   4.502   3.256 -0.0077  1.0009  0.3320
 1006MOL0     N32710   9.795   4.253   2.914 -0.5744  0.1514  0.9086
 1006MOL0     N32711   9.813   4.243   2.788  0.6399  0.1874  0.0013
 1006MOL0     C32712  10.539   4.081   1.706 -0.5281  0.8367  0.2776
 1006MOL0     C32713  10.675   4.037   1.671 -0.1367 -0.8005  0.1838
 1006MOL0     C32714  11.055   3.861   1.579  0.2009 -0.1690  0.5200
 1006MOL0     C32715  11.081   3.752   1.497 -0.8855  0.3143 -0.5670
 1006MOL0     C32716  11.203   3.718   1.446 -0.2494  0.6443 -0.1735
 1006MOL0     C32717  11.308   3.798   1.479 -0.1376 -0.3202  0.2758
 1006MOL0     O32718  11.431   3.772   1.421 -0.1800  0.4335  0.1196
 1006MOL0     C32719  11.540   3.835   1.482 -0.2712  0.8648 -0.0946
 1006MOL0     C32720  11.667   3.751   1.446 -0.6886  0.3651  0.0324
 1006MOL0     C32721  11.647   3.600   1.447 -0.0130 -0.3082  0.5901
 1006MOL0     C32722  11.788   3.533   1.460  0.4958 -0.1411 -0.3300
 1006MOL0     C32723  11.882   3.563   1.350 -0.5607 -0.3821  0.4414
 1006MOL0     C32724  11.955   3.605   1.267  0.6574 -0.3945  0.1242
 1006MOL0     C32725  11.286   3.919   1.550 -0.5113  0.4144  0.1020
 1006MOL0     C32726  11.162   3.954   1.596 -0.1228  0.7606  0.1227
 1006MOL0     H32727  10.859   4.135   1.934 -0.9220  0.2803  2.0443
 1006MOL0     H32728  10.648   4.228   1.998 -0.8017  2.7518 -0.9508
 1006MOL0     H32729  10.323   4.031   1.930  3.6842 -0.3649 -1.7680
 1006MOL0     H32730  10.279   4.097   1.765 -1.1555 -0.9077  0.4218
 1006MOL0     H32731  10.089   4.125   1.898 -0.7486 -1.1519  4.2661
 1006MOL0     H32732  10.165   4.292   1.897 -0.1411  0.5465  3.1386
 1006MOL0     H32733  10.264   4.225   2.118 -0.5696 -0.9911  1.4156
 1006MOL0     H32734  10.170   4.076   2.118 -0.2461 -0.3966 -0.0858
 1006MOL0     H32735  10.047   4.360   2.094 -0.4152  0.6925  1.1608
 1006MOL0     H32736   9.958   4.205   2.117  0.4764 -0.5878  0.3588
 1006MOL0     H32737  10.165   4.342   2.305  0.1637 -0.2908 -2.5719
 1006MOL0     H32738  10.092   4.180   2.347 -0.8156  0.9250  2.5426
 1006MOL0     H32739   9.869   4.269   2.343 -0.1315  1.7567  0.1791
 1006MOL0     H32740   9.942   4.437   2.343  1.9392  1.1718 -0.2470
 1006MOL0     H32741   9.969   4.227   2.559  1.3082  0.5377 -0.2433
 1006MOL0     H32742  10.071   4.370   2.548 -1.4427  3.0735  0.8976
 1006MOL0     H32743   9.776   4.371   2.547  0.6696  1.7315 -3.9848
 1006MOL0     H32744   9.872   4.505   2.609  0.2123 -0.0439 -1.9274
 1006MOL0     H32745   9.894   4.547   2.849  0.9099 -1.1587  2.2421
 1006MOL0     H32746   9.895   4.509   3.091 -0.5473 -0.4603 -0.9278
 1006MOL0     H32747   9.851   4.353   3.151 -0.4471  2.1945  2.1055
 1006MOL0     H32748   9.660   4.517   3.219 -1.6239  1.3798 -0.9193
 1006MOL0     H32749   9.612   4.375   3.119  1.3633 -0.8980 -1.6871
 1006MOL0     H32750   9.669   4.646   3.001 -2.1105  1.3367 -1.8057
 1006MOL0     H32751   9.584   4.515   2.926 -0.3414  1.7469 -0.3313
 1006MOL0     H32752   9.432   4.676   2.992 -0.0964 -0.9902 -0.9704
 1006MOL0     H32753   9.512   4.698   3.152 -1.1485  0.1018  1.9654
 1006MOL0     H32754   9.466   4.675   3.346 -0.5265 -1.1391 -1.7414
 1006MOL0     H32755   9.347   4.678   3.565 -0.6862 -0.1685  0.0476
 1006MOL0     H32756   8.958   4.763   3.753  1.1052 -2.4212 -0.6353
 1006MOL0     H32757   8.757   4.859   3.866 -1.2975  1.0085 -3.1956
 1006MOL0     H32758   8.531   4.905   3.910 -0.6781 -0.8592 -1.3774
 1006MOL0     H32759   8.622   4.830   4.038 -0.0956 -0.4898  1.2291
 1006MOL0     H32760   8.393   4.739   4.134 -0.7063 -0.5911 -1.1628
 1006MOL0     H32761   8.320   4.842   4.012 -0.3265 -1.2724  1.9127
 1006MOL0     H32762   8.379   5.032   4.114 -1.7362 -1.6144 -0.6435
 1006MOL0     H32763   8.505   4.953   4.215 -0.0175 -2.2606 -1.3337
 1006MOL0     H32764   8.329   4.832   4.341  1.2008 -1.2523 -1.3750
 1006MOL0     H32765   8.307   5.016   4.344  1.8921  2.3922 -3.0614
 1006MOL0     H32766   8.091   4.937   4.327 -1.0076  0.4233  0.6254
 1006MOL0     H32767   8.125   4.817   4.210 -1.4748  0.1031  2.0880
 1006MOL0     H32768   8.118   4.984   4.039  1.5654 -0.4666  0.6683
 1006MOL0     H32769   8.143   5.124   4.153 -0.8357  0.4685  0.4193
 1006MOL0     H32770   7.908   4.932   4.155 -0.0797  0.4958  1.0388
 1006MOL0     H32771   7.925   5.063   4.264  1.6460  0.6807 -0.2083
 1006MOL0     H32772   7.774   5.087   4.043 -0.8517  1.2891  0.5099
 1006MOL0     H32773   7.931   5.097   3.964  1.1174  3.0823  0.0455
 1006MOL0     H32774   8.535   4.504   3.775  0.0901  0.2886 -1.7400
 1006MOL0     H32775   8.745   4.423   3.637  0.8646 -0.9783 -0.2634
 1006MOL0     H32776   9.018   4.470   3.383  0.5619 -0.9733 -2.1561
 1006MOL0     H32777   9.153   4.437   3.176  1.7691 -3.2180  2.6988
 1006MOL0     H32778  10.451   4.066   1.644 -1.3167  1.7008  1.1455
 1006MOL0     H32779  10.682   3.993   1.572 -0.1599 -2.4261  0.8781
 1006MOL0     H32780  10.994   3.697   1.464 -0.1529  0.1008 -2.2495
 1006MOL0     H32781  11.224   3.634   1.381  0.6597 -1.4264  2.6112
 1006MOL0     H32782  11.529   3.816   1.589  1.0188 -0.8268 -0.2124
 1006MOL0     H32783  11.558   3.937   1.448 -3.6628  2.5260  2.4911
 1006MOL0     H32784  11.725   3.784   1.359  2.5319  0.9450  2.2567
 1006MOL0     H32785  11.746   3.775   1.518 -1.2920 -0.9941  1.1872
 1006MOL0     H32786  11.605   3.567   1.352  1.8841  1.0686 -0.7935
 1006MOL0     H32787  11.584   3.575   1.533 -0.2039  2.2142  1.2687
 1006MOL0     H32788  11.830   3.554   1.558 -0.3846  4.3484 -0.7070
 1006MOL0     H32789  11.774   3.424   1.463  0.7637 -0.2177  4.3055
 1006MOL0     H32790  12.017   3.633   1.184 -0.3149 -1.7834 -1.1457
 1006MOL0     H32791  11.369   3.982   1.579 -1.6777  1.8521  0.4175
 1006MOL0     H32792  11.155   4.051   1.645  3.3178  2.2063 -1.9680
 1007MOL0     O32793  10.580   8.342  11.176  0.1295  1.0743  0.8231
 1007MOL0     C32794  10.510   8.239  11.166  0.7243 -0.6041 -0.6478
 1007MOL0     O32795  10.389   8.233  11.103  0.3314 -0.3482 -0.1708
 1007MOL0     C32796  10.314   8.340  11.066 -0.4220 -0.1170  0.4444
 1007MOL0     C32797  10.361   8.439  10.976  0.1186 -0.2156  0.3533
 1007MOL0     C32798  10.273   8.551  10.952  0.3447 -0.2773 -0.5402
 1007MOL0     C32799  10.152   8.570  11.024 -0.8160 -1.0467  0.5820
 1007MOL0     O32800  10.078   8.681  10.991 -0.0345 -0.0990  0.1195
 1007MOL0     C32801   9.963   8.704  11.076  0.1955  0.1556 -0.0776
 1007MOL0     C32802   9.876   8.819  11.014  0.7979  0.2620 -0.8051
 1007MOL0     C32803   9.742   8.832  11.098 -0.3263 -0.5443  0.6484
 1007MOL0     C32804   9.650   8.948  11.058  0.3999  0.0028  0.4965
 1007MOL0     C32805   9.508   8.955  11.109  0.1821  0.8670  0.0302
 1007MOL0     C32806   9.403   8.861  11.042  0.1107  1.2950  0.1449
 1007MOL0     C32807   9.260   8.865  11.106  0.3675 -0.2849 -1.1784
 1007MOL0     C32808   9.194   8.998  11.067  0.2216 -0.8106  0.0092
 1007MOL0     N32809   9.051   8.982  11.078  0.1367  0.1645  0.3971
 1007MOL0     C32810   8.971   8.894  11.013 -0.6098  0.0364 -0.1690
 1007MOL0     C32811   8.863   8.878  11.088 -0.3229 -0.4816  0.4366
 1007MOL0     C32812   8.754   8.777  11.059 -0.3572  0.2167 -0.5962
 1007MOL0     C32813   8.651   8.840  10.958 -0.5514  0.4291 -0.8251
 1007MOL0     C32814   8.555   8.749  10.886 -0.5271 -0.1732  0.0873
 1007MOL0     C32815   8.452   8.703  10.986 -0.4284 -0.9362  0.1259
 1007MOL0     O32816   8.353   8.638  10.917  0.2180  0.2319 -0.6632
 1007MOL0     C32817   8.267   8.547  10.981  0.2053 -0.3566  0.0267
 1007MOL0     C32818   8.191   8.456  10.897 -0.1261 -0.6043 -0.9034
 1007MOL0     C32819   8.105   8.361  10.953 -0.6550 -0.7338  0.9324
 1007MOL0     C32820   8.083   8.356  11.090 -1.0561  0.5371 -0.1224
 1007MOL0     C32821   7.979   8.268  11.137 -0.2907  0.7441  0.1561
 1007MOL0     O32822   7.884   8.234  11.047 -0.5893 -0.4503 -0.2585
 1007MOL0     C32823   7.757   8.199  11.086 -0.0612 -0.2690 -0.1725
 1007MOL0     C32824   7.684   8.242  11.205  0.3998 -0.1444  0.2511
 1007MOL0     C32825   7.544   8.208  11.219  0.4770 -0.4237  0.0623
 1007MOL0     C32826   7.480   8.127  11.117 -1.1303 -0.4642 -0.3167
 1007MOL0     O32827   7.356   8.078  11.149  0.4336  0.2562  0.4281
 1007MOL0     C32828   7.273   8.034  11.039  0.4203  0.1612 -0.1046
 1007MOL0     C32829   7.121   8.031  11.064  0.1046  0.3210 -0.7462
 1007MOL0     C32830   7.050   8.035  10.932 -0.5811 -0.4719  0.2037
 1007MOL0     C32831   6.903   8.069  10.933 -0.4497 -0.2514  0.2505
 1007MOL0     C32832   6.857   8.101  10.792  0.2563 -0.0003 -0.7173
 1007MOL0     C32833   6.852   7.986  10.699 -0.6262  0.5793 -0.9152
 1007MOL0     C32834   6.759   8.002  10.580  1.1258  0.0859  1.4098
 1007MOL0     C32835   6.813   8.100  10.470  0.1452 -0.0796  0.1120
 1007MOL0    Cl32836   6.830   8.276  10.500  0.1431  0.3019 -0.3188
 1007MOL0     C32837   7.556   8.090  11.001  0.4500  0.7283 -0.9218
 1007MOL0     C32838   7.685   8.138  10.986  0.3622 -0.1312 -0.1464
 1007MOL0     O32839   7.997   8.214  11.242  0.4143  0.4982  0.2826
 1007MOL0     C32840   8.150   8.445  11.175 -0.3901  0.3657  0.1659
 1007MOL0     C32841   8.232   8.540  11.121  0.3316 -0.0564  1.0479
 1007MOL0     N32842   8.875   8.968  11.193 -0.5974 -0.2250 -0.4577
 1007MOL0     N32843   8.983   9.037  11.182  0.4647 -0.1851  0.1710
 1007MOL0     C32844  10.118   8.471  11.119 -0.0616 -0.2422  0.8990
 1007MOL0     C32845  10.199   8.354  11.137 -0.5241 -1.9607  0.5070
 1007MOL0     C32846  10.566   8.111  11.225 -0.3573 -0.3513  0.0896
 1007MOL0     C32847  10.491   7.993  11.218  0.6511  0.6227  0.2060
 1007MOL0     C32848  10.537   7.866  11.266  0.1023  0.0624 -0.3197
 1007MOL0     C32849  10.666   7.864  11.320  0.0755  0.8445 -0.8011
 1007MOL0     O32850  10.704   7.747  11.374  0.1662  0.3964 -0.3521
 1007MOL0     C32851  10.836   7.712  11.330  0.4964 -0.1875 -0.0048
 1007MOL0     C32852  10.871   7.590  11.407  0.0628  0.1837  0.5795
 1007MOL0     C32853  11.001   7.527  11.366  0.4637  0.0947 -0.7064
 1007MOL0     C32854  11.131   7.611  11.384  0.4755  0.2304 -0.0755
 1007MOL0     C32855  11.205   7.560  11.498 -0.0156 -0.0400  0.6080
 1007MOL0     C32856  11.281   7.531  11.586 -1.2475  0.0209 -0.4221
 1007MOL0     C32857  10.735   7.983  11.338  0.3654 -0.2514  0.2567
 1007MOL0     C32858  10.698   8.109  11.285  1.1258  1.5145 -0.4566
 1007MOL0     H32859  10.456   8.423  10.927  0.6340  0.2165  1.1885
 1007MOL0     H32860  10.302   8.631  10.885  0.1037  1.3814  1.2268
 1007MOL0     H32861   9.995   8.733  11.177 -0.1912 -1.0518  0.4091
 1007MOL0     H32862   9.899   8.616  11.088 -1.0931  0.7145 -2.3203
 1007MOL0     H32863   9.854   8.804  10.908  1.1080 -0.6978 -0.7413
 1007MOL0     H32864   9.929   8.914  11.018  0.4367  0.4624 -0.7573
 1007MOL0     H32865   9.765   8.839  11.205 -0.7173 -1.0942  0.7713
 1007MOL0     H32866   9.679   8.745  11.080 -0.5801  0.1831 -2.5493
 1007MOL0     H32867   9.698   9.045  11.071  0.4775  0.3176 -1.6807
 1007MOL0     H32868   9.625   8.934  10.952  0.6283 -1.1853  0.5901
 1007MOL0     H32869   9.468   9.057  11.110 -1.5381  0.2601  2.3331
 1007MOL0     H32870   9.504   8.927  11.215  2.1062 -0.0406 -0.0964
 1007MOL0     H32871   9.442   8.759  11.051 -1.9247  0.4092 -0.4008
 1007MOL0     H32872   9.395   8.874  10.934  2.5578 -0.5891 -0.3408
 1007MOL0     H32873   9.193   8.781  11.085 -1.4155  0.7420  0.1276
 1007MOL0     H32874   9.284   8.861  11.212  1.5737 -4.9285 -1.3764
 1007MOL0     H32875   9.222   9.028  10.966  0.4822 -2.3075 -0.3998
 1007MOL0     H32876   9.223   9.080  11.133 -0.3108 -0.0404 -0.7046
 1007MOL0     H32877   9.004   8.832  10.929 -3.8500 -0.7162 -1.0046
 1007MOL0     H32878   8.696   8.743  11.146  0.9648 -1.8801 -0.4400
 1007MOL0     H32879   8.797   8.685  11.016 -0.1076  0.6485 -1.2856
 1007MOL0     H32880   8.716   8.886  10.883  3.0595  0.1796  1.8239
 1007MOL0     H32881   8.597   8.912  11.020  2.4451  1.0817  1.2917
 1007MOL0     H32882   8.499   8.798  10.805  2.5755  2.9459 -0.4226
 1007MOL0     H32883   8.611   8.666  10.843  0.1299  0.5332 -0.4347
 1007MOL0     H32884   8.415   8.789  11.042 -0.0791 -0.1072 -0.8770
 1007MOL0     H32885   8.496   8.636  11.060 -0.8056  1.2851  2.4703
 1007MOL0     H32886   8.216   8.459  10.791  1.5400 -0.9367 -0.5444
 1007MOL0     H32887   8.066   8.293  10.879  0.1158 -0.9112  0.6822
 1007MOL0     H32888   7.743   8.288  11.283 -0.6037 -1.2074  1.7044
 1007MOL0     H32889   7.488   8.235  11.308  0.5347  1.1427 -0.3498
 1007MOL0     H32890   7.308   7.931  11.029 -0.2799 -0.0852 -0.0999
 1007MOL0     H32891   7.297   8.089  10.948 -0.3193  0.7421  0.0394
 1007MOL0     H32892   7.100   8.128  11.110 -0.2437  1.6457 -3.5073
 1007MOL0     H32893   7.093   7.942  11.121 -0.5863  1.2748  0.4735
 1007MOL0     H32894   7.057   7.942  10.875 -2.4294  0.7011 -2.1120
 1007MOL0     H32895   7.101   8.111  10.872 -0.2953 -2.2885 -1.9739
 1007MOL0     H32896   6.838   7.990  10.972  0.0935 -0.3770  0.9203
 1007MOL0     H32897   6.887   8.161  10.990  1.7985  0.1299  0.3246
 1007MOL0     H32898   6.918   8.173  10.736  0.1527  2.4715  2.1358
 1007MOL0     H32899   6.758   8.145  10.797 -0.5898 -1.8781  0.2431
 1007MOL0     H32900   6.811   7.908  10.764  1.0376  0.2115 -0.2456
 1007MOL0     H32901   6.955   7.955  10.677  0.5178  0.3168  3.6530
 1007MOL0     H32902   6.743   7.900  10.544  1.9908  0.4931 -0.2066
 1007MOL0     H32903   6.661   8.046  10.602  1.3162  0.4485  1.5369
 1007MOL0     H32904   6.746   8.089  10.384  0.8332  2.3697 -0.8261
 1007MOL0     H32905   6.915   8.067  10.449  1.7531  2.5297  3.0748
 1007MOL0     H32906   7.506   8.031  10.924 -0.8271  3.8656 -2.6869
 1007MOL0     H32907   7.753   8.113  10.906  1.5631  3.0224 -0.2800
 1007MOL0     H32908   8.123   8.445  11.280  0.9033 -1.4466  0.5350
 1007MOL0     H32909   8.278   8.620  11.177 -2.0995  0.8196  1.9142
 1007MOL0     H32910  10.026   8.481  11.176 -0.0570  0.2148  0.8308
 1007MOL0     H32911  10.171   8.274  11.204  1.5970 -2.7546  0.5337
 1007MOL0     H32912  10.382   7.997  11.212  0.3269  1.6957  4.0090
 1007MOL0     H32913  10.473   7.779  11.259 -0.0481  0.1887 -0.5257
 1007MOL0     H32914  10.910   7.790  11.352  1.1913 -0.8853  0.1873
 1007MOL0     H32915  10.849   7.684  11.225  2.4737  0.1861  0.0905
 1007MOL0     H32916  10.870   7.629  11.509 -1.1417 -0.3674  0.7906
 1007MOL0     H32917  10.790   7.516  11.405  0.3293 -0.1145  0.6875
 1007MOL0     H32918  10.990   7.490  11.263  1.5495 -1.6360 -0.2615
 1007MOL0     H32919  11.005   7.436  11.427 -1.6530  0.4442  0.0255
 1007MOL0     H32920  11.183   7.590  11.290  0.1436 -0.4170 -0.1243
 1007MOL0     H32921  11.105   7.716  11.403  1.4605  0.7066 -1.2519
 1007MOL0     H32922  11.331   7.503  11.677 -1.8244 -0.9096 -0.3743
 1007MOL0     H32923  10.819   7.983  11.406  0.3091  2.2898  0.4400
 1007MOL0     H32924  10.767   8.193  11.283  1.1458  1.5082 -2.4953
 1008MOL0     O32925   2.422  11.130   7.813  0.2623 -0.4353 -0.0701
 1008MOL0     C32926   2.415  11.032   7.894 -0.3611 -0.1811 -0.4875
 1008MOL0     O32927   2.520  10.965   7.943 -0.2079 -0.1189  0.0511
 1008MOL0     C32928   2.640  11.033   7.925  0.3896 -0.5999 -0.7206
 1008MOL0     C32929   2.657  11.157   7.986  0.1741 -0.5962 -0.8628
 1008MOL0     C32930   2.766  11.234   7.946 -0.3100 -0.3196  0.1878
 1008MOL0     C32931   2.855  11.191   7.844  1.0972 -0.1961 -0.4006
 1008MOL0     O32932   2.947  11.275   7.785 -0.1863 -0.5006 -0.1727
 1008MOL0     C32933   3.043  11.326   7.879  0.8527 -0.2825  0.1589
 1008MOL0     C32934   3.173  11.361   7.803  0.1835  0.1390  0.4250
 1008MOL0     C32935   3.305  11.365   7.879 -0.5879 -0.3814  0.4328
 1008MOL0     C32936   3.374  11.222   7.865 -0.9151  0.3475 -1.3612
 1008MOL0     C32937   3.529  11.236   7.882 -0.4853  0.0121 -0.2786
 1008MOL0     C32938   3.565  11.244   8.029  0.0995 -0.0313  0.2458
 1008MOL0     C32939   3.714  11.256   8.064 -0.1357 -0.5631 -0.6631
 1008MOL0     C32940   3.778  11.133   8.029 -0.2385  0.8319  0.2531
 1008MOL0     N32941   3.926  11.131   8.067 -0.0200 -0.1020  0.4974
 1008MOL0     C32942   4.020  11.077   7.987 -0.9181 -0.5610  1.1535
 1008MOL0     C32943   4.132  11.064   8.060 -0.7729 -0.0687 -1.0532
 1008MOL0     C32944   4.268  10.990   8.042  0.2599 -0.3825 -0.0425
 1008MOL0     C32945   4.261  10.858   8.105  0.9403  0.2943 -0.2193
 1008MOL0     C32946   4.165  10.757   8.032 -0.2219 -0.0469 -0.5095
 1008MOL0     C32947   4.144  10.628   8.110  0.0799 -0.1357  0.0238
 1008MOL0     O32948   4.113  10.644   8.248  0.1835  0.3762 -0.5201
 1008MOL0     C32949   3.981  10.687   8.271  0.6960 -0.5186 -0.3276
 1008MOL0     C32950   3.875  10.596   8.292  0.7172 -0.8113 -0.5350
 1008MOL0     C32951   3.747  10.641   8.339 -0.5393 -1.0890 -0.1143
 1008MOL0     C32952   3.731  10.778   8.382  0.4994  0.8349  0.2498
 1008MOL0     C32953   3.591  10.819   8.431 -0.4749  0.0467 -0.0083
 1008MOL0     O32954   3.574  10.944   8.485  0.6221 -0.2576  0.8530
 1008MOL0     C32955   3.449  10.985   8.529 -0.7212 -0.2760 -0.0660
 1008MOL0     C32956   3.385  10.914   8.629  0.0324 -0.1834  0.2579
 1008MOL0     C32957   3.255  10.953   8.669  0.1209  0.0578  0.8264
 1008MOL0     C32958   3.191  11.072   8.621  0.3944  0.4880 -0.6788
 1008MOL0     O32959   3.081  11.126   8.672 -0.0837  0.0061 -0.2489
 1008MOL0     C32960   2.966  11.040   8.696 -0.8807  0.4406  0.1025
 1008MOL0     C32961   2.838  11.105   8.734  0.2589 -1.3467  0.1677
 1008MOL0     C32962   2.712  11.020   8.716  0.3859 -0.0789  0.1213
 1008MOL0     C32963   2.589  11.105   8.753 -0.8272  0.2342 -1.2328
 1008MOL0     C32964   2.456  11.029   8.727 -0.0346  0.4061 -0.4093
 1008MOL0     C32965   2.348  11.130   8.761  0.2743  0.1137  0.2529
 1008MOL0     C32966   2.222  11.058   8.739 -0.4457  1.4165  0.7697
 1008MOL0     C32967   2.103  11.152   8.730  0.7076 -0.1706  0.1604
 1008MOL0    Cl32968   1.958  11.073   8.779  0.0726 -0.0359 -0.2432
 1008MOL0     C32969   3.262  11.152   8.528  0.4599  1.2776 -0.2151
 1008MOL0     C32970   3.390  11.102   8.484 -0.2252 -0.6866 -0.4147
 1008MOL0     O32971   3.509  10.732   8.424  0.4587 -0.2287  0.2978
 1008MOL0     C32972   3.836  10.867   8.357  0.0808  0.9865  0.1334
 1008MOL0     C32973   3.957  10.826   8.304 -0.8365  0.0564  0.8820
 1008MOL0     N32974   4.099  11.110   8.191 -0.1891  0.1330  0.5003
 1008MOL0     N32975   3.970  11.131   8.193 -0.8565  0.3474  0.1204
 1008MOL0     C32976   2.838  11.076   7.779  0.4921  0.9627 -0.4803
 1008MOL0     C32977   2.729  10.993   7.817  0.7525 -0.2094 -0.5099
 1008MOL0     C32978   2.281  10.989   7.932 -0.0128 -0.1947  0.0813
 1008MOL0     C32979   2.164  11.074   7.939 -1.0788  0.0169 -0.8416
 1008MOL0     C32980   2.041  11.029   7.977  0.7299 -0.3232 -0.1522
 1008MOL0     C32981   2.030  10.892   8.007  0.0085 -0.5697  0.8040
 1008MOL0     O32982   1.896  10.861   8.039  0.0668  0.5143  0.8715
 1008MOL0     C32983   1.825  10.750   7.987 -0.0641 -1.0480  0.2209
 1008MOL0     C32984   1.677  10.778   7.973 -0.2890 -0.3764 -0.1341
 1008MOL0     C32985   1.647  10.915   7.902  0.5302  0.0419  0.0513
 1008MOL0     C32986   1.520  10.936   7.835  0.3822 -0.9499  0.2400
 1008MOL0     C32987   1.399  10.924   7.915  0.1654 -0.5360  0.6706
 1008MOL0     C32988   1.297  10.906   7.979 -0.2548  0.2731  0.0817
 1008MOL0     C32989   2.134  10.799   7.989  0.1212  0.6975 -0.4545
 1008MOL0     C32990   2.262  10.852   7.952  0.3544  0.1062  0.2145
 1008MOL0     H32991   2.603  11.197   8.072  2.2764 -2.0591  1.2653
 1008MOL0     H32992   2.786  11.328   7.997  2.2824 -0.5134 -0.3450
 1008MOL0     H32993   3.060  11.265   7.968 -0.9199 -1.2408 -0.1040
 1008MOL0     H32994   2.997  11.419   7.912 -2.7821 -1.6994 -0.4345
 1008MOL0     H32995   3.160  11.456   7.750 -0.7780 -0.0170  0.3547
 1008MOL0     H32996   3.178  11.278   7.731 -3.3272 -2.1746  2.5231
 1008MOL0     H32997   3.287  11.386   7.985  0.3895 -1.9698  0.9640
 1008MOL0     H32998   3.362  11.441   7.826 -1.3455  0.3121  0.5977
 1008MOL0     H32999   3.332  11.144   7.929  0.0046 -1.0291 -2.3769
 1008MOL0     H33000   3.351  11.188   7.764  1.4232  2.7986 -2.8581
 1008MOL0     H33001   3.561  11.319   7.819  2.3141 -0.4587  0.4036
 1008MOL0     H33002   3.573  11.146   7.839 -1.2393 -1.5472  2.0088
 1008MOL0     H33003   3.503  11.165   8.073 -0.5482 -1.2738 -2.7019
 1008MOL0     H33004   3.526  11.341   8.063  0.3924 -0.5755  2.3081
 1008MOL0     H33005   3.763  11.332   8.002  0.5147 -0.5766 -0.1832
 1008MOL0     H33006   3.715  11.281   8.171 -4.5338  1.7418 -0.9365
 1008MOL0     H33007   3.769  11.133   7.920 -1.4997  2.0148  0.3240
 1008MOL0     H33008   3.735  11.052   8.089 -0.9291 -0.0793 -1.4090
 1008MOL0     H33009   4.008  11.054   7.881 -0.4337  0.1084  0.9495
 1008MOL0     H33010   4.350  11.056   8.072  2.2557 -2.5277 -0.5116
 1008MOL0     H33011   4.291  10.965   7.938  0.0619 -0.9014  0.0338
 1008MOL0     H33012   4.224  10.872   8.207 -2.6141 -1.6928 -1.0900
 1008MOL0     H33013   4.357  10.805   8.111 -0.6230 -2.6188  1.0635
 1008MOL0     H33014   4.073  10.817   8.026  0.7720  2.0796  2.6333
 1008MOL0     H33015   4.195  10.742   7.928 -4.6215 -1.7003 -1.7623
 1008MOL0     H33016   4.237  10.571   8.102 -0.5573 -0.9125 -3.6166
 1008MOL0     H33017   4.065  10.575   8.056 -1.1586  1.1372  0.4985
 1008MOL0     H33018   3.890  10.489   8.298  2.8540 -0.5430 -0.1496
 1008MOL0     H33019   3.685  10.557   8.368  0.2936 -1.6676  0.0319
 1008MOL0     H33020   3.439  10.825   8.662  0.7818 -0.1714 -0.9053
 1008MOL0     H33021   3.205  10.887   8.739  0.8542 -2.0423 -0.5472
 1008MOL0     H33022   2.982  10.958   8.766 -2.4486  1.9157  2.3133
 1008MOL0     H33023   2.949  10.987   8.602  1.0389  0.6437 -0.4117
 1008MOL0     H33024   2.815  11.189   8.667 -2.6190 -1.4117  0.9413
 1008MOL0     H33025   2.831  11.132   8.840 -1.3337 -4.9268  1.1278
 1008MOL0     H33026   2.726  10.932   8.779  1.2299 -0.6051 -0.7701
 1008MOL0     H33027   2.700  10.984   8.613  0.3899 -1.0370  0.4405
 1008MOL0     H33028   2.588  11.130   8.859 -2.8366 -0.8738 -0.9336
 1008MOL0     H33029   2.588  11.202   8.702 -1.6397  1.5173  1.0959
 1008MOL0     H33030   2.447  10.943   8.793  0.9695  1.1355  0.7182
 1008MOL0     H33031   2.443  10.983   8.629  0.0839 -0.6538  0.0647
 1008MOL0     H33032   2.362  11.215   8.694  1.4375 -1.5394 -1.7014
 1008MOL0     H33033   2.346  11.173   8.862 -1.6990 -0.5451  0.5373
 1008MOL0     H33034   2.228  11.017   8.638 -0.6235  2.8535  0.1506
 1008MOL0     H33035   2.199  10.988   8.820  2.7885  0.3148  0.8443
 1008MOL0     H33036   2.106  11.184   8.626 -3.1136  0.6854  0.1713
 1008MOL0     H33037   2.114  11.244   8.788  0.6053 -0.3009  0.3854
 1008MOL0     H33038   3.220  11.248   8.501 -1.0823  0.6145 -0.2962
 1008MOL0     H33039   3.454  11.157   8.415 -0.5789  1.2745  0.7345
 1008MOL0     H33040   3.837  10.973   8.383 -0.4391  0.9479  0.3366
 1008MOL0     H33041   4.038  10.898   8.294 -2.1041  1.1932 -2.6460
 1008MOL0     H33042   2.900  11.041   7.697 -0.6181  3.1626 -2.3971
 1008MOL0     H33043   2.701  10.901   7.767 -1.4410  0.5706 -0.8426
 1008MOL0     H33044   2.176  11.180   7.920  0.3660  0.6897  2.8673
 1008MOL0     H33045   1.954  11.090   7.998  1.1489 -0.2595  1.5510
 1008MOL0     H33046   1.841  10.676   8.067  4.9969  1.4440  1.9876
 1008MOL0     H33047   1.868  10.709   7.895  1.7028  2.0857 -0.4576
 1008MOL0     H33048   1.639  10.690   7.921  1.0697 -0.4340 -1.0782
 1008MOL0     H33049   1.631  10.784   8.072  1.8937 -0.9238  0.9644
 1008MOL0     H33050   1.721  10.935   7.823  0.5995  3.6466  0.8349
 1008MOL0     H33051   1.670  10.993   7.975  1.9045 -1.9632  1.8658
 1008MOL0     H33052   1.512  11.034   7.787 -0.7145 -1.4926 -0.7290
 1008MOL0     H33053   1.505  10.858   7.759 -2.3270  1.9282 -2.4224
 1008MOL0     H33054   1.207  10.884   8.034 -1.8579  0.9246 -2.1354
 1008MOL0     H33055   2.122  10.692   7.996  1.5317  0.3490 -2.4264
 1008MOL0     H33056   2.348  10.787   7.956  0.5209  0.3760  1.8841
 1009MOL0     O33057   1.531   1.705   4.639  0.0786  1.0817 -0.8393
 1009MOL0     C33058   1.503   1.605   4.569 -0.5988 -0.3994  0.1154
 1009MOL0     O33059   1.394   1.596   4.495  0.2545 -0.1550  0.4412
 1009MOL0     C33060   1.282   1.670   4.508  0.0637  0.5670 -0.4541
 1009MOL0     C33061   1.240   1.722   4.630 -0.2733  0.4836 -0.3624
 1009MOL0     C33062   1.123   1.802   4.642 -0.0627  0.0570 -0.0297
 1009MOL0     C33063   1.045   1.820   4.532  0.4291 -0.0933  0.2486
 1009MOL0     O33064   0.926   1.891   4.540  0.5013  0.2674  0.2290
 1009MOL0     C33065   0.815   1.837   4.468  0.1839 -0.0444 -0.5754
 1009MOL0     C33066   0.693   1.923   4.480 -0.3339 -0.6421  0.0608
 1009MOL0     C33067   0.571   1.836   4.461  0.0514  0.7542 -0.8781
 1009MOL0     C33068   0.449   1.932   4.481  0.8767  0.2996 -0.3234
 1009MOL0     C33069   0.306   1.867   4.444 -0.7373  0.2750  0.3961
 1009MOL0     C33070   0.285   1.858   4.290  0.6302 -0.3774  0.5807
 1009MOL0     C33071   0.293   1.979   4.207 -0.0161  0.0067  0.8528
 1009MOL0     C33072   0.175   2.069   4.245 -0.9221  0.6120  0.8658
 1009MOL0     N33073   0.094   2.095   4.114 -0.4096 -0.6350  0.0806
 1009MOL0     C33074   0.142   2.170   4.011  0.2189 -0.1774 -0.3134
 1009MOL0     C33075   0.039   2.188   3.926  0.5001 -0.1318  0.3870
 1009MOL0     C33076   0.043   2.269   3.796 -0.3818 -0.4113  0.6532
 1009MOL0     C33077   0.015   2.416   3.807  0.4389  0.0219 -0.4776
 1009MOL0     C33078  -0.142   2.442   3.837 -0.0921 -0.6271 -0.3063
 1009MOL0     C33079  -0.226   2.425   3.701  0.4266  0.0673 -0.1707
 1009MOL0     O33080  -0.339   2.503   3.725  0.2833 -0.1991 -0.0224
 1009MOL0     C33081  -0.447   2.492   3.638  0.5329  0.5811 -0.5105
 1009MOL0     C33082  -0.454   2.398   3.534  0.0707 -0.0746  1.3737
 1009MOL0     C33083  -0.557   2.392   3.439 -0.6302  0.4379 -0.5796
 1009MOL0     C33084  -0.667   2.473   3.449  0.5079  0.5852  0.0758
 1009MOL0     C33085  -0.771   2.472   3.345 -0.5636  0.4497  0.1041
 1009MOL0     O33086  -0.884   2.546   3.368  0.2903  0.2451  0.0684
 1009MOL0     C33087  -0.977   2.564   3.271  0.6380 -0.2062 -0.6244
 1009MOL0     C33088  -1.108   2.513   3.290 -1.0575  1.3066  0.5218
 1009MOL0     C33089  -1.210   2.534   3.194  0.2142 -0.0628 -0.6050
 1009MOL0     C33090  -1.177   2.601   3.077  1.1437  1.0080 -0.5952
 1009MOL0     O33091  -1.270   2.616   2.978  0.5797 -0.4910  0.7215
 1009MOL0     C33092  -1.302   2.753   2.939 -0.0916  0.9554  0.0190
 1009MOL0     C33093  -1.277   2.773   2.793 -0.1679  0.0751 -0.1776
 1009MOL0     C33094  -1.289   2.926   2.756  0.6073 -0.2464  0.6171
 1009MOL0     C33095  -1.215   2.960   2.626  0.1746  0.2852 -0.0484
 1009MOL0     C33096  -1.295   2.943   2.491 -0.1167 -0.1543  0.8900
 1009MOL0     C33097  -1.226   3.031   2.390 -1.1895 -0.4745 -0.3632
 1009MOL0     C33098  -1.309   3.040   2.265 -0.4060  0.4954 -0.1200
 1009MOL0     C33099  -1.228   3.112   2.161  0.1774  0.8186  0.1893
 1009MOL0    Cl33100  -1.323   3.092   2.010 -0.0951 -0.4404 -0.3157
 1009MOL0     C33101  -1.048   2.650   3.053 -0.2392 -0.0672  0.6471
 1009MOL0     C33102  -0.946   2.625   3.149 -0.0731  0.1055  0.3761
 1009MOL0     O33103  -0.734   2.412   3.241  0.1304  0.2480  0.1432
 1009MOL0     C33104  -0.652   2.580   3.536  0.0763 -0.1442  1.1876
 1009MOL0     C33105  -0.544   2.589   3.626  0.8385  0.2851 -0.9868
 1009MOL0     N33106  -0.078   2.134   3.983  0.0826 -0.1228  0.5454
 1009MOL0     N33107  -0.041   2.076   4.093  0.5287  0.0893  0.7758
 1009MOL0     C33108   1.084   1.765   4.412  0.3758 -0.3171 -0.6077
 1009MOL0     C33109   1.205   1.702   4.395 -0.2384  0.4938  0.3877
 1009MOL0     C33110   1.585   1.492   4.596  0.2418  0.2594 -0.1333
 1009MOL0     C33111   1.671   1.482   4.709 -0.1898 -0.7294  0.7354
 1009MOL0     C33112   1.774   1.386   4.720 -0.6728  0.0613  0.0701
 1009MOL0     C33113   1.783   1.285   4.621 -0.1802 -0.0128 -0.3046
 1009MOL0     O33114   1.892   1.197   4.640 -0.6055  0.8248 -0.5485
 1009MOL0     C33115   1.918   1.090   4.551  0.4454  1.0832  0.5900
 1009MOL0     C33116   2.009   0.986   4.620 -0.2564 -0.0167  0.2784
 1009MOL0     C33117   2.152   1.040   4.623 -0.4865  0.2089  0.4875
 1009MOL0     C33118   2.257   0.937   4.598  0.8219 -0.5627  0.1850
 1009MOL0     C33119   2.368   0.945   4.695  0.6651  0.2008  0.7174
 1009MOL0     C33120   2.461   0.954   4.776 -0.2728 -0.0869  0.2482
 1009MOL0     C33121   1.696   1.289   4.516 -0.7547  0.8615 -0.0675
 1009MOL0     C33122   1.600   1.391   4.509  0.2361  2.0625  0.6018
 1009MOL0     H33123   1.287   1.707   4.727 -0.0501  1.9929 -0.2011
 1009MOL0     H33124   1.095   1.852   4.735  1.9289 -1.3833  1.4384
 1009MOL0     H33125   0.789   1.737   4.505  0.2273  0.4185  0.7791
 1009MOL0     H33126   0.839   1.819   4.363 -0.4175 -0.6145 -0.6287
 1009MOL0     H33127   0.708   1.992   4.395  0.0365 -0.5558  0.1943
 1009MOL0     H33128   0.710   1.990   4.564  0.8404 -0.7568 -0.0720
 1009MOL0     H33129   0.563   1.768   4.546 -5.1371  3.5964  1.3704
 1009MOL0     H33130   0.563   1.783   4.365  1.0749 -0.5503 -0.2726
 1009MOL0     H33131   0.446   1.945   4.589  0.1712  2.0116 -0.5144
 1009MOL0     H33132   0.459   2.032   4.438  1.2427 -0.2200 -1.4867
 1009MOL0     H33133   0.224   1.930   4.479 -2.0300  0.1592 -2.1851
 1009MOL0     H33134   0.318   1.767   4.487  0.6241 -0.9721 -2.6249
 1009MOL0     H33135   0.189   1.808   4.274  1.1632 -0.9114 -1.1985
 1009MOL0     H33136   0.364   1.785   4.266 -3.5477 -4.6260 -2.1214
 1009MOL0     H33137   0.376   2.045   4.232 -0.1766  0.6193 -0.2024
 1009MOL0     H33138   0.299   1.960   4.100  3.1510 -0.9667  1.0857
 1009MOL0     H33139   0.216   2.161   4.288  2.1428 -0.4264  0.4258
 1009MOL0     H33140   0.109   2.027   4.321 -0.2812  1.0803  1.7053
 1009MOL0     H33141   0.243   2.208   3.995  0.2759  0.0184  0.4841
 1009MOL0     H33142  -0.018   2.226   3.716 -0.2419 -0.4911  0.5893
 1009MOL0     H33143   0.143   2.255   3.755 -0.3562 -0.5868  0.7749
 1009MOL0     H33144   0.037   2.463   3.710  3.1534 -1.2815 -0.5866
 1009MOL0     H33145   0.080   2.458   3.884  1.3663 -0.0199 -1.2240
 1009MOL0     H33146  -0.169   2.369   3.914  1.4861 -0.7534  0.1668
 1009MOL0     H33147  -0.153   2.545   3.872 -0.7995 -1.2311  1.3351
 1009MOL0     H33148  -0.262   2.322   3.701 -1.4138  0.6559  1.0989
 1009MOL0     H33149  -0.165   2.459   3.617  0.3249  0.7872  0.0438
 1009MOL0     H33150  -0.378   2.325   3.513  1.7911  2.2980 -1.3930
 1009MOL0     H33151  -0.558   2.309   3.369  0.7949  0.0758 -0.2185
 1009MOL0     H33152  -1.132   2.468   3.386  0.4648 -2.3124 -0.6545
 1009MOL0     H33153  -1.313   2.500   3.197 -1.4724  4.3105 -0.9173
 1009MOL0     H33154  -1.245   2.821   3.003  3.0055  0.4776 -1.9861
 1009MOL0     H33155  -1.410   2.766   2.938 -0.2973 -0.5884 -1.4163
 1009MOL0     H33156  -1.351   2.711   2.742 -1.3866  2.2062 -1.1043
 1009MOL0     H33157  -1.177   2.738   2.766  0.6404  1.5877  0.7099
 1009MOL0     H33158  -1.244   2.984   2.837  0.0478 -0.0112  0.7626
 1009MOL0     H33159  -1.395   2.951   2.763  0.2124 -2.1143  1.8008
 1009MOL0     H33160  -1.193   3.066   2.639 -2.0271  0.4186  5.3559
 1009MOL0     H33161  -1.124   2.900   2.623  0.6179  0.6905  2.7305
 1009MOL0     H33162  -1.402   2.960   2.507  0.0381  1.4449  0.3685
 1009MOL0     H33163  -1.292   2.843   2.445 -1.0830 -0.8800  2.3202
 1009MOL0     H33164  -1.126   2.988   2.379  0.1679  1.4906  2.7849
 1009MOL0     H33165  -1.222   3.137   2.417  0.6577 -0.8247  0.9092
 1009MOL0     H33166  -1.341   2.941   2.232 -0.8343  0.8919 -0.9117
 1009MOL0     H33167  -1.400   3.094   2.290  0.9631  1.8592  2.3851
 1009MOL0     H33168  -1.140   3.048   2.149 -0.8085 -0.2654 -1.8059
 1009MOL0     H33169  -1.201   3.217   2.176  1.2413  0.7813 -1.2468
 1009MOL0     H33170  -1.019   2.684   2.955 -1.2874  1.5253  0.8511
 1009MOL0     H33171  -0.840   2.638   3.132 -0.2933  0.8848 -0.4419
 1009MOL0     H33172  -0.718   2.666   3.528 -0.2059 -0.5142 -1.1803
 1009MOL0     H33173  -0.554   2.666   3.702  0.3435 -2.3238  1.7856
 1009MOL0     H33174   1.034   1.789   4.319 -0.7535 -2.8329 -0.7305
 1009MOL0     H33175   1.240   1.670   4.298  0.5067  0.3441  0.6985
 1009MOL0     H33176   1.653   1.555   4.787  3.7609  0.2859  0.9325
 1009MOL0     H33177   1.842   1.377   4.804  0.1438 -1.9465 -0.7416
 1009MOL0     H33178   1.948   1.126   4.453 -3.0122 -2.4616 -2.0876
 1009MOL0     H33179   1.827   1.031   4.533  0.6816 -0.9262  4.7405
 1009MOL0     H33180   1.974   0.966   4.722 -0.4807 -0.8393  0.0460
 1009MOL0     H33181   2.003   0.894   4.562 -0.5861  1.0050 -1.3614
 1009MOL0     H33182   2.172   1.071   4.726 -0.6900 -1.5762  1.1016
 1009MOL0     H33183   2.175   1.123   4.556  0.2115 -0.8906 -0.6842
 1009MOL0     H33184   2.225   0.832   4.600  2.9315 -1.2806 -0.4835
 1009MOL0     H33185   2.294   0.965   4.499  0.0941 -0.0245  0.0605
 1009MOL0     H33186   2.535   0.962   4.853  2.1474 -4.2268 -1.3069
 1009MOL0     H33187   1.690   1.209   4.442 -0.2744  1.2390 -0.5232
 1009MOL0     H33188   1.536   1.397   4.422  0.7108 -1.3254 -0.1268
 1010MOL0     O33189   9.133  11.160   7.232  0.4313 -0.1828 -0.1222
 1010MOL0     C33190   9.179  11.057   7.190  0.2830  0.1278  0.3661
 1010MOL0     O33191   9.110  10.985   7.103 -0.9871  1.0350  0.2161
 1010MOL0     C33192   8.997  11.025   7.036 -0.0651 -0.6863 -0.3936
 1010MOL0     C33193   8.909  10.931   6.990  0.1504  0.6231 -0.3763
 1010MOL0     C33194   8.804  10.967   6.911 -0.2393 -0.2184 -0.3261
 1010MOL0     C33195   8.786  11.101   6.871  0.1384 -0.3620 -0.6767
 1010MOL0     O33196   8.683  11.121   6.782 -0.0359 -0.2156  0.5449
 1010MOL0     C33197   8.673  11.252   6.718 -0.1156 -0.4344  0.5185
 1010MOL0     C33198   8.552  11.257   6.614 -0.8744 -0.4469 -0.1228
 1010MOL0     C33199   8.498  11.398   6.611  0.3415 -0.1355  0.5459
 1010MOL0     C33200   8.379  11.396   6.516  1.0995  0.0305 -0.1542
 1010MOL0     C33201   8.338  11.542   6.482  0.2118  0.0931  0.0296
 1010MOL0     C33202   8.254  11.611   6.592  0.2056 -0.6878 -0.2601
 1010MOL0     C33203   8.192  11.740   6.534 -0.5770 -0.1471 -0.8679
 1010MOL0     C33204   8.145  11.844   6.635  0.7341  0.1467  0.4459
 1010MOL0     N33205   8.056  11.940   6.567 -0.8376  0.8095 -0.2207
 1010MOL0     C33206   8.111  12.048   6.492 -0.6235  1.0296  0.0571
 1010MOL0     C33207   8.002  12.107   6.435  0.1731 -0.3487 -0.5045
 1010MOL0     C33208   8.017  12.224   6.337  0.6530 -0.5683 -0.0760
 1010MOL0     C33209   7.960  12.192   6.194  0.2295  0.7268 -0.2756
 1010MOL0     C33210   7.807  12.188   6.186  0.1744  0.4102  0.0382
 1010MOL0     C33211   7.766  12.187   6.044  0.7832 -0.5393  0.9735
 1010MOL0     O33212   7.632  12.153   6.031  0.4196  0.2050  0.0425
 1010MOL0     C33213   7.529  12.252   6.034  0.2662 -0.1443 -0.5942
 1010MOL0     C33214   7.555  12.390   6.057 -0.0032  0.5529 -0.0211
 1010MOL0     C33215   7.456  12.483   6.064 -0.6444  0.2461  0.7252
 1010MOL0     C33216   7.325  12.445   6.034  0.4188 -0.6375  0.3628
 1010MOL0     C33217   7.223  12.550   6.031 -0.3733  0.1525 -0.1348
 1010MOL0     O33218   7.250  12.672   6.110 -0.2800 -0.0404  0.2043
 1010MOL0     C33219   7.151  12.768   6.130  0.2240 -0.0598 -0.7501
 1010MOL0     C33220   7.158  12.834   6.251  0.2898 -0.4785 -0.1352
 1010MOL0     C33221   7.067  12.937   6.283 -0.1556  0.0802 -0.3637
 1010MOL0     C33222   6.964  12.975   6.192  0.8436  0.4662 -0.4957
 1010MOL0     O33223   6.874  13.081   6.223 -0.0844  0.5387 -0.7100
 1010MOL0     C33224   6.741  13.079   6.169  0.1081  0.2644  1.1962
 1010MOL0     C33225   6.715  13.226   6.150 -0.3279 -0.1436  0.3097
 1010MOL0     C33226   6.570  13.257   6.118  0.4406 -0.3018 -0.0751
 1010MOL0     C33227   6.552  13.396   6.060 -0.1906 -0.4745  0.0228
 1010MOL0     C33228   6.422  13.410   5.988  0.3273  0.5269  0.2445
 1010MOL0     C33229   6.301  13.380   6.076 -0.5524 -0.0696  0.0871
 1010MOL0     C33230   6.174  13.419   6.002  0.2603 -1.1196  0.5394
 1010MOL0     C33231   6.058  13.371   6.081  0.4297  0.5034 -0.4335
 1010MOL0    Cl33232   5.905  13.471   6.047 -0.0041  0.4735  0.2602
 1010MOL0     C33233   6.953  12.903   6.068  0.5680  0.0346  0.0448
 1010MOL0     C33234   7.043  12.799   6.043  0.7170  0.0739  0.2390
 1010MOL0     O33235   7.125  12.536   5.955  0.5113  0.4008 -1.0602
 1010MOL0     C33236   7.302  12.312   6.013  1.0278 -1.3908  0.4799
 1010MOL0     C33237   7.398  12.218   6.007 -0.2869 -0.9555  0.1728
 1010MOL0     N33238   7.887  12.041   6.470  0.2341  0.4360 -0.1094
 1010MOL0     N33239   7.925  11.930   6.537  0.7389 -0.5022  1.1744
 1010MOL0     C33240   8.867  11.201   6.922  0.1096  0.0332 -0.5132
 1010MOL0     C33241   8.968  11.158   7.003 -0.4163 -0.2952  0.1660
 1010MOL0     C33242   9.295  10.994   7.242  0.4967  0.4752  0.3747
 1010MOL0     C33243   9.392  11.075   7.297  0.3435  0.1625  0.5827
 1010MOL0     C33244   9.511  11.024   7.335 -0.3557  0.1759 -0.1948
 1010MOL0     C33245   9.540  10.890   7.321 -1.0835 -0.2260 -0.4421
 1010MOL0     O33246   9.659  10.832   7.354 -0.1084 -0.2334  0.0931
 1010MOL0     C33247   9.776  10.927   7.354  0.5382 -0.1994  0.4569
 1010MOL0     C33248   9.908  10.848   7.376  0.5261  0.0417  0.5162
 1010MOL0     C33249   9.904  10.753   7.498  0.0653  0.0983  1.4018
 1010MOL0     C33250  10.041  10.705   7.535 -0.1929 -0.6116 -0.3195
 1010MOL0     C33251  10.100  10.632   7.422  0.4405  0.0342 -0.1473
 1010MOL0     C33252  10.144  10.574   7.328 -0.8024 -0.1934 -0.1297
 1010MOL0     C33253   9.443  10.804   7.267  0.4182 -0.7456  0.1039
 1010MOL0     C33254   9.313  10.852   7.231 -0.9226 -0.2077  1.1976
 1010MOL0     H33255   8.925  10.824   7.001  2.2298  1.1011  2.4382
 1010MOL0     H33256   8.734  10.888   6.885  0.8079 -2.6589  3.4477
 1010MOL0     H33257   8.769  11.275   6.672 -0.9207  1.2387 -0.4666
 1010MOL0     H33258   8.661  11.327   6.797 -0.5609  0.2330 -0.1689
 1010MOL0     H33259   8.471  11.190   6.641 -1.3703  0.3690  0.4770
 1010MOL0     H33260   8.596  11.231   6.517 -1.4808  0.1143 -0.5652
 1010MOL0     H33261   8.570  11.471   6.572 -0.9200  0.3592 -0.9597
 1010MOL0     H33262   8.481  11.433   6.713  1.7282 -1.8046  1.3935
 1010MOL0     H33263   8.411  11.341   6.427  1.8490 -2.6881  1.6745
 1010MOL0     H33264   8.298  11.341   6.563 -0.4944  1.1707 -1.4424
 1010MOL0     H33265   8.280  11.539   6.389  2.2721  1.0708 -1.3767
 1010MOL0     H33266   8.427  11.599   6.453  1.8712 -1.1727  2.3552
 1010MOL0     H33267   8.311  11.638   6.682  0.4220  0.4462 -0.7194
 1010MOL0     H33268   8.170  11.546   6.620  0.1712 -1.2396 -1.5700
 1010MOL0     H33269   8.274  11.782   6.476 -1.2742  0.4459 -1.4593
 1010MOL0     H33270   8.137  11.727   6.440  3.3201  1.8411 -3.6797
 1010MOL0     H33271   8.225  11.904   6.679  1.2166 -0.3154  0.2121
 1010MOL0     H33272   8.089  11.794   6.714  1.8304  0.0121  1.1616
 1010MOL0     H33273   8.216  12.065   6.471 -0.4487 -0.2602 -0.2350
 1010MOL0     H33274   8.123  12.247   6.337  0.0032  3.1902  2.1740
 1010MOL0     H33275   7.957  12.311   6.366 -1.2378 -2.0062  0.6226
 1010MOL0     H33276   8.005  12.099   6.159 -2.0610 -0.3980 -0.3964
 1010MOL0     H33277   7.990  12.274   6.127 -1.4695  1.8007  0.1941
 1010MOL0     H33278   7.771  12.098   6.238 -1.2480  0.1228 -1.3687
 1010MOL0     H33279   7.768  12.274   6.241  0.5251  0.3691  0.3582
 1010MOL0     H33280   7.824  12.107   5.996 -0.9746 -0.4640 -1.4936
 1010MOL0     H33281   7.794  12.274   5.983 -1.2539 -1.9589 -2.2354
 1010MOL0     H33282   7.654  12.426   6.081 -0.0184 -0.7884  2.3934
 1010MOL0     H33283   7.494  12.584   6.073  0.0458  0.0959 -0.2936
 1010MOL0     H33284   7.238  12.800   6.317  1.8201 -1.6403 -2.4418
 1010MOL0     H33285   7.076  12.997   6.373 -4.9267 -2.6787  2.3387
 1010MOL0     H33286   6.671  13.036   6.241 -0.4625 -2.1160 -0.6470
 1010MOL0     H33287   6.737  13.015   6.081  2.1865  0.6652  0.7472
 1010MOL0     H33288   6.783  13.254   6.069  3.1123 -2.2330  2.2594
 1010MOL0     H33289   6.736  13.298   6.230 -1.4732 -0.5814  1.0214
 1010MOL0     H33290   6.510  13.251   6.209 -0.9444  3.2104 -0.5918
 1010MOL0     H33291   6.522  13.181   6.055 -1.3641  0.7460 -0.0421
 1010MOL0     H33292   6.566  13.464   6.144  3.2661 -0.8724 -0.0931
 1010MOL0     H33293   6.633  13.423   5.992  1.8883  1.1429  2.9333
 1010MOL0     H33294   6.424  13.339   5.904  1.3228  1.8306 -0.8930
 1010MOL0     H33295   6.403  13.509   5.948  0.5794  0.8961  1.0245
 1010MOL0     H33296   6.306  13.434   6.170 -1.0375 -2.4857  1.5894
 1010MOL0     H33297   6.296  13.275   6.106  0.3059 -0.7017 -1.8081
 1010MOL0     H33298   6.169  13.527   5.988  1.8349 -1.2314 -1.1070
 1010MOL0     H33299   6.143  13.373   5.908 -1.7796 -0.5359  0.8741
 1010MOL0     H33300   6.088  13.379   6.186  2.3722 -1.8407 -0.7206
 1010MOL0     H33301   6.042  13.264   6.061  2.4261 -0.8043  3.7507
 1010MOL0     H33302   6.876  12.922   5.994 -0.0898 -1.3405  0.3383
 1010MOL0     H33303   7.035  12.757   5.943  1.1965  0.7580 -0.0970
 1010MOL0     H33304   7.199  12.282   5.997  0.5001 -0.5828  2.1234
 1010MOL0     H33305   7.362  12.117   5.990 -3.2089 -0.1844  1.0848
 1010MOL0     H33306   8.843  11.306   6.913 -0.8991 -0.0364  0.9611
 1010MOL0     H33307   9.046  11.230   7.027 -0.4032 -0.5105  0.8015
 1010MOL0     H33308   9.377  11.182   7.283 -2.1934  0.2765  3.1437
 1010MOL0     H33309   9.585  11.098   7.364  0.3648  0.7306 -3.1487
 1010MOL0     H33310   9.769  10.995   7.439  3.1254 -2.9170  3.0757
 1010MOL0     H33311   9.776  10.965   7.251 -1.1577 -3.0364 -0.7204
 1010MOL0     H33312   9.903  10.791   7.283  0.7804 -0.9218  1.0673
 1010MOL0     H33313  10.000  10.908   7.378  1.2252 -0.9997  1.3904
 1010MOL0     H33314   9.835  10.669   7.486  0.0919  0.1338  0.9876
 1010MOL0     H33315   9.864  10.812   7.581 -0.8814  1.1972  0.1972
 1010MOL0     H33316  10.094  10.794   7.568 -0.5066 -0.3307 -0.5624
 1010MOL0     H33317  10.040  10.636   7.620  1.8321 -1.7360 -1.1480
 1010MOL0     H33318  10.196  10.535   7.243 -0.1211 -0.5267  0.4243
 1010MOL0     H33319   9.450  10.696   7.274 -0.3804 -0.7234  5.5852
 1010MOL0     H33320   9.243  10.782   7.186  1.3600 -0.8339 -1.7060
 1011MOL0     O33321   5.780  10.995   3.778 -0.4916 -0.5809  0.3369
 1011MOL0     C33322   5.776  10.927   3.677  0.3028  0.0025  0.7013
 1011MOL0     O33323   5.659  10.856   3.641  0.4704  0.9672 -0.3809
 1011MOL0     C33324   5.541  10.931   3.625 -0.2336 -0.3238 -0.1930
 1011MOL0     C33325   5.535  11.074   3.605 -0.7471  0.2697 -0.2630
 1011MOL0     C33326   5.407  11.126   3.583  0.4919 -0.3522  0.7128
 1011MOL0     C33327   5.293  11.054   3.593  0.0460 -0.4510  0.6083
 1011MOL0     O33328   5.183  11.130   3.559 -0.0153  0.4804  0.3001
 1011MOL0     C33329   5.056  11.079   3.603  0.1109 -0.6274  0.2310
 1011MOL0     C33330   5.026  11.088   3.753  0.4622 -0.4471 -0.1986
 1011MOL0     C33331   4.898  11.033   3.807 -0.2587  0.0832 -0.9646
 1011MOL0     C33332   4.784  11.126   3.779 -0.0300 -0.2949 -0.3653
 1011MOL0     C33333   4.652  11.066   3.822 -0.1915  0.2069 -0.6004
 1011MOL0     C33334   4.542  11.140   3.757  0.2563 -0.7194  0.0247
 1011MOL0     C33335   4.418  11.090   3.829  0.1993  0.4294  0.2284
 1011MOL0     C33336   4.368  10.955   3.780  0.5739 -0.4433 -0.4557
 1011MOL0     N33337   4.227  10.940   3.821 -0.4673  0.0313 -0.8428
 1011MOL0     C33338   4.183  10.954   3.954  0.6257 -0.3145  0.3304
 1011MOL0     C33339   4.052  10.917   3.952 -0.1821 -0.0467  0.2644
 1011MOL0     C33340   3.950  10.897   4.062 -0.1865  0.2286 -0.6806
 1011MOL0     C33341   3.979  10.805   4.182  0.3043  0.0489  0.2545
 1011MOL0     C33342   4.024  10.659   4.138  0.0108 -1.0821 -0.2682
 1011MOL0     C33343   4.031  10.553   4.248 -0.7722  0.3293  0.3561
 1011MOL0     O33344   3.910  10.541   4.327 -0.2403  0.7162 -0.0332
 1011MOL0     C33345   3.799  10.465   4.281 -0.8127 -0.0336  0.3413
 1011MOL0     C33346   3.702  10.430   4.376 -0.3313 -0.5217 -0.3831
 1011MOL0     C33347   3.594  10.338   4.351 -0.1609 -0.6788 -0.1133
 1011MOL0     C33348   3.591  10.276   4.229  0.1160 -0.0563  0.2098
 1011MOL0     C33349   3.485  10.180   4.204 -0.2480 -0.4150  0.3221
 1011MOL0     O33350   3.395  10.138   4.302  0.5128 -0.9184 -0.1958
 1011MOL0     C33351   3.298  10.047   4.280 -0.8455 -0.4009  0.2264
 1011MOL0     C33352   3.281   9.959   4.386 -0.1066  0.1044 -0.0395
 1011MOL0     C33353   3.163   9.883   4.398 -0.4328 -1.5972 -0.0034
 1011MOL0     C33354   3.082   9.873   4.290  0.3203  0.6670 -0.1143
 1011MOL0     O33355   2.963   9.800   4.307 -0.8138 -0.3679  0.3680
 1011MOL0     C33356   2.856   9.819   4.206 -0.5243  0.1884 -0.5711
 1011MOL0     C33357   2.725   9.735   4.226 -0.7007  0.6992 -0.3567
 1011MOL0     C33358   2.619   9.783   4.123 -0.2759  0.3854  0.8312
 1011MOL0     C33359   2.494   9.682   4.126  0.4630  0.1899  0.9345
 1011MOL0     C33360   2.426   9.678   3.979 -0.7334 -0.8344  0.2845
 1011MOL0     C33361   2.302   9.587   3.982  0.5670  0.0308  0.9723
 1011MOL0     C33362   2.210   9.628   3.861  0.1928 -0.2709  0.1917
 1011MOL0     C33363   2.103   9.527   3.849  0.4821  0.1369  0.1512
 1011MOL0    Cl33364   1.980   9.571   3.716  0.5451 -0.7635  0.1765
 1011MOL0     C33365   3.112   9.952   4.175  0.4495  0.6810 -0.2499
 1011MOL0     C33366   3.206  10.051   4.179 -0.4996 -0.5665 -0.7642
 1011MOL0     O33367   3.474  10.148   4.087  0.2351  0.2018  0.0922
 1011MOL0     C33368   3.692  10.307   4.135 -0.0313 -0.4134  0.3100
 1011MOL0     C33369   3.800  10.395   4.164  0.1466  0.2726  0.5683
 1011MOL0     N33370   4.014  10.903   3.824 -0.6860 -0.0745 -0.0501
 1011MOL0     N33371   4.123  10.903   3.744 -0.0272 -0.7414 -0.9745
 1011MOL0     C33372   5.298  10.916   3.631  0.3706  0.4166  0.2231
 1011MOL0     C33373   5.422  10.858   3.642  0.0158 -0.2236  0.2553
 1011MOL0     C33374   5.896  10.901   3.596  0.4118 -0.2870 -0.0880
 1011MOL0     C33375   6.022  10.928   3.657  0.8316 -0.6788 -0.4721
 1011MOL0     C33376   6.131  10.944   3.566  0.0118  0.3174 -0.1691
 1011MOL0     C33377   6.120  10.902   3.431  0.4956  0.0915 -0.8080
 1011MOL0     O33378   6.242  10.900   3.373 -0.0891 -0.4099 -0.0866
 1011MOL0     C33379   6.260  10.927   3.233  0.3568 -0.3737 -0.8821
 1011MOL0     C33380   6.197  11.059   3.184 -0.0449  0.1256 -0.6778
 1011MOL0     C33381   6.243  11.094   3.045  0.5462  0.3635  0.4728
 1011MOL0     C33382   6.171  11.026   2.933 -0.4808 -0.4459  1.1678
 1011MOL0     C33383   6.175  11.093   2.801 -0.1641  0.5223  0.3612
 1011MOL0     C33384   6.212  11.143   2.692 -0.2092 -0.0980 -0.5575
 1011MOL0     C33385   6.000  10.871   3.382  0.1798  0.0266 -0.3963
 1011MOL0     C33386   5.889  10.860   3.462  0.9607  0.6010  0.0507
 1011MOL0     H33387   5.620  11.140   3.617 -0.1960 -0.5101  0.2532
 1011MOL0     H33388   5.394  11.227   3.545 -0.4683 -0.7315 -0.0329
 1011MOL0     H33389   5.044  10.977   3.565  5.0324 -0.2713 -3.1605
 1011MOL0     H33390   4.976  11.139   3.559 -0.7390 -2.7779 -1.3292
 1011MOL0     H33391   5.025  11.193   3.787  2.9166  0.0235 -1.3787
 1011MOL0     H33392   5.106  11.033   3.803  1.1548 -0.6749 -1.5174
 1011MOL0     H33393   4.901  11.023   3.916 -0.3931 -0.4022 -1.0044
 1011MOL0     H33394   4.887  10.931   3.768  0.1027 -0.5430  0.5014
 1011MOL0     H33395   4.793  11.220   3.834  4.4528 -0.0861 -1.0635
 1011MOL0     H33396   4.775  11.147   3.672 -0.8116  1.2242 -0.0236
 1011MOL0     H33397   4.636  11.065   3.930 -0.8195 -0.4785 -0.6885
 1011MOL0     H33398   4.650  10.963   3.785 -1.2336 -0.5016  1.3108
 1011MOL0     H33399   4.539  11.121   3.650 -0.4753  1.2742 -0.3535
 1011MOL0     H33400   4.556  11.245   3.786 -2.6713  0.5511 -2.6031
 1011MOL0     H33401   4.421  11.088   3.938  0.0982 -0.9895  0.2250
 1011MOL0     H33402   4.339  11.162   3.803 -0.6251 -0.1697  1.0053
 1011MOL0     H33403   4.421  10.872   3.827 -0.4022 -1.1846 -0.6437
 1011MOL0     H33404   4.366  10.934   3.672  0.2695  0.4492 -0.6379
 1011MOL0     H33405   4.236  10.994   4.040 -4.1619  2.4753  2.4350
 1011MOL0     H33406   3.851  10.881   4.017 -0.6913  1.8702 -0.2488
 1011MOL0     H33407   3.954  10.999   4.103  2.7232  0.3034 -0.9393
 1011MOL0     H33408   3.893  10.809   4.249  0.1649  1.5330  0.0126
 1011MOL0     H33409   4.067  10.850   4.230 -0.8659  1.4138  1.1802
 1011MOL0     H33410   3.956  10.616   4.064  2.4174 -3.2438 -1.3792
 1011MOL0     H33411   4.125  10.663   4.097  0.1336 -2.2746 -0.1057
 1011MOL0     H33412   4.111  10.582   4.317  0.7043  0.2262 -1.2426
 1011MOL0     H33413   4.066  10.461   4.201 -1.0330  0.4434 -0.0593
 1011MOL0     H33414   3.720  10.469   4.476  0.3281  0.3151 -0.8081
 1011MOL0     H33415   3.525  10.317   4.432  1.1461 -1.8021  0.7566
 1011MOL0     H33416   3.347   9.973   4.471 -2.1140 -0.7259  1.7535
 1011MOL0     H33417   3.148   9.832   4.492  2.1719 -1.8357  0.3735
 1011MOL0     H33418   2.889   9.786   4.107 -0.6838  0.3269 -0.6708
 1011MOL0     H33419   2.821   9.922   4.193 -0.1849  0.2192 -1.3100
 1011MOL0     H33420   2.679   9.750   4.324  0.7956  0.7744  0.3617
 1011MOL0     H33421   2.746   9.629   4.206 -0.6776 -0.0856  3.1627
 1011MOL0     H33422   2.674   9.781   4.028 -1.8282 -0.0745 -0.0923
 1011MOL0     H33423   2.583   9.885   4.138 -0.9891  0.1929  0.4894
 1011MOL0     H33424   2.536   9.586   4.157  2.9706  1.3840  1.4783
 1011MOL0     H33425   2.428   9.728   4.200  2.0565  0.4287  2.2507
 1011MOL0     H33426   2.497   9.653   3.900 -2.6623 -2.3031 -1.0857
 1011MOL0     H33427   2.380   9.775   3.960 -4.9557 -2.9501 -1.8310
 1011MOL0     H33428   2.244   9.604   4.073  0.8905 -0.0994  1.2040
 1011MOL0     H33429   2.332   9.482   3.976  0.0722 -0.1632  1.7592
 1011MOL0     H33430   2.156   9.722   3.879  0.6385  0.1520 -0.6032
 1011MOL0     H33431   2.263   9.639   3.766  0.1351 -2.3809 -0.1181
 1011MOL0     H33432   2.040   9.520   3.939 -1.0482 -1.1773 -0.9653
 1011MOL0     H33433   2.140   9.425   3.838  1.1904  0.6207 -2.5563
 1011MOL0     H33434   3.038   9.949   4.095  0.0303  1.9780  0.0574
 1011MOL0     H33435   3.221  10.132   4.108 -3.1415 -0.8330 -1.7329
 1011MOL0     H33436   3.686  10.265   4.035 -2.5129  0.2494  0.1153
 1011MOL0     H33437   3.870  10.418   4.084 -1.8241  1.2256 -0.9756
 1011MOL0     H33438   5.214  10.849   3.646  1.6148 -1.8505 -2.1775
 1011MOL0     H33439   5.442  10.756   3.671 -0.9045  0.3856  3.3764
 1011MOL0     H33440   6.026  10.945   3.764 -1.6006 -0.9709 -0.2823
 1011MOL0     H33441   6.228  10.983   3.595 -0.9388  3.1499 -0.4873
 1011MOL0     H33442   6.203  10.847   3.184 -0.8191 -0.0872 -0.0116
 1011MOL0     H33443   6.362  10.904   3.201  1.5975 -0.4505  2.6591
 1011MOL0     H33444   6.090  11.040   3.193  0.4149 -1.9005  1.8806
 1011MOL0     H33445   6.228  11.140   3.251  0.4419  0.9445 -1.8531
 1011MOL0     H33446   6.351  11.082   3.038  0.9939  3.0164  1.5632
 1011MOL0     H33447   6.216  11.200   3.054 -2.0386 -0.3736  2.4953
 1011MOL0     H33448   6.220  10.928   2.928  1.7641  0.6578  0.3095
 1011MOL0     H33449   6.070  10.997   2.965 -0.9215 -1.5712 -1.0846
 1011MOL0     H33450   6.242  11.204   2.610  1.3992  0.5571  0.4748
 1011MOL0     H33451   5.988  10.847   3.277 -1.1327 -0.7184 -0.1034
 1011MOL0     H33452   5.799  10.821   3.416  0.7593 -1.1029  1.7541
 1012MOL0     O33453   2.433   3.690  11.051 -0.0709 -0.3231 -0.3440
 1012MOL0     C33454   2.527   3.613  11.026  0.1669 -0.9908  0.4266
 1012MOL0     O33455   2.524   3.482  11.030 -0.4311  0.5154  0.2614
 1012MOL0     C33456   2.409   3.403  11.025 -0.0833  0.6333 -0.3612
 1012MOL0     C33457   2.284   3.442  11.005 -0.3516  0.0025  1.2187
 1012MOL0     C33458   2.177   3.355  11.025  0.2017 -0.4898 -0.4860
 1012MOL0     C33459   2.198   3.218  11.064  0.3344  0.8383  0.4387
 1012MOL0     O33460   2.110   3.120  11.069 -0.4752 -0.9379 -0.4612
 1012MOL0     C33461   1.990   3.150  11.149  0.1213  0.4546 -0.3420
 1012MOL0     C33462   1.978   3.038  11.254 -0.4016  0.6141 -0.1359
 1012MOL0     C33463   1.853   3.044  11.345 -0.6031  0.9454  0.2328
 1012MOL0     C33464   1.737   2.959  11.294  0.1377  0.2923 -0.1525
 1012MOL0     C33465   1.637   2.929  11.404  0.1850  0.3016  0.1055
 1012MOL0     C33466   1.543   2.829  11.347  0.6644 -0.1432  0.5712
 1012MOL0     C33467   1.425   2.803  11.444 -0.9123 -0.9658  0.6699
 1012MOL0     C33468   1.461   2.697  11.545  0.1850  0.0467 -0.5709
 1012MOL0     N33469   1.370   2.704  11.658 -0.1317  0.7356 -0.0351
 1012MOL0     C33470   1.378   2.791  11.760  0.0510 -0.8127 -0.2471
 1012MOL0     C33471   1.270   2.767  11.832 -0.3871 -0.7763  0.5578
 1012MOL0     C33472   1.238   2.846  11.961 -0.3806  0.0133 -0.0043
 1012MOL0     C33473   1.155   2.972  11.932 -1.0092  0.3239 -0.0148
 1012MOL0     C33474   1.021   2.939  11.855  0.0900 -1.3423  0.9239
 1012MOL0     C33475   0.920   3.062  11.869 -0.1658  0.1596  0.0632
 1012MOL0     O33476   0.798   3.025  11.801 -0.4060 -1.0732 -0.3575
 1012MOL0     C33477   0.695   3.120  11.806 -0.3327 -0.4229 -0.1588
 1012MOL0     C33478   0.582   3.084  11.728  0.2012  0.0781 -0.7026
 1012MOL0     C33479   0.473   3.163  11.713  0.6631 -0.0973 -0.2669
 1012MOL0     C33480   0.470   3.293  11.761 -0.7057  0.3574 -0.0944
 1012MOL0     C33481   0.357   3.380  11.743  0.1917 -0.4948 -0.6479
 1012MOL0     O33482   0.250   3.326  11.673  0.4357 -0.4170  0.4277
 1012MOL0     C33483   0.123   3.385  11.673 -0.3133 -0.7488  0.8066
 1012MOL0     C33484   0.076   3.479  11.773  0.2344  0.7428  0.0902
 1012MOL0     C33485  -0.047   3.543  11.755 -0.4124  0.2006  0.1525
 1012MOL0     C33486  -0.134   3.513  11.648  0.0279  0.3517  0.2396
 1012MOL0     O33487  -0.257   3.562  11.618 -0.1750  0.2122  0.1620
 1012MOL0     C33488  -0.323   3.637  11.719 -1.4093 -0.9899  0.3620
 1012MOL0     C33489  -0.449   3.699  11.651 -0.2523 -0.3561 -0.1776
 1012MOL0     C33490  -0.529   3.600  11.566 -0.0008  0.4139  0.0403
 1012MOL0     C33491  -0.678   3.643  11.553 -0.6258  0.6222 -0.6838
 1012MOL0     C33492  -0.773   3.542  11.496 -0.5229  0.0212  0.2171
 1012MOL0     C33493  -0.921   3.587  11.507 -0.2629 -0.3427  0.3402
 1012MOL0     C33494  -1.006   3.476  11.443  0.4425 -0.1957 -0.4452
 1012MOL0     C33495  -1.153   3.508  11.483 -0.4615  0.2324 -0.0281
 1012MOL0    Cl33496  -1.225   3.657  11.443  0.2265  0.4991 -0.0891
 1012MOL0     C33497  -0.082   3.432  11.544 -0.7027 -0.9976  0.4693
 1012MOL0     C33498   0.043   3.378  11.555 -0.6696 -0.3714  0.4488
 1012MOL0     O33499   0.372   3.494  11.787  0.0558  0.3370 -0.5104
 1012MOL0     C33500   0.589   3.332  11.832  0.2714 -0.2188 -0.4683
 1012MOL0     C33501   0.698   3.247  11.856  0.2243 -0.1937 -0.5240
 1012MOL0     N33502   1.202   2.657  11.783 -0.6568 -0.7579 -0.0722
 1012MOL0     N33503   1.254   2.636  11.662  0.5151  0.2818 -0.7229
 1012MOL0     C33504   2.324   3.175  11.079  0.3579 -0.7568  0.3217
 1012MOL0     C33505   2.431   3.262  11.060  0.3791 -0.1252 -0.2134
 1012MOL0     C33506   2.655   3.688  10.992 -0.6181 -0.6464 -0.5280
 1012MOL0     C33507   2.772   3.627  10.957 -0.1110 -0.0533  0.3495
 1012MOL0     C33508   2.891   3.697  10.927 -0.2573 -0.5676  0.2997
 1012MOL0     C33509   2.888   3.833  10.916  0.2512 -0.3746 -0.1127
 1012MOL0     O33510   2.995   3.898  10.858  0.3809 -0.3434  0.2392
 1012MOL0     C33511   3.029   4.037  10.877  0.2330  0.2987  0.1459
 1012MOL0     C33512   3.178   4.077  10.859  0.9276  0.8916 -0.1905
 1012MOL0     C33513   3.227   4.063  10.724  0.0589  0.3569 -0.1773
 1012MOL0     C33514   3.376   4.075  10.706  0.2785  0.5515  0.0999
 1012MOL0     C33515   3.437   4.199  10.755 -0.3778 -0.4760 -0.4810
 1012MOL0     C33516   3.467   4.314  10.785 -0.6051 -0.3160 -0.2763
 1012MOL0     C33517   2.773   3.904  10.953  0.5694  1.1042  0.3644
 1012MOL0     C33518   2.657   3.828  11.000 -0.5484  0.6915 -0.1837
 1012MOL0     H33519   2.265   3.544  10.972  0.0976  1.0733  3.9543
 1012MOL0     H33520   2.072   3.375  11.006 -0.1314  0.6803  2.0798
 1012MOL0     H33521   1.907   3.159  11.079  0.7570  1.7005 -0.9748
 1012MOL0     H33522   2.012   3.246  11.196  2.4225 -0.5681  0.8737
 1012MOL0     H33523   2.064   3.038  11.321 -1.2574  1.5119  0.9951
 1012MOL0     H33524   1.983   2.938  11.211 -0.4310  0.0272  1.1955
 1012MOL0     H33525   1.814   3.144  11.369 -1.1976  0.2985  2.1469
 1012MOL0     H33526   1.883   2.996  11.438  0.1719 -2.0644 -1.4572
 1012MOL0     H33527   1.693   3.018  11.213  0.3014  0.5625 -0.0470
 1012MOL0     H33528   1.769   2.863  11.253 -0.4998 -0.1340  0.3318
 1012MOL0     H33529   1.585   3.023  11.426 -0.8798  0.1227 -1.5087
 1012MOL0     H33530   1.672   2.887  11.499 -4.2725 -1.5465  1.1588
 1012MOL0     H33531   1.598   2.740  11.317  0.8291  0.7162 -1.9557
 1012MOL0     H33532   1.500   2.869  11.254 -0.5033 -2.7606 -0.0940
 1012MOL0     H33533   1.393   2.892  11.499  1.8178 -0.0651  0.9795
 1012MOL0     H33534   1.345   2.770  11.377  0.4002 -1.6772 -0.6033
 1012MOL0     H33535   1.565   2.699  11.581  0.8977  1.1731 -2.5196
 1012MOL0     H33536   1.452   2.595  11.506  0.7656 -0.2702  0.0873
 1012MOL0     H33537   1.454   2.868  11.770  0.5373 -1.1838 -1.0180
 1012MOL0     H33538   1.330   2.854  12.019  0.7936  3.1005 -2.0727
 1012MOL0     H33539   1.168   2.776  12.009 -2.7728  0.2564 -2.8723
 1012MOL0     H33540   1.213   3.040  11.868 -0.0586 -1.2509 -0.8884
 1012MOL0     H33541   1.126   3.026  12.023 -1.4529 -0.4352  0.3024
 1012MOL0     H33542   1.039   2.925  11.748 -3.6005 -0.1747  0.0025
 1012MOL0     H33543   0.973   2.842  11.875  2.2816 -2.9555 -1.0028
 1012MOL0     H33544   0.971   3.149  11.828 -1.9162  1.1583 -0.1204
 1012MOL0     H33545   0.896   3.076  11.975  0.3326 -1.1703  0.3741
 1012MOL0     H33546   0.588   2.992  11.671  0.3628  1.4403 -3.0200
 1012MOL0     H33547   0.386   3.124  11.662 -1.3328  1.1678  1.9355
 1012MOL0     H33548   0.133   3.497  11.864  0.7974  0.9167 -0.2865
 1012MOL0     H33549  -0.082   3.610  11.832 -0.4685  0.3527 -0.0053
 1012MOL0     H33550  -0.256   3.712  11.765 -1.2767 -0.4148 -0.7412
 1012MOL0     H33551  -0.351   3.563  11.795 -1.0665 -3.0083 -1.3954
 1012MOL0     H33552  -0.414   3.774  11.579 -0.1388  0.7934  1.0420
 1012MOL0     H33553  -0.507   3.756  11.724 -0.3700  0.7881 -1.1228
 1012MOL0     H33554  -0.533   3.504  11.618  1.8884  1.5040  2.4107
 1012MOL0     H33555  -0.486   3.582  11.467  0.4877  0.4852  0.2352
 1012MOL0     H33556  -0.708   3.671  11.654  4.2665 -1.3371  1.6362
 1012MOL0     H33557  -0.690   3.728  11.485 -2.0865 -0.8543 -2.3684
 1012MOL0     H33558  -0.762   3.440  11.535 -2.5069 -1.1676 -2.0357
 1012MOL0     H33559  -0.744   3.525  11.392  0.9287 -0.9711  0.7422
 1012MOL0     H33560  -0.943   3.679  11.452 -0.5608 -1.7342 -1.9805
 1012MOL0     H33561  -0.943   3.607  11.613  2.1829  0.8838  0.6837
 1012MOL0     H33562  -1.005   3.464  11.334 -0.4803  2.1322 -0.7701
 1012MOL0     H33563  -0.976   3.375  11.473  0.9952  0.3884  1.0176
 1012MOL0     H33564  -1.171   3.498  11.591  0.7633  2.5513  0.4495
 1012MOL0     H33565  -1.227   3.440  11.439  0.6297 -1.8798  1.2450
 1012MOL0     H33566  -0.123   3.407  11.447  0.4734  2.2115 -1.0092
 1012MOL0     H33567   0.083   3.312  11.478  2.3754  1.9679 -0.1850
 1012MOL0     H33568   0.594   3.427  11.884 -1.5321 -1.8601  3.0484
 1012MOL0     H33569   0.785   3.273  11.916 -0.6204  2.2520 -0.2573
 1012MOL0     H33570   2.349   3.070  11.094  0.6302 -0.4895  1.9327
 1012MOL0     H33571   2.529   3.219  11.076 -0.3593 -0.5947  4.4899
 1012MOL0     H33572   2.782   3.519  10.966 -3.5378 -0.5446 -0.1767
 1012MOL0     H33573   2.974   3.638  10.890  0.5412  1.9804 -2.2593
 1012MOL0     H33574   2.999   4.084  10.971 -1.5090  0.9786 -0.7208
 1012MOL0     H33575   2.975   4.081  10.793  3.0768 -0.9587 -2.5559
 1012MOL0     H33576   3.181   4.176  10.905 -1.1614  0.1644  1.7155
 1012MOL0     H33577   3.241   4.013  10.920 -0.8225 -0.3132  0.4294
 1012MOL0     H33578   3.176   4.124  10.648  0.7241  1.2084  0.0427
 1012MOL0     H33579   3.199   3.960  10.700 -1.2576  0.4271  0.9371
 1012MOL0     H33580   3.425   3.993  10.760 -3.6056 -2.7064 -0.8239
 1012MOL0     H33581   3.402   4.061  10.601 -0.2659 -0.7145  0.1122
 1012MOL0     H33582   3.494   4.413  10.815 -0.4930 -0.1750 -0.8230
 1012MOL0     H33583   2.773   4.013  10.954 -4.0146  1.3106  1.9197
 1012MOL0     H33584   2.568   3.884  11.027 -1.0745 -0.2443  0.0476
 1013MOL0     O33585  11.125   0.579   3.241  0.2924  0.3295  0.0413
 1013MOL0     C33586  11.112   0.688   3.192 -0.0750 -0.2282  0.0932
 1013MOL0     O33587  11.204   0.766   3.140  0.9649  0.0681  0.7967
 1013MOL0     C33588  11.327   0.716   3.118 -1.2709 -0.2983 -0.0073
 1013MOL0     C33589  11.367   0.701   2.986 -0.3727  0.4597  0.8918
 1013MOL0     C33590  11.489   0.645   2.946  0.0666 -0.3079 -0.4930
 1013MOL0     C33591  11.581   0.601   3.043  0.1841 -0.1377  0.2688
 1013MOL0     O33592  11.706   0.555   3.008 -0.4265 -0.0149  0.2594
 1013MOL0     C33593  11.749   0.547   2.870 -0.5214 -0.2894 -0.3049
 1013MOL0     C33594  11.892   0.493   2.861 -0.8768  0.5732 -0.1100
 1013MOL0     C33595  11.917   0.347   2.909  0.2074 -0.3589 -1.0095
 1013MOL0     C33596  12.060   0.290   2.885 -0.0128  0.1052 -0.8121
 1013MOL0     C33597  12.069   0.142   2.928  0.2772  0.7545  0.2031
 1013MOL0     C33598  12.201   0.077   2.906 -0.4722 -0.1542  0.1165
 1013MOL0     C33599  12.239   0.077   2.750  0.7393 -0.0980  0.3657
 1013MOL0     C33600  12.338  -0.036   2.712  1.0651  0.4396  0.6435
 1013MOL0     N33601  12.319  -0.061   2.567 -0.8572  0.1469 -0.1965
 1013MOL0     C33602  12.421  -0.057   2.477 -0.1026 -0.5695 -0.4879
 1013MOL0     C33603  12.365  -0.119   2.369 -1.0489  0.3467  0.4626
 1013MOL0     C33604  12.433  -0.149   2.237  0.1704 -0.1547  0.5847
 1013MOL0     C33605  12.529  -0.272   2.235 -0.6927 -1.0170 -0.2479
 1013MOL0     C33606  12.577  -0.300   2.088 -0.2708 -0.3702 -0.0098
 1013MOL0     C33607  12.678  -0.415   2.086 -0.0767  1.6131 -0.6663
 1013MOL0     O33608  12.609  -0.542   2.107 -0.2801 -0.0048 -0.2320
 1013MOL0     C33609  12.669  -0.662   2.115 -0.6299 -0.3418 -0.2595
 1013MOL0     C33610  12.805  -0.673   2.072  0.0618 -0.1672 -0.7382
 1013MOL0     C33611  12.864  -0.800   2.076  0.2395  0.3785  0.2917
 1013MOL0     C33612  12.800  -0.912   2.134 -0.3260 -0.9442  0.0827
 1013MOL0     C33613  12.876  -1.037   2.157 -0.9457  0.3277 -0.0239
 1013MOL0     O33614  12.994  -1.057   2.078 -0.1563 -0.4026  1.1957
 1013MOL0     C33615  13.032  -1.191   2.073  0.0541 -0.4793  0.0968
 1013MOL0     C33616  12.998  -1.278   1.969  1.0181 -0.3211  0.1773
 1013MOL0     C33617  13.041  -1.406   1.969 -0.1878  0.6173 -0.5570
 1013MOL0     C33618  13.118  -1.454   2.081  0.0550  0.2089  0.5543
 1013MOL0     O33619  13.186  -1.575   2.074  0.1959  0.0786 -0.6715
 1013MOL0     C33620  13.135  -1.670   2.169  0.0848  0.7374 -0.1425
 1013MOL0     C33621  13.032  -1.763   2.105 -0.6946  0.3922 -0.3579
 1013MOL0     C33622  12.885  -1.718   2.133 -0.6083 -0.4308  0.6188
 1013MOL0     C33623  12.784  -1.824   2.092  1.1595 -0.5751  0.8346
 1013MOL0     C33624  12.640  -1.770   2.072 -0.3334  1.9158  0.0476
 1013MOL0     C33625  12.563  -1.908   2.043  0.2994  0.1514 -0.1872
 1013MOL0     C33626  12.419  -1.881   2.028  0.2540 -0.7129 -0.2557
 1013MOL0     C33627  12.334  -2.015   2.047 -0.1295  0.5138  0.0005
 1013MOL0    Cl33628  12.159  -1.976   2.066 -0.4264  0.1254 -0.5180
 1013MOL0     C33629  13.145  -1.368   2.183  0.0144 -0.4080 -1.4614
 1013MOL0     C33630  13.101  -1.236   2.182  0.3597  0.5455 -0.7273
 1013MOL0     O33631  12.834  -1.116   2.243 -0.4192  0.4912 -0.3878
 1013MOL0     C33632  12.666  -0.896   2.169 -0.0004 -0.0916 -0.0412
 1013MOL0     C33633  12.603  -0.776   2.164  0.8335 -0.1258  0.2341
 1013MOL0     N33634  12.249  -0.175   2.403  0.0781  0.3945  0.4849
 1013MOL0     N33635  12.219  -0.139   2.521  0.8103 -0.0227  0.3616
 1013MOL0     C33636  11.534   0.603   3.175  0.3946 -0.0014 -0.2893
 1013MOL0     C33637  11.408   0.661   3.211  0.0512 -0.2361  0.2113
 1013MOL0     C33638  10.974   0.738   3.187  0.0042  0.6675  0.3785
 1013MOL0     C33639  10.941   0.862   3.120 -0.1547 -0.3394  0.2670
 1013MOL0     C33640  10.805   0.886   3.093 -0.2780 -0.2469  0.1736
 1013MOL0     C33641  10.704   0.803   3.147 -0.6747 -0.1464 -1.1388
 1013MOL0     O33642  10.572   0.803   3.108  0.6418  0.1660  0.2312
 1013MOL0     C33643  10.513   0.937   3.084 -0.2940 -0.0546  0.4450
 1013MOL0     C33644  10.362   0.939   3.084  0.1270 -0.5849 -0.3475
 1013MOL0     C33645  10.311   0.900   3.218  0.9680  0.1035  0.7783
 1013MOL0     C33646  10.158   0.909   3.222 -0.3253 -0.0095 -0.1411
 1013MOL0     C33647  10.106   1.045   3.223  0.9470 -0.3309 -0.0894
 1013MOL0     C33648  10.066   1.164   3.214 -0.6900 -0.0894 -0.2615
 1013MOL0     C33649  10.740   0.686   3.218 -0.3903 -0.2298  0.2704
 1013MOL0     C33650  10.872   0.660   3.240  0.4470  0.7320 -0.0973
 1013MOL0     H33651  11.307   0.732   2.902  0.3723  0.9744  0.5382
 1013MOL0     H33652  11.514   0.632   2.841  2.3375 -2.4038  0.2303
 1013MOL0     H33653  11.748   0.645   2.821 -1.3822 -1.5522 -3.0119
 1013MOL0     H33654  11.683   0.486   2.808 -1.6719 -0.2673  0.8582
 1013MOL0     H33655  11.953   0.563   2.919 -0.6085  1.4282 -1.3963
 1013MOL0     H33656  11.929   0.506   2.759  0.0291  2.4029  0.3992
 1013MOL0     H33657  11.854   0.273   2.860 -2.9191 -0.0390  2.0980
 1013MOL0     H33658  11.889   0.347   3.015  0.6610 -0.7111 -0.8839
 1013MOL0     H33659  12.082   0.295   2.778 -3.5356 -5.1149 -2.1708
 1013MOL0     H33660  12.130   0.335   2.955 -1.6702 -0.2485  1.1460
 1013MOL0     H33661  11.994   0.096   2.863 -0.2627  1.0672  0.6051
 1013MOL0     H33662  12.036   0.120   3.030 -0.7984  0.1758 -0.2568
 1013MOL0     H33663  12.213  -0.020   2.955  2.3412  0.9766  1.9239
 1013MOL0     H33664  12.272   0.141   2.960 -1.0943  2.1879 -1.6308
 1013MOL0     H33665  12.150   0.077   2.686  0.8768  1.1756  0.1324
 1013MOL0     H33666  12.274   0.180   2.736 -0.9644  0.7830  2.2333
 1013MOL0     H33667  12.311  -0.121   2.776 -0.9994  0.9603  0.5278
 1013MOL0     H33668  12.440  -0.003   2.731  1.4459 -1.6682  2.8940
 1013MOL0     H33669  12.523  -0.019   2.486 -0.1905 -0.1018 -1.4098
 1013MOL0     H33670  12.489  -0.066   2.192  0.6070 -0.9948 -0.4583
 1013MOL0     H33671  12.363  -0.167   2.154 -0.6895 -1.0917  1.4860
 1013MOL0     H33672  12.471  -0.359   2.269  0.8895 -1.6388  1.0034
 1013MOL0     H33673  12.616  -0.251   2.298 -0.1186 -0.0631 -1.3385
 1013MOL0     H33674  12.489  -0.302   2.022 -0.1648 -1.4666 -0.1354
 1013MOL0     H33675  12.625  -0.208   2.052 -2.0527  1.7752  2.6483
 1013MOL0     H33676  12.745  -0.424   2.172  1.6055 -2.2927 -2.1406
 1013MOL0     H33677  12.733  -0.410   1.992 -0.4168  3.0513 -0.8013
 1013MOL0     H33678  12.864  -0.587   2.041  2.2793 -0.2896  2.5341
 1013MOL0     H33679  12.966  -0.817   2.044 -0.8650 -1.7755 -2.5990
 1013MOL0     H33680  12.946  -1.229   1.887 -1.4771 -1.3171  1.0519
 1013MOL0     H33681  13.037  -1.473   1.885  3.1430 -3.5000  2.1645
 1013MOL0     H33682  13.102  -1.628   2.265  1.5736 -2.9751  2.2675
 1013MOL0     H33683  13.225  -1.717   2.210 -0.4000  1.3996  1.8074
 1013MOL0     H33684  13.040  -1.862   2.150 -1.3602  0.1405 -0.7820
 1013MOL0     H33685  13.048  -1.790   2.000  0.9666 -0.5212  0.1003
 1013MOL0     H33686  12.859  -1.634   2.068 -2.3902 -1.0556  0.4619
 1013MOL0     H33687  12.873  -1.690   2.238  2.9578 -1.4195  1.4379
 1013MOL0     H33688  12.810  -1.870   1.996  1.1185  0.5734  0.2575
 1013MOL0     H33689  12.786  -1.903   2.168 -2.4209 -1.5067  0.1314
 1013MOL0     H33690  12.634  -1.702   1.987 -0.3307  0.8627 -0.8233
 1013MOL0     H33691  12.604  -1.722   2.164  1.1017 -0.3005  1.8795
 1013MOL0     H33692  12.582  -1.990   2.113 -0.1406 -1.4949 -1.8846
 1013MOL0     H33693  12.593  -1.946   1.945  1.7818  1.8376 -0.4280
 1013MOL0     H33694  12.385  -1.810   2.104 -2.3844 -1.6018 -0.5078
 1013MOL0     H33695  12.409  -1.840   1.927 -0.8952 -1.6123 -0.5209
 1013MOL0     H33696  12.371  -2.046   2.145  0.3348  4.0459  1.0982
 1013MOL0     H33697  12.359  -2.087   1.968  0.8402  0.9089 -0.0700
 1013MOL0     H33698  13.207  -1.403   2.265  0.0072  0.7256 -0.9554
 1013MOL0     H33699  13.139  -1.169   2.259  0.1171  1.8409 -1.7004
 1013MOL0     H33700  12.602  -0.977   2.203  0.6604  0.0787  1.6679
 1013MOL0     H33701  12.506  -0.744   2.199  1.3201  0.2015  1.3513
 1013MOL0     H33702  11.584   0.557   3.259  3.1803  0.6278 -1.4776
 1013MOL0     H33703  11.382   0.664   3.316  1.6287 -2.4476  0.7497
 1013MOL0     H33704  11.012   0.930   3.073 -0.2436  1.9288  3.1445
 1013MOL0     H33705  10.783   0.969   3.027  0.2722 -1.2265 -1.2995
 1013MOL0     H33706  10.552   0.985   2.994  0.6971 -0.8162  0.4467
 1013MOL0     H33707  10.548   0.990   3.173 -0.8917 -0.8381  1.1704
 1013MOL0     H33708  10.329   1.042   3.067 -2.3439 -1.2492  0.0820
 1013MOL0     H33709  10.336   0.875   2.999  2.8109 -1.0129 -0.9211
 1013MOL0     H33710  10.350   0.964   3.298 -2.1616  1.0951  1.6378
 1013MOL0     H33711  10.312   0.792   3.231  0.6280 -0.1891 -1.2676
 1013MOL0     H33712  10.120   0.858   3.133 -1.1482  0.5462 -0.1144
 1013MOL0     H33713  10.113   0.861   3.309 -0.6917  3.5146  1.7985
 1013MOL0     H33714  10.040   1.268   3.211  2.4242  0.7733 -1.8422
 1013MOL0     H33715  10.662   0.618   3.250 -0.3032 -0.8100 -0.7262
 1013MOL0     H33716  10.902   0.561   3.274  2.6003  0.4265 -2.5422
 1014MOL0     O33717   7.421  10.183   1.130 -0.1335 -0.0913 -0.3632
 1014MOL0     C33718   7.467  10.133   1.233 -0.1763  0.6447 -0.0867
 1014MOL0     O33719   7.429  10.018   1.295  0.4289 -0.5731 -0.0077
 1014MOL0     C33720   7.301   9.973   1.290 -0.4925 -0.1844 -0.3940
 1014MOL0     C33721   7.274   9.891   1.398  0.5741  0.2650  0.7043
 1014MOL0     C33722   7.145   9.834   1.404  0.2618 -0.1370 -0.2682
 1014MOL0     C33723   7.045   9.859   1.308 -0.6604  0.3644  0.3736
 1014MOL0     O33724   6.922   9.797   1.330  0.0267 -0.7580 -0.8443
 1014MOL0     C33725   6.834   9.769   1.217  0.1089  0.3122 -0.0678
 1014MOL0     C33726   6.747   9.649   1.265  0.0133 -0.5420  0.3332
 1014MOL0     C33727   6.624   9.686   1.347  1.3520  0.0003 -0.1074
 1014MOL0     C33728   6.530   9.565   1.357  0.2152  0.0017 -0.2682
 1014MOL0     C33729   6.409   9.599   1.445  0.1196 -0.7791  0.2570
 1014MOL0     C33730   6.318   9.482   1.460 -0.0056  0.0675  0.0981
 1014MOL0     C33731   6.189   9.538   1.529  0.2072  0.3164  0.5141
 1014MOL0     C33732   6.098   9.417   1.540  0.6174  0.1169  0.0263
 1014MOL0     N33733   5.963   9.461   1.566  0.3085 -0.4532 -0.2074
 1014MOL0     C33734   5.859   9.484   1.475  0.2399  0.0716 -0.3024
 1014MOL0     C33735   5.749   9.482   1.550  0.0268  1.1273  0.2388
 1014MOL0     C33736   5.611   9.506   1.508  0.3253 -0.4517 -0.3746
 1014MOL0     C33737   5.563   9.398   1.406  0.1022  0.3185 -0.4393
 1014MOL0     C33738   5.536   9.260   1.465  0.4388 -0.5165 -0.0285
 1014MOL0     C33739   5.398   9.230   1.517 -0.2501  0.1222  0.8345
 1014MOL0     O33740   5.315   9.230   1.402  0.6452 -0.1841 -0.1495
 1014MOL0     C33741   5.180   9.221   1.419  0.4716 -0.3094 -0.7516
 1014MOL0     C33742   5.107   9.188   1.303 -0.7618  0.4465 -0.8694
 1014MOL0     C33743   4.971   9.201   1.300 -0.2089  0.5148 -0.3424
 1014MOL0     C33744   4.894   9.245   1.407  0.0068  0.0193  0.0720
 1014MOL0     C33745   4.747   9.254   1.397 -0.1595 -0.0175  0.3425
 1014MOL0     O33746   4.679   9.260   1.517 -0.4766 -0.0452  0.4369
 1014MOL0     C33747   4.541   9.271   1.505  0.5959  0.0444 -0.9507
 1014MOL0     C33748   4.467   9.150   1.520 -0.2285  0.7193  0.5133
 1014MOL0     C33749   4.329   9.142   1.509 -0.1768 -0.3826  0.3480
 1014MOL0     C33750   4.258   9.262   1.498 -0.3393  0.0835  0.2994
 1014MOL0     O33751   4.122   9.246   1.495 -0.5170  0.4075 -0.5808
 1014MOL0     C33752   4.045   9.368   1.461  0.8971 -0.6127  0.0251
 1014MOL0     C33753   3.904   9.313   1.439  0.2615  0.1451  0.8580
 1014MOL0     C33754   3.897   9.216   1.328  0.2559 -0.1128 -0.4316
 1014MOL0     C33755   3.770   9.226   1.249 -0.5496 -0.2832  0.1161
 1014MOL0     C33756   3.751   9.149   1.117 -0.4230 -0.3462  0.2464
 1014MOL0     C33757   3.794   9.007   1.127  0.4132  1.2212 -0.5307
 1014MOL0     C33758   3.742   8.918   1.242  0.2908 -0.3645 -0.2516
 1014MOL0     C33759   3.671   8.788   1.200 -0.6869  0.0880  0.6615
 1014MOL0    Cl33760   3.793   8.695   1.102 -0.1093 -0.2313  0.0134
 1014MOL0     C33761   4.335   9.373   1.488  0.2281 -0.6811  0.7091
 1014MOL0     C33762   4.471   9.390   1.498  0.1239 -0.0501 -0.2904
 1014MOL0     O33763   4.691   9.256   1.286 -0.1261  0.2371  0.2996
 1014MOL0     C33764   4.968   9.274   1.521  0.2958 -0.2957 -0.2330
 1014MOL0     C33765   5.110   9.276   1.520  0.0828  0.1780 -0.3353
 1014MOL0     N33766   5.788   9.457   1.679  0.3981  0.4205 -0.2478
 1014MOL0     N33767   5.914   9.456   1.689 -0.0934  0.3907 -0.4259
 1014MOL0     C33768   7.077   9.936   1.198 -0.3344  0.0876  0.6505
 1014MOL0     C33769   7.203   9.995   1.193  0.2658  0.6989 -0.1574
 1014MOL0     C33770   7.601  10.190   1.272  0.9583 -1.0003  0.7755
 1014MOL0     C33771   7.709  10.105   1.297  0.2800 -0.6023  0.2394
 1014MOL0     C33772   7.840  10.166   1.316 -0.2124  0.1192  0.1939
 1014MOL0     C33773   7.857  10.300   1.312  0.1385 -0.1719  0.2576
 1014MOL0     O33774   7.989  10.348   1.309 -0.1925 -0.4260 -0.6617
 1014MOL0     C33775   8.013  10.487   1.316 -0.5075  0.5401  0.3322
 1014MOL0     C33776   8.164  10.514   1.336  0.4807  0.2157  0.9298
 1014MOL0     C33777   8.220  10.457   1.460 -0.0894  0.6929  0.1578
 1014MOL0     C33778   8.314  10.336   1.447  0.1471  0.7830  0.1635
 1014MOL0     C33779   8.429  10.374   1.377 -0.3727  0.0125  0.9327
 1014MOL0     C33780   8.531  10.417   1.334 -0.9007 -0.3944 -0.4037
 1014MOL0     C33781   7.746  10.388   1.286 -0.2428 -0.1166 -0.1846
 1014MOL0     C33782   7.623  10.333   1.263  0.1352 -0.2329  0.0570
 1014MOL0     H33783   7.350   9.871   1.474  1.3926  1.1524  0.1409
 1014MOL0     H33784   7.112   9.770   1.485 -0.7776  0.4283 -0.2283
 1014MOL0     H33785   6.893   9.736   1.130 -1.0980 -2.7604  0.1478
 1014MOL0     H33786   6.781   9.858   1.184 -2.7328 -1.7206 -1.4425
 1014MOL0     H33787   6.815   9.587   1.325  2.7963 -1.0236 -3.0188
 1014MOL0     H33788   6.733   9.599   1.169  0.6637  0.1223 -0.1129
 1014MOL0     H33789   6.558   9.763   1.306 -1.9425 -2.7540 -0.3744
 1014MOL0     H33790   6.660   9.730   1.441  3.1020  1.0182 -1.1849
 1014MOL0     H33791   6.494   9.542   1.256 -0.9514  1.5243 -0.2366
 1014MOL0     H33792   6.580   9.478   1.402 -0.8741  0.4685  1.9577
 1014MOL0     H33793   6.371   9.678   1.378  0.2014 -0.4838  0.5578
 1014MOL0     H33794   6.435   9.639   1.543  0.5879 -1.3020  0.3468
 1014MOL0     H33795   6.370   9.412   1.526  2.0651  1.0347 -0.4145
 1014MOL0     H33796   6.299   9.430   1.366 -2.7672 -0.0229  0.6230
 1014MOL0     H33797   6.214   9.571   1.630  1.1335 -1.9205  1.0989
 1014MOL0     H33798   6.141   9.617   1.472  1.8012  0.7590 -0.2640
 1014MOL0     H33799   6.139   9.354   1.620 -1.8908 -0.1856  1.1727
 1014MOL0     H33800   6.107   9.359   1.447 -3.1552  0.8973 -1.0159
 1014MOL0     H33801   5.864   9.467   1.368 -1.6175  3.8242 -1.1360
 1014MOL0     H33802   5.608   9.604   1.460 -1.6608 -1.4209 -2.4165
 1014MOL0     H33803   5.540   9.508   1.592  0.9809  0.6551  0.1764
 1014MOL0     H33804   5.632   9.375   1.325  1.0989  1.9448 -0.0852
 1014MOL0     H33805   5.469   9.438   1.367 -0.4185 -1.6038 -1.2657
 1014MOL0     H33806   5.558   9.181   1.392 -1.8612 -0.7560 -0.5472
 1014MOL0     H33807   5.606   9.253   1.549  0.6991 -1.2009 -0.2912
 1014MOL0     H33808   5.384   9.303   1.597  1.4568 -0.1056  1.3912
 1014MOL0     H33809   5.394   9.135   1.573  6.0385  0.2664  2.2199
 1014MOL0     H33810   5.150   9.145   1.213 -2.7819  1.8784 -2.5999
 1014MOL0     H33811   4.926   9.185   1.203  1.8023  1.9851 -1.6020
 1014MOL0     H33812   4.520   9.057   1.537  1.5859  2.1899  3.6542
 1014MOL0     H33813   4.270   9.052   1.523 -0.1020 -0.2912  1.2908
 1014MOL0     H33814   4.082   9.417   1.370  1.6205 -0.4387  0.4131
 1014MOL0     H33815   4.032   9.447   1.535  0.6866  0.1258 -0.7841
 1014MOL0     H33816   3.848   9.402   1.406 -0.7230 -1.5170 -2.4426
 1014MOL0     H33817   3.863   9.279   1.534 -1.9602  1.0070  0.2706
 1014MOL0     H33818   3.902   9.116   1.373 -1.3436 -0.1352 -0.2507
 1014MOL0     H33819   3.983   9.226   1.261  1.0639  1.6449  0.7905
 1014MOL0     H33820   3.686   9.188   1.309  0.2664 -2.4620 -0.0233
 1014MOL0     H33821   3.745   9.331   1.231  1.8306 -0.0248 -2.1964
 1014MOL0     H33822   3.818   9.204   1.051 -0.3693  1.2750  1.5752
 1014MOL0     H33823   3.649   9.153   1.078  0.0640 -1.1330 -1.1708
 1014MOL0     H33824   3.904   9.005   1.124  0.4239 -0.8217  0.0030
 1014MOL0     H33825   3.763   8.957   1.035 -1.2549 -3.4195  2.2432
 1014MOL0     H33826   3.826   8.899   1.310 -0.7278 -1.9198  0.6400
 1014MOL0     H33827   3.662   8.967   1.298  0.2179 -0.2696 -0.4383
 1014MOL0     H33828   3.580   8.815   1.145  0.1045  0.7662 -0.3521
 1014MOL0     H33829   3.630   8.736   1.287 -2.5307  1.2596  0.5638
 1014MOL0     H33830   4.282   9.466   1.467 -3.7254 -2.8621  0.0909
 1014MOL0     H33831   4.526   9.483   1.506  1.0905 -0.7597  2.1840
 1014MOL0     H33832   4.915   9.306   1.610  0.4624  0.9336 -0.5523
 1014MOL0     H33833   5.168   9.307   1.607  1.4728 -0.5202 -0.9824
 1014MOL0     H33834   7.003   9.963   1.124  1.3993 -1.8283 -1.9685
 1014MOL0     H33835   7.228  10.058   1.109  3.8404  1.1326  1.0728
 1014MOL0     H33836   7.692   9.998   1.307  1.5890 -0.8057  0.5154
 1014MOL0     H33837   7.932  10.111   1.332  0.3424  1.1170  0.4730
 1014MOL0     H33838   7.978  10.538   1.407  2.1205 -1.1859  2.4701
 1014MOL0     H33839   7.987  10.541   1.224  1.4041 -0.0903 -0.6203
 1014MOL0     H33840   8.219  10.468   1.254  1.0066 -0.8627  1.8731
 1014MOL0     H33841   8.178  10.623   1.336  0.8994  0.1632  1.4866
 1014MOL0     H33842   8.141  10.438   1.533 -1.9957  3.6853 -0.9404
 1014MOL0     H33843   8.275  10.538   1.509  1.6795 -0.5302  0.3048
 1014MOL0     H33844   8.354  10.298   1.542 -1.8529  1.1214  1.2043
 1014MOL0     H33845   8.261  10.251   1.402  1.0277  1.3121 -1.9590
 1014MOL0     H33846   8.621  10.464   1.299 -1.2707 -0.1830 -1.0828
 1014MOL0     H33847   7.763  10.495   1.284 -0.5207 -0.0867 -1.2097
 1014MOL0     H33848   7.544  10.405   1.244 -0.9583 -0.1911  3.9989
 1015MOL0     O33849   7.482   6.518  10.744 -0.6709  0.1543  0.0192
 1015MOL0     C33850   7.473   6.439  10.646  0.9705  0.7664 -0.3518
 1015MOL0     O33851   7.553   6.434  10.537  0.0261 -0.3040 -0.0854
 1015MOL0     C33852   7.676   6.499  10.522 -0.3861  0.6717  0.9349
 1015MOL0     C33853   7.741   6.469  10.398 -0.3232 -0.4861 -0.1225
 1015MOL0     C33854   7.874   6.509  10.368 -0.1497  0.2787  0.3199
 1015MOL0     C33855   7.943   6.594  10.453  0.0467 -0.2668 -0.4677
 1015MOL0     O33856   8.069   6.641  10.430  0.2111 -0.1706 -0.4359
 1015MOL0     C33857   8.154   6.560  10.357 -0.5598 -0.3941  1.2585
 1015MOL0     C33858   8.296   6.610  10.367  0.1744  0.0835 -0.1464
 1015MOL0     C33859   8.379   6.579  10.244  0.0232  0.4555 -0.2242
 1015MOL0     C33860   8.521   6.640  10.253  0.1858 -0.1996  0.7154
 1015MOL0     C33861   8.620   6.542  10.313 -0.3685  0.1441 -0.6090
 1015MOL0     C33862   8.772   6.594  10.288  0.4953  0.1592  0.3522
 1015MOL0     C33863   8.886   6.503  10.345  0.4337  0.4525  0.2967
 1015MOL0     C33864   8.905   6.368  10.259  0.2366 -0.7293 -0.2086
 1015MOL0     N33865   9.038   6.307  10.291 -0.0579 -0.3201 -0.2705
 1015MOL0     C33866   9.159   6.344  10.250 -0.6563  0.7246 -0.1591
 1015MOL0     C33867   9.249   6.281  10.326 -0.3686  1.0637 -0.1600
 1015MOL0     C33868   9.394   6.297  10.335 -0.7588  0.1289 -0.5740
 1015MOL0     C33869   9.467   6.316  10.207 -0.8251 -0.1768  0.6782
 1015MOL0     C33870   9.451   6.190  10.115 -0.1248 -0.4714 -0.0906
 1015MOL0     C33871   9.539   6.193   9.999  0.2202 -0.1199 -0.0671
 1015MOL0     O33872   9.674   6.209  10.047 -0.5333  0.9599  0.3274
 1015MOL0     C33873   9.774   6.146   9.977  0.4613 -0.1207  0.3874
 1015MOL0     C33874   9.779   6.107   9.842  0.0870 -0.4219 -0.3011
 1015MOL0     C33875   9.892   6.050   9.774  0.5220 -0.0743  0.2961
 1015MOL0     C33876  10.012   6.056   9.841 -0.6864 -0.1937  0.3724
 1015MOL0     C33877  10.132   6.002   9.783  0.4672 -1.1569  0.0914
 1015MOL0     O33878  10.125   5.986   9.650 -0.1129  0.3020  0.2548
 1015MOL0     C33879  10.238   5.936   9.589  0.4909 -0.3958 -0.4579
 1015MOL0     C33880  10.234   5.814   9.530 -0.0541  0.0748 -0.3840
 1015MOL0     C33881  10.348   5.758   9.470 -0.1362  0.1726 -0.1888
 1015MOL0     C33882  10.471   5.828   9.467  0.5039  0.1268 -0.9163
 1015MOL0     O33883  10.587   5.775   9.417  0.0434 -0.6293 -0.1305
 1015MOL0     C33884  10.589   5.632   9.409 -0.4019  0.8162  0.3755
 1015MOL0     C33885  10.729   5.598   9.395  0.0358  0.9846 -0.1789
 1015MOL0     C33886  10.795   5.563   9.535  0.4012 -0.0936  0.6424
 1015MOL0     C33887  10.942   5.558   9.499  0.5676 -0.1657  0.5103
 1015MOL0     C33888  11.044   5.544   9.609  0.3822 -0.8533  0.2077
 1015MOL0     C33889  11.017   5.419   9.694 -0.3047  0.1925 -0.5069
 1015MOL0     C33890  11.143   5.353   9.750 -0.6933  0.3877 -0.6625
 1015MOL0     C33891  11.220   5.282   9.640 -0.6076  0.9524 -0.2434
 1015MOL0    Cl33892  11.400   5.299   9.655 -0.3713 -0.1274 -0.2744
 1015MOL0     C33893  10.465   5.960   9.511  0.2299  0.7748  0.2200
 1015MOL0     C33894  10.357   6.012   9.575 -0.0643  0.6191 -0.2075
 1015MOL0     O33895  10.235   5.987   9.855 -0.1486  0.7458  0.6433
 1015MOL0     C33896  10.011   6.093   9.972  0.0055  0.3254 -0.0824
 1015MOL0     C33897   9.898   6.139  10.037  0.4087 -0.7540 -0.1568
 1015MOL0     N33898   9.186   6.195  10.408 -0.2058  0.4950  0.6365
 1015MOL0     N33899   9.059   6.224  10.394  0.5339  0.0013  0.5749
 1015MOL0     C33900   7.871   6.629  10.576  0.1281 -0.2819 -0.2562
 1015MOL0     C33901   7.746   6.583  10.607  0.0432  0.7374  0.4881
 1015MOL0     C33902   7.367   6.341  10.658 -0.4005  0.0360 -0.0906
 1015MOL0     C33903   7.363   6.229  10.577  0.5581  0.8125  0.1183
 1015MOL0     C33904   7.257   6.142  10.588  0.2470  0.8725  0.3531
 1015MOL0     C33905   7.154   6.160  10.686  0.1216 -0.8729  0.1644
 1015MOL0     O33906   7.046   6.083  10.712 -0.0738 -0.7175  0.3636
 1015MOL0     C33907   6.971   6.023  10.606 -0.2988 -0.3948  0.3820
 1015MOL0     C33908   6.850   5.933  10.652  1.2495 -0.3273 -0.4923
 1015MOL0     C33909   6.729   6.016  10.709  0.1347  0.2150 -0.0965
 1015MOL0     C33910   6.617   5.921  10.761  0.5361 -0.3173  0.1276
 1015MOL0     C33911   6.491   5.997  10.787 -0.1657  0.1418  0.2788
 1015MOL0     C33912   6.376   6.039  10.815 -0.7541 -0.3060  0.3179
 1015MOL0     C33913   7.166   6.263  10.775  0.1616  0.0553  0.8196
 1015MOL0     C33914   7.275   6.355  10.758  0.0341  0.2413 -0.2422
 1015MOL0     H33915   7.684   6.411  10.326 -1.2113 -0.4694  0.5489
 1015MOL0     H33916   7.920   6.484  10.273  2.5107  1.8716  1.0785
 1015MOL0     H33917   8.118   6.552  10.254  0.3011  0.4652  0.8710
 1015MOL0     H33918   8.151   6.458  10.397  1.1260  0.0231  2.5889
 1015MOL0     H33919   8.329   6.561  10.458 -0.9018  1.1250  0.8438
 1015MOL0     H33920   8.293   6.719  10.375 -0.6828  0.3637 -2.9141
 1015MOL0     H33921   8.324   6.627  10.162 -1.0313 -1.1098 -0.4692
 1015MOL0     H33922   8.384   6.473  10.218 -1.4088  0.4613 -0.5849
 1015MOL0     H33923   8.552   6.659  10.150  0.1469  3.0819  1.2151
 1015MOL0     H33924   8.513   6.736  10.305  0.0580  0.4088 -0.3914
 1015MOL0     H33925   8.597   6.447  10.263 -3.0178  1.8169 -2.8992
 1015MOL0     H33926   8.599   6.518  10.418 -1.0536 -1.7510 -1.1426
 1015MOL0     H33927   8.783   6.687  10.344 -0.8853  1.5679 -1.5877
 1015MOL0     H33928   8.793   6.603  10.181  1.8063 -0.1275  0.5687
 1015MOL0     H33929   8.974   6.563  10.323  0.9524  0.0900  1.3344
 1015MOL0     H33930   8.871   6.483  10.451 -2.1421  1.7981  0.2900
 1015MOL0     H33931   8.899   6.393  10.153 -3.0630  3.0595  0.6144
 1015MOL0     H33932   8.820   6.304  10.285  0.2373 -0.3802  0.6827
 1015MOL0     H33933   9.176   6.422  10.177 -3.8996  2.2954  0.5566
 1015MOL0     H33934   9.443   6.222  10.396  0.3998  2.6984  1.8680
 1015MOL0     H33935   9.414   6.390  10.389  2.6183 -0.9703  0.3074
 1015MOL0     H33936   9.573   6.333  10.228 -0.6828 -2.5174  2.3994
 1015MOL0     H33937   9.431   6.407  10.159  0.1649  0.3468  0.8866
 1015MOL0     H33938   9.462   6.092  10.162 -0.0394 -1.1384 -1.4452
 1015MOL0     H33939   9.344   6.186  10.090  0.2166  0.3942 -1.8642
 1015MOL0     H33940   9.507   6.270   9.928 -0.6180 -0.2065  0.2079
 1015MOL0     H33941   9.534   6.096   9.948  0.6314  0.8271 -2.0002
 1015MOL0     H33942   9.692   6.116   9.778  0.6272 -0.0657 -1.0071
 1015MOL0     H33943   9.883   6.016   9.671  0.7953 -0.0105  0.2505
 1015MOL0     H33944  10.142   5.757   9.525 -0.7415  0.9225  1.7098
 1015MOL0     H33945  10.352   5.656   9.435 -1.1540 -0.5946  1.7531
 1015MOL0     H33946  10.538   5.604   9.317 -1.3465  0.3134  1.0357
 1015MOL0     H33947  10.534   5.577   9.485 -0.6900  0.3010 -0.2034
 1015MOL0     H33948  10.784   5.673   9.337 -0.9437 -0.0514 -2.5980
 1015MOL0     H33949  10.732   5.511   9.327  1.0090  2.3543 -1.9869
 1015MOL0     H33950  10.752   5.470   9.574 -4.1239  1.9879  1.2842
 1015MOL0     H33951  10.768   5.639   9.610 -0.6337  0.3334 -0.1490
 1015MOL0     H33952  10.947   5.480   9.422 -3.3688 -2.0142  1.8859
 1015MOL0     H33953  10.960   5.657   9.455  0.1040  0.3227  1.3930
 1015MOL0     H33954  11.046   5.632   9.674  1.5045  1.0260 -2.2044
 1015MOL0     H33955  11.142   5.540   9.562  1.3169 -1.0875  2.0772
 1015MOL0     H33956  10.961   5.352   9.629 -1.6343  1.2504 -0.4911
 1015MOL0     H33957  10.956   5.443   9.782  0.6266  3.1426 -0.5600
 1015MOL0     H33958  11.214   5.419   9.800 -1.1902  0.6544 -0.2970
 1015MOL0     H33959  11.116   5.275   9.822  3.7004 -0.4033  0.4410
 1015MOL0     H33960  11.174   5.311   9.545 -1.1285 -0.5696 -0.4903
 1015MOL0     H33961  11.201   5.175   9.637  3.2676  0.0625  1.2298
 1015MOL0     H33962  10.556   6.019   9.509  1.0422 -0.4451 -1.1987
 1015MOL0     H33963  10.364   6.109   9.623 -1.2984 -0.6979  2.8696
 1015MOL0     H33964  10.100   6.097  10.035  0.0178  0.6870 -0.1245
 1015MOL0     H33965   9.904   6.169  10.141 -0.8676 -3.0318  0.6568
 1015MOL0     H33966   7.931   6.689  10.644 -0.1905  0.0452 -0.2632
 1015MOL0     H33967   7.712   6.610  10.707  1.7833  0.1548  1.2778
 1015MOL0     H33968   7.428   6.204  10.494 -1.5717  3.4798 -2.6086
 1015MOL0     H33969   7.241   6.061  10.517 -0.2804  1.4392 -0.1865
 1015MOL0     H33970   7.042   5.970  10.542  1.8162  2.4466  0.2152
 1015MOL0     H33971   6.922   6.097  10.543  0.5563 -0.3967 -0.2958
 1015MOL0     H33972   6.816   5.871  10.569  1.5024 -2.0260  0.6095
 1015MOL0     H33973   6.881   5.871  10.737  2.0919  0.4660 -0.2003
 1015MOL0     H33974   6.693   6.074  10.624  3.1692  0.6187 -1.2120
 1015MOL0     H33975   6.759   6.078  10.794 -2.3181  1.7671 -0.2736
 1015MOL0     H33976   6.583   5.844  10.692 -0.5507 -1.7590  2.1835
 1015MOL0     H33977   6.644   5.863  10.849 -1.6573  1.7230  2.3089
 1015MOL0     H33978   6.275   6.069  10.832 -0.6799  2.4930 -3.1068
 1015MOL0     H33979   7.100   6.264  10.860  0.4194 -1.5790  1.0711
 1015MOL0     H33980   7.292   6.429  10.836  0.7323 -1.6727  1.5350
 1016MOL0     O33981   5.221   1.323   0.142 -0.2354 -0.4680  0.0667
 1016MOL0     C33982   5.181   1.207   0.121  0.1385 -0.8587  0.0256
 1016MOL0     O33983   5.256   1.109   0.066 -0.1528  0.5980  0.4485
 1016MOL0     C33984   5.386   1.118   0.032 -0.2429 -0.5896  0.3089
 1016MOL0     C33985   5.460   1.000   0.035  0.0556 -0.4770  1.1188
 1016MOL0     C33986   5.595   0.996   0.010  0.1199 -0.3873  0.2128
 1016MOL0     C33987   5.668   1.110  -0.026  0.9269  0.2929 -0.2571
 1016MOL0     O33988   5.793   1.089  -0.052 -0.0457 -0.6009  0.1929
 1016MOL0     C33989   5.829   0.997  -0.159 -0.8482  0.1249  0.5437
 1016MOL0     C33990   5.982   0.972  -0.156 -0.2223 -0.4427  0.1654
 1016MOL0     C33991   6.008   0.831  -0.211 -0.6890  0.2559 -0.3522
 1016MOL0     C33992   5.969   0.817  -0.355  0.4079 -0.8958 -0.6697
 1016MOL0     C33993   6.030   0.691  -0.409 -0.1613 -0.1190  1.1550
 1016MOL0     C33994   5.982   0.550  -0.357 -0.0640 -1.0237  1.1463
 1016MOL0     C33995   6.036   0.432  -0.439  0.4852  0.1308 -0.0703
 1016MOL0     C33996   5.988   0.301  -0.374  0.0469  0.3159 -0.3388
 1016MOL0     N33997   5.840   0.289  -0.351 -0.0872  1.1195 -0.6760
 1016MOL0     C33998   5.755   0.233  -0.450  0.4783  0.0956 -0.2733
 1016MOL0     C33999   5.636   0.233  -0.384  0.6851  0.3649 -0.1486
 1016MOL0     C34000   5.520   0.165  -0.454 -0.1108  0.3484 -0.2628
 1016MOL0     C34001   5.383   0.206  -0.390 -0.7935 -0.1000 -0.5516
 1016MOL0     C34002   5.269   0.138  -0.469 -0.6566 -0.1120  0.9337
 1016MOL0     C34003   5.159   0.102  -0.377  0.4670  0.3584  0.6215
 1016MOL0     O34004   5.097   0.220  -0.339 -0.0611 -0.0610  0.4985
 1016MOL0     C34005   4.977   0.211  -0.270 -0.4537 -0.4276 -0.5010
 1016MOL0     C34006   4.887   0.314  -0.290 -0.1159  0.1344 -0.1277
 1016MOL0     C34007   4.762   0.307  -0.225  0.3272 -0.5826 -0.3928
 1016MOL0     C34008   4.734   0.197  -0.145  0.1140 -0.4579 -0.5491
 1016MOL0     C34009   4.604   0.190  -0.065 -0.2146  0.0118  0.5612
 1016MOL0     O34010   4.520   0.302  -0.076 -0.5342 -0.6943  0.0030
 1016MOL0     C34011   4.398   0.302  -0.015 -0.1825  0.8660  0.1881
 1016MOL0     C34012   4.359   0.376   0.101 -0.8388  0.9882 -0.4422
 1016MOL0     C34013   4.225   0.361   0.149  0.5259  0.5502  0.6656
 1016MOL0     C34014   4.134   0.292   0.081 -0.8408  0.2356  0.2577
 1016MOL0     O34015   4.006   0.287   0.119  0.1236 -0.9655  0.2495
 1016MOL0     C34016   3.951   0.392   0.205  0.3870 -0.0711  0.0493
 1016MOL0     C34017   3.805   0.358   0.207  0.1452  0.2873  0.3282
 1016MOL0     C34018   3.757   0.368   0.356 -0.1533  0.0824 -0.0701
 1016MOL0     C34019   3.618   0.309   0.372 -1.0593  0.5125 -0.2235
 1016MOL0     C34020   3.497   0.380   0.304 -0.5136 -1.0176 -0.3265
 1016MOL0     C34021   3.370   0.297   0.336  0.0504 -0.4230  0.8587
 1016MOL0     C34022   3.241   0.377   0.308 -0.6417 -0.8246  0.2025
 1016MOL0     C34023   3.127   0.317   0.373  0.4782 -0.2907 -0.0771
 1016MOL0    Cl34024   3.128   0.356   0.553  0.1678  0.0630  0.0220
 1016MOL0     C34025   4.171   0.218  -0.035 -0.2354 -0.1897 -0.7080
 1016MOL0     C34026   4.296   0.221  -0.079 -1.2073 -1.1306  0.1429
 1016MOL0     O34027   4.585   0.089   0.006  0.7696  0.2493  0.4395
 1016MOL0     C34028   4.830   0.093  -0.127 -0.0479 -0.2175  0.3038
 1016MOL0     C34029   4.949   0.102  -0.188  0.2493  0.5319 -0.1038
 1016MOL0     N34030   5.645   0.307  -0.270 -1.1671 -0.3859  0.1172
 1016MOL0     N34031   5.773   0.327  -0.239 -0.1229  0.6092  0.8179
 1016MOL0     C34032   5.596   1.229  -0.039 -0.4149  0.2908  1.0141
 1016MOL0     C34033   5.462   1.239  -0.015  0.2389  0.3163 -0.4912
 1016MOL0     C34034   5.044   1.165   0.150  0.5771 -0.9347 -0.1287
 1016MOL0     C34035   4.966   1.230   0.245 -0.4751  0.4597  0.4287
 1016MOL0     C34036   4.831   1.183   0.272  0.6435  0.8190 -0.1596
 1016MOL0     C34037   4.775   1.072   0.202 -0.9415  0.6756 -0.4749
 1016MOL0     O34038   4.658   1.019   0.243  0.5922 -0.0165  0.0913
 1016MOL0     C34039   4.596   0.904   0.190 -0.1028  0.5179 -1.1720
 1016MOL0     C34040   4.639   0.773   0.269  0.7377  0.3290  0.8016
 1016MOL0     C34041   4.596   0.779   0.419 -0.5597 -0.6730 -0.4819
 1016MOL0     C34042   4.508   0.659   0.459 -0.9082 -0.1019  0.0520
 1016MOL0     C34043   4.372   0.666   0.400 -0.0270 -0.1104  0.0026
 1016MOL0     C34044   4.259   0.680   0.355  0.0796 -0.3827 -0.3259
 1016MOL0     C34045   4.855   1.009   0.116 -0.3839  0.8758  0.2990
 1016MOL0     C34046   4.984   1.053   0.094  0.0039 -0.5044 -0.1672
 1016MOL0     H34047   5.408   0.913   0.074 -2.8863  1.7160  2.4626
 1016MOL0     H34048   5.642   0.899   0.017 -0.8330 -0.9401 -0.8218
 1016MOL0     H34049   5.813   1.058  -0.249  2.0361  1.8010  1.0235
 1016MOL0     H34050   5.774   0.903  -0.152 -3.0544  1.4750  3.2259
 1016MOL0     H34051   6.018   0.982  -0.053 -0.6859  0.8922  0.2165
 1016MOL0     H34052   6.033   1.053  -0.209 -2.0554 -0.2689 -1.4445
 1016MOL0     H34053   5.958   0.747  -0.161 -0.6508 -1.3415 -2.8034
 1016MOL0     H34054   6.115   0.814  -0.198 -0.7124  0.7614  0.5589
 1016MOL0     H34055   5.861   0.818  -0.371  0.5325 -1.0684 -1.5788
 1016MOL0     H34056   6.008   0.896  -0.419 -3.3454 -0.8655 -3.2524
 1016MOL0     H34057   6.139   0.692  -0.396  0.1934  1.9486 -1.0852
 1016MOL0     H34058   6.001   0.700  -0.514 -1.1864  0.1114  1.4483
 1016MOL0     H34059   5.872   0.550  -0.351 -0.1321 -0.0573  0.0584
 1016MOL0     H34060   6.019   0.549  -0.254  3.4930  2.9407  0.1672
 1016MOL0     H34061   5.981   0.433  -0.534 -1.3467  0.3677  0.9677
 1016MOL0     H34062   6.144   0.422  -0.452  0.5319 -2.5594  1.5478
 1016MOL0     H34063   6.042   0.290  -0.280 -0.4511  0.2055 -0.0665
 1016MOL0     H34064   6.019   0.214  -0.433 -1.6557 -1.8685  1.8041
 1016MOL0     H34065   5.769   0.174  -0.539 -1.5987 -1.0252  0.0797
 1016MOL0     H34066   5.520   0.055  -0.448 -2.2664  0.3287  0.0375
 1016MOL0     H34067   5.522   0.188  -0.561 -2.0423 -0.1355 -0.4450
 1016MOL0     H34068   5.374   0.314  -0.403 -0.7865  0.0390  0.4838
 1016MOL0     H34069   5.387   0.170  -0.286 -1.4589 -0.1988 -0.5546
 1016MOL0     H34070   5.229   0.196  -0.553  0.9910 -2.1902 -1.4361
 1016MOL0     H34071   5.313   0.047  -0.512  0.5244 -0.4114  2.6837
 1016MOL0     H34072   5.201   0.063  -0.284 -4.4942  0.1063  3.1086
 1016MOL0     H34073   5.088   0.030  -0.419 -0.9114  0.6508  2.3497
 1016MOL0     H34074   4.928   0.387  -0.359  0.4578  0.8217  0.9365
 1016MOL0     H34075   4.684   0.379  -0.248  0.3560  0.1397  1.6294
 1016MOL0     H34076   4.425   0.446   0.150 -0.8104  0.6396  0.0269
 1016MOL0     H34077   4.205   0.422   0.236  0.6924 -1.3960  2.1389
 1016MOL0     H34078   3.971   0.493   0.168  4.7490 -0.6420  0.3697
 1016MOL0     H34079   4.003   0.366   0.297 -1.5015  2.2042  1.8953
 1016MOL0     H34080   3.783   0.255   0.177 -0.8270  0.4809  0.3408
 1016MOL0     H34081   3.753   0.425   0.138  2.7471  1.9257 -0.1843
 1016MOL0     H34082   3.751   0.474   0.385 -2.3199 -0.7789  3.3136
 1016MOL0     H34083   3.828   0.313   0.418  2.6968  1.4276 -1.9641
 1016MOL0     H34084   3.622   0.206   0.337 -0.6571  0.0636  1.0788
 1016MOL0     H34085   3.610   0.307   0.481  1.5527  5.2824  0.3293
 1016MOL0     H34086   3.507   0.383   0.195 -0.8578  1.1168 -0.3523
 1016MOL0     H34087   3.494   0.484   0.340 -2.3488 -1.0937 -0.1290
 1016MOL0     H34088   3.374   0.274   0.443  0.8787  0.0421  0.9344
 1016MOL0     H34089   3.377   0.203   0.280  0.1617  0.2530 -0.2870
 1016MOL0     H34090   3.253   0.481   0.339  3.6776 -1.8233  2.7401
 1016MOL0     H34091   3.232   0.376   0.199 -1.5003 -1.8546  0.2569
 1016MOL0     H34092   3.113   0.209   0.360 -1.2343  0.1965 -3.0385
 1016MOL0     H34093   3.039   0.373   0.339 -0.1852 -1.6377 -0.6846
 1016MOL0     H34094   4.090   0.163  -0.083 -1.9128  0.3218  1.3779
 1016MOL0     H34095   4.309   0.155  -0.164  3.9776 -1.8399  1.1447
 1016MOL0     H34096   4.816   0.004  -0.066  0.3886 -0.5705 -0.1020
 1016MOL0     H34097   5.021   0.020  -0.191  2.3327  2.2775 -1.1832
 1016MOL0     H34098   5.665   1.310  -0.060  1.0722 -1.1415  0.0881
 1016MOL0     H34099   5.418   1.338  -0.017 -0.9131  0.0440  3.4240
 1016MOL0     H34100   5.005   1.312   0.305  0.5197 -1.5171  2.6983
 1016MOL0     H34101   4.758   1.233   0.335 -0.2160  0.4745 -0.8569
 1016MOL0     H34102   4.611   0.891   0.082  5.6071 -0.9427 -0.4872
 1016MOL0     H34103   4.490   0.923   0.211 -0.1887 -2.4200  1.9674
 1016MOL0     H34104   4.590   0.684   0.230  0.3701  0.5628  0.7291
 1016MOL0     H34105   4.748   0.762   0.266  0.7165  0.3300 -0.9682
 1016MOL0     H34106   4.544   0.871   0.448 -0.1552 -0.5664 -0.0822
 1016MOL0     H34107   4.686   0.779   0.481 -1.8296  2.5571  1.6716
 1016MOL0     H34108   4.554   0.562   0.435  1.1323 -0.2333  3.7348
 1016MOL0     H34109   4.503   0.657   0.568  1.8242  3.7764  0.4357
 1016MOL0     H34110   4.155   0.702   0.338 -0.0639  0.4820  1.3746
 1016MOL0     H34111   4.821   0.912   0.082  3.9348 -0.8388  0.2805
 1016MOL0     H34112   5.050   0.992   0.033 -0.4188 -0.3153 -0.8290
 1017MOL0     O34113   3.954   9.364   7.866  0.3757 -0.3231 -0.5668
 1017MOL0     C34114   3.866   9.350   7.777  0.2134  0.2492 -0.0590
 1017MOL0     O34115   3.743   9.293   7.796  0.0653 -0.3068 -0.3401
 1017MOL0     C34116   3.689   9.256   7.921 -0.5040 -1.1005  0.5281
 1017MOL0     C34117   3.758   9.245   8.040 -1.3561 -0.1483  0.0211
 1017MOL0     C34118   3.703   9.183   8.158 -0.2072  0.6973 -0.2345
 1017MOL0     C34119   3.566   9.149   8.171 -0.4835 -0.3901  0.2883
 1017MOL0     O34120   3.507   9.119   8.289  0.1058 -0.9887  0.5634
 1017MOL0     C34121   3.379   9.041   8.285  0.2937 -0.4743 -0.2619
 1017MOL0     C34122   3.256   9.142   8.280  0.2837 -0.6096  0.2890
 1017MOL0     C34123   3.128   9.055   8.250  0.2775 -0.4172  0.0657
 1017MOL0     C34124   3.004   9.145   8.245  0.0038  0.9900 -0.2449
 1017MOL0     C34125   2.875   9.074   8.191 -0.4492 -0.2939  0.3076
 1017MOL0     C34126   2.828   8.965   8.293 -0.4712 -0.9546 -0.6851
 1017MOL0     C34127   2.719   8.898   8.226 -0.4954 -0.1594 -0.4683
 1017MOL0     C34128   2.648   8.824   8.346 -0.1163 -1.2268  0.2983
 1017MOL0     N34129   2.537   8.738   8.303 -0.7271  0.0282  0.4514
 1017MOL0     C34130   2.445   8.776   8.203  0.2201 -0.7652 -0.7731
 1017MOL0     C34131   2.347   8.685   8.211  0.0687  0.7339 -0.4843
 1017MOL0     C34132   2.230   8.688   8.121 -0.0535 -0.2705 -0.8375
 1017MOL0     C34133   2.143   8.560   8.139 -0.8059 -0.0059 -0.2449
 1017MOL0     C34134   2.024   8.544   8.043 -1.3030 -0.8675  0.9569
 1017MOL0     C34135   1.880   8.528   8.103 -0.6144 -1.0360  0.7383
 1017MOL0     O34136   1.882   8.502   8.242 -0.2077  0.2152 -0.3156
 1017MOL0     C34137   1.755   8.470   8.280 -0.3603 -0.8030 -0.4266
 1017MOL0     C34138   1.724   8.342   8.327  0.2621 -0.3732 -0.8710
 1017MOL0     C34139   1.584   8.309   8.356 -0.8972  0.2537  1.5351
 1017MOL0     C34140   1.482   8.396   8.331 -0.2936 -0.7182 -0.9959
 1017MOL0     C34141   1.344   8.356   8.375 -0.1491 -0.6310  0.3471
 1017MOL0     O34142   1.256   8.461   8.394  0.1156  0.0148 -0.6551
 1017MOL0     C34143   1.131   8.432   8.367  0.8104 -0.3782  0.2870
 1017MOL0     C34144   1.034   8.502   8.446  0.4060  0.4674 -0.7948
 1017MOL0     C34145   0.891   8.483   8.422  0.0104  0.6989  0.2646
 1017MOL0     C34146   0.854   8.404   8.324  0.8396 -0.2925 -0.1523
 1017MOL0     O34147   0.713   8.402   8.304  0.1269 -0.5318  0.6648
 1017MOL0     C34148   0.659   8.314   8.208 -0.9293 -0.2191 -0.9014
 1017MOL0     C34149   0.657   8.173   8.261  0.6253  0.6116  0.1011
 1017MOL0     C34150   0.571   8.077   8.169  0.4500  0.0704  0.1492
 1017MOL0     C34151   0.429   8.106   8.175 -0.7046  0.1704 -0.4177
 1017MOL0     C34152   0.343   7.971   8.163 -0.3991  0.2433 -0.1569
 1017MOL0     C34153   0.189   8.003   8.170  0.0364 -0.8293 -1.1156
 1017MOL0     C34154   0.098   7.874   8.140 -0.1434 -0.3107 -0.1441
 1017MOL0     C34155  -0.046   7.922   8.167 -0.6333  0.1841 -0.7364
 1017MOL0    Cl34156  -0.158   7.781   8.155  0.2592 -0.2281  0.6073
 1017MOL0     C34157   0.948   8.333   8.250 -0.2467 -0.4382  0.4599
 1017MOL0     C34158   1.082   8.351   8.262  0.3459  0.0356  0.1971
 1017MOL0     O34159   1.317   8.244   8.395 -0.9074 -0.1790  0.1875
 1017MOL0     C34160   1.517   8.527   8.288  0.2772  0.4436 -0.6449
 1017MOL0     C34161   1.647   8.558   8.260  0.2615 -0.6631  0.2493
 1017MOL0     N34162   2.367   8.597   8.312  0.2870 -0.0851  0.0394
 1017MOL0     N34163   2.480   8.630   8.367  0.3058  0.3832 -0.3990
 1017MOL0     C34164   3.489   9.176   8.053 -0.0000 -0.2921 -0.4309
 1017MOL0     C34165   3.556   9.214   7.932 -0.4017 -0.4004 -0.0078
 1017MOL0     C34166   3.902   9.412   7.644 -0.1290 -0.1321  0.2789
 1017MOL0     C34167   4.026   9.474   7.625  0.2987  0.7373 -1.1164
 1017MOL0     C34168   4.049   9.549   7.500 -0.3957 -0.1632  0.1153
 1017MOL0     C34169   3.959   9.544   7.393 -0.2825  0.4467  0.4329
 1017MOL0     O34170   3.987   9.587   7.266  0.1042 -0.1098 -0.2227
 1017MOL0     C34171   4.124   9.608   7.222 -0.1034  0.1885  0.3544
 1017MOL0     C34172   4.194   9.475   7.206 -0.4385 -0.4320  0.6528
 1017MOL0     C34173   4.303   9.491   7.104 -0.2712  0.7561  0.6295
 1017MOL0     C34174   4.342   9.355   7.061 -0.5139  0.1533 -0.0958
 1017MOL0     C34175   4.455   9.344   6.966  0.6255  0.3272  0.2068
 1017MOL0     C34176   4.538   9.332   6.878  0.0064  0.8374  0.1011
 1017MOL0     C34177   3.843   9.474   7.411  0.2754  0.0445  0.3433
 1017MOL0     C34178   3.813   9.409   7.536 -0.4976 -0.0406  0.3174
 1017MOL0     H34179   3.861   9.276   8.051 -1.1599 -0.2098 -1.4563
 1017MOL0     H34180   3.763   9.176   8.249  0.2732 -1.2293 -0.6506
 1017MOL0     H34181   3.377   8.982   8.378  1.2476 -1.4949 -0.8664
 1017MOL0     H34182   3.372   8.964   8.207  1.8257  0.4180 -1.3307
 1017MOL0     H34183   3.272   9.219   8.204 -2.9092  0.4897  0.5649
 1017MOL0     H34184   3.228   9.200   8.369  0.4157  0.9031 -0.6279
 1017MOL0     H34185   3.139   8.970   8.318  3.3350 -1.2993 -1.3370
 1017MOL0     H34186   3.127   9.005   8.152  1.1715 -0.7902  0.2355
 1017MOL0     H34187   2.987   9.174   8.349 -2.3236  0.2029 -0.3298
 1017MOL0     H34188   3.042   9.232   8.191 -0.3862  0.4379 -1.4572
 1017MOL0     H34189   2.893   9.032   8.092 -2.1493 -3.6225  1.2548
 1017MOL0     H34190   2.792   9.145   8.185  0.3649  1.5978  5.6693
 1017MOL0     H34191   2.795   9.028   8.377 -0.2010  1.1498 -2.0894
 1017MOL0     H34192   2.914   8.903   8.318 -0.2449 -0.6941 -0.8156
 1017MOL0     H34193   2.654   8.964   8.167  2.1219  0.2888 -3.0712
 1017MOL0     H34194   2.757   8.824   8.154  0.7833 -0.3500  0.3735
 1017MOL0     H34195   2.594   8.891   8.413 -0.7781 -1.0297 -0.4078
 1017MOL0     H34196   2.717   8.761   8.402  0.2989 -2.9625 -1.9763
 1017MOL0     H34197   2.458   8.862   8.138  0.9955  2.2281  2.9694
 1017MOL0     H34198   2.250   8.708   8.016  1.2710 -0.0145 -0.5474
 1017MOL0     H34199   2.170   8.770   8.163 -0.4560 -0.7479 -0.4609
 1017MOL0     H34200   2.098   8.558   8.239  3.0448  0.3803  1.6631
 1017MOL0     H34201   2.204   8.470   8.134  0.0405  0.6022 -1.2680
 1017MOL0     H34202   2.025   8.629   7.974 -0.2278  0.0534  2.0720
 1017MOL0     H34203   2.039   8.455   7.981 -1.4013 -1.3727  1.6494
 1017MOL0     H34204   1.827   8.455   8.040  2.1111 -1.1106 -1.6498
 1017MOL0     H34205   1.847   8.631   8.091  0.3842 -0.6139  1.5073
 1017MOL0     H34206   1.808   8.273   8.337  0.9918  0.8359  5.2552
 1017MOL0     H34207   1.556   8.211   8.393 -1.2265 -0.3121 -0.1429
 1017MOL0     H34208   1.074   8.564   8.527  2.3139  0.3178 -1.5628
 1017MOL0     H34209   0.812   8.524   8.484 -1.1264 -2.8908  1.4017
 1017MOL0     H34210   0.721   8.322   8.118 -1.4925 -1.9515 -1.4747
 1017MOL0     H34211   0.556   8.344   8.188 -0.4977  1.7624 -0.4615
 1017MOL0     H34212   0.613   8.157   8.360 -0.9380 -1.4653 -0.8355
 1017MOL0     H34213   0.762   8.142   8.259  0.9732  1.7547 -0.4418
 1017MOL0     H34214   0.592   7.979   8.212 -0.5610  0.3511  1.3409
 1017MOL0     H34215   0.608   8.086   8.066 -0.9156  0.9121 -0.3060
 1017MOL0     H34216   0.401   8.172   8.258  1.0402  0.9212 -0.3843
 1017MOL0     H34217   0.406   8.162   8.084  1.3712 -1.3006 -1.9409
 1017MOL0     H34218   0.365   7.901   8.244  1.2631 -0.6064 -1.2878
 1017MOL0     H34219   0.362   7.924   8.066 -0.2886  2.2300 -1.1396
 1017MOL0     H34220   0.174   8.077   8.091  4.6534  1.4192 -0.2434
 1017MOL0     H34221   0.173   8.045   8.269 -1.0669 -2.4455 -0.5720
 1017MOL0     H34222   0.119   7.847   8.036  0.6114 -0.7417  0.1066
 1017MOL0     H34223   0.112   7.795   8.215 -1.5229  0.3262  0.8205
 1017MOL0     H34224  -0.088   7.998   8.100 -2.0631 -0.2208 -0.3348
 1017MOL0     H34225  -0.053   7.966   8.267 -1.8411  1.8275 -1.4872
 1017MOL0     H34226   0.919   8.269   8.166  0.6204 -0.3188  0.0571
 1017MOL0     H34227   1.157   8.304   8.200  1.5370 -2.2230  3.0867
 1017MOL0     H34228   1.449   8.611   8.280 -0.0877  0.0910 -1.4015
 1017MOL0     H34229   1.673   8.660   8.235  0.3275 -0.1723  2.1651
 1017MOL0     H34230   3.383   9.160   8.063  0.1472 -0.0218  2.6208
 1017MOL0     H34231   3.499   9.213   7.839  2.8268  2.2609 -2.2289
 1017MOL0     H34232   4.102   9.486   7.702  0.6084 -1.3396 -1.0468
 1017MOL0     H34233   4.150   9.584   7.483 -0.6598 -0.0281 -1.3105
 1017MOL0     H34234   4.180   9.677   7.287 -0.9557  1.6412 -0.3998
 1017MOL0     H34235   4.121   9.644   7.118  1.0345 -1.4366 -0.2906
 1017MOL0     H34236   4.229   9.446   7.306 -2.1474 -0.6362  1.2214
 1017MOL0     H34237   4.123   9.396   7.179 -1.3194  0.6425 -0.2413
 1017MOL0     H34238   4.388   9.548   7.141  0.3850 -0.3308  0.8219
 1017MOL0     H34239   4.257   9.534   7.014  0.7251  0.5703  0.0220
 1017MOL0     H34240   4.377   9.303   7.151 -1.2475  1.1329  0.7838
 1017MOL0     H34241   4.258   9.294   7.025 -1.2658  2.7151 -3.0618
 1017MOL0     H34242   4.612   9.333   6.800 -0.7937  0.0236 -0.6825
 1017MOL0     H34243   3.773   9.473   7.328 -1.7572  1.0921  1.9467
 1017MOL0     H34244   3.718   9.362   7.556 -1.1153  1.5090  1.1940
 1018MOL0     O34245   9.947   2.605   2.096 -0.4680  0.1063  0.5131
 1018MOL0     C34246   9.976   2.674   1.998 -0.6249 -0.0784 -0.5242
 1018MOL0     O34247   9.889   2.721   1.906 -0.1192 -0.5200  0.5460
 1018MOL0     C34248   9.755   2.692   1.920  0.4548  0.8375  0.4568
 1018MOL0     C34249   9.656   2.787   1.960  0.1884 -1.2404  0.4233
 1018MOL0     C34250   9.516   2.761   1.947  0.3152  0.7738 -0.0216
 1018MOL0     C34251   9.468   2.636   1.922 -0.2016  0.6687  0.3162
 1018MOL0     O34252   9.333   2.626   1.930 -0.3417 -0.2782 -0.9132
 1018MOL0     C34253   9.282   2.493   1.924 -0.0716  0.1744  0.0699
 1018MOL0     C34254   9.133   2.493   1.938  0.0110  0.8099  0.1187
 1018MOL0     C34255   9.085   2.523   2.083 -0.3680 -0.2009  0.4198
 1018MOL0     C34256   8.961   2.448   2.125 -0.3235  0.8570  0.8710
 1018MOL0     C34257   8.847   2.470   2.030  0.7178  0.6753  0.9205
 1018MOL0     C34258   8.711   2.494   2.094  0.2923 -0.3350 -0.4481
 1018MOL0     C34259   8.590   2.490   1.991 -0.0910  0.0061  0.0653
 1018MOL0     C34260   8.453   2.521   2.052 -0.2534 -0.8264  0.8099
 1018MOL0     N34261   8.353   2.492   1.945 -0.4746 -0.2032 -0.6774
 1018MOL0     C34262   8.336   2.574   1.834  0.4940  0.0625 -0.4943
 1018MOL0     C34263   8.231   2.527   1.763  0.7179  0.1068  0.1665
 1018MOL0     C34264   8.194   2.563   1.627 -0.1381 -0.1621 -0.4240
 1018MOL0     C34265   8.047   2.581   1.601 -0.1575 -0.5432 -1.2434
 1018MOL0     C34266   7.972   2.448   1.582 -0.2257  0.0468  0.1587
 1018MOL0     C34267   7.829   2.488   1.537  0.0325 -0.5356 -0.4916
 1018MOL0     O34268   7.753   2.523   1.655 -0.5583  0.0147  0.3904
 1018MOL0     C34269   7.615   2.534   1.648 -0.2531 -0.4506 -0.1670
 1018MOL0     C34270   7.546   2.535   1.523 -0.0263  0.4775 -0.3010
 1018MOL0     C34271   7.405   2.545   1.529 -0.1030 -0.3243  0.3307
 1018MOL0     C34272   7.333   2.548   1.645 -0.4911  0.2305 -0.1094
 1018MOL0     C34273   7.188   2.540   1.644 -0.1788 -0.6355  0.2453
 1018MOL0     O34274   7.127   2.466   1.543 -0.2775  0.7025 -0.4005
 1018MOL0     C34275   6.995   2.433   1.547 -0.1553 -1.7112  0.2215
 1018MOL0     C34276   6.956   2.298   1.522  0.6646  0.5946  0.5761
 1018MOL0     C34277   6.822   2.268   1.506  0.2662  0.7606 -0.4817
 1018MOL0     C34278   6.725   2.369   1.529  0.1184  0.7001  0.5994
 1018MOL0     O34279   6.593   2.327   1.520  0.0826 -0.2764  0.7082
 1018MOL0     C34280   6.530   2.372   1.404  0.4083  0.4986 -0.0797
 1018MOL0     C34281   6.401   2.289   1.397 -0.2134  0.1655 -0.1697
 1018MOL0     C34282   6.314   2.309   1.519 -0.1259 -0.4415 -0.4256
 1018MOL0     C34283   6.174   2.234   1.507 -0.7367  0.5243  0.2475
 1018MOL0     C34284   6.077   2.267   1.625 -0.6488 -0.3767 -0.2314
 1018MOL0     C34285   5.930   2.217   1.583 -0.6987 -0.0997  0.4235
 1018MOL0     C34286   5.825   2.215   1.694  0.4143  0.1111 -0.3408
 1018MOL0     C34287   5.679   2.203   1.643 -0.2136  0.2702 -0.4880
 1018MOL0    Cl34288   5.646   2.036   1.588 -0.0523 -0.0162 -0.4389
 1018MOL0     C34289   6.767   2.492   1.568  0.4721  0.0460  0.3757
 1018MOL0     C34290   6.896   2.537   1.575 -1.0154 -0.1839 -0.2777
 1018MOL0     O34291   7.138   2.590   1.735  0.0383  0.2679 -0.5336
 1018MOL0     C34292   7.404   2.549   1.762 -0.4495 -0.0829 -0.2886
 1018MOL0     C34293   7.546   2.541   1.772 -0.2723 -0.3286  1.3079
 1018MOL0     N34294   8.191   2.416   1.839 -0.2753  0.8944 -0.0968
 1018MOL0     N34295   8.268   2.392   1.943 -0.2290  0.4494  0.3529
 1018MOL0     C34296   9.560   2.534   1.888 -0.0400  0.3429  0.0718
 1018MOL0     C34297   9.701   2.562   1.900  0.0194 -0.7165  0.3282
 1018MOL0     C34298  10.111   2.724   1.991 -0.1943  0.3936  0.0345
 1018MOL0     C34299  10.146   2.824   1.906 -0.3693  0.1927 -1.0076
 1018MOL0     C34300  10.280   2.875   1.911  0.1408 -0.4409  0.0374
 1018MOL0     C34301  10.375   2.819   1.988  0.1850 -0.7605 -0.2100
 1018MOL0     O34302  10.502   2.871   1.997 -0.0106 -0.0468 -0.1582
 1018MOL0     C34303  10.538   2.978   1.913  0.3358  0.4191 -0.9613
 1018MOL0     C34304  10.671   3.019   1.968 -0.3023 -0.0333 -0.8547
 1018MOL0     C34305  10.743   3.104   1.869  1.3177  0.4522 -1.4143
 1018MOL0     C34306  10.888   3.138   1.895 -0.7425  0.0950  0.0497
 1018MOL0     C34307  10.908   3.251   1.987  0.1047  0.1516 -0.1216
 1018MOL0     C34308  10.929   3.346   2.060 -0.4912 -0.9001  0.0656
 1018MOL0     C34309  10.348   2.714   2.071 -0.4632 -0.1948 -0.0814
 1018MOL0     C34310  10.218   2.660   2.071  0.8876 -0.6997 -0.0375
 1018MOL0     H34311   9.681   2.881   2.007 -1.5765  0.6660 -2.1800
 1018MOL0     H34312   9.449   2.846   1.957  1.5495  1.7047  0.6355
 1018MOL0     H34313   9.325   2.435   2.007 -1.3663 -0.2275  0.4893
 1018MOL0     H34314   9.291   2.453   1.823 -2.4859 -3.1754  0.9630
 1018MOL0     H34315   9.109   2.386   1.933  3.6362 -0.1968  1.0874
 1018MOL0     H34316   9.075   2.557   1.871 -0.6742  1.0017  0.8807
 1018MOL0     H34317   9.061   2.629   2.076  2.0280  0.3047 -3.7176
 1018MOL0     H34318   9.161   2.509   2.161 -2.4195  0.6972  2.7012
 1018MOL0     H34319   8.981   2.341   2.137 -0.0707  1.0151  2.0184
 1018MOL0     H34320   8.927   2.491   2.220  2.1556  0.0405  2.2364
 1018MOL0     H34321   8.840   2.377   1.974 -1.5607 -0.5675  3.0761
 1018MOL0     H34322   8.873   2.558   1.970 -1.5801  0.8328  0.0964
 1018MOL0     H34323   8.706   2.596   2.134  0.7191 -0.1853 -0.7757
 1018MOL0     H34324   8.712   2.422   2.176  0.8884  2.6292  2.3608
 1018MOL0     H34325   8.615   2.558   1.910 -0.4880 -1.1775 -1.0887
 1018MOL0     H34326   8.583   2.387   1.955 -0.3477 -1.0486  2.9023
 1018MOL0     H34327   8.451   2.630   2.060  0.1947 -0.4004 -3.1993
 1018MOL0     H34328   8.415   2.461   2.135  0.2689 -0.8558  1.0299
 1018MOL0     H34329   8.399   2.659   1.811  0.7779 -0.0458 -0.1328
 1018MOL0     H34330   8.225   2.486   1.556 -1.1210 -1.5171  0.5633
 1018MOL0     H34331   8.241   2.659   1.605 -2.2218  1.9839  3.4607
 1018MOL0     H34332   8.045   2.642   1.511 -2.2351  2.7188  0.8112
 1018MOL0     H34333   7.993   2.635   1.679  0.5283  0.3716 -1.3948
 1018MOL0     H34334   8.026   2.394   1.503 -0.3130 -1.7644  1.2757
 1018MOL0     H34335   7.983   2.394   1.677  0.2178  3.9760  2.5857
 1018MOL0     H34336   7.778   2.409   1.481 -0.9949 -0.3052  0.0943
 1018MOL0     H34337   7.832   2.579   1.476  0.3943 -1.2435 -1.5631
 1018MOL0     H34338   7.596   2.546   1.428  1.4528  1.1216  0.5115
 1018MOL0     H34339   7.343   2.552   1.441 -1.1963  1.8170  1.1910
 1018MOL0     H34340   7.034   2.224   1.508  3.3666  3.3402  0.0850
 1018MOL0     H34341   6.790   2.166   1.490 -1.4157  1.3179 -0.9314
 1018MOL0     H34342   6.583   2.332   1.316  2.5087 -1.7933  2.0737
 1018MOL0     H34343   6.507   2.478   1.415 -3.6992 -0.3894  1.4163
 1018MOL0     H34344   6.418   2.181   1.402  0.4967  0.3106  2.7106
 1018MOL0     H34345   6.345   2.305   1.305 -0.8495 -0.7432  0.0428
 1018MOL0     H34346   6.303   2.413   1.551 -0.0957 -0.3059 -0.8575
 1018MOL0     H34347   6.365   2.262   1.604  0.6134  1.9574  0.5280
 1018MOL0     H34348   6.128   2.277   1.418 -0.4182 -0.3004 -0.3244
 1018MOL0     H34349   6.189   2.126   1.498  2.7344  0.8074  1.0909
 1018MOL0     H34350   6.077   2.375   1.642  0.5091 -0.5243  0.8250
 1018MOL0     H34351   6.105   2.210   1.715 -0.3403  0.7753  0.4223
 1018MOL0     H34352   5.933   2.111   1.555  1.3807  0.0155  0.0426
 1018MOL0     H34353   5.893   2.278   1.500  0.1882 -2.2028 -1.6549
 1018MOL0     H34354   5.844   2.132   1.762 -1.0511  1.2576  1.5815
 1018MOL0     H34355   5.838   2.306   1.753  1.9231 -0.1770 -0.1986
 1018MOL0     H34356   5.677   2.263   1.551  2.2015 -0.6229 -1.1968
 1018MOL0     H34357   5.603   2.240   1.712  0.8784  2.5959 -0.4166
 1018MOL0     H34358   6.685   2.563   1.578 -1.4818 -1.9499 -0.6166
 1018MOL0     H34359   6.918   2.640   1.602  0.1312  0.2285 -2.5608
 1018MOL0     H34360   7.353   2.547   1.858 -0.7614 -2.9050 -0.4206
 1018MOL0     H34361   7.588   2.517   1.868 -2.3285  0.6503  2.5241
 1018MOL0     H34362   9.528   2.430   1.881 -1.8421  0.9874 -2.0647
 1018MOL0     H34363   9.765   2.476   1.883  0.9881 -0.6414  3.0799
 1018MOL0     H34364  10.067   2.876   1.853 -0.9810  0.4929  0.1805
 1018MOL0     H34365  10.300   2.967   1.858  0.7949 -1.3527 -1.3575
 1018MOL0     H34366  10.462   3.056   1.917  1.0129  1.0593 -0.3366
 1018MOL0     H34367  10.544   2.945   1.809  2.4285  0.4183 -0.8780
 1018MOL0     H34368  10.667   3.066   2.067 -0.5162  1.3573 -1.4962
 1018MOL0     H34369  10.725   2.924   1.974  1.0952  0.7769  4.5151
 1018MOL0     H34370  10.680   3.193   1.861  0.2061  0.0132  1.3928
 1018MOL0     H34371  10.740   3.051   1.774 -1.2776  1.2488 -1.8592
 1018MOL0     H34372  10.945   3.050   1.928  0.5465  1.1880  0.8471
 1018MOL0     H34373  10.944   3.156   1.803  1.5501 -0.1638  1.2916
 1018MOL0     H34374  10.926   3.431   2.125  1.6825  0.8848 -2.0128
 1018MOL0     H34375  10.426   2.674   2.134  2.0787  2.8501 -1.0367
 1018MOL0     H34376  10.196   2.584   2.145  1.3950 -0.4236  0.3998
 1019MOL0     O34377  11.271   8.207  10.557 -0.1344 -0.0646  0.5727
 1019MOL0     C34378  11.258   8.107  10.629 -0.2946  0.5337 -0.1809
 1019MOL0     O34379  11.134   8.042  10.659  0.3605 -0.0976  0.0637
 1019MOL0     C34380  11.013   8.082  10.602  0.3170 -0.7646  0.8973
 1019MOL0     C34381  10.918   7.986  10.576 -0.4214 -0.4591 -0.2292
 1019MOL0     C34382  10.785   8.030  10.553 -0.1617 -0.4365  0.1499
 1019MOL0     C34383  10.750   8.163  10.524 -0.2309 -0.3669 -0.1940
 1019MOL0     O34384  10.621   8.203  10.499 -0.1640 -0.0651 -0.0949
 1019MOL0     C34385  10.571   8.136  10.378 -0.0463 -0.5031 -0.0949
 1019MOL0     C34386  10.475   8.236  10.318 -0.6907  0.0769 -0.6161
 1019MOL0     C34387  10.332   8.198  10.360  0.0587 -0.1109  0.4331
 1019MOL0     C34388  10.270   8.089  10.268  0.6039  0.3394 -0.8463
 1019MOL0     C34389  10.119   8.082  10.295  0.6218  0.6156  0.4059
 1019MOL0     C34390  10.042   8.207  10.320  0.7514 -1.1049 -0.6066
 1019MOL0     C34391   9.896   8.178  10.348 -0.4457  0.4807 -0.1784
 1019MOL0     C34392   9.813   8.301  10.341 -0.8951 -0.6170  0.3031
 1019MOL0     N34393   9.673   8.269  10.323 -0.3315  0.7147  0.8294
 1019MOL0     C34394   9.608   8.233  10.207 -0.2804  1.0759  0.5074
 1019MOL0     C34395   9.481   8.201  10.246  0.4809 -0.9536  0.7834
 1019MOL0     C34396   9.379   8.164  10.146  0.2315  0.2927 -0.5658
 1019MOL0     C34397   9.368   8.254  10.030 -0.7552 -0.0552 -0.5601
 1019MOL0     C34398   9.251   8.220   9.944 -0.3798  0.7786  0.7542
 1019MOL0     C34399   9.248   8.320   9.824 -0.1418 -0.8233 -0.0623
 1019MOL0     O34400   9.156   8.275   9.727 -0.6085 -0.0596  0.2556
 1019MOL0     C34401   9.022   8.285   9.760  0.2772 -0.6598  0.7416
 1019MOL0     C34402   8.945   8.170   9.757 -0.6837  0.3321 -0.0059
 1019MOL0     C34403   8.804   8.177   9.770  0.5994 -0.4094 -0.4421
 1019MOL0     C34404   8.746   8.304   9.794 -0.0212  0.6468  0.1914
 1019MOL0     C34405   8.606   8.318   9.803 -0.1718  0.1461 -0.5039
 1019MOL0     O34406   8.551   8.442   9.858 -0.0972 -0.6700 -0.4446
 1019MOL0     C34407   8.428   8.470   9.805  0.2050  0.9927  0.0005
 1019MOL0     C34408   8.422   8.560   9.698 -0.9732  0.2329 -1.1376
 1019MOL0     C34409   8.298   8.589   9.636 -0.1129 -0.8022  0.7950
 1019MOL0     C34410   8.179   8.516   9.662  0.9541  0.4421 -1.7138
 1019MOL0     O34411   8.053   8.530   9.601  0.0233  0.5957 -0.1312
 1019MOL0     C34412   8.018   8.658   9.536  0.5411  0.7081 -0.1251
 1019MOL0     C34413   7.935   8.736   9.638 -0.1337 -0.3539 -0.0969
 1019MOL0     C34414   7.861   8.840   9.543 -0.3815 -1.0448  0.7111
 1019MOL0     C34415   7.811   8.966   9.622  0.5365 -0.4264  0.2831
 1019MOL0     C34416   7.722   9.060   9.529 -0.0056 -0.6577 -0.5331
 1019MOL0     C34417   7.643   9.178   9.598  0.1715 -0.2409  0.2194
 1019MOL0     C34418   7.498   9.131   9.608  0.4544 -0.2182 -0.5381
 1019MOL0     C34419   7.402   9.228   9.679  0.0251 -0.2765 -0.0173
 1019MOL0    Cl34420   7.387   9.362   9.572  0.0400 -0.1739  0.1671
 1019MOL0     C34421   8.186   8.420   9.767 -0.2565  0.0178 -0.3772
 1019MOL0     C34422   8.305   8.405   9.840 -0.3992  0.2647  0.0310
 1019MOL0     O34423   8.536   8.223   9.766  0.3733 -0.3295  0.1595
 1019MOL0     C34424   8.826   8.416   9.806 -0.1083 -0.6984  0.0375
 1019MOL0     C34425   8.965   8.408   9.792 -0.1943 -0.4393 -0.1390
 1019MOL0     N34426   9.461   8.217  10.380  0.3522 -0.2829 -0.0278
 1019MOL0     N34427   9.584   8.254  10.428 -0.0397  0.0558  0.9543
 1019MOL0     C34428  10.854   8.255  10.537  0.1102 -0.5162  0.5696
 1019MOL0     C34429  10.980   8.220  10.582 -0.9064  0.2582  0.3303
 1019MOL0     C34430  11.370   8.062  10.702  0.0487 -0.1114 -0.0008
 1019MOL0     C34431  11.366   7.978  10.809  0.2311 -0.5137 -0.4851
 1019MOL0     C34432  11.478   7.941  10.885 -0.1525  0.0754  0.7126
 1019MOL0     C34433  11.609   7.978  10.853  1.2260  0.0707  0.1981
 1019MOL0     O34434  11.726   7.961  10.931 -0.1930  0.5577  0.3506
 1019MOL0     C34435  11.713   7.908  11.065  0.4674 -0.1899  0.4338
 1019MOL0     C34436  11.851   7.864  11.118 -0.1664  0.0063  0.1020
 1019MOL0     C34437  11.852   7.781  11.250 -0.1163 -0.1605 -0.5594
 1019MOL0     C34438  11.867   7.875  11.377 -0.3473  0.4279 -0.7017
 1019MOL0     C34439  11.999   7.942  11.362 -0.7529 -0.7559  0.0746
 1019MOL0     C34440  12.103   8.007  11.341  0.2182  0.8584  0.2720
 1019MOL0     C34441  11.621   8.045  10.728  0.2827 -0.7999 -0.2855
 1019MOL0     C34442  11.501   8.090  10.659 -0.3502  0.2955 -0.2264
 1019MOL0     H34443  10.956   7.886  10.592  2.0330  0.2283 -1.1572
 1019MOL0     H34444  10.710   7.951  10.546 -0.4033 -0.3587  1.5818
 1019MOL0     H34445  10.538   8.034  10.397 -3.3002  0.3389 -0.5686
 1019MOL0     H34446  10.657   8.133  10.311 -0.8501  2.9872 -1.5157
 1019MOL0     H34447  10.483   8.226  10.209 -0.7686 -0.5682 -0.5694
 1019MOL0     H34448  10.505   8.335  10.352  1.1717 -1.0914  1.4152
 1019MOL0     H34449  10.285   8.294  10.341  0.4444 -0.4742 -3.0429
 1019MOL0     H34450  10.334   8.161  10.463  2.5831 -0.3320  0.3830
 1019MOL0     H34451  10.290   8.116  10.164 -0.3539  4.9402 -0.0596
 1019MOL0     H34452  10.317   7.995  10.299  2.0178  0.7043 -1.7803
 1019MOL0     H34453  10.116   8.026  10.389 -3.1078  1.5520  1.0174
 1019MOL0     H34454  10.070   8.026  10.214 -0.1750  2.5165 -0.4892
 1019MOL0     H34455  10.068   8.275  10.238 -0.7092  0.3352  0.0655
 1019MOL0     H34456  10.078   8.261  10.408  0.5378  0.2770 -1.3459
 1019MOL0     H34457   9.860   8.103  10.278 -1.6145  1.5716 -0.7737
 1019MOL0     H34458   9.893   8.139  10.450 -1.8339 -0.5192 -0.5755
 1019MOL0     H34459   9.845   8.361  10.255 -1.4466  0.4583  0.8203
 1019MOL0     H34460   9.819   8.350  10.439  1.7560 -1.3480  0.6059
 1019MOL0     H34461   9.644   8.237  10.105  0.7786 -1.2570  0.7191
 1019MOL0     H34462   9.284   8.177  10.197 -1.1220  0.3978 -2.9796
 1019MOL0     H34463   9.384   8.061  10.109 -4.4660  0.1188 -1.3089
 1019MOL0     H34464   9.459   8.261   9.970 -0.7922  2.3861 -0.4321
 1019MOL0     H34465   9.353   8.349  10.083  0.0512 -0.7259  0.9218
 1019MOL0     H34466   9.258   8.119   9.904 -0.7951  0.7530  0.7370
 1019MOL0     H34467   9.162   8.223  10.009 -0.4894 -1.6657  0.7835
 1019MOL0     H34468   9.345   8.341   9.778 -0.8123  3.7529  0.0785
 1019MOL0     H34469   9.230   8.420   9.864  3.0021 -0.2297  0.1038
 1019MOL0     H34470   8.994   8.076   9.733 -1.4620  0.1993 -1.1971
 1019MOL0     H34471   8.738   8.091   9.761 -0.5612  0.4609 -0.5604
 1019MOL0     H34472   8.522   8.593   9.674 -0.3157  0.1904  1.2994
 1019MOL0     H34473   8.290   8.652   9.548 -2.9683 -5.2847 -2.6491
 1019MOL0     H34474   7.957   8.629   9.450  0.7662  1.7495 -0.6443
 1019MOL0     H34475   8.105   8.712   9.498 -0.7848  1.5471 -2.1829
 1019MOL0     H34476   7.996   8.786   9.714 -2.3899  1.1807  0.8123
 1019MOL0     H34477   7.856   8.680   9.688 -1.4420  1.2672 -0.2364
 1019MOL0     H34478   7.783   8.771   9.508 -2.2001 -0.4321  3.1943
 1019MOL0     H34479   7.919   8.875   9.458  0.2257  1.7857  2.1627
 1019MOL0     H34480   7.736   8.937   9.696 -1.0945 -0.2450 -1.2000
 1019MOL0     H34481   7.889   9.019   9.676 -0.8888  1.2668  0.7910
 1019MOL0     H34482   7.665   8.991   9.466 -0.6898 -1.1809  0.6230
 1019MOL0     H34483   7.779   9.111   9.450 -0.4254  0.4475 -0.1410
 1019MOL0     H34484   7.652   9.269   9.539  1.8205 -1.0681 -0.8851
 1019MOL0     H34485   7.672   9.186   9.703 -2.3165  1.1914  0.8877
 1019MOL0     H34486   7.457   9.093   9.514 -1.4462 -2.0611  0.9591
 1019MOL0     H34487   7.499   9.048   9.679  0.4408  0.1136 -0.1445
 1019MOL0     H34488   7.427   9.260   9.780  0.1465 -2.1055  0.5743
 1019MOL0     H34489   7.304   9.180   9.692 -0.9565  0.8390 -2.6151
 1019MOL0     H34490   8.099   8.358   9.787 -0.9621  0.3032 -2.2889
 1019MOL0     H34491   8.313   8.328   9.916  1.1212  0.9108  0.5611
 1019MOL0     H34492   8.776   8.511   9.818  3.2981  1.5320 -1.9330
 1019MOL0     H34493   9.016   8.502   9.810 -0.6005 -0.1800 -0.3271
 1019MOL0     H34494  10.838   8.362  10.528  0.3320 -0.5742 -0.6422
 1019MOL0     H34495  11.055   8.297  10.597  0.0760 -1.1601  3.7979
 1019MOL0     H34496  11.264   7.961  10.843 -1.5265  2.7283 -3.4571
 1019MOL0     H34497  11.470   7.878  10.973  2.2477 -1.5558 -0.1310
 1019MOL0     H34498  11.649   7.821  11.049 -0.8755  1.0383 -1.2976
 1019MOL0     H34499  11.669   7.979  11.136  0.6655  0.7390 -0.3369
 1019MOL0     H34500  11.907   7.798  11.050  1.1394  0.6908  0.4771
 1019MOL0     H34501  11.918   7.951  11.123 -1.3494  0.9460  0.1414
 1019MOL0     H34502  11.939   7.715  11.248 -1.8942 -2.8294  2.0774
 1019MOL0     H34503  11.757   7.726  11.252 -0.0057 -0.3286  0.5140
 1019MOL0     H34504  11.780   7.941  11.381 -0.7049 -0.0390  2.9818
 1019MOL0     H34505  11.859   7.818  11.470  1.3691  0.6836 -0.3664
 1019MOL0     H34506  12.194   8.056  11.312  1.1121 -0.1230  1.3444
 1019MOL0     H34507  11.721   8.077  10.701  0.0596 -0.6362 -0.9418
 1019MOL0     H34508  11.519   8.152  10.571  0.7296  0.8537  0.3718
 1020MOL0     O34509   8.133   2.997   8.184 -0.0897 -0.1557  0.9420
 1020MOL0     C34510   8.180   2.881   8.198  0.9607 -0.2149 -0.4992
 1020MOL0     O34511   8.114   2.768   8.238  0.4567 -0.0962 -0.0322
 1020MOL0     C34512   7.980   2.745   8.221 -0.1080  0.7138  0.0904
 1020MOL0     C34513   7.882   2.831   8.166  0.2764  0.1998 -0.1011
 1020MOL0     C34514   7.754   2.786   8.148 -0.1166 -0.1525 -0.0599
 1020MOL0     C34515   7.711   2.660   8.186 -0.3930 -0.4725  0.1584
 1020MOL0     O34516   7.582   2.622   8.196 -0.6712  0.2266 -0.3463
 1020MOL0     C34517   7.485   2.720   8.244 -0.4981 -0.2233 -0.5166
 1020MOL0     C34518   7.359   2.656   8.290  0.5561 -0.3735 -0.2857
 1020MOL0     C34519   7.315   2.570   8.167 -0.0935 -0.6724 -0.4412
 1020MOL0     C34520   7.193   2.489   8.186  0.0868  0.3806 -1.6204
 1020MOL0     C34521   7.184   2.382   8.082  0.2585 -0.3411 -0.2482
 1020MOL0     C34522   7.033   2.340   8.044  0.8300  0.1938 -0.5751
 1020MOL0     C34523   7.037   2.221   7.951 -0.0265  0.0658 -0.3880
 1020MOL0     C34524   6.940   2.216   7.827 -0.7295  0.0185 -0.5021
 1020MOL0     N34525   6.807   2.189   7.872 -0.0631  0.3030 -0.4589
 1020MOL0     C34526   6.765   2.071   7.927  0.5106 -0.1508  1.3744
 1020MOL0     C34527   6.639   2.081   7.970 -0.0956  0.2508  0.7454
 1020MOL0     C34528   6.558   1.981   8.045  0.5706 -0.2096  0.7498
 1020MOL0     C34529   6.415   1.986   7.993 -0.9672 -0.5706  0.3792
 1020MOL0     C34530   6.341   1.866   8.042  0.1445  0.4821  0.5736
 1020MOL0     C34531   6.209   1.849   7.961 -0.2156 -0.1990 -0.5782
 1020MOL0     O34532   6.113   1.741   8.008 -0.0053  0.2396  0.0623
 1020MOL0     C34533   6.007   1.725   7.927  0.9831  0.3722 -0.1612
 1020MOL0     C34534   5.979   1.803   7.814 -0.9032 -0.1036 -0.4177
 1020MOL0     C34535   5.857   1.781   7.752  0.0879  0.1852  0.0311
 1020MOL0     C34536   5.765   1.677   7.781  0.0390  0.1292  0.8762
 1020MOL0     C34537   5.631   1.668   7.725  0.0866 -0.4176 -0.1360
 1020MOL0     O34538   5.544   1.565   7.768 -0.2705 -0.2004  0.7053
 1020MOL0     C34539   5.412   1.573   7.720  0.2345 -0.1883 -0.0177
 1020MOL0     C34540   5.368   1.517   7.598  0.1855 -0.6514  1.2192
 1020MOL0     C34541   5.229   1.525   7.567 -0.2630 -0.0426 -0.6961
 1020MOL0     C34542   5.147   1.599   7.652  1.6229 -0.9768 -0.4391
 1020MOL0     O34543   5.017   1.619   7.617  0.3758  0.1091  0.2379
 1020MOL0     C34544   4.926   1.517   7.676 -0.3845 -0.1630 -0.0222
 1020MOL0     C34545   4.776   1.560   7.686  0.3779 -0.6935  0.2777
 1020MOL0     C34546   4.689   1.474   7.771  0.0288  0.0878 -1.0012
 1020MOL0     C34547   4.692   1.532   7.914  0.0734  0.2920  0.3742
 1020MOL0     C34548   4.669   1.425   8.025 -0.0307  0.3131  1.0135
 1020MOL0     C34549   4.532   1.353   8.007 -0.6313 -0.9097  0.0173
 1020MOL0     C34550   4.487   1.278   8.130 -0.3169 -0.5459 -0.1089
 1020MOL0     C34551   4.574   1.167   8.187 -0.1422  0.2381  0.6558
 1020MOL0    Cl34552   4.467   1.088   8.309  0.1716 -0.0384 -0.3341
 1020MOL0     C34553   5.186   1.657   7.766  0.7389 -0.0725 -0.0612
 1020MOL0     C34554   5.317   1.643   7.803  0.1655 -0.6362 -0.4139
 1020MOL0     O34555   5.604   1.754   7.646 -0.5294 -0.2999  0.5879
 1020MOL0     C34556   5.794   1.604   7.904 -0.0280  0.6024  0.0823
 1020MOL0     C34557   5.914   1.626   7.965  0.0708 -0.1496  0.2812
 1020MOL0     N34558   6.594   2.214   7.934  0.4623  0.3666  0.1421
 1020MOL0     N34559   6.700   2.279   7.885 -0.9534 -1.1291  0.9495
 1020MOL0     C34560   7.811   2.580   8.249 -0.3207 -0.0936 -1.2939
 1020MOL0     C34561   7.944   2.622   8.274 -0.2604  0.1822 -0.8109
 1020MOL0     C34562   8.325   2.863   8.215 -0.8538  0.6564 -0.4402
 1020MOL0     C34563   8.416   2.962   8.167 -0.2485 -0.0942  0.7581
 1020MOL0     C34564   8.558   2.951   8.182  0.4784  0.3032  0.0251
 1020MOL0     C34565   8.613   2.831   8.229  0.0849 -0.6751  0.3947
 1020MOL0     O34566   8.748   2.803   8.244  0.7780  1.0309 -0.2531
 1020MOL0     C34567   8.846   2.907   8.232  0.5291  0.4683  0.2593
 1020MOL0     C34568   8.961   2.897   8.340  0.4701  0.7965  0.1708
 1020MOL0     C34569   9.011   2.749   8.349  0.1312  0.0514  0.0952
 1020MOL0     C34570   9.130   2.724   8.446  1.0131 -0.4221  0.2829
 1020MOL0     C34571   9.257   2.751   8.385  1.1746  0.2213 -0.0742
 1020MOL0     C34572   9.372   2.766   8.341 -0.0372 -0.3501  0.2989
 1020MOL0     C34573   8.530   2.728   8.268 -0.2979 -0.0326 -0.1377
 1020MOL0     C34574   8.394   2.745   8.253  0.6180  0.6335  0.0492
 1020MOL0     H34575   7.902   2.936   8.150 -2.3866  0.7671 -0.0813
 1020MOL0     H34576   7.678   2.855   8.113 -1.1676 -0.1628  1.9922
 1020MOL0     H34577   7.471   2.796   8.167 -1.4478  0.6956  0.5306
 1020MOL0     H34578   7.512   2.769   8.338 -1.8534 -1.4298  0.5436
 1020MOL0     H34579   7.285   2.731   8.320  2.4011  0.9039  1.3651
 1020MOL0     H34580   7.371   2.598   8.382  0.0352  1.5621  1.0716
 1020MOL0     H34581   7.391   2.501   8.130 -1.2125 -1.3963 -1.4639
 1020MOL0     H34582   7.292   2.645   8.092 -0.2314  0.0724  0.3280
 1020MOL0     H34583   7.179   2.448   8.286  4.1505  2.4067  0.0257
 1020MOL0     H34584   7.107   2.555   8.175  0.2027  0.6951 -0.7225
 1020MOL0     H34585   7.224   2.287   8.118 -1.8868 -0.2418  2.7800
 1020MOL0     H34586   7.232   2.410   7.988 -1.0930  0.3150 -0.7636
 1020MOL0     H34587   6.982   2.424   7.996  0.3530  0.2100 -0.0444
 1020MOL0     H34588   6.975   2.329   8.136  1.7908 -2.2482 -0.1882
 1020MOL0     H34589   7.138   2.230   7.909 -0.9687  0.7885 -2.6975
 1020MOL0     H34590   7.028   2.129   8.009  1.8562  0.4488  0.5945
 1020MOL0     H34591   6.963   2.134   7.758 -1.2524 -0.3227 -0.2750
 1020MOL0     H34592   6.933   2.313   7.776 -3.9971  1.4759  2.2845
 1020MOL0     H34593   6.840   1.992   7.935  1.9802  1.0883  0.4511
 1020MOL0     H34594   6.556   1.986   8.154 -3.7162 -0.0497  0.8341
 1020MOL0     H34595   6.599   1.880   8.030  0.9776  0.3392 -2.3864
 1020MOL0     H34596   6.420   1.975   7.884  2.6538  0.3223  0.3308
 1020MOL0     H34597   6.358   2.077   8.011 -2.1019 -0.5665 -2.6366
 1020MOL0     H34598   6.391   1.769   8.032  1.3114  0.4857  4.6179
 1020MOL0     H34599   6.307   1.879   8.144 -3.3795 -1.5943 -0.1813
 1020MOL0     H34600   6.238   1.822   7.860 -1.5604 -2.3133 -0.4628
 1020MOL0     H34601   6.152   1.942   7.969 -0.7248 -0.6122  1.5082
 1020MOL0     H34602   6.036   1.888   7.778 -0.2912  0.8707  2.5420
 1020MOL0     H34603   5.827   1.850   7.674  1.6340  0.9776  0.1041
 1020MOL0     H34604   5.436   1.466   7.529  2.0374  3.8836 -0.6965
 1020MOL0     H34605   5.192   1.490   7.472 -3.1318  1.3521 -0.2033
 1020MOL0     H34606   4.963   1.487   7.774 -2.1047  2.9793  1.7709
 1020MOL0     H34607   4.911   1.431   7.610 -2.5600 -0.3081  0.5864
 1020MOL0     H34608   4.729   1.549   7.588 -1.1237 -0.7091  0.9758
 1020MOL0     H34609   4.770   1.661   7.727  0.3676  1.0202 -3.5484
 1020MOL0     H34610   4.722   1.370   7.778  0.8013  0.3976  0.3153
 1020MOL0     H34611   4.586   1.477   7.733 -0.0672  0.3410 -0.7220
 1020MOL0     H34612   4.786   1.583   7.934  0.0832 -0.0110  1.1629
 1020MOL0     H34613   4.604   1.597   7.915  0.2771  0.5635  1.0049
 1020MOL0     H34614   4.673   1.472   8.123  3.4734 -0.2110  1.2716
 1020MOL0     H34615   4.741   1.342   8.032  1.0691  0.9277 -1.5759
 1020MOL0     H34616   4.548   1.271   7.937  3.7298 -1.6104  1.5385
 1020MOL0     H34617   4.454   1.424   7.978  0.5215  0.1527 -0.5295
 1020MOL0     H34618   4.456   1.355   8.201  0.7853 -0.8468  0.7394
 1020MOL0     H34619   4.398   1.224   8.098  0.3526 -2.6078  1.2362
 1020MOL0     H34620   4.668   1.199   8.233  1.6882 -2.3662 -1.0487
 1020MOL0     H34621   4.604   1.101   8.105  1.9756  1.0663  0.7001
 1020MOL0     H34622   5.116   1.716   7.823  1.7240 -0.1355  1.2630
 1020MOL0     H34623   5.340   1.684   7.901 -0.6025  0.4168 -0.6544
 1020MOL0     H34624   5.720   1.530   7.933 -1.1473  1.7540  0.2637
 1020MOL0     H34625   5.940   1.561   8.048  0.1455 -0.4998 -0.0156
 1020MOL0     H34626   7.781   2.477   8.269 -1.8448  0.8216  1.9758
 1020MOL0     H34627   8.016   2.551   8.313  2.1182  1.8617 -1.8840
 1020MOL0     H34628   8.383   3.048   8.109 -3.2506 -0.4217  1.7934
 1020MOL0     H34629   8.614   3.034   8.140 -3.7148  1.6587 -3.6388
 1020MOL0     H34630   8.794   3.002   8.248 -0.2371  0.2351 -0.7786
 1020MOL0     H34631   8.894   2.904   8.134  0.9655  3.2904  0.2988
 1020MOL0     H34632   9.049   2.959   8.321  1.0991  0.2951  1.3210
 1020MOL0     H34633   8.925   2.919   8.441 -0.9893  0.4889 -0.2613
 1020MOL0     H34634   9.029   2.688   8.260 -1.7751 -2.8555  1.5607
 1020MOL0     H34635   8.929   2.688   8.386  0.3041  0.0253  0.4404
 1020MOL0     H34636   9.119   2.791   8.533 -5.3887  0.6109 -0.8425
 1020MOL0     H34637   9.113   2.620   8.475  2.4011 -0.2534  1.8925
 1020MOL0     H34638   9.472   2.796   8.317 -0.4303  1.0051  0.2793
 1020MOL0     H34639   8.567   2.632   8.302  1.5979  1.1013  1.1887
 1020MOL0     H34640   8.325   2.667   8.282 -0.6428  1.6804 -0.0191
 1021MOL0     O34641   6.601   1.859   1.031 -0.5355 -0.3451 -0.3251
 1021MOL0     C34642   6.646   1.847   1.141 -0.2548  0.5746 -0.3737
 1021MOL0     O34643   6.585   1.796   1.254 -0.2308 -0.2075 -0.3549
 1021MOL0     C34644   6.456   1.789   1.240 -0.5709  0.2589  0.8762
 1021MOL0     C34645   6.401   1.687   1.158 -0.6688 -0.0262  0.0652
 1021MOL0     C34646   6.256   1.674   1.154 -0.1016 -0.2261  0.3165
 1021MOL0     C34647   6.171   1.767   1.212 -0.4727 -0.2593  0.1975
 1021MOL0     O34648   6.041   1.727   1.204  0.1798  0.3406  0.0088
 1021MOL0     C34649   5.936   1.807   1.258  0.1859 -0.7330 -0.0652
 1021MOL0     C34650   5.814   1.722   1.234  0.6988  0.2812 -0.3838
 1021MOL0     C34651   5.683   1.797   1.281 -0.1354 -0.1641 -0.3436
 1021MOL0     C34652   5.564   1.708   1.303 -0.4512  0.6097 -0.5757
 1021MOL0     C34653   5.446   1.777   1.375 -0.3338  0.4521  0.0748
 1021MOL0     C34654   5.311   1.697   1.358  0.1413 -0.0146 -0.2682
 1021MOL0     C34655   5.323   1.556   1.408  0.1150  0.2190 -0.1645
 1021MOL0     C34656   5.185   1.493   1.409  0.3453 -0.9643  0.6629
 1021MOL0     N34657   5.123   1.467   1.280 -0.8790 -1.5934 -0.1738
 1021MOL0     C34658   5.171   1.373   1.202 -0.0311 -0.6279 -0.7129
 1021MOL0     C34659   5.091   1.375   1.094  0.0415 -0.7054 -0.1176
 1021MOL0     C34660   5.074   1.273   0.981  0.0370  0.8777  0.4422
 1021MOL0     C34661   4.968   1.170   1.016  0.4120  0.3727  0.5218
 1021MOL0     C34662   4.920   1.150   1.167  0.3057  0.5601  0.8908
 1021MOL0     C34663   4.808   1.045   1.151 -0.3456  0.3703  0.0379
 1021MOL0     O34664   4.727   1.058   1.265  0.3807  1.5064  0.1287
 1021MOL0     C34665   4.638   0.957   1.298  0.9496  0.5925  0.2547
 1021MOL0     C34666   4.604   0.840   1.239 -0.1787  0.0166  0.2741
 1021MOL0     C34667   4.496   0.756   1.279  0.0355 -0.4160  0.1060
 1021MOL0     C34668   4.412   0.795   1.381  1.2622 -0.0645 -0.4902
 1021MOL0     C34669   4.285   0.723   1.407  0.2729  0.2274  0.4343
 1021MOL0     O34670   4.238   0.630   1.311 -0.6025  0.0606  0.0737
 1021MOL0     C34671   4.113   0.569   1.323 -1.8558 -0.3463  0.2080
 1021MOL0     C34672   4.014   0.577   1.223 -0.0856  0.7495 -0.1490
 1021MOL0     C34673   3.893   0.516   1.245 -0.5170 -0.2178 -0.4688
 1021MOL0     C34674   3.869   0.446   1.370 -0.4901  0.7618 -0.0771
 1021MOL0     O34675   3.770   0.360   1.397 -0.9561 -0.0841 -0.2048
 1021MOL0     C34676   3.672   0.339   1.303 -0.3019  0.6147 -0.0022
 1021MOL0     C34677   3.547   0.256   1.357  0.1043 -0.0811 -0.5377
 1021MOL0     C34678   3.569   0.107   1.342  1.2362 -0.2219 -0.4923
 1021MOL0     C34679   3.470   0.030   1.428 -0.3832  0.1970 -0.1047
 1021MOL0     C34680   3.327   0.063   1.391  0.0498  0.3470  0.2729
 1021MOL0     C34681   3.213  -0.036   1.442 -0.0866  0.1134  0.4647
 1021MOL0     C34682   3.208  -0.033   1.599  0.1044 -0.7650 -0.1445
 1021MOL0     C34683   3.097  -0.138   1.625 -0.4049  0.4606  0.0913
 1021MOL0    Cl34684   2.934  -0.077   1.582 -0.7354 -0.2050  0.0457
 1021MOL0     C34685   3.970   0.441   1.469 -0.1104  0.9276 -0.3362
 1021MOL0     C34686   4.089   0.504   1.448  0.6322  0.4118 -0.2583
 1021MOL0     O34687   4.216   0.777   1.499  0.5573  0.2396 -0.0391
 1021MOL0     C34688   4.443   0.918   1.447  0.0129 -0.4056  0.1353
 1021MOL0     C34689   4.552   0.997   1.400 -0.0450 -0.1400 -0.3551
 1021MOL0     N34690   5.017   1.497   1.097 -0.4745  0.1868 -0.0788
 1021MOL0     N34691   5.030   1.548   1.219  0.0942  0.8266  0.4626
 1021MOL0     C34692   6.227   1.860   1.299  0.8192  0.6133  0.5798
 1021MOL0     C34693   6.370   1.875   1.307  0.3489  0.3985  0.0027
 1021MOL0     C34694   6.780   1.915   1.168 -0.9433 -0.5191  1.0694
 1021MOL0     C34695   6.865   1.966   1.070 -0.2810  0.1472 -0.3598
 1021MOL0     C34696   6.982   2.034   1.105 -0.4429  1.6903  0.1667
 1021MOL0     C34697   7.017   2.043   1.247  0.3109 -0.7802  0.1589
 1021MOL0     O34698   7.134   2.103   1.289  0.5160  0.5252  0.4485
 1021MOL0     C34699   7.176   2.208   1.201 -0.0410 -0.7662 -0.5773
 1021MOL0     C34700   7.308   2.279   1.254  0.7940  0.2651 -0.1859
 1021MOL0     C34701   7.333   2.415   1.189  0.7592  0.8507 -1.2305
 1021MOL0     C34702   7.401   2.419   1.057  0.6918 -0.8562 -0.1308
 1021MOL0     C34703   7.546   2.387   1.063  0.5881 -0.5178  0.1664
 1021MOL0     C34704   7.665   2.376   1.082  0.2401  0.6814  0.8579
 1021MOL0     C34705   6.933   1.983   1.337 -0.4098  0.2381 -0.0505
 1021MOL0     C34706   6.818   1.926   1.301 -0.2679  0.0531  0.3815
 1021MOL0     H34707   6.468   1.633   1.092  1.9750  3.0883 -0.0522
 1021MOL0     H34708   6.221   1.597   1.086 -2.3561 -2.1771  3.4296
 1021MOL0     H34709   5.931   1.907   1.214  2.2620 -0.6291 -0.1732
 1021MOL0     H34710   5.950   1.825   1.365 -2.7052 -0.0818  0.2693
 1021MOL0     H34711   5.815   1.623   1.281 -0.7790 -0.1968 -1.2831
 1021MOL0     H34712   5.788   1.710   1.129 -0.9642  1.7298 -0.1765
 1021MOL0     H34713   5.661   1.881   1.215 -1.4543  0.7492  1.1873
 1021MOL0     H34714   5.707   1.841   1.378 -0.1044  0.4985 -0.6472
 1021MOL0     H34715   5.530   1.664   1.210 -0.9556  0.5396 -0.3632
 1021MOL0     H34716   5.581   1.626   1.374 -2.4069  1.4248  0.9585
 1021MOL0     H34717   5.430   1.878   1.335  2.0219 -0.0928 -2.4561
 1021MOL0     H34718   5.476   1.784   1.480 -1.9556 -1.3234  0.7196
 1021MOL0     H34719   5.264   1.702   1.259  1.1048 -0.4739 -0.7552
 1021MOL0     H34720   5.243   1.750   1.425 -1.1951  0.4822 -1.9445
 1021MOL0     H34721   5.388   1.494   1.346  0.1850 -0.4219  0.5422
 1021MOL0     H34722   5.360   1.568   1.510  0.9343 -0.4881 -0.3681
 1021MOL0     H34723   5.122   1.561   1.466  4.2416  1.5403  2.3652
 1021MOL0     H34724   5.179   1.401   1.469 -1.5493 -0.2038  1.7283
 1021MOL0     H34725   5.237   1.293   1.233  1.0835  0.8189  0.8311
 1021MOL0     H34726   5.173   1.233   0.957 -0.1545  0.7298 -0.1183
 1021MOL0     H34727   5.050   1.335   0.894  2.7666  1.0002 -0.3095
 1021MOL0     H34728   4.999   1.070   0.985  0.0551  0.0278  1.2439
 1021MOL0     H34729   4.883   1.198   0.953  1.6639  2.2414 -0.4531
 1021MOL0     H34730   5.003   1.112   1.228  1.8384 -3.7258 -3.1925
 1021MOL0     H34731   4.876   1.247   1.190  1.2553  0.9804  0.9980
 1021MOL0     H34732   4.848   0.946   1.126 -0.4336  0.5265 -0.7660
 1021MOL0     H34733   4.750   1.080   1.064  0.9512  1.3368 -0.4744
 1021MOL0     H34734   4.661   0.816   1.150 -4.3508 -2.0308 -2.2025
 1021MOL0     H34735   4.496   0.662   1.224  1.2225  0.5005 -1.5429
 1021MOL0     H34736   4.021   0.641   1.135 -1.0826  0.6544 -0.3144
 1021MOL0     H34737   3.827   0.497   1.161  0.2093 -1.8239 -0.7116
 1021MOL0     H34738   3.723   0.276   1.230  0.3940 -1.1248  1.8907
 1021MOL0     H34739   3.635   0.434   1.263  2.3808  2.7196  2.1300
 1021MOL0     H34740   3.458   0.289   1.303 -0.8116 -0.4460  0.6922
 1021MOL0     H34741   3.536   0.283   1.463  0.3404 -0.7592 -0.3354
 1021MOL0     H34742   3.669   0.088   1.382 -0.5293 -0.5204  4.4358
 1021MOL0     H34743   3.564   0.074   1.238  0.1641  0.1081 -0.5601
 1021MOL0     H34744   3.482  -0.078   1.415 -2.2268 -0.3554  2.1412
 1021MOL0     H34745   3.492   0.041   1.534  0.6100  1.0121 -0.3852
 1021MOL0     H34746   3.311   0.069   1.283 -1.6434 -3.5092  0.1711
 1021MOL0     H34747   3.302   0.160   1.436 -2.2507  0.2203 -0.6112
 1021MOL0     H34748   3.249  -0.132   1.405  1.0273  0.6284  0.1677
 1021MOL0     H34749   3.113  -0.010   1.406 -0.3823 -1.2153  0.3076
 1021MOL0     H34750   3.307  -0.059   1.638  1.3330  0.3364 -2.3388
 1021MOL0     H34751   3.184   0.066   1.638 -0.0042  0.1137 -2.3103
 1021MOL0     H34752   3.099  -0.161   1.732 -0.8741 -1.3200 -0.2528
 1021MOL0     H34753   3.109  -0.233   1.572 -1.5982  0.8954 -1.0069
 1021MOL0     H34754   3.937   0.398   1.563 -0.4361  0.9780 -0.4259
 1021MOL0     H34755   4.165   0.509   1.525  1.3987  0.8057 -1.0185
 1021MOL0     H34756   4.377   0.966   1.518  1.0155  0.8335  0.2737
 1021MOL0     H34757   4.566   1.090   1.454 -1.4418 -0.3043  0.3525
 1021MOL0     H34758   6.162   1.930   1.351 -1.3088 -1.9468  1.5639
 1021MOL0     H34759   6.406   1.949   1.378  0.2611 -0.4950  1.0057
 1021MOL0     H34760   6.843   1.962   0.964 -1.4026  0.2024 -0.1445
 1021MOL0     H34761   7.043   2.072   1.024 -0.7397  2.6006  0.3536
 1021MOL0     H34762   7.094   2.279   1.184  1.5528  0.8278 -2.0303
 1021MOL0     H34763   7.203   2.169   1.103  1.6738  1.5886 -1.1411
 1021MOL0     H34764   7.303   2.280   1.363 -0.3723 -0.6702 -0.2102
 1021MOL0     H34765   7.395   2.220   1.224  1.6866  1.5280 -0.1327
 1021MOL0     H34766   7.399   2.473   1.253 -0.1668  0.6548 -0.0489
 1021MOL0     H34767   7.239   2.471   1.182 -0.4332 -0.7180  0.8718
 1021MOL0     H34768   7.360   2.346   0.986  1.6628 -0.5008 -1.0781
 1021MOL0     H34769   7.381   2.519   1.018  2.7753  0.2243  1.4171
 1021MOL0     H34770   7.765   2.349   1.111 -0.1169 -3.0585 -0.7751
 1021MOL0     H34771   6.962   1.994   1.441  0.4057  1.3557 -0.3799
 1021MOL0     H34772   6.753   1.883   1.376 -0.8307 -1.5753 -0.9819
 1022MOL0     O34773   7.906  11.137   0.832  0.0884  0.1904  0.6421
 1022MOL0     C34774   7.948  11.107   0.724  0.4862 -0.5475 -1.0890
 1022MOL0     O34775   7.882  11.042   0.622 -0.3652 -0.1381  0.1205
 1022MOL0     C34776   7.753  11.013   0.640  0.6194  0.2859  0.2744
 1022MOL0     C34777   7.694  10.884   0.657  0.0459  0.4263  0.3554
 1022MOL0     C34778   7.559  10.858   0.657  1.3074  0.1273 -0.0591
 1022MOL0     C34779   7.472  10.962   0.645  1.1598 -0.6946  0.6491
 1022MOL0     O34780   7.338  10.942   0.632  0.1671 -0.3871 -0.0660
 1022MOL0     C34781   7.289  10.850   0.733  0.0763 -0.4157 -0.4781
 1022MOL0     C34782   7.132  10.837   0.717  0.0756 -0.6973  0.1510
 1022MOL0     C34783   7.071  10.749   0.825  0.4842  0.2584  0.4633
 1022MOL0     C34784   6.932  10.694   0.783 -0.0918 -0.1282  0.1619
 1022MOL0     C34785   6.891  10.588   0.888  0.2403 -0.3091  0.2035
 1022MOL0     C34786   6.750  10.567   0.863  0.2781 -0.4736 -1.0815
 1022MOL0     C34787   6.705  10.444   0.936  0.7219 -0.4369  0.4859
 1022MOL0     C34788   6.693  10.466   1.084 -0.7039 -0.4446  0.1996
 1022MOL0     N34789   6.645  10.340   1.141 -1.0462  0.1914  0.3308
 1022MOL0     C34790   6.518  10.310   1.141  1.1875  0.3388  0.2913
 1022MOL0     C34791   6.503  10.183   1.186 -0.7119 -0.8181  0.5140
 1022MOL0     C34792   6.374  10.104   1.192 -0.2146  0.0290 -0.4923
 1022MOL0     C34793   6.286  10.141   1.316 -0.0084  0.5268 -0.5931
 1022MOL0     C34794   6.190  10.025   1.354 -0.2076  0.2244 -0.6469
 1022MOL0     C34795   6.079  10.061   1.458 -0.6861  0.5610  0.1196
 1022MOL0     O34796   6.017   9.936   1.482 -0.4134 -0.3606 -0.2387
 1022MOL0     C34797   5.900   9.933   1.557 -0.0392  0.6376 -0.1746
 1022MOL0     C34798   5.801  10.037   1.553 -0.9360  0.5527 -0.3006
 1022MOL0     C34799   5.667  10.018   1.594  0.8218  0.3671 -0.1713
 1022MOL0     C34800   5.626   9.892   1.645 -0.1549 -0.3691 -0.1095
 1022MOL0     C34801   5.490   9.864   1.692 -0.3447  0.0646  0.3018
 1022MOL0     O34802   5.446   9.738   1.711 -0.2071  0.5527 -0.2235
 1022MOL0     C34803   5.324   9.682   1.704  0.3057 -0.5368  0.6388
 1022MOL0     C34804   5.272   9.608   1.813  0.4616 -0.6192 -0.0513
 1022MOL0     C34805   5.138   9.560   1.807 -0.8647  0.8090  0.1396
 1022MOL0     C34806   5.058   9.585   1.698  0.2519  0.3775  0.8821
 1022MOL0     O34807   4.921   9.559   1.689  0.1532 -0.1082 -0.6869
 1022MOL0     C34808   4.848   9.543   1.809 -0.4114  0.0017  0.3581
 1022MOL0     C34809   4.707   9.536   1.754  0.3442  0.3172 -0.4133
 1022MOL0     C34810   4.611   9.519   1.872  1.0603  0.0812 -0.4863
 1022MOL0     C34811   4.466   9.501   1.835 -0.3238 -1.4877  0.6432
 1022MOL0     C34812   4.393   9.436   1.942 -0.3538  0.4152 -0.6894
 1022MOL0     C34813   4.247   9.452   1.925  0.6988  0.4605 -0.0148
 1022MOL0     C34814   4.182   9.336   2.012  0.1148  0.1258  0.1875
 1022MOL0     C34815   4.028   9.342   1.999 -0.4350 -0.5341 -0.2567
 1022MOL0    Cl34816   3.972   9.499   2.070  0.1579 -0.1839 -0.1647
 1022MOL0     C34817   5.114   9.635   1.584  0.0041 -0.7572  0.1532
 1022MOL0     C34818   5.247   9.684   1.588 -0.5032  0.5233 -0.1081
 1022MOL0     O34819   5.412   9.964   1.695 -1.0642  0.0136 -0.0093
 1022MOL0     C34820   5.725   9.792   1.661 -0.6751  0.2368 -1.0309
 1022MOL0     C34821   5.860   9.812   1.620 -0.3480  0.0723 -0.5879
 1022MOL0     N34822   6.636  10.132   1.193 -0.6325  0.0844 -0.5628
 1022MOL0     N34823   6.721  10.228   1.154  1.5874 -0.6776  0.8508
 1022MOL0     C34824   7.523  11.094   0.632 -0.2669 -0.5887  0.4392
 1022MOL0     C34825   7.660  11.116   0.644  0.2382 -0.1999 -0.8262
 1022MOL0     C34826   8.096  11.139   0.705 -0.0990  0.3140 -0.4301
 1022MOL0     C34827   8.163  11.082   0.599 -0.4557 -1.0679 -0.7413
 1022MOL0     C34828   8.306  11.085   0.591  0.1182  0.6213  0.0688
 1022MOL0     C34829   8.377  11.160   0.684 -0.9105 -0.7048  0.2524
 1022MOL0     O34830   8.515  11.183   0.670 -0.0214  0.2726  0.5927
 1022MOL0     C34831   8.603  11.102   0.585 -0.1118 -0.4017 -0.3657
 1022MOL0     C34832   8.751  11.110   0.617 -0.1700  0.1760 -0.5972
 1022MOL0     C34833   8.820  11.244   0.585 -0.2508 -0.1216 -0.4087
 1022MOL0     C34834   8.852  11.340   0.703  0.4603 -0.6557  0.0033
 1022MOL0     C34835   8.742  11.410   0.757  0.6514  0.6524 -0.2392
 1022MOL0     C34836   8.646  11.462   0.802  0.4519 -0.2463  0.7810
 1022MOL0     C34837   8.314  11.226   0.791 -1.0094  0.0360 -0.1588
 1022MOL0     C34838   8.178  11.201   0.802  0.0908 -0.1880  1.0883
 1022MOL0     H34839   7.775  10.812   0.655 -0.0164  0.3678 -0.2565
 1022MOL0     H34840   7.514  10.760   0.663  3.4362 -0.8196  1.6206
 1022MOL0     H34841   7.299  10.893   0.834  4.0691  0.0482 -0.8999
 1022MOL0     H34842   7.336  10.752   0.725 -3.2326 -2.3276  1.4246
 1022MOL0     H34843   7.114  10.796   0.617 -1.5092  1.1600 -0.3933
 1022MOL0     H34844   7.074  10.930   0.726  1.8326  0.5216 -0.6276
 1022MOL0     H34845   7.063  10.801   0.921  1.5341 -0.5138  0.9866
 1022MOL0     H34846   7.147  10.671   0.835 -0.5177 -1.4482 -3.3958
 1022MOL0     H34847   6.858  10.774   0.777  0.3221  0.3807  1.4491
 1022MOL0     H34848   6.930  10.647   0.685 -0.4905 -0.1639  0.1877
 1022MOL0     H34849   6.890  10.636   0.986 -0.4413 -1.5676  0.8381
 1022MOL0     H34850   6.956  10.500   0.891 -0.9618 -1.2414  3.5927
 1022MOL0     H34851   6.737  10.553   0.755  1.7544  0.8539 -1.4591
 1022MOL0     H34852   6.690  10.655   0.886  2.1059  0.4422  0.4389
 1022MOL0     H34853   6.603  10.426   0.898 -0.0261  2.8126  0.7158
 1022MOL0     H34854   6.776  10.364   0.915  1.1271 -0.8073  2.9704
 1022MOL0     H34855   6.626  10.543   1.124 -2.5749 -2.0553  0.3511
 1022MOL0     H34856   6.790  10.489   1.128 -1.6575  1.0472  1.6763
 1022MOL0     H34857   6.446  10.379   1.099 -2.2127 -2.2012  1.4775
 1022MOL0     H34858   6.409  10.001   1.201  1.2113  0.4073 -1.4501
 1022MOL0     H34859   6.318  10.110   1.099  1.0812 -2.0444 -1.4656
 1022MOL0     H34860   6.235  10.237   1.299 -0.2522  0.7558  1.1981
 1022MOL0     H34861   6.363  10.156   1.392  1.3398  0.1568 -1.8377
 1022MOL0     H34862   6.150   9.991   1.257  0.1044  0.9832 -1.0502
 1022MOL0     H34863   6.251   9.942   1.390  0.0984  0.0814 -1.4750
 1022MOL0     H34864   6.012  10.134   1.411  0.4879  1.3804 -0.3207
 1022MOL0     H34865   6.128  10.104   1.545 -0.7437 -0.8189  0.8557
 1022MOL0     H34866   5.824  10.128   1.498  2.6336 -1.7646 -3.0455
 1022MOL0     H34867   5.594  10.098   1.583  0.7811  0.5766  1.4044
 1022MOL0     H34868   5.343   9.595   1.894 -0.8703  0.4641  1.3454
 1022MOL0     H34869   5.100   9.505   1.892 -0.2374  1.9876  1.2147
 1022MOL0     H34870   4.859   9.625   1.880  0.3096 -1.3473  1.8668
 1022MOL0     H34871   4.857   9.444   1.856 -1.2887  0.9826  2.7686
 1022MOL0     H34872   4.688   9.456   1.682 -1.9537  0.7913 -0.4243
 1022MOL0     H34873   4.681   9.624   1.693  0.6673 -0.3548 -1.5524
 1022MOL0     H34874   4.621   9.605   1.939 -3.3963 -0.5488  1.3663
 1022MOL0     H34875   4.641   9.434   1.933 -3.0340 -0.1183  1.5709
 1022MOL0     H34876   4.425   9.601   1.821  0.8990 -0.6767  2.4821
 1022MOL0     H34877   4.450   9.437   1.748  0.1806 -3.0544  1.6618
 1022MOL0     H34878   4.405   9.477   2.042 -1.7908 -0.4183 -0.1374
 1022MOL0     H34879   4.426   9.331   1.945  3.0065  1.3780  0.0667
 1022MOL0     H34880   4.220   9.433   1.820 -0.8950  1.6477  0.1444
 1022MOL0     H34881   4.210   9.551   1.952 -0.8149 -0.0262 -0.2074
 1022MOL0     H34882   4.217   9.245   1.961  2.1486  0.4528  0.9055
 1022MOL0     H34883   4.217   9.342   2.115 -0.2194  0.1440  0.3009
 1022MOL0     H34884   3.995   9.256   2.058  0.6509 -1.3388 -0.7781
 1022MOL0     H34885   3.994   9.331   1.896  1.8254 -3.4268 -0.8078
 1022MOL0     H34886   5.053   9.651   1.496 -1.9118  0.7184  1.6509
 1022MOL0     H34887   5.284   9.742   1.504 -1.5062  1.6666  0.2115
 1022MOL0     H34888   5.704   9.690   1.692  3.2343  0.0160  1.6301
 1022MOL0     H34889   5.934   9.733   1.626  0.6066  0.9669 -0.2823
 1022MOL0     H34890   7.456  11.179   0.633  0.1405 -0.2681  1.2041
 1022MOL0     H34891   7.687  11.221   0.653 -1.0735  0.0160  1.7882
 1022MOL0     H34892   8.109  11.043   0.514  0.4874  0.7553 -2.2664
 1022MOL0     H34893   8.352  11.035   0.506  1.5349 -0.5246  1.4408
 1022MOL0     H34894   8.593  11.134   0.481 -2.4700  0.0467 -0.0425
 1022MOL0     H34895   8.578  10.996   0.593  1.5231 -0.8617 -0.9549
 1022MOL0     H34896   8.774  11.082   0.721  2.1120 -3.2889 -1.8448
 1022MOL0     H34897   8.808  11.039   0.556  1.2260  0.4935  0.2855
 1022MOL0     H34898   8.754  11.289   0.510 -0.2078 -1.7413 -1.4597
 1022MOL0     H34899   8.917  11.223   0.539  1.3922  1.8045  1.9443
 1022MOL0     H34900   8.898  11.295   0.791 -1.3016 -1.1536  0.7287
 1022MOL0     H34901   8.928  11.410   0.668  0.0436  0.3281  0.9956
 1022MOL0     H34902   8.565  11.522   0.838  4.2914  5.6675  0.9710
 1022MOL0     H34903   8.367  11.288   0.862  0.0002 -1.5286  0.5291
 1022MOL0     H34904   8.119  11.241   0.884  0.3503 -1.1458  1.7599
 1023MOL0     O34905   2.524   8.621   6.066  0.0725  0.1708 -0.5188
 1023MOL0     C34906   2.597   8.519   6.042  0.3649 -0.6297  0.2855
 1023MOL0     O34907   2.554   8.388   6.020  0.1835 -0.0241 -0.1599
 1023MOL0     C34908   2.414   8.348   6.015 -0.6217 -0.1461 -0.7364
 1023MOL0     C34909   2.303   8.424   6.001  0.8285  0.0948  0.1299
 1023MOL0     C34910   2.177   8.361   5.991  0.5068  0.5594  0.1289
 1023MOL0     C34911   2.168   8.213   6.007  0.5564  0.5575 -0.5749
 1023MOL0     O34912   2.040   8.155   6.001 -0.2545 -0.2098  0.2275
 1023MOL0     C34913   2.019   8.008   6.023  0.3456  0.1526  0.0113
 1023MOL0     C34914   1.872   8.001   6.067  0.2840 -0.7414 -0.0390
 1023MOL0     C34915   1.766   8.082   5.986 -0.3673 -0.0431 -0.0364
 1023MOL0     C34916   1.640   8.087   6.075 -0.2234 -0.2117  0.2221
 1023MOL0     C34917   1.521   8.135   6.005  0.0880 -0.9248  0.3576
 1023MOL0     C34918   1.393   8.151   6.086  0.0849 -0.1851  0.1720
 1023MOL0     C34919   1.294   8.240   6.009  0.9372 -0.3911 -0.6698
 1023MOL0     C34920   1.144   8.229   6.063 -0.6232  0.2771  0.6360
 1023MOL0     N34921   1.045   8.298   5.978 -0.6901 -0.8044  0.3581
 1023MOL0     C34922   0.937   8.370   6.021  0.9879 -0.0156 -0.0770
 1023MOL0     C34923   0.853   8.385   5.912 -0.8018 -0.4453 -0.6550
 1023MOL0     C34924   0.715   8.451   5.918 -0.1971 -0.1002  0.2921
 1023MOL0     C34925   0.607   8.352   5.962 -0.8734 -0.2201  0.4537
 1023MOL0     C34926   0.477   8.433   5.997 -0.6840  0.1962 -0.7757
 1023MOL0     C34927   0.340   8.362   5.969 -0.3401  0.9750  0.2369
 1023MOL0     O34928   0.239   8.449   6.016  0.2340 -0.3209  0.4213
 1023MOL0     C34929   0.102   8.412   6.025  0.4329  0.4795 -0.6168
 1023MOL0     C34930   0.006   8.491   6.093 -0.0664 -0.0932 -0.6687
 1023MOL0     C34931  -0.116   8.444   6.127  0.1842  0.4605  0.3414
 1023MOL0     C34932  -0.156   8.308   6.095  0.2293 -0.8778 -0.7947
 1023MOL0     C34933  -0.298   8.269   6.115  0.0481 -0.3928  0.2231
 1023MOL0     O34934  -0.345   8.158   6.044  1.0521 -0.2330 -0.6695
 1023MOL0     C34935  -0.465   8.107   6.075 -1.0721  0.4181 -0.8442
 1023MOL0     C34936  -0.575   8.187   6.080 -0.1339  0.1430  0.0331
 1023MOL0     C34937  -0.700   8.132   6.091 -0.3774  0.5625 -0.3328
 1023MOL0     C34938  -0.729   7.992   6.091 -0.1032  0.1236 -0.6482
 1023MOL0     O34939  -0.850   7.929   6.102 -1.0315 -0.2207 -0.4789
 1023MOL0     C34940  -0.966   8.007   6.084 -0.0003 -0.0903  0.6650
 1023MOL0     C34941  -1.030   8.079   6.196 -0.4387  0.8872  0.2877
 1023MOL0     C34942  -1.157   8.141   6.165 -0.6230 -0.3046  0.0009
 1023MOL0     C34943  -1.223   8.235   6.273 -0.7552  0.4658  0.7479
 1023MOL0     C34944  -1.369   8.209   6.279 -0.2828 -0.4944  0.4848
 1023MOL0     C34945  -1.446   8.298   6.370  0.0513  0.4012 -0.1456
 1023MOL0     C34946  -1.434   8.247   6.511  0.4894  0.2198  0.6374
 1023MOL0     C34947  -1.529   8.320   6.606  1.0312 -0.1104  0.0870
 1023MOL0    Cl34948  -1.693   8.291   6.560 -0.0849  0.2238 -0.2576
 1023MOL0     C34949  -0.616   7.908   6.088 -0.4138 -0.6151 -0.8741
 1023MOL0     C34950  -0.489   7.964   6.079 -0.0305  0.3708  0.2123
 1023MOL0     O34951  -0.363   8.334   6.196 -1.5052  0.5367  0.0959
 1023MOL0     C34952  -0.065   8.228   6.019 -0.1092 -0.2926  0.3977
 1023MOL0     C34953   0.062   8.286   5.986  0.2047 -0.3420  0.2928
 1023MOL0     N34954   0.914   8.334   5.810 -0.2389 -0.2702  0.2796
 1023MOL0     N34955   1.027   8.287   5.843 -0.3778  0.4038 -0.6657
 1023MOL0     C34956   2.282   8.137   6.036 -0.1323  0.1696  0.2052
 1023MOL0     C34957   2.411   8.204   6.035  0.5577  0.0776  0.1726
 1023MOL0     C34958   2.744   8.545   6.056  0.1268  0.1989 -0.3095
 1023MOL0     C34959   2.832   8.434   6.065 -0.4276 -0.0872 -0.2146
 1023MOL0     C34960   2.968   8.442   6.098 -1.0575  0.6308  1.0117
 1023MOL0     C34961   3.027   8.571   6.106  0.1289 -0.1098 -0.4257
 1023MOL0     O34962   3.161   8.587   6.139  0.2085  0.4169  0.7069
 1023MOL0     C34963   3.248   8.635   6.036 -0.5866 -0.0249 -0.4662
 1023MOL0     C34964   3.378   8.668   6.112  0.3584  0.0875  0.0241
 1023MOL0     C34965   3.359   8.772   6.227  0.1376  0.7532  0.5712
 1023MOL0     C34966   3.491   8.802   6.296 -0.2136  0.0149  0.2828
 1023MOL0     C34967   3.554   8.682   6.359 -0.0347 -0.3660 -0.9154
 1023MOL0     C34968   3.598   8.575   6.387  0.2709  0.4808  0.6001
 1023MOL0     C34969   2.947   8.688   6.088  0.5269  0.8767  0.4640
 1023MOL0     C34970   2.804   8.674   6.067  0.6544  0.8926  0.4852
 1023MOL0     H34971   2.315   8.532   5.992  1.4113  0.0872  0.7616
 1023MOL0     H34972   2.085   8.412   5.963 -0.8901 -1.6966  0.2927
 1023MOL0     H34973   2.082   7.965   6.102  0.3389 -0.8263 -0.4991
 1023MOL0     H34974   2.038   7.971   5.922 -2.1422  1.6172 -1.0688
 1023MOL0     H34975   1.859   8.032   6.171 -0.7198  0.9173 -0.6232
 1023MOL0     H34976   1.827   7.901   6.070 -0.6296 -0.3615 -0.6149
 1023MOL0     H34977   1.735   8.035   5.892  1.4501 -4.5133  1.3712
 1023MOL0     H34978   1.792   8.186   5.960 -0.7031  0.0405 -0.0432
 1023MOL0     H34979   1.617   7.987   6.114 -0.2212  1.1799  4.1965
 1023MOL0     H34980   1.672   8.160   6.150 -2.4299  3.8218 -2.4166
 1023MOL0     H34981   1.499   8.080   5.913  0.2351 -0.3773 -0.0082
 1023MOL0     H34982   1.549   8.237   5.977 -1.4661 -0.3871  0.6691
 1023MOL0     H34983   1.410   8.194   6.186 -2.2350  0.8622  0.2069
 1023MOL0     H34984   1.342   8.055   6.095  1.2241 -0.7599  0.5928
 1023MOL0     H34985   1.316   8.347   6.011  0.3327 -0.2689  0.5679
 1023MOL0     H34986   1.286   8.211   5.904 -2.8340 -0.8952 -0.3936
 1023MOL0     H34987   1.145   8.265   6.166 -0.1267 -1.2696  1.1980
 1023MOL0     H34988   1.122   8.123   6.081  0.6335  0.1222  1.3806
 1023MOL0     H34989   0.902   8.400   6.119 -0.1276  2.1056 -1.0330
 1023MOL0     H34990   0.676   8.484   5.821 -3.8311 -1.6818  1.0580
 1023MOL0     H34991   0.732   8.529   5.992  1.8254 -0.7701  0.6095
 1023MOL0     H34992   0.633   8.284   6.044 -1.1992 -0.0791  0.6741
 1023MOL0     H34993   0.586   8.278   5.884  0.1786 -0.7937  0.6905
 1023MOL0     H34994   0.490   8.456   6.103 -0.2623  2.0018 -1.1822
 1023MOL0     H34995   0.472   8.530   5.947 -1.0142  1.3396  1.4112
 1023MOL0     H34996   0.354   8.264   6.016  0.6150  1.2771  0.6182
 1023MOL0     H34997   0.330   8.351   5.861  0.0186 -2.1239  0.4256
 1023MOL0     H34998   0.028   8.594   6.120 -2.0975  0.3864 -0.7075
 1023MOL0     H34999  -0.193   8.509   6.166 -0.7444 -1.1578  1.2977
 1023MOL0     H35000  -0.558   8.294   6.074 -0.1095  0.0454 -3.0814
 1023MOL0     H35001  -0.785   8.199   6.099  0.3197  1.2995  1.4955
 1023MOL0     H35002  -1.028   7.927   6.043  3.9954 -2.2130 -1.9417
 1023MOL0     H35003  -0.947   8.076   6.001  3.2279 -1.4027  0.1434
 1023MOL0     H35004  -0.963   8.153   6.241 -1.6829  2.1629  0.1117
 1023MOL0     H35005  -1.034   8.019   6.288  2.3439  0.3928  0.1770
 1023MOL0     H35006  -1.224   8.058   6.141 -1.2411 -0.1724  1.2409
 1023MOL0     H35007  -1.129   8.206   6.081  2.2322 -0.3306  0.8113
 1023MOL0     H35008  -1.175   8.213   6.369  1.6679 -1.7592 -0.8433
 1023MOL0     H35009  -1.207   8.340   6.247 -0.8769  0.1415 -0.7596
 1023MOL0     H35010  -1.392   8.102   6.291 -1.4952 -0.4003 -0.7477
 1023MOL0     H35011  -1.406   8.224   6.177 -1.8921  0.7503  1.2083
 1023MOL0     H35012  -1.548   8.303   6.330  0.4183  0.8105 -1.0731
 1023MOL0     H35013  -1.397   8.395   6.356  2.1550 -0.5698  0.1747
 1023MOL0     H35014  -1.455   8.140   6.514 -1.9444  0.6413  1.2090
 1023MOL0     H35015  -1.331   8.247   6.546  0.3369  0.2463  1.0864
 1023MOL0     H35016  -1.519   8.428   6.592  2.9150 -0.1333  0.9998
 1023MOL0     H35017  -1.515   8.284   6.708 -3.1987 -3.1237 -0.1272
 1023MOL0     H35018  -0.617   7.799   6.085  0.2364 -0.7543  1.8926
 1023MOL0     H35019  -0.408   7.896   6.057 -1.1671 -0.8322 -0.4523
 1023MOL0     H35020  -0.078   8.127   5.982  0.2441 -0.3140  0.3292
 1023MOL0     H35021   0.128   8.226   5.923  0.8187 -1.2197  1.7366
 1023MOL0     H35022   2.275   8.031   6.057 -1.0646 -0.1559 -1.5166
 1023MOL0     H35023   2.505   8.150   6.043  0.6796  0.2511 -0.0688
 1023MOL0     H35024   2.796   8.332   6.061  0.9072 -0.6031  0.3537
 1023MOL0     H35025   3.041   8.363   6.116  0.0474  1.5026  0.4825
 1023MOL0     H35026   3.211   8.728   5.993 -0.8310  2.5728  4.5982
 1023MOL0     H35027   3.265   8.556   5.962  1.9865  0.2231 -0.2415
 1023MOL0     H35028   3.426   8.577   6.151  0.4344 -0.3025 -0.9571
 1023MOL0     H35029   3.446   8.712   6.039 -1.2081  0.1225 -1.4533
 1023MOL0     H35030   3.288   8.738   6.303 -0.3205 -0.6963 -0.4639
 1023MOL0     H35031   3.320   8.863   6.181 -2.9287 -0.9889 -0.5777
 1023MOL0     H35032   3.564   8.849   6.229  1.6658 -2.2139  0.6155
 1023MOL0     H35033   3.468   8.882   6.367  1.1838  0.3531  0.3851
 1023MOL0     H35034   3.648   8.484   6.413  0.7379  0.3436 -0.6870
 1023MOL0     H35035   2.983   8.790   6.102 -2.6818  2.5231 -2.0338
 1023MOL0     H35036   2.734   8.756   6.055 -0.6861 -0.0852  1.4026
 1024MOL0     O35037   1.028   1.127   0.493 -0.6483  0.4606 -0.5521
 1024MOL0     C35038   1.095   1.073   0.571  0.0826  0.3085  0.1412
 1024MOL0     O35039   1.054   0.995   0.667  0.4001  0.2050 -0.7432
 1024MOL0     C35040   0.932   0.941   0.658  0.0996  0.3628  0.3720
 1024MOL0     C35041   0.821   1.005   0.709  0.8647  0.0738 -0.6512
 1024MOL0     C35042   0.694   0.946   0.708 -0.4587 -0.3131  0.5223
 1024MOL0     C35043   0.671   0.826   0.643 -0.2620 -0.0139 -0.3809
 1024MOL0     O35044   0.547   0.763   0.629  0.6678  0.0125 -0.2396
 1024MOL0     C35045   0.429   0.805   0.704  0.3110 -0.4807  0.8865
 1024MOL0     C35046   0.330   0.688   0.693  0.2278  0.5981 -0.1011
 1024MOL0     C35047   0.209   0.732   0.770 -0.3731  1.0125  0.4217
 1024MOL0     C35048   0.096   0.629   0.738 -0.2028 -0.1800 -0.2903
 1024MOL0     C35049   0.116   0.488   0.792  0.6228  0.1327 -0.1955
 1024MOL0     C35050  -0.003   0.397   0.761  0.3973 -0.1655  0.5454
 1024MOL0     C35051  -0.147   0.435   0.793  0.8820  0.1542  0.5476
 1024MOL0     C35052  -0.158   0.478   0.936  0.8727 -0.3073 -0.1851
 1024MOL0     N35053  -0.284   0.546   0.965  0.0290  0.6881 -0.4071
 1024MOL0     C35054  -0.303   0.679   0.965  0.2319 -0.8521 -0.5986
 1024MOL0     C35055  -0.432   0.706   0.980 -0.0198 -0.1126  0.1288
 1024MOL0     C35056  -0.494   0.843   0.982  0.5261 -0.1908 -0.8776
 1024MOL0     C35057  -0.575   0.847   1.114  0.5632 -0.6787  0.1040
 1024MOL0     C35058  -0.716   0.807   1.075  0.2088 -0.1699 -0.7411
 1024MOL0     C35059  -0.794   0.786   1.195  0.3033 -0.0284 -0.1323
 1024MOL0     O35060  -0.837   0.919   1.242  0.3741 -0.4677 -0.9066
 1024MOL0     C35061  -0.957   0.934   1.314  0.0685  0.2204  0.4580
 1024MOL0     C35062  -1.037   0.828   1.363 -0.2518  0.2234  0.6759
 1024MOL0     C35063  -1.165   0.848   1.426  0.3706  0.0374 -0.7480
 1024MOL0     C35064  -1.213   0.977   1.457 -0.5239 -0.0208 -0.1819
 1024MOL0     C35065  -1.344   0.985   1.523 -0.2299  0.1246  0.5398
 1024MOL0     O35066  -1.424   0.879   1.527 -0.0451 -0.1767  0.1619
 1024MOL0     C35067  -1.554   0.883   1.575 -0.2907  0.2434 -0.0978
 1024MOL0     C35068  -1.602   0.755   1.623 -0.7339 -0.7965  0.3536
 1024MOL0     C35069  -1.722   0.737   1.691  0.6803 -0.1317  0.2954
 1024MOL0     C35070  -1.799   0.851   1.721  0.1755  1.0134  0.5350
 1024MOL0     O35071  -1.908   0.848   1.795 -0.0653  0.0073  0.2768
 1024MOL0     C35072  -2.030   0.883   1.728  0.3403 -1.1079  0.0529
 1024MOL0     C35073  -2.148   0.800   1.779  0.1780  0.0387  0.3845
 1024MOL0     C35074  -2.255   0.788   1.665  0.3255  0.1308  1.0322
 1024MOL0     C35075  -2.383   0.868   1.698  0.0018 -0.3031  0.8143
 1024MOL0     C35076  -2.480   0.874   1.578  0.4378  0.9675  0.7942
 1024MOL0     C35077  -2.536   0.733   1.535  0.1857 -0.9535 -0.5986
 1024MOL0     C35078  -2.625   0.772   1.412  0.5520  0.2672 -0.6798
 1024MOL0     C35079  -2.664   0.639   1.339  0.3968 -0.5187 -0.3868
 1024MOL0    Cl35080  -2.542   0.636   1.218  0.2785 -0.0480 -0.0448
 1024MOL0     C35081  -1.758   0.978   1.669 -0.0356  0.2078 -0.1326
 1024MOL0     C35082  -1.636   0.996   1.602  0.2017  0.6147 -0.5248
 1024MOL0     O35083  -1.370   1.096   1.579 -0.5245  0.0851 -0.8637
 1024MOL0     C35084  -1.133   1.084   1.419 -0.6682 -0.1779 -0.3264
 1024MOL0     C35085  -1.011   1.063   1.348 -0.5239  0.2838 -0.1576
 1024MOL0     N35086  -0.499   0.584   0.986 -0.5899  0.1560 -0.3458
 1024MOL0     N35087  -0.403   0.490   0.964  0.7395 -0.0522 -0.0546
 1024MOL0     C35088   0.781   0.752   0.602  0.7874 -0.5149  0.3236
 1024MOL0     C35089   0.909   0.805   0.611 -0.3318 -0.0768 -0.5189
 1024MOL0     C35090   1.239   1.115   0.571  0.1216 -0.2408  0.0265
 1024MOL0     C35091   1.319   1.111   0.681  0.0373  0.1209 -0.3953
 1024MOL0     C35092   1.454   1.157   0.681 -0.0945 -0.2333  0.7453
 1024MOL0     C35093   1.514   1.207   0.560 -0.4387 -0.7268 -0.8100
 1024MOL0     O35094   1.648   1.241   0.574  0.8149 -0.1921 -0.4000
 1024MOL0     C35095   1.713   1.275   0.454  0.1164  0.2046 -0.2661
 1024MOL0     C35096   1.734   1.161   0.346  0.5842 -0.3709 -0.8575
 1024MOL0     C35097   1.875   1.112   0.352 -0.3714  0.2748  0.6195
 1024MOL0     C35098   1.899   1.006   0.231 -0.3623 -0.3535 -0.1627
 1024MOL0     C35099   2.035   0.936   0.233 -0.5743  0.0361 -0.3313
 1024MOL0     C35100   2.151   0.889   0.248 -0.2121  0.2904  0.7381
 1024MOL0     C35101   1.434   1.215   0.447  0.1207 -0.3164 -0.3374
 1024MOL0     C35102   1.302   1.153   0.447 -0.0969 -0.1128  0.4130
 1024MOL0     H35103   0.843   1.101   0.754  0.2997  0.6589 -1.5916
 1024MOL0     H35104   0.608   0.989   0.759 -0.8466  0.2758 -0.5950
 1024MOL0     H35105   0.389   0.895   0.657  4.4532  2.0527  1.6988
 1024MOL0     H35106   0.444   0.840   0.807 -1.5896  0.9660  0.7226
 1024MOL0     H35107   0.378   0.596   0.729 -2.0470 -0.3535  0.6780
 1024MOL0     H35108   0.303   0.679   0.588  0.4929  2.9333 -0.4256
 1024MOL0     H35109   0.179   0.828   0.726  1.4195  2.5479  2.3616
 1024MOL0     H35110   0.232   0.741   0.877  1.2928  0.6472  0.1220
 1024MOL0     H35111   0.004   0.671   0.778 -0.7895 -2.3605  0.7714
 1024MOL0     H35112   0.090   0.621   0.629  0.7498 -0.5450 -0.3298
 1024MOL0     H35113   0.128   0.482   0.901 -1.9174 -1.5820  0.0755
 1024MOL0     H35114   0.206   0.446   0.746 -0.0834 -1.3969 -0.2602
 1024MOL0     H35115   0.018   0.298   0.801  1.9280  0.7368  2.1178
 1024MOL0     H35116   0.001   0.378   0.654  0.1984 -0.7646  0.6379
 1024MOL0     H35117  -0.186   0.511   0.725  0.2009 -0.5139  0.1710
 1024MOL0     H35118  -0.211   0.348   0.777 -0.7105  1.1440  1.2228
 1024MOL0     H35119  -0.076   0.549   0.948  0.4547  0.1072  0.2603
 1024MOL0     H35120  -0.143   0.403   1.015 -2.1939  2.0282  2.9110
 1024MOL0     H35121  -0.233   0.761   0.958 -3.3628  2.5197 -0.9923
 1024MOL0     H35122  -0.560   0.858   0.896 -2.2122  1.6860  1.3495
 1024MOL0     H35123  -0.422   0.924   0.994 -0.9463  0.9558  0.6761
 1024MOL0     H35124  -0.585   0.948   1.155 -1.9793 -0.9766  0.3283
 1024MOL0     H35125  -0.535   0.783   1.193 -0.3371 -2.6313 -0.9831
 1024MOL0     H35126  -0.765   0.881   1.012  1.3755  1.8732  0.6359
 1024MOL0     H35127  -0.710   0.714   1.017  0.5276 -0.4582 -0.2564
 1024MOL0     H35128  -0.746   0.727   1.274 -1.7950  0.9065  1.9669
 1024MOL0     H35129  -0.878   0.731   1.154  0.4176 -0.1617 -0.1887
 1024MOL0     H35130  -0.994   0.730   1.376 -2.8821 -0.8615  1.8311
 1024MOL0     H35131  -1.209   0.756   1.462  1.8269  0.1850  1.6246
 1024MOL0     H35132  -1.542   0.670   1.593 -0.6634 -0.9486  0.9235
 1024MOL0     H35133  -1.747   0.635   1.719  1.5716 -0.5049 -0.2585
 1024MOL0     H35134  -2.020   0.864   1.621  0.3738  0.3880 -0.2348
 1024MOL0     H35135  -2.048   0.989   1.751  0.6655 -1.4489  2.0944
 1024MOL0     H35136  -2.186   0.842   1.873  0.4398 -0.9433  0.9439
 1024MOL0     H35137  -2.116   0.701   1.812 -0.8047 -1.2850 -2.3394
 1024MOL0     H35138  -2.280   0.684   1.642  0.3328  0.6092 -1.3568
 1024MOL0     H35139  -2.216   0.817   1.567  1.8411 -1.1126  1.2240
 1024MOL0     H35140  -2.427   0.820   1.785  0.4982 -2.2181  0.0681
 1024MOL0     H35141  -2.362   0.973   1.722  0.3313  0.2621 -1.6111
 1024MOL0     H35142  -2.428   0.916   1.492  0.1686  0.0955  0.1877
 1024MOL0     H35143  -2.568   0.932   1.605  0.2480  0.7555  0.6381
 1024MOL0     H35144  -2.594   0.691   1.617  0.7544 -0.6649 -0.0423
 1024MOL0     H35145  -2.454   0.668   1.504  1.6535 -0.0555  1.2196
 1024MOL0     H35146  -2.718   0.816   1.449 -1.0683 -3.4237  0.0595
 1024MOL0     H35147  -2.586   0.854   1.351 -2.5471  1.1967 -1.5832
 1024MOL0     H35148  -2.768   0.652   1.307  1.0806  0.2074 -2.4696
 1024MOL0     H35149  -2.657   0.561   1.416  2.7083  2.2988  2.5819
 1024MOL0     H35150  -1.823   1.054   1.713  0.1164 -0.1517  0.7350
 1024MOL0     H35151  -1.615   1.092   1.555  1.1343  1.0996  0.8425
 1024MOL0     H35152  -1.146   1.189   1.444  1.2729 -0.3211  1.4747
 1024MOL0     H35153  -0.959   1.152   1.315  1.7898 -1.2975 -1.0866
 1024MOL0     H35154   0.770   0.649   0.568 -0.6281 -0.6515  1.1399
 1024MOL0     H35155   1.005   0.758   0.591  1.2640  2.4833  0.5375
 1024MOL0     H35156   1.287   1.071   0.776  1.6439 -0.9521 -0.2720
 1024MOL0     H35157   1.519   1.151   0.767  2.1245  1.3534 -0.7259
 1024MOL0     H35158   1.800   1.341   0.468 -2.9452  3.9938  3.5764
 1024MOL0     H35159   1.650   1.356   0.415 -1.8413 -0.1149  2.0409
 1024MOL0     H35160   1.669   1.077   0.371  1.0344 -1.4324 -3.0569
 1024MOL0     H35161   1.711   1.203   0.248  2.1306  0.7849 -0.7509
 1024MOL0     H35162   1.881   1.070   0.453 -1.7484 -0.7948  0.2987
 1024MOL0     H35163   1.943   1.197   0.343  4.7477 -3.3419  0.5670
 1024MOL0     H35164   1.819   0.932   0.234 -0.9952  0.2226 -1.7481
 1024MOL0     H35165   1.898   1.071   0.143  0.7038  0.1899  0.2080
 1024MOL0     H35166   2.250   0.856   0.275 -0.6400  0.0683  2.1267
 1024MOL0     H35167   1.472   1.259   0.356 -1.7381  1.0238 -0.5219
 1024MOL0     H35168   1.261   1.163   0.347  2.9075 -5.7257 -1.8265
  11.27076  11.27076  11.27076
